<event>
10    2  0.2421970E-006  0.1643253E+03  0.7546771E-02  0.1184454E+00
         21   -1    0    0  501  502  0.00000000000E+00  0.00000000000E+00  0.12572908041E+03  0.12572908041E+03  0.00000000000E+00 0. -1.
          3   -1    0    0  503    0 -0.00000000000E+00 -0.00000000000E+00 -0.63253096766E+03  0.63253096766E+03  0.00000000000E+00 0. -1.
         23    2    1    2    0    0  0.13832864333E+03  0.54988144304E+01 -0.24785677739E+03  0.29829902914E+03  0.91565704050E+02 0.  0.
         23    2    1    2    0    0 -0.90425039142E+02  0.39985151833E+02  0.39793876632E+02  0.13813655952E+03  0.87878645793E+02 0.  0.
        -11    1    3    3    0    0  0.87856356112E+02  0.46846488029E+02 -0.16665291207E+03  0.19413017759E+03  0.00000000000E+00 0.  1.
         11    1    3    3    0    0  0.50472287219E+02 -0.41347673598E+02 -0.81203865327E+02  0.10416885155E+03  0.00000000000E+00 0. -1.
        -13    1    4    4    0    0 -0.84331251097E+02  0.20708769124E+02 -0.70439253426E+01  0.87121925566E+02  0.00000000000E+00 0.  1.
         13    1    4    4    0    0 -0.60937880450E+01  0.19276382709E+02  0.46837801975E+02  0.51014633949E+02  0.00000000000E+00 0. -1.
         21    1    1    2  503  502  0.24278827946E+02 -0.16717763095E+02 -0.16102806704E+03  0.16370395066E+03  0.00000000000E+00 0. -1.
          3    1    1    2  501    0 -0.72182432135E+02 -0.28766203168E+02 -0.13771091945E+03  0.15812050876E+03  0.00000000000E+00 0. -1.
<scales pt_clust_5="13000.00000" pt_clust_6="13000.00000" pt_clust_7="13000.00000" pt_clust_8="13000.00000" pt_clust_9="29.47787" pt_clust_10="72.96375"></scales>
<clustering>
<clus scale="   29.478">  2  9  1 -1</clus>
<clus scale="   72.964">  1 10  2 -1</clus>
<clus scale="   87.879">  7  8 -1 -1</clus>
<clus scale="   91.566">  5  6 -1 -1</clus>
<clus scale="  162.300">  1  7  2 -1</clus>
<clus scale="   72.964">  1  5  2 -1</clus>
</clustering>
</event>
<event>
10    2  0.2421970E-006  0.9896773E+02  0.7546771E-02  0.1282818E+00
         -3   -1    0    0    0  501 -0.00000000000E+00  0.00000000000E+00  0.44098530772E+03  0.44098530772E+03  0.00000000000E+00 0.  1.
         21   -1    0    0  503  502  0.00000000000E+00 -0.00000000000E+00 -0.14713635003E+03  0.14713635003E+03  0.00000000000E+00 0. -1.
         23    2    1    2    0    0  0.29850488799E+02  0.14504230152E+02  0.30547327165E+03  0.32074060271E+03  0.91973855844E+02 0.  0.
         23    2    1    2    0    0 -0.64493182641E+02  0.40295920766E+02  0.72052966395E+02  0.13895963344E+03  0.91296319331E+02 0.  0.
        -11    1    4    4    0    0 -0.36486088347E+02  0.66194354959E+02  0.65984464218E+02  0.10033382675E+03  0.00000000000E+00 0. -1.
         11    1    4    4    0    0 -0.28007094294E+02 -0.25898434194E+02  0.60685021771E+01  0.38625806699E+02  0.00000000000E+00 0.  1.
        -11    1    3    3    0    0  0.39954749235E+01 -0.35250176840E+02  0.17768612544E+03  0.18119298541E+03  0.00000000000E+00 0.  1.
         11    1    3    3    0    0  0.25855013876E+02  0.49754406991E+02  0.12778714621E+03  0.13954761730E+03  0.00000000000E+00 0. -1.
         21    1    1    2  503  501  0.35506703226E+02 -0.96376060240E+01 -0.42341658288E+01  0.37034275801E+02  0.00000000000E+00 0.  1.
         -3    1    1    2    0  502 -0.86400938428E+00 -0.45162544893E+02 -0.79443114521E+02  0.91387145804E+02  0.00000000000E+00 0.  1.
<scales pt_clust_5="13000.00000" pt_clust_6="13000.00000" pt_clust_7="13000.00000" pt_clust_8="13000.00000" pt_clust_9="36.79143" pt_clust_10="56.60274"></scales>
<clustering>
<clus scale="   36.791">  2  9  1 -1</clus>
<clus scale="   56.603">  2 10  1 -1</clus>
<clus scale="   91.296">  5  6 -1 -1</clus>
<clus scale="   91.974">  7  8 -1 -1</clus>
<clus scale="   98.338">  2  5  1 -1</clus>
<clus scale="   36.791">  2  5  1 -1</clus>
</clustering>
</event>
<event>
10    2  0.2421970E-006  0.1133556E+03  0.7546771E-02  0.1254648E+00
         21   -1    0    0  501  502  0.00000000000E+00  0.00000000000E+00  0.59649341626E+02  0.59649341626E+02  0.00000000000E+00 0.  1.
          1   -1    0    0  503    0 -0.00000000000E+00 -0.00000000000E+00 -0.36260239335E+03  0.36260239335E+03  0.00000000000E+00 0. -1.
         23    2    1    2    0    0 -0.50308953203E+02 -0.43296286792E+02 -0.19509971246E+03  0.22601074849E+03  0.92797636858E+02 0.  0.
         23    2    1    2    0    0  0.42936091470E+02  0.43505168968E+02 -0.85659148293E+02  0.14060988198E+03  0.93260074773E+02 0.  0.
        -11    1    3    3    0    0  0.20031880852E+02 -0.26481450524E+02 -0.26261037590E+02  0.42334212732E+02  0.00000000000E+00 0.  1.
         11    1    3    3    0    0 -0.70340834055E+02 -0.16814836268E+02 -0.16883867487E+03  0.18367653575E+03  0.00000000000E+00 0. -1.
        -13    1    4    4    0    0 -0.32124657778E+01 -0.25841349583E+02 -0.94269652564E+01  0.27694096096E+02  0.00000000000E+00 0. -1.
         13    1    4    4    0    0  0.46148557248E+02  0.69346518552E+02 -0.76232183037E+02  0.11291578588E+03  0.00000000000E+00 0.  1.
         21    1    1    2  503  502  0.13220608767E+02 -0.19538454238E+02 -0.25971207186E+02  0.35086169538E+02  0.00000000000E+00 0.  1.
          1    1    1    2  501    0 -0.58477470340E+01  0.19329572062E+02  0.37770162165E+01  0.20544934971E+02  0.00000000000E+00 0. -1.
<scales pt_clust_5="13000.00000" pt_clust_6="13000.00000" pt_clust_7="13000.00000" pt_clust_8="13000.00000" pt_clust_9="21.74770" pt_clust_10="20.19476"></scales>
<clustering>
<clus scale="   20.195">  1 10  2 -1</clus>
<clus scale="   21.748">  1  9  2 -1</clus>
<clus scale="   92.798">  5  6 -1 -1</clus>
<clus scale="   93.260">  7  8 -1 -1</clus>
<clus scale="  112.975">  2  5  1 -1</clus>
<clus scale="   20.195">  1  5  2 -1</clus>
</clustering>
</event>
<event>
10    2  0.2421970E-006  0.2373309E+03  0.7546771E-02  0.1155099E+00
         21   -1    0    0  503  502  0.00000000000E+00  0.00000000000E+00  0.14628033179E+03  0.14628033179E+03  0.00000000000E+00 0. -1.
          1   -1    0    0  502    0 -0.00000000000E+00 -0.00000000000E+00 -0.62535565258E+03  0.62535565258E+03  0.00000000000E+00 0. -1.
         23    2    1    2    0    0 -0.28300082864E+02 -0.46094996846E+02 -0.75928644380E+02  0.12995962784E+03  0.90546686334E+02 0.  0.
         23    2    1    2    0    0  0.23724487643E+03  0.74831159166E+02 -0.30091357959E+03  0.39897152310E+03  0.82124661870E+02 0.  0.
        -13    1    4    4    0    0  0.14984413789E+03  0.62562354645E+02 -0.24685588816E+03  0.29547443781E+03  0.00000000000E+00 0. -1.
         13    1    4    4    0    0  0.87400738532E+02  0.12268804520E+02 -0.54057691437E+02  0.10349708529E+03  0.00000000000E+00 0.  1.
        -13    1    3    3    0    0  0.14331632338E+02 -0.58957688846E+02 -0.39190032109E+02  0.72230626304E+02  0.00000000000E+00 0.  1.
         13    1    3    3    0    0 -0.42631715202E+02  0.12862692000E+02 -0.36738612271E+02  0.57729001534E+02  0.00000000000E+00 0. -1.
         21    1    1    2  503  501 -0.40718754276E+02  0.16894513035E+02 -0.88604377256E+01  0.44966085855E+02  0.00000000000E+00 0. -1.
          1    1    1    2  501    0 -0.16822603929E+03 -0.45630675354E+02 -0.93372659097E+02  0.19773874758E+03  0.00000000000E+00 0. -1.
<scales pt_clust_5="13000.00000" pt_clust_6="13000.00000" pt_clust_7="13000.00000" pt_clust_8="13000.00000" pt_clust_9="31.68851" pt_clust_10="231.41271"></scales>
<clustering>
<clus scale="   31.689">  9 10 -1 -1</clus>
<clus scale="   82.125">  5  6 -1 -1</clus>
<clus scale="   90.547">  7  8 -1 -1</clus>
<clus scale="  105.472">  2  7  1 -1</clus>
<clus scale="  231.413">  1  9  2 -1</clus>
<clus scale="  231.413">  1  5  2 -1</clus>
</clustering>
</event>
<event>
10    2  0.2421970E-006  0.1679206E+03  0.7546771E-02  0.1205909E+00
          1   -1    0    0  503    0 -0.00000000000E+00  0.00000000000E+00  0.58969625164E+03  0.58969625164E+03  0.00000000000E+00 0. -1.
         21   -1    0    0  501  502  0.00000000000E+00 -0.00000000000E+00 -0.18598486565E+03  0.18598486565E+03  0.00000000000E+00 0.  1.
         23    2    1    2    0    0  0.10020272522E+02 -0.19751424908E+01  0.70919441757E+02  0.11734888937E+03  0.92934856588E+02 0.  0.
         23    2    1    2    0    0 -0.37880801704E+02 -0.14932000764E+03  0.38395635101E+03  0.42330109607E+03  0.89609813288E+02 0.  0.
        -13    1    4    4    0    0 -0.47039385192E+02 -0.10088430251E+03  0.33818758456E+03  0.35603537549E+03  0.00000000000E+00 0.  1.
         13    1    4    4    0    0  0.91585834879E+01 -0.48435705129E+02  0.45768766449E+02  0.67265720579E+02  0.00000000000E+00 0. -1.
        -13    1    3    3    0    0 -0.37781355465E+02  0.47039284819E+01  0.95119419868E+01  0.39243277186E+02  0.00000000000E+00 0.  1.
         13    1    3    3    0    0  0.47801627987E+02 -0.66790709726E+01  0.61407499770E+02  0.78105612188E+02  0.00000000000E+00 0. -1.
         21    1    1    2  503  502  0.67194994579E+02  0.40378894905E+02  0.38254149418E+02  0.87229595883E+02  0.00000000000E+00 0.  1.
          1    1    1    2  501    0 -0.39334465396E+02  0.11091625522E+03 -0.89418556191E+02  0.14780153596E+03  0.00000000000E+00 0. -1.
<scales pt_clust_5="13000.00000" pt_clust_6="13000.00000" pt_clust_7="13000.00000" pt_clust_8="13000.00000" pt_clust_9="78.39402" pt_clust_10="142.01202"></scales>
<clustering>
<clus scale="   78.394">  2  9  1 -1</clus>
<clus scale="   89.610">  5  6 -1 -1</clus>
<clus scale="   92.935">  7  8 -1 -1</clus>
<clus scale="   95.073">  1  7  2 -1</clus>
<clus scale="  142.012">  2 10  1 -1</clus>
<clus scale="   78.394">  2  5  1 -1</clus>
</clustering>
</event>
<event>
10    2  0.2421970E-006  0.1210236E+03  0.7546771E-02  0.1253343E+00
          1   -1    0    0  503    0 -0.00000000000E+00  0.00000000000E+00  0.18282495840E+03  0.18282495840E+03  0.00000000000E+00 0. -1.
         21   -1    0    0  501  502  0.00000000000E+00 -0.00000000000E+00 -0.16705930531E+03  0.16705930531E+03  0.00000000000E+00 0. -1.
         23    2    1    2    0    0 -0.20818792945E+02 -0.12844846647E+02  0.29933355718E+02  0.12401553388E+03  0.11783647412E+03 0.  0.
         23    2    1    2    0    0 -0.63484592770E+02 -0.16505457268E+02 -0.33548256373E+02  0.11723102839E+03  0.91186100218E+02 0.  0.
        -11    1    4    4    0    0 -0.28374152100E+02  0.52427834320E+01  0.29882473927E+02  0.41539638100E+02  0.00000000000E+00 0.  1.
         11    1    4    4    0    0 -0.35110440671E+02 -0.21748240700E+02 -0.63430730300E+02  0.75691390290E+02  0.00000000000E+00 0. -1.
        -13    1    3    3    0    0 -0.11179580512E+02 -0.65411098650E+02  0.10697046554E+02  0.67216230570E+02  0.00000000000E+00 0. -1.
         13    1    3    3    0    0 -0.96392124321E+01  0.52566252003E+02  0.19236309164E+02  0.56799303307E+02  0.00000000000E+00 0.  1.
         21    1    1    2  503  502  0.55248089225E+02  0.10133172448E+02  0.39259016142E+02  0.68529576792E+02  0.00000000000E+00 0. -1.
          1    1    1    2  501    0  0.29055296490E+02  0.19217131467E+02 -0.19878462392E+02  0.40108124650E+02  0.00000000000E+00 0. -1.
<scales pt_clust_5="13000.00000" pt_clust_6="13000.00000" pt_clust_7="13000.00000" pt_clust_8="13000.00000" pt_clust_9="59.60919" pt_clust_10="34.83545"></scales>
<clustering>
<clus scale="   34.835">  2 10  1 -1</clus>
<clus scale="   59.609">  1  9  2 -1</clus>
<clus scale="   91.186">  5  6 -1 -1</clus>
<clus scale="   95.269">  2  5  1 -1</clus>
<clus scale="  117.836">  7  8 -1 -1</clus>
<clus scale="   34.835">  2  5  1 -1</clus>
</clustering>
</event>
<event>
10    2  0.2421970E-006  0.1515392E+03  0.7546771E-02  0.1198728E+00
         21   -1    0    0  501  502  0.00000000000E+00  0.00000000000E+00  0.45021873925E+03  0.45021873925E+03  0.00000000000E+00 0. -1.
          2   -1    0    0  503    0 -0.00000000000E+00 -0.00000000000E+00 -0.19927499595E+03  0.19927499595E+03  0.00000000000E+00 0. -1.
         23    2    1    2    0    0  0.96228562196E+02  0.60270748363E+02 -0.98147613071E+02  0.17522195875E+03  0.90428322917E+02 0.  0.
         23    2    1    2    0    0 -0.97110057684E+02 -0.13832565815E+03  0.12703103122E+03  0.22966328107E+03  0.89688286703E+02 0.  0.
        -13    1    4    4    0    0 -0.52080739060E+02 -0.10981754034E+03  0.12779498943E+03  0.17636285003E+03  0.00000000000E+00 0. -1.
         13    1    4    4    0    0 -0.45029318624E+02 -0.28508117808E+02 -0.76395820695E+00  0.53300431038E+02  0.00000000000E+00 0.  1.
        -13    1    3    3    0    0 -0.21387737577E+01  0.40811862134E+02 -0.10878738092E+02  0.42291008342E+02  0.00000000000E+00 0.  1.
         13    1    3    3    0    0  0.98367335954E+02  0.19458886228E+02 -0.87268874979E+02  0.13293095041E+03  0.00000000000E+00 0. -1.
         21    1    1    2  503  502 -0.24202379870E+02  0.30462797406E+02  0.44661146963E+02  0.59231370618E+02  0.00000000000E+00 0. -1.
          2    1    1    2  501    0  0.25083875358E+02  0.47592112382E+02  0.17739917819E+03  0.18537712477E+03  0.00000000000E+00 0. -1.
<scales pt_clust_5="13000.00000" pt_clust_6="13000.00000" pt_clust_7="13000.00000" pt_clust_8="13000.00000" pt_clust_9="38.90678" pt_clust_10="63.05385"></scales>
<clustering>
<clus scale="   38.907">  1  9  2 -1</clus>
<clus scale="   63.054">  1 10  2 -1</clus>
<clus scale="   89.688">  5  6 -1 -1</clus>
<clus scale="   90.428">  7  8 -1 -1</clus>
<clus scale="  151.099">  1  5  2 -1</clus>
<clus scale="   38.907">  1  5  2 -1</clus>
</clustering>
</event>
<event>
10    2  0.4491535E-006  0.2219946E+03  0.7546771E-02  0.1167617E+00
          1   -1    0    0  503    0 -0.00000000000E+00  0.00000000000E+00  0.44060856794E+03  0.44060856794E+03  0.00000000000E+00 0. -1.
         21   -1    0    0  501  502  0.00000000000E+00 -0.00000000000E+00 -0.36146578293E+03  0.36146578293E+03  0.00000000000E+00 0. -1.
         23    2    1    2    0    0 -0.50679332728E+01 -0.29998939277E+02  0.14854101323E+03  0.17693040053E+03  0.91182858663E+02 0.  0.
         23    2    1    2    0    0  0.17332616028E+03 -0.93745831903E+02  0.17920917596E+03  0.28112379504E+03  0.89913405864E+02 0.  0.
        -11    1    3    3    0    0 -0.45723668819E+02 -0.27349945112E+02  0.65497248903E+02  0.84430817844E+02  0.00000000000E+00 0. -1.
         11    1    3    3    0    0  0.40655735546E+02 -0.26489941644E+01  0.83043764330E+02  0.92499582686E+02  0.00000000000E+00 0.  1.
        -13    1    4    4    0    0  0.13087238354E+03 -0.10213213903E+03  0.16851054905E+03  0.23654673901E+03  0.00000000000E+00 0. -1.
         13    1    4    4    0    0  0.42453776739E+02  0.83863071254E+01  0.10698626912E+02  0.44577056031E+02  0.00000000000E+00 0.  1.
         21    1    1    2  503  502 -0.32012808526E+02 -0.12218765187E+02 -0.67593987789E+01  0.34925744148E+02  0.00000000000E+00 0. -1.
          1    1    1    2  501    0 -0.13624541848E+03  0.13596353637E+03 -0.24184800541E+03  0.30909441115E+03  0.00000000000E+00 0. -1.
<scales pt_clust_5="13000.00000" pt_clust_6="13000.00000" pt_clust_7="13000.00000" pt_clust_8="13000.00000" pt_clust_9="34.26541" pt_clust_10="202.97084"></scales>
<clustering>
<clus scale="   34.265">  2  9  1 -1</clus>
<clus scale="   89.913">  7  8 -1 -1</clus>
<clus scale="   91.183">  5  6 -1 -1</clus>
<clus scale="   96.364">  1  5  2 -1</clus>
<clus scale="  202.971">  2 10  1 -1</clus>
<clus scale="   34.265">  2  5  1 -1</clus>
</clustering>
</event>
<event>
10    2  0.2421970E-006  0.2332793E+03  0.7546771E-02  0.1135420E+00
         21   -1    0    0  503  502  0.00000000000E+00  0.00000000000E+00  0.97305270853E+02  0.97305270853E+02  0.00000000000E+00 0.  1.
          2   -1    0    0  502    0 -0.00000000000E+00 -0.00000000000E+00 -0.13566410561E+04  0.13566410561E+04  0.00000000000E+00 0. -1.
         23    2    1    2    0    0 -0.12314422677E+03  0.89620108487E+02 -0.63159632554E+03  0.65613101513E+03  0.91639108179E+02 0.  0.
         23    2    1    2    0    0  0.29426231217E+03 -0.56527270855E+02 -0.40493324575E+03  0.51177916977E+03  0.90340159290E+02 0.  0.
        -11    1    3    3    0    0 -0.57109487357E+02 -0.10225992261E+02 -0.20137789894E+03  0.20956889713E+03  0.00000000000E+00 0.  1.
         11    1    3    3    0    0 -0.66034739409E+02  0.99846100748E+02 -0.43021842660E+03  0.44656211800E+03  0.00000000000E+00 0. -1.
        -13    1    4    4    0    0  0.26905082245E+03 -0.30872648541E+02 -0.31795152803E+03  0.41765373177E+03  0.00000000000E+00 0.  1.
         13    1    4    4    0    0  0.25211489722E+02 -0.25654622314E+02 -0.86981717719E+02  0.94125437994E+02  0.00000000000E+00 0. -1.
         21    1    1    2  503  501 -0.35522732695E+02 -0.24353603180E+02 -0.62322734913E+02  0.75756754240E+02  0.00000000000E+00 0.  1.
          2    1    1    2  501    0 -0.13559535271E+03 -0.87392344526E+01 -0.16048347905E+03  0.21027938782E+03  0.00000000000E+00 0. -1.
<scales pt_clust_5="13000.00000" pt_clust_6="13000.00000" pt_clust_7="13000.00000" pt_clust_8="13000.00000" pt_clust_9="23.86984" pt_clust_10="219.21543"></scales>
<clustering>
<clus scale="   23.870">  9 10 -1 -1</clus>
<clus scale="   90.340">  7  8 -1 -1</clus>
<clus scale="   91.639">  5  6 -1 -1</clus>
<clus scale="  177.747">  2  5  1 -1</clus>
<clus scale="  219.215">  1  9  2 -1</clus>
<clus scale="  219.215">  1  5  2 -1</clus>
</clustering>
</event>
<event>
10    2  0.2421970E-006  0.1894159E+03  0.7546771E-02  0.1159185E+00
         21   -1    0    0  503  502  0.00000000000E+00  0.00000000000E+00  0.29144907325E+03  0.29144907325E+03  0.00000000000E+00 0. -1.
          1   -1    0    0  502    0 -0.00000000000E+00 -0.00000000000E+00 -0.29619811988E+03  0.29619811988E+03  0.00000000000E+00 0. -1.
         23    2    1    2    0    0 -0.90089444485E+02 -0.13365627938E+03 -0.12834938058E+03  0.22397286399E+03  0.87807581013E+02 0.  0.
         23    2    1    2    0    0  0.12081607055E+03  0.13474914601E+03 -0.28623324670E+02  0.20237762556E+03  0.85927605327E+02 0.  0.
        -11    1    4    4    0    0  0.54721260024E+02  0.70678110001E+02 -0.57045085118E+02  0.10603750878E+03  0.00000000000E+00 0.  1.
         11    1    4    4    0    0  0.66094810525E+02  0.64071036010E+02  0.28421760449E+02  0.96340116777E+02  0.00000000000E+00 0. -1.
        -13    1    3    3    0    0  0.14839277923E+02 -0.40543660161E+02 -0.33209067809E+02  0.54468658266E+02  0.00000000000E+00 0. -1.
         13    1    3    3    0    0 -0.10492872241E+03 -0.93112619215E+02 -0.95140312769E+02  0.16950420572E+03  0.00000000000E+00 0.  1.
         21    1    1    2  503  501 -0.95723206390E+01  0.20779330645E+02  0.67925719053E+02  0.71675052936E+02  0.00000000000E+00 0. -1.
          1    1    1    2  501    0 -0.21154305425E+02 -0.21872197280E+02  0.84297939563E+02  0.89621650657E+02  0.00000000000E+00 0. -1.
<scales pt_clust_5="13000.00000" pt_clust_6="13000.00000" pt_clust_7="13000.00000" pt_clust_8="13000.00000" pt_clust_9="22.87815" pt_clust_10="28.43823"></scales>
<clustering>
<clus scale="   22.878">  1  9  2 -1</clus>
<clus scale="   28.438">  1 10  2 -1</clus>
<clus scale="   85.928">  5  6 -1 -1</clus>
<clus scale="   87.808">  7  8 -1 -1</clus>
<clus scale="  188.552">  1  5  2 -1</clus>
<clus scale="   22.878">  1  5  2 -1</clus>
</clustering>
</event>
<event>
10    2  0.2421970E-006  0.1755353E+03  0.7546771E-02  0.1172283E+00
          1   -1    0    0  503    0 -0.00000000000E+00  0.00000000000E+00  0.71458034531E+03  0.71458034531E+03  0.00000000000E+00 0. -1.
         21   -1    0    0  501  502  0.00000000000E+00 -0.00000000000E+00 -0.72082578260E+02  0.72082578260E+02  0.00000000000E+00 0. -1.
         23    2    1    2    0    0 -0.75561402416E+02  0.13500613918E+03  0.51214747620E+03  0.54262949061E+03  0.90639635633E+02 0.  0.
         23    2    1    2    0    0  0.61374572515E+02 -0.12168487980E+03  0.11079281653E+03  0.19795852319E+03  0.91315281231E+02 0.  0.
        -11    1    3    3    0    0 -0.34774507506E+02  0.57588605518E+02  0.95028183721E+02  0.11643053534E+03  0.00000000000E+00 0.  1.
         11    1    3    3    0    0 -0.40786894910E+02  0.77417533662E+02  0.41711929248E+03  0.42619895527E+03  0.00000000000E+00 0. -1.
        -11    1    4    4    0    0  0.82423734675E+02 -0.93390771084E+02  0.66052845931E+02  0.14099108701E+03  0.00000000000E+00 0. -1.
         11    1    4    4    0    0 -0.21049162160E+02 -0.28294108715E+02  0.44739970598E+02  0.56967436178E+02  0.00000000000E+00 0.  1.
         21    1    1    2  503  502 -0.47419595093E+01 -0.20432967638E+02  0.13584087763E+02  0.24990393891E+02  0.00000000000E+00 0.  1.
          1    1    1    2  501    0  0.18928789410E+02  0.71117082568E+01  0.59733865541E+01  0.21084515878E+02  0.00000000000E+00 0. -1.
<scales pt_clust_5="13000.00000" pt_clust_6="13000.00000" pt_clust_7="13000.00000" pt_clust_8="13000.00000" pt_clust_9="20.04078" pt_clust_10="20.22067"></scales>
<clustering>
<clus scale="   20.221">  2 10  1 -1</clus>
<clus scale="   20.041">  2  9  1 -1</clus>
<clus scale="   90.640">  5  6 -1 -1</clus>
<clus scale="   91.315">  7  8 -1 -1</clus>
<clus scale="  175.185">  1  5  2 -1</clus>
<clus scale="   20.221">  2  5  1 -1</clus>
</clustering>
</event>
<event>
10    2  0.2421970E-006  0.1081943E+03  0.7546771E-02  0.1265187E+00
         21   -1    0    0  501  502  0.00000000000E+00  0.00000000000E+00  0.12073317394E+03  0.12073317394E+03  0.00000000000E+00 0. -1.
          1   -1    0    0  503    0 -0.00000000000E+00 -0.00000000000E+00 -0.31448608427E+03  0.31448608427E+03  0.00000000000E+00 0. -1.
         23    2    1    2    0    0 -0.27550873838E+02 -0.58097472636E+02 -0.18652271251E+03  0.21749086364E+03  0.91526971481E+02 0.  0.
         23    2    1    2    0    0  0.45802577374E+02  0.17920886125E+02 -0.11020959118E+02  0.10181610056E+03  0.88464809608E+02 0.  0.
        -11    1    4    4    0    0  0.10746621933E+02  0.49363197610E+02 -0.19153177989E+02  0.54028320244E+02  0.00000000000E+00 0.  1.
         11    1    4    4    0    0  0.35055955441E+02 -0.31442311486E+02  0.81322188708E+01  0.47787780313E+02  0.00000000000E+00 0. -1.
        -11    1    3    3    0    0  0.48428616070E+01 -0.71182822633E+02 -0.90062259398E+02  0.11489846872E+03  0.00000000000E+00 0. -1.
         11    1    3    3    0    0 -0.32393735445E+02  0.13085349996E+02 -0.96460453110E+02  0.10259239492E+03  0.00000000000E+00 0.  1.
         21    1    1    2  503  502 -0.49459091270E+02  0.32696424018E+02  0.36874588152E+02  0.69821150837E+02  0.00000000000E+00 0. -1.
          1    1    1    2  501    0  0.31207387734E+02  0.74801624934E+01 -0.33083826857E+02  0.46091143180E+02  0.00000000000E+00 0. -1.
<scales pt_clust_5="13000.00000" pt_clust_6="13000.00000" pt_clust_7="13000.00000" pt_clust_8="13000.00000" pt_clust_9="50.26563" pt_clust_10="32.09135"></scales>
<clustering>
<clus scale="   32.091">  1 10  2 -1</clus>
<clus scale="   50.266">  1  9  2 -1</clus>
<clus scale="   88.465">  5  6 -1 -1</clus>
<clus scale="   91.527">  7  8 -1 -1</clus>
<clus scale="  105.616">  1  5  2 -1</clus>
<clus scale="   32.091">  1  5  2 -1</clus>
</clustering>
</event>
<event>
10    2  0.2421970E-006  0.1086165E+03  0.7546771E-02  0.1263305E+00
         21   -1    0    0  503  502  0.00000000000E+00  0.00000000000E+00  0.28043974138E+03  0.28043974138E+03  0.00000000000E+00 0.  1.
         -1   -1    0    0    0  501 -0.00000000000E+00 -0.00000000000E+00 -0.15876820175E+03  0.15876820175E+03  0.00000000000E+00 0.  1.
         23    2    1    2    0    0  0.98732877083E+02 -0.69966432004E+02 -0.11552334221E+02  0.15172501109E+03  0.90793942195E+02 0.  0.
         23    2    1    2    0    0  0.20885737300E+02  0.27944946800E+02  0.37148751412E+02  0.10445348434E+03  0.91177664943E+02 0.  0.
        -11    1    4    4    0    0  0.12342112060E+02  0.61549974532E+02  0.20917991162E+02  0.66168644003E+02  0.00000000000E+00 0.  1.
         11    1    4    4    0    0  0.85436252404E+01 -0.33605027732E+02  0.16230760250E+02  0.38284840334E+02  0.00000000000E+00 0. -1.
        -13    1    3    3    0    0  0.11501127354E+03 -0.50068836223E+02 -0.12028961797E+02  0.12601260780E+03  0.00000000000E+00 0.  1.
         13    1    3    3    0    0 -0.16278396458E+02 -0.19897595781E+02  0.47662757627E+00  0.25712403290E+02  0.00000000000E+00 0. -1.
         21    1    1    2  503  501 -0.55881937834E+02  0.17833918985E+01 -0.59001406543E+01  0.56220842420E+02  0.00000000000E+00 0.  1.
         -1    1    1    2    0  502 -0.63736676549E+02  0.40238093305E+02  0.10197526309E+03  0.12680860528E+03  0.00000000000E+00 0.  1.
<scales pt_clust_5="13000.00000" pt_clust_6="13000.00000" pt_clust_7="13000.00000" pt_clust_8="13000.00000" pt_clust_9="55.91039" pt_clust_10="80.10972"></scales>
<clustering>
<clus scale="   55.910">  2  9  1 -1</clus>
<clus scale="   80.110">  1 10  2 -1</clus>
<clus scale="   90.794">  7  8 -1 -1</clus>
<clus scale="   91.178">  5  6 -1 -1</clus>
<clus scale="  108.295">  2  7  1 -1</clus>
<clus scale="   80.110">  1  5  2 -1</clus>
</clustering>
</event>
<event>
10    2  0.2421970E-006  0.2565112E+03  0.7546771E-02  0.1109392E+00
          2   -1    0    0  502    0 -0.00000000000E+00  0.00000000000E+00  0.13642922474E+04  0.13642922474E+04  0.00000000000E+00 0. -1.
         21   -1    0    0  503  502  0.00000000000E+00 -0.00000000000E+00 -0.85043380672E+02  0.85043380672E+02  0.00000000000E+00 0. -1.
         23    2    1    2    0    0  0.21907408563E+03 -0.48490307277E+02  0.69764095184E+03  0.73868105624E+03  0.92747184736E+02 0.  0.
         23    2    1    2    0    0 -0.28127572586E+03 -0.22289559187E+02  0.36713020442E+03  0.47270239735E+03  0.95132071660E+02 0.  0.
        -11    1    4    4    0    0 -0.19199593644E+03  0.62982198516E+01  0.17928579263E+03  0.26276510922E+03  0.00000000000E+00 0. -1.
         11    1    4    4    0    0 -0.89279789419E+02 -0.28587779039E+02  0.18784441179E+03  0.20993728813E+03  0.00000000000E+00 0.  1.
        -13    1    3    3    0    0  0.11045606920E+03  0.41038232663E+01  0.44752031109E+03  0.46096834320E+03  0.00000000000E+00 0. -1.
         13    1    3    3    0    0  0.10861801643E+03 -0.52594130543E+02  0.25012064075E+03  0.27771271305E+03  0.00000000000E+00 0.  1.
         21    1    1    2  503  501  0.14602147044E+01  0.24232933448E+02  0.75388481776E+02  0.79200949963E+02  0.00000000000E+00 0. -1.
          2    1    1    2  501    0  0.60741425526E+02  0.46546933016E+02  0.13908922873E+03  0.15875122455E+03  0.00000000000E+00 0. -1.
<scales pt_clust_5="13000.00000" pt_clust_6="13000.00000" pt_clust_7="13000.00000" pt_clust_8="13000.00000" pt_clust_9="23.50619" pt_clust_10="103.05610"></scales>
<clustering>
<clus scale="   23.506">  9 10 -1 -1</clus>
<clus scale="   92.747">  7  8 -1 -1</clus>
<clus scale="   95.132">  5  6 -1 -1</clus>
<clus scale="  103.056">  2  9  1 -1</clus>
<clus scale="  255.636">  1  7  2 -1</clus>
<clus scale="  103.056">  2  5  1 -1</clus>
</clustering>
</event>
<event>
10    2  0.2421970E-006  0.1492067E+03  0.7546771E-02  0.1226349E+00
          2   -1    0    0  503    0 -0.00000000000E+00  0.00000000000E+00  0.62180320261E+03  0.62180320261E+03  0.00000000000E+00 0. -1.
         21   -1    0    0  501  502  0.00000000000E+00 -0.00000000000E+00 -0.11289998703E+03  0.11289998703E+03  0.00000000000E+00 0.  1.
         23    2    1    2    0    0  0.51626855823E+01 -0.59139441487E+01  0.81000513376E+02  0.11958957360E+03  0.87629646179E+02 0.  0.
         23    2    1    2    0    0  0.26714233723E+02  0.26381381764E+02  0.15501007405E+02  0.10028002345E+03  0.91685191197E+02 0.  0.
        -13    1    4    4    0    0  0.48188849179E+02  0.35218095783E+02  0.35660940726E+02  0.69528283088E+02  0.00000000000E+00 0.  1.
         13    1    4    4    0    0 -0.21474615456E+02 -0.88367140184E+01 -0.20159933321E+02  0.30751740359E+02  0.00000000000E+00 0. -1.
        -13    1    3    3    0    0 -0.17261225256E+02 -0.42042500336E+02  0.42781792259E+02  0.62416371897E+02  0.00000000000E+00 0. -1.
         13    1    3    3    0    0  0.22423910839E+02  0.36128556187E+02  0.38218721116E+02  0.57173201705E+02  0.00000000000E+00 0.  1.
         21    1    1    2  503  502  0.66823675341E+02  0.10927195544E+03  0.26809861322E+03  0.29712393078E+03  0.00000000000E+00 0.  1.
          2    1    1    2  501    0 -0.98700594646E+02 -0.12973939306E+03  0.14430308157E+03  0.21770966181E+03  0.00000000000E+00 0. -1.
<scales pt_clust_5="13000.00000" pt_clust_6="13000.00000" pt_clust_7="13000.00000" pt_clust_8="13000.00000" pt_clust_9="149.20670" pt_clust_10="13000.00000"></scales>
<clustering>
<clus scale="   87.630">  7  8 -1 -1</clus>
<clus scale="   87.981">  1  7  2 -1</clus>
<clus scale="   91.685">  5  6 -1 -1</clus>
<clus scale="   99.058">  1  5  2 -1</clus>
<clus scale="  149.207">  1  9  2 -1</clus>
<clus scale="  149.207">  2  5  1 -1</clus>
</clustering>
</event>
<event>
10    2  0.2421970E-006  0.1753807E+03  0.7546771E-02  0.1196444E+00
         21   -1    0    0  503  502  0.00000000000E+00  0.00000000000E+00  0.45448535973E+03  0.45448535973E+03  0.00000000000E+00 0. -1.
          3   -1    0    0  502    0 -0.00000000000E+00 -0.00000000000E+00 -0.41215531060E+03  0.41215531060E+03  0.00000000000E+00 0. -1.
         23    2    1    2    0    0  0.33921624370E+01  0.47821989157E+02 -0.20440137896E+03  0.22864062873E+03  0.90543713037E+02 0.  0.
         23    2    1    2    0    0 -0.13648390328E+03  0.24249477544E+02 -0.14072694030E+03  0.21761988191E+03  0.91315104226E+02 0.  0.
        -11    1    4    4    0    0 -0.14268856765E+03  0.25864722634E+01 -0.11395374769E+03  0.18262577526E+03  0.00000000000E+00 0. -1.
         11    1    4    4    0    0  0.62046643671E+01  0.21663005280E+02 -0.26773192613E+02  0.34994106652E+02  0.00000000000E+00 0.  1.
        -13    1    3    3    0    0 -0.23470175695E+02  0.29034434435E+02 -0.22035834076E+02  0.43352341500E+02  0.00000000000E+00 0. -1.
         13    1    3    3    0    0  0.26862338132E+02  0.18787554722E+02 -0.18236554488E+03  0.18528828723E+03  0.00000000000E+00 0.  1.
         21    1    1    2  503  501  0.69202573422E+02 -0.56233856147E+02  0.15538686817E+03  0.17915446281E+03  0.00000000000E+00 0. -1.
          3    1    1    2  501    0  0.63889167422E+02 -0.15837610553E+02  0.23207150022E+03  0.24122569689E+03  0.00000000000E+00 0. -1.
<scales pt_clust_5="13000.00000" pt_clust_6="13000.00000" pt_clust_7="13000.00000" pt_clust_8="13000.00000" pt_clust_9="52.17501" pt_clust_10="161.57889"></scales>
<clustering>
<clus scale="   52.175">  9 10 -1 -1</clus>
<clus scale="   90.544">  7  8 -1 -1</clus>
<clus scale="   91.315">  5  6 -1 -1</clus>
<clus scale="  102.453">  2  7  1 -1</clus>
<clus scale="  161.579">  1  9  2 -1</clus>
<clus scale="  161.579">  1  5  2 -1</clus>
</clustering>
</event>
<event>
10    2  0.2421970E-006  0.2416875E+03  0.7546771E-02  0.1149501E+00
          1   -1    0    0  503    0 -0.00000000000E+00  0.00000000000E+00  0.16092212462E+03  0.16092212462E+03  0.00000000000E+00 0. -1.
         21   -1    0    0  501  502  0.00000000000E+00 -0.00000000000E+00 -0.23179464429E+04  0.23179464429E+04  0.00000000000E+00 0. -1.
         23    2    1    2    0    0 -0.49386717535E+02  0.47164294953E+02 -0.23658631968E+03  0.26260824345E+03  0.91249571391E+02 0.  0.
         23    2    1    2    0    0  0.33647683529E+02  0.10263164510E+03  0.65365440322E+02  0.16651807967E+03  0.10858272831E+03 0.  0.
        -11    1    3    3    0    0 -0.54755862002E+02 -0.86474361598E+01 -0.14483479227E+03  0.15508094541E+03  0.00000000000E+00 0.  1.
         11    1    3    3    0    0  0.53691444670E+01  0.55811731112E+02 -0.91751527407E+02  0.10752729804E+03  0.00000000000E+00 0. -1.
        -13    1    4    4    0    0  0.64195587389E+02  0.10377137525E+03  0.46419956122E+02  0.13055414236E+03  0.00000000000E+00 0. -1.
         13    1    4    4    0    0 -0.30547903860E+02 -0.11397301528E+01  0.18945484200E+02  0.35963937307E+02  0.00000000000E+00 0.  1.
         21    1    1    2  503  502  0.71666620936E+02  0.16438080880E+03 -0.53487142134E+03  0.56413171531E+03  0.00000000000E+00 0. -1.
          1    1    1    2  501    0 -0.55927586930E+02 -0.31417674885E+03 -0.14509320176E+04  0.14856105291E+04  0.00000000000E+00 0. -1.
<scales pt_clust_5="13000.00000" pt_clust_6="13000.00000" pt_clust_7="13000.00000" pt_clust_8="13000.00000" pt_clust_9="241.68753" pt_clust_10="13000.00000"></scales>
<clustering>
<clus scale="   91.250">  5  6 -1 -1</clus>
<clus scale="  108.583">  7  8 -1 -1</clus>
<clus scale="  113.974">  1  5  2 -1</clus>
<clus scale="  176.931">  1  7  2 -1</clus>
<clus scale="  241.688">  2  9  1 -1</clus>
<clus scale="  241.688">  2  5  1 -1</clus>
</clustering>
</event>
<event>
10    2  0.2421970E-006  0.1012135E+03  0.7546771E-02  0.1294177E+00
          4   -1    0    0  503    0 -0.00000000000E+00  0.00000000000E+00  0.75951705881E+03  0.75951705881E+03  0.00000000000E+00 0. -1.
         21   -1    0    0  501  502  0.00000000000E+00 -0.00000000000E+00 -0.26235890913E+02  0.26235890913E+02  0.00000000000E+00 0.  1.
         23    2    1    2    0    0 -0.47345566504E+02  0.16144633128E+01  0.39882575254E+03  0.40652432715E+03  0.62895457014E+02 0.  0.
         23    2    1    2    0    0  0.22870673089E+02  0.14057380636E+02  0.28761552834E+03  0.30352238235E+03  0.93179755323E+02 0.  0.
        -13    1    4    4    0    0 -0.88430236915E+01 -0.34788059576E+02  0.14710613957E+03  0.15142200783E+03  0.00000000000E+00 0. -1.
         13    1    4    4    0    0  0.31713696781E+02  0.48845440213E+02  0.14050938878E+03  0.15210037452E+03  0.00000000000E+00 0.  1.
        -13    1    3    3    0    0 -0.33943851400E+02 -0.29107047914E+02  0.25041052370E+03  0.25437145215E+03  0.00000000000E+00 0. -1.
         13    1    3    3    0    0 -0.13401715104E+02  0.30721511226E+02  0.14841522884E+03  0.15215287500E+03  0.00000000000E+00 0.  1.
         21    1    1    2  503  502  0.28771718227E+02  0.50931527127E+01  0.62040011568E+01  0.29870413533E+02  0.00000000000E+00 0.  1.
          4    1    1    2  501    0 -0.42968248118E+01 -0.20764996662E+02  0.40635885861E+02  0.45835826703E+02  0.00000000000E+00 0. -1.
<scales pt_clust_5="13000.00000" pt_clust_6="13000.00000" pt_clust_7="13000.00000" pt_clust_8="13000.00000" pt_clust_9="27.14354" pt_clust_10="21.20490"></scales>
<clustering>
<clus scale="   21.205">  2 10  1 -1</clus>
<clus scale="   27.144">  2  9  1 -1</clus>
<clus scale="   62.895">  7  8 -1 -1</clus>
<clus scale="   74.280">  1  7  2 -1</clus>
<clus scale="   93.180">  5  6 -1 -1</clus>
<clus scale="   21.205">  2  5  1 -1</clus>
</clustering>
</event>
<event>
10    2  0.2421970E-006  0.1392369E+03  0.7546771E-02  0.1214769E+00
         21   -1    0    0  503  502  0.00000000000E+00  0.00000000000E+00  0.93575920083E+03  0.93575920083E+03  0.00000000000E+00 0. -1.
         -1   -1    0    0    0  501 -0.00000000000E+00 -0.00000000000E+00 -0.44528405720E+02  0.44528405720E+02  0.00000000000E+00 0.  1.
         23    2    1    2    0    0  0.82155763293E+02  0.23591051673E+02  0.19208648533E+03  0.22914598609E+03  0.91129347260E+02 0.  0.
         23    2    1    2    0    0 -0.11801224848E+03 -0.65439194562E+02  0.27627285485E+03  0.32016737370E+03  0.89282013179E+02 0.  0.
        -11    1    4    4    0    0 -0.86757400750E+02 -0.29798424676E+02  0.24926758719E+03  0.26561084828E+03  0.00000000000E+00 0.  1.
         11    1    4    4    0    0 -0.31254847730E+02 -0.35640769886E+02  0.27005267658E+02  0.54556525421E+02  0.00000000000E+00 0. -1.
        -11    1    3    3    0    0  0.25412135325E+02  0.48366884645E+02  0.49616924654E+02  0.73803599941E+02  0.00000000000E+00 0.  1.
         11    1    3    3    0    0  0.56743627967E+02 -0.24775832972E+02  0.14246956068E+03  0.15534238615E+03  0.00000000000E+00 0. -1.
         21    1    1    2  503  501 -0.94188680895E+01  0.21890679573E+02  0.57130552274E+02  0.61901671474E+02  0.00000000000E+00 0.  1.
         -1    1    1    2    0  502  0.45275353278E+02  0.19957463316E+02  0.36574090265E+03  0.36907257529E+03  0.00000000000E+00 0.  1.
<scales pt_clust_5="13000.00000" pt_clust_6="13000.00000" pt_clust_7="13000.00000" pt_clust_8="13000.00000" pt_clust_9="23.83101" pt_clust_10="50.56440"></scales>
<clustering>
<clus scale="   23.831">  1  9  2 -1</clus>
<clus scale="   50.564">  1 10  2 -1</clus>
<clus scale="   89.282">  5  6 -1 -1</clus>
<clus scale="   91.129">  7  8 -1 -1</clus>
<clus scale="  138.035">  1  5  2 -1</clus>
<clus scale="   23.831">  1  5  2 -1</clus>
</clustering>
</event>
<event>
10    2  0.2421970E-006  0.2686923E+03  0.7546771E-02  0.1124396E+00
          2   -1    0    0  503    0 -0.00000000000E+00  0.00000000000E+00  0.89803533032E+03  0.89803533032E+03  0.00000000000E+00 0. -1.
         21   -1    0    0  501  502  0.00000000000E+00 -0.00000000000E+00 -0.32416492074E+03  0.32416492074E+03  0.00000000000E+00 0. -1.
         23    2    1    2    0    0  0.98631864724E+02  0.37468322745E+02  0.80832385789E+02  0.16137227906E+03  0.91515123932E+02 0.  0.
         23    2    1    2    0    0  0.14939999357E+03  0.90436098959E+02  0.23975093867E+03  0.31050972764E+03  0.91851686377E+02 0.  0.
        -11    1    3    3    0    0  0.10803672706E+02  0.33392692359E+02  0.62317821689E+02  0.71521340501E+02  0.00000000000E+00 0.  1.
         11    1    3    3    0    0  0.87828192017E+02  0.40756303861E+01  0.18514564100E+02  0.89850938559E+02  0.00000000000E+00 0. -1.
        -13    1    4    4    0    0  0.48275585794E+02  0.76749158315E+02  0.79833138158E+02  0.12080685177E+03  0.00000000000E+00 0. -1.
         13    1    4    4    0    0  0.10112440778E+03  0.13686940643E+02  0.15991780051E+03  0.18970287587E+03  0.00000000000E+00 0.  1.
         21    1    1    2  503  502 -0.36756970976E+03 -0.17249709055E+03 -0.61494854876E+02  0.41066331095E+03  0.00000000000E+00 0. -1.
          2    1    1    2  501    0  0.11953785147E+03  0.44592668844E+02  0.31478194000E+03  0.33965493342E+03  0.00000000000E+00 0. -1.
<scales pt_clust_5="13000.00000" pt_clust_6="13000.00000" pt_clust_7="13000.00000" pt_clust_8="13000.00000" pt_clust_9="252.50508" pt_clust_10="127.58456"></scales>
<clustering>
<clus scale="   91.515">  5  6 -1 -1</clus>
<clus scale="   91.852">  7  8 -1 -1</clus>
<clus scale="  127.585">  2 10  1 -1</clus>
<clus scale="  152.501">  1  5  2 -1</clus>
<clus scale="  252.505">  2  9  1 -1</clus>
<clus scale="  127.585">  2  5  1 -1</clus>
</clustering>
</event>
<event>
10    2  0.2421970E-006  0.1897190E+03  0.7546771E-02  0.1181710E+00
         21   -1    0    0  501  502  0.00000000000E+00  0.00000000000E+00  0.27213232127E+03  0.27213232127E+03  0.00000000000E+00 0. -1.
          2   -1    0    0  503    0 -0.00000000000E+00 -0.00000000000E+00 -0.11445437348E+04  0.11445437348E+04  0.00000000000E+00 0. -1.
         23    2    1    2    0    0 -0.22725062540E+02 -0.16808272110E+03 -0.10183915794E+04  0.10364667953E+04  0.91508356560E+02 0.  0.
         23    2    1    2    0    0 -0.21898406598E+02  0.58159876864E+02 -0.55998088957E+02  0.12283458565E+03  0.89946861967E+02 0.  0.
        -11    1    3    3    0    0 -0.20657413050E+02  0.11514052427E+01 -0.66429976340E+02  0.69577267871E+02  0.00000000000E+00 0.  1.
         11    1    3    3    0    0 -0.20676494898E+01 -0.16923412634E+03 -0.95196160303E+03  0.96688952747E+03  0.00000000000E+00 0. -1.
        -13    1    4    4    0    0  0.15506978207E+02 -0.18273578143E+02 -0.15930570049E+02  0.28777996688E+02  0.00000000000E+00 0. -1.
         13    1    4    4    0    0 -0.37405384805E+02  0.76433455007E+02 -0.40067518908E+02  0.94056588967E+02  0.00000000000E+00 0.  1.
         21    1    1    2  503  502  0.65493936887E+02  0.79491117302E+02  0.19396342399E+03  0.21961353179E+03  0.00000000000E+00 0. -1.
          2    1    1    2  501    0 -0.20870467749E+02  0.30431726929E+02  0.80148308146E+01  0.37761143269E+02  0.00000000000E+00 0. -1.
<scales pt_clust_5="13000.00000" pt_clust_6="13000.00000" pt_clust_7="13000.00000" pt_clust_8="13000.00000" pt_clust_9="166.19120" pt_clust_10="36.90076"></scales>
<clustering>
<clus scale="   36.901">  1 10  2 -1</clus>
<clus scale="   89.947">  7  8 -1 -1</clus>
<clus scale="   91.508">  5  6 -1 -1</clus>
<clus scale="  112.135">  1  7  2 -1</clus>
<clus scale="  166.191">  1  9  2 -1</clus>
<clus scale="   36.901">  1  5  2 -1</clus>
</clustering>
</event>
<event>
10    2  0.2421970E-006  0.2396560E+03  0.7546771E-02  0.1121038E+00
         21   -1    0    0  503  502  0.00000000000E+00  0.00000000000E+00  0.20326865052E+03  0.20326865052E+03  0.00000000000E+00 0. -1.
          2   -1    0    0  502    0 -0.00000000000E+00 -0.00000000000E+00 -0.63538208947E+03  0.63538208947E+03  0.00000000000E+00 0. -1.
         23    2    1    2    0    0  0.37648416914E+02 -0.29512724182E+03 -0.28566930853E+03  0.42573684336E+03  0.10548655744E+03 0.  0.
         23    2    1    2    0    0 -0.55880927885E+02  0.12360613155E+03 -0.22531453621E+02  0.16490119100E+03  0.91014188643E+02 0.  0.
        -11    1    4    4    0    0 -0.53460766134E+02  0.71081862593E+02 -0.53584257023E+02  0.10383620422E+03  0.00000000000E+00 0.  1.
         11    1    4    4    0    0 -0.24201617505E+01  0.52524268953E+02  0.31052803402E+02  0.61064986785E+02  0.00000000000E+00 0. -1.
        -13    1    3    3    0    0 -0.22420941084E+02 -0.12438364599E+03 -0.71078216811E+02  0.14500380304E+03  0.00000000000E+00 0.  1.
         13    1    3    3    0    0  0.60069357998E+02 -0.17074359583E+03 -0.21459109172E+03  0.28073304033E+03  0.00000000000E+00 0. -1.
         21    1    1    2  503  501  0.67472209601E+02  0.63238621148E+02 -0.32596670786E+02  0.98051849649E+02  0.00000000000E+00 0. -1.
          2    1    1    2  501    0 -0.49239698630E+02  0.10828248913E+03 -0.91316006010E+02  0.14996085598E+03  0.00000000000E+00 0. -1.
<scales pt_clust_5="13000.00000" pt_clust_6="13000.00000" pt_clust_7="13000.00000" pt_clust_8="13000.00000" pt_clust_9="92.47498" pt_clust_10="124.95895"></scales>
<clustering>
<clus scale="   91.014">  5  6 -1 -1</clus>
<clus scale="   92.475">  1  9  2 -1</clus>
<clus scale="  105.487">  7  8 -1 -1</clus>
<clus scale="  124.959">  1 10  2 -1</clus>
<clus scale="  233.648">  1  5  2 -1</clus>
<clus scale="   92.475">  1  5  2 -1</clus>
</clustering>
</event>
<event>
10    2  0.3056306E-006  0.1971173E+03  0.7546771E-02  0.1179106E+00
         21   -1    0    0  503  502  0.00000000000E+00  0.00000000000E+00  0.10107997537E+04  0.10107997537E+04  0.00000000000E+00 0. -1.
          1   -1    0    0  502    0 -0.00000000000E+00 -0.00000000000E+00 -0.15451751917E+03  0.15451751917E+03  0.00000000000E+00 0. -1.
         23    2    1    2    0    0  0.51254335810E+02 -0.11154486981E+02  0.18703148224E+03  0.21498110061E+03  0.92112261678E+02 0.  0.
         23    2    1    2    0    0  0.77312503134E+02 -0.12281746583E+03 -0.76177255105E+02  0.18060693465E+03  0.75858668554E+02 0.  0.
        -11    1    3    3    0    0 -0.20383731488E+02 -0.28214318545E+01  0.81951922171E+01  0.22149902089E+02  0.00000000000E+00 0.  1.
         11    1    3    3    0    0  0.71638067298E+02 -0.83330551268E+01  0.17883629002E+03  0.19283119852E+03  0.00000000000E+00 0. -1.
        -13    1    4    4    0    0 -0.63303271775E+01 -0.35198327959E+02  0.30060645421E+01  0.35889159329E+02  0.00000000000E+00 0.  1.
         13    1    4    4    0    0  0.83642830312E+02 -0.87619137870E+02 -0.79183319647E+02  0.14471777532E+03  0.00000000000E+00 0. -1.
         21    1    1    2  503  501 -0.17867990221E+02  0.28914871486E+02  0.21912540476E+03  0.22174597602E+03  0.00000000000E+00 0. -1.
          1    1    1    2  501    0 -0.11069884872E+03  0.10505708132E+03  0.52630260260E+03  0.54798326156E+03  0.00000000000E+00 0. -1.
<scales pt_clust_5="13000.00000" pt_clust_6="13000.00000" pt_clust_7="13000.00000" pt_clust_8="13000.00000" pt_clust_9="22.84006" pt_clust_10="188.26297"></scales>
<clustering>
<clus scale="   22.840">  9 10 -1 -1</clus>
<clus scale="   75.859">  7  8 -1 -1</clus>
<clus scale="   92.112">  5  6 -1 -1</clus>
<clus scale="  106.001">  2  5  1 -1</clus>
<clus scale="  188.263">  1  9  2 -1</clus>
<clus scale="  188.263">  1  5  2 -1</clus>
</clustering>
</event>
<event>
10    2  0.2421970E-006  0.9845872E+02  0.7546771E-02  0.1284751E+00
         21   -1    0    0  501  502  0.00000000000E+00  0.00000000000E+00  0.11812286901E+03  0.11812286901E+03  0.00000000000E+00 0. -1.
          1   -1    0    0  503    0 -0.00000000000E+00 -0.00000000000E+00 -0.39306235050E+03  0.39306235050E+03  0.00000000000E+00 0. -1.
         23    2    1    2    0    0 -0.10875080870E+02  0.17743356001E+02 -0.21717019845E+03  0.23594738021E+03  0.89861989011E+02 0.  0.
         23    2    1    2    0    0  0.48362340813E+02 -0.23756064547E+01 -0.10372852837E+03  0.14697800800E+03  0.92186591886E+02 0.  0.
        -11    1    4    4    0    0  0.58354176333E+02 -0.26801567551E+02 -0.10200080690E+03  0.12053090279E+03  0.00000000000E+00 0. -1.
         11    1    4    4    0    0 -0.99918355204E+01  0.24425961096E+02 -0.17277214662E+01  0.26447105210E+02  0.00000000000E+00 0.  1.
        -13    1    3    3    0    0 -0.90205140567E+01 -0.32990871138E+02 -0.45459206496E+02  0.56888546365E+02  0.00000000000E+00 0.  1.
         13    1    3    3    0    0 -0.18545668129E+01  0.50734227140E+02 -0.17171099195E+03  0.17905883385E+03  0.00000000000E+00 0. -1.
         21    1    1    2  503  502 -0.24936235871E+02  0.76238179531E+01 -0.34727677726E+02  0.43427526522E+02  0.00000000000E+00 0. -1.
          1    1    1    2  501    0 -0.12551024073E+02 -0.22991567500E+02  0.80686923050E+02  0.84832304771E+02  0.00000000000E+00 0. -1.
<scales pt_clust_5="13000.00000" pt_clust_6="13000.00000" pt_clust_7="13000.00000" pt_clust_8="13000.00000" pt_clust_9="26.07563" pt_clust_10="26.22549"></scales>
<clustering>
<clus scale="   26.076">  2  9  1 -1</clus>
<clus scale="   26.225">  1 10  2 -1</clus>
<clus scale="   89.862">  7  8 -1 -1</clus>
<clus scale="   92.187">  5  6 -1 -1</clus>
<clus scale="   96.286">  2  7  1 -1</clus>
<clus scale="   26.225">  1  5  2 -1</clus>
</clustering>
</event>
<event>
10    2  0.2421970E-006  0.9231655E+02  0.7546771E-02  0.1297851E+00
         21   -1    0    0  501  502  0.00000000000E+00  0.00000000000E+00  0.29354224348E+03  0.29354224348E+03  0.00000000000E+00 0.  1.
          1   -1    0    0  503    0 -0.00000000000E+00 -0.00000000000E+00 -0.18901181750E+03  0.18901181750E+03  0.00000000000E+00 0. -1.
         23    2    1    2    0    0 -0.28572783461E+01 -0.11821427365E+02 -0.13550166970E+03  0.16313338267E+03  0.90021596670E+02 0.  0.
         23    2    1    2    0    0  0.70077549510E+01  0.37365270076E+02  0.46492171166E+02  0.10895523636E+03  0.90909017780E+02 0.  0.
        -11    1    3    3    0    0  0.27339145093E+02 -0.33272896758E+02 -0.11009288579E+03  0.11821572660E+03  0.00000000000E+00 0. -1.
         11    1    3    3    0    0 -0.30196423439E+02  0.21451469394E+02 -0.25408783904E+02  0.44917656073E+02  0.00000000000E+00 0.  1.
        -11    1    4    4    0    0 -0.22182225803E+02  0.22128507647E+02  0.64295022021E+02  0.71523225940E+02  0.00000000000E+00 0.  1.
         11    1    4    4    0    0  0.29189980754E+02  0.15236762428E+02 -0.17802850854E+02  0.37432010422E+02  0.00000000000E+00 0. -1.
         21    1    1    2  503  502 -0.39841106760E+01  0.21620549931E+02  0.17161301295E+02  0.27889632112E+02  0.00000000000E+00 0.  1.
          1    1    1    2  501    0 -0.16636592891E+00 -0.47164392642E+02  0.17637862321E+03  0.18257580983E+03  0.00000000000E+00 0. -1.
<scales pt_clust_5="13000.00000" pt_clust_6="13000.00000" pt_clust_7="13000.00000" pt_clust_8="13000.00000" pt_clust_9="21.98457" pt_clust_10="32.96601"></scales>
<clustering>
<clus scale="   21.985">  1  9  2 -1</clus>
<clus scale="   32.966">  1 10  2 -1</clus>
<clus scale="   90.022">  5  6 -1 -1</clus>
<clus scale="   90.909">  7  8 -1 -1</clus>
<clus scale="   91.443">  2  5  1 -1</clus>
<clus scale="   21.985">  1  5  2 -1</clus>
</clustering>
</event>
<event>
10    2  0.2421970E-006  0.2751041E+03  0.7546771E-02  0.1119588E+00
          1   -1    0    0  503    0 -0.00000000000E+00  0.00000000000E+00  0.15075444775E+04  0.15075444775E+04  0.00000000000E+00 0. -1.
         21   -1    0    0  501  502  0.00000000000E+00 -0.00000000000E+00 -0.15704153121E+03  0.15704153121E+03  0.00000000000E+00 0. -1.
         23    2    1    2    0    0  0.13179781676E+03  0.19646403981E+01  0.24824293808E+03  0.29626831994E+03  0.93679436250E+02 0.  0.
         23    2    1    2    0    0 -0.29880746571E+02 -0.28614749666E+03  0.92134839560E+03  0.96952181543E+03  0.91194493581E+02 0.  0.
        -11    1    4    4    0    0 -0.50246801496E+02 -0.94308734551E+02  0.38406610198E+03  0.39865479950E+03  0.00000000000E+00 0. -1.
         11    1    4    4    0    0  0.20366054925E+02 -0.19183876211E+03  0.53728229362E+03  0.57086701593E+03  0.00000000000E+00 0.  1.
        -11    1    3    3    0    0  0.13033549398E+03 -0.19743012521E+02  0.17037310109E+03  0.21541615796E+03  0.00000000000E+00 0.  1.
         11    1    3    3    0    0  0.14623227752E+01  0.21707652919E+02  0.77869836992E+02  0.80852161976E+02  0.00000000000E+00 0. -1.
         21    1    1    2  503  502 -0.81279401431E+02  0.17512384267E+03  0.78839149107E+01  0.19322747600E+03  0.00000000000E+00 0. -1.
          1    1    1    2  501    0 -0.20637668753E+02  0.10905901360E+03  0.17302769774E+03  0.20556839739E+03  0.00000000000E+00 0. -1.
<scales pt_clust_5="13000.00000" pt_clust_6="13000.00000" pt_clust_7="13000.00000" pt_clust_8="13000.00000" pt_clust_9="259.54925" pt_clust_10="110.99457"></scales>
<clustering>
<clus scale="   91.194">  5  6 -1 -1</clus>
<clus scale="   93.679">  7  8 -1 -1</clus>
<clus scale="  110.995">  2 10  1 -1</clus>
<clus scale="  160.169">  1  7  2 -1</clus>
<clus scale="  259.549">  2  9  1 -1</clus>
<clus scale="  110.995">  2  5  1 -1</clus>
</clustering>
</event>
<event>
10    2  0.2421970E-006  0.2184388E+03  0.7546771E-02  0.1171800E+00
          3   -1    0    0  502    0 -0.00000000000E+00  0.00000000000E+00  0.21831663391E+03  0.21831663391E+03  0.00000000000E+00 0. -1.
         21   -1    0    0  503  502  0.00000000000E+00 -0.00000000000E+00 -0.63142627200E+03  0.63142627200E+03  0.00000000000E+00 0.  1.
         23    2    1    2    0    0  0.26826598294E+02 -0.16794123545E+02  0.10343087589E+03  0.13857137907E+03  0.86616234318E+02 0.  0.
         23    2    1    2    0    0 -0.16624004955E+03 -0.12679184590E+03 -0.39066379398E+03  0.45313822970E+03  0.94890089174E+02 0.  0.
        -11    1    4    4    0    0 -0.93218743414E+02 -0.11656933941E+03 -0.30869730705E+03  0.34288798812E+03  0.00000000000E+00 0.  1.
         11    1    4    4    0    0 -0.73021306139E+02 -0.10222506495E+02 -0.81966486930E+02  0.11025024158E+03  0.00000000000E+00 0. -1.
        -13    1    3    3    0    0  0.17677052742E+02 -0.49579327182E+02  0.38345054637E+02  0.65122431562E+02  0.00000000000E+00 0.  1.
         13    1    3    3    0    0  0.91495455520E+01  0.32785203637E+02  0.65085821254E+02  0.73448947505E+02  0.00000000000E+00 0. -1.
         21    1    1    2  503  501 -0.12960956492E+02  0.36875781555E+02 -0.25298409952E+02  0.46559845410E+02  0.00000000000E+00 0. -1.
          3    1    1    2  501    0  0.15237440775E+03  0.10671018789E+03 -0.10057831004E+03  0.21147345174E+03  0.00000000000E+00 0. -1.
<scales pt_clust_5="13000.00000" pt_clust_6="13000.00000" pt_clust_7="13000.00000" pt_clust_8="13000.00000" pt_clust_9="39.08721" pt_clust_10="196.75217"></scales>
<clustering>
<clus scale="   39.087">  2  9  1 -1</clus>
<clus scale="   86.616">  7  8 -1 -1</clus>
<clus scale="   91.915">  1  7  2 -1</clus>
<clus scale="   94.890">  5  6 -1 -1</clus>
<clus scale="  196.752">  2 10  1 -1</clus>
<clus scale="   39.087">  2  5  1 -1</clus>
</clustering>
</event>
<event>
10    2  0.2421970E-006  0.1652311E+03  0.7546771E-02  0.1198280E+00
         21   -1    0    0  501  502  0.00000000000E+00  0.00000000000E+00  0.35027579066E+03  0.35027579066E+03  0.00000000000E+00 0. -1.
          1   -1    0    0  503    0 -0.00000000000E+00 -0.00000000000E+00 -0.40115162109E+03  0.40115162109E+03  0.00000000000E+00 0. -1.
         23    2    1    2    0    0 -0.58782512122E+00  0.72139983545E+02  0.15980949799E+03  0.19772278152E+03  0.91382164125E+02 0.  0.
         23    2    1    2    0    0 -0.12266010304E+03 -0.17905408334E+03 -0.27458896966E+03  0.36136452874E+03  0.89885230889E+02 0.  0.
        -13    1    3    3    0    0  0.29674577147E+02 -0.62070374285E+01  0.27068881847E+02  0.40642738674E+02  0.00000000000E+00 0.  1.
         13    1    3    3    0    0 -0.30262402269E+02  0.78347020974E+02  0.13274061615E+03  0.15708004285E+03  0.00000000000E+00 0. -1.
        -13    1    4    4    0    0 -0.82095593320E+02 -0.14476172849E+03 -0.25550370019E+03  0.30492258901E+03  0.00000000000E+00 0. -1.
         13    1    4    4    0    0 -0.40564509718E+02 -0.34292354848E+02 -0.19085269479E+02  0.56441939732E+02  0.00000000000E+00 0.  1.
         21    1    1    2  503  502  0.10029703235E+02  0.40629298968E+02 -0.81887038881E+01  0.42642581453E+02  0.00000000000E+00 0. -1.
          1    1    1    2  501    0  0.11321822492E+03  0.66284800828E+02  0.72092345130E+02  0.14969752003E+03  0.00000000000E+00 0. -1.
<scales pt_clust_5="13000.00000" pt_clust_6="13000.00000" pt_clust_7="13000.00000" pt_clust_8="13000.00000" pt_clust_9="41.84895" pt_clust_10="138.64323"></scales>
<clustering>
<clus scale="   41.849">  2  9  1 -1</clus>
<clus scale="   89.885">  7  8 -1 -1</clus>
<clus scale="   91.382">  5  6 -1 -1</clus>
<clus scale="  117.707">  2  5  1 -1</clus>
<clus scale="  138.643">  1 10  2 -1</clus>
<clus scale="  138.643">  1  5  2 -1</clus>
</clustering>
</event>
<event>
10    2  0.2421970E-006  0.1024630E+03  0.7546771E-02  0.1279873E+00
         21   -1    0    0  501  502  0.00000000000E+00  0.00000000000E+00  0.30129814813E+02  0.30129814813E+02  0.00000000000E+00 0.  1.
          1   -1    0    0  503    0 -0.00000000000E+00 -0.00000000000E+00 -0.65614082886E+03  0.65614082886E+03  0.00000000000E+00 0. -1.
         23    2    1    2    0    0 -0.13175196479E+02  0.23020515982E+02 -0.30570679732E+03  0.32279912172E+03  0.10019529478E+03 0.  0.
         23    2    1    2    0    0 -0.17034945169E+02 -0.32466753395E+02 -0.12996948553E+03  0.16296868112E+03  0.91227432402E+02 0.  0.
        -11    1    3    3    0    0  0.20965542892E+02 -0.30135510445E+02 -0.15689097073E+03  0.16112876737E+03  0.00000000000E+00 0. -1.
         11    1    3    3    0    0 -0.34140739372E+02  0.53156026427E+02 -0.14881582659E+03  0.16167035435E+03  0.00000000000E+00 0.  1.
        -13    1    4    4    0    0 -0.42352214181E+02  0.78242403293E+01 -0.93742721348E+02  0.10316310672E+03  0.00000000000E+00 0.  1.
         13    1    4    4    0    0  0.25317269012E+02 -0.40290993724E+02 -0.36226764183E+02  0.59805574395E+02  0.00000000000E+00 0. -1.
         21    1    1    2  503  502  0.28241152487E+00 -0.20006730659E+02 -0.45521607843E+02  0.49724901292E+02  0.00000000000E+00 0. -1.
          1    1    1    2  501    0  0.29927730123E+02  0.29452968071E+02 -0.14481312336E+03  0.15077793955E+03  0.00000000000E+00 0. -1.
<scales pt_clust_5="13000.00000" pt_clust_6="13000.00000" pt_clust_7="13000.00000" pt_clust_8="13000.00000" pt_clust_9="20.00872" pt_clust_10="38.78962"></scales>
<clustering>
<clus scale="   20.009">  2  9  1 -1</clus>
<clus scale="   38.790">  1 10  2 -1</clus>
<clus scale="   91.227">  7  8 -1 -1</clus>
<clus scale="   93.712">  1  7  2 -1</clus>
<clus scale="  100.195">  5  6 -1 -1</clus>
<clus scale="   38.790">  1  5  2 -1</clus>
</clustering>
</event>
<event>
10    2  0.2421970E-006  0.1576643E+03  0.7546771E-02  0.1213189E+00
         21   -1    0    0  501  502  0.00000000000E+00  0.00000000000E+00  0.58513965317E+02  0.58513965317E+02  0.00000000000E+00 0. -1.
          1   -1    0    0  503    0 -0.00000000000E+00 -0.00000000000E+00 -0.14894200418E+04  0.14894200418E+04  0.00000000000E+00 0. -1.
         23    2    1    2    0    0 -0.25333183705E+02 -0.24964919181E+02 -0.12237344406E+03  0.15697297306E+03  0.91652807227E+02 0.  0.
         23    2    1    2    0    0  0.16777985134E+03  0.66412493868E+02 -0.95332129246E+03  0.97483498736E+03  0.94451405798E+02 0.  0.
        -11    1    3    3    0    0  0.30761798907E+02 -0.22829844702E+02 -0.71966960228E+02  0.81527501161E+02  0.00000000000E+00 0. -1.
         11    1    3    3    0    0 -0.56094982612E+02 -0.21350744794E+01 -0.50406483835E+02  0.75445471897E+02  0.00000000000E+00 0.  1.
        -11    1    4    4    0    0  0.13670426112E+03  0.25014972120E+02 -0.82226382633E+03  0.83392541869E+03  0.00000000000E+00 0. -1.
         11    1    4    4    0    0  0.31075590216E+02  0.41397521748E+02 -0.13105746613E+03  0.14090956867E+03  0.00000000000E+00 0.  1.
         21    1    1    2  503  502 -0.91192775648E+02  0.49083446599E+02 -0.23710177865E+03  0.25873260425E+03  0.00000000000E+00 0.  1.
          1    1    1    2  501    0 -0.51253891986E+02 -0.90531021286E+02 -0.11810956134E+03  0.15739344249E+03  0.00000000000E+00 0. -1.
<scales pt_clust_5="13000.00000" pt_clust_6="13000.00000" pt_clust_7="13000.00000" pt_clust_8="13000.00000" pt_clust_9="105.67168" pt_clust_10="126.24171"></scales>
<clustering>
<clus scale="   91.653">  5  6 -1 -1</clus>
<clus scale="   94.451">  7  8 -1 -1</clus>
<clus scale="   98.312">  2  5  1 -1</clus>
<clus scale="  105.672">  1  9  2 -1</clus>
<clus scale="  126.242">  1 10  2 -1</clus>
<clus scale="  105.672">  1  5  2 -1</clus>
</clustering>
</event>
<event>
10    2  0.2421970E-006  0.1718656E+03  0.7546771E-02  0.1195219E+00
         21   -1    0    0  501  502  0.00000000000E+00  0.00000000000E+00  0.46569174775E+03  0.46569174775E+03  0.00000000000E+00 0.  1.
         -1   -1    0    0    0  501 -0.00000000000E+00 -0.00000000000E+00 -0.44740859646E+03  0.44740859646E+03  0.00000000000E+00 0.  1.
         23    2    1    2    0    0 -0.55656072682E+02  0.32815898753E+02 -0.24419274554E+03  0.26857941022E+03  0.91270592098E+02 0.  0.
         23    2    1    2    0    0 -0.67472673675E+02  0.49384662439E+02 -0.15416660934E+03  0.19944282751E+03  0.94966791204E+02 0.  0.
        -11    1    3    3    0    0 -0.25075984543E+02  0.63178589967E+02 -0.16430001585E+03  0.17780560857E+03  0.00000000000E+00 0.  1.
         11    1    3    3    0    0 -0.30580088139E+02 -0.30362691214E+02 -0.79892729692E+02  0.90773801650E+02  0.00000000000E+00 0. -1.
        -11    1    4    4    0    0 -0.80255346501E+02  0.65399966409E+02 -0.11174781825E+03  0.15233401174E+03  0.00000000000E+00 0.  1.
         11    1    4    4    0    0  0.12782672826E+02 -0.16015303969E+02 -0.42418791088E+02  0.47108815769E+02  0.00000000000E+00 0. -1.
         21    1    1    2  503  502  0.40151751187E+02 -0.37374401251E+02  0.92980275180E+02  0.10795527113E+03  0.00000000000E+00 0. -1.
         -1    1    1    2    0  503  0.82976995169E+02 -0.44826159941E+02  0.32366223099E+03  0.33712283535E+03  0.00000000000E+00 0.  1.
<scales pt_clust_5="13000.00000" pt_clust_6="13000.00000" pt_clust_7="13000.00000" pt_clust_8="13000.00000" pt_clust_9="38.78220" pt_clust_10="152.00330"></scales>
<clustering>
<clus scale="   38.782">  9 10 -1 -1</clus>
<clus scale="   91.271">  5  6 -1 -1</clus>
<clus scale="   94.967">  7  8 -1 -1</clus>
<clus scale="  111.825">  2  5  1 -1</clus>
<clus scale="  152.003">  1  9  2 -1</clus>
<clus scale="  152.003">  1  5  2 -1</clus>
</clustering>
</event>
<event>
10    2  0.2421970E-006  0.4106448E+03  0.7546771E-02  0.1069157E+00
         21   -1    0    0  503  502  0.00000000000E+00  0.00000000000E+00  0.37461445511E+03  0.37461445511E+03  0.00000000000E+00 0. -1.
          2   -1    0    0  502    0 -0.00000000000E+00 -0.00000000000E+00 -0.72303165955E+03  0.72303165955E+03  0.00000000000E+00 0. -1.
         23    2    1    2    0    0 -0.20453814702E+02  0.15484402901E+03  0.32325916512E+02  0.18368940858E+03  0.91114225495E+02 0.  0.
         23    2    1    2    0    0  0.40950018970E+03 -0.97546584108E+02 -0.14421362900E+03  0.45377590318E+03  0.88934009689E+02 0.  0.
        -11    1    4    4    0    0  0.15373515043E+02 -0.22779897457E+02  0.10042415146E-01  0.27482154096E+02  0.00000000000E+00 0.  1.
         11    1    4    4    0    0  0.39412667466E+03 -0.74766686652E+02 -0.14422367142E+03  0.42629374908E+03  0.00000000000E+00 0. -1.
        -11    1    3    3    0    0 -0.32800978914E+02  0.58073985759E+02 -0.24188082622E+02  0.70947553732E+02  0.00000000000E+00 0.  1.
         11    1    3    3    0    0  0.12347164211E+02  0.96770043255E+02  0.56513999134E+02  0.11274185484E+03  0.00000000000E+00 0. -1.
         21    1    1    2  503  501 -0.22646491026E+03 -0.26364164985E+02 -0.11887640059E+03  0.25712452895E+03  0.00000000000E+00 0. -1.
          2    1    1    2  501    0 -0.16258146474E+03 -0.30933279921E+02 -0.11765309136E+03  0.20305627395E+03  0.00000000000E+00 0. -1.
<scales pt_clust_5="13000.00000" pt_clust_6="13000.00000" pt_clust_7="13000.00000" pt_clust_8="13000.00000" pt_clust_9="29.26795" pt_clust_10="402.36821"></scales>
<clustering>
<clus scale="   29.268">  9 10 -1 -1</clus>
<clus scale="   88.934">  5  6 -1 -1</clus>
<clus scale="   91.114">  7  8 -1 -1</clus>
<clus scale="  180.823">  2  7  1 -1</clus>
<clus scale="  402.368">  1  9  2 -1</clus>
<clus scale="  402.368">  1  5  2 -1</clus>
</clustering>
</event>
<event>
10    2  0.2421970E-006  0.2185015E+03  0.7546771E-02  0.1135579E+00
         21   -1    0    0  501  502  0.00000000000E+00  0.00000000000E+00  0.13801342164E+03  0.13801342164E+03  0.00000000000E+00 0. -1.
          1   -1    0    0  503    0 -0.00000000000E+00 -0.00000000000E+00 -0.13379703529E+04  0.13379703529E+04  0.00000000000E+00 0. -1.
         23    2    1    2    0    0 -0.47620278494E+02 -0.23159594533E+03 -0.11048830787E+04  0.11335988564E+04  0.91517085255E+02 0.  0.
         23    2    1    2    0    0  0.57094646381E+02  0.75931646417E+02 -0.87320635478E+02  0.16229895644E+03  0.98441070223E+02 0.  0.
        -11    1    4    4    0    0  0.59029781200E+02  0.15962375496E+02 -0.62904345402E+01  0.61472612330E+02  0.00000000000E+00 0.  1.
         11    1    4    4    0    0 -0.19351348187E+01  0.59969270921E+02 -0.81030200938E+02  0.10082634411E+03  0.00000000000E+00 0. -1.
        -11    1    3    3    0    0  0.49522986750E+01 -0.31986372482E+02 -0.56732704911E+02  0.65316560635E+02  0.00000000000E+00 0.  1.
         11    1    3    3    0    0 -0.52572577169E+02 -0.19960957284E+03 -0.10481503737E+04  0.10682822958E+04  0.00000000000E+00 0. -1.
         21    1    1    2  503  502 -0.46281345933E+02  0.10555244636E+03  0.92572167549E+01  0.11562429665E+03  0.00000000000E+00 0. -1.
          1    1    1    2  501    0  0.36806978046E+02  0.50111852553E+02 -0.17010433843E+02  0.64461665032E+02  0.00000000000E+00 0. -1.
<scales pt_clust_5="13000.00000" pt_clust_6="13000.00000" pt_clust_7="13000.00000" pt_clust_8="13000.00000" pt_clust_9="135.48282" pt_clust_10="62.17678"></scales>
<clustering>
<clus scale="   62.177">  1 10  2 -1</clus>
<clus scale="   91.517">  7  8 -1 -1</clus>
<clus scale="   98.441">  5  6 -1 -1</clus>
<clus scale="  135.483">  1  9  2 -1</clus>
<clus scale="  215.471">  2  7  1 -1</clus>
<clus scale="   62.177">  1  5  2 -1</clus>
</clustering>
</event>
<event>
10    2  0.2421970E-006  0.1415530E+03  0.7546771E-02  0.1211572E+00
         -3   -1    0    0    0  501 -0.00000000000E+00  0.00000000000E+00  0.10474649852E+04  0.10474649852E+04  0.00000000000E+00 0.  1.
         21   -1    0    0  501  502  0.00000000000E+00 -0.00000000000E+00 -0.47895016119E+02  0.47895016119E+02  0.00000000000E+00 0.  1.
         23    2    1    2    0    0  0.99251068204E+02 -0.58786391463E+02  0.56763055345E+03  0.58660238111E+03  0.92689233202E+02 0.  0.
         23    2    1    2    0    0 -0.10833084595E+03 -0.40636790931E+02  0.16509553537E+03  0.22128114534E+03  0.91224385562E+02 0.  0.
        -11    1    4    4    0    0 -0.10216983996E+02  0.23194616760E+02  0.55137031877E+02  0.60683352683E+02  0.00000000000E+00 0. -1.
         11    1    4    4    0    0 -0.98113861950E+02 -0.63831407691E+02  0.10995850350E+03  0.16059779266E+03  0.00000000000E+00 0.  1.
        -13    1    3    3    0    0 -0.39424673602E+01 -0.24602298962E+02  0.34827768749E+02  0.42822770101E+02  0.00000000000E+00 0. -1.
         13    1    3    3    0    0  0.10319353556E+03 -0.34184092501E+02  0.53280278470E+03  0.54377961101E+03  0.00000000000E+00 0.  1.
         21    1    1    2  503  502  0.19528850539E+02  0.47263824084E+02  0.16246966618E+03  0.17032802911E+03  0.00000000000E+00 0.  1.
         -3    1    1    2    0  503 -0.10449072797E+02  0.52159358309E+02  0.10437421408E+03  0.11714844577E+03  0.00000000000E+00 0.  1.
<scales pt_clust_5="13000.00000" pt_clust_6="13000.00000" pt_clust_7="13000.00000" pt_clust_8="13000.00000" pt_clust_9="37.58786" pt_clust_10="106.94428"></scales>
<clustering>
<clus scale="   37.588">  9 10 -1 -1</clus>
<clus scale="   91.224">  5  6 -1 -1</clus>
<clus scale="   92.689">  7  8 -1 -1</clus>
<clus scale="  106.944">  2  9  1 -1</clus>
<clus scale="  140.598">  2  5  1 -1</clus>
<clus scale="  106.944">  2  5  1 -1</clus>
</clustering>
</event>
<event>
10    2  0.2421970E-006  0.9328679E+02  0.7546771E-02  0.1296733E+00
          4   -1    0    0  503    0 -0.00000000000E+00  0.00000000000E+00  0.37459208459E+02  0.37459208459E+02  0.00000000000E+00 0. -1.
         21   -1    0    0  501  502  0.00000000000E+00 -0.00000000000E+00 -0.85590577801E+03  0.85590577801E+03  0.00000000000E+00 0.  1.
         23    2    1    2    0    0 -0.58516987108E+01 -0.14164770427E+02 -0.64227513377E+02  0.11353371986E+03  0.92357181482E+02 0.  0.
         23    2    1    2    0    0 -0.56246782471E+02 -0.27743447675E+01 -0.29856643865E+03  0.31674277606E+03  0.89513520607E+02 0.  0.
        -13    1    4    4    0    0 -0.40200136316E+02  0.29506501628E+02 -0.25668222213E+03  0.26148125699E+03  0.00000000000E+00 0.  1.
         13    1    4    4    0    0 -0.16046646155E+02 -0.32280846395E+02 -0.41884216521E+02  0.55261519074E+02  0.00000000000E+00 0. -1.
        -13    1    3    3    0    0  0.31270084924E+02  0.24421761275E+02 -0.32558599926E+02  0.51325462142E+02  0.00000000000E+00 0. -1.
         13    1    3    3    0    0 -0.37121783635E+02 -0.38586531702E+02 -0.31668913451E+02  0.62208257717E+02  0.00000000000E+00 0.  1.
         21    1    1    2  503  502  0.40184603857E+02  0.32579659591E+02 -0.36076746489E+03  0.36445767975E+03  0.00000000000E+00 0.  1.
          4    1    1    2  501    0  0.21913877325E+02 -0.15640544397E+02 -0.94885152630E+02  0.98630810795E+02  0.00000000000E+00 0. -1.
<scales pt_clust_5="13000.00000" pt_clust_6="13000.00000" pt_clust_7="13000.00000" pt_clust_8="13000.00000" pt_clust_9="56.53381" pt_clust_10="26.92294"></scales>
<clustering>
<clus scale="   26.923">  2 10  1 -1</clus>
<clus scale="   56.534">  2  9  1 -1</clus>
<clus scale="   89.514">  5  6 -1 -1</clus>
<clus scale="   90.472">  2  5  1 -1</clus>
<clus scale="   92.357">  7  8 -1 -1</clus>
<clus scale="   26.923">  2  5  1 -1</clus>
</clustering>
</event>
<event>
10    2  0.2421970E-006  0.3224965E+03  0.7546771E-02  0.1074550E+00
          1   -1    0    0  503    0 -0.00000000000E+00  0.00000000000E+00  0.15960346119E+04  0.15960346119E+04  0.00000000000E+00 0. -1.
         21   -1    0    0  501  502  0.00000000000E+00 -0.00000000000E+00 -0.39582153361E+03  0.39582153361E+03  0.00000000000E+00 0. -1.
         23    2    1    2    0    0  0.15377749216E+02 -0.33568044933E+03  0.11801634238E+04  0.12303896758E+04  0.90306190993E+02 0.  0.
         23    2    1    2    0    0  0.79598127466E+02  0.21234309618E+03  0.71557385993E+02  0.25485104136E+03  0.91668650042E+02 0.  0.
        -11    1    3    3    0    0  0.11839516659E+01 -0.46785600037E+02  0.78535979002E+02  0.91423159594E+02  0.00000000000E+00 0.  1.
         11    1    3    3    0    0  0.14193797550E+02 -0.28889484930E+03  0.11016274448E+04  0.11389665162E+04  0.00000000000E+00 0. -1.
        -11    1    4    4    0    0  0.56329680389E+02  0.75822884391E+02  0.67871830098E+02  0.11631306036E+03  0.00000000000E+00 0.  1.
         11    1    4    4    0    0  0.23268447077E+02  0.13652021179E+03  0.36855558944E+01  0.13853798100E+03  0.00000000000E+00 0. -1.
         21    1    1    2  503  502 -0.27298021915E+03  0.36391930781E+02  0.56279139069E+02  0.28108702241E+03  0.00000000000E+00 0. -1.
          1    1    1    2  501    0  0.17800434246E+03  0.86945422373E+02 -0.10778687060E+03  0.22552840593E+03  0.00000000000E+00 0. -1.
<scales pt_clust_5="13000.00000" pt_clust_6="13000.00000" pt_clust_7="13000.00000" pt_clust_8="13000.00000" pt_clust_9="201.79281" pt_clust_10="198.10364"></scales>
<clustering>
<clus scale="   90.306">  5  6 -1 -1</clus>
<clus scale="   91.669">  7  8 -1 -1</clus>
<clus scale="  198.104">  2 10  1 -1</clus>
<clus scale="  201.793">  2  9  1 -1</clus>
<clus scale="  322.112">  1  5  2 -1</clus>
<clus scale="  198.104">  2  5  1 -1</clus>
</clustering>
</event>
<event>
10    2  0.2421970E-006  0.1408966E+03  0.7546771E-02  0.1212273E+00
         -1   -1    0    0    0  501 -0.00000000000E+00  0.00000000000E+00  0.22631479739E+03  0.22631479739E+03  0.00000000000E+00 0.  1.
         21   -1    0    0  503  502  0.00000000000E+00 -0.00000000000E+00 -0.26705260113E+03  0.26705260113E+03  0.00000000000E+00 0.  1.
         23    2    1    2    0    0  0.98109136178E+01  0.12504908493E+03  0.94491239804E+02  0.18242342900E+03  0.92823409670E+02 0.  0.
         23    2    1    2    0    0  0.58515051598E+02 -0.75002277175E+02  0.75788379016E+01  0.13266686906E+03  0.92161307054E+02 0.  0.
        -11    1    4    4    0    0  0.51430071734E+02 -0.96065448887E+02 -0.65382685313E+00  0.10896811569E+03  0.00000000000E+00 0.  1.
         11    1    4    4    0    0  0.70849798642E+01  0.21063171712E+02  0.82326647547E+01  0.23698753368E+02  0.00000000000E+00 0. -1.
        -13    1    3    3    0    0  0.50481891148E+02  0.75828564146E+02  0.66075594585E+02  0.11253611275E+03  0.00000000000E+00 0.  1.
         13    1    3    3    0    0 -0.40670977530E+02  0.49220520782E+02  0.28415645220E+02  0.69887316250E+02  0.00000000000E+00 0. -1.
         21    1    1    2  503  501 -0.15164212639E+02 -0.20521010840E+02 -0.28444966971E+01  0.25674041215E+02  0.00000000000E+00 0. -1.
         -1    1    1    2    0  502 -0.53161752577E+02 -0.29525796912E+02 -0.13996338474E+03  0.15260305924E+03  0.00000000000E+00 0.  1.
<scales pt_clust_5="13000.00000" pt_clust_6="13000.00000" pt_clust_7="13000.00000" pt_clust_8="13000.00000" pt_clust_9="25.51598" pt_clust_10="74.49952"></scales>
<clustering>
<clus scale="   25.516">  2  9  1 -1</clus>
<clus scale="   74.500">  2 10  1 -1</clus>
<clus scale="   92.161">  5  6 -1 -1</clus>
<clus scale="   92.823">  7  8 -1 -1</clus>
<clus scale="  140.461">  2  5  1 -1</clus>
<clus scale="   25.516">  2  5  1 -1</clus>
</clustering>
</event>
<event>
10    2  0.6382885E-006  0.1403238E+03  0.7546771E-02  0.1235049E+00
         21   -1    0    0  501  502  0.00000000000E+00  0.00000000000E+00  0.30724196044E+03  0.30724196044E+03  0.00000000000E+00 0. -1.
          3   -1    0    0  503    0 -0.00000000000E+00 -0.00000000000E+00 -0.65165091467E+03  0.65165091467E+03  0.00000000000E+00 0. -1.
         23    2    1    2    0    0  0.74151002377E+01  0.67736831003E+01 -0.24025274318E+03  0.25596896054E+03  0.87737458705E+02 0.  0.
         23    2    1    2    0    0  0.15588393230E+02 -0.12042458898E+03 -0.37352600195E+03  0.40215807834E+03  0.86396563639E+02 0.  0.
        -11    1    3    3    0    0  0.15144115373E+02  0.39540494347E+02 -0.65436659307E+02  0.77940690945E+02  0.00000000000E+00 0.  1.
         11    1    3    3    0    0 -0.77290151356E+01 -0.32766811247E+02 -0.17481608387E+03  0.17802826960E+03  0.00000000000E+00 0. -1.
        -13    1    4    4    0    0  0.18340025166E+02 -0.18620476634E+02 -0.16540607870E+02  0.30930088617E+02  0.00000000000E+00 0.  1.
         13    1    4    4    0    0 -0.27516319357E+01 -0.10180411235E+03 -0.35698539408E+03  0.37122798972E+03  0.00000000000E+00 0. -1.
         21    1    1    2  503  502 -0.36193236514E+01  0.79253707013E+02  0.10432867439E+03  0.13106762331E+03  0.00000000000E+00 0. -1.
          3    1    1    2  501    0 -0.19384169816E+02  0.34397198869E+02  0.16504111650E+03  0.16969821291E+03  0.00000000000E+00 0. -1.
<scales pt_clust_5="13000.00000" pt_clust_6="13000.00000" pt_clust_7="13000.00000" pt_clust_8="13000.00000" pt_clust_9="110.57304" pt_clust_10="39.48308"></scales>
<clustering>
<clus scale="   39.483">  1 10  2 -1</clus>
<clus scale="   86.397">  7  8 -1 -1</clus>
<clus scale="   87.737">  5  6 -1 -1</clus>
<clus scale="   88.395">  2  5  1 -1</clus>
<clus scale="  110.573">  1  9  2 -1</clus>
<clus scale="   39.483">  1  5  2 -1</clus>
</clustering>
</event>
<event>
10    2  0.2421970E-006  0.9519370E+02  0.7546771E-02  0.1291513E+00
          3   -1    0    0  503    0 -0.00000000000E+00  0.00000000000E+00  0.51583284913E+02  0.51583284913E+02  0.00000000000E+00 0. -1.
         21   -1    0    0  501  502  0.00000000000E+00 -0.00000000000E+00 -0.40039692047E+03  0.40039692047E+03  0.00000000000E+00 0. -1.
         23    2    1    2    0    0 -0.10606065733E+02  0.34609429815E+02 -0.67015937421E+02  0.11990952864E+03  0.92611327214E+02 0.  0.
         23    2    1    2    0    0 -0.48426753823E+00 -0.76109775523E+01 -0.76169935406E+02  0.11907494888E+03  0.91207581359E+02 0.  0.
        -11    1    4    4    0    0 -0.26189278380E+02 -0.22474385023E+02  0.28817790056E+01  0.34630635780E+02  0.00000000000E+00 0.  1.
         11    1    4    4    0    0  0.25705010842E+02  0.14863407471E+02 -0.79051714412E+02  0.84444313103E+02  0.00000000000E+00 0. -1.
        -11    1    3    3    0    0 -0.36818282912E+02  0.18243662469E+02 -0.77131833820E+02  0.87394147202E+02  0.00000000000E+00 0.  1.
         11    1    3    3    0    0  0.26212217179E+02  0.16365767346E+02  0.10115896399E+02  0.32515381440E+02  0.00000000000E+00 0. -1.
         21    1    1    2  503  502  0.23834880275E+02  0.18388497973E+01 -0.82285463739E+02  0.85687691234E+02  0.00000000000E+00 0. -1.
          3    1    1    2  501    0 -0.12744547004E+02 -0.28837302060E+02 -0.12334229899E+03  0.12730803662E+03  0.00000000000E+00 0. -1.
<scales pt_clust_5="13000.00000" pt_clust_6="13000.00000" pt_clust_7="13000.00000" pt_clust_8="13000.00000" pt_clust_9="23.90571" pt_clust_10="28.30247"></scales>
<clustering>
<clus scale="   23.906">  2  9  1 -1</clus>
<clus scale="   28.302">  2 10  1 -1</clus>
<clus scale="   91.208">  5  6 -1 -1</clus>
<clus scale="   92.611">  7  8 -1 -1</clus>
<clus scale="   93.829">  2  5  1 -1</clus>
<clus scale="   23.906">  2  5  1 -1</clus>
</clustering>
</event>
<event>
10    2  0.2421970E-006  0.1807243E+03  0.7546771E-02  0.1177168E+00
          2   -1    0    0  502    0 -0.00000000000E+00  0.00000000000E+00  0.44244682438E+03  0.44244682438E+03  0.00000000000E+00 0. -1.
         21   -1    0    0  503  502  0.00000000000E+00 -0.00000000000E+00 -0.14711944470E+03  0.14711944470E+03  0.00000000000E+00 0. -1.
         23    2    1    2    0    0 -0.19711222527E+02  0.10705012776E+03  0.68791227576E+02  0.15930417979E+03  0.93794064626E+02 0.  0.
         23    2    1    2    0    0  0.16645885931E+03 -0.31951779266E+02  0.14385832019E+03  0.23904687519E+03  0.87856270166E+02 0.  0.
        -11    1    4    4    0    0  0.16768841399E+02 -0.37243452494E+02  0.25574725837E+02  0.48190615240E+02  0.00000000000E+00 0.  1.
         11    1    4    4    0    0  0.14969001791E+03  0.52916732279E+01  0.11828359436E+03  0.19085625995E+03  0.00000000000E+00 0. -1.
        -11    1    3    3    0    0  0.31938204482E+02  0.28632888553E+02 -0.15846775023E-01  0.42893956026E+02  0.00000000000E+00 0.  1.
         11    1    3    3    0    0 -0.51649427009E+02  0.78417239212E+02  0.68807074351E+02  0.11641022376E+03  0.00000000000E+00 0. -1.
         21    1    1    2  503  501 -0.28381019686E+02 -0.61952814537E+01 -0.37107291239E+01  0.29285376920E+02  0.00000000000E+00 0.  1.
          2    1    1    2  501    0 -0.11836661710E+03 -0.68903067045E+02  0.86388561040E+02  0.16192983718E+03  0.00000000000E+00 0. -1.
<scales pt_clust_5="13000.00000" pt_clust_6="13000.00000" pt_clust_7="13000.00000" pt_clust_8="13000.00000" pt_clust_9="23.26995" pt_clust_10="165.81783"></scales>
<clustering>
<clus scale="   23.270">  9 10 -1 -1</clus>
<clus scale="   87.856">  5  6 -1 -1</clus>
<clus scale="   93.794">  7  8 -1 -1</clus>
<clus scale="  143.686">  1  7  2 -1</clus>
<clus scale="  165.818">  2  9  1 -1</clus>
<clus scale="  165.818">  2  5  1 -1</clus>
</clustering>
</event>
<event>
10    2  0.2421970E-006  0.1012288E+03  0.7546771E-02  0.1282323E+00
          2   -1    0    0  502    0 -0.00000000000E+00  0.00000000000E+00  0.14521979833E+03  0.14521979833E+03  0.00000000000E+00 0. -1.
         21   -1    0    0  503  502  0.00000000000E+00 -0.00000000000E+00 -0.11010007673E+04  0.11010007673E+04  0.00000000000E+00 0. -1.
         23    2    1    2    0    0 -0.25001073655E+02 -0.83471876756E+01  0.66001155860E+02  0.11502600449E+03  0.90443904755E+02 0.  0.
         23    2    1    2    0    0 -0.70998506891E+00  0.19244964388E+02 -0.56779111963E+01  0.10112218314E+03  0.99108952741E+02 0.  0.
        -11    1    4    4    0    0  0.25349202715E+02  0.37682353942E+02 -0.35340795014E+02  0.57545752833E+02  0.00000000000E+00 0.  1.
         11    1    4    4    0    0 -0.26059187784E+02 -0.18437389555E+02  0.29662883817E+02  0.43576430302E+02  0.00000000000E+00 0. -1.
        -11    1    3    3    0    0  0.27436901318E+02 -0.10952798529E+02 -0.14164436258E+01  0.29576234752E+02  0.00000000000E+00 0.  1.
         11    1    3    3    0    0 -0.52437974974E+02  0.26056108532E+01  0.67417599486E+02  0.85449769734E+02  0.00000000000E+00 0. -1.
         21    1    1    2  503  501 -0.64207385433E+02  0.16701871875E+02 -0.26853082936E+03  0.27660503825E+03  0.00000000000E+00 0. -1.
          2    1    1    2  501    0  0.89918444158E+02 -0.27599648587E+02 -0.74757338426E+03  0.75346733974E+03  0.00000000000E+00 0. -1.
<scales pt_clust_5="13000.00000" pt_clust_6="13000.00000" pt_clust_7="13000.00000" pt_clust_8="13000.00000" pt_clust_9="66.34411" pt_clust_10="34.11018"></scales>
<clustering>
<clus scale="   66.344">  2  9  1 -1</clus>
<clus scale="   34.110">  2 10  1 -1</clus>
<clus scale="   90.444">  7  8 -1 -1</clus>
<clus scale="   92.762">  1  7  2 -1</clus>
<clus scale="   99.109">  5  6 -1 -1</clus>
<clus scale="   66.344">  2  5  1 -1</clus>
</clustering>
</event>
<event>
10    2  0.2421970E-006  0.2340495E+03  0.7546771E-02  0.1161334E+00
         21   -1    0    0  501  502  0.00000000000E+00  0.00000000000E+00  0.96623959276E+03  0.96623959276E+03  0.00000000000E+00 0. -1.
         -3   -1    0    0    0  501 -0.00000000000E+00 -0.00000000000E+00 -0.11877889015E+03  0.11877889015E+03  0.00000000000E+00 0.  1.
         23    2    1    2    0    0  0.92492185955E+01  0.24206158038E+02 -0.23186361864E+02  0.97855927807E+02  0.91469607515E+02 0.  0.
         23    2    1    2    0    0  0.17840724747E+03 -0.12881570116E+03  0.35866553395E+03  0.43007833351E+03  0.88903188340E+02 0.  0.
        -11    1    3    3    0    0 -0.40658881343E+02  0.69710476758E+01 -0.31156702761E+01  0.41369645141E+02  0.00000000000E+00 0. -1.
         11    1    3    3    0    0  0.49908099939E+02  0.17235110362E+02 -0.20070691587E+02  0.56486282667E+02  0.00000000000E+00 0.  1.
        -11    1    4    4    0    0  0.27276495384E+01 -0.38184049044E+02  0.42486892445E+02  0.57189139730E+02  0.00000000000E+00 0.  1.
         11    1    4    4    0    0  0.17567959793E+03 -0.90631652111E+02  0.31617864150E+03  0.37288919378E+03  0.00000000000E+00 0. -1.
         21    1    1    2  503  502 -0.11565538468E+03  0.41026657664E+02  0.26320228828E+03  0.29040454404E+03  0.00000000000E+00 0.  1.
         -3    1    1    2    0  503 -0.72001081388E+02  0.63582885453E+02  0.24877924225E+03  0.26667967755E+03  0.00000000000E+00 0.  1.
<scales pt_clust_5="13000.00000" pt_clust_6="13000.00000" pt_clust_7="13000.00000" pt_clust_8="13000.00000" pt_clust_9="40.15209" pt_clust_10="221.21261"></scales>
<clustering>
<clus scale="   40.152">  9 10 -1 -1</clus>
<clus scale="   88.903">  7  8 -1 -1</clus>
<clus scale="   91.470">  5  6 -1 -1</clus>
<clus scale="   95.069">  2  5  1 -1</clus>
<clus scale="  221.213">  1  9  2 -1</clus>
<clus scale="  221.213">  1  5  2 -1</clus>
</clustering>
</event>
<event>
10    2  0.2421970E-006  0.9413734E+02  0.7546771E-02  0.1293237E+00
          2   -1    0    0  503    0 -0.00000000000E+00  0.00000000000E+00  0.47472787880E+03  0.47472787880E+03  0.00000000000E+00 0. -1.
         21   -1    0    0  501  502  0.00000000000E+00 -0.00000000000E+00 -0.76805963454E+02  0.76805963454E+02  0.00000000000E+00 0. -1.
         23    2    1    2    0    0  0.15298245004E+02 -0.69745581414E+01  0.29896943388E+03  0.31338206785E+03  0.92427903245E+02 0.  0.
         23    2    1    2    0    0  0.26579980940E+01  0.42504863471E+02  0.37490712340E+02  0.10829239783E+03  0.92238612002E+02 0.  0.
        -11    1    4    4    0    0  0.44297217933E+02  0.25462079185E+02  0.22523576632E+01  0.51143270408E+02  0.00000000000E+00 0.  1.
         11    1    4    4    0    0 -0.41639219839E+02  0.17042784286E+02  0.35238354677E+02  0.57149127425E+02  0.00000000000E+00 0. -1.
        -13    1    3    3    0    0  0.27205605434E+02 -0.40077144766E+02  0.97557854016E+02  0.10892133574E+03  0.00000000000E+00 0.  1.
         13    1    3    3    0    0 -0.11907360430E+02  0.33102586625E+02  0.20141157986E+03  0.20446073211E+03  0.00000000000E+00 0. -1.
         21    1    1    2  503  502  0.18841169503E+02 -0.60732373167E+02  0.56357075017E+02  0.84967821693E+02  0.00000000000E+00 0. -1.
          2    1    1    2  501    0 -0.36797412601E+02  0.25202067838E+02  0.51046941151E+01  0.44891554879E+02  0.00000000000E+00 0. -1.
<scales pt_clust_5="13000.00000" pt_clust_6="13000.00000" pt_clust_7="13000.00000" pt_clust_8="13000.00000" pt_clust_9="55.23684" pt_clust_10="44.60038"></scales>
<clustering>
<clus scale="   44.600">  2 10  1 -1</clus>
<clus scale="   55.237">  2  9  1 -1</clus>
<clus scale="   92.239">  5  6 -1 -1</clus>
<clus scale="   92.428">  7  8 -1 -1</clus>
<clus scale="   93.951">  2  5  1 -1</clus>
<clus scale="   44.600">  2  5  1 -1</clus>
</clustering>
</event>
<event>
10    2  0.2421970E-006  0.1576967E+03  0.7546771E-02  0.1192431E+00
         21   -1    0    0  501  502  0.00000000000E+00  0.00000000000E+00  0.11683613420E+03  0.11683613420E+03  0.00000000000E+00 0.  1.
         -2   -1    0    0    0  501 -0.00000000000E+00 -0.00000000000E+00 -0.50895869923E+03  0.50895869923E+03  0.00000000000E+00 0.  1.
         23    2    1    2    0    0 -0.12272644437E+03  0.50927969433E+02 -0.30173587004E+03  0.34074712618E+03  0.86073401888E+02 0.  0.
         23    2    1    2    0    0  0.12859238879E+03  0.24598464241E+02 -0.10285005239E+03  0.19056011753E+03  0.92703496257E+02 0.  0.
        -13    1    4    4    0    0  0.84479185425E+02  0.56883703404E+02 -0.86165108411E+02  0.13340507633E+03  0.00000000000E+00 0. -1.
         13    1    4    4    0    0  0.44113203361E+02 -0.32285239163E+02 -0.16684943978E+02  0.57155041196E+02  0.00000000000E+00 0.  1.
        -13    1    3    3    0    0 -0.72793583410E+02  0.62364867766E+02 -0.25085997705E+03  0.26854982890E+03  0.00000000000E+00 0.  1.
         13    1    3    3    0    0 -0.49932860958E+02 -0.11436898333E+02 -0.50875892997E+02  0.72197297284E+02  0.00000000000E+00 0. -1.
         21    1    1    2  503  502  0.22209422454E+02 -0.14664831855E+02  0.26049987663E+01  0.26741386607E+02  0.00000000000E+00 0.  1.
         -2    1    1    2    0  503 -0.28075366872E+02 -0.60861601819E+02  0.98583586347E+01  0.67746203111E+02  0.00000000000E+00 0.  1.
<scales pt_clust_5="13000.00000" pt_clust_6="13000.00000" pt_clust_7="13000.00000" pt_clust_8="13000.00000" pt_clust_9="26.61420" pt_clust_10="69.27384"></scales>
<clustering>
<clus scale="   26.614">  1  9  2 -1</clus>
<clus scale="   69.274">  1 10  2 -1</clus>
<clus scale="   86.073">  7  8 -1 -1</clus>
<clus scale="   92.703">  5  6 -1 -1</clus>
<clus scale="  153.893">  2  7  1 -1</clus>
<clus scale="   26.614">  1  5  2 -1</clus>
</clustering>
</event>
<event>
10    2  0.2421970E-006  0.1821094E+03  0.7546771E-02  0.1166640E+00
          2   -1    0    0  503    0 -0.00000000000E+00  0.00000000000E+00  0.49701476396E+03  0.49701476396E+03  0.00000000000E+00 0. -1.
         21   -1    0    0  501  502  0.00000000000E+00 -0.00000000000E+00 -0.31454892691E+03  0.31454892691E+03  0.00000000000E+00 0. -1.
         23    2    1    2    0    0  0.14654795990E+03 -0.43467231702E+02  0.33471793609E+03  0.37777316336E+03  0.85502990777E+02 0.  0.
         23    2    1    2    0    0 -0.16127429093E+03  0.53107689603E+02  0.56444209043E+02  0.20153955993E+03  0.92749241894E+02 0.  0.
        -11    1    3    3    0    0  0.11658976353E+03 -0.48134964014E+02  0.32021689190E+03  0.34416421310E+03  0.00000000000E+00 0. -1.
         11    1    3    3    0    0  0.29958196373E+02  0.46677323126E+01  0.14501044184E+02  0.33608950255E+02  0.00000000000E+00 0.  1.
        -13    1    4    4    0    0 -0.97830902646E+02  0.78074354981E+02  0.40047057111E+02  0.13141635059E+03  0.00000000000E+00 0. -1.
         13    1    4    4    0    0 -0.63443388285E+02 -0.24966665378E+02  0.16397151932E+02  0.70123209343E+02  0.00000000000E+00 0.  1.
         21    1    1    2  503  502  0.96782853680E+01  0.38792968049E+02 -0.39564945535E+02  0.56248986595E+02  0.00000000000E+00 0.  1.
          2    1    1    2  501    0  0.50480456573E+01 -0.48433425950E+02 -0.16913136255E+03  0.17600198099E+03  0.00000000000E+00 0. -1.
<scales pt_clust_5="13000.00000" pt_clust_6="13000.00000" pt_clust_7="13000.00000" pt_clust_8="13000.00000" pt_clust_9="39.98204" pt_clust_10="25.92513"></scales>
<clustering>
<clus scale="   39.982">  2  9  1 -1</clus>
<clus scale="   25.925">  2 10  1 -1</clus>
<clus scale="   85.503">  5  6 -1 -1</clus>
<clus scale="   92.749">  7  8 -1 -1</clus>
<clus scale="  178.528">  1  5  2 -1</clus>
<clus scale="   39.982">  2  5  1 -1</clus>
</clustering>
</event>
<event>
10    2  0.2421970E-006  0.9513567E+02  0.7546771E-02  0.1293085E+00
         21   -1    0    0  503  502  0.00000000000E+00  0.00000000000E+00  0.17390747300E+03  0.17390747300E+03  0.00000000000E+00 0. -1.
         -4   -1    0    0    0  501 -0.00000000000E+00 -0.00000000000E+00 -0.12334566976E+03  0.12334566976E+03  0.00000000000E+00 0.  1.
         23    2    1    2    0    0 -0.18044315240E+02 -0.19837028330E+02 -0.24738435237E+02  0.97934154415E+02  0.90884560942E+02 0.  0.
         23    2    1    2    0    0 -0.23796589903E+02 -0.18501050666E+02  0.42547938328E+02  0.10815398511E+03  0.94754371256E+02 0.  0.
        -11    1    3    3    0    0  0.17127326527E+01  0.21078695510E+02 -0.43818122257E+02  0.48654626662E+02  0.00000000000E+00 0.  1.
         11    1    3    3    0    0 -0.19757047893E+02 -0.40915723840E+02  0.19079687020E+02  0.49279527753E+02  0.00000000000E+00 0. -1.
        -13    1    4    4    0    0  0.32588313916E+02  0.12588814531E+02  0.17404792750E+02  0.39030798939E+02  0.00000000000E+00 0.  1.
         13    1    4    4    0    0 -0.56384903819E+02 -0.31089865197E+02  0.25143145578E+02  0.69123186169E+02  0.00000000000E+00 0. -1.
         21    1    1    2  503  501 -0.11298766461E+02  0.28983493325E+02  0.12767793987E+02  0.33626203654E+02  0.00000000000E+00 0.  1.
         -4    1    1    2    0  502  0.53139671604E+02  0.93545856701E+01  0.19984506155E+02  0.57538799583E+02  0.00000000000E+00 0.  1.
<scales pt_clust_5="13000.00000" pt_clust_6="13000.00000" pt_clust_7="13000.00000" pt_clust_8="13000.00000" pt_clust_9="31.10796" pt_clust_10="52.97137"></scales>
<clustering>
<clus scale="   31.108">  1  9  2 -1</clus>
<clus scale="   52.971">  1 10  2 -1</clus>
<clus scale="   90.885">  5  6 -1 -1</clus>
<clus scale="   91.282">  2  5  1 -1</clus>
<clus scale="   94.754">  7  8 -1 -1</clus>
<clus scale="   31.108">  1  5  2 -1</clus>
</clustering>
</event>
<event>
10    2  0.2421970E-006  0.2428323E+03  0.7546771E-02  0.1119012E+00
          1   -1    0    0  503    0 -0.00000000000E+00  0.00000000000E+00  0.10058209572E+04  0.10058209572E+04  0.00000000000E+00 0. -1.
         21   -1    0    0  501  502  0.00000000000E+00 -0.00000000000E+00 -0.18288940581E+03  0.18288940581E+03  0.00000000000E+00 0.  1.
         23    2    1    2    0    0 -0.20536801133E+03  0.72347227258E+02  0.73236612773E+03  0.76939725205E+03  0.90564038408E+02 0.  0.
         23    2    1    2    0    0  0.22216679918E+03 -0.28023370100E+02  0.16532072468E+03  0.29802458321E+03  0.10650969090E+03 0.  0.
        -11    1    4    4    0    0  0.16995002350E+03 -0.64363838773E+02  0.10262269898E+03  0.20870345607E+03  0.00000000000E+00 0.  1.
         11    1    4    4    0    0  0.52216775683E+02  0.36340468673E+02  0.62698025704E+02  0.89321127138E+02  0.00000000000E+00 0. -1.
        -13    1    3    3    0    0 -0.15232973896E+03  0.50819748828E+02  0.64690167701E+03  0.66653490228E+03  0.00000000000E+00 0. -1.
         13    1    3    3    0    0 -0.53038272371E+02  0.21527478430E+02  0.85464450718E+02  0.10286234977E+03  0.00000000000E+00 0.  1.
         21    1    1    2  503  502 -0.11068558001E+02 -0.67336798412E+02 -0.39649879745E+02  0.78923192791E+02  0.00000000000E+00 0.  1.
          1    1    1    2  501    0 -0.57302298517E+01  0.23012941253E+02 -0.35105421298E+02  0.42365334931E+02  0.00000000000E+00 0. -1.
<scales pt_clust_5="13000.00000" pt_clust_6="13000.00000" pt_clust_7="13000.00000" pt_clust_8="13000.00000" pt_clust_9="59.40901" pt_clust_10="23.71563"></scales>
<clustering>
<clus scale="   23.716">  2 10  1 -1</clus>
<clus scale="   59.409">  2  9  1 -1</clus>
<clus scale="   90.564">  7  8 -1 -1</clus>
<clus scale="  106.510">  5  6 -1 -1</clus>
<clus scale="  236.273">  1  7  2 -1</clus>
<clus scale="   23.716">  2  5  1 -1</clus>
</clustering>
</event>
<event>
10    2  0.2421970E-006  0.1292395E+03  0.7546771E-02  0.1230158E+00
         21   -1    0    0  503  502  0.00000000000E+00  0.00000000000E+00  0.46544409442E+03  0.46544409442E+03  0.00000000000E+00 0.  1.
         -1   -1    0    0    0  501 -0.00000000000E+00 -0.00000000000E+00 -0.18875565756E+03  0.18875565756E+03  0.00000000000E+00 0.  1.
         23    2    1    2    0    0  0.78770632856E+02  0.58667305495E+02 -0.14261571336E+03  0.19636173066E+03  0.92585216076E+02 0.  0.
         23    2    1    2    0    0 -0.30980954543E+02 -0.24413033104E+02  0.15607027111E+03  0.18285616052E+03  0.86733097408E+02 0.  0.
        -11    1    3    3    0    0  0.60315938529E+02  0.76734856297E+02 -0.13963338363E+03  0.17036353024E+03  0.00000000000E+00 0.  1.
         11    1    3    3    0    0  0.18454694327E+02 -0.18067550802E+02 -0.29823297369E+01  0.25998200425E+02  0.00000000000E+00 0. -1.
        -11    1    4    4    0    0 -0.54454602593E+02 -0.39435020754E+02  0.11530113778E+03  0.13347200822E+03  0.00000000000E+00 0. -1.
         11    1    4    4    0    0  0.23473648050E+02  0.15021987650E+02  0.40769133333E+02  0.49384152301E+02  0.00000000000E+00 0.  1.
         21    1    1    2  503  501 -0.24807200872E+02 -0.17339168006E+02  0.41202775573E+02  0.51124482171E+02  0.00000000000E+00 0. -1.
         -1    1    1    2    0  502 -0.22982477441E+02 -0.16915104385E+02  0.22203110354E+03  0.22385737863E+03  0.00000000000E+00 0.  1.
<scales pt_clust_5="13000.00000" pt_clust_6="13000.00000" pt_clust_7="13000.00000" pt_clust_8="13000.00000" pt_clust_9="35.69715" pt_clust_10="28.53621"></scales>
<clustering>
<clus scale="   28.536">  1 10  2 -1</clus>
<clus scale="   35.697">  1  9  2 -1</clus>
<clus scale="   86.733">  7  8 -1 -1</clus>
<clus scale="   92.585">  5  6 -1 -1</clus>
<clus scale="  125.114">  1  7  2 -1</clus>
<clus scale="   28.536">  1  5  2 -1</clus>
</clustering>
</event>
<event>
10    2  0.2421970E-006  0.2241303E+03  0.7546771E-02  0.1130888E+00
          2   -1    0    0  503    0 -0.00000000000E+00  0.00000000000E+00  0.13883407880E+04  0.13883407880E+04  0.00000000000E+00 0. -1.
         21   -1    0    0  501  502  0.00000000000E+00 -0.00000000000E+00 -0.57618492715E+02  0.57618492715E+02  0.00000000000E+00 0.  1.
         23    2    1    2    0    0 -0.15199572112E+03  0.12474727218E+03  0.80072023859E+03  0.82944387480E+03  0.90330835264E+02 0.  0.
         23    2    1    2    0    0  0.15688260236E+03 -0.15586170557E+03  0.49312909354E+03  0.54804944009E+03  0.90977270286E+02 0.  0.
        -11    1    3    3    0    0 -0.60097047381E+02  0.77797040302E+01  0.14674530972E+03  0.15876512471E+03  0.00000000000E+00 0.  1.
         11    1    3    3    0    0 -0.91898673740E+02  0.11696756815E+03  0.65397492887E+03  0.67067875009E+03  0.00000000000E+00 0. -1.
        -13    1    4    4    0    0  0.70872253445E+02 -0.11392292466E+03  0.21013663954E+03  0.24931649835E+03  0.00000000000E+00 0.  1.
         13    1    4    4    0    0  0.86010348919E+02 -0.41938780909E+02  0.28299245400E+03  0.29873294175E+03  0.00000000000E+00 0. -1.
         21    1    1    2  503  502  0.16687936445E+02  0.18735831688E+02  0.35608496020E+02  0.43560114792E+02  0.00000000000E+00 0.  1.
          2    1    1    2  501    0 -0.21574817688E+02  0.12378601702E+02  0.12644671386E+01  0.24905851030E+02  0.00000000000E+00 0. -1.
<scales pt_clust_5="13000.00000" pt_clust_6="13000.00000" pt_clust_7="13000.00000" pt_clust_8="13000.00000" pt_clust_9="24.73737" pt_clust_10="24.87373"></scales>
<clustering>
<clus scale="   24.874">  2 10  1 -1</clus>
<clus scale="   24.737">  2  9  1 -1</clus>
<clus scale="   90.331">  5  6 -1 -1</clus>
<clus scale="   90.977">  7  8 -1 -1</clus>
<clus scale="  223.869">  1  5  2 -1</clus>
<clus scale="   24.874">  2  5  1 -1</clus>
</clustering>
</event>
<event>
10    2  0.2421970E-006  0.1359617E+03  0.7546771E-02  0.1219126E+00
         21   -1    0    0  503  502  0.00000000000E+00  0.00000000000E+00  0.95351637226E+02  0.95351637226E+02  0.00000000000E+00 0.  1.
         -1   -1    0    0    0  501 -0.00000000000E+00 -0.00000000000E+00 -0.50867460637E+03  0.50867460637E+03  0.00000000000E+00 0.  1.
         23    2    1    2    0    0  0.10032707832E+03  0.27809228825E+02 -0.22522446318E+03  0.26376574548E+03  0.89484265782E+02 0.  0.
         23    2    1    2    0    0 -0.91012242021E+02  0.57147008769E+02 -0.12688751976E+03  0.18935775483E+03  0.90591985493E+02 0.  0.
        -11    1    3    3    0    0  0.23832889174E+02 -0.24265674558E+02 -0.22115909534E+02  0.40570223350E+02  0.00000000000E+00 0. -1.
         11    1    3    3    0    0  0.76494189150E+02  0.52074903383E+02 -0.20310855365E+03  0.22319552213E+03  0.00000000000E+00 0.  1.
        -13    1    4    4    0    0 -0.60611409750E+02  0.79145962510E+02 -0.10924172299E+03  0.14789043382E+03  0.00000000000E+00 0.  1.
         13    1    4    4    0    0 -0.30400832271E+02 -0.21998953741E+02 -0.17645796775E+02  0.41467321016E+02  0.00000000000E+00 0. -1.
         21    1    1    2  503  501  0.33276013944E+02 -0.50883221846E+02 -0.73099973729E+02  0.95078922630E+02  0.00000000000E+00 0.  1.
         -1    1    1    2    0  502 -0.42590850247E+02 -0.34073015748E+02  0.11888987530E+02  0.55823820645E+02  0.00000000000E+00 0.  1.
<scales pt_clust_5="13000.00000" pt_clust_6="13000.00000" pt_clust_7="13000.00000" pt_clust_8="13000.00000" pt_clust_9="62.48614" pt_clust_10="54.54311"></scales>
<clustering>
<clus scale="   54.543">  1 10  2 -1</clus>
<clus scale="   62.486">  2  9  1 -1</clus>
<clus scale="   89.484">  5  6 -1 -1</clus>
<clus scale="   90.592">  7  8 -1 -1</clus>
<clus scale="  135.226">  2  5  1 -1</clus>
<clus scale="   54.543">  1  5  2 -1</clus>
</clustering>
</event>
<event>
10    2  0.2421970E-006  0.1108551E+03  0.7546771E-02  0.1266634E+00
         -1   -1    0    0    0  501 -0.00000000000E+00  0.00000000000E+00  0.66318998485E+03  0.66318998485E+03  0.00000000000E+00 0.  1.
         21   -1    0    0  503  502  0.00000000000E+00 -0.00000000000E+00 -0.68825760083E+02  0.68825760083E+02  0.00000000000E+00 0.  1.
         23    2    1    2    0    0 -0.53029962350E+02  0.76877438066E+01  0.29638143960E+03  0.31368176082E+03  0.87652786718E+02 0.  0.
         23    2    1    2    0    0 -0.51868666086E+02 -0.57296164458E+02  0.69527962165E+02  0.14719342143E+03  0.10420439917E+03 0.  0.
        -11    1    4    4    0    0 -0.34100161282E+02  0.26723212633E+02  0.29720764186E+02  0.52538318556E+02  0.00000000000E+00 0. -1.
         11    1    4    4    0    0 -0.17768504804E+02 -0.84019377091E+02  0.39807197979E+02  0.94655102877E+02  0.00000000000E+00 0.  1.
        -13    1    3    3    0    0 -0.73954560486E+02 -0.52507080481E+01  0.25480140803E+03  0.26536880843E+03  0.00000000000E+00 0.  1.
         13    1    3    3    0    0  0.20924598136E+02  0.12938451855E+02  0.41580031575E+02  0.48312952397E+02  0.00000000000E+00 0. -1.
         21    1    1    2  503  501  0.15162066322E+02  0.53186430593E+02  0.72648863282E+02  0.91304665766E+02  0.00000000000E+00 0.  1.
         -1    1    1    2    0  502  0.89736562113E+02 -0.35780099414E+01  0.15580595971E+03  0.17983589691E+03  0.00000000000E+00 0.  1.
<scales pt_clust_5="13000.00000" pt_clust_6="13000.00000" pt_clust_7="13000.00000" pt_clust_8="13000.00000" pt_clust_9="55.30538" pt_clust_10="93.07443"></scales>
<clustering>
<clus scale="   55.305">  2  9  1 -1</clus>
<clus scale="   87.653">  7  8 -1 -1</clus>
<clus scale="   93.074">  2 10  1 -1</clus>
<clus scale="   95.464">  1  7  2 -1</clus>
<clus scale="  104.204">  5  6 -1 -1</clus>
<clus scale="   55.305">  2  5  1 -1</clus>
</clustering>
</event>
<event>
10    2  0.2421970E-006  0.1327975E+03  0.7546771E-02  0.1224697E+00
         21   -1    0    0  503  502  0.00000000000E+00  0.00000000000E+00  0.14316287460E+03  0.14316287460E+03  0.00000000000E+00 0.  1.
          2   -1    0    0  502    0 -0.00000000000E+00 -0.00000000000E+00 -0.38392126835E+03  0.38392126835E+03  0.00000000000E+00 0. -1.
         23    2    1    2    0    0 -0.69899870565E+02  0.33034811553E+02 -0.20415788538E+03  0.23599239761E+03  0.89636370345E+02 0.  0.
         23    2    1    2    0    0  0.14021965574E+03 -0.42780542029E+02 -0.89098421049E+02  0.19600882070E+03  0.94811405055E+02 0.  0.
        -11    1    4    4    0    0  0.49018061968E+01 -0.36791333883E+02 -0.32034457344E+02  0.49028934418E+02  0.00000000000E+00 0. -1.
         11    1    4    4    0    0  0.13531784954E+03 -0.59892081464E+01 -0.57063963706E+02  0.14697988629E+03  0.00000000000E+00 0.  1.
        -13    1    3    3    0    0 -0.27735169345E+02  0.19500538394E+02 -0.79162913720E+01  0.34816350833E+02  0.00000000000E+00 0.  1.
         13    1    3    3    0    0 -0.42164701221E+02  0.13534273159E+02 -0.19624159401E+03  0.20117604678E+03  0.00000000000E+00 0. -1.
         21    1    1    2  503  501 -0.29005636837E+02  0.20716852997E+02  0.30983050227E+02  0.47227792324E+02  0.00000000000E+00 0. -1.
          2    1    1    2  501    0 -0.41314148337E+02 -0.10971122521E+02  0.21514862451E+02  0.47855132311E+02  0.00000000000E+00 0. -1.
<scales pt_clust_5="13000.00000" pt_clust_6="13000.00000" pt_clust_7="13000.00000" pt_clust_8="13000.00000" pt_clust_9="32.21890" pt_clust_10="79.27630"></scales>
<clustering>
<clus scale="   32.219">  9 10 -1 -1</clus>
<clus scale="   79.276">  1  9  2 -1</clus>
<clus scale="   89.636">  7  8 -1 -1</clus>
<clus scale="   94.811">  5  6 -1 -1</clus>
<clus scale="  129.154">  2  7  1 -1</clus>
<clus scale="   79.276">  1  5  2 -1</clus>
</clustering>
</event>
<event>
10    2  0.2421970E-006  0.1236003E+03  0.7546771E-02  0.1245511E+00
         21   -1    0    0  503  502  0.00000000000E+00  0.00000000000E+00  0.15496461324E+03  0.15496461324E+03  0.00000000000E+00 0. -1.
          3   -1    0    0  502    0 -0.00000000000E+00 -0.00000000000E+00 -0.17650004893E+03  0.17650004893E+03  0.00000000000E+00 0. -1.
         23    2    1    2    0    0  0.51254320586E+01  0.69116739160E+02 -0.64846386211E+02  0.13255509447E+03  0.92533267415E+02 0.  0.
         23    2    1    2    0    0  0.72772967029E+01 -0.10411864697E+03 -0.60148166483E+01  0.12310914857E+03  0.65007943738E+02 0.  0.
        -13    1    4    4    0    0  0.14308746355E+02 -0.30893387685E+02 -0.30366798109E+02  0.45621092186E+02  0.00000000000E+00 0.  1.
         13    1    4    4    0    0 -0.70314496520E+01 -0.73225259287E+02  0.24351981461E+02  0.77488056389E+02  0.00000000000E+00 0. -1.
        -13    1    3    3    0    0  0.36326079716E+02  0.13051939128E+02  0.35644323342E+01  0.38763931178E+02  0.00000000000E+00 0. -1.
         13    1    3    3    0    0 -0.31200647657E+02  0.56064800032E+02 -0.68410818545E+02  0.93791163288E+02  0.00000000000E+00 0.  1.
         21    1    1    2  503  501 -0.21585893483E+02  0.77186646593E+01  0.58520730165E+01  0.23659571851E+02  0.00000000000E+00 0. -1.
          3    1    1    2  501    0  0.91831647213E+01  0.27283243152E+02  0.43473694154E+02  0.52140847276E+02  0.00000000000E+00 0. -1.
<scales pt_clust_5="13000.00000" pt_clust_6="13000.00000" pt_clust_7="13000.00000" pt_clust_8="13000.00000" pt_clust_9="22.92441" pt_clust_10="29.97058"></scales>
<clustering>
<clus scale="   22.924">  1  9  2 -1</clus>
<clus scale="   29.971">  1 10  2 -1</clus>
<clus scale="   65.008">  5  6 -1 -1</clus>
<clus scale="   92.533">  7  8 -1 -1</clus>
<clus scale="  104.598">  1  5  2 -1</clus>
<clus scale="   22.924">  1  5  2 -1</clus>
</clustering>
</event>
<event>
10    2  0.2421970E-006  0.1984172E+03  0.7546771E-02  0.1151265E+00
         -2   -1    0    0    0  501 -0.00000000000E+00  0.00000000000E+00  0.68174809132E+03  0.68174809132E+03  0.00000000000E+00 0.  1.
         21   -1    0    0  503  502  0.00000000000E+00 -0.00000000000E+00 -0.81161186212E+02  0.81161186212E+02  0.00000000000E+00 0. -1.
         23    2    1    2    0    0  0.30778144459E+02 -0.19083446929E+03  0.38838254975E+03  0.44364447365E+03  0.92813389133E+02 0.  0.
         23    2    1    2    0    0 -0.22359630890E+02  0.15587193495E+03  0.13286055027E+03  0.22521345709E+03  0.90956925196E+02 0.  0.
        -13    1    4    4    0    0 -0.54528966740E+02  0.85656861025E+02  0.95595534686E+02  0.13945971571E+03  0.00000000000E+00 0. -1.
         13    1    4    4    0    0  0.32169335850E+02  0.70215073921E+02  0.37265015583E+02  0.85753741382E+02  0.00000000000E+00 0.  1.
        -13    1    3    3    0    0  0.41548609184E+02 -0.56904298836E+02  0.20158109506E+03  0.21353998229E+03  0.00000000000E+00 0.  1.
         13    1    3    3    0    0 -0.10770464724E+02 -0.13393017046E+03  0.18680145469E+03  0.23010449136E+03  0.00000000000E+00 0. -1.
         21    1    1    2  503  501  0.12467621544E+02  0.18458787906E+02  0.48085877735E+02  0.52994528731E+02  0.00000000000E+00 0.  1.
         -2    1    1    2    0  502 -0.20886135114E+02  0.16503746441E+02  0.31257927355E+02  0.41056818059E+02  0.00000000000E+00 0.  1.
<scales pt_clust_5="13000.00000" pt_clust_6="13000.00000" pt_clust_7="13000.00000" pt_clust_8="13000.00000" pt_clust_9="22.27484" pt_clust_10="26.74510"></scales>
<clustering>
<clus scale="   22.275">  1  9  2 -1</clus>
<clus scale="   26.745">  2 10  1 -1</clus>
<clus scale="   90.957">  5  6 -1 -1</clus>
<clus scale="   92.813">  7  8 -1 -1</clus>
<clus scale="  197.556">  2  5  1 -1</clus>
<clus scale="   26.745">  2  5  1 -1</clus>
</clustering>
</event>
<event>
10    2  0.2421970E-006  0.1009929E+03  0.7546771E-02  0.1278559E+00
         21   -1    0    0  501  502  0.00000000000E+00  0.00000000000E+00  0.12608965694E+03  0.12608965694E+03  0.00000000000E+00 0.  1.
         -1   -1    0    0    0  501 -0.00000000000E+00 -0.00000000000E+00 -0.17790042223E+03  0.17790042223E+03  0.00000000000E+00 0.  1.
         23    2    1    2    0    0 -0.10216550439E+02  0.36225961256E+02 -0.65430105938E+02  0.11914378375E+03  0.92181583151E+02 0.  0.
         23    2    1    2    0    0 -0.41708807387E+02 -0.46410484467E+02 -0.27170491413E+02  0.11401267228E+03  0.91471832574E+02 0.  0.
        -11    1    4    4    0    0 -0.10791526194E+02 -0.51508223129E+02  0.20905302471E+02  0.56626723011E+02  0.00000000000E+00 0.  1.
         11    1    4    4    0    0 -0.30917281193E+02  0.50977386627E+01 -0.48075793883E+02  0.57385949268E+02  0.00000000000E+00 0. -1.
        -13    1    3    3    0    0  0.13177011711E+02  0.47779126955E+02 -0.76213826090E+02  0.90912187838E+02  0.00000000000E+00 0.  1.
         13    1    3    3    0    0 -0.23393562149E+02 -0.11553165698E+02  0.10783720151E+02  0.28231595916E+02  0.00000000000E+00 0. -1.
         21    1    1    2  503  502  0.26860776388E+02  0.32214802635E+01  0.65540065400E+01  0.27835844607E+02  0.00000000000E+00 0.  1.
         -1    1    1    2    0  503  0.25064581438E+02  0.69630429467E+01  0.34235825517E+02  0.42997778530E+02  0.00000000000E+00 0.  1.
<scales pt_clust_5="13000.00000" pt_clust_6="13000.00000" pt_clust_7="13000.00000" pt_clust_8="13000.00000" pt_clust_9="23.07276" pt_clust_10="57.91020"></scales>
<clustering>
<clus scale="   23.073">  9 10 -1 -1</clus>
<clus scale="   57.910">  1  9  2 -1</clus>
<clus scale="   91.472">  5  6 -1 -1</clus>
<clus scale="   92.182">  7  8 -1 -1</clus>
<clus scale="  100.346">  1  5  2 -1</clus>
<clus scale="   57.910">  1  5  2 -1</clus>
</clustering>
</event>
<event>
10    2  0.2421970E-006  0.2077061E+03  0.7546771E-02  0.1143476E+00
          1   -1    0    0  503    0 -0.00000000000E+00  0.00000000000E+00  0.13990507659E+04  0.13990507659E+04  0.00000000000E+00 0. -1.
         21   -1    0    0  501  502  0.00000000000E+00 -0.00000000000E+00 -0.22648843192E+03  0.22648843192E+03  0.00000000000E+00 0. -1.
         23    2    1    2    0    0 -0.21627207516E+03 -0.90965738731E+02  0.82744274389E+03  0.86497868072E+03  0.92077399823E+02 0.  0.
         23    2    1    2    0    0  0.29156953790E+01  0.19672670465E+03  0.40602346483E+03  0.46030128077E+03  0.91171911708E+02 0.  0.
        -11    1    4    4    0    0  0.31902382221E+02  0.17225835682E+03  0.36218731000E+03  0.40233114596E+03  0.00000000000E+00 0. -1.
         11    1    4    4    0    0 -0.28986686842E+02  0.24468347833E+02  0.43836154835E+02  0.57970134815E+02  0.00000000000E+00 0.  1.
        -13    1    3    3    0    0 -0.19479673041E+03 -0.10747841051E+03  0.69310476129E+03  0.72793652541E+03  0.00000000000E+00 0.  1.
         13    1    3    3    0    0 -0.21475344748E+02  0.16512671777E+02  0.13433798261E+03  0.13704215531E+03  0.00000000000E+00 0. -1.
         21    1    1    2  503  502  0.10034767777E+03  0.40600306976E+02 -0.11487979070E+02  0.10885777429E+03  0.00000000000E+00 0. -1.
          1    1    1    2  501    0  0.11300870201E+03 -0.14636127290E+03 -0.49415895657E+02  0.19140146206E+03  0.00000000000E+00 0. -1.
<scales pt_clust_5="13000.00000" pt_clust_6="13000.00000" pt_clust_7="13000.00000" pt_clust_8="13000.00000" pt_clust_9="108.24990" pt_clust_10="219.43190"></scales>
<clustering>
<clus scale="   91.172">  5  6 -1 -1</clus>
<clus scale="   92.077">  7  8 -1 -1</clus>
<clus scale="  108.250">  2  9  1 -1</clus>
<clus scale="  219.432">  2 10  1 -1</clus>
<clus scale="  207.306">  2  5  1 -1</clus>
<clus scale="  108.250">  2  5  1 -1</clus>
</clustering>
</event>
<event>
10    2  0.2421970E-006  0.2175240E+03  0.7546771E-02  0.1169319E+00
         21   -1    0    0  503  502  0.00000000000E+00  0.00000000000E+00  0.43977765161E+03  0.43977765161E+03  0.00000000000E+00 0. -1.
          2   -1    0    0  502    0 -0.00000000000E+00 -0.00000000000E+00 -0.24537695129E+03  0.24537695129E+03  0.00000000000E+00 0. -1.
         23    2    1    2    0    0  0.59724424760E+01 -0.19450504720E+02 -0.11951878725E+03  0.15488210118E+03  0.96383258701E+02 0.  0.
         23    2    1    2    0    0 -0.19591466747E+03  0.49504181247E+02  0.21086149367E+03  0.30589743582E+03  0.90980497030E+02 0.  0.
        -11    1    3    3    0    0  0.30193457920E+02 -0.45723503934E+02 -0.10034169918E+03  0.11432733841E+03  0.00000000000E+00 0. -1.
         11    1    3    3    0    0 -0.24221015444E+02  0.26272999215E+02 -0.19177088073E+02  0.40554762776E+02  0.00000000000E+00 0.  1.
        -13    1    4    4    0    0 -0.14203093899E+03  0.76498865823E+02  0.15531187197E+03  0.22393445844E+03  0.00000000000E+00 0.  1.
         13    1    4    4    0    0 -0.53883728480E+02 -0.26994684577E+02  0.55549621693E+02  0.81962977377E+02  0.00000000000E+00 0. -1.
         21    1    1    2  503  501  0.33454841250E+02 -0.26353254171E+02  0.26093937719E+02  0.49946110901E+02  0.00000000000E+00 0. -1.
          2    1    1    2  501    0  0.15648738374E+03 -0.37004223559E+01  0.76964056182E+02  0.17442895499E+03  0.00000000000E+00 0. -1.
<scales pt_clust_5="13000.00000" pt_clust_6="13000.00000" pt_clust_7="13000.00000" pt_clust_8="13000.00000" pt_clust_9="27.31315" pt_clust_10="204.40455"></scales>
<clustering>
<clus scale="   27.313">  9 10 -1 -1</clus>
<clus scale="   90.980">  7  8 -1 -1</clus>
<clus scale="   96.383">  5  6 -1 -1</clus>
<clus scale="   98.507">  2  5  1 -1</clus>
<clus scale="  204.405">  1  9  2 -1</clus>
<clus scale="  204.405">  1  5  2 -1</clus>
</clustering>
</event>
<event>
10    2  0.2421970E-006  0.1247365E+03  0.7546771E-02  0.1235977E+00
         21   -1    0    0  503  502  0.00000000000E+00  0.00000000000E+00  0.11147431297E+04  0.11147431297E+04  0.00000000000E+00 0. -1.
         -1   -1    0    0    0  501 -0.00000000000E+00 -0.00000000000E+00 -0.27517736475E+03  0.27517736475E+03  0.00000000000E+00 0.  1.
         23    2    1    2    0    0  0.75399783165E+02 -0.37018354125E+02 -0.24681667518E+03  0.27629836196E+03  0.91470365858E+02 0.  0.
         23    2    1    2    0    0 -0.12984992466E+03  0.39956289155E+01  0.60633512858E+03  0.62655743802E+03  0.89749468012E+02 0.  0.
        -11    1    3    3    0    0 -0.21157773212E+02 -0.12073270707E+02 -0.52950863272E+02  0.58285582729E+02  0.00000000000E+00 0. -1.
         11    1    3    3    0    0  0.96557556377E+02 -0.24945083418E+02 -0.19386581191E+03  0.21801277923E+03  0.00000000000E+00 0.  1.
        -13    1    4    4    0    0 -0.57633342275E+02  0.38146191555E+02  0.38710597211E+03  0.39322737406E+03  0.00000000000E+00 0. -1.
         13    1    4    4    0    0 -0.72216582385E+02 -0.34150562640E+02  0.21922915647E+03  0.23333006396E+03  0.00000000000E+00 0.  1.
         21    1    1    2  503  501  0.64414085389E+01  0.33077207682E+02  0.16806685338E+03  0.17141196171E+03  0.00000000000E+00 0. -1.
         -1    1    1    2    0  502  0.48008732957E+02 -0.54482472403E-01  0.31198045815E+03  0.31565273272E+03  0.00000000000E+00 0.  1.
<scales pt_clust_5="13000.00000" pt_clust_6="13000.00000" pt_clust_7="13000.00000" pt_clust_8="13000.00000" pt_clust_9="33.69857" pt_clust_10="51.32506"></scales>
<clustering>
<clus scale="   33.699">  1  9  2 -1</clus>
<clus scale="   51.325">  1 10  2 -1</clus>
<clus scale="   89.749">  7  8 -1 -1</clus>
<clus scale="   91.470">  5  6 -1 -1</clus>
<clus scale="  123.480">  1  7  2 -1</clus>
<clus scale="   33.699">  1  5  2 -1</clus>
</clustering>
</event>
<event>
10    2  0.2421970E-006  0.1280251E+03  0.7546771E-02  0.1230462E+00
         -3   -1    0    0    0  501 -0.00000000000E+00  0.00000000000E+00  0.38447708831E+03  0.38447708831E+03  0.00000000000E+00 0.  1.
         21   -1    0    0  501  502  0.00000000000E+00 -0.00000000000E+00 -0.18735475091E+03  0.18735475091E+03  0.00000000000E+00 0.  1.
         23    2    1    2    0    0 -0.55807743607E+02  0.62649667844E+02  0.23842890857E+03  0.26916269463E+03  0.92524194730E+02 0.  0.
         23    2    1    2    0    0  0.12948224580E+03 -0.18165040336E+02  0.36017178680E+02  0.16407974751E+03  0.92354240372E+02 0.  0.
        -13    1    4    4    0    0  0.13722162189E+01 -0.20420047365E+02  0.29344109609E+02  0.35776222278E+02  0.00000000000E+00 0. -1.
         13    1    4    4    0    0  0.12811002958E+03  0.22550070287E+01  0.66730690710E+01  0.12830352523E+03  0.00000000000E+00 0.  1.
        -13    1    3    3    0    0 -0.17592021839E+02  0.79783350937E+02  0.17531596393E+03  0.19341806929E+03  0.00000000000E+00 0.  1.
         13    1    3    3    0    0 -0.38215721768E+02 -0.17133683093E+02  0.63112944634E+02  0.75744625333E+02  0.00000000000E+00 0. -1.
         21    1    1    2  503  502 -0.94307365901E+01 -0.28857413786E+02  0.72750959244E+01  0.31218842768E+02  0.00000000000E+00 0. -1.
         -3    1    1    2    0  503 -0.64243765602E+02 -0.15627213722E+02 -0.84598845779E+02  0.10737055432E+03  0.00000000000E+00 0.  1.
<scales pt_clust_5="13000.00000" pt_clust_6="13000.00000" pt_clust_7="13000.00000" pt_clust_8="13000.00000" pt_clust_9="30.35933" pt_clust_10="76.18604"></scales>
<clustering>
<clus scale="   30.359">  2  9  1 -1</clus>
<clus scale="   76.186">  2 10  1 -1</clus>
<clus scale="   92.354">  5  6 -1 -1</clus>
<clus scale="   92.524">  7  8 -1 -1</clus>
<clus scale="  127.902">  2  5  1 -1</clus>
<clus scale="   30.359">  2  5  1 -1</clus>
</clustering>
</event>
<event>
10    2  0.2421970E-006  0.1267151E+03  0.7546771E-02  0.1241520E+00
         -1   -1    0    0    0  501 -0.00000000000E+00  0.00000000000E+00  0.11684619876E+03  0.11684619876E+03  0.00000000000E+00 0.  1.
         21   -1    0    0  503  502  0.00000000000E+00 -0.00000000000E+00 -0.19846496885E+03  0.19846496885E+03  0.00000000000E+00 0. -1.
         23    2    1    2    0    0 -0.69281949505E+01  0.96585665167E+02  0.21896205919E+01  0.13422138527E+03  0.92918217933E+02 0.  0.
         23    2    1    2    0    0 -0.13669228115E+02 -0.75737935412E+02 -0.28317191969E+02  0.10184772172E+03  0.60398778138E+02 0.  0.
        -11    1    3    3    0    0 -0.29684956324E+02  0.96792107951E+02 -0.19134724362E+02  0.10303420049E+03  0.00000000000E+00 0. -1.
         11    1    3    3    0    0  0.22756761374E+02 -0.20644278430E+00  0.21324344954E+02  0.31187184781E+02  0.00000000000E+00 0.  1.
        -13    1    4    4    0    0  0.19411209336E+02 -0.20665104874E+02  0.60474922110E+01  0.28989890814E+02  0.00000000000E+00 0.  1.
         13    1    4    4    0    0 -0.33080437451E+02 -0.55072830538E+02 -0.34364684180E+02  0.72857830905E+02  0.00000000000E+00 0. -1.
         21    1    1    2  503  501  0.22162680277E+02  0.83118322627E+01 -0.11188516786E+02  0.26181173780E+02  0.00000000000E+00 0.  1.
         -1    1    1    2    0  502 -0.15652572121E+01 -0.29159562017E+02 -0.44302681927E+02  0.53060886848E+02  0.00000000000E+00 0.  1.
<scales pt_clust_5="13000.00000" pt_clust_6="13000.00000" pt_clust_7="13000.00000" pt_clust_8="13000.00000" pt_clust_9="23.67004" pt_clust_10="27.27204"></scales>
<clustering>
<clus scale="   23.670">  2  9  1 -1</clus>
<clus scale="   27.272">  2 10  1 -1</clus>
<clus scale="   60.399">  7  8 -1 -1</clus>
<clus scale="   92.918">  5  6 -1 -1</clus>
<clus scale="  105.219">  2  7  1 -1</clus>
<clus scale="   23.670">  2  5  1 -1</clus>
</clustering>
</event>
<event>
10    2  0.2421970E-006  0.1106505E+03  0.7546771E-02  0.1259419E+00
          1   -1    0    0  502    0 -0.00000000000E+00  0.00000000000E+00  0.29982031113E+03  0.29982031113E+03  0.00000000000E+00 0. -1.
         21   -1    0    0  503  502  0.00000000000E+00 -0.00000000000E+00 -0.10996541529E+03  0.10996541529E+03  0.00000000000E+00 0.  1.
         23    2    1    2    0    0  0.44749827701E+02 -0.53159850862E+02  0.19590542216E+03  0.22738260491E+03  0.92170482064E+02 0.  0.
         23    2    1    2    0    0 -0.51183379144E+02 -0.12319588056E+02 -0.21750410957E+02  0.10824183638E+03  0.92041861209E+02 0.  0.
        -11    1    3    3    0    0  0.22384721347E+02 -0.62406635508E+02  0.60253555338E+02  0.89588809770E+02  0.00000000000E+00 0.  1.
         11    1    3    3    0    0  0.22365106354E+02  0.92467846464E+01  0.13565186682E+03  0.13779379514E+03  0.00000000000E+00 0. -1.
        -13    1    4    4    0    0 -0.65002832864E+02 -0.32558759903E+02 -0.34662224374E+02  0.80541361581E+02  0.00000000000E+00 0.  1.
         13    1    4    4    0    0  0.13819453720E+02  0.20239171847E+02  0.12911813416E+02  0.27700474795E+02  0.00000000000E+00 0. -1.
         21    1    1    2  503  501  0.10786495169E+02  0.33853304452E+02  0.21764024002E+02  0.41666142623E+02  0.00000000000E+00 0. -1.
          1    1    1    2  501    0 -0.43529437254E+01  0.31626134465E+02 -0.60641393567E+01  0.32495142505E+02  0.00000000000E+00 0. -1.
<scales pt_clust_5="13000.00000" pt_clust_6="13000.00000" pt_clust_7="13000.00000" pt_clust_8="13000.00000" pt_clust_9="28.82083" pt_clust_10="72.48041"></scales>
<clustering>
<clus scale="   28.821">  9 10 -1 -1</clus>
<clus scale="   72.480">  2  9  1 -1</clus>
<clus scale="   92.042">  7  8 -1 -1</clus>
<clus scale="   92.170">  5  6 -1 -1</clus>
<clus scale="  110.543">  2  7  1 -1</clus>
<clus scale="   72.480">  2  5  1 -1</clus>
</clustering>
</event>
<event>
10    2  0.2421970E-006  0.9933630E+02  0.7546771E-02  0.1282206E+00
         21   -1    0    0  503  502  0.00000000000E+00  0.00000000000E+00  0.15577340686E+03  0.15577340686E+03  0.00000000000E+00 0.  1.
         -1   -1    0    0    0  501 -0.00000000000E+00 -0.00000000000E+00 -0.25641614823E+03  0.25641614823E+03  0.00000000000E+00 0.  1.
         23    2    1    2    0    0 -0.23389131147E+02 -0.29099292767E+02 -0.10595553489E+03  0.14480503143E+03  0.91367945457E+02 0.  0.
         23    2    1    2    0    0 -0.10890325757E+02  0.48830953407E+02 -0.96453505833E+02  0.14130096565E+03  0.90330631022E+02 0.  0.
        -11    1    3    3    0    0 -0.33480740871E+02  0.45930437827E+01 -0.10425199907E+03  0.10959258812E+03  0.00000000000E+00 0.  1.
         11    1    3    3    0    0  0.10091609725E+02 -0.33692336550E+02 -0.17035358144E+01  0.35212443302E+02  0.00000000000E+00 0. -1.
        -13    1    4    4    0    0 -0.31013628364E+02 -0.49738473513E+01 -0.29327840529E+01  0.31546561208E+02  0.00000000000E+00 0. -1.
         13    1    4    4    0    0  0.20123302606E+02  0.53804800758E+02 -0.93520721780E+02  0.10975440444E+03  0.00000000000E+00 0.  1.
         21    1    1    2  503  501  0.13777653820E+02  0.18039458427E+02  0.10103682317E+02  0.24846130513E+02  0.00000000000E+00 0.  1.
         -1    1    1    2    0  502  0.20501803084E+02 -0.37771119067E+02  0.91662617038E+02  0.10123742750E+03  0.00000000000E+00 0.  1.
<scales pt_clust_5="13000.00000" pt_clust_6="13000.00000" pt_clust_7="13000.00000" pt_clust_8="13000.00000" pt_clust_9="22.69903" pt_clust_10="39.25797"></scales>
<clustering>
<clus scale="   22.699">  1  9  2 -1</clus>
<clus scale="   39.258">  1 10  2 -1</clus>
<clus scale="   90.331">  7  8 -1 -1</clus>
<clus scale="   91.368">  5  6 -1 -1</clus>
<clus scale="   98.383">  1  7  2 -1</clus>
<clus scale="   22.699">  1  5  2 -1</clus>
</clustering>
</event>
<event>
10    2  0.2421970E-006  0.1277776E+03  0.7546771E-02  0.1232977E+00
         21   -1    0    0  501  502  0.00000000000E+00  0.00000000000E+00  0.23063094250E+03  0.23063094250E+03  0.00000000000E+00 0.  1.
          2   -1    0    0  503    0 -0.00000000000E+00 -0.00000000000E+00 -0.30001327009E+03  0.30001327009E+03  0.00000000000E+00 0. -1.
         23    2    1    2    0    0 -0.30452631367E+02  0.71110986379E+02 -0.21974386146E+03  0.24977578009E+03  0.90091289976E+02 0.  0.
         23    2    1    2    0    0  0.55821449916E+02 -0.12438607557E+03  0.11259979122E+03  0.20196085003E+03  0.97578388474E+02 0.  0.
        -11    1    4    4    0    0  0.80981490839E+02 -0.97626371213E+02  0.67135570624E+02  0.14351339679E+03  0.00000000000E+00 0.  1.
         11    1    4    4    0    0 -0.25160040924E+02 -0.26759704360E+02  0.45464220594E+02  0.58447453246E+02  0.00000000000E+00 0. -1.
        -11    1    3    3    0    0  0.18371969676E+02  0.51395358149E+02 -0.16511327446E+03  0.17390056214E+03  0.00000000000E+00 0. -1.
         11    1    3    3    0    0 -0.48824601043E+02  0.19715628229E+02 -0.54630587005E+02  0.75875217957E+02  0.00000000000E+00 0.  1.
         21    1    1    2  503  502 -0.16582216903E+02  0.27071479072E+02 -0.44876590731E+00  0.31749587201E+02  0.00000000000E+00 0. -1.
          2    1    1    2  501    0 -0.87866016456E+01  0.26203610123E+02  0.38210508561E+02  0.47157995255E+02  0.00000000000E+00 0. -1.
<scales pt_clust_5="13000.00000" pt_clust_6="13000.00000" pt_clust_7="13000.00000" pt_clust_8="13000.00000" pt_clust_9="33.99317" pt_clust_10="27.63754"></scales>
<clustering>
<clus scale="   27.638">  1 10  2 -1</clus>
<clus scale="   33.993">  1  9  2 -1</clus>
<clus scale="   90.091">  7  8 -1 -1</clus>
<clus scale="   97.578">  5  6 -1 -1</clus>
<clus scale="  122.156">  2  7  1 -1</clus>
<clus scale="   27.638">  1  5  2 -1</clus>
</clustering>
</event>
<event>
10    2  0.2421970E-006  0.1755675E+03  0.7546771E-02  0.1172677E+00
          1   -1    0    0  502    0 -0.00000000000E+00  0.00000000000E+00  0.23125898501E+03  0.23125898501E+03  0.00000000000E+00 0. -1.
         21   -1    0    0  503  502  0.00000000000E+00 -0.00000000000E+00 -0.21160641142E+03  0.21160641142E+03  0.00000000000E+00 0.  1.
         23    2    1    2    0    0 -0.13573631466E+03 -0.36220214431E+01  0.65962312345E+02  0.17641464750E+03  0.91288745452E+02 0.  0.
         23    2    1    2    0    0  0.18036016146E+03 -0.27836265617E+02 -0.34012631176E+02  0.20513939380E+03  0.87296427669E+02 0.  0.
        -11    1    4    4    0    0  0.54673293520E+02 -0.47650279829E-02  0.28917273272E+02  0.61849638160E+02  0.00000000000E+00 0. -1.
         11    1    4    4    0    0  0.12568686794E+03 -0.27831500589E+02 -0.62929904448E+02  0.14328975564E+03  0.00000000000E+00 0.  1.
        -13    1    3    3    0    0 -0.12909416441E+03  0.23350301260E+02  0.69416912296E+02  0.14842253052E+03  0.00000000000E+00 0. -1.
         13    1    3    3    0    0 -0.66421502443E+01 -0.26972322704E+02 -0.34545999515E+01  0.27992116975E+02  0.00000000000E+00 0.  1.
         21    1    1    2  503  501 -0.30100532479E+02  0.59133714512E+01 -0.58949900966E+01  0.31237172178E+02  0.00000000000E+00 0. -1.
          1    1    1    2  501    0 -0.14523314324E+02  0.25544915609E+02 -0.64021174785E+01  0.30074182959E+02  0.00000000000E+00 0. -1.
<scales pt_clust_5="13000.00000" pt_clust_6="13000.00000" pt_clust_7="13000.00000" pt_clust_8="13000.00000" pt_clust_9="24.50644" pt_clust_10="60.06549"></scales>
<clustering>
<clus scale="   24.506">  9 10 -1 -1</clus>
<clus scale="   60.065">  2  9  1 -1</clus>
<clus scale="   87.296">  5  6 -1 -1</clus>
<clus scale="   91.289">  7  8 -1 -1</clus>
<clus scale="  173.525">  2  5  1 -1</clus>
<clus scale="   60.065">  2  5  1 -1</clus>
</clustering>
</event>
<event>
10    2  0.2421970E-006  0.1514389E+03  0.7546771E-02  0.1217752E+00
         21   -1    0    0  503  502  0.00000000000E+00  0.00000000000E+00  0.85996534472E+03  0.85996534472E+03  0.00000000000E+00 0. -1.
         -3   -1    0    0    0  501 -0.00000000000E+00 -0.00000000000E+00 -0.17727061609E+03  0.17727061609E+03  0.00000000000E+00 0.  1.
         23    2    1    2    0    0  0.44528380948E+02  0.91257466092E+01  0.18014215118E+02  0.10233023250E+03  0.89893873964E+02 0.  0.
         23    2    1    2    0    0 -0.12853666433E+03 -0.68163482165E+02 -0.37260501093E+02  0.17830120404E+03  0.96099115710E+02 0.  0.
        -13    1    3    3    0    0  0.47934077074E+02  0.37795507071E+02  0.33434251898E+02  0.69599032319E+02  0.00000000000E+00 0.  1.
         13    1    3    3    0    0 -0.34056961260E+01 -0.28669760462E+02 -0.15420036781E+02  0.32731200182E+02  0.00000000000E+00 0. -1.
        -13    1    4    4    0    0 -0.74113323386E+02  0.87965852012E+01 -0.38617258614E+02  0.84032477515E+02  0.00000000000E+00 0. -1.
         13    1    4    4    0    0 -0.54423340947E+02 -0.76960067366E+02  0.13567575210E+01  0.94268726520E+02  0.00000000000E+00 0.  1.
         21    1    1    2  503  501  0.16871396858E+03 -0.10490666040E+02  0.48386016505E+03  0.51253791722E+03  0.00000000000E+00 0. -1.
         -3    1    1    2    0  502 -0.84705685194E+02  0.69528401595E+02  0.21808084956E+03  0.24406660705E+03  0.00000000000E+00 0.  1.
<scales pt_clust_5="13000.00000" pt_clust_6="13000.00000" pt_clust_7="13000.00000" pt_clust_8="13000.00000" pt_clust_9="117.04141" pt_clust_10="106.88765"></scales>
<clustering>
<clus scale="   89.894">  5  6 -1 -1</clus>
<clus scale="   96.099">  7  8 -1 -1</clus>
<clus scale="  100.732">  2  5  1 -1</clus>
<clus scale="  106.888">  1 10  2 -1</clus>
<clus scale="  117.041">  1  9  2 -1</clus>
<clus scale="  106.888">  1  5  2 -1</clus>
</clustering>
</event>
<event>
10    2  0.2421970E-006  0.1206444E+03  0.7546771E-02  0.1247564E+00
         21   -1    0    0  501  502  0.00000000000E+00  0.00000000000E+00  0.57094739750E+02  0.57094739750E+02  0.00000000000E+00 0. -1.
          1   -1    0    0  503    0 -0.00000000000E+00 -0.00000000000E+00 -0.48087980079E+03  0.48087980079E+03  0.00000000000E+00 0. -1.
         23    2    1    2    0    0 -0.57150765195E+02  0.72308201909E+02 -0.14636283112E+03  0.18882029628E+03  0.75738629028E+02 0.  0.
         23    2    1    2    0    0  0.31593837136E+02 -0.61696512137E+02 -0.11309417930E+03  0.16197834170E+03  0.92962678718E+02 0.  0.
        -11    1    4    4    0    0 -0.28124517914E+02 -0.37989491086E+02 -0.26622976431E+02  0.54249173403E+02  0.00000000000E+00 0.  1.
         11    1    4    4    0    0  0.59718355050E+02 -0.23707021051E+02 -0.86471202866E+02  0.10772916830E+03  0.00000000000E+00 0. -1.
        -11    1    3    3    0    0 -0.27674292616E+02  0.92440399254E+01 -0.28513123982E+01  0.29316355987E+02  0.00000000000E+00 0. -1.
         11    1    3    3    0    0 -0.29476472579E+02  0.63064161983E+02 -0.14351151872E+03  0.15950394029E+03  0.00000000000E+00 0.  1.
         21    1    1    2  503  502  0.20455896758E+02 -0.46175349983E+02 -0.70652193065E+02  0.86846640943E+02  0.00000000000E+00 0. -1.
          1    1    1    2  501    0  0.51010313015E+01  0.35563660211E+02 -0.93675857557E+02  0.10032926162E+03  0.00000000000E+00 0. -1.
<scales pt_clust_5="13000.00000" pt_clust_6="13000.00000" pt_clust_7="13000.00000" pt_clust_8="13000.00000" pt_clust_9="46.00765" pt_clust_10="35.92765"></scales>
<clustering>
<clus scale="   35.928">  1 10  2 -1</clus>
<clus scale="   46.008">  2  9  1 -1</clus>
<clus scale="   75.739">  7  8 -1 -1</clus>
<clus scale="   92.963">  5  6 -1 -1</clus>
<clus scale="  107.932">  2  7  1 -1</clus>
<clus scale="   35.928">  1  5  2 -1</clus>
</clustering>
</event>
<event>
10    2  0.2421970E-006  0.3121308E+03  0.7546771E-02  0.1098867E+00
          1   -1    0    0  503    0 -0.00000000000E+00  0.00000000000E+00  0.11807848651E+04  0.11807848651E+04  0.00000000000E+00 0. -1.
         21   -1    0    0  501  502  0.00000000000E+00 -0.00000000000E+00 -0.25900296102E+03  0.25900296102E+03  0.00000000000E+00 0. -1.
         23    2    1    2    0    0  0.21984146300E+02 -0.16464704975E+03  0.34335853577E+03  0.39243163397E+03  0.92279735474E+02 0.  0.
         23    2    1    2    0    0  0.17192194470E+03  0.35239949940E+03  0.57377531936E+03  0.70098023789E+03  0.91720306141E+02 0.  0.
        -11    1    4    4    0    0  0.88005356363E+02  0.26225219350E+03  0.35661595007E+03  0.45132703396E+03  0.00000000000E+00 0. -1.
         11    1    4    4    0    0  0.83916588339E+02  0.90147305902E+02  0.21715936929E+03  0.24965320393E+03  0.00000000000E+00 0.  1.
        -13    1    3    3    0    0 -0.17965521734E+02 -0.14129868498E+03  0.23811494098E+03  0.27746495899E+03  0.00000000000E+00 0.  1.
         13    1    3    3    0    0  0.39949668035E+02 -0.23348364767E+02  0.10524359478E+03  0.11496667498E+03  0.00000000000E+00 0. -1.
         21    1    1    2  503  502 -0.10998292531E+02  0.44346374003E+02  0.21275046864E+02  0.50400306992E+02  0.00000000000E+00 0.  1.
          1    1    1    2  501    0 -0.18290779847E+03 -0.23209882366E+03 -0.16626997961E+02  0.29597564722E+03  0.00000000000E+00 0. -1.
<scales pt_clust_5="13000.00000" pt_clust_6="13000.00000" pt_clust_7="13000.00000" pt_clust_8="13000.00000" pt_clust_9="45.68986" pt_clust_10="298.35047"></scales>
<clustering>
<clus scale="   45.690">  2  9  1 -1</clus>
<clus scale="   91.720">  5  6 -1 -1</clus>
<clus scale="   92.280">  7  8 -1 -1</clus>
<clus scale="  186.049">  1  7  2 -1</clus>
<clus scale="  298.350">  2 10  1 -1</clus>
<clus scale="   45.690">  2  5  1 -1</clus>
</clustering>
</event>
<event>
10    2  0.2421970E-006  0.1430500E+03  0.7546771E-02  0.1209340E+00
         21   -1    0    0  503  502  0.00000000000E+00  0.00000000000E+00  0.46964589471E+02  0.46964589471E+02  0.00000000000E+00 0. -1.
         -2   -1    0    0    0  501 -0.00000000000E+00 -0.00000000000E+00 -0.62739345279E+03  0.62739345279E+03  0.00000000000E+00 0.  1.
         23    2    1    2    0    0  0.27350286109E+02  0.91796260527E+02 -0.22722776393E+03  0.26260793987E+03  0.90309920755E+02 0.  0.
         23    2    1    2    0    0 -0.26885799692E+02 -0.12514188344E+03 -0.23749012591E+03  0.28458788025E+03  0.90583466816E+02 0.  0.
        -13    1    3    3    0    0  0.37374960266E+02  0.36738937620E+02 -0.36568723020E+02  0.63905466869E+02  0.00000000000E+00 0. -1.
         13    1    3    3    0    0 -0.10024674157E+02  0.55057322907E+02 -0.19065904090E+03  0.19870247300E+03  0.00000000000E+00 0.  1.
        -13    1    4    4    0    0 -0.29936847397E+02  0.15800213252E+00 -0.31453383304E+02  0.43422979147E+02  0.00000000000E+00 0.  1.
         13    1    4    4    0    0  0.30510477051E+01 -0.12529988558E+03 -0.20603674261E+03  0.24116490110E+03  0.00000000000E+00 0. -1.
         21    1    1    2  503  501 -0.20316181895E+02  0.15721542911E+02 -0.48171832519E+02  0.54593402591E+02  0.00000000000E+00 0.  1.
         -2    1    1    2    0  502  0.19851695478E+02  0.17624080007E+02 -0.67539140966E+02  0.72568819557E+02  0.00000000000E+00 0.  1.
<scales pt_clust_5="13000.00000" pt_clust_6="13000.00000" pt_clust_7="13000.00000" pt_clust_8="13000.00000" pt_clust_9="25.68879" pt_clust_10="26.14871"></scales>
<clustering>
<clus scale="   25.689">  2  9  1 -1</clus>
<clus scale="   26.149">  1 10  2 -1</clus>
<clus scale="   90.310">  5  6 -1 -1</clus>
<clus scale="   90.583">  7  8 -1 -1</clus>
<clus scale="  142.877">  2  5  1 -1</clus>
<clus scale="   26.149">  1  5  2 -1</clus>
</clustering>
</event>
<event>
10    2  0.2421970E-006  0.1548949E+03  0.7546771E-02  0.1196569E+00
          2   -1    0    0  503    0 -0.00000000000E+00  0.00000000000E+00  0.38479948654E+03  0.38479948654E+03  0.00000000000E+00 0. -1.
         21   -1    0    0  501  502  0.00000000000E+00 -0.00000000000E+00 -0.16340394633E+03  0.16340394633E+03  0.00000000000E+00 0. -1.
         23    2    1    2    0    0  0.28906532030E+02  0.12831797389E+03  0.45414272104E+02  0.16527381250E+03  0.89173353477E+02 0.  0.
         23    2    1    2    0    0 -0.13318141676E+03 -0.48427424118E+02  0.32535643670E+02  0.17632300768E+03  0.99743319336E+02 0.  0.
        -11    1    3    3    0    0 -0.12297747543E+02  0.11297864583E+03  0.42059011935E+02  0.12117908026E+03  0.00000000000E+00 0.  1.
         11    1    3    3    0    0  0.41204279573E+02  0.15339328064E+02  0.33552601696E+01  0.44094732241E+02  0.00000000000E+00 0. -1.
        -11    1    4    4    0    0 -0.67411998221E+02  0.13901867559E+02 -0.19878471352E+02  0.71643513656E+02  0.00000000000E+00 0. -1.
         11    1    4    4    0    0 -0.65769418538E+02 -0.62329291676E+02  0.52414115022E+02  0.10467949402E+03  0.00000000000E+00 0.  1.
         21    1    1    2  503  502  0.57536945980E+02 -0.70881261785E+02  0.12666538118E+03  0.15613703025E+03  0.00000000000E+00 0. -1.
          2    1    1    2  501    0  0.46737938749E+02 -0.90092879895E+01  0.16780243255E+02  0.50469582446E+02  0.00000000000E+00 0. -1.
<scales pt_clust_5="13000.00000" pt_clust_6="13000.00000" pt_clust_7="13000.00000" pt_clust_8="13000.00000" pt_clust_9="95.00913" pt_clust_10="47.59834"></scales>
<clustering>
<clus scale="   47.598">  2 10  1 -1</clus>
<clus scale="   89.173">  5  6 -1 -1</clus>
<clus scale="   95.009">  1  9  2 -1</clus>
<clus scale="   99.743">  7  8 -1 -1</clus>
<clus scale="  148.309">  1  5  2 -1</clus>
<clus scale="   47.598">  2  5  1 -1</clus>
</clustering>
</event>
<event>
10    2  0.2421970E-006  0.1986536E+03  0.7546771E-02  0.1150893E+00
          2   -1    0    0  503    0 -0.00000000000E+00  0.00000000000E+00  0.79740885481E+03  0.79740885481E+03  0.00000000000E+00 0. -1.
         21   -1    0    0  501  502  0.00000000000E+00 -0.00000000000E+00 -0.39072211774E+03  0.39072211774E+03  0.00000000000E+00 0. -1.
         23    2    1    2    0    0  0.12974673937E+03 -0.94794993044E+02  0.40837855217E+03  0.44832780668E+03  0.91675914430E+02 0.  0.
         23    2    1    2    0    0 -0.13722465268E+03  0.15321833999E+03  0.33041140138E+03  0.39988273440E+03  0.91804368618E+02 0.  0.
        -13    1    3    3    0    0  0.57617825105E+02 -0.96538745075E+02  0.26333987189E+03  0.28633447435E+03  0.00000000000E+00 0.  1.
         13    1    3    3    0    0  0.72128914265E+02  0.17437520303E+01  0.14503868028E+03  0.16199333234E+03  0.00000000000E+00 0. -1.
        -13    1    4    4    0    0  0.61751517417E+01  0.31346557651E+02  0.22724747642E+02  0.39206547043E+02  0.00000000000E+00 0. -1.
         13    1    4    4    0    0 -0.14339980442E+03  0.12187178234E+03  0.30768665373E+03  0.36067618736E+03  0.00000000000E+00 0.  1.
         21    1    1    2  503  502  0.13311262710E+02 -0.18492687306E+02 -0.50018328558E+02  0.54963646081E+02  0.00000000000E+00 0.  1.
          2    1    1    2  501    0 -0.58333493981E+01 -0.39930659642E+02 -0.28208488792E+03  0.28495678538E+03  0.00000000000E+00 0. -1.
<scales pt_clust_5="13000.00000" pt_clust_6="13000.00000" pt_clust_7="13000.00000" pt_clust_8="13000.00000" pt_clust_9="22.78528" pt_clust_10="55.68724"></scales>
<clustering>
<clus scale="   22.785">  2  9  1 -1</clus>
<clus scale="   55.687">  2 10  1 -1</clus>
<clus scale="   91.676">  5  6 -1 -1</clus>
<clus scale="   91.804">  7  8 -1 -1</clus>
<clus scale="  198.594">  1  5  2 -1</clus>
<clus scale="   22.785">  2  5  1 -1</clus>
</clustering>
</event>
<event>
10    2  0.2421970E-006  0.1195317E+03  0.7546771E-02  0.1246415E+00
         -1   -1    0    0    0  501 -0.00000000000E+00  0.00000000000E+00  0.72296349308E+03  0.72296349308E+03  0.00000000000E+00 0.  1.
         21   -1    0    0  501  502  0.00000000000E+00 -0.00000000000E+00 -0.47354249136E+02  0.47354249136E+02  0.00000000000E+00 0. -1.
         23    2    1    2    0    0  0.61466390320E+02  0.59580032659E+02  0.39327754906E+03  0.41502263119E+03  0.10123564774E+03 0.  0.
         23    2    1    2    0    0 -0.20532091632E+02  0.13968117563E+02  0.55696693995E+02  0.11214447108E+03  0.94114746865E+02 0.  0.
        -11    1    4    4    0    0 -0.41504894764E+02  0.31455094740E+02  0.65006698214E+02  0.83294358075E+02  0.00000000000E+00 0.  1.
         11    1    4    4    0    0  0.20972803132E+02 -0.17486977177E+02 -0.93100042188E+01  0.28850113008E+02  0.00000000000E+00 0. -1.
        -13    1    3    3    0    0  0.32177984773E+02 -0.18052490389E+02  0.21797036580E+03  0.22107101909E+03  0.00000000000E+00 0.  1.
         13    1    3    3    0    0  0.29288405547E+02  0.77632523049E+02  0.17530718326E+03  0.19395161211E+03  0.00000000000E+00 0. -1.
         21    1    1    2  503  502 -0.26330678396E+02 -0.39272736850E+02  0.91776849548E+02  0.10324070223E+03  0.00000000000E+00 0.  1.
         -1    1    1    2    0  503 -0.14603620291E+02 -0.34275413372E+02  0.13485815134E+03  0.13990993771E+03  0.00000000000E+00 0.  1.
<scales pt_clust_5="13000.00000" pt_clust_6="13000.00000" pt_clust_7="13000.00000" pt_clust_8="13000.00000" pt_clust_9="23.04292" pt_clust_10="88.08415"></scales>
<clustering>
<clus scale="   23.043">  9 10 -1 -1</clus>
<clus scale="   88.084">  2  9  1 -1</clus>
<clus scale="   94.115">  5  6 -1 -1</clus>
<clus scale="  101.236">  7  8 -1 -1</clus>
<clus scale="  113.564">  2  5  1 -1</clus>
<clus scale="   88.084">  2  5  1 -1</clus>
</clustering>
</event>
<event>
10    2  0.2421970E-006  0.1456269E+03  0.7546771E-02  0.1206296E+00
         21   -1    0    0  501  502  0.00000000000E+00  0.00000000000E+00  0.28655986381E+03  0.28655986381E+03  0.00000000000E+00 0. -1.
          2   -1    0    0  503    0 -0.00000000000E+00 -0.00000000000E+00 -0.34073011849E+03  0.34073011849E+03  0.00000000000E+00 0. -1.
         23    2    1    2    0    0 -0.94396171839E+02 -0.83924627331E+02 -0.22811553070E+03  0.27517691164E+03  0.87929841474E+02 0.  0.
         23    2    1    2    0    0  0.28166496491E+02  0.94498876535E+02 -0.24075213389E+02  0.13544820881E+03  0.89683957207E+02 0.  0.
        -11    1    3    3    0    0 -0.13503877020E+01 -0.40574604097E+02 -0.25219358580E+02  0.47792657300E+02  0.00000000000E+00 0.  1.
         11    1    3    3    0    0 -0.93045784137E+02 -0.43350023233E+02 -0.20289617212E+03  0.22738425434E+03  0.00000000000E+00 0. -1.
        -13    1    4    4    0    0 -0.22292522633E+02  0.54002544622E+02 -0.37429710679E+02  0.69384541741E+02  0.00000000000E+00 0.  1.
         13    1    4    4    0    0  0.50459019124E+02  0.40496331913E+02  0.13354497291E+02  0.66063667074E+02  0.00000000000E+00 0. -1.
         21    1    1    2  503  502  0.66359935434E+02  0.10126089750E+02  0.14683361471E+03  0.16145057799E+03  0.00000000000E+00 0. -1.
          2    1    1    2  501    0 -0.13026008599E+00 -0.20700338954E+02  0.51186874702E+02  0.55214283861E+02  0.00000000000E+00 0. -1.
<scales pt_clust_5="13000.00000" pt_clust_6="13000.00000" pt_clust_7="13000.00000" pt_clust_8="13000.00000" pt_clust_9="66.36876" pt_clust_10="20.70075"></scales>
<clustering>
<clus scale="   20.701">  1 10  2 -1</clus>
<clus scale="   66.369">  1  9  2 -1</clus>
<clus scale="   87.930">  5  6 -1 -1</clus>
<clus scale="   89.684">  7  8 -1 -1</clus>
<clus scale="  144.553">  2  5  1 -1</clus>
<clus scale="   20.701">  1  5  2 -1</clus>
</clustering>
</event>
<event>
10    2  0.2421970E-006  0.2550118E+03  0.7546771E-02  0.1112815E+00
          1   -1    0    0  502    0 -0.00000000000E+00  0.00000000000E+00  0.93209517025E+03  0.93209517025E+03  0.00000000000E+00 0. -1.
         21   -1    0    0  503  502  0.00000000000E+00 -0.00000000000E+00 -0.12617302527E+03  0.12617302527E+03  0.00000000000E+00 0.  1.
         23    2    1    2    0    0 -0.98376577860E+02  0.18199688846E+03  0.57168951150E+03  0.61457495201E+03  0.89847958196E+02 0.  0.
         23    2    1    2    0    0  0.12588394349E+03 -0.24249845571E+03  0.20441779561E+03  0.36423505831E+03  0.12739024411E+03 0.  0.
        -11    1    4    4    0    0  0.10582764960E+03 -0.11484823074E+03  0.16930284767E+03  0.23033250260E+03  0.00000000000E+00 0. -1.
         11    1    4    4    0    0  0.20056293891E+02 -0.12765022496E+03  0.35114947940E+02  0.13390255571E+03  0.00000000000E+00 0.  1.
        -11    1    3    3    0    0 -0.59212591276E+02  0.16043489153E+03  0.51328134855E+03  0.54102054319E+03  0.00000000000E+00 0.  1.
         11    1    3    3    0    0 -0.39163986584E+02  0.21561996929E+02  0.58408162954E+02  0.73554408817E+02  0.00000000000E+00 0. -1.
         21    1    1    2  503  501  0.18162223270E+01  0.20718658124E+02  0.20428054233E+02  0.29152476014E+02  0.00000000000E+00 0.  1.
          1    1    1    2  501    0 -0.29323587961E+02  0.39782909119E+02  0.93867836382E+01  0.50305709179E+02  0.00000000000E+00 0. -1.
<scales pt_clust_5="13000.00000" pt_clust_6="13000.00000" pt_clust_7="13000.00000" pt_clust_8="13000.00000" pt_clust_9="20.59167" pt_clust_10="73.65242"></scales>
<clustering>
<clus scale="   20.592">  9 10 -1 -1</clus>
<clus scale="   73.652">  2  9  1 -1</clus>
<clus scale="   89.848">  7  8 -1 -1</clus>
<clus scale="  127.390">  5  6 -1 -1</clus>
<clus scale="  238.486">  1  7  2 -1</clus>
<clus scale="   73.652">  2  5  1 -1</clus>
</clustering>
</event>
<event>
10    2  0.2421970E-006  0.2064488E+03  0.7546771E-02  0.1178133E+00
         21   -1    0    0  503  502  0.00000000000E+00  0.00000000000E+00  0.79591889906E+03  0.79591889906E+03  0.00000000000E+00 0. -1.
          4   -1    0    0  502    0 -0.00000000000E+00 -0.00000000000E+00 -0.55849567453E+03  0.55849567453E+03  0.00000000000E+00 0. -1.
         23    2    1    2    0    0  0.15442134933E+02 -0.24922452340E+02 -0.58699419684E+02  0.11108750050E+03  0.89639403911E+02 0.  0.
         23    2    1    2    0    0 -0.19133118421E+03  0.85792470392E+02 -0.43357094234E+03  0.48960742186E+03  0.88111835039E+02 0.  0.
        -11    1    3    3    0    0  0.25139614880E+02  0.28589108106E+00  0.17242304863E+02  0.30485718739E+02  0.00000000000E+00 0. -1.
         11    1    3    3    0    0 -0.96974799468E+01 -0.25208343421E+02 -0.75941724547E+02  0.80601781758E+02  0.00000000000E+00 0.  1.
        -13    1    4    4    0    0 -0.48665312756E+02  0.49830609797E+02 -0.21605749190E+03  0.22700714117E+03  0.00000000000E+00 0.  1.
         13    1    4    4    0    0 -0.14266587145E+03  0.35961860595E+02 -0.21751345045E+03  0.26260028069E+03  0.00000000000E+00 0. -1.
         21    1    1    2  503  501  0.58873631093E+02 -0.13526096959E+02  0.18593836624E+03  0.19550482290E+03  0.00000000000E+00 0.  1.
          4    1    1    2  501    0  0.11701541818E+03 -0.47343921094E+02  0.54375522031E+03  0.55821482833E+03  0.00000000000E+00 0. -1.
<scales pt_clust_5="13000.00000" pt_clust_6="13000.00000" pt_clust_7="13000.00000" pt_clust_8="13000.00000" pt_clust_9="21.85900" pt_clust_10="189.35650"></scales>
<clustering>
<clus scale="   21.859">  9 10 -1 -1</clus>
<clus scale="   88.112">  7  8 -1 -1</clus>
<clus scale="   89.639">  5  6 -1 -1</clus>
<clus scale="   94.312">  2  5  1 -1</clus>
<clus scale="  189.357">  1  9  2 -1</clus>
<clus scale="  189.357">  1  5  2 -1</clus>
</clustering>
</event>
<event>
10    2  0.2421970E-006  0.2567662E+03  0.7546771E-02  0.1109150E+00
          1   -1    0    0  503    0 -0.00000000000E+00  0.00000000000E+00  0.15890660198E+04  0.15890660198E+04  0.00000000000E+00 0. -1.
         21   -1    0    0  501  502  0.00000000000E+00 -0.00000000000E+00 -0.20018183942E+03  0.20018183942E+03  0.00000000000E+00 0. -1.
         23    2    1    2    0    0  0.16039089988E+03 -0.17015999559E+03  0.79268928849E+03  0.83155301512E+03  0.91893655941E+02 0.  0.
         23    2    1    2    0    0  0.29309874190E+02  0.32383613192E+03  0.58406292312E+03  0.67464046001E+03  0.91001884898E+02 0.  0.
        -11    1    3    3    0    0  0.27927482746E+02 -0.87124463484E+02  0.22942119886E+03  0.24699130130E+03  0.00000000000E+00 0. -1.
         11    1    3    3    0    0  0.13246341714E+03 -0.83035532109E+02  0.56326808962E+03  0.58456171382E+03  0.00000000000E+00 0.  1.
        -13    1    4    4    0    0 -0.26715212425E+02  0.19877173514E+03  0.34096695057E+03  0.39557852146E+03  0.00000000000E+00 0. -1.
         13    1    4    4    0    0  0.56025086615E+02  0.12506439678E+03  0.24309597256E+03  0.27906193855E+03  0.00000000000E+00 0.  1.
         21    1    1    2  503  502 -0.75396158375E+02 -0.17896360710E+02  0.61386880437E+02  0.98859544375E+02  0.00000000000E+00 0.  1.
          1    1    1    2  501    0 -0.11430461570E+03 -0.13577977562E+03 -0.49254911702E+02  0.18419483967E+03  0.00000000000E+00 0. -1.
<scales pt_clust_5="13000.00000" pt_clust_6="13000.00000" pt_clust_7="13000.00000" pt_clust_8="13000.00000" pt_clust_9="77.49103" pt_clust_10="219.54806"></scales>
<clustering>
<clus scale="   77.491">  2  9  1 -1</clus>
<clus scale="   91.002">  7  8 -1 -1</clus>
<clus scale="   91.894">  5  6 -1 -1</clus>
<clus scale="  219.548">  2 10  1 -1</clus>
<clus scale="  256.448">  2  7  1 -1</clus>
<clus scale="   77.491">  2  5  1 -1</clus>
</clustering>
</event>
<event>
10    2  0.2421970E-006  0.1216595E+03  0.7546771E-02  0.1241097E+00
          1   -1    0    0  503    0 -0.00000000000E+00  0.00000000000E+00  0.89025000272E+03  0.89025000272E+03  0.00000000000E+00 0. -1.
         21   -1    0    0  501  502  0.00000000000E+00 -0.00000000000E+00 -0.38042326747E+02  0.38042326747E+02  0.00000000000E+00 0.  1.
         23    2    1    2    0    0 -0.16413285417E+02  0.69806632252E+02  0.22162480222E+03  0.24823976685E+03  0.85808315697E+02 0.  0.
         23    2    1    2    0    0  0.74949763600E+02 -0.76227262584E+02  0.21645009392E+03  0.25702893743E+03  0.88233604102E+02 0.  0.
        -13    1    4    4    0    0  0.78758367764E+02 -0.21779756218E+02  0.10611017009E+03  0.13392761653E+03  0.00000000000E+00 0.  1.
         13    1    4    4    0    0 -0.38086041641E+01 -0.54447506366E+02  0.11033992384E+03  0.12310132090E+03  0.00000000000E+00 0. -1.
        -13    1    3    3    0    0  0.11255564847E+02  0.33389499450E+02  0.18048370722E+02  0.39589014881E+02  0.00000000000E+00 0.  1.
         13    1    3    3    0    0 -0.27668850264E+02  0.36417132803E+02  0.20357643149E+03  0.20865075197E+03  0.00000000000E+00 0. -1.
         21    1    1    2  503  502 -0.49499315730E+02 -0.22250020016E+02  0.30669161341E+03  0.31145624313E+03  0.00000000000E+00 0. -1.
          1    1    1    2  501    0 -0.90371624536E+01  0.28670650348E+02  0.10744116642E+03  0.11156738205E+03  0.00000000000E+00 0. -1.
<scales pt_clust_5="13000.00000" pt_clust_6="13000.00000" pt_clust_7="13000.00000" pt_clust_8="13000.00000" pt_clust_9="54.07373" pt_clust_10="30.06123"></scales>
<clustering>
<clus scale="   30.061">  2 10  1 -1</clus>
<clus scale="   54.074">  1  9  2 -1</clus>
<clus scale="   85.808">  7  8 -1 -1</clus>
<clus scale="   88.234">  5  6 -1 -1</clus>
<clus scale="  119.912">  1  7  2 -1</clus>
<clus scale="   30.061">  2  5  1 -1</clus>
</clustering>
</event>
<event>
10    2  0.2421970E-006  0.1038464E+03  0.7546771E-02  0.1272779E+00
          2   -1    0    0  503    0 -0.00000000000E+00  0.00000000000E+00  0.20974645032E+03  0.20974645032E+03  0.00000000000E+00 0. -1.
         21   -1    0    0  501  502  0.00000000000E+00 -0.00000000000E+00 -0.30888360225E+03  0.30888360225E+03  0.00000000000E+00 0.  1.
         23    2    1    2    0    0  0.50684101984E+02  0.16232388320E+01  0.16489367312E+03  0.19516278676E+03  0.91252818038E+02 0.  0.
         23    2    1    2    0    0 -0.63309640592E+01  0.34241812813E+02 -0.22467378476E+03  0.24529705722E+03  0.92085579078E+02 0.  0.
        -11    1    3    3    0    0  0.72689971499E+02 -0.17443253396E+02  0.12710498095E+03  0.14745770657E+03  0.00000000000E+00 0. -1.
         11    1    3    3    0    0 -0.22005869515E+02  0.19066492228E+02  0.37788692173E+02  0.47705080182E+02  0.00000000000E+00 0.  1.
        -11    1    4    4    0    0 -0.26410041718E+02 -0.17748359369E+02 -0.14247829887E+03  0.14598821943E+03  0.00000000000E+00 0. -1.
         11    1    4    4    0    0  0.20079077659E+02  0.51990172181E+02 -0.82195485885E+02  0.99308837789E+02  0.00000000000E+00 0.  1.
         21    1    1    2  503  502 -0.30940207152E+02 -0.73163768622E+01 -0.61736460979E+01  0.32387338500E+02  0.00000000000E+00 0. -1.
          2    1    1    2  501    0 -0.13412930772E+02 -0.28548674782E+02 -0.33183394197E+02  0.45782870096E+02  0.00000000000E+00 0. -1.
<scales pt_clust_5="13000.00000" pt_clust_6="13000.00000" pt_clust_7="13000.00000" pt_clust_8="13000.00000" pt_clust_9="33.24486" pt_clust_10="31.54257"></scales>
<clustering>
<clus scale="   31.543">  2 10  1 -1</clus>
<clus scale="   33.245">  2  9  1 -1</clus>
<clus scale="   91.253">  5  6 -1 -1</clus>
<clus scale="   92.086">  7  8 -1 -1</clus>
<clus scale="  103.109">  1  5  2 -1</clus>
<clus scale="   31.543">  2  5  1 -1</clus>
</clustering>
</event>
<event>
10    2  0.2421970E-006  0.9380420E+02  0.7546771E-02  0.1294457E+00
          1   -1    0    0  503    0 -0.00000000000E+00  0.00000000000E+00  0.51410746421E+03  0.51410746421E+03  0.00000000000E+00 0. -1.
         21   -1    0    0  501  502  0.00000000000E+00 -0.00000000000E+00 -0.49018679074E+02  0.49018679074E+02  0.00000000000E+00 0. -1.
         23    2    1    2    0    0 -0.54937273540E+02  0.29287594710E+02  0.25124233184E+03  0.27418041964E+03  0.90423038981E+02 0.  0.
         23    2    1    2    0    0 -0.23697139004E+02  0.98869355133E+01  0.12870206918E+03  0.15994610668E+03  0.91428816795E+02 0.  0.
        -13    1    3    3    0    0 -0.16046098193E+02 -0.31547925670E+02  0.10997081359E+03  0.11552631182E+03  0.00000000000E+00 0.  1.
         13    1    3    3    0    0 -0.38891175348E+02  0.60835520380E+02  0.14127151825E+03  0.15865410782E+03  0.00000000000E+00 0. -1.
        -13    1    4    4    0    0 -0.46184069246E+02  0.12368323856E+02  0.12873061216E+03  0.13732266453E+03  0.00000000000E+00 0. -1.
         13    1    4    4    0    0  0.22486930242E+02 -0.24813883427E+01 -0.28542984398E-01  0.22623442146E+02  0.00000000000E+00 0.  1.
         21    1    1    2  503  502  0.18123430362E+02 -0.14817055076E+02  0.49288081996E+02  0.54564813535E+02  0.00000000000E+00 0.  1.
          1    1    1    2  501    0  0.60510982181E+02 -0.24357475148E+02  0.35856302131E+02  0.74434803437E+02  0.00000000000E+00 0. -1.
<scales pt_clust_5="13000.00000" pt_clust_6="13000.00000" pt_clust_7="13000.00000" pt_clust_8="13000.00000" pt_clust_9="23.40948" pt_clust_10="67.90059"></scales>
<clustering>
<clus scale="   23.409">  1  9  2 -1</clus>
<clus scale="   67.901">  2 10  1 -1</clus>
<clus scale="   90.423">  5  6 -1 -1</clus>
<clus scale="   91.429">  7  8 -1 -1</clus>
<clus scale="   92.824">  1  5  2 -1</clus>
<clus scale="   67.901">  2  5  1 -1</clus>
</clustering>
</event>
<event>
10    2  0.4246823E-006  0.1446227E+03  0.7546771E-02  0.1222305E+00
          1   -1    0    0  503    0 -0.00000000000E+00  0.00000000000E+00  0.55421365977E+03  0.55421365977E+03  0.00000000000E+00 0. -1.
         21   -1    0    0  501  502  0.00000000000E+00 -0.00000000000E+00 -0.18981838872E+03  0.18981838872E+03  0.00000000000E+00 0. -1.
         23    2    1    2    0    0 -0.71723643331E+01 -0.46436593265E+02  0.30837349512E+03  0.32585254942E+03  0.94222457363E+02 0.  0.
         23    2    1    2    0    0  0.15590473005E+02 -0.71139762822E+02  0.18926624362E+03  0.22268660756E+03  0.91998290793E+02 0.  0.
        -11    1    3    3    0    0  0.35824732173E+02 -0.13246365413E+02  0.56569569342E+02  0.68256822424E+02  0.00000000000E+00 0.  1.
         11    1    3    3    0    0 -0.42997096507E+02 -0.33190227852E+02  0.25180392578E+03  0.25759572700E+03  0.00000000000E+00 0. -1.
        -13    1    4    4    0    0  0.21956057019E+02  0.17252207456E+02  0.57057769218E+02  0.63523980748E+02  0.00000000000E+00 0.  1.
         13    1    4    4    0    0 -0.63655840140E+01 -0.88391970278E+02  0.13220847440E+03  0.15916262681E+03  0.00000000000E+00 0. -1.
         21    1    1    2  503  502  0.20059727171E+02  0.52521272867E+01 -0.26571184721E+01  0.20905448424E+02  0.00000000000E+00 0. -1.
          1    1    1    2  501    0 -0.28477835843E+02  0.11232422880E+03 -0.13058734921E+03  0.17458744308E+03  0.00000000000E+00 0. -1.
<scales pt_clust_5="13000.00000" pt_clust_6="13000.00000" pt_clust_7="13000.00000" pt_clust_8="13000.00000" pt_clust_9="20.73590" pt_clust_10="111.58871"></scales>
<clustering>
<clus scale="   20.736">  2  9  1 -1</clus>
<clus scale="   91.998">  7  8 -1 -1</clus>
<clus scale="   94.222">  5  6 -1 -1</clus>
<clus scale="  105.113">  1  5  2 -1</clus>
<clus scale="  111.589">  2 10  1 -1</clus>
<clus scale="   20.736">  2  5  1 -1</clus>
</clustering>
</event>
<event>
10    2  0.2421970E-006  0.1438783E+03  0.7546771E-02  0.1226495E+00
         -3   -1    0    0    0  501 -0.00000000000E+00  0.00000000000E+00  0.11676585667E+03  0.11676585667E+03  0.00000000000E+00 0.  1.
         21   -1    0    0  503  502  0.00000000000E+00 -0.00000000000E+00 -0.47629116434E+03  0.47629116434E+03  0.00000000000E+00 0.  1.
         23    2    1    2    0    0  0.99760533422E+01  0.16199997984E+02  0.28357805921E+02  0.98852220060E+02  0.92766560135E+02 0.  0.
         23    2    1    2    0    0 -0.11337498353E+03 -0.11921590909E+02 -0.29206198776E+03  0.32674672879E+03  0.92017437822E+02 0.  0.
        -11    1    4    4    0    0 -0.46881740068E+02  0.43825672764E+01 -0.29864475748E+02  0.55758329956E+02  0.00000000000E+00 0. -1.
         11    1    4    4    0    0 -0.66493243464E+02 -0.16304158185E+02 -0.26219751201E+03  0.27098839884E+03  0.00000000000E+00 0.  1.
        -13    1    3    3    0    0 -0.27676220475E+02 -0.24769119550E+02  0.21158233174E+02  0.42745213698E+02  0.00000000000E+00 0.  1.
         13    1    3    3    0    0  0.37652273817E+02  0.40969117534E+02  0.71995727468E+01  0.56107006362E+02  0.00000000000E+00 0. -1.
         21    1    1    2  503  501 -0.29778982538E+01  0.22986705907E+02 -0.24392413430E+01  0.23306789242E+02  0.00000000000E+00 0. -1.
         -3    1    1    2    0  502  0.10637682844E+03 -0.27265112982E+02 -0.93381884492E+02  0.14415128292E+03  0.00000000000E+00 0.  1.
<scales pt_clust_5="13000.00000" pt_clust_6="13000.00000" pt_clust_7="13000.00000" pt_clust_8="13000.00000" pt_clust_9="23.17879" pt_clust_10="110.60634"></scales>
<clustering>
<clus scale="   23.179">  1  9  2 -1</clus>
<clus scale="   92.017">  5  6 -1 -1</clus>
<clus scale="   92.767">  7  8 -1 -1</clus>
<clus scale="   97.825">  1  7  2 -1</clus>
<clus scale="  110.606">  2 10  1 -1</clus>
<clus scale="  110.606">  2  5  1 -1</clus>
</clustering>
</event>
<event>
10    2  0.2421970E-006  0.1905743E+03  0.7546771E-02  0.1170576E+00
         21   -1    0    0  503  502  0.00000000000E+00  0.00000000000E+00  0.19125956860E+03  0.19125956860E+03  0.00000000000E+00 0. -1.
          2   -1    0    0  502    0 -0.00000000000E+00 -0.00000000000E+00 -0.77790115163E+03  0.77790115163E+03  0.00000000000E+00 0. -1.
         23    2    1    2    0    0  0.66271873854E+02  0.81933271178E+02 -0.10079373321E+03  0.17440976054E+03  0.95678449643E+02 0.  0.
         23    2    1    2    0    0 -0.15874559392E+03 -0.20977180906E+03 -0.54659126795E+03  0.61332121370E+03  0.90534642611E+02 0.  0.
        -11    1    4    4    0    0 -0.11601178075E+03 -0.20202482028E+03 -0.48386611490E+03  0.53702809836E+03  0.00000000000E+00 0. -1.
         11    1    4    4    0    0 -0.42733813169E+02 -0.77469887790E+01 -0.62725153050E+02  0.76293115340E+02  0.00000000000E+00 0.  1.
        -11    1    3    3    0    0 -0.24267667644E+02  0.20690387015E+02 -0.13971910025E+02  0.34817037173E+02  0.00000000000E+00 0. -1.
         11    1    3    3    0    0  0.90539541497E+02  0.61242884162E+02 -0.86821823184E+02  0.13959272336E+03  0.00000000000E+00 0.  1.
         21    1    1    2  503  501 -0.32573610610E+00  0.49031109101E+02  0.21231158284E+02  0.53431431253E+02  0.00000000000E+00 0.  1.
          2    1    1    2  501    0  0.92799456172E+02  0.78807428780E+02  0.39512259845E+02  0.12799831473E+03  0.00000000000E+00 0. -1.
<scales pt_clust_5="13000.00000" pt_clust_6="13000.00000" pt_clust_7="13000.00000" pt_clust_8="13000.00000" pt_clust_9="41.77353" pt_clust_10="180.15259"></scales>
<clustering>
<clus scale="   41.774">  9 10 -1 -1</clus>
<clus scale="   90.535">  5  6 -1 -1</clus>
<clus scale="   95.678">  7  8 -1 -1</clus>
<clus scale="  142.336">  2  7  1 -1</clus>
<clus scale="  180.153">  1  9  2 -1</clus>
<clus scale="  180.153">  1  5  2 -1</clus>
</clustering>
</event>
<event>
10    2  0.2421970E-006  0.9505518E+02  0.7546771E-02  0.1295297E+00
          1   -1    0    0  503    0 -0.00000000000E+00  0.00000000000E+00  0.78718297360E+02  0.78718297360E+02  0.00000000000E+00 0. -1.
         21   -1    0    0  501  502  0.00000000000E+00 -0.00000000000E+00 -0.63863595599E+03  0.63863595599E+03  0.00000000000E+00 0. -1.
         23    2    1    2    0    0  0.34711656176E+02  0.25219314763E+02  0.63818765220E+01  0.10171290902E+03  0.91999318483E+02 0.  0.
         23    2    1    2    0    0  0.28784093650E+02 -0.76938683487E+01 -0.77035243961E+02  0.11816843553E+03  0.84508169339E+02 0.  0.
        -13    1    3    3    0    0 -0.20217558907E+02  0.29051614023E+02 -0.20002520297E+02  0.40655218407E+02  0.00000000000E+00 0.  1.
         13    1    3    3    0    0  0.54929215083E+02 -0.38322992594E+01  0.26384396819E+02  0.61057690611E+02  0.00000000000E+00 0. -1.
        -13    1    4    4    0    0  0.50342975868E+02  0.25943898834E+01 -0.16421026149E+02  0.53016942366E+02  0.00000000000E+00 0. -1.
         13    1    4    4    0    0 -0.21558882217E+02 -0.10288258232E+02 -0.60614217812E+02  0.65151493159E+02  0.00000000000E+00 0.  1.
         21    1    1    2  503  502 -0.26074858616E+02  0.22346283400E+02 -0.22554118334E+03  0.22814048307E+03  0.00000000000E+00 0. -1.
          1    1    1    2  501    0 -0.37420891210E+02 -0.39871729814E+02 -0.26372310785E+03  0.26933242573E+03  0.00000000000E+00 0. -1.
<scales pt_clust_5="13000.00000" pt_clust_6="13000.00000" pt_clust_7="13000.00000" pt_clust_8="13000.00000" pt_clust_9="34.34028" pt_clust_10="59.94831"></scales>
<clustering>
<clus scale="   34.340">  2  9  1 -1</clus>
<clus scale="   59.948">  2 10  1 -1</clus>
<clus scale="   84.508">  7  8 -1 -1</clus>
<clus scale="   87.825">  2  7  1 -1</clus>
<clus scale="   91.999">  5  6 -1 -1</clus>
<clus scale="   34.340">  2  5  1 -1</clus>
</clustering>
</event>
<event>
10    2  0.2421970E-006  0.2944632E+03  0.7546771E-02  0.1130939E+00
         21   -1    0    0  503  502  0.00000000000E+00  0.00000000000E+00  0.26904114078E+03  0.26904114078E+03  0.00000000000E+00 0. -1.
          2   -1    0    0  502    0 -0.00000000000E+00 -0.00000000000E+00 -0.62959840535E+03  0.62959840535E+03  0.00000000000E+00 0. -1.
         23    2    1    2    0    0  0.22245791094E+02 -0.31080167590E+02 -0.23207786262E+02  0.10129077529E+03  0.90886565437E+02 0.  0.
         23    2    1    2    0    0  0.17089681758E+03  0.23272573212E+03 -0.40794918863E+03  0.50765901739E+03  0.89040152636E+02 0.  0.
        -11    1    3    3    0    0 -0.34203528154E+02 -0.12331169535E+02 -0.20518208299E+02  0.41748484428E+02  0.00000000000E+00 0.  1.
         11    1    3    3    0    0  0.56449319247E+02 -0.18748998056E+02 -0.26895779628E+01  0.59542290863E+02  0.00000000000E+00 0. -1.
        -13    1    4    4    0    0 -0.45880866671E+01  0.23694070663E+02 -0.65175404611E+02  0.69500308561E+02  0.00000000000E+00 0.  1.
         13    1    4    4    0    0  0.17548490424E+03  0.20903166146E+03 -0.34277378402E+03  0.43815870883E+03  0.00000000000E+00 0. -1.
         21    1    1    2  503  501 -0.68909360742E+02 -0.66343616459E+02  0.95812491109E+01  0.96134155102E+02  0.00000000000E+00 0. -1.
          2    1    1    2  501    0 -0.12423324793E+03 -0.13530194808E+03  0.61018461205E+02  0.19355559835E+03  0.00000000000E+00 0. -1.
<scales pt_clust_5="13000.00000" pt_clust_6="13000.00000" pt_clust_7="13000.00000" pt_clust_8="13000.00000" pt_clust_9="22.48482" pt_clust_10="282.40265"></scales>
<clustering>
<clus scale="   22.485">  9 10 -1 -1</clus>
<clus scale="   89.040">  7  8 -1 -1</clus>
<clus scale="   90.887">  5  6 -1 -1</clus>
<clus scale="   98.596">  2  5  1 -1</clus>
<clus scale="  282.403">  1  9  2 -1</clus>
<clus scale="  282.403">  1  5  2 -1</clus>
</clustering>
</event>
<event>
10    2  0.2421970E-006  0.1129655E+03  0.7546771E-02  0.1255188E+00
         21   -1    0    0  501  502  0.00000000000E+00  0.00000000000E+00  0.22998277484E+03  0.22998277484E+03  0.00000000000E+00 0. -1.
          2   -1    0    0  503    0 -0.00000000000E+00 -0.00000000000E+00 -0.49234738251E+03  0.49234738251E+03  0.00000000000E+00 0. -1.
         23    2    1    2    0    0  0.96461094364E+02  0.54029014191E+01 -0.36334984905E+03  0.38672154789E+03  0.90534572031E+02 0.  0.
         23    2    1    2    0    0 -0.90317373135E+01  0.18699871753E+02 -0.68112852523E+02  0.11521114348E+03  0.90570356196E+02 0.  0.
        -11    1    4    4    0    0  0.13371636913E+02 -0.32674507985E+02 -0.36858478963E+02  0.51038922572E+02  0.00000000000E+00 0.  1.
         11    1    4    4    0    0 -0.22403374227E+02  0.51374379738E+02 -0.31254373560E+02  0.64172220912E+02  0.00000000000E+00 0. -1.
        -13    1    3    3    0    0  0.33386779688E+01  0.33001794632E+02 -0.12539302249E+03  0.12970611130E+03  0.00000000000E+00 0.  1.
         13    1    3    3    0    0  0.93122416396E+02 -0.27598893213E+02 -0.23795682656E+03  0.25701543659E+03  0.00000000000E+00 0. -1.
         21    1    1    2  503  502 -0.56652625988E+02  0.16869208250E+01  0.17105076634E+03  0.18019636622E+03  0.00000000000E+00 0. -1.
          2    1    1    2  501    0 -0.30776731063E+02 -0.25789693997E+02 -0.19526724454E+01  0.40201099749E+02  0.00000000000E+00 0. -1.
<scales pt_clust_5="13000.00000" pt_clust_6="13000.00000" pt_clust_7="13000.00000" pt_clust_8="13000.00000" pt_clust_9="84.63356" pt_clust_10="40.15365"></scales>
<clustering>
<clus scale="   40.154">  1 10  2 -1</clus>
<clus scale="   84.634">  1  9  2 -1</clus>
<clus scale="   90.535">  7  8 -1 -1</clus>
<clus scale="   90.570">  5  6 -1 -1</clus>
<clus scale="  112.937">  2  7  1 -1</clus>
<clus scale="   40.154">  1  5  2 -1</clus>
</clustering>
</event>
<event>
10    2  0.2421970E-006  0.1684943E+03  0.7546771E-02  0.1179562E+00
          2   -1    0    0  502    0 -0.00000000000E+00  0.00000000000E+00  0.10713717605E+04  0.10713717605E+04  0.00000000000E+00 0. -1.
         21   -1    0    0  503  502  0.00000000000E+00 -0.00000000000E+00 -0.48264892827E+02  0.48264892827E+02  0.00000000000E+00 0. -1.
         23    2    1    2    0    0  0.11214162165E+03 -0.40127765962E+02  0.45281806982E+03  0.47723132624E+03  0.92301427291E+02 0.  0.
         23    2    1    2    0    0 -0.16080240659E+03  0.99546380396E+02  0.39081806281E+03  0.44406924064E+03  0.93230019030E+02 0.  0.
        -11    1    3    3    0    0  0.38932553502E+02  0.17455560862E+02  0.60651018704E+02  0.74155150847E+02  0.00000000000E+00 0.  1.
         11    1    3    3    0    0  0.73209068147E+02 -0.57583326824E+02  0.39216705112E+03  0.40307617539E+03  0.00000000000E+00 0. -1.
        -13    1    4    4    0    0 -0.14871728574E+03  0.47544107305E+02  0.31178657252E+03  0.34869490966E+03  0.00000000000E+00 0. -1.
         13    1    4    4    0    0 -0.12085120846E+02  0.52002273091E+02  0.79031490289E+02  0.95374330979E+02  0.00000000000E+00 0.  1.
         21    1    1    2  503  501  0.30697676192E+02 -0.16681084916E+02  0.51546716344E+02  0.62270939317E+02  0.00000000000E+00 0. -1.
          2    1    1    2  501    0  0.17963108746E+02 -0.42737529517E+02  0.12792401874E+03  0.13606514717E+03  0.00000000000E+00 0. -1.
<scales pt_clust_5="13000.00000" pt_clust_6="13000.00000" pt_clust_7="13000.00000" pt_clust_8="13000.00000" pt_clust_9="30.43370" pt_clust_10="84.42428"></scales>
<clustering>
<clus scale="   30.434">  9 10 -1 -1</clus>
<clus scale="   84.424">  2  9  1 -1</clus>
<clus scale="   92.301">  5  6 -1 -1</clus>
<clus scale="   93.230">  7  8 -1 -1</clus>
<clus scale="  167.982">  1  5  2 -1</clus>
<clus scale="   84.424">  2  5  1 -1</clus>
</clustering>
</event>
<event>
10    2  0.2421970E-006  0.9759945E+02  0.7546771E-02  0.1286371E+00
         21   -1    0    0  501  502  0.00000000000E+00  0.00000000000E+00  0.93552320903E+02  0.93552320903E+02  0.00000000000E+00 0. -1.
          2   -1    0    0  503    0 -0.00000000000E+00 -0.00000000000E+00 -0.26292122812E+03  0.26292122812E+03  0.00000000000E+00 0. -1.
         23    2    1    2    0    0  0.59429787010E+01 -0.50773530975E+02 -0.11350527352E+03  0.15395919984E+03  0.90590935832E+02 0.  0.
         23    2    1    2    0    0 -0.29327558959E+02 -0.53076040660E+01 -0.50550073588E+02  0.10946969246E+03  0.92412267871E+02 0.  0.
        -11    1    4    4    0    0 -0.83317603481E+01  0.43083989747E+02 -0.28318149509E+02  0.52226104532E+02  0.00000000000E+00 0.  1.
         11    1    4    4    0    0 -0.20995798611E+02 -0.48391593813E+02 -0.22231924079E+02  0.57243587932E+02  0.00000000000E+00 0. -1.
        -11    1    3    3    0    0  0.48012362599E+02 -0.20727727193E+02 -0.58819111833E+02  0.78705232061E+02  0.00000000000E+00 0. -1.
         11    1    3    3    0    0 -0.42069383898E+02 -0.30045803782E+02 -0.54686161689E+02  0.75253967781E+02  0.00000000000E+00 0.  1.
         21    1    1    2  503  502  0.25343836217E+02  0.16562968867E+02 -0.32976199095E+02  0.44766859156E+02  0.00000000000E+00 0.  1.
          2    1    1    2  501    0 -0.19592559594E+01  0.39518166174E+02  0.27662638988E+02  0.48277797562E+02  0.00000000000E+00 0. -1.
<scales pt_clust_5="13000.00000" pt_clust_6="13000.00000" pt_clust_7="13000.00000" pt_clust_8="13000.00000" pt_clust_9="30.27610" pt_clust_10="40.28797"></scales>
<clustering>
<clus scale="   30.276">  2  9  1 -1</clus>
<clus scale="   40.288">  1 10  2 -1</clus>
<clus scale="   90.591">  7  8 -1 -1</clus>
<clus scale="   92.412">  5  6 -1 -1</clus>
<clus scale="   95.877">  2  7  1 -1</clus>
<clus scale="   40.288">  1  5  2 -1</clus>
</clustering>
</event>
<event>
10    2  0.2421970E-006  0.5355657E+03  0.7546771E-02  0.1011548E+00
         21   -1    0    0  501  502  0.00000000000E+00  0.00000000000E+00  0.21416966852E+03  0.21416966852E+03  0.00000000000E+00 0. -1.
          2   -1    0    0  503    0 -0.00000000000E+00 -0.00000000000E+00 -0.35900320360E+04  0.35900320360E+04  0.00000000000E+00 0. -1.
         23    2    1    2    0    0  0.53637030193E+03  0.38203588524E+02 -0.13583151424E+04  0.14639014014E+04  0.93992935618E+02 0.  0.
         23    2    1    2    0    0 -0.19220740487E+03  0.34615366165E+03 -0.60906925526E+03  0.73211508218E+03  0.90890548946E+02 0.  0.
        -11    1    4    4    0    0 -0.94887587919E+02  0.23171736409E+03 -0.43739312239E+03  0.50399338753E+03  0.00000000000E+00 0.  1.
         11    1    4    4    0    0 -0.97319816949E+02  0.11443629756E+03 -0.17167613287E+03  0.22812169465E+03  0.00000000000E+00 0. -1.
        -13    1    3    3    0    0  0.55819638005E+02 -0.20755610475E+02 -0.19401586515E+03  0.20295019902E+03  0.00000000000E+00 0.  1.
         13    1    3    3    0    0  0.48055066393E+03  0.58959198998E+02 -0.11642992773E+04  0.12609512024E+04  0.00000000000E+00 0. -1.
         21    1    1    2  503  502 -0.38444211879E+03 -0.51100281254E+03 -0.12219042660E+04  0.13791191581E+04  0.00000000000E+00 0. -1.
          2    1    1    2  501    0  0.40279221725E+02  0.12664556236E+03 -0.18657370386E+03  0.22906606283E+03  0.00000000000E+00 0. -1.
<scales pt_clust_5="13000.00000" pt_clust_6="13000.00000" pt_clust_7="13000.00000" pt_clust_8="13000.00000" pt_clust_9="527.25320" pt_clust_10="132.89663"></scales>
<clustering>
<clus scale="   90.891">  5  6 -1 -1</clus>
<clus scale="   93.993">  7  8 -1 -1</clus>
<clus scale="  132.897">  1 10  2 -1</clus>
<clus scale="  435.713">  1  5  2 -1</clus>
<clus scale="  527.253">  1  9  2 -1</clus>
<clus scale="  132.897">  1  5  2 -1</clus>
</clustering>
</event>
<event>
10    2  0.2421970E-006  0.1276965E+03  0.7546771E-02  0.1231808E+00
          2   -1    0    0  502    0 -0.00000000000E+00  0.00000000000E+00  0.71439087177E+02  0.71439087177E+02  0.00000000000E+00 0. -1.
         21   -1    0    0  503  502  0.00000000000E+00 -0.00000000000E+00 -0.65311044020E+03  0.65311044020E+03  0.00000000000E+00 0. -1.
         23    2    1    2    0    0 -0.38826187976E+02  0.95923613054E+02 -0.55331600916E+02  0.14797340069E+03  0.90142824664E+02 0.  0.
         23    2    1    2    0    0 -0.34753478679E+02 -0.34563998712E+02 -0.40208641499E+03  0.41568154335E+03  0.93355160922E+02 0.  0.
        -11    1    3    3    0    0 -0.64863020456E+02  0.83322542094E+02 -0.54972128144E+02  0.11904533723E+03  0.00000000000E+00 0. -1.
         11    1    3    3    0    0  0.26036832480E+02  0.12601070960E+02 -0.35947277219E+00  0.28928063461E+02  0.00000000000E+00 0.  1.
        -11    1    4    4    0    0  0.19671763254E+02  0.15250005253E+02 -0.48891145120E+02  0.54862418839E+02  0.00000000000E+00 0.  1.
         11    1    4    4    0    0 -0.54425241933E+02 -0.49814003965E+02 -0.35319526987E+03  0.36081912451E+03  0.00000000000E+00 0. -1.
         21    1    1    2  503  501  0.37152814926E+02 -0.90863953182E+01 -0.41186915500E+02  0.56207261499E+02  0.00000000000E+00 0. -1.
          2    1    1    2  501    0  0.36426851728E+02 -0.52273219023E+02 -0.83066421613E+02  0.10468732184E+03  0.00000000000E+00 0. -1.
<scales pt_clust_5="13000.00000" pt_clust_6="13000.00000" pt_clust_7="13000.00000" pt_clust_8="13000.00000" pt_clust_9="27.60283" pt_clust_10="102.21637"></scales>
<clustering>
<clus scale="   27.603">  9 10 -1 -1</clus>
<clus scale="   90.143">  5  6 -1 -1</clus>
<clus scale="   93.355">  7  8 -1 -1</clus>
<clus scale="  102.216">  2  9  1 -1</clus>
<clus scale="  125.367">  1  5  2 -1</clus>
<clus scale="  102.216">  2  5  1 -1</clus>
</clustering>
</event>
<event>
10    2  0.2421970E-006  0.9350164E+02  0.7546771E-02  0.1294696E+00
          1   -1    0    0  503    0 -0.00000000000E+00  0.00000000000E+00  0.24049330219E+03  0.24049330219E+03  0.00000000000E+00 0. -1.
         21   -1    0    0  501  502  0.00000000000E+00 -0.00000000000E+00 -0.17610777559E+03  0.17610777559E+03  0.00000000000E+00 0.  1.
         23    2    1    2    0    0 -0.37252534713E+01 -0.27943856320E+02  0.14676070617E+03  0.17537180122E+03  0.91770513613E+02 0.  0.
         23    2    1    2    0    0 -0.46186644890E+02 -0.30620710159E+02  0.26341302526E+01  0.10740117064E+03  0.91963246763E+02 0.  0.
        -11    1    4    4    0    0 -0.65585587528E+02 -0.67405214237E+01 -0.20346831137E+02  0.68999256936E+02  0.00000000000E+00 0.  1.
         11    1    4    4    0    0  0.19398942638E+02 -0.23880188735E+02  0.22980961390E+02  0.38401913701E+02  0.00000000000E+00 0. -1.
        -13    1    3    3    0    0 -0.45962304697E+02 -0.27368899656E+02  0.88461440618E+02  0.10337802764E+03  0.00000000000E+00 0. -1.
         13    1    3    3    0    0  0.42237051226E+02 -0.57495666389E+00  0.58299265548E+02  0.71993773584E+02  0.00000000000E+00 0.  1.
         21    1    1    2  503  502  0.52353338121E+02  0.29003350362E+02 -0.85254493596E+02  0.10416522943E+03  0.00000000000E+00 0.  1.
          1    1    1    2  501    0 -0.24414397600E+01  0.29561216116E+02  0.24518377325E+00  0.29662876486E+02  0.00000000000E+00 0. -1.
<scales pt_clust_5="13000.00000" pt_clust_6="13000.00000" pt_clust_7="13000.00000" pt_clust_8="13000.00000" pt_clust_9="68.85669" pt_clust_10="29.66186"></scales>
<clustering>
<clus scale="   29.662">  2 10  1 -1</clus>
<clus scale="   68.857">  2  9  1 -1</clus>
<clus scale="   91.771">  7  8 -1 -1</clus>
<clus scale="   91.963">  5  6 -1 -1</clus>
<clus scale="   93.312">  1  7  2 -1</clus>
<clus scale="   29.662">  2  5  1 -1</clus>
</clustering>
</event>
<event>
10    2  0.2421970E-006  0.2273515E+03  0.7546771E-02  0.1167173E+00
          2   -1    0    0  502    0 -0.00000000000E+00  0.00000000000E+00  0.49324521674E+03  0.49324521674E+03  0.00000000000E+00 0. -1.
         21   -1    0    0  503  502  0.00000000000E+00 -0.00000000000E+00 -0.23540038511E+03  0.23540038511E+03  0.00000000000E+00 0.  1.
         23    2    1    2    0    0 -0.97410880949E+01 -0.14131359925E+01  0.23006393995E+03  0.24727231007E+03  0.90096021630E+02 0.  0.
         23    2    1    2    0    0 -0.11026618886E+03  0.17314307429E+03  0.99495282675E+02  0.24580166561E+03  0.91553213825E+02 0.  0.
        -11    1    3    3    0    0  0.19907415491E+02 -0.38193814424E+02  0.12010980836E+03  0.12759874104E+03  0.00000000000E+00 0. -1.
         11    1    3    3    0    0 -0.29648503586E+02  0.36780678431E+02  0.10995413159E+03  0.11967356903E+03  0.00000000000E+00 0.  1.
        -13    1    4    4    0    0 -0.85046353547E+02  0.14672506238E+03  0.11625954064E+03  0.20561470514E+03  0.00000000000E+00 0.  1.
         13    1    4    4    0    0 -0.25219835316E+02  0.26418011910E+02 -0.16764257962E+02  0.40186960468E+02  0.00000000000E+00 0. -1.
         21    1    1    2  503  501  0.14126821176E+02 -0.46653107248E+02 -0.50739199536E+02  0.70360115562E+02  0.00000000000E+00 0. -1.
          2    1    1    2  501    0  0.10588045578E+03 -0.12507683105E+03 -0.20975191462E+02  0.16521151061E+03  0.00000000000E+00 0. -1.
<scales pt_clust_5="13000.00000" pt_clust_6="13000.00000" pt_clust_7="13000.00000" pt_clust_8="13000.00000" pt_clust_9="43.82909" pt_clust_10="223.08036"></scales>
<clustering>
<clus scale="   43.829">  9 10 -1 -1</clus>
<clus scale="   90.096">  5  6 -1 -1</clus>
<clus scale="   90.632">  1  5  2 -1</clus>
<clus scale="   91.553">  7  8 -1 -1</clus>
<clus scale="  223.080">  2  9  1 -1</clus>
<clus scale="  223.080">  2  5  1 -1</clus>
</clustering>
</event>
<event>
10    2  0.2421970E-006  0.9582424E+02  0.7546771E-02  0.1289765E+00
          2   -1    0    0  503    0 -0.00000000000E+00  0.00000000000E+00  0.16493679081E+03  0.16493679081E+03  0.00000000000E+00 0. -1.
         21   -1    0    0  501  502  0.00000000000E+00 -0.00000000000E+00 -0.23359252174E+03  0.23359252174E+03  0.00000000000E+00 0.  1.
         23    2    1    2    0    0 -0.41468619331E+02 -0.27606118265E+02  0.30623344723E+02  0.10843097959E+03  0.91311247600E+02 0.  0.
         23    2    1    2    0    0  0.30168909921E+02  0.68799310596E+01 -0.16170277828E+03  0.18865720168E+03  0.92120869869E+02 0.  0.
        -11    1    3    3    0    0 -0.37414740662E+02  0.33425468121E+01  0.56526495246E+02  0.67869581572E+02  0.00000000000E+00 0.  1.
         11    1    3    3    0    0 -0.40538786690E+01 -0.30948665077E+02 -0.25903150523E+02  0.40561398020E+02  0.00000000000E+00 0. -1.
        -13    1    4    4    0    0 -0.27641237841E+02 -0.29531696612E+01 -0.98904019247E+02  0.10273638238E+03  0.00000000000E+00 0.  1.
         13    1    4    4    0    0  0.57810147762E+02  0.98331007208E+01 -0.62798759035E+02  0.85920819307E+02  0.00000000000E+00 0. -1.
         21    1    1    2  503  502  0.35892268231E+02  0.31633692337E+02  0.21465652525E+02  0.52437769288E+02  0.00000000000E+00 0. -1.
          2    1    1    2  501    0 -0.24592558821E+02 -0.10907505131E+02  0.40958050100E+02  0.49003361982E+02  0.00000000000E+00 0. -1.
<scales pt_clust_5="13000.00000" pt_clust_6="13000.00000" pt_clust_7="13000.00000" pt_clust_8="13000.00000" pt_clust_9="46.11509" pt_clust_10="26.90294"></scales>
<clustering>
<clus scale="   26.903">  2 10  1 -1</clus>
<clus scale="   46.115">  1  9  2 -1</clus>
<clus scale="   91.311">  5  6 -1 -1</clus>
<clus scale="   92.121">  7  8 -1 -1</clus>
<clus scale="   95.046">  1  5  2 -1</clus>
<clus scale="   26.903">  2  5  1 -1</clus>
</clustering>
</event>
<event>
10    2  0.2421970E-006  0.1255446E+03  0.7546771E-02  0.1249586E+00
         21   -1    0    0  503  502  0.00000000000E+00  0.00000000000E+00  0.10114300001E+03  0.10114300001E+03  0.00000000000E+00 0. -1.
          2   -1    0    0  502    0 -0.00000000000E+00 -0.00000000000E+00 -0.38348425950E+03  0.38348425950E+03  0.00000000000E+00 0. -1.
         23    2    1    2    0    0 -0.21761409975E+02 -0.35971433356E+02 -0.87664577842E+02  0.12706412452E+03  0.81808988201E+02 0.  0.
         23    2    1    2    0    0 -0.40282285994E+02  0.93152676200E+02 -0.22250043620E+03  0.26123999321E+03  0.91868418379E+02 0.  0.
        -11    1    3    3    0    0 -0.46551156416E+02  0.15405343950E+01 -0.50801232163E+02  0.68921321804E+02  0.00000000000E+00 0.  1.
         11    1    3    3    0    0  0.24789746442E+02 -0.37511967751E+02 -0.36863345679E+02  0.58142802718E+02  0.00000000000E+00 0. -1.
        -13    1    4    4    0    0  0.23657820986E+02  0.52235367438E+02 -0.66920222807E+02  0.88127988322E+02  0.00000000000E+00 0.  1.
         13    1    4    4    0    0 -0.63940106981E+02  0.40917308762E+02 -0.15558021340E+03  0.17311200489E+03  0.00000000000E+00 0. -1.
         21    1    1    2  503  501  0.34923497416E+02 -0.53769878848E+02  0.25099823914E+02  0.68853843056E+02  0.00000000000E+00 0. -1.
          2    1    1    2  501    0  0.27120198553E+02 -0.34113639952E+01  0.27239306410E+01  0.27469298717E+02  0.00000000000E+00 0. -1.
<scales pt_clust_5="13000.00000" pt_clust_6="13000.00000" pt_clust_7="13000.00000" pt_clust_8="13000.00000" pt_clust_9="24.29812" pt_clust_10="93.30866"></scales>
<clustering>
<clus scale="   24.298">  9 10 -1 -1</clus>
<clus scale="   81.809">  5  6 -1 -1</clus>
<clus scale="   91.868">  7  8 -1 -1</clus>
<clus scale="   91.979">  2  5  1 -1</clus>
<clus scale="   93.309">  1  9  2 -1</clus>
<clus scale="   93.309">  1  5  2 -1</clus>
</clustering>
</event>
<event>
10    2  0.2421970E-006  0.1028336E+03  0.7546771E-02  0.1274795E+00
         21   -1    0    0  501  502  0.00000000000E+00  0.00000000000E+00  0.16276554738E+03  0.16276554738E+03  0.00000000000E+00 0. -1.
          2   -1    0    0  503    0 -0.00000000000E+00 -0.00000000000E+00 -0.35519257423E+03  0.35519257423E+03  0.00000000000E+00 0. -1.
         23    2    1    2    0    0 -0.40839444956E+02 -0.14271602486E+02 -0.27849343642E+03  0.29602694180E+03  0.90563884865E+02 0.  0.
         23    2    1    2    0    0  0.95529678022E+02  0.65870397490E+01  0.56594831306E+02  0.14392433972E+03  0.91334178480E+02 0.  0.
        -11    1    4    4    0    0  0.70163534387E+01 -0.31404958431E+02 -0.52913200051E-01  0.32179239105E+02  0.00000000000E+00 0.  1.
         11    1    4    4    0    0  0.88513324583E+02  0.37991998180E+02  0.56647744506E+02  0.11174510062E+03  0.00000000000E+00 0. -1.
        -13    1    3    3    0    0  0.45890330493E+01  0.23752854812E+02 -0.21732158295E+02  0.32519902217E+02  0.00000000000E+00 0.  1.
         13    1    3    3    0    0 -0.45428478005E+02 -0.38024457298E+02 -0.25676127812E+03  0.26350703958E+03  0.00000000000E+00 0. -1.
         21    1    1    2  503  502 -0.32187525748E+02 -0.53050412059E+01 -0.68651001101E+01  0.33336314665E+02  0.00000000000E+00 0. -1.
          2    1    1    2  501    0 -0.22502707318E+02  0.12989603943E+02  0.36336678363E+02  0.44670525425E+02  0.00000000000E+00 0. -1.
<scales pt_clust_5="13000.00000" pt_clust_6="13000.00000" pt_clust_7="13000.00000" pt_clust_8="13000.00000" pt_clust_9="34.84241" pt_clust_10="25.98272"></scales>
<clustering>
<clus scale="   25.983">  1 10  2 -1</clus>
<clus scale="   34.842">  1  9  2 -1</clus>
<clus scale="   90.564">  7  8 -1 -1</clus>
<clus scale="   91.334">  5  6 -1 -1</clus>
<clus scale="  102.150">  2  7  1 -1</clus>
<clus scale="   25.983">  1  5  2 -1</clus>
</clustering>
</event>
<event>
10    2  0.2421970E-006  0.1067856E+03  0.7546771E-02  0.1267687E+00
          4   -1    0    0  503    0 -0.00000000000E+00  0.00000000000E+00  0.15244447484E+03  0.15244447484E+03  0.00000000000E+00 0. -1.
         21   -1    0    0  501  502  0.00000000000E+00 -0.00000000000E+00 -0.32928077909E+03  0.32928077909E+03  0.00000000000E+00 0.  1.
         23    2    1    2    0    0  0.62881991324E+02  0.28563360283E+02  0.38294910008E+02  0.12060542723E+03  0.91154586064E+02 0.  0.
         23    2    1    2    0    0 -0.84081434842E+02 -0.63378770669E+01 -0.20808061362E+03  0.24325062920E+03  0.93613409681E+02 0.  0.
        -11    1    3    3    0    0  0.52886192254E+02 -0.23679853564E+02  0.34134412815E+02  0.67252084980E+02  0.00000000000E+00 0.  1.
         11    1    3    3    0    0  0.99957990705E+01  0.52243213847E+02  0.41604971934E+01  0.53353342247E+02  0.00000000000E+00 0. -1.
        -11    1    4    4    0    0 -0.45496235578E+02 -0.46248744616E+02 -0.14718915893E+03  0.16085242409E+03  0.00000000000E+00 0.  1.
         11    1    4    4    0    0 -0.38585199264E+02  0.39910867549E+02 -0.60891454686E+02  0.82398205105E+02  0.00000000000E+00 0. -1.
         21    1    1    2  503  502 -0.29336854368E+02 -0.48923951476E+02  0.10659453926E+02  0.58032990706E+02  0.00000000000E+00 0.  1.
          4    1    1    2  501    0  0.50536297885E+02  0.26698468260E+02 -0.17710054571E+02  0.59836206801E+02  0.00000000000E+00 0. -1.
<scales pt_clust_5="13000.00000" pt_clust_6="13000.00000" pt_clust_7="13000.00000" pt_clust_8="13000.00000" pt_clust_9="57.04563" pt_clust_10="48.73886"></scales>
<clustering>
<clus scale="   57.046">  1  9  2 -1</clus>
<clus scale="   48.739">  2 10  1 -1</clus>
<clus scale="   91.155">  5  6 -1 -1</clus>
<clus scale="   93.613">  7  8 -1 -1</clus>
<clus scale="  104.637">  1  5  2 -1</clus>
<clus scale="   48.739">  2  5  1 -1</clus>
</clustering>
</event>
<event>
10    2  0.2421970E-006  0.9514680E+02  0.7546771E-02  0.1291210E+00
          2   -1    0    0  503    0 -0.00000000000E+00  0.00000000000E+00  0.33049531644E+03  0.33049531644E+03  0.00000000000E+00 0. -1.
         21   -1    0    0  501  502  0.00000000000E+00 -0.00000000000E+00 -0.29306228242E+03  0.29306228242E+03  0.00000000000E+00 0.  1.
         23    2    1    2    0    0  0.48424078051E+02 -0.30510651174E+02  0.20671529997E+03  0.23248743434E+03  0.89685008294E+02 0.  0.
         23    2    1    2    0    0 -0.84645234203E+02 -0.48296343612E+02 -0.21268429936E+03  0.25030564399E+03  0.88999728878E+02 0.  0.
        -11    1    4    4    0    0 -0.55512186237E+02 -0.44309694861E+02 -0.20891671509E+03  0.22066070272E+03  0.00000000000E+00 0.  1.
         11    1    4    4    0    0 -0.29133047966E+02 -0.39866487513E+01 -0.37675842712E+01  0.29644941276E+02  0.00000000000E+00 0. -1.
        -11    1    3    3    0    0  0.68403361126E+02 -0.41604105085E+02  0.18197100019E+03  0.19880484472E+03  0.00000000000E+00 0. -1.
         11    1    3    3    0    0 -0.19979283076E+02  0.11093453910E+02  0.24744299785E+02  0.33682589623E+02  0.00000000000E+00 0.  1.
         21    1    1    2  503  502 -0.33192836853E+02  0.46465136006E+02  0.14519790832E+02  0.58920264835E+02  0.00000000000E+00 0.  1.
          2    1    1    2  501    0  0.69413993005E+02  0.32341858780E+02  0.28882242580E+02  0.81844255697E+02  0.00000000000E+00 0. -1.
<scales pt_clust_5="13000.00000" pt_clust_6="13000.00000" pt_clust_7="13000.00000" pt_clust_8="13000.00000" pt_clust_9="57.10318" pt_clust_10="75.35318"></scales>
<clustering>
<clus scale="   57.103">  1  9  2 -1</clus>
<clus scale="   75.353">  2 10  1 -1</clus>
<clus scale="   89.000">  5  6 -1 -1</clus>
<clus scale="   89.685">  7  8 -1 -1</clus>
<clus scale="   94.501">  2  5  1 -1</clus>
<clus scale="   75.353">  2  5  1 -1</clus>
</clustering>
</event>
<event>
10    2  0.2421970E-006  0.1338849E+03  0.7546771E-02  0.1235210E+00
         -1   -1    0    0    0  501 -0.00000000000E+00  0.00000000000E+00  0.10591525383E+03  0.10591525383E+03  0.00000000000E+00 0.  1.
         21   -1    0    0  503  502  0.00000000000E+00 -0.00000000000E+00 -0.36365244486E+03  0.36365244486E+03  0.00000000000E+00 0.  1.
         23    2    1    2    0    0 -0.41387716382E+02 -0.12809443344E+02 -0.89152613300E+02  0.13501126794E+03  0.91666946643E+02 0.  0.
         23    2    1    2    0    0 -0.23650813480E+02 -0.53350501877E+02 -0.25738256853E+01  0.10853001724E+03  0.91468590421E+02 0.  0.
        -11    1    3    3    0    0 -0.51320841333E+02 -0.43106271762E+02 -0.73576694763E+02  0.99526425800E+02  0.00000000000E+00 0.  1.
         11    1    3    3    0    0  0.99331249515E+01  0.30296828418E+02 -0.15575918537E+02  0.35484842141E+02  0.00000000000E+00 0. -1.
        -13    1    4    4    0    0  0.67480744929E+01 -0.72336553932E+02 -0.11008177772E+01  0.72658966026E+02  0.00000000000E+00 0.  1.
         13    1    4    4    0    0 -0.30398887973E+02  0.18986052055E+02 -0.14730079082E+01  0.35871051210E+02  0.00000000000E+00 0. -1.
         21    1    1    2  503  501  0.13127379307E+02 -0.32363724201E+02 -0.14087828726E+02  0.37659071283E+02  0.00000000000E+00 0.  1.
         -1    1    1    2    0  502  0.51911150555E+02  0.98523669423E+02 -0.15192292332E+03  0.18836734223E+03  0.00000000000E+00 0.  1.
<scales pt_clust_5="13000.00000" pt_clust_6="13000.00000" pt_clust_7="13000.00000" pt_clust_8="13000.00000" pt_clust_9="34.92476" pt_clust_10="97.76838"></scales>
<clustering>
<clus scale="   34.925">  1  9  2 -1</clus>
<clus scale="   91.469">  7  8 -1 -1</clus>
<clus scale="   91.667">  5  6 -1 -1</clus>
<clus scale="  101.437">  1  5  2 -1</clus>
<clus scale="   97.768">  2 10  1 -1</clus>
<clus scale="   97.768">  2  5  1 -1</clus>
</clustering>
</event>
<event>
10    2  0.2421970E-006  0.9830325E+02  0.7546771E-02  0.1286357E+00
         21   -1    0    0  501  502  0.00000000000E+00  0.00000000000E+00  0.76391065784E+02  0.76391065784E+02  0.00000000000E+00 0.  1.
          2   -1    0    0  503    0 -0.00000000000E+00 -0.00000000000E+00 -0.47943576372E+03  0.47943576372E+03  0.00000000000E+00 0. -1.
         23    2    1    2    0    0 -0.28106076513E+02  0.18590111272E+02 -0.35626096501E+03  0.36825274371E+03  0.86906065878E+02 0.  0.
         23    2    1    2    0    0  0.61181625517E+02  0.10589782594E+02 -0.25700357587E+02  0.11367915988E+03  0.91690284194E+02 0.  0.
        -11    1    4    4    0    0 -0.82157384765E+01 -0.29441250408E+02 -0.55095872157E+01  0.31058672470E+02  0.00000000000E+00 0. -1.
         11    1    4    4    0    0  0.69397363994E+02  0.40031033002E+02 -0.20190770371E+02  0.82620487415E+02  0.00000000000E+00 0.  1.
        -13    1    3    3    0    0  0.30459390875E+02  0.19304743645E+01 -0.87159871090E+02  0.92349035469E+02  0.00000000000E+00 0.  1.
         13    1    3    3    0    0 -0.58565467388E+02  0.16659636907E+02 -0.26910109392E+03  0.27590370824E+03  0.00000000000E+00 0. -1.
         21    1    1    2  503  502  0.57061997302E+00 -0.28009642617E+02  0.82894521797E+01  0.29216103507E+02  0.00000000000E+00 0.  1.
          2    1    1    2  501    0 -0.33646168977E+02 -0.11702512491E+01 -0.29372827522E+02  0.44678822405E+02  0.00000000000E+00 0. -1.
<scales pt_clust_5="13000.00000" pt_clust_6="13000.00000" pt_clust_7="13000.00000" pt_clust_8="13000.00000" pt_clust_9="28.01545" pt_clust_10="33.92458"></scales>
<clustering>
<clus scale="   28.015">  1  9  2 -1</clus>
<clus scale="   33.925">  1 10  2 -1</clus>
<clus scale="   86.906">  7  8 -1 -1</clus>
<clus scale="   91.690">  5  6 -1 -1</clus>
<clus scale="   93.857">  2  7  1 -1</clus>
<clus scale="   28.015">  1  5  2 -1</clus>
</clustering>
</event>
<event>
10    2  0.2421970E-006  0.1935732E+03  0.7546771E-02  0.1155732E+00
          3   -1    0    0  503    0 -0.00000000000E+00  0.00000000000E+00  0.69242521158E+03  0.69242521158E+03  0.00000000000E+00 0. -1.
         21   -1    0    0  501  502  0.00000000000E+00 -0.00000000000E+00 -0.98492764598E+03  0.98492764598E+03  0.00000000000E+00 0. -1.
         23    2    1    2    0    0 -0.45436506627E+02 -0.16438987965E+03  0.66085289431E+03  0.68920464320E+03  0.95853970294E+02 0.  0.
         23    2    1    2    0    0  0.54363400209E+02  0.94006968596E+02 -0.36192622298E+03  0.38881873565E+03  0.91633666787E+02 0.  0.
        -11    1    4    4    0    0 -0.20880743251E+02  0.65456817221E+01 -0.28086906723E+02  0.35605136107E+02  0.00000000000E+00 0. -1.
         11    1    4    4    0    0  0.75244143460E+02  0.87461286874E+02 -0.33383931625E+03  0.35321359954E+03  0.00000000000E+00 0.  1.
        -11    1    3    3    0    0 -0.26169736270E+02 -0.12966501963E+03  0.61256478101E+03  0.62668451660E+03  0.00000000000E+00 0. -1.
         11    1    3    3    0    0 -0.19266770358E+02 -0.34724860028E+02  0.48288113302E+02  0.62520126601E+02  0.00000000000E+00 0.  1.
         21    1    1    2  503  502 -0.23195680253E+02  0.53623371244E+01 -0.76595921298E+02  0.80210531736E+02  0.00000000000E+00 0. -1.
          3    1    1    2  501    0  0.14268786671E+02  0.65020573933E+02 -0.51483318444E+03  0.51911894698E+03  0.00000000000E+00 0. -1.
<scales pt_clust_5="13000.00000" pt_clust_6="13000.00000" pt_clust_7="13000.00000" pt_clust_8="13000.00000" pt_clust_9="23.80744" pt_clust_10="68.08658"></scales>
<clustering>
<clus scale="   23.807">  2  9  1 -1</clus>
<clus scale="   68.087">  2 10  1 -1</clus>
<clus scale="   91.634">  5  6 -1 -1</clus>
<clus scale="   95.854">  7  8 -1 -1</clus>
<clus scale="  191.518">  2  5  1 -1</clus>
<clus scale="   23.807">  2  5  1 -1</clus>
</clustering>
</event>
<event>
10    2  0.2421970E-006  0.1314073E+03  0.7546771E-02  0.1225646E+00
         21   -1    0    0  501  502  0.00000000000E+00  0.00000000000E+00  0.12554673830E+03  0.12554673830E+03  0.00000000000E+00 0. -1.
          1   -1    0    0  503    0 -0.00000000000E+00 -0.00000000000E+00 -0.53925194002E+03  0.53925194002E+03  0.00000000000E+00 0. -1.
         23    2    1    2    0    0  0.47389985139E+02  0.56589194751E+02 -0.27288576350E+03  0.29774165104E+03  0.93462843902E+02 0.  0.
         23    2    1    2    0    0 -0.10678461061E+03 -0.85719294165E+02 -0.20771788238E+03  0.26541337371E+03  0.92448849788E+02 0.  0.
        -11    1    4    4    0    0 -0.75414777050E+02 -0.10251972880E+03 -0.14205916314E+03  0.19073145840E+03  0.00000000000E+00 0.  1.
         11    1    4    4    0    0 -0.31369833565E+02  0.16800434639E+02 -0.65658719242E+02  0.74681915310E+02  0.00000000000E+00 0. -1.
        -13    1    3    3    0    0  0.66527801431E+02  0.69328620051E+02 -0.21809056093E+03  0.23831890124E+03  0.00000000000E+00 0. -1.
         13    1    3    3    0    0 -0.19137816292E+02 -0.12739425300E+02 -0.54795202570E+02  0.59422749803E+02  0.00000000000E+00 0.  1.
         21    1    1    2  503  502  0.24471176203E+02  0.33135478146E+02  0.39556913548E+02  0.57109962232E+02  0.00000000000E+00 0. -1.
          1    1    1    2  501    0  0.34923449273E+02 -0.40053787318E+01  0.27341530618E+02  0.44533691341E+02  0.00000000000E+00 0. -1.
<scales pt_clust_5="13000.00000" pt_clust_6="13000.00000" pt_clust_7="13000.00000" pt_clust_8="13000.00000" pt_clust_9="53.24524" pt_clust_10="35.15239"></scales>
<clustering>
<clus scale="   35.152">  1 10  2 -1</clus>
<clus scale="   53.245">  1  9  2 -1</clus>
<clus scale="   92.449">  5  6 -1 -1</clus>
<clus scale="   93.463">  7  8 -1 -1</clus>
<clus scale="  130.688">  1  5  2 -1</clus>
<clus scale="   35.152">  1  5  2 -1</clus>
</clustering>
</event>
<event>
10    2  0.2421970E-006  0.2030590E+03  0.7546771E-02  0.1147197E+00
         21   -1    0    0  503  502  0.00000000000E+00  0.00000000000E+00  0.18515507284E+03  0.18515507284E+03  0.00000000000E+00 0.  1.
         -1   -1    0    0    0  501 -0.00000000000E+00 -0.00000000000E+00 -0.77597262367E+03  0.77597262367E+03  0.00000000000E+00 0.  1.
         23    2    1    2    0    0  0.12260714380E+03  0.12334814691E+03 -0.59045034932E+03  0.62237373266E+03  0.92033532143E+02 0.  0.
         23    2    1    2    0    0 -0.15150226444E+03 -0.16521700325E+03 -0.54627788225E+02  0.24835082853E+03  0.91893114490E+02 0.  0.
        -11    1    3    3    0    0  0.20451541817E+02  0.60289477818E+02 -0.32301419784E+03  0.32922827750E+03  0.00000000000E+00 0. -1.
         11    1    3    3    0    0  0.10215560199E+03  0.63058669097E+02 -0.26743615147E+03  0.29314545516E+03  0.00000000000E+00 0.  1.
        -13    1    4    4    0    0 -0.25699842070E+02 -0.99204269617E+01  0.21023587826E+02  0.34653830937E+02  0.00000000000E+00 0. -1.
         13    1    4    4    0    0 -0.12580242237E+03 -0.15529657629E+03 -0.75651376050E+02  0.21369699759E+03  0.00000000000E+00 0.  1.
         21    1    1    2  503  501  0.23164328748E+02 -0.60002809434E+01  0.15134372126E+02  0.28313225132E+02  0.00000000000E+00 0. -1.
         -1    1    1    2    0  502  0.57307918907E+01  0.47869137278E+02  0.39126214581E+02  0.62089910186E+02  0.00000000000E+00 0.  1.
<scales pt_clust_5="13000.00000" pt_clust_6="13000.00000" pt_clust_7="13000.00000" pt_clust_8="13000.00000" pt_clust_9="23.92884" pt_clust_10="47.78629"></scales>
<clustering>
<clus scale="   23.929">  1  9  2 -1</clus>
<clus scale="   47.786">  1 10  2 -1</clus>
<clus scale="   91.893">  7  8 -1 -1</clus>
<clus scale="   92.034">  5  6 -1 -1</clus>
<clus scale="  202.995">  1  7  2 -1</clus>
<clus scale="   23.929">  1  5  2 -1</clus>
</clustering>
</event>
<event>
10    2  0.2421970E-006  0.1558931E+03  0.7546771E-02  0.1212319E+00
          3   -1    0    0  502    0 -0.00000000000E+00  0.00000000000E+00  0.30440422697E+03  0.30440422697E+03  0.00000000000E+00 0. -1.
         21   -1    0    0  503  502  0.00000000000E+00 -0.00000000000E+00 -0.24374267584E+03  0.24374267584E+03  0.00000000000E+00 0. -1.
         23    2    1    2    0    0 -0.33240379713E+02  0.40622891927E+02  0.13950128045E+03  0.17376206254E+03  0.89316879372E+02 0.  0.
         23    2    1    2    0    0  0.88466077396E+02  0.77721702770E+02  0.75692803970E+02  0.16679871931E+03  0.90694554732E+02 0.  0.
        -13    1    3    3    0    0 -0.14926727411E+02  0.66940593284E+02  0.11290751087E+03  0.13210585238E+03  0.00000000000E+00 0.  1.
         13    1    3    3    0    0 -0.18313652302E+02 -0.26317701357E+02  0.26593769574E+02  0.41656210167E+02  0.00000000000E+00 0. -1.
        -13    1    4    4    0    0  0.49017947614E+02  0.45484607491E+02 -0.94938973565E+01  0.67540675107E+02  0.00000000000E+00 0.  1.
         13    1    4    4    0    0  0.39448129781E+02  0.32237095279E+02  0.85186701326E+02  0.99258044199E+02  0.00000000000E+00 0. -1.
         21    1    1    2  503  501 -0.23084758566E+02 -0.94889656885E+02 -0.12143048240E+03  0.15582783807E+03  0.00000000000E+00 0. -1.
          3    1    1    2  501    0 -0.32140939117E+02 -0.23454937812E+02 -0.33102050891E+02  0.51758282896E+02  0.00000000000E+00 0. -1.
<scales pt_clust_5="13000.00000" pt_clust_6="13000.00000" pt_clust_7="13000.00000" pt_clust_8="13000.00000" pt_clust_9="29.64092" pt_clust_10="135.03164"></scales>
<clustering>
<clus scale="   29.641">  9 10 -1 -1</clus>
<clus scale="   89.317">  5  6 -1 -1</clus>
<clus scale="   90.695">  7  8 -1 -1</clus>
<clus scale="  103.598">  1  5  2 -1</clus>
<clus scale="  135.032">  2  9  1 -1</clus>
<clus scale="  135.032">  2  5  1 -1</clus>
</clustering>
</event>
<event>
10    2  0.2421970E-006  0.1775090E+03  0.7546771E-02  0.1188572E+00
         -2   -1    0    0    0  501 -0.00000000000E+00  0.00000000000E+00  0.47705688447E+03  0.47705688447E+03  0.00000000000E+00 0.  1.
         21   -1    0    0  501  502  0.00000000000E+00 -0.00000000000E+00 -0.13925690451E+03  0.13925690451E+03  0.00000000000E+00 0. -1.
         23    2    1    2    0    0  0.61681085540E+02 -0.33084958200E+02  0.13286111679E+03  0.17588246483E+03  0.91560877596E+02 0.  0.
         23    2    1    2    0    0 -0.17420082623E+03  0.11783856645E+03  0.17111948864E+03  0.28658767383E+03  0.92837275893E+02 0.  0.
        -13    1    3    3    0    0  0.56240199169E+02 -0.60247315356E+02  0.73729709978E+02  0.11058376528E+03  0.00000000000E+00 0.  1.
         13    1    3    3    0    0  0.54408863712E+01  0.27162357156E+02  0.59131406816E+02  0.65298699549E+02  0.00000000000E+00 0. -1.
        -13    1    4    4    0    0 -0.22457336613E+02  0.66707573103E+01  0.68316221387E+02  0.72221444706E+02  0.00000000000E+00 0.  1.
         13    1    4    4    0    0 -0.15174348962E+03  0.11116780914E+03  0.10280326726E+03  0.21436622912E+03  0.00000000000E+00 0. -1.
         21    1    1    2  503  502  0.19666979508E+02 -0.66536958332E+01 -0.12196833453E+02  0.24079545209E+02  0.00000000000E+00 0.  1.
         -2    1    1    2    0  503  0.92852761185E+02 -0.78099912413E+02  0.46016207973E+02  0.12976410511E+03  0.00000000000E+00 0.  1.
<scales pt_clust_5="13000.00000" pt_clust_6="13000.00000" pt_clust_7="13000.00000" pt_clust_8="13000.00000" pt_clust_9="20.76203" pt_clust_10="151.29665"></scales>
<clustering>
<clus scale="   20.762">  2  9  1 -1</clus>
<clus scale="   91.561">  5  6 -1 -1</clus>
<clus scale="   92.837">  7  8 -1 -1</clus>
<clus scale="  117.496">  1  5  2 -1</clus>
<clus scale="  151.297">  2 10  1 -1</clus>
<clus scale="   20.762">  2  5  1 -1</clus>
</clustering>
</event>
<event>
10    2  0.3662914E-006  0.1123484E+03  0.7546771E-02  0.1266986E+00
         -2   -1    0    0    0  501 -0.00000000000E+00  0.00000000000E+00  0.17004177367E+03  0.17004177367E+03  0.00000000000E+00 0.  1.
         21   -1    0    0  503  502  0.00000000000E+00 -0.00000000000E+00 -0.30688614812E+03  0.30688614812E+03  0.00000000000E+00 0. -1.
         23    2    1    2    0    0  0.12212829126E+02  0.11147051105E+02  0.95923304849E+02  0.13310752470E+03  0.90790543422E+02 0.  0.
         23    2    1    2    0    0  0.13778219292E+02  0.30506256356E+02 -0.23308818445E+02  0.11930121104E+03  0.11211158252E+03 0.  0.
        -11    1    4    4    0    0  0.32531596108E+02 -0.31179342108E+01  0.35981390352E+02  0.48607475872E+02  0.00000000000E+00 0. -1.
         11    1    4    4    0    0 -0.18753376815E+02  0.33624190566E+02 -0.59290208796E+02  0.70693735170E+02  0.00000000000E+00 0.  1.
        -13    1    3    3    0    0 -0.29279484158E+02  0.33033983862E+02  0.35713647918E+02  0.56780251232E+02  0.00000000000E+00 0.  1.
         13    1    3    3    0    0  0.41492313284E+02 -0.21886932757E+02  0.60209656931E+02  0.76327273467E+02  0.00000000000E+00 0. -1.
         21    1    1    2  503  501  0.68389853220E+01 -0.19370097139E+02 -0.13493754526E+02  0.24577505867E+02  0.00000000000E+00 0.  1.
         -2    1    1    2    0  502 -0.32830033740E+02 -0.22283210322E+02 -0.19596510633E+03  0.19994168019E+03  0.00000000000E+00 0.  1.
<scales pt_clust_5="13000.00000" pt_clust_6="13000.00000" pt_clust_7="13000.00000" pt_clust_8="13000.00000" pt_clust_9="20.54197" pt_clust_10="45.37359"></scales>
<clustering>
<clus scale="   20.542">  2  9  1 -1</clus>
<clus scale="   45.374">  2 10  1 -1</clus>
<clus scale="   90.791">  7  8 -1 -1</clus>
<clus scale="   91.083">  1  7  2 -1</clus>
<clus scale="  112.112">  5  6 -1 -1</clus>
<clus scale="   20.542">  2  5  1 -1</clus>
</clustering>
</event>
<event>
10    2  0.2421970E-006  0.2701702E+03  0.7546771E-02  0.1115796E+00
         21   -1    0    0  503  502  0.00000000000E+00  0.00000000000E+00  0.66426492354E+03  0.66426492354E+03  0.00000000000E+00 0. -1.
          2   -1    0    0  502    0 -0.00000000000E+00 -0.00000000000E+00 -0.41018539397E+03  0.41018539397E+03  0.00000000000E+00 0. -1.
         23    2    1    2    0    0  0.16232377060E+03  0.82534355806E+00 -0.25098184784E+03  0.31239084697E+03  0.90810052493E+02 0.  0.
         23    2    1    2    0    0  0.44859768420E+02 -0.21092237624E+03  0.89043611875E+02  0.24880091874E+03  0.86443534907E+02 0.  0.
        -13    1    3    3    0    0  0.12352667014E+03 -0.30102146007E+02 -0.21939795413E+03  0.25357531368E+03  0.00000000000E+00 0.  1.
         13    1    3    3    0    0  0.38797100453E+02  0.30927489565E+02 -0.31583893701E+02  0.58815533285E+02  0.00000000000E+00 0. -1.
        -13    1    4    4    0    0  0.24020355464E+02 -0.85052479849E+02  0.82734679367E+02  0.12106167426E+03  0.00000000000E+00 0.  1.
         13    1    4    4    0    0  0.20839412956E+02 -0.12586989639E+03  0.63089325086E+01  0.12773924448E+03  0.00000000000E+00 0. -1.
         21    1    1    2  503  501 -0.20885121739E+02  0.42276032051E+02  0.93704221712E+02  0.10489962995E+03  0.00000000000E+00 0. -1.
          2    1    1    2  501    0 -0.18629841728E+03  0.16782100063E+03  0.32231354382E+03  0.40835892186E+03  0.00000000000E+00 0. -1.
<scales pt_clust_5="13000.00000" pt_clust_6="13000.00000" pt_clust_7="13000.00000" pt_clust_8="13000.00000" pt_clust_9="24.90319" pt_clust_10="262.33041"></scales>
<clustering>
<clus scale="   24.903">  9 10 -1 -1</clus>
<clus scale="   86.444">  7  8 -1 -1</clus>
<clus scale="   90.810">  5  6 -1 -1</clus>
<clus scale="  186.000">  2  5  1 -1</clus>
<clus scale="  262.330">  1  9  2 -1</clus>
<clus scale="  262.330">  1  5  2 -1</clus>
</clustering>
</event>
<event>
10    2  0.2421970E-006  0.9843290E+02  0.7546771E-02  0.1286412E+00
         -3   -1    0    0    0  501 -0.00000000000E+00  0.00000000000E+00  0.53402462883E+02  0.53402462883E+02  0.00000000000E+00 0.  1.
         21   -1    0    0  503  502  0.00000000000E+00 -0.00000000000E+00 -0.41118617398E+03  0.41118617398E+03  0.00000000000E+00 0. -1.
         23    2    1    2    0    0 -0.24699191489E+02  0.19758688979E+02 -0.74796718163E+02  0.12104152971E+03  0.89755484596E+02 0.  0.
         23    2    1    2    0    0  0.25790825247E+02  0.32041242909E+02 -0.85727448129E+02  0.13440386519E+03  0.94991555943E+02 0.  0.
        -11    1    4    4    0    0  0.41719255128E+02  0.45495986108E+02 -0.19138905706E+02  0.64627228875E+02  0.00000000000E+00 0.  1.
         11    1    4    4    0    0 -0.15928429881E+02 -0.13454743200E+02 -0.66588542423E+02  0.69776636313E+02  0.00000000000E+00 0. -1.
        -13    1    3    3    0    0 -0.36883826768E+02 -0.19491443903E+02 -0.67425740241E+02  0.79287852219E+02  0.00000000000E+00 0. -1.
         13    1    3    3    0    0  0.12184635279E+02  0.39250132882E+02 -0.73709779221E+01  0.41753677487E+02  0.00000000000E+00 0.  1.
         21    1    1    2  503  501 -0.31019432781E+01 -0.24200518423E+02 -0.25971757354E+02  0.35634524328E+02  0.00000000000E+00 0.  1.
         -3    1    1    2    0  502  0.20103095204E+01 -0.27599413465E+02 -0.17128778746E+03  0.17350871765E+03  0.00000000000E+00 0.  1.
<scales pt_clust_5="13000.00000" pt_clust_6="13000.00000" pt_clust_7="13000.00000" pt_clust_8="13000.00000" pt_clust_9="24.39851" pt_clust_10="28.21942"></scales>
<clustering>
<clus scale="   24.399">  1  9  2 -1</clus>
<clus scale="   28.219">  2 10  1 -1</clus>
<clus scale="   89.755">  7  8 -1 -1</clus>
<clus scale="   93.390">  1  7  2 -1</clus>
<clus scale="   94.992">  5  6 -1 -1</clus>
<clus scale="   28.219">  2  5  1 -1</clus>
</clustering>
</event>
<event>
10    2  0.2421970E-006  0.1873981E+03  0.7546771E-02  0.1161554E+00
          2   -1    0    0  502    0 -0.00000000000E+00  0.00000000000E+00  0.25345414978E+03  0.25345414978E+03  0.00000000000E+00 0. -1.
         21   -1    0    0  503  502  0.00000000000E+00 -0.00000000000E+00 -0.62181630948E+03  0.62181630948E+03  0.00000000000E+00 0. -1.
         23    2    1    2    0    0  0.90481013714E+02  0.14859903322E+03  0.16839338019E+03  0.25673829567E+03  0.85379947612E+02 0.  0.
         23    2    1    2    0    0  0.46644040669E+02 -0.11803707058E+03 -0.32609126379E+03  0.36179522850E+03  0.91933989840E+02 0.  0.
        -11    1    4    4    0    0 -0.36851811503E+01 -0.60776851483E+02 -0.23624003195E+03  0.24396056840E+03  0.00000000000E+00 0.  1.
         11    1    4    4    0    0  0.50329221820E+02 -0.57260219095E+02 -0.89851231839E+02  0.11783466011E+03  0.00000000000E+00 0. -1.
        -13    1    3    3    0    0  0.27561937771E+02 -0.40876162897E+01  0.16608005789E+02  0.32437553498E+02  0.00000000000E+00 0.  1.
         13    1    3    3    0    0  0.62919075943E+02  0.15268664951E+03  0.15178537440E+03  0.22430074217E+03  0.00000000000E+00 0. -1.
         21    1    1    2  503  501 -0.81103634499E+02 -0.25496180921E+02 -0.91133290925E+02  0.12463198420E+03  0.00000000000E+00 0. -1.
          2    1    1    2  501    0 -0.56021419884E+02 -0.50657817250E+01 -0.11953098518E+03  0.13210495089E+03  0.00000000000E+00 0. -1.
<scales pt_clust_5="13000.00000" pt_clust_6="13000.00000" pt_clust_7="13000.00000" pt_clust_8="13000.00000" pt_clust_9="34.48223" pt_clust_10="146.74610"></scales>
<clustering>
<clus scale="   34.482">  9 10 -1 -1</clus>
<clus scale="   85.380">  7  8 -1 -1</clus>
<clus scale="   91.934">  5  6 -1 -1</clus>
<clus scale="  146.746">  2  9  1 -1</clus>
<clus scale="  184.271">  1  7  2 -1</clus>
<clus scale="  146.746">  2  5  1 -1</clus>
</clustering>
</event>
<event>
10    2  0.2421970E-006  0.1101808E+03  0.7546771E-02  0.1262870E+00
         21   -1    0    0  501  502  0.00000000000E+00  0.00000000000E+00  0.73783748907E+03  0.73783748907E+03  0.00000000000E+00 0. -1.
          2   -1    0    0  503    0 -0.00000000000E+00 -0.00000000000E+00 -0.14411163233E+03  0.14411163233E+03  0.00000000000E+00 0. -1.
         23    2    1    2    0    0 -0.49184726743E+02  0.33926511748E+02 -0.81381161926E+02  0.13028598882E+03  0.82349255138E+02 0.  0.
         23    2    1    2    0    0 -0.75557568235E+02 -0.46562387546E+02  0.20784585833E+03  0.24300157126E+03  0.89290877216E+02 0.  0.
        -13    1    4    4    0    0 -0.60786736711E+02 -0.72793912482E+02  0.14413830721E+03  0.17253936554E+03  0.00000000000E+00 0. -1.
         13    1    4    4    0    0 -0.14770831524E+02  0.26231524936E+02  0.63707551125E+02  0.70462205718E+02  0.00000000000E+00 0.  1.
        -13    1    3    3    0    0 -0.60222694747E+02  0.52057495427E+02 -0.70956759478E+02  0.10663778649E+03  0.00000000000E+00 0. -1.
         13    1    3    3    0    0  0.11037968004E+02 -0.18130983678E+02 -0.10424402448E+02  0.23648202325E+02  0.00000000000E+00 0.  1.
         21    1    1    2  503  502  0.30907012081E+02  0.48154703346E+02  0.40092099197E+02  0.69867698317E+02  0.00000000000E+00 0. -1.
          2    1    1    2  501    0  0.93835282898E+02 -0.35518827548E+02  0.42716906114E+03  0.43879386301E+03  0.00000000000E+00 0. -1.
<scales pt_clust_5="13000.00000" pt_clust_6="13000.00000" pt_clust_7="13000.00000" pt_clust_8="13000.00000" pt_clust_9="57.21992" pt_clust_10="100.89748"></scales>
<clustering>
<clus scale="   57.220">  2  9  1 -1</clus>
<clus scale="   82.349">  7  8 -1 -1</clus>
<clus scale="   89.291">  5  6 -1 -1</clus>
<clus scale="  100.897">  1 10  2 -1</clus>
<clus scale="  104.634">  2  7  1 -1</clus>
<clus scale="  100.897">  1  5  2 -1</clus>
</clustering>
</event>
<event>
10    2  0.2421970E-006  0.1063977E+03  0.7546771E-02  0.1271440E+00
          4   -1    0    0  503    0 -0.00000000000E+00  0.00000000000E+00  0.17319466929E+03  0.17319466929E+03  0.00000000000E+00 0. -1.
         21   -1    0    0  501  502  0.00000000000E+00 -0.00000000000E+00 -0.23935551582E+03  0.23935551582E+03  0.00000000000E+00 0. -1.
         23    2    1    2    0    0 -0.64685707690E+02 -0.53458584380E+00  0.66514846621E+02  0.12364344084E+03  0.81724837598E+02 0.  0.
         23    2    1    2    0    0  0.41285615527E+02 -0.16535806328E+02  0.36059062881E+02  0.10770394279E+03  0.91224713407E+02 0.  0.
        -11    1    4    4    0    0  0.61832979623E+02 -0.20698547661E+02  0.50306704660E+02  0.82356006327E+02  0.00000000000E+00 0. -1.
         11    1    4    4    0    0 -0.20547364096E+02  0.41627413327E+01 -0.14247641779E+02  0.25347936463E+02  0.00000000000E+00 0.  1.
        -11    1    3    3    0    0  0.74838231994E+01 -0.26490383623E+02  0.17002833961E+02  0.32354974839E+02  0.00000000000E+00 0. -1.
         11    1    3    3    0    0 -0.72169530889E+02  0.25955797779E+02  0.49512012660E+02  0.91288466000E+02  0.00000000000E+00 0.  1.
         21    1    1    2  503  502  0.36203937420E+02  0.70729474696E+00 -0.56833193368E+02  0.67388702458E+02  0.00000000000E+00 0.  1.
          4    1    1    2  501    0 -0.12803845258E+02  0.16363097425E+02 -0.11190156266E+03  0.11381409903E+03  0.00000000000E+00 0. -1.
<scales pt_clust_5="13000.00000" pt_clust_6="13000.00000" pt_clust_7="13000.00000" pt_clust_8="13000.00000" pt_clust_9="31.16817" pt_clust_10="20.77714"></scales>
<clustering>
<clus scale="   20.777">  2 10  1 -1</clus>
<clus scale="   31.168">  2  9  1 -1</clus>
<clus scale="   81.725">  7  8 -1 -1</clus>
<clus scale="   91.225">  5  6 -1 -1</clus>
<clus scale="   98.374">  1  7  2 -1</clus>
<clus scale="   20.777">  2  5  1 -1</clus>
</clustering>
</event>
<event>
10    2  0.2421970E-006  0.1020262E+03  0.7546771E-02  0.1277391E+00
         21   -1    0    0  503  502  0.00000000000E+00  0.00000000000E+00  0.89175980324E+02  0.89175980324E+02  0.00000000000E+00 0. -1.
          3   -1    0    0  502    0 -0.00000000000E+00 -0.00000000000E+00 -0.55650134040E+03  0.55650134040E+03  0.00000000000E+00 0. -1.
         23    2    1    2    0    0  0.10812257711E+02  0.31668021628E+02 -0.35627854108E+03  0.36958902269E+03  0.92422282758E+02 0.  0.
         23    2    1    2    0    0  0.12883370841E+02 -0.56534923726E+02 -0.80143935125E+02  0.13722867443E+03  0.95112984940E+02 0.  0.
        -11    1    3    3    0    0 -0.11268928096E+02  0.60745657381E+02 -0.22423666335E+03  0.23259214265E+03  0.00000000000E+00 0.  1.
         11    1    3    3    0    0  0.22081185807E+02 -0.29077635753E+02 -0.13204187772E+03  0.13699688004E+03  0.00000000000E+00 0. -1.
        -13    1    4    4    0    0 -0.36591862214E+02 -0.39663709242E+02 -0.20019671575E+02  0.57558330945E+02  0.00000000000E+00 0.  1.
         13    1    4    4    0    0  0.49475233056E+02 -0.16871214484E+02 -0.60124263550E+02  0.79670343488E+02  0.00000000000E+00 0. -1.
         21    1    1    2  503  501  0.47057465526E+02  0.35441613138E+02 -0.32542696321E+02  0.67301857979E+02  0.00000000000E+00 0.  1.
          3    1    1    2  501    0 -0.70753094079E+02 -0.10574711039E+02  0.16398124533E+01  0.71557765617E+02  0.00000000000E+00 0. -1.
<scales pt_clust_5="13000.00000" pt_clust_6="13000.00000" pt_clust_7="13000.00000" pt_clust_8="13000.00000" pt_clust_9="58.91106" pt_clust_10="47.36149"></scales>
<clustering>
<clus scale="   58.911">  1  9  2 -1</clus>
<clus scale="   47.361">  1 10  2 -1</clus>
<clus scale="   92.422">  5  6 -1 -1</clus>
<clus scale="   95.113">  7  8 -1 -1</clus>
<clus scale="   99.523">  2  5  1 -1</clus>
<clus scale="   58.911">  1  5  2 -1</clus>
</clustering>
</event>
<event>
10    2  0.2421970E-006  0.9768097E+02  0.7546771E-02  0.1285406E+00
          2   -1    0    0  503    0 -0.00000000000E+00  0.00000000000E+00  0.25869435814E+03  0.25869435814E+03  0.00000000000E+00 0. -1.
         21   -1    0    0  501  502  0.00000000000E+00 -0.00000000000E+00 -0.31083608704E+03  0.31083608704E+03  0.00000000000E+00 0. -1.
         23    2    1    2    0    0  0.20813345107E+02  0.19329643654E+02  0.15854322396E+03  0.18495081754E+03  0.90906658654E+02 0.  0.
         23    2    1    2    0    0 -0.42764574940E+02 -0.33709476440E+02  0.49936954830E+02  0.11690406500E+03  0.90596486048E+02 0.  0.
        -13    1    3    3    0    0  0.51343230425E+02  0.30010320233E+02  0.77474684925E+02  0.97668180259E+02  0.00000000000E+00 0.  1.
         13    1    3    3    0    0 -0.30529885318E+02 -0.10680676580E+02  0.81068539033E+02  0.87282637281E+02  0.00000000000E+00 0. -1.
        -13    1    4    4    0    0 -0.42226067699E+00  0.20391546693E+02  0.43325105106E+02  0.47885887410E+02  0.00000000000E+00 0.  1.
         13    1    4    4    0    0 -0.42342314263E+02 -0.54101023132E+02  0.66118497240E+01  0.69018177590E+02  0.00000000000E+00 0. -1.
         21    1    1    2  503  502 -0.15561024903E+02  0.16729467145E+02 -0.80835786138E+02  0.84002648099E+02  0.00000000000E+00 0.  1.
          2    1    1    2  501    0  0.37512254736E+02 -0.23496343588E+01 -0.17978612155E+03  0.18367291455E+03  0.00000000000E+00 0. -1.
<scales pt_clust_5="13000.00000" pt_clust_6="13000.00000" pt_clust_7="13000.00000" pt_clust_8="13000.00000" pt_clust_9="22.84777" pt_clust_10="27.41787"></scales>
<clustering>
<clus scale="   22.848">  2  9  1 -1</clus>
<clus scale="   27.418">  2 10  1 -1</clus>
<clus scale="   90.596">  7  8 -1 -1</clus>
<clus scale="   90.907">  5  6 -1 -1</clus>
<clus scale="   97.392">  2  7  1 -1</clus>
<clus scale="   22.848">  2  5  1 -1</clus>
</clustering>
</event>
<event>
10    2  0.2421970E-006  0.9888933E+02  0.7546771E-02  0.1287168E+00
          1   -1    0    0  503    0 -0.00000000000E+00  0.00000000000E+00  0.56092466906E+03  0.56092466906E+03  0.00000000000E+00 0. -1.
         21   -1    0    0  501  502  0.00000000000E+00 -0.00000000000E+00 -0.45828688327E+02  0.45828688327E+02  0.00000000000E+00 0. -1.
         23    2    1    2    0    0  0.44058380803E+02 -0.54075208021E+02  0.16320369213E+03  0.20014018949E+03  0.92495304106E+02 0.  0.
         23    2    1    2    0    0  0.27813680088E+02  0.17450872222E+02  0.10365058871E+03  0.13726931756E+03  0.83793121806E+02 0.  0.
        -11    1    4    4    0    0  0.39861448310E+02 -0.23301822146E+02  0.42173996953E+02  0.62534438478E+02  0.00000000000E+00 0. -1.
         11    1    4    4    0    0 -0.12047768222E+02  0.40752694368E+02  0.61476591758E+02  0.74734879083E+02  0.00000000000E+00 0.  1.
        -13    1    3    3    0    0  0.56327890260E+02 -0.34696909876E+02  0.16436026506E+03  0.17717506457E+03  0.00000000000E+00 0.  1.
         13    1    3    3    0    0 -0.12269509457E+02 -0.19378298146E+02 -0.11565729308E+01  0.22965124913E+02  0.00000000000E+00 0. -1.
         21    1    1    2  503  502 -0.63697472758E+02  0.85389881840E+01  0.10469144185E+03  0.12284372329E+03  0.00000000000E+00 0. -1.
          1    1    1    2  501    0 -0.81745881328E+01  0.28085347616E+02  0.14355025804E+03  0.14650012705E+03  0.00000000000E+00 0. -1.
<scales pt_clust_5="13000.00000" pt_clust_6="13000.00000" pt_clust_7="13000.00000" pt_clust_8="13000.00000" pt_clust_9="66.91309" pt_clust_10="29.25084"></scales>
<clustering>
<clus scale="   29.251">  2 10  1 -1</clus>
<clus scale="   66.913">  1  9  2 -1</clus>
<clus scale="   83.793">  5  6 -1 -1</clus>
<clus scale="   90.802">  2  5  1 -1</clus>
<clus scale="   92.495">  7  8 -1 -1</clus>
<clus scale="   29.251">  2  5  1 -1</clus>
</clustering>
</event>
<event>
10    2  0.2421970E-006  0.9509821E+02  0.7546771E-02  0.1295310E+00
         -2   -1    0    0    0  501 -0.00000000000E+00  0.00000000000E+00  0.11943451082E+03  0.11943451082E+03  0.00000000000E+00 0.  1.
         21   -1    0    0  503  502  0.00000000000E+00 -0.00000000000E+00 -0.20870559353E+03  0.20870559353E+03  0.00000000000E+00 0. -1.
         23    2    1    2    0    0 -0.13128965391E+02 -0.60495219272E+01  0.42141593484E+02  0.10416752979E+03  0.94159406929E+02 0.  0.
         23    2    1    2    0    0  0.11756546043E+02 -0.37750545255E+02 -0.88569396669E+02  0.13007261818E+03  0.86666186783E+02 0.  0.
        -11    1    3    3    0    0 -0.13170602123E+02  0.37532124727E+02  0.45526227802E+02  0.60454632285E+02  0.00000000000E+00 0.  1.
         11    1    3    3    0    0  0.41636732442E-01 -0.43581646654E+02 -0.33846343180E+01  0.43712897504E+02  0.00000000000E+00 0. -1.
        -13    1    4    4    0    0 -0.32081344823E+02 -0.37061181149E+00 -0.12008407488E+02  0.34257143623E+02  0.00000000000E+00 0.  1.
         13    1    4    4    0    0  0.43837890867E+02 -0.37379933443E+02 -0.76560989180E+02  0.95815474555E+02  0.00000000000E+00 0. -1.
         21    1    1    2  503  501 -0.15232765791E+02 -0.15639055792E+02 -0.10568091861E+02  0.24254933216E+02  0.00000000000E+00 0.  1.
         -2    1    1    2    0  502  0.16605185138E+02  0.59439122974E+02 -0.32275187668E+02  0.69645023171E+02  0.00000000000E+00 0.  1.
<scales pt_clust_5="13000.00000" pt_clust_6="13000.00000" pt_clust_7="13000.00000" pt_clust_8="13000.00000" pt_clust_9="21.83156" pt_clust_10="56.67918"></scales>
<clustering>
<clus scale="   21.832">  2  9  1 -1</clus>
<clus scale="   56.679">  2 10  1 -1</clus>
<clus scale="   86.666">  7  8 -1 -1</clus>
<clus scale="   87.685">  2  7  1 -1</clus>
<clus scale="   94.159">  5  6 -1 -1</clus>
<clus scale="   21.832">  2  5  1 -1</clus>
</clustering>
</event>
<event>
10    2  0.2698231E-006  0.1799945E+03  0.7546771E-02  0.1185361E+00
         21   -1    0    0  501  502  0.00000000000E+00  0.00000000000E+00  0.13593484517E+04  0.13593484517E+04  0.00000000000E+00 0. -1.
          1   -1    0    0  503    0 -0.00000000000E+00 -0.00000000000E+00 -0.55509558140E+03  0.55509558140E+03  0.00000000000E+00 0. -1.
         23    2    1    2    0    0 -0.34466301095E+02  0.72358563151E+02 -0.16538183878E+03  0.20493483237E+03  0.90683214257E+02 0.  0.
         23    2    1    2    0    0  0.12548349242E+03  0.14559903451E+02 -0.32365057368E+03  0.35915485887E+03  0.91018795558E+02 0.  0.
        -13    1    3    3    0    0 -0.17602661307E+02 -0.18162332948E+02 -0.59277532336E+02  0.64448040025E+02  0.00000000000E+00 0.  1.
         13    1    3    3    0    0 -0.16863639788E+02  0.90520896100E+02 -0.10610430644E+03  0.14048679234E+03  0.00000000000E+00 0. -1.
        -13    1    4    4    0    0  0.53317153399E+02  0.12482503155E+02 -0.43740336924E+02  0.70083869798E+02  0.00000000000E+00 0.  1.
         13    1    4    4    0    0  0.72166339019E+02  0.20774002959E+01 -0.27991023676E+03  0.28907098907E+03  0.00000000000E+00 0. -1.
         21    1    1    2  503  502 -0.19373777213E+03  0.62057001727E+02  0.58683599626E+03  0.62109732114E+03  0.00000000000E+00 0. -1.
          1    1    1    2  501    0  0.10272058081E+03 -0.14897546833E+03  0.70644928654E+03  0.72925702077E+03  0.00000000000E+00 0. -1.
<scales pt_clust_5="13000.00000" pt_clust_6="13000.00000" pt_clust_7="13000.00000" pt_clust_8="13000.00000" pt_clust_9="179.99453" pt_clust_10="13000.00000"></scales>
<clustering>
<clus scale="   90.683">  5  6 -1 -1</clus>
<clus scale="   91.019">  7  8 -1 -1</clus>
<clus scale="  121.025">  2  5  1 -1</clus>
<clus scale="  153.868">  2  7  1 -1</clus>
<clus scale="  179.995">  2  9  1 -1</clus>
<clus scale="  179.995">  1  5  2 -1</clus>
</clustering>
</event>
<event>
10    2  0.2421970E-006  0.1192445E+03  0.7546771E-02  0.1244662E+00
         21   -1    0    0  503  502  0.00000000000E+00  0.00000000000E+00  0.18487765223E+03  0.18487765223E+03  0.00000000000E+00 0. -1.
         -2   -1    0    0    0  501 -0.00000000000E+00 -0.00000000000E+00 -0.20379814391E+03  0.20379814391E+03  0.00000000000E+00 0.  1.
         23    2    1    2    0    0  0.35971804252E+02  0.84749806075E+02 -0.65380324649E+02  0.14569732729E+03  0.92068583114E+02 0.  0.
         23    2    1    2    0    0  0.63394574982E+02 -0.59441512362E+02  0.18898749789E+02  0.12730835105E+03  0.91093841579E+02 0.  0.
        -13    1    4    4    0    0 -0.10467534097E+02 -0.41250975024E+02  0.27628491227E+02  0.50739981652E+02  0.00000000000E+00 0. -1.
         13    1    4    4    0    0  0.73862109079E+02 -0.18190537338E+02 -0.87297414379E+01  0.76568369395E+02  0.00000000000E+00 0.  1.
        -13    1    3    3    0    0  0.15134187496E+02  0.89111388719E+02 -0.79315254176E+02  0.12025303645E+03  0.00000000000E+00 0.  1.
         13    1    3    3    0    0  0.20837616757E+02 -0.43615826437E+01  0.13934929527E+02  0.25444290837E+02  0.00000000000E+00 0. -1.
         21    1    1    2  503  501 -0.81921930124E+02 -0.12745611153E+02  0.29048772806E+01  0.82958372398E+02  0.00000000000E+00 0.  1.
         -2    1    1    2    0  502 -0.17444449110E+02 -0.12562682561E+02  0.24656205898E+02  0.32711745400E+02  0.00000000000E+00 0.  1.
<scales pt_clust_5="13000.00000" pt_clust_6="13000.00000" pt_clust_7="13000.00000" pt_clust_8="13000.00000" pt_clust_9="88.21671" pt_clust_10="21.49720"></scales>
<clustering>
<clus scale="   21.497">  1 10  2 -1</clus>
<clus scale="   88.217">  1  9  2 -1</clus>
<clus scale="   91.094">  5  6 -1 -1</clus>
<clus scale="   92.069">  7  8 -1 -1</clus>
<clus scale="  118.493">  1  5  2 -1</clus>
<clus scale="   21.497">  1  5  2 -1</clus>
</clustering>
</event>
<event>
10    2  0.2421970E-006  0.1345424E+03  0.7546771E-02  0.1221476E+00
          2   -1    0    0  503    0 -0.00000000000E+00  0.00000000000E+00  0.31056840290E+03  0.31056840290E+03  0.00000000000E+00 0. -1.
         21   -1    0    0  501  502  0.00000000000E+00 -0.00000000000E+00 -0.15082289306E+03  0.15082289306E+03  0.00000000000E+00 0. -1.
         23    2    1    2    0    0 -0.79992258082E+02 -0.13817929698E+02  0.13709152666E+03  0.18306399365E+03  0.90158984872E+02 0.  0.
         23    2    1    2    0    0  0.15806175086E+03  0.28793609994E+02  0.37175705202E+02  0.18672757645E+03  0.87593182877E+02 0.  0.
        -13    1    4    4    0    0  0.13477589883E+03  0.29654859884E+02  0.63210602295E+02  0.15178779220E+03  0.00000000000E+00 0. -1.
         13    1    4    4    0    0  0.23285852034E+02 -0.86124988965E+00 -0.26034897093E+02  0.34939784243E+02  0.00000000000E+00 0.  1.
        -13    1    3    3    0    0  0.13765148319E+02 -0.21430211274E+02  0.17462738297E+02  0.30881717769E+02  0.00000000000E+00 0.  1.
         13    1    3    3    0    0 -0.93757406401E+02  0.76122815764E+01  0.11962878837E+03  0.15218227588E+03  0.00000000000E+00 0. -1.
         21    1    1    2  503  502 -0.48107650439E+02  0.16515861780E+01 -0.26928779232E+02  0.55156440409E+02  0.00000000000E+00 0. -1.
          2    1    1    2  501    0 -0.29961842339E+02 -0.16627266474E+02  0.12407057206E+02  0.36443285462E+02  0.00000000000E+00 0. -1.
<scales pt_clust_5="13000.00000" pt_clust_6="13000.00000" pt_clust_7="13000.00000" pt_clust_8="13000.00000" pt_clust_9="57.06042" pt_clust_10="34.26628"></scales>
<clustering>
<clus scale="   34.266">  2 10  1 -1</clus>
<clus scale="   57.060">  2  9  1 -1</clus>
<clus scale="   87.593">  5  6 -1 -1</clus>
<clus scale="   90.159">  7  8 -1 -1</clus>
<clus scale="  132.837">  2  5  1 -1</clus>
<clus scale="   34.266">  2  5  1 -1</clus>
</clustering>
</event>
<event>
10    2  0.2421970E-006  0.9602909E+02  0.7546771E-02  0.1289388E+00
         21   -1    0    0  501  502  0.00000000000E+00  0.00000000000E+00  0.59116072044E+03  0.59116072044E+03  0.00000000000E+00 0.  1.
          1   -1    0    0  503    0 -0.00000000000E+00 -0.00000000000E+00 -0.33183339783E+02  0.33183339783E+02  0.00000000000E+00 0. -1.
         23    2    1    2    0    0 -0.22850131012E+01 -0.26942267387E+02  0.10015712375E+03  0.13871305673E+03  0.92080158627E+02 0.  0.
         23    2    1    2    0    0  0.30136889759E+02  0.19659349101E+02  0.20170443473E+03  0.22423732245E+03  0.91120665367E+02 0.  0.
        -11    1    4    4    0    0 -0.60047476113E+01 -0.24315352618E+02  0.13146502075E+03  0.13382953728E+03  0.00000000000E+00 0.  1.
         11    1    4    4    0    0  0.36141637370E+02  0.43974701719E+02  0.70239413978E+02  0.90407785169E+02  0.00000000000E+00 0. -1.
        -13    1    3    3    0    0  0.72876980342E+01  0.20614295657E+02 -0.54183520476E+01  0.22525946528E+02  0.00000000000E+00 0. -1.
         13    1    3    3    0    0 -0.95727111354E+01 -0.47556563044E+02  0.10557547580E+03  0.11618711020E+03  0.00000000000E+00 0.  1.
         21    1    1    2  503  502 -0.19803312865E+02 -0.16756268549E+02  0.10441149756E+03  0.10758580092E+03  0.00000000000E+00 0.  1.
          1    1    1    2  501    0 -0.80485637927E+01  0.24039186834E+02  0.15170432461E+03  0.15380788012E+03  0.00000000000E+00 0. -1.
<scales pt_clust_5="13000.00000" pt_clust_6="13000.00000" pt_clust_7="13000.00000" pt_clust_8="13000.00000" pt_clust_9="24.34757" pt_clust_10="25.35078"></scales>
<clustering>
<clus scale="   25.351">  1 10  2 -1</clus>
<clus scale="   24.348">  1  9  2 -1</clus>
<clus scale="   91.121">  5  6 -1 -1</clus>
<clus scale="   92.080">  7  8 -1 -1</clus>
<clus scale="   95.109">  1  5  2 -1</clus>
<clus scale="   25.351">  1  5  2 -1</clus>
</clustering>
</event>
<event>
10    2  0.2421970E-006  0.2036296E+03  0.7546771E-02  0.1146873E+00
         21   -1    0    0  501  502  0.00000000000E+00  0.00000000000E+00  0.15363894331E+03  0.15363894331E+03  0.00000000000E+00 0. -1.
          2   -1    0    0  503    0 -0.00000000000E+00 -0.00000000000E+00 -0.40625410721E+03  0.40625410721E+03  0.00000000000E+00 0. -1.
         23    2    1    2    0    0 -0.55437867939E+02 -0.18406589898E+03 -0.24142707744E+03  0.32286876459E+03  0.94887264978E+02 0.  0.
         23    2    1    2    0    0  0.56113371500E+02  0.14371736215E+03 -0.30833201816E+01  0.18027654908E+03  0.93202664333E+02 0.  0.
        -11    1    3    3    0    0 -0.35819086351E+02 -0.15420609945E+02 -0.19956219801E+02  0.43806995638E+02  0.00000000000E+00 0.  1.
         11    1    3    3    0    0 -0.19618781588E+02 -0.16864528904E+03 -0.22147085764E+03  0.27906176895E+03  0.00000000000E+00 0. -1.
        -13    1    4    4    0    0 -0.23167072514E+01  0.26754983686E+02  0.34983440595E+02  0.44102578160E+02  0.00000000000E+00 0. -1.
         13    1    4    4    0    0  0.58430078751E+02  0.11696237847E+03 -0.38066760776E+02  0.13617397092E+03  0.00000000000E+00 0.  1.
         21    1    1    2  503  502 -0.10669219917E+02  0.21424955928E+02  0.12533034249E+02  0.27017363632E+02  0.00000000000E+00 0. -1.
          2    1    1    2  501    0  0.99937163559E+01  0.18923580905E+02 -0.20637800529E+02  0.29730373215E+02  0.00000000000E+00 0. -1.
<scales pt_clust_5="13000.00000" pt_clust_6="13000.00000" pt_clust_7="13000.00000" pt_clust_8="13000.00000" pt_clust_9="25.69406" pt_clust_10="21.40039"></scales>
<clustering>
<clus scale="   21.400">  1 10  2 -1</clus>
<clus scale="   25.694">  1  9  2 -1</clus>
<clus scale="   93.203">  7  8 -1 -1</clus>
<clus scale="   94.887">  5  6 -1 -1</clus>
<clus scale="  202.850">  1  7  2 -1</clus>
<clus scale="   21.400">  1  5  2 -1</clus>
</clustering>
</event>
<event>
10    2  0.2421970E-006  0.1073058E+03  0.7546771E-02  0.1266458E+00
          1   -1    0    0  503    0 -0.00000000000E+00  0.00000000000E+00  0.80814478076E+03  0.80814478076E+03  0.00000000000E+00 0. -1.
         21   -1    0    0  501  502  0.00000000000E+00 -0.00000000000E+00 -0.12022208619E+03  0.12022208619E+03  0.00000000000E+00 0.  1.
         23    2    1    2    0    0 -0.55646870833E+02 -0.14602463821E+02  0.57636167198E+03  0.58637654045E+03  0.91295476767E+02 0.  0.
         23    2    1    2    0    0  0.33096665640E+02  0.59635487813E+02  0.10590474603E+03  0.15440955383E+03  0.89301256421E+02 0.  0.
        -11    1    4    4    0    0  0.67280619399E+01  0.22957583788E+02  0.10657988935E+03  0.10923181901E+03  0.00000000000E+00 0. -1.
         11    1    4    4    0    0  0.26368603700E+02  0.36677904025E+02 -0.67514331810E+00  0.45177734818E+02  0.00000000000E+00 0.  1.
        -11    1    3    3    0    0  0.92725058763E+01 -0.37026868399E+02  0.16822687401E+03  0.17250289705E+03  0.00000000000E+00 0.  1.
         11    1    3    3    0    0 -0.64919376710E+02  0.22424404578E+02  0.40813479796E+03  0.41387364340E+03  0.00000000000E+00 0. -1.
         21    1    1    2  503  502  0.36302694034E+02 -0.15078266627E+02  0.89358450909E+02  0.97622602237E+02  0.00000000000E+00 0. -1.
          1    1    1    2  501    0 -0.13752488840E+02 -0.29954757365E+02 -0.83702174347E+02  0.89958170438E+02  0.00000000000E+00 0. -1.
<scales pt_clust_5="13000.00000" pt_clust_6="13000.00000" pt_clust_7="13000.00000" pt_clust_8="13000.00000" pt_clust_9="39.37129" pt_clust_10="32.96086"></scales>
<clustering>
<clus scale="   32.961">  2 10  1 -1</clus>
<clus scale="   39.371">  2  9  1 -1</clus>
<clus scale="   89.301">  5  6 -1 -1</clus>
<clus scale="   91.295">  7  8 -1 -1</clus>
<clus scale="  105.614">  2  5  1 -1</clus>
<clus scale="   32.961">  2  5  1 -1</clus>
</clustering>
</event>
<event>
10    2  0.2421970E-006  0.1695182E+03  0.7546771E-02  0.1178563E+00
         -2   -1    0    0    0  501 -0.00000000000E+00  0.00000000000E+00  0.84774006661E+03  0.84774006661E+03  0.00000000000E+00 0.  1.
         21   -1    0    0  501  502  0.00000000000E+00 -0.00000000000E+00 -0.54585995060E+02  0.54585995060E+02  0.00000000000E+00 0. -1.
         23    2    1    2    0    0  0.12974401731E+02  0.11990096638E+03  0.30960378972E+03  0.34459769965E+03  0.91370078031E+02 0.  0.
         23    2    1    2    0    0 -0.20858397265E+02 -0.17463476346E+03  0.32434794672E+03  0.38046694445E+03  0.92850050817E+02 0.  0.
        -13    1    3    3    0    0  0.20745935001E+02  0.25478910659E+02  0.18590339513E+03  0.18878464193E+03  0.00000000000E+00 0.  1.
         13    1    3    3    0    0 -0.77715332691E+01  0.94422055724E+02  0.12370039459E+03  0.15581305773E+03  0.00000000000E+00 0. -1.
        -13    1    4    4    0    0 -0.47926823944E+02 -0.43958948036E+02  0.11777930687E+03  0.13454120073E+03  0.00000000000E+00 0.  1.
         13    1    4    4    0    0  0.27068426679E+02 -0.13067581543E+03  0.20656863985E+03  0.24592574373E+03  0.00000000000E+00 0. -1.
         21    1    1    2  503  502  0.26424805990E+02  0.17346833961E+02  0.40107171606E+02  0.51066312128E+02  0.00000000000E+00 0. -1.
         -2    1    1    2    0  503 -0.18540810457E+02  0.37386963120E+02  0.11909516351E+03  0.12619510543E+03  0.00000000000E+00 0.  1.
<scales pt_clust_5="13000.00000" pt_clust_6="13000.00000" pt_clust_7="13000.00000" pt_clust_8="13000.00000" pt_clust_9="31.60986" pt_clust_10="42.06783"></scales>
<clustering>
<clus scale="   31.610">  2  9  1 -1</clus>
<clus scale="   42.068">  2 10  1 -1</clus>
<clus scale="   91.370">  5  6 -1 -1</clus>
<clus scale="   92.850">  7  8 -1 -1</clus>
<clus scale="  168.712">  1  5  2 -1</clus>
<clus scale="   31.610">  2  5  1 -1</clus>
</clustering>
</event>
<event>
10    2  0.2421970E-006  0.1528658E+03  0.7546771E-02  0.1197436E+00
          2   -1    0    0  503    0 -0.00000000000E+00  0.00000000000E+00  0.40269296686E+03  0.40269296686E+03  0.00000000000E+00 0. -1.
         21   -1    0    0  501  502  0.00000000000E+00 -0.00000000000E+00 -0.18467959758E+03  0.18467959758E+03  0.00000000000E+00 0.  1.
         23    2    1    2    0    0  0.10333671210E+03 -0.78551955865E+02  0.30243395033E+03  0.34089751864E+03  0.88859091073E+02 0.  0.
         23    2    1    2    0    0 -0.50198986131E+02  0.98958677492E+02 -0.19426297806E+02  0.14191662973E+03  0.86314487130E+02 0.  0.
        -11    1    3    3    0    0  0.10509693354E+02  0.18084107706E+02  0.64744008117E+02  0.68038777127E+02  0.00000000000E+00 0.  1.
         11    1    3    3    0    0  0.92827018747E+02 -0.96636063571E+02  0.23768994221E+03  0.27285874151E+03  0.00000000000E+00 0. -1.
        -11    1    4    4    0    0 -0.67801417347E+02  0.74570628446E+02 -0.36667039407E+02  0.10724869510E+03  0.00000000000E+00 0.  1.
         11    1    4    4    0    0  0.17602431215E+02  0.24388049046E+02  0.17240741601E+02  0.34667934636E+02  0.00000000000E+00 0. -1.
         21    1    1    2  503  502  0.24517767055E+01 -0.24963931304E+02 -0.12761725445E+02  0.28143750843E+02  0.00000000000E+00 0.  1.
          2    1    1    2  501    0 -0.55589502675E+02  0.45572096774E+01 -0.52232557799E+02  0.76414665228E+02  0.00000000000E+00 0. -1.
<scales pt_clust_5="13000.00000" pt_clust_6="13000.00000" pt_clust_7="13000.00000" pt_clust_8="13000.00000" pt_clust_9="25.08404" pt_clust_10="54.87808"></scales>
<clustering>
<clus scale="   25.084">  2  9  1 -1</clus>
<clus scale="   54.878">  2 10  1 -1</clus>
<clus scale="   86.314">  7  8 -1 -1</clus>
<clus scale="   88.859">  5  6 -1 -1</clus>
<clus scale="  151.401">  2  7  1 -1</clus>
<clus scale="   25.084">  2  5  1 -1</clus>
</clustering>
</event>
<event>
10    2  0.2421970E-006  0.2138305E+03  0.7546771E-02  0.1138789E+00
          1   -1    0    0  502    0 -0.00000000000E+00  0.00000000000E+00  0.76822756505E+03  0.76822756505E+03  0.00000000000E+00 0. -1.
         21   -1    0    0  503  502  0.00000000000E+00 -0.00000000000E+00 -0.19877792212E+03  0.19877792212E+03  0.00000000000E+00 0. -1.
         23    2    1    2    0    0  0.35512440986E+02  0.13424316388E+03  0.20059483501E+03  0.26140393925E+03  0.93868903856E+02 0.  0.
         23    2    1    2    0    0 -0.61393634570E+02 -0.24808655476E+03  0.47224001420E+03  0.54465721318E+03  0.91239968445E+02 0.  0.
        -11    1    4    4    0    0 -0.31638554381E+01 -0.16413365638E+03  0.33989044562E+03  0.37745911323E+03  0.00000000000E+00 0. -1.
         11    1    4    4    0    0 -0.58229779131E+02 -0.83952898377E+02  0.13234956859E+03  0.16719809996E+03  0.00000000000E+00 0.  1.
        -13    1    3    3    0    0  0.38704975984E+02  0.14408658008E+02  0.23400528452E+02  0.47468614087E+02  0.00000000000E+00 0.  1.
         13    1    3    3    0    0 -0.31925349986E+01  0.11983450587E+03  0.17719430655E+03  0.21393532516E+03  0.00000000000E+00 0. -1.
         21    1    1    2  503  501 -0.10695281613E+02  0.27318541042E+02 -0.26971230982E+02  0.39851462133E+02  0.00000000000E+00 0. -1.
          1    1    1    2  501    0  0.36576475197E+02  0.86524849833E+02 -0.76413975298E+02  0.12109287261E+03  0.00000000000E+00 0. -1.
<scales pt_clust_5="13000.00000" pt_clust_6="13000.00000" pt_clust_7="13000.00000" pt_clust_8="13000.00000" pt_clust_9="22.24470" pt_clust_10="123.34739"></scales>
<clustering>
<clus scale="   22.245">  9 10 -1 -1</clus>
<clus scale="   91.240">  5  6 -1 -1</clus>
<clus scale="   93.869">  7  8 -1 -1</clus>
<clus scale="  123.347">  2  9  1 -1</clus>
<clus scale="  212.690">  2  5  1 -1</clus>
<clus scale="  123.347">  2  5  1 -1</clus>
</clustering>
</event>
<event>
10    2  0.2421970E-006  0.1296235E+03  0.7546771E-02  0.1228936E+00
         -4   -1    0    0    0  501 -0.00000000000E+00  0.00000000000E+00  0.51753430075E+02  0.51753430075E+02  0.00000000000E+00 0.  1.
         21   -1    0    0  501  502  0.00000000000E+00 -0.00000000000E+00 -0.75113963863E+03  0.75113963863E+03  0.00000000000E+00 0. -1.
         23    2    1    2    0    0 -0.31524068169E+02  0.44989731503E+02 -0.16315819668E+03  0.19627811537E+03  0.94269075603E+02 0.  0.
         23    2    1    2    0    0  0.11993224729E+03 -0.76048678955E+02 -0.23185737662E+03  0.28667656627E+03  0.90876097199E+02 0.  0.
        -13    1    4    4    0    0  0.64503929478E+02 -0.65347511087E+02 -0.70604139910E+02  0.11582745225E+03  0.00000000000E+00 0.  1.
         13    1    4    4    0    0  0.55428317816E+02 -0.10701167868E+02 -0.16125323671E+03  0.17084911401E+03  0.00000000000E+00 0. -1.
        -13    1    3    3    0    0 -0.62921154771E+02  0.40598289958E+02 -0.93846849162E+02  0.12006050126E+03  0.00000000000E+00 0.  1.
         13    1    3    3    0    0  0.31397086603E+02  0.43914415452E+01 -0.69311347517E+02  0.76217614110E+02  0.00000000000E+00 0. -1.
         21    1    1    2  503  502 -0.38555681324E+02 -0.78685951137E+00 -0.14136374049E+03  0.14652940604E+03  0.00000000000E+00 0. -1.
         -4    1    1    2    0  503 -0.49852497801E+02  0.31845806963E+02 -0.16300689476E+03  0.17340898102E+03  0.00000000000E+00 0.  1.
<scales pt_clust_5="13000.00000" pt_clust_6="13000.00000" pt_clust_7="13000.00000" pt_clust_8="13000.00000" pt_clust_9="24.73373" pt_clust_10="98.58543"></scales>
<clustering>
<clus scale="   24.734">  9 10 -1 -1</clus>
<clus scale="   90.876">  5  6 -1 -1</clus>
<clus scale="   94.269">  7  8 -1 -1</clus>
<clus scale="   98.585">  2  9  1 -1</clus>
<clus scale="  127.177">  2  5  1 -1</clus>
<clus scale="   98.585">  2  5  1 -1</clus>
</clustering>
</event>
<event>
10    2  0.2421970E-006  0.1076126E+03  0.7546771E-02  0.1265293E+00
          1   -1    0    0  503    0 -0.00000000000E+00  0.00000000000E+00  0.20840526416E+03  0.20840526416E+03  0.00000000000E+00 0. -1.
         21   -1    0    0  501  502  0.00000000000E+00 -0.00000000000E+00 -0.38245388130E+03  0.38245388130E+03  0.00000000000E+00 0. -1.
         23    2    1    2    0    0  0.38529948755E+02  0.24269027659E+02  0.95748774901E+02  0.13987324092E+03  0.91231315771E+02 0.  0.
         23    2    1    2    0    0 -0.64568647649E+02 -0.47991507209E+02  0.38128078066E+02  0.12705293079E+03  0.90644370268E+02 0.  0.
        -11    1    4    4    0    0 -0.15841125074E+02 -0.59503171595E+02  0.45339735719E+02  0.76467380683E+02  0.00000000000E+00 0. -1.
         11    1    4    4    0    0 -0.48727522576E+02  0.11511664386E+02 -0.72116576527E+01  0.50585550105E+02  0.00000000000E+00 0.  1.
        -11    1    3    3    0    0 -0.47428480326E-01  0.51104048278E+02  0.30668755976E+02  0.59600323765E+02  0.00000000000E+00 0.  1.
         11    1    3    3    0    0  0.38577377235E+02 -0.26835020619E+02  0.65080018925E+02  0.80272917159E+02  0.00000000000E+00 0. -1.
         21    1    1    2  503  502 -0.33796937875E+01  0.37442464757E+02 -0.43381048554E+02  0.57404493472E+02  0.00000000000E+00 0.  1.
          1    1    1    2  501    0  0.29418392682E+02 -0.13719985206E+02 -0.26454442155E+03  0.26652848027E+03  0.00000000000E+00 0. -1.
<scales pt_clust_5="13000.00000" pt_clust_6="13000.00000" pt_clust_7="13000.00000" pt_clust_8="13000.00000" pt_clust_9="32.87198" pt_clust_10="32.46043"></scales>
<clustering>
<clus scale="   32.460">  2 10  1 -1</clus>
<clus scale="   32.872">  2  9  1 -1</clus>
<clus scale="   90.644">  5  6 -1 -1</clus>
<clus scale="   91.231">  7  8 -1 -1</clus>
<clus scale="  107.115">  2  5  1 -1</clus>
<clus scale="   32.460">  2  5  1 -1</clus>
</clustering>
</event>
<event>
10    2  0.2421970E-006  0.1027301E+03  0.7546771E-02  0.1275053E+00
         21   -1    0    0  503  502  0.00000000000E+00  0.00000000000E+00  0.78651765651E+02  0.78651765651E+02  0.00000000000E+00 0. -1.
         -1   -1    0    0    0  501 -0.00000000000E+00 -0.00000000000E+00 -0.33241539794E+03  0.33241539794E+03  0.00000000000E+00 0.  1.
         23    2    1    2    0    0  0.46989407198E+02  0.24284699495E+02 -0.16795527099E+03  0.19870492742E+03  0.92070212929E+02 0.  0.
         23    2    1    2    0    0 -0.34333357504E+02  0.16592661901E+02 -0.57964551209E+02  0.11597329383E+03  0.92929111797E+02 0.  0.
        -13    1    4    4    0    0  0.80249057695E+01 -0.33243819420E+02 -0.27184844617E+02  0.43687142491E+02  0.00000000000E+00 0.  1.
         13    1    4    4    0    0 -0.42358263274E+02  0.49836481321E+02 -0.30779706592E+02  0.72286151343E+02  0.00000000000E+00 0. -1.
        -13    1    3    3    0    0  0.37471438029E+02  0.57400161674E+00 -0.16902806533E+03  0.17313268038E+03  0.00000000000E+00 0.  1.
         13    1    3    3    0    0  0.95179691690E+01  0.23710697879E+02  0.10727943402E+01  0.25572247040E+02  0.00000000000E+00 0. -1.
         21    1    1    2  503  501 -0.45079552345E+02 -0.15923644385E+02 -0.17086586273E+01  0.47839816099E+02  0.00000000000E+00 0. -1.
         -1    1    1    2    0  502  0.32423502651E+02 -0.24953717011E+02 -0.26135151466E+02  0.48549126243E+02  0.00000000000E+00 0.  1.
<scales pt_clust_5="13000.00000" pt_clust_6="13000.00000" pt_clust_7="13000.00000" pt_clust_8="13000.00000" pt_clust_9="41.87554" pt_clust_10="40.91420"></scales>
<clustering>
<clus scale="   40.914">  1 10  2 -1</clus>
<clus scale="   41.876">  1  9  2 -1</clus>
<clus scale="   92.070">  7  8 -1 -1</clus>
<clus scale="   92.929">  5  6 -1 -1</clus>
<clus scale="  101.954">  2  7  1 -1</clus>
<clus scale="   40.914">  1  5  2 -1</clus>
</clustering>
</event>
<event>
10    2  0.2421970E-006  0.1027543E+03  0.7546771E-02  0.1275233E+00
         -1   -1    0    0    0  501 -0.00000000000E+00  0.00000000000E+00  0.21096953724E+03  0.21096953724E+03  0.00000000000E+00 0.  1.
         21   -1    0    0  501  502  0.00000000000E+00 -0.00000000000E+00 -0.21827816615E+03  0.21827816615E+03  0.00000000000E+00 0.  1.
         23    2    1    2    0    0 -0.47883988130E+02  0.15852069373E+02  0.12914645698E+03  0.16516035942E+03  0.89749498887E+02 0.  0.
         23    2    1    2    0    0 -0.81853825546E+01 -0.86873351282E+02 -0.49003861005E+02  0.13535334436E+03  0.91132704262E+02 0.  0.
        -11    1    4    4    0    0  0.40204623248E+02 -0.25885710915E+02 -0.24543938665E+02  0.53748364490E+02  0.00000000000E+00 0. -1.
         11    1    4    4    0    0 -0.48390005803E+02 -0.60987640367E+02 -0.24459922340E+02  0.81604979872E+02  0.00000000000E+00 0.  1.
        -13    1    3    3    0    0 -0.74591640539E+02  0.14934140732E+02  0.91480609676E+02  0.11897749092E+03  0.00000000000E+00 0.  1.
         13    1    3    3    0    0  0.26707652409E+02  0.91792864128E+00  0.37665847308E+02  0.46182868508E+02  0.00000000000E+00 0. -1.
         21    1    1    2  503  502  0.31826720590E+02  0.29873780894E+02 -0.58126012125E+02  0.72691238908E+02  0.00000000000E+00 0.  1.
         -1    1    1    2    0  503  0.24242650095E+02  0.41147501015E+02 -0.29325212757E+02  0.56042760697E+02  0.00000000000E+00 0.  1.
<scales pt_clust_5="13000.00000" pt_clust_6="13000.00000" pt_clust_7="13000.00000" pt_clust_8="13000.00000" pt_clust_9="25.95288" pt_clust_10="94.47077"></scales>
<clustering>
<clus scale="   25.953">  9 10 -1 -1</clus>
<clus scale="   89.749">  7  8 -1 -1</clus>
<clus scale="   91.133">  5  6 -1 -1</clus>
<clus scale="   94.471">  2  9  1 -1</clus>
<clus scale="  101.530">  1  7  2 -1</clus>
<clus scale="   94.471">  2  5  1 -1</clus>
</clustering>
</event>
<event>
10    2  0.2421970E-006  0.1254354E+03  0.7546771E-02  0.1234726E+00
         21   -1    0    0  503  502  0.00000000000E+00  0.00000000000E+00  0.18720250572E+03  0.18720250572E+03  0.00000000000E+00 0.  1.
          1   -1    0    0  502    0 -0.00000000000E+00 -0.00000000000E+00 -0.86045505408E+03  0.86045505408E+03  0.00000000000E+00 0. -1.
         23    2    1    2    0    0 -0.73700184395E+02  0.37112983745E+02 -0.60878740038E+03  0.62105504851E+03  0.90984524376E+02 0.  0.
         23    2    1    2    0    0  0.15139604845E+03 -0.11549443235E+03  0.93417892393E+02  0.23032587132E+03  0.89796308326E+02 0.  0.
        -11    1    3    3    0    0  0.96240762163E+01 -0.19731044660E+02 -0.11189674891E+03  0.11402990565E+03  0.00000000000E+00 0.  1.
         11    1    3    3    0    0 -0.83324260611E+02  0.56844028405E+02 -0.49689065147E+03  0.50702514286E+03  0.00000000000E+00 0. -1.
        -13    1    4    4    0    0  0.48237999435E+02 -0.17394507579E+02 -0.12630787359E+02  0.52811080965E+02  0.00000000000E+00 0. -1.
         13    1    4    4    0    0  0.10315804902E+03 -0.98099924775E+02  0.10604867975E+03  0.17751479036E+03  0.00000000000E+00 0.  1.
         21    1    1    2  503  501 -0.52933710270E+02  0.52187827184E+02 -0.73586739859E+02  0.10459710929E+03  0.00000000000E+00 0. -1.
          1    1    1    2  501    0 -0.24762153790E+02  0.26193621426E+02 -0.84296300508E+02  0.91679530665E+02  0.00000000000E+00 0. -1.
<scales pt_clust_5="13000.00000" pt_clust_6="13000.00000" pt_clust_7="13000.00000" pt_clust_8="13000.00000" pt_clust_9="26.21449" pt_clust_10="116.60823"></scales>
<clustering>
<clus scale="   26.214">  9 10 -1 -1</clus>
<clus scale="   89.796">  7  8 -1 -1</clus>
<clus scale="   90.985">  5  6 -1 -1</clus>
<clus scale="  116.608">  1  9  2 -1</clus>
<clus scale="  124.576">  1  7  2 -1</clus>
<clus scale="  116.608">  1  5  2 -1</clus>
</clustering>
</event>
<event>
10    2  0.2421970E-006  0.1333419E+03  0.7546771E-02  0.1223026E+00
         21   -1    0    0  501  502  0.00000000000E+00  0.00000000000E+00  0.14316881692E+03  0.14316881692E+03  0.00000000000E+00 0.  1.
         -1   -1    0    0    0  501 -0.00000000000E+00 -0.00000000000E+00 -0.29405243892E+03  0.29405243892E+03  0.00000000000E+00 0.  1.
         23    2    1    2    0    0  0.75458057111E+02 -0.11894440435E+01 -0.45098758068E+02  0.12589739008E+03  0.90116156645E+02 0.  0.
         23    2    1    2    0    0 -0.10151299086E+03  0.11139096439E+03 -0.62780726632E+02  0.18736120684E+03  0.91923707116E+02 0.  0.
        -13    1    4    4    0    0 -0.42200700138E+02  0.65616885694E+02 -0.78646952131E+02  0.11077823730E+03  0.00000000000E+00 0.  1.
         13    1    4    4    0    0 -0.59312290724E+02  0.45774078693E+02  0.15866225499E+02  0.76582969534E+02  0.00000000000E+00 0. -1.
        -13    1    3    3    0    0  0.95450396870E+02  0.20747986720E+01 -0.45218570093E+02  0.10563996466E+03  0.00000000000E+00 0.  1.
         13    1    3    3    0    0 -0.19992339759E+02 -0.32642427154E+01  0.11981202532E+00  0.20257425415E+02  0.00000000000E+00 0. -1.
         21    1    1    2  503  502  0.26928655079E+02 -0.59597163393E+02 -0.28290789936E+02  0.71255477993E+02  0.00000000000E+00 0. -1.
         -1    1    1    2    0  503 -0.87372132827E+00 -0.50604356951E+02 -0.14713347363E+02  0.52707180934E+02  0.00000000000E+00 0.  1.
<scales pt_clust_5="13000.00000" pt_clust_6="13000.00000" pt_clust_7="13000.00000" pt_clust_8="13000.00000" pt_clust_9="23.17762" pt_clust_10="116.26435"></scales>
<clustering>
<clus scale="   23.178">  9 10 -1 -1</clus>
<clus scale="   90.116">  7  8 -1 -1</clus>
<clus scale="   91.924">  5  6 -1 -1</clus>
<clus scale="  116.264">  1  9  2 -1</clus>
<clus scale="  132.102">  2  7  1 -1</clus>
<clus scale="  116.264">  1  5  2 -1</clus>
</clustering>
</event>
<event>
10    2  0.2421970E-006  0.1784056E+03  0.7546771E-02  0.1189954E+00
          2   -1    0    0  503    0 -0.00000000000E+00  0.00000000000E+00  0.65529134439E+03  0.65529134439E+03  0.00000000000E+00 0. -1.
         21   -1    0    0  501  502  0.00000000000E+00 -0.00000000000E+00 -0.17265299817E+03  0.17265299817E+03  0.00000000000E+00 0.  1.
         23    2    1    2    0    0 -0.63590781086E+02 -0.70194122086E+01  0.31775191813E+03  0.33663901187E+03  0.90920202660E+02 0.  0.
         23    2    1    2    0    0  0.38473042353E+02  0.16685403744E+03  0.22542988496E+03  0.29790836539E+03  0.92791790246E+02 0.  0.
        -11    1    4    4    0    0 -0.30831048164E+02  0.52209544516E+02  0.75915287539E+02  0.97157197117E+02  0.00000000000E+00 0.  1.
         11    1    4    4    0    0  0.69304090517E+02  0.11464449293E+03  0.14951459742E+03  0.20075116827E+03  0.00000000000E+00 0. -1.
        -13    1    3    3    0    0  0.58294026592E+01 -0.30324998056E+02  0.15680051569E+03  0.15981235611E+03  0.00000000000E+00 0. -1.
         13    1    3    3    0    0 -0.69420183746E+02  0.23305585847E+02  0.16095140244E+03  0.17682665577E+03  0.00000000000E+00 0.  1.
         21    1    1    2  503  502 -0.25676102751E+02 -0.35566695643E+02  0.47317493158E+01  0.44120760907E+02  0.00000000000E+00 0. -1.
          2    1    1    2  501    0  0.50793841485E+02 -0.12426792959E+03 -0.65275206182E+02  0.14927620440E+03  0.00000000000E+00 0. -1.
<scales pt_clust_5="13000.00000" pt_clust_6="13000.00000" pt_clust_7="13000.00000" pt_clust_8="13000.00000" pt_clust_9="43.86630" pt_clust_10="152.37537"></scales>
<clustering>
<clus scale="   43.866">  2  9  1 -1</clus>
<clus scale="   90.920">  7  8 -1 -1</clus>
<clus scale="   92.792">  5  6 -1 -1</clus>
<clus scale="  112.247">  1  7  2 -1</clus>
<clus scale="  152.375">  2 10  1 -1</clus>
<clus scale="   43.866">  2  5  1 -1</clus>
</clustering>
</event>
<event>
10    2  0.2421970E-006  0.3063326E+03  0.7546771E-02  0.1082262E+00
          2   -1    0    0  503    0 -0.00000000000E+00  0.00000000000E+00  0.31646004245E+03  0.31646004245E+03  0.00000000000E+00 0. -1.
         21   -1    0    0  501  502  0.00000000000E+00 -0.00000000000E+00 -0.89197933402E+03  0.89197933402E+03  0.00000000000E+00 0. -1.
         23    2    1    2    0    0  0.22151223842E+03 -0.13842682624E+03  0.11262299775E+03  0.29711088949E+03  0.85797919785E+02 0.  0.
         23    2    1    2    0    0 -0.24775759492E+03  0.25739498389E+03 -0.24794351535E+03  0.44406934524E+03  0.89919925532E+02 0.  0.
        -11    1    3    3    0    0  0.68391536000E+02 -0.80249130694E+01  0.50985299834E+01  0.69049231960E+02  0.00000000000E+00 0.  1.
         11    1    3    3    0    0  0.15312070242E+03 -0.13040191317E+03  0.10752446776E+03  0.22806165753E+03  0.00000000000E+00 0. -1.
        -13    1    4    4    0    0 -0.48413290763E+02  0.97807887818E+02 -0.45657581296E+02  0.11829980715E+03  0.00000000000E+00 0.  1.
         13    1    4    4    0    0 -0.19934430416E+03  0.15958709607E+03 -0.20228593405E+03  0.32576953809E+03  0.00000000000E+00 0. -1.
         21    1    1    2  503  502  0.11116979711E+02 -0.21507462339E+02 -0.10504899623E+02  0.26391496552E+02  0.00000000000E+00 0.  1.
          2    1    1    2  501    0  0.15128376788E+02 -0.97460695311E+02 -0.42969387435E+03  0.44086764518E+03  0.00000000000E+00 0. -1.
<scales pt_clust_5="13000.00000" pt_clust_6="13000.00000" pt_clust_7="13000.00000" pt_clust_8="13000.00000" pt_clust_9="24.21070" pt_clust_10="99.04370"></scales>
<clustering>
<clus scale="   24.211">  1  9  2 -1</clus>
<clus scale="   85.798">  5  6 -1 -1</clus>
<clus scale="   89.920">  7  8 -1 -1</clus>
<clus scale="   99.044">  2 10  1 -1</clus>
<clus scale="  305.148">  1  5  2 -1</clus>
<clus scale="   99.044">  2  5  1 -1</clus>
</clustering>
</event>
<event>
10    2  0.2421970E-006  0.1439846E+03  0.7546771E-02  0.1230834E+00
          2   -1    0    0  502    0 -0.00000000000E+00  0.00000000000E+00  0.14769022952E+03  0.14769022952E+03  0.00000000000E+00 0. -1.
         21   -1    0    0  503  502  0.00000000000E+00 -0.00000000000E+00 -0.29728643247E+03  0.29728643247E+03  0.00000000000E+00 0. -1.
         23    2    1    2    0    0 -0.21907166701E+02  0.24581724609E+01 -0.11982884520E+03  0.14939848332E+03  0.86458013577E+02 0.  0.
         23    2    1    2    0    0  0.80416391639E+02  0.88170396211E+02  0.44084958868E+02  0.15727974205E+03  0.92480370074E+02 0.  0.
        -13    1    3    3    0    0 -0.50759620133E+02  0.48432493379E+00 -0.40424296546E+02  0.64891427460E+02  0.00000000000E+00 0.  1.
         13    1    3    3    0    0  0.28852453432E+02  0.19738475271E+01 -0.79404548651E+02  0.84507055857E+02  0.00000000000E+00 0. -1.
        -13    1    4    4    0    0  0.36582280117E+02 -0.11593654250E+02 -0.31685601504E+01  0.38506049017E+02  0.00000000000E+00 0.  1.
         13    1    4    4    0    0  0.43834111521E+02  0.99764050461E+02  0.47253519018E+02  0.11877369303E+03  0.00000000000E+00 0. -1.
         21    1    1    2  503  501 -0.44906659811E+02 -0.59616460971E+02 -0.24716445650E+02  0.78623362938E+02  0.00000000000E+00 0. -1.
          2    1    1    2  501    0 -0.13602565126E+02 -0.31012107700E+02 -0.49135870976E+02  0.59675073679E+02  0.00000000000E+00 0. -1.
<scales pt_clust_5="13000.00000" pt_clust_6="13000.00000" pt_clust_7="13000.00000" pt_clust_8="13000.00000" pt_clust_9="30.38923" pt_clust_10="119.22402"></scales>
<clustering>
<clus scale="   30.389">  9 10 -1 -1</clus>
<clus scale="   86.458">  5  6 -1 -1</clus>
<clus scale="   89.224">  1  5  2 -1</clus>
<clus scale="   92.480">  7  8 -1 -1</clus>
<clus scale="  119.224">  2  9  1 -1</clus>
<clus scale="  119.224">  2  5  1 -1</clus>
</clustering>
</event>
<event>
10    2  0.2421970E-006  0.1046356E+03  0.7546771E-02  0.1271531E+00
         -1   -1    0    0    0  501 -0.00000000000E+00  0.00000000000E+00  0.15069120635E+03  0.15069120635E+03  0.00000000000E+00 0.  1.
         21   -1    0    0  503  502  0.00000000000E+00 -0.00000000000E+00 -0.22777443031E+03  0.22777443031E+03  0.00000000000E+00 0.  1.
         23    2    1    2    0    0  0.32815912842E+02  0.14295764454E+02  0.51305770635E+02  0.10988888142E+03  0.90343960191E+02 0.  0.
         23    2    1    2    0    0 -0.65977238641E+02 -0.39129062752E+02  0.11000734572E+02  0.12023161760E+03  0.91926852106E+02 0.  0.
        -11    1    4    4    0    0 -0.88335021304E+02 -0.33590772812E+02 -0.45350542112E+00  0.94507257256E+02  0.00000000000E+00 0.  1.
         11    1    4    4    0    0  0.22357782663E+02 -0.55382899406E+01  0.11454239993E+02  0.25724360340E+02  0.00000000000E+00 0. -1.
        -13    1    3    3    0    0  0.15038733133E+02 -0.38502818599E+02  0.24672394381E+02  0.48138940358E+02  0.00000000000E+00 0. -1.
         13    1    3    3    0    0  0.17777179709E+02  0.52798583053E+02  0.26633376255E+02  0.61749941065E+02  0.00000000000E+00 0.  1.
         21    1    1    2  503  501  0.25878662375E+02  0.53604018887E+01 -0.49835741358E+02  0.56409575353E+02  0.00000000000E+00 0. -1.
         -1    1    1    2    0  502  0.72826634232E+01  0.19472896410E+02 -0.89553987808E+02  0.91935562289E+02  0.00000000000E+00 0.  1.
<scales pt_clust_5="13000.00000" pt_clust_6="13000.00000" pt_clust_7="13000.00000" pt_clust_8="13000.00000" pt_clust_9="31.47154" pt_clust_10="20.79016"></scales>
<clustering>
<clus scale="   20.790">  2 10  1 -1</clus>
<clus scale="   31.472">  2  9  1 -1</clus>
<clus scale="   90.344">  7  8 -1 -1</clus>
<clus scale="   91.927">  5  6 -1 -1</clus>
<clus scale="  103.248">  1  7  2 -1</clus>
<clus scale="   20.790">  2  5  1 -1</clus>
</clustering>
</event>
<event>
10    2  0.2421970E-006  0.4825911E+03  0.7546771E-02  0.1073311E+00
         -1   -1    0    0    0  501 -0.00000000000E+00  0.00000000000E+00  0.89098210544E+03  0.89098210544E+03  0.00000000000E+00 0.  1.
         21   -1    0    0  501  502  0.00000000000E+00 -0.00000000000E+00 -0.36319040843E+03  0.36319040843E+03  0.00000000000E+00 0.  1.
         23    2    1    2    0    0  0.18175148439E+02 -0.35025067571E+02  0.22272835002E+03  0.24391316550E+03  0.91261289824E+02 0.  0.
         23    2    1    2    0    0 -0.46327671358E+03  0.44172147870E+02  0.56615204520E+02  0.47726966747E+03  0.89468218480E+02 0.  0.
        -13    1    3    3    0    0  0.10710147948E+00 -0.62799408807E+02  0.17400776695E+03  0.18499318954E+03  0.00000000000E+00 0.  1.
         13    1    3    3    0    0  0.18068046959E+02  0.27774341235E+02  0.48720583070E+02  0.58919975956E+02  0.00000000000E+00 0. -1.
        -13    1    4    4    0    0 -0.30949876647E+03  0.70644440032E+02  0.28712186925E+02  0.31875462826E+03  0.00000000000E+00 0.  1.
         13    1    4    4    0    0 -0.15377794710E+03 -0.26472292163E+02  0.27903017595E+02  0.15851503922E+03  0.00000000000E+00 0. -1.
         21    1    1    2  503  502  0.18067380727E+03  0.69114922540E+02  0.76572382645E+02  0.20804621346E+03  0.00000000000E+00 0. -1.
         -1    1    1    2    0  503  0.26442775787E+03 -0.78262002838E+02  0.17187575982E+03  0.32494346744E+03  0.00000000000E+00 0.  1.
<scales pt_clust_5="13000.00000" pt_clust_6="13000.00000" pt_clust_7="13000.00000" pt_clust_8="13000.00000" pt_clust_9="128.12368" pt_clust_10="128.12368"></scales>
<clustering>
<clus scale="   89.468">  7  8 -1 -1</clus>
<clus scale="   91.261">  5  6 -1 -1</clus>
<clus scale="   99.427">  1  5  2 -1</clus>
<clus scale="  128.124">  9 10 -1 -1</clus>
<clus scale="  465.560">  1  7  2 -1</clus>
<clus scale="  482.591">  2  5  1 -1</clus>
</clustering>
</event>
<event>
10    2  0.2421970E-006  0.1605452E+03  0.7546771E-02  0.1188195E+00
          1   -1    0    0  503    0 -0.00000000000E+00  0.00000000000E+00  0.35561204252E+03  0.35561204252E+03  0.00000000000E+00 0. -1.
         21   -1    0    0  501  502  0.00000000000E+00 -0.00000000000E+00 -0.51856955318E+03  0.51856955318E+03  0.00000000000E+00 0.  1.
         23    2    1    2    0    0 -0.12082353052E+03  0.52893172651E+02  0.19627684321E+03  0.25262410720E+03  0.88872532972E+02 0.  0.
         23    2    1    2    0    0  0.11457247808E+03 -0.81637249411E+02  0.16051594178E+02  0.16679184169E+03  0.88149711019E+02 0.  0.
        -13    1    4    4    0    0  0.82529760850E+02 -0.91638611890E+02  0.35067053128E+02  0.12821269372E+03  0.00000000000E+00 0.  1.
         13    1    4    4    0    0  0.32042717234E+02  0.10001362479E+02 -0.19015458950E+02  0.38579147972E+02  0.00000000000E+00 0. -1.
        -13    1    3    3    0    0 -0.77763308065E+02  0.45693316768E+02  0.57073567869E+02  0.10673520238E+03  0.00000000000E+00 0. -1.
         13    1    3    3    0    0 -0.43060222458E+02  0.71998558835E+01  0.13920327534E+03  0.14588890482E+03  0.00000000000E+00 0.  1.
         21    1    1    2  503  502  0.13014192122E+03  0.87698946069E+01 -0.21049800062E+03  0.24763529428E+03  0.00000000000E+00 0.  1.
          1    1    1    2  501    0 -0.12389086878E+03  0.19974182153E+02 -0.16478794743E+03  0.20713035253E+03  0.00000000000E+00 0. -1.
<scales pt_clust_5="13000.00000" pt_clust_6="13000.00000" pt_clust_7="13000.00000" pt_clust_8="13000.00000" pt_clust_9="50.16144" pt_clust_10="125.49070"></scales>
<clustering>
<clus scale="   88.150">  5  6 -1 -1</clus>
<clus scale="   88.873">  7  8 -1 -1</clus>
<clus scale="  125.491">  2 10  1 -1</clus>
<clus scale="   50.161">  2  9  1 -1</clus>
<clus scale="  160.146">  2  5  1 -1</clus>
<clus scale="  125.491">  2  5  1 -1</clus>
</clustering>
</event>
<event>
10    2  0.2421970E-006  0.2080158E+03  0.7546771E-02  0.1143250E+00
         21   -1    0    0  501  502  0.00000000000E+00  0.00000000000E+00  0.76439552969E+02  0.76439552969E+02  0.00000000000E+00 0.  1.
          2   -1    0    0  503    0 -0.00000000000E+00 -0.00000000000E+00 -0.11279859807E+04  0.11279859807E+04  0.00000000000E+00 0. -1.
         23    2    1    2    0    0  0.11862104678E+03 -0.89499918448E+02 -0.61872522956E+03  0.64284508678E+03  0.91365790986E+02 0.  0.
         23    2    1    2    0    0 -0.16405339294E+03  0.15388742793E+03 -0.20654958242E+03  0.31842101865E+03  0.90190680836E+02 0.  0.
        -11    1    4    4    0    0 -0.66676399434E+02  0.29169804033E+02 -0.11358959580E+03  0.13490446984E+03  0.00000000000E+00 0. -1.
         11    1    4    4    0    0 -0.97376993508E+02  0.12471762389E+03 -0.92959986619E+02  0.18351654881E+03  0.00000000000E+00 0.  1.
        -13    1    3    3    0    0  0.68053266119E+02 -0.17609427437E+01 -0.32792166003E+03  0.33491336651E+03  0.00000000000E+00 0.  1.
         13    1    3    3    0    0  0.50567780658E+02 -0.87738975704E+02 -0.29080356953E+03  0.30793172027E+03  0.00000000000E+00 0. -1.
         21    1    1    2  503  502  0.36950401832E+02 -0.29048406121E+02 -0.83343974333E+02  0.95683646206E+02  0.00000000000E+00 0. -1.
          2    1    1    2  501    0  0.84819443322E+01 -0.35339103358E+02 -0.14292764145E+03  0.14747578207E+03  0.00000000000E+00 0. -1.
<scales pt_clust_5="13000.00000" pt_clust_6="13000.00000" pt_clust_7="13000.00000" pt_clust_8="13000.00000" pt_clust_9="49.40875" pt_clust_10="36.34277"></scales>
<clustering>
<clus scale="   36.343">  1 10  2 -1</clus>
<clus scale="   49.409">  2  9  1 -1</clus>
<clus scale="   90.191">  5  6 -1 -1</clus>
<clus scale="   91.366">  7  8 -1 -1</clus>
<clus scale="  207.502">  1  5  2 -1</clus>
<clus scale="   36.343">  1  5  2 -1</clus>
</clustering>
</event>
<event>
10    2  0.2421970E-006  0.2577684E+03  0.7546771E-02  0.1108939E+00
         21   -1    0    0  503  502  0.00000000000E+00  0.00000000000E+00  0.20731773232E+04  0.20731773232E+04  0.00000000000E+00 0. -1.
          2   -1    0    0  502    0 -0.00000000000E+00 -0.00000000000E+00 -0.96058382488E+02  0.96058382488E+02  0.00000000000E+00 0. -1.
         23    2    1    2    0    0  0.24228552400E+03  0.19711590677E+02  0.67720331684E+03  0.72666798666E+03  0.10174088927E+03 0.  0.
         23    2    1    2    0    0 -0.14814379991E+03  0.22558272816E+03  0.34853510581E+03  0.45084923169E+03  0.94626407724E+02 0.  0.
        -11    1    3    3    0    0  0.92838703136E+02  0.12002522943E+02  0.40865694205E+03  0.41924167450E+03  0.00000000000E+00 0.  1.
         11    1    3    3    0    0  0.14944682086E+03  0.77090677339E+01  0.26854637479E+03  0.30742631216E+03  0.00000000000E+00 0. -1.
        -11    1    4    4    0    0 -0.10009692838E+03  0.89157957157E+02  0.11740018942E+03  0.17818905935E+03  0.00000000000E+00 0. -1.
         11    1    4    4    0    0 -0.48046871528E+02  0.13642477101E+03  0.23113491639E+03  0.27266017234E+03  0.00000000000E+00 0.  1.
         21    1    1    2  503  501 -0.26765365449E+02 -0.16591448230E+01  0.77238644195E+02  0.81761517270E+02  0.00000000000E+00 0.  1.
          2    1    1    2  501    0 -0.67376358641E+02 -0.24363517402E+03  0.87414187391E+03  0.90995697010E+03  0.00000000000E+00 0. -1.
<scales pt_clust_5="13000.00000" pt_clust_6="13000.00000" pt_clust_7="13000.00000" pt_clust_8="13000.00000" pt_clust_9="26.81674" pt_clust_10="239.77155"></scales>
<clustering>
<clus scale="   26.817">  1  9  2 -1</clus>
<clus scale="   94.626">  7  8 -1 -1</clus>
<clus scale="  101.741">  5  6 -1 -1</clus>
<clus scale="  254.837">  2  5  1 -1</clus>
<clus scale="  239.772">  1 10  2 -1</clus>
<clus scale="   26.817">  1  5  2 -1</clus>
</clustering>
</event>
<event>
10    2  0.2421970E-006  0.9582234E+02  0.7546771E-02  0.1290277E+00
          1   -1    0    0  503    0 -0.00000000000E+00  0.00000000000E+00  0.58552970079E+03  0.58552970079E+03  0.00000000000E+00 0. -1.
         21   -1    0    0  501  502  0.00000000000E+00 -0.00000000000E+00 -0.49204929637E+02  0.49204929637E+02  0.00000000000E+00 0.  1.
         23    2    1    2    0    0 -0.20060590246E+02  0.93254828285E+01  0.45286512714E+03  0.46269061269E+03  0.92230080651E+02 0.  0.
         23    2    1    2    0    0  0.54526485752E+02  0.25370735399E+01  0.60655263673E+02  0.12184632600E+03  0.90486970096E+02 0.  0.
        -11    1    3    3    0    0 -0.54438813734E+02 -0.90171495345E+01  0.23721640922E+03  0.24354982700E+03  0.00000000000E+00 0.  1.
         11    1    3    3    0    0  0.34378223488E+02  0.18342632363E+02  0.21564871791E+03  0.21914078568E+03  0.00000000000E+00 0. -1.
        -13    1    4    4    0    0  0.32036675296E+02  0.24892247672E+02  0.76353588210E+02  0.86462957332E+02  0.00000000000E+00 0. -1.
         13    1    4    4    0    0  0.22489810457E+02 -0.22355174132E+02 -0.15698324536E+02  0.35383368665E+02  0.00000000000E+00 0.  1.
         21    1    1    2  503  502 -0.20316512996E+02  0.49303530109E+01  0.18293686417E+02  0.27779993590E+02  0.00000000000E+00 0. -1.
          1    1    1    2  501    0 -0.14149382510E+02 -0.16792909379E+02  0.45106939225E+01  0.22417698153E+02  0.00000000000E+00 0. -1.
<scales pt_clust_5="13000.00000" pt_clust_6="13000.00000" pt_clust_7="13000.00000" pt_clust_8="13000.00000" pt_clust_9="20.90620" pt_clust_10="24.13218"></scales>
<clustering>
<clus scale="   20.906">  2  9  1 -1</clus>
<clus scale="   24.132">  2 10  1 -1</clus>
<clus scale="   90.487">  7  8 -1 -1</clus>
<clus scale="   92.230">  5  6 -1 -1</clus>
<clus scale="   94.146">  2  7  1 -1</clus>
<clus scale="   20.906">  2  5  1 -1</clus>
</clustering>
</event>
<event>
10    2  0.2421970E-006  0.1522383E+03  0.7546771E-02  0.1213201E+00
         21   -1    0    0  503  502  0.00000000000E+00  0.00000000000E+00  0.82439239848E+02  0.82439239848E+02  0.00000000000E+00 0. -1.
          2   -1    0    0  502    0 -0.00000000000E+00 -0.00000000000E+00 -0.86540352254E+03  0.86540352254E+03  0.00000000000E+00 0. -1.
         23    2    1    2    0    0 -0.48123277213E+02  0.35858509920E+02 -0.13891255749E+03  0.17471755906E+03  0.87337530720E+02 0.  0.
         23    2    1    2    0    0 -0.53716644133E+02 -0.10023697971E+03 -0.58043803795E+03  0.59822683866E+03  0.89633167072E+02 0.  0.
        -13    1    4    4    0    0 -0.31274677649E+02 -0.10857304286E+03 -0.53570296959E+03  0.54748870557E+03  0.00000000000E+00 0. -1.
         13    1    4    4    0    0 -0.22441966484E+02  0.83360631563E+01 -0.44735068361E+02  0.50738133094E+02  0.00000000000E+00 0.  1.
        -13    1    3    3    0    0 -0.46263972245E+02  0.62892994671E+02 -0.11198179311E+03  0.13651302464E+03  0.00000000000E+00 0. -1.
         13    1    3    3    0    0 -0.18593049682E+01 -0.27034484750E+02 -0.26930764379E+02  0.38204534426E+02  0.00000000000E+00 0.  1.
         21    1    1    2  503  501 -0.23123906263E+02  0.55601475448E+01 -0.26582209912E+01  0.23931076457E+02  0.00000000000E+00 0. -1.
          2    1    1    2  501    0  0.12496382761E+03  0.58818322243E+02 -0.60955466262E+02  0.15096728821E+03  0.00000000000E+00 0. -1.
<scales pt_clust_5="13000.00000" pt_clust_6="13000.00000" pt_clust_7="13000.00000" pt_clust_8="13000.00000" pt_clust_9="23.78298" pt_clust_10="123.05441"></scales>
<clustering>
<clus scale="   23.783">  1  9  2 -1</clus>
<clus scale="   87.338">  7  8 -1 -1</clus>
<clus scale="   89.633">  5  6 -1 -1</clus>
<clus scale="  109.174">  2  7  1 -1</clus>
<clus scale="  123.054">  1 10  2 -1</clus>
<clus scale="   23.783">  1  5  2 -1</clus>
</clustering>
</event>
<event>
10    2  0.2421970E-006  0.1368654E+03  0.7546771E-02  0.1217780E+00
          2   -1    0    0  503    0 -0.00000000000E+00  0.00000000000E+00  0.60845134360E+03  0.60845134360E+03  0.00000000000E+00 0. -1.
         21   -1    0    0  501  502  0.00000000000E+00 -0.00000000000E+00 -0.71228176651E+02  0.71228176651E+02  0.00000000000E+00 0.  1.
         23    2    1    2    0    0 -0.38715214379E+02  0.14619995037E+03  0.30590613308E+03  0.35322909552E+03  0.91208214305E+02 0.  0.
         23    2    1    2    0    0  0.37913578933E+02 -0.39306359233E+02  0.84894361453E+02  0.13555473477E+03  0.90474328779E+02 0.  0.
        -11    1    4    4    0    0  0.18120543921E+02  0.15599738854E+02 -0.85396479139E+01  0.25389595326E+02  0.00000000000E+00 0.  1.
         11    1    4    4    0    0  0.19793035011E+02 -0.54906098087E+02  0.93434009367E+02  0.11016513944E+03  0.00000000000E+00 0. -1.
        -13    1    3    3    0    0 -0.13913979649E+02  0.11474937582E+03  0.28605574272E+03  0.30852699400E+03  0.00000000000E+00 0.  1.
         13    1    3    3    0    0 -0.24801234730E+02  0.31450574549E+02  0.19850390359E+02  0.44702101528E+02  0.00000000000E+00 0. -1.
         21    1    1    2  503  502  0.20984532942E+02 -0.97109634106E+01  0.24690459952E+02  0.33827093369E+02  0.00000000000E+00 0. -1.
          2    1    1    2  501    0 -0.20182897496E+02 -0.97182627725E+02  0.12173221246E+03  0.15706859659E+03  0.00000000000E+00 0. -1.
<scales pt_clust_5="13000.00000" pt_clust_6="13000.00000" pt_clust_7="13000.00000" pt_clust_8="13000.00000" pt_clust_9="23.12257" pt_clust_10="100.82229"></scales>
<clustering>
<clus scale="   23.123">  2  9  1 -1</clus>
<clus scale="   90.474">  5  6 -1 -1</clus>
<clus scale="   91.208">  7  8 -1 -1</clus>
<clus scale="  100.822">  2 10  1 -1</clus>
<clus scale="  136.377">  2  5  1 -1</clus>
<clus scale="   23.123">  2  5  1 -1</clus>
</clustering>
</event>
<event>
10    2  0.2421970E-006  0.1106710E+03  0.7546771E-02  0.1259467E+00
          3   -1    0    0  503    0 -0.00000000000E+00  0.00000000000E+00  0.93329785388E+02  0.93329785388E+02  0.00000000000E+00 0. -1.
         21   -1    0    0  501  502  0.00000000000E+00 -0.00000000000E+00 -0.37184327176E+03  0.37184327176E+03  0.00000000000E+00 0.  1.
         23    2    1    2    0    0 -0.36251288487E+02  0.25348101388E+02 -0.35101130722E+02  0.10593309835E+03  0.89627282604E+02 0.  0.
         23    2    1    2    0    0  0.95325107055E+02 -0.17387412234E+02 -0.57872247590E+02  0.14434679910E+03  0.89986683619E+02 0.  0.
        -11    1    4    4    0    0  0.39549852225E+02 -0.41569038527E+02 -0.60652029695E+02  0.83491583295E+02  0.00000000000E+00 0.  1.
         11    1    4    4    0    0  0.55775254830E+02  0.24181626293E+02  0.27797821050E+01  0.60855215800E+02  0.00000000000E+00 0. -1.
        -13    1    3    3    0    0 -0.28247766195E+02 -0.24383702538E+02 -0.40739519534E+02  0.55246807114E+02  0.00000000000E+00 0.  1.
         13    1    3    3    0    0 -0.80035222921E+01  0.49731803926E+02  0.56383888114E+01  0.50686291235E+02  0.00000000000E+00 0. -1.
         21    1    1    2  503  502  0.59389667622E+01  0.30762569155E+02 -0.39540943465E+02  0.50448916711E+02  0.00000000000E+00 0.  1.
          3    1    1    2  501    0 -0.65012785330E+02 -0.38723258309E+02 -0.14599916459E+03  0.16444424299E+03  0.00000000000E+00 0. -1.
<scales pt_clust_5="13000.00000" pt_clust_6="13000.00000" pt_clust_7="13000.00000" pt_clust_8="13000.00000" pt_clust_9="31.33061" pt_clust_10="66.70361"></scales>
<clustering>
<clus scale="   31.331">  2  9  1 -1</clus>
<clus scale="   66.704">  2 10  1 -1</clus>
<clus scale="   89.627">  7  8 -1 -1</clus>
<clus scale="   89.987">  5  6 -1 -1</clus>
<clus scale="  110.379">  1  7  2 -1</clus>
<clus scale="   31.331">  2  5  1 -1</clus>
</clustering>
</event>
<event>
10    2  0.2421970E-006  0.9514454E+02  0.7546771E-02  0.1294553E+00
         21   -1    0    0  503  502  0.00000000000E+00  0.00000000000E+00  0.11489814598E+03  0.11489814598E+03  0.00000000000E+00 0. -1.
          2   -1    0    0  502    0 -0.00000000000E+00 -0.00000000000E+00 -0.50375746566E+03  0.50375746566E+03  0.00000000000E+00 0. -1.
         23    2    1    2    0    0 -0.35605863046E+02  0.18226776319E+02 -0.42243782745E+03  0.43375252441E+03  0.89930759525E+02 0.  0.
         23    2    1    2    0    0 -0.11674353006E+02  0.28007381016E+02 -0.24303730049E+02  0.91823197522E+02  0.83187285082E+02 0.  0.
        -11    1    3    3    0    0  0.26060642703E+02  0.99190831295E+01 -0.61983040581E+02  0.67966481650E+02  0.00000000000E+00 0.  1.
         11    1    3    3    0    0 -0.61666505749E+02  0.83076931894E+01 -0.36045478687E+03  0.36578604276E+03  0.00000000000E+00 0. -1.
        -13    1    4    4    0    0  0.19623327465E+02 -0.18545066182E+02  0.65773380540E+01  0.27789491474E+02  0.00000000000E+00 0.  1.
         13    1    4    4    0    0 -0.31297680472E+02  0.46552447198E+02 -0.30881068103E+02  0.64033706048E+02  0.00000000000E+00 0. -1.
         21    1    1    2  503  501  0.21984035252E+02 -0.36151751531E+02  0.48300160152E+02  0.64211777856E+02  0.00000000000E+00 0. -1.
          2    1    1    2  501    0  0.25296180800E+02 -0.10082405805E+02  0.95820776680E+01  0.28868111859E+02  0.00000000000E+00 0. -1.
<scales pt_clust_5="13000.00000" pt_clust_6="13000.00000" pt_clust_7="13000.00000" pt_clust_8="13000.00000" pt_clust_9="24.60286" pt_clust_10="72.89384"></scales>
<clustering>
<clus scale="   24.603">  9 10 -1 -1</clus>
<clus scale="   72.894">  1  9  2 -1</clus>
<clus scale="   83.187">  7  8 -1 -1</clus>
<clus scale="   88.798">  1  7  2 -1</clus>
<clus scale="   89.931">  5  6 -1 -1</clus>
<clus scale="   72.894">  1  5  2 -1</clus>
</clustering>
</event>
<event>
10    2  0.2421970E-006  0.9996613E+02  0.7546771E-02  0.1280652E+00
          2   -1    0    0  503    0 -0.00000000000E+00  0.00000000000E+00  0.33496394149E+03  0.33496394149E+03  0.00000000000E+00 0. -1.
         21   -1    0    0  501  502  0.00000000000E+00 -0.00000000000E+00 -0.28728306787E+03  0.28728306787E+03  0.00000000000E+00 0.  1.
         23    2    1    2    0    0  0.29383736713E+02  0.26844819542E+02  0.29837152442E+03  0.31458949551E+03  0.91416277440E+02 0.  0.
         23    2    1    2    0    0 -0.31919832630E+02 -0.41470562648E+01 -0.12802986031E+03  0.16091074962E+03  0.92002991364E+02 0.  0.
        -11    1    4    4    0    0 -0.45385537568E+02 -0.27376360808E+02 -0.33641846594E+02  0.62778069369E+02  0.00000000000E+00 0. -1.
         11    1    4    4    0    0  0.13465704938E+02  0.23229304543E+02 -0.94388013719E+02  0.98132680249E+02  0.00000000000E+00 0.  1.
        -13    1    3    3    0    0 -0.74183816108E+01 -0.30506615084E+02  0.85882262501E+02  0.91440958886E+02  0.00000000000E+00 0. -1.
         13    1    3    3    0    0  0.36802118324E+02  0.57351434626E+02  0.21248926192E+03  0.22314853662E+03  0.00000000000E+00 0.  1.
         21    1    1    2  503  502  0.23817861788E+02 -0.10555171913E+02 -0.49564682456E+01  0.26519215142E+02  0.00000000000E+00 0.  1.
          2    1    1    2  501    0 -0.21281765872E+02 -0.12142591365E+02 -0.11770432225E+03  0.12022754908E+03  0.00000000000E+00 0. -1.
<scales pt_clust_5="13000.00000" pt_clust_6="13000.00000" pt_clust_7="13000.00000" pt_clust_8="13000.00000" pt_clust_9="24.76145" pt_clust_10="24.50216"></scales>
<clustering>
<clus scale="   24.502">  2 10  1 -1</clus>
<clus scale="   24.761">  2  9  1 -1</clus>
<clus scale="   91.416">  7  8 -1 -1</clus>
<clus scale="   92.003">  5  6 -1 -1</clus>
<clus scale="   99.426">  1  7  2 -1</clus>
<clus scale="   24.502">  2  5  1 -1</clus>
</clustering>
</event>
<event>
10    2  0.2421970E-006  0.3619041E+03  0.7546771E-02  0.1058044E+00
         -1   -1    0    0    0  501 -0.00000000000E+00  0.00000000000E+00  0.85197979051E+03  0.85197979051E+03  0.00000000000E+00 0.  1.
         21   -1    0    0  503  502  0.00000000000E+00 -0.00000000000E+00 -0.26403139324E+03  0.26403139324E+03  0.00000000000E+00 0. -1.
         23    2    1    2    0    0  0.29960571577E+03  0.17210040925E+03  0.38287123131E+03  0.52374393971E+03  0.91297310129E+02 0.  0.
         23    2    1    2    0    0 -0.32550486599E+03 -0.13576345512E+03  0.28513647953E+03  0.46429384261E+03  0.99402348045E+02 0.  0.
        -11    1    4    4    0    0 -0.11976192031E+03 -0.29302428797E+01  0.72958884739E+02  0.14026582885E+03  0.00000000000E+00 0.  1.
         11    1    4    4    0    0 -0.20574294568E+03 -0.13283321224E+03  0.21217759479E+03  0.32402801376E+03  0.00000000000E+00 0. -1.
        -13    1    3    3    0    0  0.21060970992E+03  0.15430751832E+03  0.24092376663E+03  0.35526260914E+03  0.00000000000E+00 0. -1.
         13    1    3    3    0    0  0.88996005851E+02  0.17792890931E+02  0.14194746467E+03  0.16848133057E+03  0.00000000000E+00 0.  1.
         21    1    1    2  503  501  0.34084229409E+02  0.66332909968E+01  0.22141480998E+01  0.34794219285E+02  0.00000000000E+00 0.  1.
         -1    1    1    2    0  502 -0.81850791903E+01 -0.42970245127E+02 -0.82273461670E+02  0.93179182132E+02  0.00000000000E+00 0.  1.
<scales pt_clust_5="13000.00000" pt_clust_6="13000.00000" pt_clust_7="13000.00000" pt_clust_8="13000.00000" pt_clust_9="34.72370" pt_clust_10="40.80666"></scales>
<clustering>
<clus scale="   34.724">  2  9  1 -1</clus>
<clus scale="   40.807">  2 10  1 -1</clus>
<clus scale="   91.297">  7  8 -1 -1</clus>
<clus scale="   99.402">  5  6 -1 -1</clus>
<clus scale="  359.762">  1  7  2 -1</clus>
<clus scale="   34.724">  2  5  1 -1</clus>
</clustering>
</event>
<event>
10    2  0.2421970E-006  0.2122725E+03  0.7546771E-02  0.1171730E+00
         21   -1    0    0  501  502  0.00000000000E+00  0.00000000000E+00  0.39963053550E+03  0.39963053550E+03  0.00000000000E+00 0.  1.
          3   -1    0    0  503    0 -0.00000000000E+00 -0.00000000000E+00 -0.22520239415E+03  0.22520239415E+03  0.00000000000E+00 0. -1.
         23    2    1    2    0    0 -0.85201253887E+01 -0.38204531804E+02 -0.26214574694E+02  0.10185940106E+03  0.90310325385E+02 0.  0.
         23    2    1    2    0    0  0.19732182264E+03 -0.15867391867E+02  0.14974613475E+02  0.21856282190E+03  0.91420961778E+02 0.  0.
        -11    1    3    3    0    0 -0.44520297572E+02 -0.22533295666E+02  0.70574490018E+01  0.50394582009E+02  0.00000000000E+00 0. -1.
         11    1    3    3    0    0  0.36000172183E+02 -0.15671236138E+02 -0.33272023695E+02  0.51464819052E+02  0.00000000000E+00 0.  1.
        -13    1    4    4    0    0  0.11188682044E+03 -0.42904418601E+01 -0.36961971486E+02  0.11791206815E+03  0.00000000000E+00 0. -1.
         13    1    4    4    0    0  0.85435002202E+02 -0.11576950007E+02  0.51936584961E+02  0.10065075375E+03  0.00000000000E+00 0.  1.
         21    1    1    2  503  502 -0.19630222182E+02 -0.35282470581E+02  0.70096903339E+02  0.80893598084E+02  0.00000000000E+00 0. -1.
          3    1    1    2  501    0 -0.16917147507E+03  0.89354394253E+02  0.11557119923E+03  0.22351710861E+03  0.00000000000E+00 0. -1.
<scales pt_clust_5="13000.00000" pt_clust_6="13000.00000" pt_clust_7="13000.00000" pt_clust_8="13000.00000" pt_clust_9="40.37571" pt_clust_10="191.57723"></scales>
<clustering>
<clus scale="   40.376">  1  9  2 -1</clus>
<clus scale="   90.310">  5  6 -1 -1</clus>
<clus scale="   91.421">  7  8 -1 -1</clus>
<clus scale="  100.319">  2  5  1 -1</clus>
<clus scale="  191.577">  1 10  2 -1</clus>
<clus scale="   40.376">  1  5  2 -1</clus>
</clustering>
</event>
<event>
10    2  0.2421970E-006  0.2419013E+03  0.7546771E-02  0.1118672E+00
         21   -1    0    0  503  502  0.00000000000E+00  0.00000000000E+00  0.93006878317E+02  0.93006878317E+02  0.00000000000E+00 0. -1.
          2   -1    0    0  502    0 -0.00000000000E+00 -0.00000000000E+00 -0.95628775304E+03  0.95628775304E+03  0.00000000000E+00 0. -1.
         23    2    1    2    0    0 -0.23550688685E+03  0.58493996599E+02 -0.49560204898E+03  0.55948450710E+03  0.92284783922E+02 0.  0.
         23    2    1    2    0    0  0.18622976736E+03 -0.85918949361E+02 -0.32949870299E+03  0.39842462487E+03  0.90051065064E+02 0.  0.
        -11    1    3    3    0    0 -0.54748824498E+02  0.52698675326E+02 -0.11145814567E+03  0.13489811860E+03  0.00000000000E+00 0.  1.
         11    1    3    3    0    0 -0.18075806235E+03  0.57953212735E+01 -0.38414390331E+03  0.42458638850E+03  0.00000000000E+00 0. -1.
        -13    1    4    4    0    0  0.15140032847E+03 -0.10402558550E+03 -0.25580485352E+03  0.31492777741E+03  0.00000000000E+00 0. -1.
         13    1    4    4    0    0  0.34829438892E+02  0.18106636142E+02 -0.73693849470E+02  0.83496847459E+02  0.00000000000E+00 0.  1.
         21    1    1    2  503  501  0.80946427472E+01  0.32040602249E+02 -0.37439770352E+02  0.49938560629E+02  0.00000000000E+00 0.  1.
          2    1    1    2  501    0  0.41182476738E+02 -0.46156494870E+01 -0.74035239894E+00  0.41446938755E+02  0.00000000000E+00 0. -1.
<scales pt_clust_5="13000.00000" pt_clust_6="13000.00000" pt_clust_7="13000.00000" pt_clust_8="13000.00000" pt_clust_9="33.04729" pt_clust_10="43.17905"></scales>
<clustering>
<clus scale="   33.047">  1  9  2 -1</clus>
<clus scale="   43.179">  1 10  2 -1</clus>
<clus scale="   90.051">  7  8 -1 -1</clus>
<clus scale="   92.285">  5  6 -1 -1</clus>
<clus scale="  241.058">  1  7  2 -1</clus>
<clus scale="   33.047">  1  5  2 -1</clus>
</clustering>
</event>
<event>
10    2  0.2421970E-006  0.9545401E+02  0.7546771E-02  0.1290997E+00
         -2   -1    0    0    0  501 -0.00000000000E+00  0.00000000000E+00  0.41718471270E+03  0.41718471270E+03  0.00000000000E+00 0.  1.
         21   -1    0    0  503  502  0.00000000000E+00 -0.00000000000E+00 -0.52307482661E+02  0.52307482661E+02  0.00000000000E+00 0. -1.
         23    2    1    2    0    0  0.47688564477E+01  0.24656959677E+02  0.17142353903E+03  0.19671760545E+03  0.93172307623E+02 0.  0.
         23    2    1    2    0    0 -0.78678168016E+01 -0.86773179629E+01  0.11135558491E+03  0.14469423238E+03  0.91646910514E+02 0.  0.
        -13    1    3    3    0    0  0.27366349578E+02 -0.28025348965E+02  0.70311326410E+02  0.80486147227E+02  0.00000000000E+00 0.  1.
         13    1    3    3    0    0 -0.22597493130E+02  0.52682308642E+02  0.10111221262E+03  0.11623145822E+03  0.00000000000E+00 0. -1.
        -13    1    4    4    0    0 -0.27388100980E+02 -0.40037925456E+02  0.89425982840E+02  0.10173568674E+03  0.00000000000E+00 0.  1.
         13    1    4    4    0    0  0.19520284178E+02  0.31360607493E+02  0.21929602069E+02  0.42958545642E+02  0.00000000000E+00 0. -1.
         21    1    1    2  503  501  0.34922847636E+02  0.70235207216E+01  0.81348563191E+02  0.88806102626E+02  0.00000000000E+00 0.  1.
         -2    1    1    2    0  502 -0.31823887282E+02 -0.23003162435E+02  0.74954291255E+00  0.39274254905E+02  0.00000000000E+00 0.  1.
<scales pt_clust_5="13000.00000" pt_clust_6="13000.00000" pt_clust_7="13000.00000" pt_clust_8="13000.00000" pt_clust_9="35.62212" pt_clust_10="37.32431"></scales>
<clustering>
<clus scale="   35.622">  1  9  2 -1</clus>
<clus scale="   37.324">  2 10  1 -1</clus>
<clus scale="   91.647">  7  8 -1 -1</clus>
<clus scale="   93.172">  5  6 -1 -1</clus>
<clus scale="   93.966">  2  7  1 -1</clus>
<clus scale="   37.324">  2  5  1 -1</clus>
</clustering>
</event>
<event>
10    2  0.2421970E-006  0.2138270E+03  0.7546771E-02  0.1138786E+00
         21   -1    0    0  501  502  0.00000000000E+00  0.00000000000E+00  0.64597335611E+02  0.64597335611E+02  0.00000000000E+00 0.  1.
          1   -1    0    0  503    0 -0.00000000000E+00 -0.00000000000E+00 -0.18431929393E+04  0.18431929393E+04  0.00000000000E+00 0. -1.
         23    2    1    2    0    0  0.21394106387E+02 -0.14164728099E+03 -0.57162386458E+03  0.59596135579E+03  0.88850633275E+02 0.  0.
         23    2    1    2    0    0 -0.95793851123E+02  0.28705416390E+03 -0.93301480484E+03  0.98511971181E+03  0.91474945321E+02 0.  0.
        -11    1    3    3    0    0 -0.23916591592E+02 -0.10833613240E+03 -0.41390162316E+03  0.42851286397E+03  0.00000000000E+00 0. -1.
         11    1    3    3    0    0  0.45310697979E+02 -0.33311148591E+02 -0.15772224142E+03  0.16744849182E+03  0.00000000000E+00 0.  1.
        -11    1    4    4    0    0 -0.11242722783E+03  0.23040058767E+03 -0.78310066997E+03  0.82399694882E+03  0.00000000000E+00 0.  1.
         11    1    4    4    0    0  0.16633376704E+02  0.56653576227E+02 -0.14991413487E+03  0.16112276299E+03  0.00000000000E+00 0. -1.
         21    1    1    2  503  502  0.49906558626E+02 -0.11960396138E+03 -0.25582346703E+03  0.28677764637E+03  0.00000000000E+00 0. -1.
          1    1    1    2  501    0  0.24493186110E+02 -0.25802921532E+02 -0.18133467230E+02  0.39931560941E+02  0.00000000000E+00 0. -1.
<scales pt_clust_5="13000.00000" pt_clust_6="13000.00000" pt_clust_7="13000.00000" pt_clust_8="13000.00000" pt_clust_9="139.22837" pt_clust_10="35.57678"></scales>
<clustering>
<clus scale="   35.577">  1 10  2 -1</clus>
<clus scale="   88.851">  5  6 -1 -1</clus>
<clus scale="   91.475">  7  8 -1 -1</clus>
<clus scale="  139.228">  1  9  2 -1</clus>
<clus scale="  212.718">  2  5  1 -1</clus>
<clus scale="   35.577">  1  5  2 -1</clus>
</clustering>
</event>
<event>
10    2  0.2421970E-006  0.9817928E+02  0.7546771E-02  0.1293094E+00
          2   -1    0    0  503    0 -0.00000000000E+00  0.00000000000E+00  0.58588885815E+03  0.58588885815E+03  0.00000000000E+00 0. -1.
         21   -1    0    0  501  502  0.00000000000E+00 -0.00000000000E+00 -0.28350094243E+02  0.28350094243E+02  0.00000000000E+00 0. -1.
         23    2    1    2    0    0  0.92448136438E+01  0.46648361272E+02  0.21115251115E+03  0.22966176346E+03  0.76795875155E+02 0.  0.
         23    2    1    2    0    0  0.21124137754E+02 -0.18955648150E+02  0.14949903004E+03  0.17831585717E+03  0.92957189838E+02 0.  0.
        -11    1    3    3    0    0 -0.27786351489E+02 -0.26725934408E+01  0.80024911303E+02  0.84753823005E+02  0.00000000000E+00 0. -1.
         11    1    3    3    0    0  0.37031165132E+02  0.49320954713E+02  0.13112759985E+03  0.14490794045E+03  0.00000000000E+00 0.  1.
        -11    1    4    4    0    0  0.17808802354E+02  0.20447828026E+02  0.13254779328E+03  0.13529295849E+03  0.00000000000E+00 0.  1.
         11    1    4    4    0    0  0.33153354000E+01 -0.39403476176E+02  0.16951236762E+02  0.43022898686E+02  0.00000000000E+00 0. -1.
         21    1    1    2  503  502 -0.15479916674E+01 -0.31290035015E+02  0.82609131216E+02  0.88350048838E+02  0.00000000000E+00 0. -1.
          2    1    1    2  501    0 -0.28820959731E+02  0.35973218920E+01  0.11427809149E+03  0.11791128292E+03  0.00000000000E+00 0. -1.
<scales pt_clust_5="13000.00000" pt_clust_6="13000.00000" pt_clust_7="13000.00000" pt_clust_8="13000.00000" pt_clust_9="31.25115" pt_clust_10="29.04461"></scales>
<clustering>
<clus scale="   29.045">  2 10  1 -1</clus>
<clus scale="   31.251">  1  9  2 -1</clus>
<clus scale="   76.796">  5  6 -1 -1</clus>
<clus scale="   83.041">  1  5  2 -1</clus>
<clus scale="   92.957">  7  8 -1 -1</clus>
<clus scale="   29.045">  2  5  1 -1</clus>
</clustering>
</event>
<event>
10    2  0.2421970E-006  0.1602312E+03  0.7546771E-02  0.1204578E+00
          1   -1    0    0  503    0 -0.00000000000E+00  0.00000000000E+00  0.69927052591E+03  0.69927052591E+03  0.00000000000E+00 0. -1.
         21   -1    0    0  501  502  0.00000000000E+00 -0.00000000000E+00 -0.10627271660E+03  0.10627271660E+03  0.00000000000E+00 0.  1.
         23    2    1    2    0    0 -0.64450814324E+02  0.29141008691E+01  0.32289712052E+03  0.34206003700E+03  0.92628931859E+02 0.  0.
         23    2    1    2    0    0 -0.73057419628E+02 -0.70952599381E+02  0.25606312198E+03  0.29059602636E+03  0.92228358862E+02 0.  0.
        -11    1    3    3    0    0  0.18166211105E+02  0.20265846231E+02  0.58681630263E+02  0.64685774941E+02  0.00000000000E+00 0.  1.
         11    1    3    3    0    0 -0.82617025429E+02 -0.17351745362E+02  0.26421549026E+03  0.27737426206E+03  0.00000000000E+00 0. -1.
        -13    1    4    4    0    0 -0.16073345995E+02  0.18134688010E+02  0.18272211281E+02  0.30349515084E+02  0.00000000000E+00 0.  1.
         13    1    4    4    0    0 -0.56984073633E+02 -0.89087287391E+02  0.23779091070E+03  0.26024651128E+03  0.00000000000E+00 0. -1.
         21    1    1    2  503  502  0.13035616926E+03  0.31357176177E+02  0.18116992725E+02  0.13529312173E+03  0.00000000000E+00 0.  1.
          1    1    1    2  501    0  0.71520646966E+01  0.36681322335E+02 -0.40794259259E+01  0.37594057423E+02  0.00000000000E+00 0. -1.
<scales pt_clust_5="13000.00000" pt_clust_6="13000.00000" pt_clust_7="13000.00000" pt_clust_8="13000.00000" pt_clust_9="131.02656" pt_clust_10="37.37207"></scales>
<clustering>
<clus scale="   37.372">  2 10  1 -1</clus>
<clus scale="   92.228">  7  8 -1 -1</clus>
<clus scale="   92.629">  5  6 -1 -1</clus>
<clus scale="  112.608">  1  5  2 -1</clus>
<clus scale="  131.027">  2  9  1 -1</clus>
<clus scale="   37.372">  2  5  1 -1</clus>
</clustering>
</event>
<event>
10    2  0.2421970E-006  0.3324644E+03  0.7546771E-02  0.1115200E+00
         -4   -1    0    0    0  501 -0.00000000000E+00  0.00000000000E+00  0.53272382353E+03  0.53272382353E+03  0.00000000000E+00 0.  1.
         21   -1    0    0  501  502  0.00000000000E+00 -0.00000000000E+00 -0.66651919668E+03  0.66651919668E+03  0.00000000000E+00 0.  1.
         23    2    1    2    0    0 -0.12680646845E+02  0.43704252359E+02  0.27149300955E+03  0.28978518109E+03  0.90532516067E+02 0.  0.
         23    2    1    2    0    0  0.17370698056E+03  0.23978501659E+03  0.82535185466E+02  0.32059970091E+03  0.91110603724E+02 0.  0.
        -11    1    3    3    0    0  0.66003785070E+01  0.63595207581E+02  0.23738576685E+03  0.24584531260E+03  0.00000000000E+00 0.  1.
         11    1    3    3    0    0 -0.19281025352E+02 -0.19890955222E+02  0.34107242697E+02  0.43939868487E+02  0.00000000000E+00 0. -1.
        -13    1    4    4    0    0  0.11141056820E+03  0.17663772437E+03  0.15495486061E+02  0.20941182026E+03  0.00000000000E+00 0.  1.
         13    1    4    4    0    0  0.62296412356E+02  0.63147292214E+02  0.67039699405E+02  0.11118788065E+03  0.00000000000E+00 0. -1.
         21    1    1    2  503  502 -0.81345001230E+01 -0.50363321805E+02 -0.73397861146E+02  0.89386130336E+02  0.00000000000E+00 0. -1.
         -4    1    1    2    0  503 -0.15289183359E+03 -0.23312594714E+03 -0.41442570702E+03  0.49947200787E+03  0.00000000000E+00 0.  1.
<scales pt_clust_5="13000.00000" pt_clust_6="13000.00000" pt_clust_7="13000.00000" pt_clust_8="13000.00000" pt_clust_9="21.33059" pt_clust_10="323.60144"></scales>
<clustering>
<clus scale="   21.331">  9 10 -1 -1</clus>
<clus scale="   90.533">  5  6 -1 -1</clus>
<clus scale="   91.111">  7  8 -1 -1</clus>
<clus scale="  101.326">  1  5  2 -1</clus>
<clus scale="  323.601">  2  9  1 -1</clus>
<clus scale="  323.601">  2  5  1 -1</clus>
</clustering>
</event>
<event>
10    2  0.2421970E-006  0.1714092E+03  0.7546771E-02  0.1203297E+00
         21   -1    0    0  501  502  0.00000000000E+00  0.00000000000E+00  0.45327361009E+03  0.45327361009E+03  0.00000000000E+00 0. -1.
          1   -1    0    0  503    0 -0.00000000000E+00 -0.00000000000E+00 -0.40043497605E+03  0.40043497605E+03  0.00000000000E+00 0. -1.
         23    2    1    2    0    0  0.25515446759E+02 -0.12580643150E+02 -0.24358985402E+03  0.26148951202E+03  0.90727268852E+02 0.  0.
         23    2    1    2    0    0  0.37339670891E+02  0.14975113230E+03 -0.33868479802E+02  0.18208848362E+03  0.90495797107E+02 0.  0.
        -13    1    3    3    0    0  0.57115871628E+02 -0.95749501524E+01 -0.19526085114E+03  0.20366811839E+03  0.00000000000E+00 0.  1.
         13    1    3    3    0    0 -0.31600424869E+02 -0.30056929980E+01 -0.48329002877E+02  0.57821393631E+02  0.00000000000E+00 0. -1.
        -13    1    4    4    0    0 -0.26805989900E+02  0.77053421593E+02 -0.21362704405E+02  0.84333599550E+02  0.00000000000E+00 0. -1.
         13    1    4    4    0    0  0.64145660791E+02  0.72697710710E+02 -0.12505775397E+02  0.97754884067E+02  0.00000000000E+00 0.  1.
         21    1    1    2  503  502 -0.84832536647E+02  0.18158930087E+00  0.53349260117E+02  0.10021345121E+03  0.00000000000E+00 0. -1.
          1    1    1    2  501    0  0.21977418997E+02 -0.13735207845E+03  0.27694770775E+03  0.30991713929E+03  0.00000000000E+00 0. -1.
<scales pt_clust_5="13000.00000" pt_clust_6="13000.00000" pt_clust_7="13000.00000" pt_clust_8="13000.00000" pt_clust_9="84.83273" pt_clust_10="145.57349"></scales>
<clustering>
<clus scale="   84.833">  1  9  2 -1</clus>
<clus scale="   90.496">  7  8 -1 -1</clus>
<clus scale="   90.727">  5  6 -1 -1</clus>
<clus scale="   94.561">  2  5  1 -1</clus>
<clus scale="  145.573">  1 10  2 -1</clus>
<clus scale="   84.833">  1  5  2 -1</clus>
</clustering>
</event>
<event>
10    2  0.2421970E-006  0.9709421E+02  0.7546771E-02  0.1288014E+00
         -1   -1    0    0    0  501 -0.00000000000E+00  0.00000000000E+00  0.39999756637E+02  0.39999756637E+02  0.00000000000E+00 0.  1.
         21   -1    0    0  503  502  0.00000000000E+00 -0.00000000000E+00 -0.73954229523E+03  0.73954229523E+03  0.00000000000E+00 0. -1.
         23    2    1    2    0    0 -0.52102266287E+02 -0.12971963892E+02 -0.12838380268E+03  0.16766393058E+03  0.93519382093E+02 0.  0.
         23    2    1    2    0    0 -0.17621755347E+02  0.49598471770E+01 -0.21232306356E+03  0.23162347278E+03  0.90737111899E+02 0.  0.
        -11    1    3    3    0    0 -0.75320686250E+02  0.85774630000E+01 -0.96548288473E+02  0.12275321037E+03  0.00000000000E+00 0.  1.
         11    1    3    3    0    0  0.23218419963E+02 -0.21549426892E+02 -0.31835514208E+02  0.44910720210E+02  0.00000000000E+00 0. -1.
        -13    1    4    4    0    0 -0.39452350938E+02  0.12625009369E+02 -0.20214676674E+03  0.20634726594E+03  0.00000000000E+00 0.  1.
         13    1    4    4    0    0  0.21830595591E+02 -0.76651621916E+01 -0.10176296822E+02  0.25276206841E+02  0.00000000000E+00 0. -1.
         21    1    1    2  503  501  0.91476897051E+02  0.25361975013E+02 -0.30806991829E+03  0.32236365649E+03  0.00000000000E+00 0. -1.
         -1    1    1    2    0  502 -0.21752875417E+02 -0.17349858298E+02 -0.50765754062E+02  0.57890992023E+02  0.00000000000E+00 0.  1.
<scales pt_clust_5="13000.00000" pt_clust_6="13000.00000" pt_clust_7="13000.00000" pt_clust_8="13000.00000" pt_clust_9="83.30332" pt_clust_10="27.82456"></scales>
<clustering>
<clus scale="   27.825">  2 10  1 -1</clus>
<clus scale="   83.303">  2  9  1 -1</clus>
<clus scale="   90.737">  7  8 -1 -1</clus>
<clus scale="   93.519">  5  6 -1 -1</clus>
<clus scale="   94.417">  2  7  1 -1</clus>
<clus scale="   27.825">  2  5  1 -1</clus>
</clustering>
</event>
<event>
10    2  0.2421970E-006  0.1489466E+03  0.7546771E-02  0.1201971E+00
         21   -1    0    0  501  502  0.00000000000E+00  0.00000000000E+00  0.46758312654E+03  0.46758312654E+03  0.00000000000E+00 0. -1.
          2   -1    0    0  503    0 -0.00000000000E+00 -0.00000000000E+00 -0.23747107246E+03  0.23747107246E+03  0.00000000000E+00 0. -1.
         23    2    1    2    0    0 -0.36889492823E+02  0.74386905018E+02 -0.11510570040E+03  0.16871578664E+03  0.91221971462E+02 0.  0.
         23    2    1    2    0    0  0.16571950667E+03 -0.14446335151E+03  0.20069200184E+03  0.31103449028E+03  0.90180705910E+02 0.  0.
        -11    1    4    4    0    0  0.12140596518E+03 -0.14987920603E+03  0.16643572324E+03  0.25476270283E+03  0.00000000000E+00 0. -1.
         11    1    4    4    0    0  0.44313541488E+02  0.54158545154E+01  0.34256278602E+02  0.56271787452E+02  0.00000000000E+00 0.  1.
        -11    1    3    3    0    0  0.59489678790E+01  0.76483038631E+02 -0.92701106457E+02  0.12032680730E+03  0.00000000000E+00 0.  1.
         11    1    3    3    0    0 -0.42838460702E+02 -0.20961336131E+01 -0.22404593941E+02  0.48388979335E+02  0.00000000000E+00 0. -1.
         21    1    1    2  503  502 -0.33507189483E+02  0.11732140670E+02 -0.78272354261E+01  0.36354373687E+02  0.00000000000E+00 0.  1.
          2    1    1    2  501    0 -0.95322824365E+02  0.58344305826E+02  0.15235298806E+03  0.18894954840E+03  0.00000000000E+00 0. -1.
<scales pt_clust_5="13000.00000" pt_clust_6="13000.00000" pt_clust_7="13000.00000" pt_clust_8="13000.00000" pt_clust_9="35.50176" pt_clust_10="114.71101"></scales>
<clustering>
<clus scale="   35.502">  2  9  1 -1</clus>
<clus scale="   90.181">  5  6 -1 -1</clus>
<clus scale="   91.222">  7  8 -1 -1</clus>
<clus scale="  114.711">  1 10  2 -1</clus>
<clus scale="  148.311">  1  5  2 -1</clus>
<clus scale="  114.711">  1  5  2 -1</clus>
</clustering>
</event>
<event>
10    2  0.2421970E-006  0.5444846E+03  0.7546771E-02  0.1054859E+00
         21   -1    0    0  501  502  0.00000000000E+00  0.00000000000E+00  0.14571980407E+04  0.14571980407E+04  0.00000000000E+00 0.  1.
         -1   -1    0    0    0  501 -0.00000000000E+00 -0.00000000000E+00 -0.25853667392E+03  0.25853667392E+03  0.00000000000E+00 0.  1.
         23    2    1    2    0    0 -0.17177502107E+02 -0.69713770197E+02  0.71945185450E+02  0.13612615005E+03  0.90549117531E+02 0.  0.
         23    2    1    2    0    0 -0.39490158031E+03  0.39440971203E+03  0.45882424847E+03  0.72785405842E+03  0.88008864894E+02 0.  0.
        -11    1    3    3    0    0 -0.41944471967E+02 -0.39355448545E+00  0.26533289161E+02  0.49633749077E+02  0.00000000000E+00 0.  1.
         11    1    3    3    0    0  0.24766969860E+02 -0.69320215711E+02  0.45411896289E+02  0.86492400978E+02  0.00000000000E+00 0. -1.
        -13    1    4    4    0    0 -0.76512565409E+02  0.61628700245E+02  0.12524151482E+03  0.15917822211E+03  0.00000000000E+00 0. -1.
         13    1    4    4    0    0 -0.31838901490E+03  0.33278101178E+03  0.33358273365E+03  0.56867583631E+03  0.00000000000E+00 0.  1.
         21    1    1    2  503  502  0.79089388570E+02 -0.56538687515E+02  0.16671633377E+03  0.19299246233E+03  0.00000000000E+00 0.  1.
         -1    1    1    2    0  503  0.33298969385E+03 -0.26815725432E+03  0.50117559913E+03  0.65876204385E+03  0.00000000000E+00 0.  1.
<scales pt_clust_5="13000.00000" pt_clust_6="13000.00000" pt_clust_7="13000.00000" pt_clust_8="13000.00000" pt_clust_9="30.79149" pt_clust_10="541.19077"></scales>
<clustering>
<clus scale="   30.791">  9 10 -1 -1</clus>
<clus scale="   88.009">  7  8 -1 -1</clus>
<clus scale="   90.549">  5  6 -1 -1</clus>
<clus scale="  115.560">  2  5  1 -1</clus>
<clus scale="  541.191">  1  9  2 -1</clus>
<clus scale="  541.191">  1  5  2 -1</clus>
</clustering>
</event>
<event>
10    2  0.2421970E-006  0.1753048E+03  0.7546771E-02  0.1187117E+00
          1   -1    0    0  502    0 -0.00000000000E+00  0.00000000000E+00  0.81280580314E+03  0.81280580314E+03  0.00000000000E+00 0. -1.
         21   -1    0    0  503  502  0.00000000000E+00 -0.00000000000E+00 -0.11768165458E+03  0.11768165458E+03  0.00000000000E+00 0. -1.
         23    2    1    2    0    0 -0.62582743446E+02 -0.56583606158E+02  0.19224038554E+03  0.22984343837E+03  0.93559265001E+02 0.  0.
         23    2    1    2    0    0  0.19437321087E+03  0.10475068899E+03  0.50257168147E+03  0.55645053986E+03  0.91133179168E+02 0.  0.
        -11    1    3    3    0    0 -0.33912417563E+01 -0.47035165518E+02  0.27633771511E+02  0.54657411610E+02  0.00000000000E+00 0.  1.
         11    1    3    3    0    0 -0.59191501690E+02 -0.95484406401E+01  0.16460661403E+03  0.17518602676E+03  0.00000000000E+00 0. -1.
        -13    1    4    4    0    0  0.47769745503E+02 -0.13587445543E+02  0.87297886962E+02  0.10043648904E+03  0.00000000000E+00 0.  1.
         13    1    4    4    0    0  0.14660346537E+03  0.11833813454E+03  0.41527379450E+03  0.45601405082E+03  0.00000000000E+00 0. -1.
         21    1    1    2  503  501 -0.67161813740E+02 -0.30431828984E+02  0.15801545488E+02  0.75408847491E+02  0.00000000000E+00 0. -1.
          1    1    1    2  501    0 -0.64628653685E+02 -0.17735253852E+02 -0.15489463935E+02  0.68784631999E+02  0.00000000000E+00 0. -1.
<scales pt_clust_5="13000.00000" pt_clust_6="13000.00000" pt_clust_7="13000.00000" pt_clust_8="13000.00000" pt_clust_9="31.66074" pt_clust_10="153.39286"></scales>
<clustering>
<clus scale="   31.661">  9 10 -1 -1</clus>
<clus scale="   91.133">  7  8 -1 -1</clus>
<clus scale="   93.559">  5  6 -1 -1</clus>
<clus scale="  125.983">  1  5  2 -1</clus>
<clus scale="  153.393">  2  9  1 -1</clus>
<clus scale="  153.393">  2  5  1 -1</clus>
</clustering>
</event>
<event>
10    2  0.2421970E-006  0.9301969E+02  0.7546771E-02  0.1295944E+00
         21   -1    0    0  503  502  0.00000000000E+00  0.00000000000E+00  0.84104311910E+02  0.84104311910E+02  0.00000000000E+00 0.  1.
          2   -1    0    0  502    0 -0.00000000000E+00 -0.00000000000E+00 -0.39608029163E+03  0.39608029163E+03  0.00000000000E+00 0. -1.
         23    2    1    2    0    0 -0.20933433919E+02 -0.36509964338E+02 -0.13984129267E+03  0.17283948924E+03  0.92448449171E+02 0.  0.
         23    2    1    2    0    0 -0.35234480243E+02 -0.57877611731E+02 -0.40202728363E+02  0.12114481675E+03  0.92024565850E+02 0.  0.
        -11    1    3    3    0    0  0.71878862775E+01 -0.56693185881E+02 -0.12007096359E+03  0.13297676237E+03  0.00000000000E+00 0.  1.
         11    1    3    3    0    0 -0.28121320197E+02  0.20183221543E+02 -0.19770329087E+02  0.39862726872E+02  0.00000000000E+00 0. -1.
        -11    1    4    4    0    0 -0.25943032507E+02 -0.11227277431E+02  0.26814372627E+02  0.38962844783E+02  0.00000000000E+00 0.  1.
         11    1    4    4    0    0 -0.92914477352E+01 -0.46650334300E+02 -0.67017100990E+02  0.82181971967E+02  0.00000000000E+00 0. -1.
         21    1    1    2  503  501  0.30830681144E+02  0.77535471920E+01 -0.78236883550E+01  0.32739250042E+02  0.00000000000E+00 0.  1.
          2    1    1    2  501    0  0.25337233018E+02  0.86634028877E+02 -0.12410827033E+03  0.15346104750E+03  0.00000000000E+00 0. -1.
<scales pt_clust_5="13000.00000" pt_clust_6="13000.00000" pt_clust_7="13000.00000" pt_clust_8="13000.00000" pt_clust_9="31.79070" pt_clust_10="93.72875"></scales>
<clustering>
<clus scale="   31.791">  1  9  2 -1</clus>
<clus scale="   92.025">  7  8 -1 -1</clus>
<clus scale="   92.448">  5  6 -1 -1</clus>
<clus scale="   93.729">  1 10  2 -1</clus>
<clus scale="   92.598">  1  7  2 -1</clus>
<clus scale="   31.791">  1  5  2 -1</clus>
</clustering>
</event>
<event>
10    2  0.2421970E-006  0.9733023E+02  0.7546771E-02  0.1286439E+00
         21   -1    0    0  503  502  0.00000000000E+00  0.00000000000E+00  0.12076917943E+03  0.12076917943E+03  0.00000000000E+00 0.  1.
         -1   -1    0    0    0  501 -0.00000000000E+00 -0.00000000000E+00 -0.30962248543E+03  0.30962248543E+03  0.00000000000E+00 0.  1.
         23    2    1    2    0    0 -0.29527904135E+02 -0.38362884590E+02 -0.18975105130E+03  0.21698002825E+03  0.93441228339E+02 0.  0.
         23    2    1    2    0    0 -0.33210153857E+02 -0.31529094982E+02 -0.10967924183E+02  0.10391016445E+03  0.92628444692E+02 0.  0.
        -13    1    3    3    0    0 -0.60354845789E+02 -0.90209157096E+01 -0.13011919265E+03  0.14371878314E+03  0.00000000000E+00 0.  1.
         13    1    3    3    0    0  0.30826941654E+02 -0.29341968881E+02 -0.59631858647E+02  0.73261245111E+02  0.00000000000E+00 0. -1.
        -13    1    4    4    0    0 -0.20371597509E+02  0.75716175469E+01 -0.45346612746E+02  0.50285650686E+02  0.00000000000E+00 0. -1.
         13    1    4    4    0    0 -0.12838556348E+02 -0.39100712529E+02  0.34378688563E+02  0.53624513767E+02  0.00000000000E+00 0.  1.
         21    1    1    2  503  501  0.13303062265E+02  0.44947140964E+02  0.24228826271E+02  0.52766020970E+02  0.00000000000E+00 0.  1.
         -1    1    1    2    0  502  0.49434995726E+02  0.24944838609E+02 -0.12363156793E+02  0.56735451189E+02  0.00000000000E+00 0.  1.
<scales pt_clust_5="13000.00000" pt_clust_6="13000.00000" pt_clust_7="13000.00000" pt_clust_8="13000.00000" pt_clust_9="46.87448" pt_clust_10="64.69345"></scales>
<clustering>
<clus scale="   46.874">  1  9  2 -1</clus>
<clus scale="   64.693">  1 10  2 -1</clus>
<clus scale="   92.628">  7  8 -1 -1</clus>
<clus scale="   93.441">  5  6 -1 -1</clus>
<clus scale="   96.550">  1  7  2 -1</clus>
<clus scale="   46.874">  1  5  2 -1</clus>
</clustering>
</event>
<event>
10    2  0.2421970E-006  0.3631025E+03  0.7546771E-02  0.1092612E+00
         21   -1    0    0  503  502  0.00000000000E+00  0.00000000000E+00  0.48785760591E+03  0.48785760591E+03  0.00000000000E+00 0.  1.
          2   -1    0    0  502    0 -0.00000000000E+00 -0.00000000000E+00 -0.10196332878E+04  0.10196332878E+04  0.00000000000E+00 0.  1.
         23    2    1    2    0    0  0.87173134720E+02 -0.58681087003E+02 -0.43429025874E+03  0.45604890790E+03  0.91268571615E+02 0.  0.
         23    2    1    2    0    0  0.23859777039E+03 -0.97541444342E+02 -0.45530249815E+03  0.53158315778E+03  0.94005635001E+02 0.  0.
        -11    1    4    4    0    0  0.39401292772E+02  0.16926114364E+02 -0.51675159447E+02  0.67151152808E+02  0.00000000000E+00 0. -1.
         11    1    4    4    0    0  0.19919647762E+03 -0.11446755871E+03 -0.40362733870E+03  0.46443200497E+03  0.00000000000E+00 0.  1.
        -13    1    3    3    0    0 -0.12829990015E+02 -0.33763704284E+02 -0.11449733984E+03  0.12005930702E+03  0.00000000000E+00 0. -1.
         13    1    3    3    0    0  0.10000312474E+03 -0.24917382719E+02 -0.31979291890E+03  0.33598960088E+03  0.00000000000E+00 0.  1.
         21    1    1    2  503  501 -0.15331348293E+03  0.19352022619E+02  0.17692019377E+03  0.23490483135E+03  0.00000000000E+00 0.  1.
          2    1    1    2  501    0 -0.17245742217E+03  0.13687050873E+03  0.18089688120E+03  0.28495399672E+03  0.00000000000E+00 0.  1.
<scales pt_clust_5="13000.00000" pt_clust_6="13000.00000" pt_clust_7="13000.00000" pt_clust_8="13000.00000" pt_clust_9="90.57253" pt_clust_10="90.57253"></scales>
<clustering>
<clus scale="   90.573">  9 10 -1 -1</clus>
<clus scale="   91.269">  7  8 -1 -1</clus>
<clus scale="   94.006">  5  6 -1 -1</clus>
<clus scale="  139.185">  2  7  1 -1</clus>
<clus scale="  359.155">  2  5  1 -1</clus>
<clus scale="  363.103">  1  5  2 -1</clus>
</clustering>
</event>
<event>
10    2  0.2421970E-006  0.1047702E+03  0.7546771E-02  0.1270658E+00
         21   -1    0    0  501  502  0.00000000000E+00  0.00000000000E+00  0.46086072110E+02  0.46086072110E+02  0.00000000000E+00 0.  1.
          1   -1    0    0  503    0 -0.00000000000E+00 -0.00000000000E+00 -0.45432907741E+03  0.45432907741E+03  0.00000000000E+00 0. -1.
         23    2    1    2    0    0 -0.63771856433E+01  0.62171860444E+02 -0.19729412150E+03  0.22645326765E+03  0.91924443562E+02 0.  0.
         23    2    1    2    0    0  0.35407501771E+02 -0.35504904537E+02 -0.10426938927E+03  0.14789330432E+03  0.92119674857E+02 0.  0.
        -11    1    4    4    0    0  0.53831156057E+02 -0.46966196524E+02 -0.44157057306E+02  0.83984895596E+02  0.00000000000E+00 0. -1.
         11    1    4    4    0    0 -0.18423654286E+02  0.11461291987E+02 -0.60112331967E+02  0.63908408725E+02  0.00000000000E+00 0.  1.
        -11    1    3    3    0    0 -0.43479717448E+02  0.11659734092E+02 -0.55760290209E+02  0.71663415999E+02  0.00000000000E+00 0.  1.
         11    1    3    3    0    0  0.37102531805E+02  0.50512126351E+02 -0.14153383129E+03  0.15478985165E+03  0.00000000000E+00 0. -1.
         21    1    1    2  503  502  0.79363094132E+01 -0.21163512115E+02 -0.70565590658E+02  0.74097110855E+02  0.00000000000E+00 0.  1.
          1    1    1    2  501    0 -0.36966625541E+02 -0.55034437913E+01 -0.36113903872E+02  0.51971466694E+02  0.00000000000E+00 0. -1.
<scales pt_clust_5="13000.00000" pt_clust_6="13000.00000" pt_clust_7="13000.00000" pt_clust_8="13000.00000" pt_clust_9="22.60264" pt_clust_10="36.91636"></scales>
<clustering>
<clus scale="   22.603">  2  9  1 -1</clus>
<clus scale="   36.916">  1 10  2 -1</clus>
<clus scale="   91.924">  7  8 -1 -1</clus>
<clus scale="   92.120">  5  6 -1 -1</clus>
<clus scale="  104.599">  2  7  1 -1</clus>
<clus scale="   36.916">  1  5  2 -1</clus>
</clustering>
</event>
<event>
10    2  0.2421970E-006  0.9910853E+02  0.7546771E-02  0.1282433E+00
         21   -1    0    0  501  502  0.00000000000E+00  0.00000000000E+00  0.46530048621E+02  0.46530048621E+02  0.00000000000E+00 0. -1.
         -1   -1    0    0    0  501 -0.00000000000E+00 -0.00000000000E+00 -0.74287443421E+03  0.74287443421E+03  0.00000000000E+00 0.  1.
         23    2    1    2    0    0 -0.24150860683E+02 -0.45782306781E+02 -0.36017079250E+03  0.37511086364E+03  0.91136581940E+02 0.  0.
         23    2    1    2    0    0 -0.60685488482E+02  0.25410244102E+02 -0.29064723993E+03  0.31147521519E+03  0.90623300433E+02 0.  0.
        -11    1    3    3    0    0  0.49011373000E+01 -0.65057525540E+02 -0.17676668845E+03  0.18842230474E+03  0.00000000000E+00 0.  1.
         11    1    3    3    0    0 -0.29051997983E+02  0.19275218759E+02 -0.18340410404E+03  0.18668855890E+03  0.00000000000E+00 0. -1.
        -13    1    4    4    0    0  0.16859467184E+02  0.18691874255E+02 -0.28538054655E+02  0.38053230617E+02  0.00000000000E+00 0.  1.
         13    1    4    4    0    0 -0.77544955665E+02  0.67183698467E+01 -0.26210918528E+03  0.27342198458E+03  0.00000000000E+00 0. -1.
         21    1    1    2  503  502  0.28209372029E+02 -0.55669177763E+01 -0.70425576009E+01  0.29603325174E+02  0.00000000000E+00 0.  1.
         -1    1    1    2    0  503  0.56626977136E+02  0.25938980455E+02 -0.38483795562E+02  0.73215078826E+02  0.00000000000E+00 0.  1.
<scales pt_clust_5="13000.00000" pt_clust_6="13000.00000" pt_clust_7="13000.00000" pt_clust_8="13000.00000" pt_clust_9="20.23264" pt_clust_10="92.18989"></scales>
<clustering>
<clus scale="   20.233">  9 10 -1 -1</clus>
<clus scale="   90.623">  7  8 -1 -1</clus>
<clus scale="   91.137">  5  6 -1 -1</clus>
<clus scale="   92.190">  1  9  2 -1</clus>
<clus scale="   98.637">  1  7  2 -1</clus>
<clus scale="   92.190">  1  5  2 -1</clus>
</clustering>
</event>
<event>
10    2  0.2421970E-006  0.9632164E+02  0.7546771E-02  0.1288567E+00
          2   -1    0    0  502    0 -0.00000000000E+00  0.00000000000E+00  0.46054576479E+03  0.46054576479E+03  0.00000000000E+00 0. -1.
         21   -1    0    0  503  502  0.00000000000E+00 -0.00000000000E+00 -0.49769286387E+02  0.49769286387E+02  0.00000000000E+00 0. -1.
         23    2    1    2    0    0 -0.29622062845E+01 -0.46867345126E+02  0.18457492277E+03  0.21024591273E+03  0.89051215596E+02 0.  0.
         23    2    1    2    0    0 -0.56979900021E+02 -0.49463683067E+00  0.16501483824E+03  0.19627709909E+03  0.89709805008E+02 0.  0.
        -11    1    4    4    0    0 -0.34854115706E-01  0.23856876219E+02  0.11272481312E+03  0.11522167874E+03  0.00000000000E+00 0.  1.
         11    1    4    4    0    0 -0.56945045905E+02 -0.24351513050E+02  0.52290025116E+02  0.81055420347E+02  0.00000000000E+00 0. -1.
        -13    1    3    3    0    0  0.16033548921E+02  0.21239546937E+02  0.29014789788E+02  0.39370687974E+02  0.00000000000E+00 0.  1.
         13    1    3    3    0    0 -0.18995755205E+02 -0.68106892063E+02  0.15556013299E+03  0.17087522476E+03  0.00000000000E+00 0. -1.
         21    1    1    2  503  501  0.23744836663E+02  0.40300414928E+02  0.37607863222E+02  0.60019097691E+02  0.00000000000E+00 0. -1.
          2    1    1    2  501    0  0.36197269642E+02  0.70615670291E+01  0.23578854171E+02  0.43772941670E+02  0.00000000000E+00 0. -1.
<scales pt_clust_5="13000.00000" pt_clust_6="13000.00000" pt_clust_7="13000.00000" pt_clust_8="13000.00000" pt_clust_9="30.66627" pt_clust_10="83.83897"></scales>
<clustering>
<clus scale="   30.666">  9 10 -1 -1</clus>
<clus scale="   83.839">  2  9  1 -1</clus>
<clus scale="   89.051">  7  8 -1 -1</clus>
<clus scale="   89.710">  5  6 -1 -1</clus>
<clus scale="   95.709">  1  7  2 -1</clus>
<clus scale="   83.839">  2  5  1 -1</clus>
</clustering>
</event>
<event>
10    2  0.2421970E-006  0.4714391E+03  0.7546771E-02  0.1039470E+00
         -4   -1    0    0    0  501 -0.00000000000E+00  0.00000000000E+00  0.35505880646E+03  0.35505880646E+03  0.00000000000E+00 0.  1.
         21   -1    0    0  501  502  0.00000000000E+00 -0.00000000000E+00 -0.12554801153E+04  0.12554801153E+04  0.00000000000E+00 0.  1.
         23    2    1    2    0    0  0.18553266715E+03  0.18406282295E+03 -0.12894907224E+03  0.30541152495E+03  0.91361058277E+02 0.  0.
         23    2    1    2    0    0  0.35583752545E+02 -0.50394920395E+03 -0.73755873922E+03  0.89868676710E+03  0.91727901709E+02 0.  0.
        -11    1    4    4    0    0  0.26531419744E+02 -0.10694157446E+03 -0.22277061198E+03  0.24853000250E+03  0.00000000000E+00 0. -1.
         11    1    4    4    0    0  0.90523328004E+01 -0.39700762950E+03 -0.51478812724E+03  0.65015676460E+03  0.00000000000E+00 0.  1.
        -13    1    3    3    0    0  0.11419482723E+03  0.12042246262E+03 -0.12836859892E+03  0.20981068909E+03  0.00000000000E+00 0.  1.
         13    1    3    3    0    0  0.71337839924E+02  0.63640360332E+02 -0.58047332136E+00  0.95600835862E+02  0.00000000000E+00 0. -1.
         21    1    1    2  503  502 -0.73145439604E+02  0.18231118117E+03 -0.53096085299E+02  0.20348664916E+03  0.00000000000E+00 0.  1.
         -4    1    1    2    0  503 -0.14797098009E+03  0.13757519984E+03  0.19182587874E+02  0.20295398059E+03  0.00000000000E+00 0.  1.
<scales pt_clust_5="13000.00000" pt_clust_6="13000.00000" pt_clust_7="13000.00000" pt_clust_8="13000.00000" pt_clust_9="111.66082" pt_clust_10="111.66082"></scales>
<clustering>
<clus scale="   91.361">  7  8 -1 -1</clus>
<clus scale="   91.728">  5  6 -1 -1</clus>
<clus scale="  111.661">  9 10 -1 -1</clus>
<clus scale="  276.854">  1  7  2 -1</clus>
<clus scale="  466.739">  1  5  2 -1</clus>
<clus scale="  471.439">  2  5  1 -1</clus>
</clustering>
</event>
<event>
10    2  0.2421970E-006  0.9281187E+02  0.7546771E-02  0.1296346E+00
          2   -1    0    0  503    0 -0.00000000000E+00  0.00000000000E+00  0.78399696601E+03  0.78399696601E+03  0.00000000000E+00 0. -1.
         21   -1    0    0  501  502  0.00000000000E+00 -0.00000000000E+00 -0.22374096168E+02  0.22374096168E+02  0.00000000000E+00 0.  1.
         23    2    1    2    0    0 -0.12184374922E+02  0.25161605478E+02  0.29322032455E+03  0.30839980030E+03  0.91382234121E+02 0.  0.
         23    2    1    2    0    0  0.18565386005E+02  0.30557145733E+02  0.22532436536E+03  0.24587082841E+03  0.91667780186E+02 0.  0.
        -13    1    3    3    0    0 -0.20123520611E+02 -0.32017813614E+02  0.11902712627E+03  0.12489016477E+03  0.00000000000E+00 0. -1.
         13    1    3    3    0    0  0.79391456882E+01  0.57179419091E+02  0.17419319828E+03  0.18350963552E+03  0.00000000000E+00 0.  1.
        -13    1    4    4    0    0  0.47823272209E+02  0.43234403992E+02  0.12570679627E+03  0.14127447640E+03  0.00000000000E+00 0.  1.
         13    1    4    4    0    0 -0.29257886204E+02 -0.12677258259E+02  0.99617569093E+02  0.10459635201E+03  0.00000000000E+00 0. -1.
         21    1    1    2  503  502  0.88881814934E+01 -0.39930087820E+02  0.19497224422E+03  0.19921743824E+03  0.00000000000E+00 0. -1.
          2    1    1    2  501    0 -0.15269192576E+02 -0.15788663391E+02  0.48105935708E+02  0.52882995225E+02  0.00000000000E+00 0. -1.
<scales pt_clust_5="13000.00000" pt_clust_6="13000.00000" pt_clust_7="13000.00000" pt_clust_8="13000.00000" pt_clust_9="42.23671" pt_clust_10="21.96429"></scales>
<clustering>
<clus scale="   21.964">  2 10  1 -1</clus>
<clus scale="   42.237">  1  9  2 -1</clus>
<clus scale="   91.382">  5  6 -1 -1</clus>
<clus scale="   91.668">  7  8 -1 -1</clus>
<clus scale="   92.530">  1  5  2 -1</clus>
<clus scale="   21.964">  2  5  1 -1</clus>
</clustering>
</event>
<event>
10    2  0.2421970E-006  0.1007694E+03  0.7546771E-02  0.1281492E+00
         -3   -1    0    0    0  501 -0.00000000000E+00  0.00000000000E+00  0.26452189939E+03  0.26452189939E+03  0.00000000000E+00 0.  1.
         21   -1    0    0  503  502  0.00000000000E+00 -0.00000000000E+00 -0.14546118499E+03  0.14546118499E+03  0.00000000000E+00 0.  1.
         23    2    1    2    0    0 -0.46053283243E+01  0.12349580412E+02  0.12520297045E+03  0.15942641714E+03  0.97812460793E+02 0.  0.
         23    2    1    2    0    0  0.76750391773E+02  0.43156299127E+02  0.41804053307E+02  0.13431214295E+03  0.92407164648E+02 0.  0.
        -11    1    3    3    0    0 -0.34694889159E+02 -0.62855395798E+01  0.68814725827E+01  0.35924893966E+02  0.00000000000E+00 0. -1.
         11    1    3    3    0    0  0.30089560834E+02  0.18635119991E+02  0.11832149786E+03  0.12350152317E+03  0.00000000000E+00 0.  1.
        -11    1    4    4    0    0  0.76169748262E+02 -0.54820977530E+01  0.12104620144E+02  0.77320151156E+02  0.00000000000E+00 0.  1.
         11    1    4    4    0    0  0.58064351112E+00  0.48638396880E+02  0.29699433163E+02  0.56991991790E+02  0.00000000000E+00 0. -1.
         21    1    1    2  503  501 -0.26964809904E+02  0.78195429296E+01 -0.11507197579E+02  0.30342409610E+02  0.00000000000E+00 0.  1.
         -3    1    1    2    0  502 -0.45180253544E+02 -0.63325422469E+02 -0.36439111776E+02  0.85902114690E+02  0.00000000000E+00 0.  1.
<scales pt_clust_5="13000.00000" pt_clust_6="13000.00000" pt_clust_7="13000.00000" pt_clust_8="13000.00000" pt_clust_9="28.07572" pt_clust_10="83.37803"></scales>
<clustering>
<clus scale="   28.076">  2  9  1 -1</clus>
<clus scale="   83.378">  2 10  1 -1</clus>
<clus scale="   92.407">  7  8 -1 -1</clus>
<clus scale="   95.532">  2  7  1 -1</clus>
<clus scale="   97.812">  5  6 -1 -1</clus>
<clus scale="   28.076">  2  5  1 -1</clus>
</clustering>
</event>
<event>
10    2  0.2421970E-006  0.1439752E+03  0.7546771E-02  0.1223549E+00
         -2   -1    0    0    0  501 -0.00000000000E+00  0.00000000000E+00  0.23760776471E+03  0.23760776471E+03  0.00000000000E+00 0.  1.
         21   -1    0    0  503  502  0.00000000000E+00 -0.00000000000E+00 -0.37305645953E+03  0.37305645953E+03  0.00000000000E+00 0.  1.
         23    2    1    2    0    0  0.14013341284E+02 -0.44827637605E+02 -0.11478862183E+03  0.15438611827E+03  0.91938865483E+02 0.  0.
         23    2    1    2    0    0  0.34324667688E+02  0.17459345731E+03  0.82945449296E+02  0.21475164419E+03  0.87047475412E+02 0.  0.
        -11    1    4    4    0    0  0.33032479161E+02  0.23407398341E+02 -0.34233366073E+01  0.40629671549E+02  0.00000000000E+00 0. -1.
         11    1    4    4    0    0  0.12921885270E+01  0.15118605897E+03  0.86368785903E+02  0.17412197264E+03  0.00000000000E+00 0.  1.
        -13    1    3    3    0    0 -0.22579942896E+02 -0.54716065345E+02 -0.42857638059E+02  0.73078579406E+02  0.00000000000E+00 0. -1.
         13    1    3    3    0    0  0.36593284180E+02  0.98884277394E+01 -0.71930983770E+02  0.81307538865E+02  0.00000000000E+00 0.  1.
         21    1    1    2  503  501 -0.92732357206E+02 -0.30788605993E+02 -0.99537523109E+01  0.98215607299E+02  0.00000000000E+00 0. -1.
         -2    1    1    2    0  502  0.44394348234E+02 -0.98977213715E+02 -0.93651769982E+02  0.14331085448E+03  0.00000000000E+00 0.  1.
<scales pt_clust_5="13000.00000" pt_clust_6="13000.00000" pt_clust_7="13000.00000" pt_clust_8="13000.00000" pt_clust_9="97.70992" pt_clust_10="114.68039"></scales>
<clustering>
<clus scale="   87.047">  5  6 -1 -1</clus>
<clus scale="   91.939">  7  8 -1 -1</clus>
<clus scale="   97.710">  1  9  2 -1</clus>
<clus scale="  103.803">  1  7  2 -1</clus>
<clus scale="  114.680">  2 10  1 -1</clus>
<clus scale="  114.680">  2  5  1 -1</clus>
</clustering>
</event>
<event>
10    2  0.2421970E-006  0.1353449E+03  0.7546771E-02  0.1219909E+00
          2   -1    0    0  503    0 -0.00000000000E+00  0.00000000000E+00  0.45381442133E+03  0.45381442133E+03  0.00000000000E+00 0. -1.
         21   -1    0    0  501  502  0.00000000000E+00 -0.00000000000E+00 -0.36172958081E+03  0.36172958081E+03  0.00000000000E+00 0. -1.
         23    2    1    2    0    0  0.98634036976E+02 -0.29521436099E+02  0.37554818978E+03  0.39983038765E+03  0.90706712005E+02 0.  0.
         23    2    1    2    0    0 -0.83672461418E+02 -0.88972360677E+02 -0.11856559468E+03  0.19322856174E+03  0.91445694640E+02 0.  0.
        -13    1    4    4    0    0 -0.54657424450E+02  0.39480279970E+01 -0.35828193797E+02  0.65472745806E+02  0.00000000000E+00 0.  1.
         13    1    4    4    0    0 -0.29015036967E+02 -0.92920388674E+02 -0.82737400882E+02  0.12775581594E+03  0.00000000000E+00 0. -1.
        -13    1    3    3    0    0 -0.14732101772E+02 -0.17592959243E+02  0.53947108880E+02  0.58624547708E+02  0.00000000000E+00 0.  1.
         13    1    3    3    0    0  0.11336613875E+03 -0.11928476857E+02  0.32160108090E+03  0.34120583995E+03  0.00000000000E+00 0. -1.
         21    1    1    2  503  502  0.25113680441E+02  0.10713103163E+01 -0.24150740400E+02  0.34858326307E+02  0.00000000000E+00 0. -1.
          2    1    1    2  501    0 -0.40075256000E+02  0.11742248646E+03 -0.14074701418E+03  0.18762672643E+03  0.00000000000E+00 0. -1.
<scales pt_clust_5="13000.00000" pt_clust_6="13000.00000" pt_clust_7="13000.00000" pt_clust_8="13000.00000" pt_clust_9="25.13652" pt_clust_10="121.15261"></scales>
<clustering>
<clus scale="   25.137">  2  9  1 -1</clus>
<clus scale="   90.707">  7  8 -1 -1</clus>
<clus scale="   91.446">  5  6 -1 -1</clus>
<clus scale="  121.153">  2 10  1 -1</clus>
<clus scale="  134.847">  1  7  2 -1</clus>
<clus scale="   25.137">  2  5  1 -1</clus>
</clustering>
</event>
<event>
10    2  0.2421970E-006  0.9323486E+02  0.7546771E-02  0.1295357E+00
         21   -1    0    0  501  502  0.00000000000E+00  0.00000000000E+00  0.49536269963E+03  0.49536269963E+03  0.00000000000E+00 0.  1.
          2   -1    0    0  503    0 -0.00000000000E+00 -0.00000000000E+00 -0.15598473624E+03  0.15598473624E+03  0.00000000000E+00 0. -1.
         23    2    1    2    0    0 -0.12693654567E+02  0.12464127436E+02 -0.10839561336E+03  0.14280074442E+03  0.91246700067E+02 0.  0.
         23    2    1    2    0    0 -0.35622354782E+02 -0.80785038162E+02  0.26881436452E+03  0.29720765287E+03  0.90972808036E+02 0.  0.
        -11    1    4    4    0    0 -0.22430705299E+02 -0.10048323715E+03  0.21355701899E+03  0.23707934927E+03  0.00000000000E+00 0.  1.
         11    1    4    4    0    0 -0.13191649482E+02  0.19698198988E+02  0.55257345524E+02  0.60128303600E+02  0.00000000000E+00 0. -1.
        -13    1    3    3    0    0  0.21818640755E+02 -0.17162215077E+01 -0.10276094552E+03  0.10506574335E+03  0.00000000000E+00 0. -1.
         13    1    3    3    0    0 -0.34512295322E+02  0.14180348944E+02 -0.56346678403E+01  0.37735001077E+02  0.00000000000E+00 0.  1.
         21    1    1    2  503  502  0.39486657277E+02  0.68722031613E+01  0.30319650119E+02  0.50256387281E+02  0.00000000000E+00 0.  1.
          2    1    1    2  501    0  0.88293520715E+01  0.61448707564E+02  0.14863956213E+03  0.16108265129E+03  0.00000000000E+00 0. -1.
<scales pt_clust_5="13000.00000" pt_clust_6="13000.00000" pt_clust_7="13000.00000" pt_clust_8="13000.00000" pt_clust_9="40.08021" pt_clust_10="67.56198"></scales>
<clustering>
<clus scale="   40.080">  1  9  2 -1</clus>
<clus scale="   67.562">  1 10  2 -1</clus>
<clus scale="   90.973">  5  6 -1 -1</clus>
<clus scale="   91.247">  7  8 -1 -1</clus>
<clus scale="   92.967">  1  5  2 -1</clus>
<clus scale="   40.080">  1  5  2 -1</clus>
</clustering>
</event>
<event>
10    2  0.2421970E-006  0.2761374E+03  0.7546771E-02  0.1130853E+00
         21   -1    0    0  503  502  0.00000000000E+00  0.00000000000E+00  0.22548400894E+03  0.22548400894E+03  0.00000000000E+00 0. -1.
          1   -1    0    0  502    0 -0.00000000000E+00 -0.00000000000E+00 -0.59609624507E+03  0.59609624507E+03  0.00000000000E+00 0. -1.
         23    2    1    2    0    0  0.71047260526E+02 -0.84272727388E+01  0.28548780315E+02  0.12316512187E+03  0.96103497512E+02 0.  0.
         23    2    1    2    0    0  0.17442290360E+03  0.14371534873E+03 -0.31867599030E+03  0.40117096491E+03  0.91138935340E+02 0.  0.
        -13    1    3    3    0    0  0.82779288418E+02  0.15171320457E+02  0.41462233223E+02  0.93817356280E+02  0.00000000000E+00 0. -1.
         13    1    3    3    0    0 -0.11732027892E+02 -0.23598593196E+02 -0.12913452908E+02  0.29347765592E+02  0.00000000000E+00 0.  1.
        -13    1    4    4    0    0  0.16547127908E+03  0.96553016713E+02 -0.28125104627E+03  0.34030189577E+03  0.00000000000E+00 0. -1.
         13    1    4    4    0    0  0.89516245244E+01  0.47162332016E+02 -0.37424944025E+02  0.60869069141E+02  0.00000000000E+00 0.  1.
         21    1    1    2  503  501 -0.43984712116E+02 -0.10566126082E+01 -0.10623034856E+02  0.45261685780E+02  0.00000000000E+00 0. -1.
          1    1    1    2  501    0 -0.20148545201E+03 -0.13423146338E+03 -0.69861991291E+02  0.25198248146E+03  0.00000000000E+00 0. -1.
<scales pt_clust_5="13000.00000" pt_clust_6="13000.00000" pt_clust_7="13000.00000" pt_clust_8="13000.00000" pt_clust_9="24.55482" pt_clust_10="266.95197"></scales>
<clustering>
<clus scale="   24.555">  9 10 -1 -1</clus>
<clus scale="   91.139">  7  8 -1 -1</clus>
<clus scale="   96.103">  5  6 -1 -1</clus>
<clus scale="  119.811">  2  5  1 -1</clus>
<clus scale="  266.952">  1  9  2 -1</clus>
<clus scale="  266.952">  1  5  2 -1</clus>
</clustering>
</event>
<event>
10    2  0.2421970E-006  0.3004488E+03  0.7546771E-02  0.1125405E+00
         -4   -1    0    0    0  501 -0.00000000000E+00  0.00000000000E+00  0.34990276918E+03  0.34990276918E+03  0.00000000000E+00 0.  1.
         21   -1    0    0  501  502  0.00000000000E+00 -0.00000000000E+00 -0.44943369991E+03  0.44943369991E+03  0.00000000000E+00 0. -1.
         23    2    1    2    0    0 -0.35401702734E+02 -0.43994995001E+02  0.49005137784E+02  0.11712693939E+03  0.90157508067E+02 0.  0.
         23    2    1    2    0    0 -0.76931608432E+02 -0.24570513548E+03 -0.20395058816E+03  0.34098306984E+03  0.91564870617E+02 0.  0.
        -11    1    3    3    0    0 -0.41340270053E+02  0.19137639551E+01  0.56703946298E+02  0.70199842922E+02  0.00000000000E+00 0. -1.
         11    1    3    3    0    0  0.59385673184E+01 -0.45908758956E+02 -0.76988085142E+01  0.46927096471E+02  0.00000000000E+00 0.  1.
        -11    1    4    4    0    0 -0.84871584777E+02 -0.13371415751E+03 -0.95810961927E+02  0.18510105955E+03  0.00000000000E+00 0.  1.
         11    1    4    4    0    0  0.79399763447E+01 -0.11199097796E+03 -0.10813962623E+03  0.15588201029E+03  0.00000000000E+00 0. -1.
         21    1    1    2  503  502 -0.24218162500E+02  0.95934363118E+02  0.26432858229E+02  0.10241395128E+03  0.00000000000E+00 0. -1.
         -4    1    1    2    0  503  0.13655147367E+03  0.19376576736E+03  0.28981661413E+02  0.23881250859E+03  0.00000000000E+00 0.  1.
<scales pt_clust_5="13000.00000" pt_clust_6="13000.00000" pt_clust_7="13000.00000" pt_clust_8="13000.00000" pt_clust_9="83.78909" pt_clust_10="83.78909"></scales>
<clustering>
<clus scale="   83.789">  9 10 -1 -1</clus>
<clus scale="   90.158">  5  6 -1 -1</clus>
<clus scale="   91.565">  7  8 -1 -1</clus>
<clus scale="  106.382">  1  5  2 -1</clus>
<clus scale="  286.066">  1  7  2 -1</clus>
<clus scale="  300.449">  2  5  1 -1</clus>
</clustering>
</event>
<event>
10    2  0.2421970E-006  0.2127348E+03  0.7546771E-02  0.1166645E+00
          1   -1    0    0  502    0 -0.00000000000E+00  0.00000000000E+00  0.53088133220E+03  0.53088133220E+03  0.00000000000E+00 0. -1.
         21   -1    0    0  503  502  0.00000000000E+00 -0.00000000000E+00 -0.14847490165E+03  0.14847490165E+03  0.00000000000E+00 0.  1.
         23    2    1    2    0    0 -0.49998866821E+02 -0.30519696452E+02  0.12830862999E+03  0.17030074056E+03  0.95435313961E+02 0.  0.
         23    2    1    2    0    0  0.21286130201E+03  0.95693868053E+02  0.20650504857E+03  0.32419939749E+03  0.89407292601E+02 0.  0.
        -13    1    3    3    0    0  0.99685959750E+01  0.24664817327E+02  0.14426519634E+02  0.30263023449E+02  0.00000000000E+00 0. -1.
         13    1    3    3    0    0 -0.59967462796E+02 -0.55184513779E+02  0.11388211035E+03  0.14003771711E+03  0.00000000000E+00 0.  1.
        -13    1    4    4    0    0  0.84477655545E+02  0.17206749541E+02  0.12841027797E+03  0.15466656395E+03  0.00000000000E+00 0. -1.
         13    1    4    4    0    0  0.12838364646E+03  0.78487118511E+02  0.78094770600E+02  0.16953283354E+03  0.00000000000E+00 0.  1.
         21    1    1    2  503  501 -0.62079972360E+02 -0.78678721423E+01  0.19816694127E+02  0.65639376493E+02  0.00000000000E+00 0. -1.
          1    1    1    2  501    0 -0.10078246283E+03 -0.57306299459E+02  0.27776057866E+02  0.11921671930E+03  0.00000000000E+00 0. -1.
<scales pt_clust_5="13000.00000" pt_clust_6="13000.00000" pt_clust_7="13000.00000" pt_clust_8="13000.00000" pt_clust_9="24.74961" pt_clust_10="195.95224"></scales>
<clustering>
<clus scale="   24.750">  9 10 -1 -1</clus>
<clus scale="   89.407">  7  8 -1 -1</clus>
<clus scale="   95.435">  5  6 -1 -1</clus>
<clus scale="  111.979">  1  5  2 -1</clus>
<clus scale="  195.952">  2  9  1 -1</clus>
<clus scale="  195.952">  2  5  1 -1</clus>
</clustering>
</event>
<event>
10    2  0.2421970E-006  0.1941676E+03  0.7546771E-02  0.1177972E+00
         21   -1    0    0  503  502  0.00000000000E+00  0.00000000000E+00  0.98527076967E+02  0.98527076967E+02  0.00000000000E+00 0. -1.
          2   -1    0    0  502    0 -0.00000000000E+00 -0.00000000000E+00 -0.63479137730E+03  0.63479137730E+03  0.00000000000E+00 0. -1.
         23    2    1    2    0    0 -0.70430493618E+02  0.14575137047E+02 -0.81741679181E+02  0.14009404572E+03  0.88157532182E+02 0.  0.
         23    2    1    2    0    0  0.12974190069E+03 -0.15726609668E+03 -0.28795365720E+03  0.36448251278E+03  0.91458228020E+02 0.  0.
        -11    1    3    3    0    0 -0.31140263732E+02 -0.28291812226E+02 -0.29607933244E+01  0.42177114190E+02  0.00000000000E+00 0. -1.
         11    1    3    3    0    0 -0.39290229887E+02  0.42866949273E+02 -0.78780885856E+02  0.97916931533E+02  0.00000000000E+00 0.  1.
        -13    1    4    4    0    0  0.10708012239E+03 -0.76311405894E+02 -0.22037201605E+03  0.25661919012E+03  0.00000000000E+00 0.  1.
         13    1    4    4    0    0  0.22661778299E+02 -0.80954690782E+02 -0.67581641149E+02  0.10786332266E+03  0.00000000000E+00 0. -1.
         21    1    1    2  503  501 -0.39409349689E+02  0.73911828439E+02 -0.10494536010E+03  0.13427428582E+03  0.00000000000E+00 0.  1.
          2    1    1    2  501    0 -0.19902057386E+02  0.68779131190E+02 -0.61623603856E+02  0.94467609939E+02  0.00000000000E+00 0. -1.
<scales pt_clust_5="13000.00000" pt_clust_6="13000.00000" pt_clust_7="13000.00000" pt_clust_8="13000.00000" pt_clust_9="24.44553" pt_clust_10="173.30766"></scales>
<clustering>
<clus scale="   24.446">  9 10 -1 -1</clus>
<clus scale="   88.158">  5  6 -1 -1</clus>
<clus scale="   91.458">  7  8 -1 -1</clus>
<clus scale="  113.775">  2  5  1 -1</clus>
<clus scale="  173.308">  1  9  2 -1</clus>
<clus scale="  173.308">  1  5  2 -1</clus>
</clustering>
</event>
<event>
10    2  0.2421970E-006  0.1639522E+03  0.7546771E-02  0.1184630E+00
         -3   -1    0    0    0  501 -0.00000000000E+00  0.00000000000E+00  0.15439463773E+03  0.15439463773E+03  0.00000000000E+00 0.  1.
         21   -1    0    0  503  502  0.00000000000E+00 -0.00000000000E+00 -0.26828956577E+03  0.26828956577E+03  0.00000000000E+00 0.  1.
         23    2    1    2    0    0  0.40467670952E+02  0.11314517170E+03 -0.25459882660E+02  0.15213047690E+03  0.89755301258E+02 0.  0.
         23    2    1    2    0    0 -0.46567033278E+02 -0.15337821071E+03 -0.77129464595E+02  0.20021006347E+03  0.91879002479E+02 0.  0.
        -11    1    4    4    0    0 -0.62873788763E+02 -0.52241301215E+02 -0.42056595505E+02  0.91929451709E+02  0.00000000000E+00 0.  1.
         11    1    4    4    0    0  0.16306755485E+02 -0.10113690950E+03 -0.35072869090E+02  0.10828061176E+03  0.00000000000E+00 0. -1.
        -13    1    3    3    0    0  0.24583150917E+01  0.48442195430E+02  0.31573520203E+02  0.57875528414E+02  0.00000000000E+00 0. -1.
         13    1    3    3    0    0  0.38009355861E+02  0.64702976275E+02 -0.57033402863E+02  0.94254948485E+02  0.00000000000E+00 0.  1.
         21    1    1    2  503  501  0.21337195328E+02  0.14895551246E+02 -0.26466706796E+02  0.37116572040E+02  0.00000000000E+00 0.  1.
         -3    1    1    2    0  502 -0.15237833002E+02  0.25337487763E+02  0.15161126014E+02  0.33227091097E+02  0.00000000000E+00 0.  1.
<scales pt_clust_5="13000.00000" pt_clust_6="13000.00000" pt_clust_7="13000.00000" pt_clust_8="13000.00000" pt_clust_9="26.02217" pt_clust_10="29.65067"></scales>
<clustering>
<clus scale="   26.022">  2  9  1 -1</clus>
<clus scale="   29.651">  2 10  1 -1</clus>
<clus scale="   89.755">  7  8 -1 -1</clus>
<clus scale="   91.879">  5  6 -1 -1</clus>
<clus scale="  162.772">  1  7  2 -1</clus>
<clus scale="   26.022">  2  5  1 -1</clus>
</clustering>
</event>
<event>
10    2  0.2421970E-006  0.1707460E+03  0.7546771E-02  0.1178097E+00
         21   -1    0    0  501  502  0.00000000000E+00  0.00000000000E+00  0.13193699201E+03  0.13193699201E+03  0.00000000000E+00 0. -1.
          1   -1    0    0  503    0 -0.00000000000E+00 -0.00000000000E+00 -0.11612021412E+04  0.11612021412E+04  0.00000000000E+00 0. -1.
         23    2    1    2    0    0  0.13830987481E+02 -0.11365401243E+03 -0.49276799723E+03  0.51547977519E+03  0.98947303021E+02 0.  0.
         23    2    1    2    0    0  0.78308408201E+01  0.17434835608E+03 -0.60178998739E+03  0.63331088194E+03  0.92047883878E+02 0.  0.
        -11    1    3    3    0    0 -0.18616302139E+02 -0.11716940405E+03 -0.39171947331E+03  0.40929131645E+03  0.00000000000E+00 0. -1.
         11    1    3    3    0    0  0.32447289620E+02  0.35153916264E+01 -0.10104852392E+03  0.10618845874E+03  0.00000000000E+00 0.  1.
        -13    1    4    4    0    0  0.31204622215E+02  0.16079279216E+03 -0.44451259273E+03  0.47372934842E+03  0.00000000000E+00 0.  1.
         13    1    4    4    0    0 -0.23373781395E+02  0.13555563915E+02 -0.15727739465E+03  0.15958153351E+03  0.00000000000E+00 0. -1.
         21    1    1    2  503  502  0.29613972282E+02 -0.30744397235E+02 -0.14323167992E+02  0.45026197452E+02  0.00000000000E+00 0. -1.
          1    1    1    2  501    0 -0.51275800582E+02 -0.29949946416E+02  0.79616003473E+02  0.99322278592E+02  0.00000000000E+00 0. -1.
<scales pt_clust_5="13000.00000" pt_clust_6="13000.00000" pt_clust_7="13000.00000" pt_clust_8="13000.00000" pt_clust_9="42.68730" pt_clust_10="60.67947"></scales>
<clustering>
<clus scale="   42.687">  1  9  2 -1</clus>
<clus scale="   60.679">  1 10  2 -1</clus>
<clus scale="   92.048">  7  8 -1 -1</clus>
<clus scale="   98.947">  5  6 -1 -1</clus>
<clus scale="  166.843">  1  7  2 -1</clus>
<clus scale="   42.687">  1  5  2 -1</clus>
</clustering>
</event>
<event>
10    2  0.2421970E-006  0.1165567E+03  0.7546771E-02  0.1249762E+00
         21   -1    0    0  503  502  0.00000000000E+00  0.00000000000E+00  0.36998511508E+03  0.36998511508E+03  0.00000000000E+00 0.  1.
         -2   -1    0    0    0  501 -0.00000000000E+00 -0.00000000000E+00 -0.73420347052E+02  0.73420347052E+02  0.00000000000E+00 0.  1.
         23    2    1    2    0    0 -0.51372651446E+02 -0.61577549576E+02  0.60838336716E+02  0.13480741903E+03  0.89670469396E+02 0.  0.
         23    2    1    2    0    0  0.70647335931E+02  0.97104776856E+01  0.94900592948E+02  0.15032919757E+03  0.92235598604E+02 0.  0.
        -11    1    3    3    0    0 -0.25897603252E+02 -0.27881667324E+02  0.79873111334E+02  0.88474782515E+02  0.00000000000E+00 0. -1.
         11    1    3    3    0    0 -0.25475048194E+02 -0.33695882253E+02 -0.19034774618E+02  0.46332636510E+02  0.00000000000E+00 0.  1.
        -11    1    4    4    0    0  0.87208326794E+02 -0.29882940614E+01  0.49403842960E+02  0.10027443275E+03  0.00000000000E+00 0.  1.
         11    1    4    4    0    0 -0.16560990863E+02  0.12698771747E+02  0.45496749987E+02  0.50054764825E+02  0.00000000000E+00 0. -1.
         21    1    1    2  503  501 -0.25663661393E+02  0.86806772208E+01  0.39077791492E+02  0.47550514834E+02  0.00000000000E+00 0. -1.
         -2    1    1    2    0  502  0.63889769069E+01  0.43186394670E+02  0.10174804687E+03  0.11071833070E+03  0.00000000000E+00 0.  1.
<scales pt_clust_5="13000.00000" pt_clust_6="13000.00000" pt_clust_7="13000.00000" pt_clust_8="13000.00000" pt_clust_9="27.09202" pt_clust_10="46.05094"></scales>
<clustering>
<clus scale="   27.092">  1  9  2 -1</clus>
<clus scale="   46.051">  1 10  2 -1</clus>
<clus scale="   89.670">  5  6 -1 -1</clus>
<clus scale="   92.236">  7  8 -1 -1</clus>
<clus scale="  114.538">  2  5  1 -1</clus>
<clus scale="   27.092">  1  5  2 -1</clus>
</clustering>
</event>
<event>
10    2  0.2421970E-006  0.1455279E+03  0.7546771E-02  0.1223310E+00
          1   -1    0    0  502    0 -0.00000000000E+00  0.00000000000E+00  0.32369937940E+03  0.32369937940E+03  0.00000000000E+00 0. -1.
         21   -1    0    0  503  502  0.00000000000E+00 -0.00000000000E+00 -0.12755158061E+03  0.12755158061E+03  0.00000000000E+00 0. -1.
         23    2    1    2    0    0  0.43957569675E+02 -0.47475491998E+01  0.12918333640E+03  0.16399070955E+03  0.90828471643E+02 0.  0.
         23    2    1    2    0    0 -0.94166923539E+02 -0.90013039905E+02  0.62520293434E+02  0.17066711014E+03  0.90822456205E+02 0.  0.
        -13    1    4    4    0    0 -0.40398939823E+02 -0.80272005434E+02  0.30670488227E+01  0.89917050573E+02  0.00000000000E+00 0.  1.
         13    1    4    4    0    0 -0.53767983716E+02 -0.97410344706E+01  0.59453244611E+02  0.80750059568E+02  0.00000000000E+00 0. -1.
        -13    1    3    3    0    0  0.17242225470E+02  0.41581409233E+02  0.41164881905E+02  0.60998815031E+02  0.00000000000E+00 0.  1.
         13    1    3    3    0    0  0.26715344204E+02 -0.46328958432E+02  0.88018454494E+02  0.10299189452E+03  0.00000000000E+00 0. -1.
         21    1    1    2  503  501  0.46116385834E+02  0.66117423385E+02 -0.14642527431E+02  0.81930692216E+02  0.00000000000E+00 0. -1.
          1    1    1    2  501    0  0.40929680297E+01  0.28643165719E+02  0.19086696388E+02  0.34662448106E+02  0.00000000000E+00 0. -1.
<scales pt_clust_5="13000.00000" pt_clust_6="13000.00000" pt_clust_7="13000.00000" pt_clust_8="13000.00000" pt_clust_9="27.28194" pt_clust_10="122.48798"></scales>
<clustering>
<clus scale="   27.282">  9 10 -1 -1</clus>
<clus scale="   90.822">  5  6 -1 -1</clus>
<clus scale="   90.828">  7  8 -1 -1</clus>
<clus scale="  101.018">  1  7  2 -1</clus>
<clus scale="  122.488">  2  9  1 -1</clus>
<clus scale="  122.488">  2  5  1 -1</clus>
</clustering>
</event>
<event>
10    2  0.2421970E-006  0.9764752E+02  0.7546771E-02  0.1286129E+00
         21   -1    0    0  503  502  0.00000000000E+00  0.00000000000E+00  0.23276042937E+03  0.23276042937E+03  0.00000000000E+00 0.  1.
         -3   -1    0    0    0  501 -0.00000000000E+00 -0.00000000000E+00 -0.37573226483E+03  0.37573226483E+03  0.00000000000E+00 0.  1.
         23    2    1    2    0    0 -0.21094812912E+02 -0.11463583478E+02 -0.17965861132E+03  0.20235550094E+03  0.89967367754E+02 0.  0.
         23    2    1    2    0    0  0.51976409702E+02 -0.26613610936E+02 -0.16361379381E+03  0.19636508128E+03  0.91542013136E+02 0.  0.
        -11    1    3    3    0    0 -0.16925933411E+02 -0.48949686104E+02 -0.75322913872E+02  0.91411707925E+02  0.00000000000E+00 0. -1.
         11    1    3    3    0    0 -0.41688795009E+01  0.37486102626E+02 -0.10433569744E+03  0.11094379301E+03  0.00000000000E+00 0.  1.
        -13    1    4    4    0    0  0.23341079520E+02  0.33861053370E+02 -0.52952955979E+02  0.67047688069E+02  0.00000000000E+00 0.  1.
         13    1    4    4    0    0  0.28635330182E+02 -0.60474664307E+02 -0.11066083783E+03  0.12931739321E+03  0.00000000000E+00 0. -1.
         21    1    1    2  503  501 -0.16206408613E+02  0.12011449408E+02  0.25920424543E+02  0.32844954034E+02  0.00000000000E+00 0.  1.
         -3    1    1    2    0  502 -0.14675188177E+02  0.26065745007E+02  0.17438014512E+03  0.17692715795E+03  0.00000000000E+00 0.  1.
<scales pt_clust_5="13000.00000" pt_clust_6="13000.00000" pt_clust_7="13000.00000" pt_clust_8="13000.00000" pt_clust_9="20.17232" pt_clust_10="46.36771"></scales>
<clustering>
<clus scale="   20.172">  1  9  2 -1</clus>
<clus scale="   46.368">  1 10  2 -1</clus>
<clus scale="   89.967">  5  6 -1 -1</clus>
<clus scale="   91.542">  7  8 -1 -1</clus>
<clus scale="   96.173">  2  5  1 -1</clus>
<clus scale="   20.172">  1  5  2 -1</clus>
</clustering>
</event>
<event>
10    2  0.2421970E-006  0.1448530E+03  0.7546771E-02  0.1224969E+00
          2   -1    0    0  502    0 -0.00000000000E+00  0.00000000000E+00  0.62527339116E+03  0.62527339116E+03  0.00000000000E+00 0. -1.
         21   -1    0    0  503  502  0.00000000000E+00 -0.00000000000E+00 -0.12878332874E+03  0.12878332874E+03  0.00000000000E+00 0. -1.
         23    2    1    2    0    0  0.36135635723E+02  0.12820099177E+02  0.74671311679E+02  0.12396660493E+03  0.91223764654E+02 0.  0.
         23    2    1    2    0    0 -0.79468685976E+02  0.92515477732E+02  0.47239364031E+03  0.49597953450E+03  0.89249994735E+02 0.  0.
        -11    1    3    3    0    0  0.65535037524E+02  0.11727801800E+02  0.64877609176E+02  0.92959596873E+02  0.00000000000E+00 0.  1.
         11    1    3    3    0    0 -0.29399401801E+02  0.10922973766E+01  0.97937025027E+01  0.31007008055E+02  0.00000000000E+00 0. -1.
        -13    1    4    4    0    0 -0.45822011113E+02  0.10076665584E+03  0.40925104990E+03  0.42395754206E+03  0.00000000000E+00 0. -1.
         13    1    4    4    0    0 -0.33646674864E+02 -0.82511781053E+01  0.63142590418E+02  0.72021992434E+02  0.00000000000E+00 0.  1.
         21    1    1    2  503  501  0.33672503500E+02 -0.21983746710E+02 -0.18726790480E+02  0.44360064169E+02  0.00000000000E+00 0. -1.
          2    1    1    2  501    0  0.96605467533E+01 -0.83351830198E+02 -0.31848099096E+02  0.89750516305E+02  0.00000000000E+00 0. -1.
<scales pt_clust_5="13000.00000" pt_clust_6="13000.00000" pt_clust_7="13000.00000" pt_clust_8="13000.00000" pt_clust_9="34.29732" pt_clust_10="124.38376"></scales>
<clustering>
<clus scale="   34.297">  9 10 -1 -1</clus>
<clus scale="   89.250">  7  8 -1 -1</clus>
<clus scale="   91.224">  5  6 -1 -1</clus>
<clus scale="   98.954">  1  5  2 -1</clus>
<clus scale="  124.384">  2  9  1 -1</clus>
<clus scale="  124.384">  2  5  1 -1</clus>
</clustering>
</event>
<event>
10    2  0.2421970E-006  0.3142924E+03  0.7546771E-02  0.1125178E+00
          1   -1    0    0  503    0 -0.00000000000E+00  0.00000000000E+00  0.87183145799E+03  0.87183145799E+03  0.00000000000E+00 0. -1.
         21   -1    0    0  501  502  0.00000000000E+00 -0.00000000000E+00 -0.21154856938E+03  0.21154856938E+03  0.00000000000E+00 0. -1.
         23    2    1    2    0    0 -0.42002849258E+02  0.67363049021E+01  0.30703142137E+03  0.32074695229E+03  0.82466335807E+02 0.  0.
         23    2    1    2    0    0 -0.56743978221E+02 -0.27398466150E+03  0.12084052906E+03  0.31855522625E+03  0.92668899345E+02 0.  0.
        -11    1    4    4    0    0 -0.52282862740E+02 -0.83782092129E+02  0.12309372775E+02  0.99521140246E+02  0.00000000000E+00 0.  1.
         11    1    4    4    0    0 -0.44611154813E+01 -0.19020256937E+03  0.10853115629E+03  0.21903408601E+03  0.00000000000E+00 0. -1.
        -13    1    3    3    0    0 -0.17052206250E+02 -0.37799679313E+02  0.14998178772E+03  0.15560890123E+03  0.00000000000E+00 0.  1.
         13    1    3    3    0    0 -0.24950643008E+02  0.44535984215E+02  0.15704963366E+03  0.16513805106E+03  0.00000000000E+00 0. -1.
         21    1    1    2  503  502  0.14457800276E+03  0.29104207754E+03  0.18482501520E+03  0.37385635747E+03  0.00000000000E+00 0. -1.
          1    1    1    2  501    0 -0.45831175277E+02 -0.23793720939E+02  0.47585922972E+02  0.70221491358E+02  0.00000000000E+00 0. -1.
<scales pt_clust_5="13000.00000" pt_clust_6="13000.00000" pt_clust_7="13000.00000" pt_clust_8="13000.00000" pt_clust_9="300.32018" pt_clust_10="51.63952"></scales>
<clustering>
<clus scale="   51.640">  2 10  1 -1</clus>
<clus scale="   82.466">  7  8 -1 -1</clus>
<clus scale="   92.669">  5  6 -1 -1</clus>
<clus scale="   93.458">  1  7  2 -1</clus>
<clus scale="  300.320">  1  9  2 -1</clus>
<clus scale="   51.640">  2  5  1 -1</clus>
</clustering>
</event>
<event>
10    2  0.2947791E-006  0.3964186E+03  0.7546771E-02  0.1091604E+00
          2   -1    0    0  502    0 -0.00000000000E+00  0.00000000000E+00  0.67643348195E+03  0.67643348195E+03  0.00000000000E+00 0. -1.
         21   -1    0    0  503  502  0.00000000000E+00 -0.00000000000E+00 -0.51455082806E+03  0.51455082806E+03  0.00000000000E+00 0. -1.
         23    2    1    2    0    0  0.55646849227E+02 -0.27019130467E+02  0.28819692949E+03  0.30828030379E+03  0.90292138642E+02 0.  0.
         23    2    1    2    0    0 -0.29105095430E+03  0.31093214515E+03 -0.21301919922E+03  0.48482096053E+03  0.91020479295E+02 0.  0.
        -13    1    4    4    0    0 -0.22039834714E+03  0.22963678887E+03 -0.20100600854E+03  0.37644641278E+03  0.00000000000E+00 0. -1.
         13    1    4    4    0    0 -0.70652607154E+02  0.81295356276E+02 -0.12013190678E+02  0.10837454775E+03  0.00000000000E+00 0.  1.
        -13    1    3    3    0    0 -0.90943905381E+01 -0.33730795053E+02  0.47660496462E+02  0.59093124788E+02  0.00000000000E+00 0.  1.
         13    1    3    3    0    0  0.64741239765E+02  0.67116645859E+01  0.24053643303E+03  0.24918717901E+03  0.00000000000E+00 0. -1.
         21    1    1    2  503  501  0.32545882857E+02 -0.83120701678E+01 -0.20405187671E+02  0.39302629496E+02  0.00000000000E+00 0. -1.
          2    1    1    2  501    0  0.20285822221E+03 -0.27560094452E+03  0.10711011129E+03  0.35858041619E+03  0.00000000000E+00 0. -1.
<scales pt_clust_5="13000.00000" pt_clust_6="13000.00000" pt_clust_7="13000.00000" pt_clust_8="13000.00000" pt_clust_9="33.59055" pt_clust_10="385.82787"></scales>
<clustering>
<clus scale="   33.591">  2  9  1 -1</clus>
<clus scale="   90.292">  7  8 -1 -1</clus>
<clus scale="   91.020">  5  6 -1 -1</clus>
<clus scale="  109.837">  1  7  2 -1</clus>
<clus scale="  385.828">  2 10  1 -1</clus>
<clus scale="   33.591">  2  5  1 -1</clus>
</clustering>
</event>
<event>
10    2  0.2421970E-006  0.3651888E+03  0.7546771E-02  0.1056606E+00
         21   -1    0    0  501  502  0.00000000000E+00  0.00000000000E+00  0.38397681302E+03  0.38397681302E+03  0.00000000000E+00 0.  1.
          3   -1    0    0  503    0 -0.00000000000E+00 -0.00000000000E+00 -0.90941155034E+03  0.90941155034E+03  0.00000000000E+00 0. -1.
         23    2    1    2    0    0 -0.30380235257E+03 -0.13656675130E+03 -0.33224563387E+03  0.47913312227E+03  0.90747124708E+02 0.  0.
         23    2    1    2    0    0  0.29930207321E+03  0.23424728035E+03 -0.40504460184E+03  0.56319011376E+03  0.93104540024E+02 0.  0.
        -11    1    4    4    0    0  0.51810980440E+02  0.89117301148E+02 -0.87311445737E+02  0.13509093091E+03  0.00000000000E+00 0. -1.
         11    1    4    4    0    0  0.24749109277E+03  0.14512997920E+03 -0.31773315611E+03  0.42809918285E+03  0.00000000000E+00 0.  1.
        -13    1    3    3    0    0 -0.21435271827E+03 -0.10090300981E+03 -0.28865233155E+03  0.37342827119E+03  0.00000000000E+00 0. -1.
         13    1    3    3    0    0 -0.89449634304E+02 -0.35663741490E+02 -0.43593302321E+02  0.10570485108E+03  0.00000000000E+00 0.  1.
         21    1    1    2  503  502  0.24302328087E+02 -0.60345935509E+02  0.45405783115E+02  0.79334231093E+02  0.00000000000E+00 0.  1.
          3    1    1    2  501    0 -0.19802048731E+02 -0.37334593539E+02  0.16644971528E+03  0.17173089624E+03  0.00000000000E+00 0. -1.
<scales pt_clust_5="13000.00000" pt_clust_6="13000.00000" pt_clust_7="13000.00000" pt_clust_8="13000.00000" pt_clust_9="73.56074" pt_clust_10="42.26101"></scales>
<clustering>
<clus scale="   42.261">  1 10  2 -1</clus>
<clus scale="   73.561">  1  9  2 -1</clus>
<clus scale="   90.747">  7  8 -1 -1</clus>
<clus scale="   93.105">  5  6 -1 -1</clus>
<clus scale="  364.595">  2  7  1 -1</clus>
<clus scale="   42.261">  1  5  2 -1</clus>
</clustering>
</event>
<event>
10    2  0.2421970E-006  0.1471583E+03  0.7546771E-02  0.1204048E+00
          2   -1    0    0  503    0 -0.00000000000E+00  0.00000000000E+00  0.67504773103E+03  0.67504773103E+03  0.00000000000E+00 0. -1.
         21   -1    0    0  501  502  0.00000000000E+00 -0.00000000000E+00 -0.83787547624E+02  0.83787547624E+02  0.00000000000E+00 0.  1.
         23    2    1    2    0    0 -0.47606754470E+02 -0.11812972681E+03  0.38727529319E+03  0.41791080090E+03  0.91903478545E+02 0.  0.
         23    2    1    2    0    0  0.10723368532E+03  0.94199600699E+02  0.93679334075E+02  0.19398729331E+03  0.92101163366E+02 0.  0.
        -11    1    3    3    0    0 -0.50776595026E+02 -0.35838259131E+02  0.25190623650E+03  0.25945981463E+03  0.00000000000E+00 0. -1.
         11    1    3    3    0    0  0.31698405561E+01 -0.82291467680E+02  0.13536905669E+03  0.15845098627E+03  0.00000000000E+00 0.  1.
        -13    1    4    4    0    0  0.85911465377E+02  0.55382359904E+02  0.10676520527E+03  0.14780661260E+03  0.00000000000E+00 0.  1.
         13    1    4    4    0    0  0.21322219940E+02  0.38817240794E+02 -0.13085871191E+02  0.46180680710E+02  0.00000000000E+00 0. -1.
         21    1    1    2  503  502  0.81152565643E+00  0.35261503601E+02  0.45960058007E+02  0.57934093089E+02  0.00000000000E+00 0. -1.
          2    1    1    2  501    0 -0.60438456503E+02 -0.11331377489E+02  0.64345498134E+02  0.89003091353E+02  0.00000000000E+00 0. -1.
<scales pt_clust_5="13000.00000" pt_clust_6="13000.00000" pt_clust_7="13000.00000" pt_clust_8="13000.00000" pt_clust_9="35.27084" pt_clust_10="60.74240"></scales>
<clustering>
<clus scale="   35.271">  1  9  2 -1</clus>
<clus scale="   60.742">  2 10  1 -1</clus>
<clus scale="   91.903">  5  6 -1 -1</clus>
<clus scale="   92.101">  7  8 -1 -1</clus>
<clus scale="  147.035">  1  5  2 -1</clus>
<clus scale="   60.742">  2  5  1 -1</clus>
</clustering>
</event>
<event>
10    2  0.2421970E-006  0.3055043E+03  0.7546771E-02  0.1126893E+00
          1   -1    0    0  502    0 -0.00000000000E+00  0.00000000000E+00  0.24653755436E+03  0.24653755436E+03  0.00000000000E+00 0. -1.
         21   -1    0    0  503  502  0.00000000000E+00 -0.00000000000E+00 -0.94485624038E+03  0.94485624038E+03  0.00000000000E+00 0. -1.
         23    2    1    2    0    0  0.33053780504E+02  0.54948176619E+01  0.10862708084E+03  0.14598711367E+03  0.91595028464E+02 0.  0.
         23    2    1    2    0    0 -0.12938652456E+03  0.24890378493E+03 -0.16913745710E+03  0.33899912401E+03  0.87286653040E+02 0.  0.
        -11    1    3    3    0    0  0.83111140886E+01 -0.42252399863E+02  0.57017079962E+02  0.71451293333E+02  0.00000000000E+00 0.  1.
         11    1    3    3    0    0  0.24742666416E+02  0.47747217525E+02  0.51610000877E+02  0.74535820337E+02  0.00000000000E+00 0. -1.
        -13    1    4    4    0    0 -0.77679772250E+02  0.20805221890E+03 -0.10022085425E+03  0.24364747574E+03  0.00000000000E+00 0. -1.
         13    1    4    4    0    0 -0.51706752311E+02  0.40851566030E+02 -0.68916602843E+02  0.95351648276E+02  0.00000000000E+00 0.  1.
         21    1    1    2  503  501  0.93558425235E+01 -0.16153445068E+03 -0.46104743515E+03  0.48861605377E+03  0.00000000000E+00 0. -1.
          1    1    1    2  501    0  0.86976901534E+02 -0.92864151908E+02 -0.17676087461E+03  0.21779150329E+03  0.00000000000E+00 0. -1.
<scales pt_clust_5="13000.00000" pt_clust_6="13000.00000" pt_clust_7="13000.00000" pt_clust_8="13000.00000" pt_clust_9="121.34857" pt_clust_10="121.34857"></scales>
<clustering>
<clus scale="   87.287">  7  8 -1 -1</clus>
<clus scale="   91.595">  5  6 -1 -1</clus>
<clus scale="   97.532">  1  5  2 -1</clus>
<clus scale="  121.349">  9 10 -1 -1</clus>
<clus scale="  287.643">  1  7  2 -1</clus>
<clus scale="  305.504">  2  5  1 -1</clus>
</clustering>
</event>
<event>
10    2  0.2421970E-006  0.1001200E+03  0.7546771E-02  0.1286305E+00
         21   -1    0    0  503  502  0.00000000000E+00  0.00000000000E+00  0.18385703540E+03  0.18385703540E+03  0.00000000000E+00 0.  1.
          3   -1    0    0  502    0 -0.00000000000E+00 -0.00000000000E+00 -0.18060955652E+03  0.18060955652E+03  0.00000000000E+00 0. -1.
         23    2    1    2    0    0 -0.65770142298E+02  0.15655954869E+02 -0.89845478738E+02  0.13724297941E+03  0.78693105206E+02 0.  0.
         23    2    1    2    0    0  0.20854215153E+01  0.76640012480E+01 -0.19620835339E+02  0.93577069076E+02  0.91151548420E+02 0.  0.
        -11    1    3    3    0    0  0.10481211973E+02  0.18898564135E+02 -0.33136989357E+01  0.21863031158E+02  0.00000000000E+00 0. -1.
         11    1    3    3    0    0 -0.76251354270E+02 -0.32426092651E+01 -0.86531779803E+02  0.11537994825E+03  0.00000000000E+00 0.  1.
        -13    1    4    4    0    0 -0.25828869882E+02  0.18230332428E+02  0.24716388683E+02  0.40129483043E+02  0.00000000000E+00 0.  1.
         13    1    4    4    0    0  0.27914291397E+02 -0.10566331180E+02 -0.44337224022E+02  0.53447586033E+02  0.00000000000E+00 0. -1.
         21    1    1    2  503  501  0.24764811683E+02 -0.17857747118E+02  0.65127520437E+02  0.71929054965E+02  0.00000000000E+00 0.  1.
          3    1    1    2  501    0  0.38919909099E+02 -0.54622089997E+01  0.47586272520E+02  0.61717488476E+02  0.00000000000E+00 0. -1.
<scales pt_clust_5="13000.00000" pt_clust_6="13000.00000" pt_clust_7="13000.00000" pt_clust_8="13000.00000" pt_clust_9="20.80992" pt_clust_10="71.81225"></scales>
<clustering>
<clus scale="   20.810">  9 10 -1 -1</clus>
<clus scale="   71.812">  1  9  2 -1</clus>
<clus scale="   78.693">  5  6 -1 -1</clus>
<clus scale="   88.927">  2  5  1 -1</clus>
<clus scale="   91.152">  7  8 -1 -1</clus>
<clus scale="   71.812">  1  5  2 -1</clus>
</clustering>
</event>
<event>
10    2  0.2421970E-006  0.1933070E+03  0.7546771E-02  0.1155954E+00
         21   -1    0    0  503  502  0.00000000000E+00  0.00000000000E+00  0.20165400650E+03  0.20165400650E+03  0.00000000000E+00 0. -1.
          1   -1    0    0  502    0 -0.00000000000E+00 -0.00000000000E+00 -0.47441813456E+03  0.47441813456E+03  0.00000000000E+00 0. -1.
         23    2    1    2    0    0  0.11035298883E+03 -0.12452612981E+03 -0.13990660137E+03  0.23567443687E+03  0.91016723390E+02 0.  0.
         23    2    1    2    0    0  0.28047658497E+02  0.22160084124E+03 -0.82556928149E+02  0.25342899682E+03  0.86700669302E+02 0.  0.
        -13    1    3    3    0    0  0.59899440121E+02 -0.11646586696E+03 -0.12817534128E+03  0.18325162811E+03  0.00000000000E+00 0.  1.
         13    1    3    3    0    0  0.50453548707E+02 -0.80602628515E+01 -0.11731260088E+02  0.52422808754E+02  0.00000000000E+00 0. -1.
        -13    1    4    4    0    0 -0.27262816524E+02  0.77600939884E+02 -0.48404054228E+02  0.95436468404E+02  0.00000000000E+00 0.  1.
         13    1    4    4    0    0  0.55310475021E+02  0.14399990136E+03 -0.34152873921E+02  0.15799252842E+03  0.00000000000E+00 0. -1.
         21    1    1    2  503  501 -0.28508776649E+01 -0.25001218014E+02  0.77593160983E+00  0.25175195640E+02  0.00000000000E+00 0. -1.
          1    1    1    2  501    0 -0.13554976966E+03 -0.72073493419E+02 -0.51076530152E+02  0.16179351174E+03  0.00000000000E+00 0. -1.
<scales pt_clust_5="13000.00000" pt_clust_6="13000.00000" pt_clust_7="13000.00000" pt_clust_8="13000.00000" pt_clust_9="25.11712" pt_clust_10="180.07539"></scales>
<clustering>
<clus scale="   25.117">  9 10 -1 -1</clus>
<clus scale="   86.701">  7  8 -1 -1</clus>
<clus scale="   91.017">  5  6 -1 -1</clus>
<clus scale="  180.075">  1  9  2 -1</clus>
<clus scale="  191.313">  1  7  2 -1</clus>
<clus scale="  180.075">  1  5  2 -1</clus>
</clustering>
</event>
<event>
10    2  0.2421970E-006  0.1909665E+03  0.7546771E-02  0.1163086E+00
         21   -1    0    0  503  502  0.00000000000E+00  0.00000000000E+00  0.10327028303E+04  0.10327028303E+04  0.00000000000E+00 0. -1.
          1   -1    0    0  502    0 -0.00000000000E+00 -0.00000000000E+00 -0.17303159323E+03  0.17303159323E+03  0.00000000000E+00 0. -1.
         23    2    1    2    0    0 -0.44959275297E+02  0.13312423586E+03  0.12346641420E+03  0.20853389468E+03  0.92190190298E+02 0.  0.
         23    2    1    2    0    0 -0.10869540497E+03 -0.19895971377E+03  0.30430758777E+01  0.24399055289E+03  0.90124751451E+02 0.  0.
        -11    1    3    3    0    0  0.12476546984E+02  0.45250845597E+02  0.84298567338E+02  0.96486018195E+02  0.00000000000E+00 0.  1.
         11    1    3    3    0    0 -0.57435822281E+02  0.87873390263E+02  0.39167846862E+02  0.11204787649E+03  0.00000000000E+00 0. -1.
        -11    1    4    4    0    0 -0.36690393261E+02 -0.15183122351E+03  0.15777965848E+02  0.15699633626E+03  0.00000000000E+00 0.  1.
         11    1    4    4    0    0 -0.72005011712E+02 -0.47128490252E+02 -0.12734889970E+02  0.86994216634E+02  0.00000000000E+00 0. -1.
         21    1    1    2  503  501  0.81951037450E+02  0.35037227958E+02  0.29561422106E+03  0.30875774901E+03  0.00000000000E+00 0. -1.
          1    1    1    2  501    0  0.71703642821E+02  0.30798249948E+02  0.43754752595E+03  0.44445222697E+03  0.00000000000E+00 0. -1.
<scales pt_clust_5="13000.00000" pt_clust_6="13000.00000" pt_clust_7="13000.00000" pt_clust_8="13000.00000" pt_clust_9="40.30204" pt_clust_10="173.78367"></scales>
<clustering>
<clus scale="   40.302">  9 10 -1 -1</clus>
<clus scale="   90.125">  7  8 -1 -1</clus>
<clus scale="   92.190">  5  6 -1 -1</clus>
<clus scale="  168.055">  2  5  1 -1</clus>
<clus scale="  173.784">  1  9  2 -1</clus>
<clus scale="  173.784">  1  5  2 -1</clus>
</clustering>
</event>
<event>
10    2  0.3944116E-006  0.1575930E+03  0.7546771E-02  0.1208534E+00
         -4   -1    0    0    0  501 -0.00000000000E+00  0.00000000000E+00  0.36114618086E+03  0.36114618086E+03  0.00000000000E+00 0.  1.
         21   -1    0    0  503  502  0.00000000000E+00 -0.00000000000E+00 -0.47188625429E+03  0.47188625429E+03  0.00000000000E+00 0. -1.
         23    2    1    2    0    0  0.41016117904E+01  0.50115805333E+02  0.63066806917E+02  0.12536701279E+03  0.95974207985E+02 0.  0.
         23    2    1    2    0    0  0.27215247004E+02  0.74921943219E+02  0.22481601368E+03  0.25613810406E+03  0.93330172500E+02 0.  0.
        -13    1    4    4    0    0 -0.33479380770E+02  0.20486962303E+02  0.52914837789E+02  0.65882961525E+02  0.00000000000E+00 0.  1.
         13    1    4    4    0    0  0.60694627774E+02  0.54434980916E+02  0.17190117589E+03  0.19025514253E+03  0.00000000000E+00 0. -1.
        -13    1    3    3    0    0 -0.16451305795E+02  0.69062617278E+02  0.66410137299E+02  0.97214180569E+02  0.00000000000E+00 0.  1.
         13    1    3    3    0    0  0.20552917586E+02 -0.18946811945E+02 -0.33433303821E+01  0.28152832223E+02  0.00000000000E+00 0. -1.
         21    1    1    2  503  501 -0.82201153540E+02 -0.12566069573E+03 -0.22425183519E+03  0.26988242937E+03  0.00000000000E+00 0. -1.
         -4    1    1    2    0  502  0.50884294745E+02  0.62294717904E+00 -0.17437105884E+03  0.18164488893E+03  0.00000000000E+00 0.  1.
<scales pt_clust_5="13000.00000" pt_clust_6="13000.00000" pt_clust_7="13000.00000" pt_clust_8="13000.00000" pt_clust_9="126.98439" pt_clust_10="50.88811"></scales>
<clustering>
<clus scale="   50.888">  2 10  1 -1</clus>
<clus scale="   93.330">  5  6 -1 -1</clus>
<clus scale="   95.974">  7  8 -1 -1</clus>
<clus scale="  108.717">  1  7  2 -1</clus>
<clus scale="  126.984">  2  9  1 -1</clus>
<clus scale="   50.888">  2  5  1 -1</clus>
</clustering>
</event>
<event>
10    2  0.2421970E-006  0.2045738E+03  0.7546771E-02  0.1173304E+00
         21   -1    0    0  501  502  0.00000000000E+00  0.00000000000E+00  0.58482005128E+03  0.58482005128E+03  0.00000000000E+00 0.  1.
         -1   -1    0    0    0  501 -0.00000000000E+00 -0.00000000000E+00 -0.17785486276E+03  0.17785486276E+03  0.00000000000E+00 0.  1.
         23    2    1    2    0    0  0.55923694021E+02 -0.17275631713E+02  0.23797975838E+03  0.26139329268E+03  0.90918540754E+02 0.  0.
         23    2    1    2    0    0  0.97740691574E+02  0.13011631116E+03 -0.65804025728E+02  0.19732193586E+03  0.90123689176E+02 0.  0.
        -13    1    3    3    0    0 -0.16518382513E+02  0.17540712760E+02  0.87949158657E+02  0.91189846328E+02  0.00000000000E+00 0. -1.
         13    1    3    3    0    0  0.72442076534E+02 -0.34816344473E+02  0.15003059973E+03  0.17020344635E+03  0.00000000000E+00 0.  1.
        -13    1    4    4    0    0 -0.12135915228E+02  0.45590999728E+02 -0.20932366607E+02  0.51613793373E+02  0.00000000000E+00 0. -1.
         13    1    4    4    0    0  0.10987660680E+03  0.84525311434E+02 -0.44871659121E+02  0.14570814249E+03  0.00000000000E+00 0.  1.
         21    1    1    2  503  502 -0.10180160048E+03 -0.80268992412E+02  0.13732698649E+03  0.18885279512E+03  0.00000000000E+00 0.  1.
         -1    1    1    2    0  503 -0.51862785115E+02 -0.32571687037E+02  0.97462469380E+02  0.11510689038E+03  0.00000000000E+00 0.  1.
<scales pt_clust_5="13000.00000" pt_clust_6="13000.00000" pt_clust_7="13000.00000" pt_clust_8="13000.00000" pt_clust_9="20.84325" pt_clust_10="186.13920"></scales>
<clustering>
<clus scale="   20.843">  9 10 -1 -1</clus>
<clus scale="   90.124">  7  8 -1 -1</clus>
<clus scale="   90.919">  5  6 -1 -1</clus>
<clus scale="  108.130">  2  5  1 -1</clus>
<clus scale="  186.139">  1  9  2 -1</clus>
<clus scale="  186.139">  1  5  2 -1</clus>
</clustering>
</event>
<event>
10    2  0.2421970E-006  0.1972283E+03  0.7546771E-02  0.1152205E+00
         21   -1    0    0  501  502  0.00000000000E+00  0.00000000000E+00  0.28796204821E+03  0.28796204821E+03  0.00000000000E+00 0.  1.
         -1   -1    0    0    0  501 -0.00000000000E+00 -0.00000000000E+00 -0.23185309618E+03  0.23185309618E+03  0.00000000000E+00 0.  1.
         23    2    1    2    0    0  0.64319230434E+02 -0.18645728777E+03 -0.96785877153E+02  0.23781161592E+03  0.91014147718E+02 0.  0.
         23    2    1    2    0    0 -0.22210437315E+02  0.13090210996E+03  0.91202210846E+02  0.18448519968E+03  0.89934863767E+02 0.  0.
        -13    1    4    4    0    0 -0.50691347935E+02  0.78717630541E+02  0.81736478943E+02  0.12428567940E+03  0.00000000000E+00 0. -1.
         13    1    4    4    0    0  0.28480910620E+02  0.52184479418E+02  0.94657319032E+01  0.60199520283E+02  0.00000000000E+00 0.  1.
        -13    1    3    3    0    0  0.46614844710E+02 -0.14448822209E+03 -0.11321700564E+03  0.18938817396E+03  0.00000000000E+00 0.  1.
         13    1    3    3    0    0  0.17704385724E+02 -0.41969065672E+02  0.16431128489E+02  0.48423441954E+02  0.00000000000E+00 0. -1.
         21    1    1    2  503  502 -0.24674765610E+02  0.27140982544E+02  0.13853329857E+02  0.39209587341E+02  0.00000000000E+00 0.  1.
         -1    1    1    2    0  503 -0.17434027509E+02  0.28414195263E+02  0.47839288479E+02  0.58308741453E+02  0.00000000000E+00 0.  1.
<scales pt_clust_5="13000.00000" pt_clust_6="13000.00000" pt_clust_7="13000.00000" pt_clust_8="13000.00000" pt_clust_9="27.70082" pt_clust_10="75.52381"></scales>
<clustering>
<clus scale="   27.701">  9 10 -1 -1</clus>
<clus scale="   75.524">  1  9  2 -1</clus>
<clus scale="   89.935">  5  6 -1 -1</clus>
<clus scale="   91.014">  7  8 -1 -1</clus>
<clus scale="  196.733">  1  5  2 -1</clus>
<clus scale="   75.524">  1  5  2 -1</clus>
</clustering>
</event>
<event>
10    2  0.2421970E-006  0.3712741E+03  0.7546771E-02  0.1103124E+00
         21   -1    0    0  503  502  0.00000000000E+00  0.00000000000E+00  0.22805939977E+04  0.22805939977E+04  0.00000000000E+00 0. -1.
          1   -1    0    0  502    0 -0.00000000000E+00 -0.00000000000E+00 -0.98095688213E+02  0.98095688213E+02  0.00000000000E+00 0. -1.
         23    2    1    2    0    0  0.68489452946E+01  0.33925906367E+02  0.20499252769E+03  0.22765007444E+03  0.92761763707E+02 0.  0.
         23    2    1    2    0    0 -0.27769028073E+03 -0.23666797840E+03  0.48199417041E+03  0.61159154094E+03  0.92748092373E+02 0.  0.
        -11    1    4    4    0    0 -0.25397572756E+02 -0.67557981847E+02  0.79793967487E+02  0.10759272680E+03  0.00000000000E+00 0.  1.
         11    1    4    4    0    0 -0.25229270797E+03 -0.16910999655E+03  0.40220020292E+03  0.50399881414E+03  0.00000000000E+00 0. -1.
        -13    1    3    3    0    0 -0.18122061037E+02  0.56166327429E+02  0.16655837501E+03  0.17670528492E+03  0.00000000000E+00 0.  1.
         13    1    3    3    0    0  0.24971006331E+02 -0.22240421062E+02  0.38434152682E+02  0.50944789514E+02  0.00000000000E+00 0. -1.
         21    1    1    2  503  501  0.22849514720E+02  0.85042349616E+02  0.28983153220E+03  0.30291354973E+03  0.00000000000E+00 0.  1.
          1    1    1    2  501    0  0.24799182071E+03  0.11769972241E+03  0.12056800792E+04  0.12365345208E+04  0.00000000000E+00 0. -1.
<scales pt_clust_5="13000.00000" pt_clust_6="13000.00000" pt_clust_7="13000.00000" pt_clust_8="13000.00000" pt_clust_9="77.83597" pt_clust_10="77.83597"></scales>
<clustering>
<clus scale="   77.836">  9 10 -1 -1</clus>
<clus scale="   92.748">  5  6 -1 -1</clus>
<clus scale="   92.762">  7  8 -1 -1</clus>
<clus scale="   99.008">  2  7  1 -1</clus>
<clus scale="  357.156">  2  5  1 -1</clus>
<clus scale="  371.274">  1  5  2 -1</clus>
</clustering>
</event>
<event>
10    2  0.2421970E-006  0.1617694E+03  0.7546771E-02  0.1188132E+00
          4   -1    0    0  503    0 -0.00000000000E+00  0.00000000000E+00  0.71108893017E+03  0.71108893017E+03  0.00000000000E+00 0. -1.
         21   -1    0    0  501  502  0.00000000000E+00 -0.00000000000E+00 -0.54974961224E+02  0.54974961224E+02  0.00000000000E+00 0.  1.
         23    2    1    2    0    0  0.11772896674E+03  0.33636501360E+02  0.35700218552E+03  0.38780036267E+03  0.89146155211E+02 0.  0.
         23    2    1    2    0    0 -0.13392822135E+03  0.18089951715E+01  0.15418532568E+03  0.22640096086E+03  0.97694623628E+02 0.  0.
        -11    1    3    3    0    0  0.51901438258E+02  0.52023897915E+02  0.25214114688E+03  0.26263168735E+03  0.00000000000E+00 0.  1.
         11    1    3    3    0    0  0.65827528486E+02 -0.18387396556E+02  0.10486103864E+03  0.12516867533E+03  0.00000000000E+00 0. -1.
        -13    1    4    4    0    0 -0.77884815372E+02 -0.96098248205E+01  0.20671685740E+02  0.81152398547E+02  0.00000000000E+00 0.  1.
         13    1    4    4    0    0 -0.56043405975E+02  0.11418819992E+02  0.13351363994E+03  0.14524856231E+03  0.00000000000E+00 0. -1.
         21    1    1    2  503  502  0.16441825549E+02 -0.15150394091E+02  0.49702885129E+02  0.54499952832E+02  0.00000000000E+00 0.  1.
          4    1    1    2  501    0 -0.24257094663E+00 -0.20295102440E+02  0.95223572611E+02  0.97362615026E+02  0.00000000000E+00 0. -1.
<scales pt_clust_5="13000.00000" pt_clust_6="13000.00000" pt_clust_7="13000.00000" pt_clust_8="13000.00000" pt_clust_9="22.97153" pt_clust_10="20.29656"></scales>
<clustering>
<clus scale="   20.297">  2 10  1 -1</clus>
<clus scale="   22.972">  1  9  2 -1</clus>
<clus scale="   89.146">  5  6 -1 -1</clus>
<clus scale="   97.695">  7  8 -1 -1</clus>
<clus scale="  156.755">  1  5  2 -1</clus>
<clus scale="   20.297">  2  5  1 -1</clus>
</clustering>
</event>
<event>
10    2  0.2421970E-006  0.1244349E+03  0.7546771E-02  0.1238587E+00
         21   -1    0    0  501  502  0.00000000000E+00  0.00000000000E+00  0.56090285173E+03  0.56090285173E+03  0.00000000000E+00 0.  1.
          2   -1    0    0  503    0 -0.00000000000E+00 -0.00000000000E+00 -0.56488159652E+02  0.56488159652E+02  0.00000000000E+00 0.  1.
         23    2    1    2    0    0 -0.98283850475E+02 -0.68283395404E+02  0.13532656416E+03  0.20206613332E+03  0.90526824272E+02 0.  0.
         23    2    1    2    0    0  0.58798708440E+02  0.12964864571E+02  0.16097184992E+03  0.19014715289E+03  0.81354947336E+02 0.  0.
        -11    1    3    3    0    0 -0.66390946522E+02 -0.48175996929E+02  0.14179552676E+03  0.16381286845E+03  0.00000000000E+00 0.  1.
         11    1    3    3    0    0 -0.31892903954E+02 -0.20107398475E+02 -0.64689625955E+01  0.38253264868E+02  0.00000000000E+00 0. -1.
        -11    1    4    4    0    0  0.58805965838E+02 -0.91735751738E+01  0.15667069598E+03  0.16759475851E+03  0.00000000000E+00 0.  1.
         11    1    4    4    0    0 -0.72573981594E-02  0.22138439744E+02  0.43011539384E+01  0.22552394378E+02  0.00000000000E+00 0. -1.
         21    1    1    2  503  502  0.16768088936E+02  0.26744625809E+02  0.30658721207E+02  0.44004556608E+02  0.00000000000E+00 0. -1.
          2    1    1    2  501    0  0.22717053099E+02  0.28573905024E+02  0.17745755678E+03  0.18117316857E+03  0.00000000000E+00 0.  1.
<scales pt_clust_5="13000.00000" pt_clust_6="13000.00000" pt_clust_7="13000.00000" pt_clust_8="13000.00000" pt_clust_9="31.56650" pt_clust_10="37.67400"></scales>
<clustering>
<clus scale="   31.566">  2  9  1 -1</clus>
<clus scale="   37.674">  1 10  2 -1</clus>
<clus scale="   81.355">  7  8 -1 -1</clus>
<clus scale="   90.527">  5  6 -1 -1</clus>
<clus scale="  117.930">  1  7  2 -1</clus>
<clus scale="   37.674">  1  5  2 -1</clus>
</clustering>
</event>
<event>
10    2  0.2421970E-006  0.9662391E+02  0.7546771E-02  0.1290099E+00
         21   -1    0    0  503  502  0.00000000000E+00  0.00000000000E+00  0.55321392381E+02  0.55321392381E+02  0.00000000000E+00 0.  1.
         -1   -1    0    0    0  501 -0.00000000000E+00 -0.00000000000E+00 -0.85208044032E+03  0.85208044032E+03  0.00000000000E+00 0.  1.
         23    2    1    2    0    0  0.11392677386E+02 -0.92604225225E+01 -0.43278511121E+03  0.44217845228E+03  0.89461067811E+02 0.  0.
         23    2    1    2    0    0  0.69513307024E+01  0.40079567460E+02 -0.36835810226E+03  0.38235344585E+03  0.94083863261E+02 0.  0.
        -11    1    3    3    0    0  0.44355579977E+02  0.17813456523E+02 -0.24339258714E+03  0.24804170654E+03  0.00000000000E+00 0.  1.
         11    1    3    3    0    0 -0.32962902591E+02 -0.27073879045E+02 -0.18939252407E+03  0.19413674574E+03  0.00000000000E+00 0. -1.
        -11    1    4    4    0    0  0.68659469866E-01 -0.27001828429E+02 -0.48939285439E+02  0.55894159909E+02  0.00000000000E+00 0. -1.
         11    1    4    4    0    0  0.68826712325E+01  0.67081395889E+02 -0.31941881682E+03  0.32645928594E+03  0.00000000000E+00 0.  1.
         21    1    1    2  503  501 -0.21739938289E+02  0.13070424413E+02 -0.20220495643E+02  0.32439626311E+02  0.00000000000E+00 0.  1.
         -1    1    1    2    0  502  0.33959302003E+01 -0.43889569350E+02  0.24604661174E+02  0.50430308259E+02  0.00000000000E+00 0.  1.
<scales pt_clust_5="13000.00000" pt_clust_6="13000.00000" pt_clust_7="13000.00000" pt_clust_8="13000.00000" pt_clust_9="25.36653" pt_clust_10="36.39464"></scales>
<clustering>
<clus scale="   25.367">  1  9  2 -1</clus>
<clus scale="   36.395">  1 10  2 -1</clus>
<clus scale="   89.461">  5  6 -1 -1</clus>
<clus scale="   92.129">  2  5  1 -1</clus>
<clus scale="   94.084">  7  8 -1 -1</clus>
<clus scale="   25.367">  1  5  2 -1</clus>
</clustering>
</event>
<event>
10    2  0.2421970E-006  0.1911952E+03  0.7546771E-02  0.1158899E+00
         21   -1    0    0  501  502  0.00000000000E+00  0.00000000000E+00  0.13196614421E+03  0.13196614421E+03  0.00000000000E+00 0.  1.
          1   -1    0    0  503    0 -0.00000000000E+00 -0.00000000000E+00 -0.39031457426E+03  0.39031457426E+03  0.00000000000E+00 0. -1.
         23    2    1    2    0    0  0.51335120367E+02 -0.15463089173E+03 -0.77943541651E+02  0.20811510641E+03  0.10339581506E+03 0.  0.
         23    2    1    2    0    0 -0.14008558338E+02  0.16059310016E+03 -0.83400993047E+02  0.20283261114E+03  0.90548103089E+02 0.  0.
        -13    1    4    4    0    0  0.79875406805E+01  0.10649951533E+03 -0.95417074966E+02  0.14321440489E+03  0.00000000000E+00 0. -1.
         13    1    4    4    0    0 -0.21996099018E+02  0.54093584828E+02  0.12016081919E+02  0.59618206248E+02  0.00000000000E+00 0.  1.
        -13    1    3    3    0    0  0.75242713093E+02 -0.63634244342E+02 -0.33698216661E+02  0.10414582437E+03  0.00000000000E+00 0. -1.
         13    1    3    3    0    0 -0.23907592726E+02 -0.90996647389E+02 -0.44245324990E+02  0.10396928205E+03  0.00000000000E+00 0.  1.
         21    1    1    2  503  502 -0.22173330855E+02  0.11728995775E+02 -0.75767266914E+02  0.79811682595E+02  0.00000000000E+00 0. -1.
          1    1    1    2  501    0 -0.15153231175E+02 -0.17691204206E+02 -0.21236628438E+02  0.31521318321E+02  0.00000000000E+00 0. -1.
<scales pt_clust_5="13000.00000" pt_clust_6="13000.00000" pt_clust_7="13000.00000" pt_clust_8="13000.00000" pt_clust_9="25.16866" pt_clust_10="23.29377"></scales>
<clustering>
<clus scale="   23.294">  1 10  2 -1</clus>
<clus scale="   25.169">  2  9  1 -1</clus>
<clus scale="   90.548">  5  6 -1 -1</clus>
<clus scale="  103.396">  7  8 -1 -1</clus>
<clus scale="  184.564">  1  5  2 -1</clus>
<clus scale="   23.294">  1  5  2 -1</clus>
</clustering>
</event>
<event>
10    2  0.2421970E-006  0.9243729E+02  0.7546771E-02  0.1297593E+00
         21   -1    0    0  503  502  0.00000000000E+00  0.00000000000E+00  0.20050463235E+03  0.20050463235E+03  0.00000000000E+00 0. -1.
         -1   -1    0    0    0  501 -0.00000000000E+00 -0.00000000000E+00 -0.28672913595E+03  0.28672913595E+03  0.00000000000E+00 0.  1.
         23    2    1    2    0    0  0.19629361608E+02 -0.20721258954E+02 -0.16067119258E+03  0.18667941328E+03  0.90660293443E+02 0.  0.
         23    2    1    2    0    0  0.38730515946E+02 -0.31465626800E+02 -0.23423148915E+02  0.10689546620E+03  0.91585251295E+02 0.  0.
        -13    1    3    3    0    0  0.36780081486E+02  0.24226704768E+02 -0.54157886065E+02  0.69805331036E+02  0.00000000000E+00 0. -1.
         13    1    3    3    0    0 -0.17150719878E+02 -0.44947963723E+02 -0.10651330652E+03  0.11687408224E+03  0.00000000000E+00 0.  1.
        -13    1    4    4    0    0  0.62825671624E+02 -0.69308083191E+01  0.33778213314E+01  0.63297004636E+02  0.00000000000E+00 0. -1.
         13    1    4    4    0    0 -0.24095155678E+02 -0.24534818481E+02 -0.26800970247E+02  0.43598461569E+02  0.00000000000E+00 0.  1.
         21    1    1    2  503  501  0.25794492015E+02  0.27588318815E+02 -0.23088570184E+02  0.44266841163E+02  0.00000000000E+00 0.  1.
         -1    1    1    2    0  502 -0.84154369569E+02  0.24598566939E+02  0.12095840809E+03  0.14939204765E+03  0.00000000000E+00 0.  1.
<scales pt_clust_5="13000.00000" pt_clust_6="13000.00000" pt_clust_7="13000.00000" pt_clust_8="13000.00000" pt_clust_9="37.76865" pt_clust_10="86.74039"></scales>
<clustering>
<clus scale="   37.769">  2  9  1 -1</clus>
<clus scale="   86.740">  1 10  2 -1</clus>
<clus scale="   90.660">  5  6 -1 -1</clus>
<clus scale="   91.521">  2  5  1 -1</clus>
<clus scale="   91.585">  7  8 -1 -1</clus>
<clus scale="   86.740">  1  5  2 -1</clus>
</clustering>
</event>
<event>
10    2  0.2421970E-006  0.1604321E+03  0.7546771E-02  0.1188747E+00
          3   -1    0    0  503    0 -0.00000000000E+00  0.00000000000E+00  0.15025729118E+03  0.15025729118E+03  0.00000000000E+00 0. -1.
         21   -1    0    0  501  502  0.00000000000E+00 -0.00000000000E+00 -0.29930234028E+03  0.29930234028E+03  0.00000000000E+00 0.  1.
         23    2    1    2    0    0  0.52561897891E+02 -0.12617060214E+03  0.19400845500E+02  0.16767844166E+03  0.95172963796E+02 0.  0.
         23    2    1    2    0    0 -0.73790460754E+02  0.95231766539E+02 -0.60147489662E+02  0.16304667443E+03  0.91936804780E+02 0.  0.
        -11    1    4    4    0    0 -0.38143154035E+02  0.77952633491E+02 -0.80621761519E+02  0.11845413331E+03  0.00000000000E+00 0.  1.
         11    1    4    4    0    0 -0.35647306719E+02  0.17279133047E+02  0.20474271858E+02  0.44592541117E+02  0.00000000000E+00 0. -1.
        -13    1    3    3    0    0  0.70642898462E+02 -0.47581984141E+02  0.20855708414E+01  0.85198673251E+02  0.00000000000E+00 0. -1.
         13    1    3    3    0    0 -0.18081000571E+02 -0.78588618002E+02  0.17315274658E+02  0.82479768414E+02  0.00000000000E+00 0.  1.
         21    1    1    2  503  502 -0.22019315032E+01  0.23160038087E+02 -0.40855163295E+02  0.47014681051E+02  0.00000000000E+00 0. -1.
          3    1    1    2  501    0  0.23430494366E+02  0.77787975175E+01 -0.67443241642E+02  0.71819834309E+02  0.00000000000E+00 0. -1.
<scales pt_clust_5="13000.00000" pt_clust_6="13000.00000" pt_clust_7="13000.00000" pt_clust_8="13000.00000" pt_clust_9="23.26448" pt_clust_10="26.83003"></scales>
<clustering>
<clus scale="   23.264">  2  9  1 -1</clus>
<clus scale="   26.830">  2 10  1 -1</clus>
<clus scale="   91.937">  5  6 -1 -1</clus>
<clus scale="   95.173">  7  8 -1 -1</clus>
<clus scale="  158.534">  2  5  1 -1</clus>
<clus scale="   23.264">  2  5  1 -1</clus>
</clustering>
</event>
<event>
10    2  0.2421970E-006  0.2000705E+03  0.7546771E-02  0.1177954E+00
         21   -1    0    0  503  502  0.00000000000E+00  0.00000000000E+00  0.61474181827E+02  0.61474181827E+02  0.00000000000E+00 0. -1.
          1   -1    0    0  502    0 -0.00000000000E+00 -0.00000000000E+00 -0.11151794377E+04  0.11151794377E+04  0.00000000000E+00 0. -1.
         23    2    1    2    0    0 -0.18667998614E+02  0.25397608222E+02 -0.43446974332E+03  0.44675348884E+03  0.99152353714E+02 0.  0.
         23    2    1    2    0    0  0.41728811387E+02 -0.18993848092E+03 -0.39236291392E+03  0.44785081577E+03  0.93828443074E+02 0.  0.
        -11    1    3    3    0    0 -0.42786754880E+02  0.44733905148E+02 -0.37130983836E+03  0.37643435646E+03  0.00000000000E+00 0. -1.
         11    1    3    3    0    0  0.24118756266E+02 -0.19336296926E+02 -0.63159904969E+02  0.70319132377E+02  0.00000000000E+00 0.  1.
        -11    1    4    4    0    0  0.23895585249E+02 -0.16111192304E+03 -0.22903688922E+03  0.28104438682E+03  0.00000000000E+00 0. -1.
         11    1    4    4    0    0  0.17833226139E+02 -0.28826557884E+02 -0.16332602470E+03  0.16680642895E+03  0.00000000000E+00 0.  1.
         21    1    1    2  503  501 -0.20720207803E+02  0.75399095995E+02 -0.99038801913E+02  0.12618650868E+03  0.00000000000E+00 0. -1.
          1    1    1    2  501    0 -0.23406049709E+01  0.89141776707E+02 -0.12783379670E+03  0.15586280623E+03  0.00000000000E+00 0. -1.
<scales pt_clust_5="13000.00000" pt_clust_6="13000.00000" pt_clust_7="13000.00000" pt_clust_8="13000.00000" pt_clust_9="20.41188" pt_clust_10="178.04373"></scales>
<clustering>
<clus scale="   20.412">  9 10 -1 -1</clus>
<clus scale="   93.828">  7  8 -1 -1</clus>
<clus scale="   99.152">  5  6 -1 -1</clus>
<clus scale="  104.042">  2  5  1 -1</clus>
<clus scale="  178.044">  1  9  2 -1</clus>
<clus scale="  178.044">  1  5  2 -1</clus>
</clustering>
</event>
<event>
10    2  0.2421970E-006  0.1225052E+03  0.7546771E-02  0.1240471E+00
         -1   -1    0    0    0  501 -0.00000000000E+00  0.00000000000E+00  0.40050383571E+03  0.40050383571E+03  0.00000000000E+00 0.  1.
         21   -1    0    0  503  502  0.00000000000E+00 -0.00000000000E+00 -0.98283854964E+02  0.98283854964E+02  0.00000000000E+00 0.  1.
         23    2    1    2    0    0 -0.68263391253E+02 -0.38699718543E+02  0.21120775617E+03  0.24250192200E+03  0.89671105202E+02 0.  0.
         23    2    1    2    0    0  0.51742058220E+02  0.62280851673E+02  0.10116785700E+03  0.16028323288E+03  0.94337873512E+02 0.  0.
        -11    1    3    3    0    0 -0.30488031546E+02 -0.60846308285E+02  0.16673468606E+03  0.18008955782E+03  0.00000000000E+00 0.  1.
         11    1    3    3    0    0 -0.37775359707E+02  0.22146589741E+02  0.44473070106E+02  0.62412364182E+02  0.00000000000E+00 0. -1.
        -11    1    4    4    0    0  0.74221977306E+02  0.58922836572E+02  0.99629112482E+02  0.13750186413E+03  0.00000000000E+00 0. -1.
         11    1    4    4    0    0 -0.22479919085E+02  0.33580151018E+01  0.15387445162E+01  0.22781368752E+02  0.00000000000E+00 0.  1.
         21    1    1    2  503  501 -0.21365360677E+02 -0.30038096268E+02  0.24492917004E+02  0.44256850855E+02  0.00000000000E+00 0. -1.
         -1    1    1    2    0  502  0.37886693709E+02  0.64569631371E+01 -0.34648549419E+02  0.51745684941E+02  0.00000000000E+00 0.  1.
<scales pt_clust_5="13000.00000" pt_clust_6="13000.00000" pt_clust_7="13000.00000" pt_clust_8="13000.00000" pt_clust_9="36.86144" pt_clust_10="28.65138"></scales>
<clustering>
<clus scale="   36.861">  2  9  1 -1</clus>
<clus scale="   28.651">  2 10  1 -1</clus>
<clus scale="   89.671">  5  6 -1 -1</clus>
<clus scale="   94.338">  7  8 -1 -1</clus>
<clus scale="  118.949">  1  5  2 -1</clus>
<clus scale="   36.861">  2  5  1 -1</clus>
</clustering>
</event>
<event>
10    2  0.2421970E-006  0.1404295E+03  0.7546771E-02  0.1227552E+00
         -1   -1    0    0    0  501 -0.00000000000E+00  0.00000000000E+00  0.99033047699E+02  0.99033047699E+02  0.00000000000E+00 0.  1.
         21   -1    0    0  501  502  0.00000000000E+00 -0.00000000000E+00 -0.72230860012E+03  0.72230860012E+03  0.00000000000E+00 0.  1.
         23    2    1    2    0    0 -0.22250211240E+02  0.42775625747E+02 -0.91856622699E+02  0.13795523723E+03  0.90935044328E+02 0.  0.
         23    2    1    2    0    0 -0.33323212808E+02  0.51548849482E+02  0.25502108678E+02  0.11402080293E+03  0.92642676768E+02 0.  0.
        -11    1    3    3    0    0 -0.29718148901E+02 -0.24936493809E+01  0.55032872939E+01  0.30326108098E+02  0.00000000000E+00 0. -1.
         11    1    3    3    0    0  0.74679376618E+01  0.45269275128E+02 -0.97359909993E+02  0.10762912913E+03  0.00000000000E+00 0.  1.
        -11    1    4    4    0    0 -0.65177014944E+02  0.42622751522E+02  0.14955669828E+02  0.79299522599E+02  0.00000000000E+00 0.  1.
         11    1    4    4    0    0  0.31853802137E+02  0.89260979593E+01  0.10546438851E+02  0.34721280330E+02  0.00000000000E+00 0. -1.
         21    1    1    2  503  502  0.15629291620E+02 -0.33688111456E+02 -0.99249263232E+02  0.10596971200E+03  0.00000000000E+00 0. -1.
         -1    1    1    2    0  503  0.39944132427E+02 -0.60636363772E+02 -0.45767177517E+03  0.46339589566E+03  0.00000000000E+00 0.  1.
<scales pt_clust_5="13000.00000" pt_clust_6="13000.00000" pt_clust_7="13000.00000" pt_clust_8="13000.00000" pt_clust_9="32.22703" pt_clust_10="114.75370"></scales>
<clustering>
<clus scale="   32.227">  9 10 -1 -1</clus>
<clus scale="   90.935">  5  6 -1 -1</clus>
<clus scale="   92.643">  7  8 -1 -1</clus>
<clus scale="  102.927">  1  5  2 -1</clus>
<clus scale="  114.754">  2  9  1 -1</clus>
<clus scale="  114.754">  2  5  1 -1</clus>
</clustering>
</event>
<event>
10    2  0.2421970E-006  0.2148876E+03  0.7546771E-02  0.1168235E+00
         21   -1    0    0  503  502  0.00000000000E+00  0.00000000000E+00  0.16106097706E+04  0.16106097706E+04  0.00000000000E+00 0.  1.
         -4   -1    0    0    0  501 -0.00000000000E+00 -0.00000000000E+00 -0.60401160996E+02  0.60401160996E+02  0.00000000000E+00 0.  1.
         23    2    1    2    0    0 -0.26168538714E+02  0.45876788502E+02  0.13682621786E+03  0.17206168262E+03  0.89968531111E+02 0.  0.
         23    2    1    2    0    0  0.12950777435E+03 -0.19315066306E+03  0.46601642535E+03  0.52995101129E+03  0.97965929865E+02 0.  0.
        -11    1    3    3    0    0 -0.72821795433E+01 -0.21312516601E+02  0.52581208398E+01  0.23127934139E+02  0.00000000000E+00 0. -1.
         11    1    3    3    0    0 -0.18886359171E+02  0.67189305103E+02  0.13156809702E+03  0.14893374848E+03  0.00000000000E+00 0.  1.
        -11    1    4    4    0    0  0.24423362436E+02 -0.44627996671E+02  0.34007528134E+02  0.61193714460E+02  0.00000000000E+00 0. -1.
         11    1    4    4    0    0  0.10508441192E+03 -0.14852266639E+03  0.43200889721E+03  0.46875729683E+03  0.00000000000E+00 0.  1.
         21    1    1    2  503  501  0.16666988950E+02  0.17777070359E+02  0.17639329643E+03  0.17806854797E+03  0.00000000000E+00 0.  1.
         -4    1    1    2    0  502 -0.12000622459E+03  0.12949680420E+03  0.77097266996E+03  0.79092968971E+03  0.00000000000E+00 0.  1.
<scales pt_clust_5="13000.00000" pt_clust_6="13000.00000" pt_clust_7="13000.00000" pt_clust_8="13000.00000" pt_clust_9="24.36827" pt_clust_10="191.25735"></scales>
<clustering>
<clus scale="   24.368">  1  9  2 -1</clus>
<clus scale="   89.969">  5  6 -1 -1</clus>
<clus scale="   97.966">  7  8 -1 -1</clus>
<clus scale="  104.750">  2  5  1 -1</clus>
<clus scale="  191.257">  1 10  2 -1</clus>
<clus scale="   24.368">  1  5  2 -1</clus>
</clustering>
</event>
<event>
10    2  0.2421970E-006  0.2451227E+03  0.7546771E-02  0.1144128E+00
         -1   -1    0    0    0  501 -0.00000000000E+00  0.00000000000E+00  0.10535645458E+03  0.10535645458E+03  0.00000000000E+00 0.  1.
         21   -1    0    0  501  502  0.00000000000E+00 -0.00000000000E+00 -0.13706787222E+04  0.13706787222E+04  0.00000000000E+00 0.  1.
         23    2    1    2    0    0 -0.23901971653E+02 -0.75620922549E+02 -0.81087416664E+01  0.12443738555E+03  0.95546235170E+02 0.  0.
         23    2    1    2    0    0  0.13600440322E+03  0.21860083938E+03 -0.97001718132E+03  0.10079134328E+04  0.93126962840E+02 0.  0.
        -11    1    3    3    0    0  0.27581047060E+02 -0.65474273976E+02  0.16436539410E+01  0.71065436803E+02  0.00000000000E+00 0.  1.
         11    1    3    3    0    0 -0.51483018713E+02 -0.10146648572E+02 -0.97523956074E+01  0.53371948748E+02  0.00000000000E+00 0. -1.
        -11    1    4    4    0    0  0.97005394644E+01  0.28839898496E+02 -0.39381045721E+02  0.49766524625E+02  0.00000000000E+00 0. -1.
         11    1    4    4    0    0  0.12630386376E+03  0.18976094088E+03 -0.93063613560E+03  0.95814690814E+03  0.00000000000E+00 0.  1.
         21    1    1    2  503  502 -0.55233043315E+02 -0.31919608546E+02 -0.89571762651E+02  0.10996659105E+03  0.00000000000E+00 0.  1.
         -1    1    1    2    0  503 -0.56869388255E+02 -0.11106030828E+03 -0.19762458195E+03  0.23371776738E+03  0.00000000000E+00 0.  1.
<scales pt_clust_5="13000.00000" pt_clust_6="13000.00000" pt_clust_7="13000.00000" pt_clust_8="13000.00000" pt_clust_9="36.64829" pt_clust_10="232.46407"></scales>
<clustering>
<clus scale="   36.648">  9 10 -1 -1</clus>
<clus scale="   93.127">  7  8 -1 -1</clus>
<clus scale="   95.546">  5  6 -1 -1</clus>
<clus scale="  124.173">  1  5  2 -1</clus>
<clus scale="  232.464">  2  9  1 -1</clus>
<clus scale="  232.464">  2  5  1 -1</clus>
</clustering>
</event>
<event>
10    2  0.2421970E-006  0.1614028E+03  0.7546771E-02  0.1204021E+00
         21   -1    0    0  503  502  0.00000000000E+00  0.00000000000E+00  0.76004869265E+03  0.76004869265E+03  0.00000000000E+00 0. -1.
          1   -1    0    0  502    0 -0.00000000000E+00 -0.00000000000E+00 -0.89464065537E+02  0.89464065537E+02  0.00000000000E+00 0. -1.
         23    2    1    2    0    0  0.95908209997E+01  0.61265069043E+02  0.65053356513E+02  0.12909410419E+03  0.92671225365E+02 0.  0.
         23    2    1    2    0    0 -0.10448260841E+03  0.40739432666E+02  0.63697807816E+02  0.15825444589E+03  0.91710098065E+02 0.  0.
        -11    1    3    3    0    0  0.47331226638E+02  0.15464333568E+02  0.42972792621E+02  0.65772726365E+02  0.00000000000E+00 0. -1.
         11    1    3    3    0    0 -0.37740405639E+02  0.45800735475E+02  0.22080563892E+02  0.63321377825E+02  0.00000000000E+00 0.  1.
        -13    1    4    4    0    0 -0.33128625175E+02  0.17947243438E+02  0.73613166177E+02  0.82695269439E+02  0.00000000000E+00 0.  1.
         13    1    4    4    0    0 -0.71353983238E+02  0.22792189228E+02 -0.99153583609E+01  0.75559176446E+02  0.00000000000E+00 0. -1.
         21    1    1    2  503  501  0.30942330609E+02 -0.30841210956E+01  0.14061926961E+03  0.14401638313E+03  0.00000000000E+00 0.  1.
          1    1    1    2  501    0  0.63949456805E+02 -0.98920380614E+02  0.40121419317E+03  0.41814782497E+03  0.00000000000E+00 0. -1.
<scales pt_clust_5="13000.00000" pt_clust_6="13000.00000" pt_clust_7="13000.00000" pt_clust_8="13000.00000" pt_clust_9="28.30901" pt_clust_10="143.79094"></scales>
<clustering>
<clus scale="   28.309">  9 10 -1 -1</clus>
<clus scale="   91.710">  7  8 -1 -1</clus>
<clus scale="   92.671">  5  6 -1 -1</clus>
<clus scale="  111.505">  2  5  1 -1</clus>
<clus scale="  143.791">  1  9  2 -1</clus>
<clus scale="  143.791">  1  5  2 -1</clus>
</clustering>
</event>
<event>
10    2  0.2421970E-006  0.2557528E+03  0.7546771E-02  0.1133189E+00
          2   -1    0    0  503    0 -0.00000000000E+00  0.00000000000E+00  0.61982670631E+03  0.61982670631E+03  0.00000000000E+00 0. -1.
         21   -1    0    0  501  502  0.00000000000E+00 -0.00000000000E+00 -0.22806547761E+03  0.22806547761E+03  0.00000000000E+00 0.  1.
         23    2    1    2    0    0 -0.10739096635E+03  0.45255418740E+02  0.98039471810E+02  0.17393250738E+03  0.84023249822E+02 0.  0.
         23    2    1    2    0    0  0.24054391702E+03  0.82481951352E+02 -0.32162315660E+02  0.27320442616E+03  0.94560010623E+02 0.  0.
        -11    1    4    4    0    0  0.16135147924E+03  0.44596501767E+02 -0.64856691852E+02  0.17952587084E+03  0.00000000000E+00 0. -1.
         11    1    4    4    0    0  0.79192437784E+02  0.37885449585E+02  0.32694376192E+02  0.93678555321E+02  0.00000000000E+00 0.  1.
        -11    1    3    3    0    0 -0.29157880637E+02  0.47420404147E+02  0.10751244364E+02  0.56696260794E+02  0.00000000000E+00 0.  1.
         11    1    3    3    0    0 -0.78233085713E+02 -0.21649854068E+01  0.87288227446E+02  0.11723624658E+03  0.00000000000E+00 0. -1.
         21    1    1    2  503  502  0.15630660215E+02  0.18755227798E+02  0.36268856999E+02  0.43720774199E+02  0.00000000000E+00 0. -1.
          2    1    1    2  501    0 -0.14878361089E+03 -0.14649259789E+03  0.28961521555E+03  0.35703447618E+03  0.00000000000E+00 0. -1.
<scales pt_clust_5="13000.00000" pt_clust_6="13000.00000" pt_clust_7="13000.00000" pt_clust_8="13000.00000" pt_clust_9="24.41467" pt_clust_10="237.62986"></scales>
<clustering>
<clus scale="   24.415">  1  9  2 -1</clus>
<clus scale="   84.023">  7  8 -1 -1</clus>
<clus scale="   94.560">  5  6 -1 -1</clus>
<clus scale="  142.423">  1  7  2 -1</clus>
<clus scale="  237.630">  2 10  1 -1</clus>
<clus scale="  237.630">  2  5  1 -1</clus>
</clustering>
</event>
<event>
10    2  0.2421970E-006  0.2110709E+03  0.7546771E-02  0.1140837E+00
         21   -1    0    0  501  502  0.00000000000E+00  0.00000000000E+00  0.39375488462E+03  0.39375488462E+03  0.00000000000E+00 0.  1.
          1   -1    0    0  503    0 -0.00000000000E+00 -0.00000000000E+00 -0.40756092368E+03  0.40756092368E+03  0.00000000000E+00 0. -1.
         23    2    1    2    0    0  0.13059004352E+03  0.14209001138E+03 -0.32592791782E+03  0.38935769120E+03  0.90150281664E+02 0.  0.
         23    2    1    2    0    0 -0.15100764779E+03 -0.85383474827E+02  0.24229587966E+03  0.31173356199E+03  0.91525258285E+02 0.  0.
        -11    1    4    4    0    0 -0.95235337092E+02 -0.25598394432E+02  0.69728030338E+02  0.12077684150E+03  0.00000000000E+00 0.  1.
         11    1    4    4    0    0 -0.55772310699E+02 -0.59785080396E+02  0.17256784932E+03  0.19095672049E+03  0.00000000000E+00 0. -1.
        -11    1    3    3    0    0  0.10733841269E+03  0.92353965954E+02 -0.29277960292E+03  0.32522405469E+03  0.00000000000E+00 0. -1.
         11    1    3    3    0    0  0.23251630832E+02  0.49736045427E+02 -0.33148314898E+02  0.64133636507E+02  0.00000000000E+00 0.  1.
         21    1    1    2  503  502 -0.87032565348E+01 -0.20847144747E+02  0.10171003700E+02  0.24774975977E+02  0.00000000000E+00 0.  1.
          1    1    1    2  501    0  0.29120860808E+02 -0.35859391807E+02  0.59654995403E+02  0.75449579134E+02  0.00000000000E+00 0. -1.
<scales pt_clust_5="13000.00000" pt_clust_6="13000.00000" pt_clust_7="13000.00000" pt_clust_8="13000.00000" pt_clust_9="22.59093" pt_clust_10="48.24711"></scales>
<clustering>
<clus scale="   22.591">  1  9  2 -1</clus>
<clus scale="   48.247">  1 10  2 -1</clus>
<clus scale="   90.150">  7  8 -1 -1</clus>
<clus scale="   91.525">  5  6 -1 -1</clus>
<clus scale="  210.478">  2  7  1 -1</clus>
<clus scale="   22.591">  1  5  2 -1</clus>
</clustering>
</event>
<event>
10    2  0.2421970E-006  0.1179110E+03  0.7546771E-02  0.1253916E+00
         -1   -1    0    0    0  501 -0.00000000000E+00  0.00000000000E+00  0.21504715571E+03  0.21504715571E+03  0.00000000000E+00 0.  1.
         21   -1    0    0  503  502  0.00000000000E+00 -0.00000000000E+00 -0.29294963411E+03  0.29294963411E+03  0.00000000000E+00 0.  1.
         23    2    1    2    0    0  0.75202520255E+02 -0.40669437423E+02  0.16845843099E+03  0.20997990358E+03  0.91672759013E+02 0.  0.
         23    2    1    2    0    0 -0.18480288287E+02  0.31721587318E+02 -0.57337753571E+02  0.97518119403E+02  0.69816799341E+02 0.  0.
        -13    1    4    4    0    0 -0.38381585692E+01 -0.22154897153E+02 -0.11356518539E+02  0.25190106042E+02  0.00000000000E+00 0. -1.
         13    1    4    4    0    0 -0.14642129718E+02  0.53876484471E+02 -0.45981235033E+02  0.72328013361E+02  0.00000000000E+00 0.  1.
        -13    1    3    3    0    0  0.87068049878E+02 -0.20550953309E+02  0.16308866300E+03  0.18601370646E+03  0.00000000000E+00 0.  1.
         13    1    3    3    0    0 -0.11865529623E+02 -0.20118484114E+02  0.53697679848E+01  0.23966197122E+02  0.00000000000E+00 0. -1.
         21    1    1    2  503  501 -0.18642898329E+02  0.93204786345E+01 -0.27268957851E+02  0.34322369417E+02  0.00000000000E+00 0. -1.
         -1    1    1    2    0  502 -0.38079333638E+02 -0.37262852930E+00 -0.16175419796E+03  0.16617639742E+03  0.00000000000E+00 0.  1.
<scales pt_clust_5="13000.00000" pt_clust_6="13000.00000" pt_clust_7="13000.00000" pt_clust_8="13000.00000" pt_clust_9="20.84296" pt_clust_10="50.03805"></scales>
<clustering>
<clus scale="   20.843">  2  9  1 -1</clus>
<clus scale="   50.038">  2 10  1 -1</clus>
<clus scale="   69.817">  5  6 -1 -1</clus>
<clus scale="   91.673">  7  8 -1 -1</clus>
<clus scale="  101.850">  2  5  1 -1</clus>
<clus scale="   20.843">  2  5  1 -1</clus>
</clustering>
</event>
<event>
10    2  0.2421970E-006  0.1741901E+03  0.7546771E-02  0.1173728E+00
          1   -1    0    0  502    0 -0.00000000000E+00  0.00000000000E+00  0.21118654289E+03  0.21118654289E+03  0.00000000000E+00 0. -1.
         21   -1    0    0  503  502  0.00000000000E+00 -0.00000000000E+00 -0.37037225050E+03  0.37037225050E+03  0.00000000000E+00 0. -1.
         23    2    1    2    0    0  0.47662290534E+02  0.14309916171E+03  0.11498534053E+03  0.21112099101E+03  0.92743626655E+02 0.  0.
         23    2    1    2    0    0 -0.10316630863E+03 -0.10295403222E+03 -0.16884599430E+03  0.24104985510E+03  0.91396076881E+02 0.  0.
        -11    1    4    4    0    0  0.15983160065E+02 -0.24911735788E+02 -0.28456523279E+02  0.41058856569E+02  0.00000000000E+00 0.  1.
         11    1    4    4    0    0 -0.11914946869E+03 -0.78042296433E+02 -0.14038947102E+03  0.19999099854E+03  0.00000000000E+00 0. -1.
        -11    1    3    3    0    0  0.47141940345E+02  0.10985273468E+03  0.35092650214E+02  0.12458523169E+03  0.00000000000E+00 0. -1.
         11    1    3    3    0    0  0.52035018833E+00  0.33246427037E+02  0.79892690319E+02  0.86535759322E+02  0.00000000000E+00 0.  1.
         21    1    1    2  503  501  0.45877747121E+02 -0.15357667972E+02 -0.72192136565E+02  0.86904143907E+02  0.00000000000E+00 0. -1.
          1    1    1    2  501    0  0.96262709739E+01 -0.24787461522E+02 -0.33132917276E+02  0.42483803370E+02  0.00000000000E+00 0. -1.
<scales pt_clust_5="13000.00000" pt_clust_6="13000.00000" pt_clust_7="13000.00000" pt_clust_8="13000.00000" pt_clust_9="22.91715" pt_clust_10="75.15234"></scales>
<clustering>
<clus scale="   22.917">  9 10 -1 -1</clus>
<clus scale="   75.152">  2  9  1 -1</clus>
<clus scale="   91.396">  5  6 -1 -1</clus>
<clus scale="   92.744">  7  8 -1 -1</clus>
<clus scale="  173.476">  2  5  1 -1</clus>
<clus scale="   75.152">  2  5  1 -1</clus>
</clustering>
</event>
<event>
10    2  0.2421970E-006  0.1382006E+03  0.7546771E-02  0.1225291E+00
         -1   -1    0    0    0  501 -0.00000000000E+00  0.00000000000E+00  0.46547265499E+03  0.46547265499E+03  0.00000000000E+00 0.  1.
         21   -1    0    0  501  502  0.00000000000E+00 -0.00000000000E+00 -0.14805840151E+03  0.14805840151E+03  0.00000000000E+00 0. -1.
         23    2    1    2    0    0  0.19166882243E+02  0.65905154712E+02  0.35043430872E+03  0.36825811550E+03  0.89994311557E+02 0.  0.
         23    2    1    2    0    0 -0.38213676709E+02  0.47669474852E+02 -0.18985908947E+01  0.12194595179E+03  0.10552036103E+03 0.  0.
        -11    1    3    3    0    0  0.34802222632E+02  0.81894623714E+02  0.30337067920E+03  0.31615137687E+03  0.00000000000E+00 0.  1.
         11    1    3    3    0    0 -0.15635340390E+02 -0.15989469003E+02  0.47063629515E+02  0.52106738635E+02  0.00000000000E+00 0. -1.
        -11    1    4    4    0    0  0.12550108463E+02  0.36827429872E+02  0.39579831097E+02  0.55500701285E+02  0.00000000000E+00 0.  1.
         11    1    4    4    0    0 -0.50763785172E+02  0.10842044979E+02 -0.41478421992E+02  0.66445250510E+02  0.00000000000E+00 0. -1.
         21    1    1    2  503  502 -0.73090016229E+01 -0.35794943386E+02 -0.35821384756E+01  0.36708734557E+02  0.00000000000E+00 0.  1.
         -1    1    1    2    0  503  0.26355796089E+02 -0.77779686178E+02 -0.27539325863E+02  0.86618254649E+02  0.00000000000E+00 0.  1.
<scales pt_clust_5="13000.00000" pt_clust_6="13000.00000" pt_clust_7="13000.00000" pt_clust_8="13000.00000" pt_clust_9="20.86931" pt_clust_10="94.57218"></scales>
<clustering>
<clus scale="   20.869">  9 10 -1 -1</clus>
<clus scale="   89.994">  5  6 -1 -1</clus>
<clus scale="  105.520">  7  8 -1 -1</clus>
<clus scale="  113.181">  1  5  2 -1</clus>
<clus scale="   94.572">  2  9  1 -1</clus>
<clus scale="   94.572">  2  5  1 -1</clus>
</clustering>
</event>
<event>
10    2  0.4222274E-006  0.2458802E+03  0.7546771E-02  0.1153528E+00
          1   -1    0    0  503    0 -0.00000000000E+00  0.00000000000E+00  0.82262505906E+03  0.82262505906E+03  0.00000000000E+00 0. -1.
         21   -1    0    0  501  502  0.00000000000E+00 -0.00000000000E+00 -0.11933498861E+03  0.11933498861E+03  0.00000000000E+00 0.  1.
         23    2    1    2    0    0 -0.37163337915E+02  0.16869241114E+02  0.21483814101E+03  0.23639527597E+03  0.89786495025E+02 0.  0.
         23    2    1    2    0    0 -0.18445803496E+03  0.88626534131E+02  0.32766468970E+03  0.39752742413E+03  0.93725529314E+02 0.  0.
        -11    1    4    4    0    0 -0.40426755228E+02 -0.16172180137E+02  0.95040286334E+02  0.10453955220E+03  0.00000000000E+00 0. -1.
         11    1    4    4    0    0 -0.14403127973E+03  0.10479871427E+03  0.23262440337E+03  0.29298787193E+03  0.00000000000E+00 0.  1.
        -11    1    3    3    0    0 -0.14942025775E+01 -0.35172581354E+02  0.86420017917E+02  0.93315393249E+02  0.00000000000E+00 0. -1.
         11    1    3    3    0    0 -0.35669135337E+02  0.52041822468E+02  0.12841812309E+03  0.14307988272E+03  0.00000000000E+00 0.  1.
         21    1    1    2  503  502 -0.33272316900E+01 -0.21258607790E+02  0.62145866462E+01  0.22396873958E+02  0.00000000000E+00 0. -1.
          1    1    1    2  501    0  0.22494860457E+03 -0.84237167455E+02  0.15457265310E+03  0.28564047361E+03  0.00000000000E+00 0. -1.
<scales pt_clust_5="13000.00000" pt_clust_6="13000.00000" pt_clust_7="13000.00000" pt_clust_8="13000.00000" pt_clust_9="21.51741" pt_clust_10="227.31610"></scales>
<clustering>
<clus scale="   21.517">  2  9  1 -1</clus>
<clus scale="   89.786">  7  8 -1 -1</clus>
<clus scale="   93.726">  5  6 -1 -1</clus>
<clus scale="   98.418">  1  7  2 -1</clus>
<clus scale="  227.316">  2 10  1 -1</clus>
<clus scale="   21.517">  2  5  1 -1</clus>
</clustering>
</event>
<event>
10    2  0.2421970E-006  0.1490761E+03  0.7546771E-02  0.1202069E+00
          1   -1    0    0  503    0 -0.00000000000E+00  0.00000000000E+00  0.36282953695E+03  0.36282953695E+03  0.00000000000E+00 0. -1.
         21   -1    0    0  501  502  0.00000000000E+00 -0.00000000000E+00 -0.10799223426E+03  0.10799223426E+03  0.00000000000E+00 0. -1.
         23    2    1    2    0    0  0.11753719230E+03  0.24983500518E+02  0.19117486977E+03  0.24309674231E+03  0.90050143921E+02 0.  0.
         23    2    1    2    0    0 -0.12075810549E+03  0.29622690189E+02  0.62494515167E+02  0.16443882630E+03  0.87604448254E+02 0.  0.
        -11    1    3    3    0    0  0.80622339155E+02  0.40533457956E+02  0.66359089568E+02  0.11201094390E+03  0.00000000000E+00 0.  1.
         11    1    3    3    0    0  0.36914853146E+02 -0.15549957437E+02  0.12481578020E+03  0.13108579841E+03  0.00000000000E+00 0. -1.
        -11    1    4    4    0    0 -0.75254321961E+02  0.15446096915E+02 -0.10216413592E+02  0.77499483807E+02  0.00000000000E+00 0.  1.
         11    1    4    4    0    0 -0.45503783530E+02  0.14176593275E+02  0.72710928759E+02  0.86939342495E+02  0.00000000000E+00 0. -1.
         21    1    1    2  503  502 -0.14282085567E+02 -0.21978291805E+02  0.15668315848E+01  0.26257917663E+02  0.00000000000E+00 0.  1.
          1    1    1    2  501    0  0.17502998756E+02 -0.32627898903E+02 -0.39891382603E+00  0.37028284925E+02  0.00000000000E+00 0. -1.
<scales pt_clust_5="13000.00000" pt_clust_6="13000.00000" pt_clust_7="13000.00000" pt_clust_8="13000.00000" pt_clust_9="26.21113" pt_clust_10="39.74951"></scales>
<clustering>
<clus scale="   26.211">  2  9  1 -1</clus>
<clus scale="   39.750">  2 10  1 -1</clus>
<clus scale="   87.604">  7  8 -1 -1</clus>
<clus scale="   90.050">  5  6 -1 -1</clus>
<clus scale="  147.612">  2  7  1 -1</clus>
<clus scale="   26.211">  2  5  1 -1</clus>
</clustering>
</event>
<event>
10    2  0.2421970E-006  0.1291540E+03  0.7546771E-02  0.1228749E+00
         21   -1    0    0  503  502  0.00000000000E+00  0.00000000000E+00  0.49450042959E+03  0.49450042959E+03  0.00000000000E+00 0. -1.
          4   -1    0    0  502    0 -0.00000000000E+00 -0.00000000000E+00 -0.33924010027E+03  0.33924010027E+03  0.00000000000E+00 0. -1.
         23    2    1    2    0    0 -0.64428126225E+02  0.59699562140E+02 -0.19677984130E+03  0.23407019325E+03  0.91386696273E+02 0.  0.
         23    2    1    2    0    0  0.13275991812E+03 -0.10956247566E+03  0.43452749963E+03  0.47625356379E+03  0.91510530304E+02 0.  0.
        -11    1    4    4    0    0  0.13302970314E+03 -0.61479163255E+02  0.33843791857E+03  0.36880457448E+03  0.00000000000E+00 0. -1.
         11    1    4    4    0    0 -0.26978501628E+00 -0.48083312402E+02  0.96089581064E+02  0.10744898931E+03  0.00000000000E+00 0.  1.
        -11    1    3    3    0    0 -0.52656721221E+02 -0.40030450635E+01 -0.13326511199E+03  0.14334693835E+03  0.00000000000E+00 0. -1.
         11    1    3    3    0    0 -0.11771405004E+02  0.63702607203E+02 -0.63514729311E+02  0.90723254900E+02  0.00000000000E+00 0.  1.
         21    1    1    2  503  501 -0.86261929121E+01  0.20928271514E+02 -0.88667569853E+01  0.24310967322E+02  0.00000000000E+00 0. -1.
          4    1    1    2  501    0 -0.59705598985E+02  0.28934642004E+02 -0.73620572020E+02  0.99105805494E+02  0.00000000000E+00 0. -1.
<scales pt_clust_5="13000.00000" pt_clust_6="13000.00000" pt_clust_7="13000.00000" pt_clust_8="13000.00000" pt_clust_9="20.83216" pt_clust_10="91.80168"></scales>
<clustering>
<clus scale="   20.832">  9 10 -1 -1</clus>
<clus scale="   91.387">  7  8 -1 -1</clus>
<clus scale="   91.511">  5  6 -1 -1</clus>
<clus scale="   91.802">  1  9  2 -1</clus>
<clus scale="  129.066">  2  7  1 -1</clus>
<clus scale="   91.802">  1  5  2 -1</clus>
</clustering>
</event>
<event>
10    2  0.2421970E-006  0.2151806E+03  0.7546771E-02  0.1156387E+00
         -1   -1    0    0    0  501 -0.00000000000E+00  0.00000000000E+00  0.21947594848E+03  0.21947594848E+03  0.00000000000E+00 0.  1.
         21   -1    0    0  501  502  0.00000000000E+00 -0.00000000000E+00 -0.45324482359E+03  0.45324482359E+03  0.00000000000E+00 0.  1.
         23    2    1    2    0    0  0.73126539901E+02 -0.73648142222E+02  0.77946639186E+01  0.13752131875E+03  0.89887800256E+02 0.  0.
         23    2    1    2    0    0 -0.15321589652E+03 -0.11339447611E+03  0.66653111174E+01  0.21129906658E+03  0.90936521862E+02 0.  0.
        -11    1    4    4    0    0 -0.45235786474E+02 -0.32933382482E+02 -0.39999752617E+02  0.68781278478E+02  0.00000000000E+00 0. -1.
         11    1    4    4    0    0 -0.10798011005E+03 -0.80461093623E+02  0.46665063735E+02  0.14251778811E+03  0.00000000000E+00 0.  1.
        -13    1    3    3    0    0  0.32783920598E+02 -0.61485261369E+02  0.43626132022E+02  0.82209866869E+02  0.00000000000E+00 0.  1.
         13    1    3    3    0    0  0.40342619303E+02 -0.12162880853E+02 -0.35831468104E+02  0.55311451882E+02  0.00000000000E+00 0. -1.
         21    1    1    2  503  502  0.54922943672E+02  0.10055370356E+03 -0.10944831830E+03  0.15845034370E+03  0.00000000000E+00 0.  1.
         -1    1    1    2    0  503  0.25166412949E+02  0.86488914765E+02 -0.13878053185E+03  0.16545004303E+03  0.00000000000E+00 0.  1.
<scales pt_clust_5="13000.00000" pt_clust_6="13000.00000" pt_clust_7="13000.00000" pt_clust_8="13000.00000" pt_clust_9="38.59429" pt_clust_10="199.81963"></scales>
<clustering>
<clus scale="   38.594">  9 10 -1 -1</clus>
<clus scale="   89.888">  7  8 -1 -1</clus>
<clus scale="   90.937">  5  6 -1 -1</clus>
<clus scale="  137.300">  1  7  2 -1</clus>
<clus scale="  199.820">  2  9  1 -1</clus>
<clus scale="  199.820">  2  5  1 -1</clus>
</clustering>
</event>
<event>
10    2  0.2421970E-006  0.1067896E+03  0.7546771E-02  0.1267128E+00
         21   -1    0    0  501  502  0.00000000000E+00  0.00000000000E+00  0.98157423467E+03  0.98157423467E+03  0.00000000000E+00 0.  1.
         -1   -1    0    0    0  501 -0.00000000000E+00 -0.00000000000E+00 -0.48845627323E+02  0.48845627323E+02  0.00000000000E+00 0.  1.
         23    2    1    2    0    0  0.97590967194E+01 -0.62658831113E+02  0.38791265238E+02  0.11866103966E+03  0.92489518261E+02 0.  0.
         23    2    1    2    0    0 -0.28436685483E+02 -0.10274539469E+02  0.44961144959E+03  0.45978420400E+03  0.91306338258E+02 0.  0.
        -11    1    4    4    0    0  0.18689132458E+02 -0.37375204682E+02  0.20134140922E+03  0.20563208082E+03  0.00000000000E+00 0.  1.
         11    1    4    4    0    0 -0.47125817941E+02  0.27100665214E+02  0.24827004037E+03  0.25415212318E+03  0.00000000000E+00 0. -1.
        -13    1    3    3    0    0 -0.15970072305E+02 -0.78904735182E+02  0.35733552418E+02  0.88078869271E+02  0.00000000000E+00 0.  1.
         13    1    3    3    0    0  0.25729169025E+02  0.16245904069E+02  0.30577128200E+01  0.30582170384E+02  0.00000000000E+00 0. -1.
         21    1    1    2  503  502  0.22641715988E+02  0.21914593672E+02  0.15788914361E+03  0.16100272789E+03  0.00000000000E+00 0. -1.
         -1    1    1    2    0  503 -0.39641272245E+01  0.51018776910E+02  0.28643674891E+03  0.29097189044E+03  0.00000000000E+00 0.  1.
<scales pt_clust_5="13000.00000" pt_clust_6="13000.00000" pt_clust_7="13000.00000" pt_clust_8="13000.00000" pt_clust_9="27.04028" pt_clust_10="82.79829"></scales>
<clustering>
<clus scale="   27.040">  9 10 -1 -1</clus>
<clus scale="   82.798">  1  9  2 -1</clus>
<clus scale="   91.306">  5  6 -1 -1</clus>
<clus scale="   92.490">  7  8 -1 -1</clus>
<clus scale="  105.767">  1  5  2 -1</clus>
<clus scale="   82.798">  1  5  2 -1</clus>
</clustering>
</event>
<event>
10    2  0.2421970E-006  0.1490966E+03  0.7546771E-02  0.1201930E+00
         21   -1    0    0  503  502  0.00000000000E+00  0.00000000000E+00  0.10241826895E+03  0.10241826895E+03  0.00000000000E+00 0.  1.
          1   -1    0    0  502    0 -0.00000000000E+00 -0.00000000000E+00 -0.48680650657E+03  0.48680650657E+03  0.00000000000E+00 0. -1.
         23    2    1    2    0    0 -0.10682722647E+03  0.15654205037E+02 -0.17470455594E+03  0.22457055144E+03  0.90846795523E+02 0.  0.
         23    2    1    2    0    0  0.12552064691E+03  0.54099890351E+02 -0.21261958542E+03  0.26920185535E+03  0.92630016089E+02 0.  0.
        -11    1    3    3    0    0 -0.37757421569E+02  0.36888015032E+02 -0.25143947372E+02  0.58468509695E+02  0.00000000000E+00 0.  1.
         11    1    3    3    0    0 -0.69069804899E+02 -0.21233809995E+02 -0.14956060857E+03  0.16610204175E+03  0.00000000000E+00 0. -1.
        -13    1    4    4    0    0  0.96051101776E+02  0.63708450505E+02 -0.10064513631E+03  0.15301641834E+03  0.00000000000E+00 0.  1.
         13    1    4    4    0    0  0.29469545131E+02 -0.96085601544E+01 -0.11197444911E+03  0.11618543701E+03  0.00000000000E+00 0. -1.
         21    1    1    2  503  501 -0.32263163070E+02 -0.98255904853E+01  0.42487403535E+01  0.33992730315E+02  0.00000000000E+00 0.  1.
          1    1    1    2  501    0  0.13569742631E+02 -0.59928504902E+02 -0.13128366087E+01  0.61459638421E+02  0.00000000000E+00 0. -1.
<scales pt_clust_5="13000.00000" pt_clust_6="13000.00000" pt_clust_7="13000.00000" pt_clust_8="13000.00000" pt_clust_9="33.72616" pt_clust_10="63.50497"></scales>
<clustering>
<clus scale="   33.726">  1  9  2 -1</clus>
<clus scale="   63.505">  1 10  2 -1</clus>
<clus scale="   90.847">  5  6 -1 -1</clus>
<clus scale="   92.630">  7  8 -1 -1</clus>
<clus scale="  147.995">  2  5  1 -1</clus>
<clus scale="   33.726">  1  5  2 -1</clus>
</clustering>
</event>
<event>
10    2  0.2421970E-006  0.1031635E+03  0.7546771E-02  0.1275497E+00
          2   -1    0    0  502    0 -0.00000000000E+00  0.00000000000E+00  0.34920839229E+03  0.34920839229E+03  0.00000000000E+00 0. -1.
         21   -1    0    0  503  502  0.00000000000E+00 -0.00000000000E+00 -0.64444512437E+02  0.64444512437E+02  0.00000000000E+00 0.  1.
         23    2    1    2    0    0 -0.14860915571E+02  0.33562654392E+02  0.16001711608E+03  0.18912098913E+03  0.93882759387E+02 0.  0.
         23    2    1    2    0    0  0.11581087065E+02 -0.49467360507E+02  0.12808727921E+03  0.16469025541E+03  0.90196384622E+02 0.  0.
        -11    1    3    3    0    0  0.72144875222E+01  0.62080099656E+02  0.11966103122E+03  0.13499907406E+03  0.00000000000E+00 0.  1.
         11    1    3    3    0    0 -0.22075403094E+02 -0.28517445264E+02  0.40356084854E+02  0.54121915070E+02  0.00000000000E+00 0. -1.
        -11    1    4    4    0    0 -0.26375339121E+02 -0.48747552807E+01  0.35289833101E+01  0.27053197149E+02  0.00000000000E+00 0.  1.
         11    1    4    4    0    0  0.37956426186E+02 -0.44592605226E+02  0.12455829590E+03  0.13763705826E+03  0.00000000000E+00 0. -1.
         21    1    1    2  503  501 -0.22395701909E+02 -0.59957071732E+01 -0.10324833414E+02  0.25379482925E+02  0.00000000000E+00 0.  1.
          2    1    1    2  501    0  0.25675530416E+02  0.21900413288E+02  0.69843179867E+01  0.34462177268E+02  0.00000000000E+00 0. -1.
<scales pt_clust_5="13000.00000" pt_clust_6="13000.00000" pt_clust_7="13000.00000" pt_clust_8="13000.00000" pt_clust_9="23.18439" pt_clust_10="27.73158"></scales>
<clustering>
<clus scale="   23.184">  2  9  1 -1</clus>
<clus scale="   27.732">  2 10  1 -1</clus>
<clus scale="   90.196">  7  8 -1 -1</clus>
<clus scale="   93.883">  5  6 -1 -1</clus>
<clus scale="   99.820">  2  7  1 -1</clus>
<clus scale="   23.184">  2  5  1 -1</clus>
</clustering>
</event>
<event>
10    2  0.2421970E-006  0.1384915E+03  0.7546771E-02  0.1215389E+00
          3   -1    0    0  503    0 -0.00000000000E+00  0.00000000000E+00  0.60597628934E+03  0.60597628934E+03  0.00000000000E+00 0. -1.
         21   -1    0    0  501  502  0.00000000000E+00 -0.00000000000E+00 -0.26741451328E+03  0.26741451328E+03  0.00000000000E+00 0. -1.
         23    2    1    2    0    0  0.10184152667E+03 -0.48236611853E+01  0.40472344531E+03  0.42749267710E+03  0.92487607433E+02 0.  0.
         23    2    1    2    0    0 -0.86586300541E+02  0.14505580549E+03  0.96113933282E+02  0.21521473197E+03  0.92418172124E+02 0.  0.
        -13    1    3    3    0    0  0.66306493553E+02  0.21850845084E+02  0.35052039730E+03  0.35740531535E+03  0.00000000000E+00 0.  1.
         13    1    3    3    0    0  0.35535033114E+02 -0.26674506270E+02  0.54203048010E+02  0.70087361747E+02  0.00000000000E+00 0. -1.
        -13    1    4    4    0    0 -0.82091218705E+02  0.48450517261E+02  0.39749927859E+02  0.10327864046E+03  0.00000000000E+00 0.  1.
         13    1    4    4    0    0 -0.44950818364E+01  0.96605288229E+02  0.56364005424E+02  0.11193609151E+03  0.00000000000E+00 0. -1.
         21    1    1    2  503  502  0.30749131258E+02 -0.45205131398E+02 -0.33333645477E+02  0.64032373832E+02  0.00000000000E+00 0. -1.
          3    1    1    2  501    0 -0.46004357384E+02 -0.95027012906E+02 -0.12894195706E+03  0.16665101971E+03  0.00000000000E+00 0. -1.
<scales pt_clust_5="13000.00000" pt_clust_6="13000.00000" pt_clust_7="13000.00000" pt_clust_8="13000.00000" pt_clust_9="54.67187" pt_clust_10="128.08103"></scales>
<clustering>
<clus scale="   54.672">  2  9  1 -1</clus>
<clus scale="   92.418">  7  8 -1 -1</clus>
<clus scale="   92.488">  5  6 -1 -1</clus>
<clus scale="  128.081">  2 10  1 -1</clus>
<clus scale="  138.445">  2  7  1 -1</clus>
<clus scale="   54.672">  2  5  1 -1</clus>
</clustering>
</event>
<event>
10    2  0.2421970E-006  0.1758390E+03  0.7546771E-02  0.1172126E+00
         -3   -1    0    0    0  501 -0.00000000000E+00  0.00000000000E+00  0.78859417169E+03  0.78859417169E+03  0.00000000000E+00 0.  1.
         21   -1    0    0  501  502  0.00000000000E+00 -0.00000000000E+00 -0.11708502303E+03  0.11708502303E+03  0.00000000000E+00 0.  1.
         23    2    1    2    0    0  0.58417650806E+02 -0.17563089528E+03  0.56334032509E+03  0.60000853854E+03  0.91646555513E+02 0.  0.
         23    2    1    2    0    0 -0.70183977759E+02  0.73200976030E+02  0.12713884032E+03  0.18579389630E+03  0.89838263330E+02 0.  0.
        -11    1    3    3    0    0  0.76113352887E+02 -0.14739572530E+03  0.39530775493E+03  0.42870381784E+03  0.00000000000E+00 0.  1.
         11    1    3    3    0    0 -0.17695702082E+02 -0.28235169972E+02  0.16803257017E+03  0.17130472069E+03  0.00000000000E+00 0. -1.
        -13    1    4    4    0    0 -0.56430692349E+02  0.30897073313E+02  0.16309400519E+02  0.66370541082E+02  0.00000000000E+00 0.  1.
         13    1    4    4    0    0 -0.13753285410E+02  0.42303902716E+02  0.11082943980E+03  0.11942335522E+03  0.00000000000E+00 0. -1.
         21    1    1    2  503  502 -0.21275051107E+02  0.46102880631E+02  0.32969020361E+01  0.50881951270E+02  0.00000000000E+00 0. -1.
         -3    1    1    2    0  503  0.33041378060E+02  0.56327038616E+02 -0.22266918788E+02  0.68994808614E+02  0.00000000000E+00 0.  1.
<scales pt_clust_5="13000.00000" pt_clust_6="13000.00000" pt_clust_7="13000.00000" pt_clust_8="13000.00000" pt_clust_9="50.77503" pt_clust_10="82.06032"></scales>
<clustering>
<clus scale="   50.775">  2  9  1 -1</clus>
<clus scale="   82.060">  2 10  1 -1</clus>
<clus scale="   89.838">  7  8 -1 -1</clus>
<clus scale="   91.647">  5  6 -1 -1</clus>
<clus scale="  174.903">  2  7  1 -1</clus>
<clus scale="   50.775">  2  5  1 -1</clus>
</clustering>
</event>
<event>
10    2  0.2421970E-006  0.1944803E+03  0.7546771E-02  0.1176189E+00
         21   -1    0    0  501  502  0.00000000000E+00  0.00000000000E+00  0.49623202527E+03  0.49623202527E+03  0.00000000000E+00 0.  1.
          1   -1    0    0  503    0 -0.00000000000E+00 -0.00000000000E+00 -0.19563324680E+03  0.19563324680E+03  0.00000000000E+00 0. -1.
         23    2    1    2    0    0 -0.57977481701E+01  0.76515953336E+02 -0.14774468008E+02  0.11641643272E+03  0.86291343162E+02 0.  0.
         23    2    1    2    0    0  0.15436725010E+03 -0.14742297225E+03  0.36686175292E+02  0.23762462970E+03  0.97758930696E+02 0.  0.
        -11    1    4    4    0    0  0.11841667930E+02 -0.34761157010E+02  0.42102751548E+02  0.55867744039E+02  0.00000000000E+00 0.  1.
         11    1    4    4    0    0  0.14252558217E+03 -0.11266181524E+03 -0.54165762561E+01  0.18175688566E+03  0.00000000000E+00 0. -1.
        -13    1    3    3    0    0 -0.42329450759E+02  0.52637328248E+02  0.65107071989E+01  0.67859119025E+02  0.00000000000E+00 0.  1.
         13    1    3    3    0    0  0.36531702589E+02  0.23878625087E+02 -0.21285175207E+02  0.48557313699E+02  0.00000000000E+00 0. -1.
         21    1    1    2  503  502 -0.14699022545E+03  0.42701877862E+02  0.18576828713E+03  0.24070611387E+03  0.00000000000E+00 0.  1.
          1    1    1    2  501    0 -0.15792764790E+01  0.28205141056E+02  0.92918784058E+02  0.97118095775E+02  0.00000000000E+00 0. -1.
<scales pt_clust_5="13000.00000" pt_clust_6="13000.00000" pt_clust_7="13000.00000" pt_clust_8="13000.00000" pt_clust_9="168.12425" pt_clust_10="28.24932"></scales>
<clustering>
<clus scale="   28.249">  1 10  2 -1</clus>
<clus scale="   86.291">  7  8 -1 -1</clus>
<clus scale="   97.759">  5  6 -1 -1</clus>
<clus scale="  117.883">  2  7  1 -1</clus>
<clus scale="  168.124">  1  9  2 -1</clus>
<clus scale="   28.249">  1  5  2 -1</clus>
</clustering>
</event>
<event>
10    2  0.2421970E-006  0.1099186E+03  0.7546771E-02  0.1260775E+00
         21   -1    0    0  501  502  0.00000000000E+00  0.00000000000E+00  0.37618050399E+02  0.37618050399E+02  0.00000000000E+00 0.  1.
          2   -1    0    0  503    0 -0.00000000000E+00 -0.00000000000E+00 -0.55667909097E+03  0.55667909097E+03  0.00000000000E+00 0. -1.
         23    2    1    2    0    0 -0.52566039912E+02  0.31484539718E+02 -0.22461219476E+03  0.25095000673E+03  0.93652565639E+02 0.  0.
         23    2    1    2    0    0  0.34348574085E+02 -0.42400404931E+02 -0.17466902223E+03  0.20562985028E+03  0.93790986351E+02 0.  0.
        -13    1    4    4    0    0  0.10153588581E+02 -0.51858821283E+02 -0.34579452294E+02  0.63151969304E+02  0.00000000000E+00 0.  1.
         13    1    4    4    0    0  0.24194985505E+02  0.94584163526E+01 -0.14008956994E+03  0.14247788098E+03  0.00000000000E+00 0. -1.
        -13    1    3    3    0    0  0.23325791440E+02  0.25027683715E+02 -0.51565592685E+02  0.61882855844E+02  0.00000000000E+00 0.  1.
         13    1    3    3    0    0 -0.75891831352E+02  0.64568560034E+01 -0.17304660207E+03  0.18906715089E+03  0.00000000000E+00 0. -1.
         21    1    1    2  503  502  0.37906565540E+02 -0.72799491903E+01 -0.51475474063E+02  0.64339954937E+02  0.00000000000E+00 0.  1.
          2    1    1    2  501    0 -0.19689099714E+02  0.18195814403E+02 -0.68304349514E+02  0.73377329414E+02  0.00000000000E+00 0. -1.
<scales pt_clust_5="13000.00000" pt_clust_6="13000.00000" pt_clust_7="13000.00000" pt_clust_8="13000.00000" pt_clust_9="34.52255" pt_clust_10="26.80950"></scales>
<clustering>
<clus scale="   26.809">  1 10  2 -1</clus>
<clus scale="   34.523">  1  9  2 -1</clus>
<clus scale="   93.653">  7  8 -1 -1</clus>
<clus scale="   93.791">  5  6 -1 -1</clus>
<clus scale="  109.801">  2  7  1 -1</clus>
<clus scale="   26.809">  1  5  2 -1</clus>
</clustering>
</event>
<event>
10    2  0.2421970E-006  0.1166902E+03  0.7546771E-02  0.1248710E+00
          3   -1    0    0  503    0 -0.00000000000E+00  0.00000000000E+00  0.24962920828E+03  0.24962920828E+03  0.00000000000E+00 0. -1.
         21   -1    0    0  501  502  0.00000000000E+00 -0.00000000000E+00 -0.18692867166E+03  0.18692867166E+03  0.00000000000E+00 0. -1.
         23    2    1    2    0    0 -0.39786015142E+01  0.53496674736E+02  0.10891135019E+03  0.15210011455E+03  0.91624446353E+02 0.  0.
         23    2    1    2    0    0  0.27529082497E+02 -0.11540561833E+03  0.51210029580E+02  0.15849701198E+03  0.91774334942E+02 0.  0.
        -13    1    4    4    0    0 -0.28489652372E+02 -0.31538981518E+02  0.37565507746E+02  0.56723319893E+02  0.00000000000E+00 0.  1.
         13    1    4    4    0    0  0.56018734869E+02 -0.83866636808E+02  0.13644521834E+02  0.10177369209E+03  0.00000000000E+00 0. -1.
        -13    1    3    3    0    0 -0.42662317583E+02  0.44066763404E+02  0.87603171353E+02  0.10694049097E+03  0.00000000000E+00 0. -1.
         13    1    3    3    0    0  0.38683716069E+02  0.94299113325E+01  0.21308178835E+02  0.45159623580E+02  0.00000000000E+00 0.  1.
         21    1    1    2  503  502 -0.34719360654E+02  0.41184139065E+02 -0.80927868398E+02  0.97215673624E+02  0.00000000000E+00 0. -1.
          3    1    1    2  501    0  0.11168879671E+02  0.20724804525E+02 -0.16492974750E+02  0.28745079784E+02  0.00000000000E+00 0. -1.
<scales pt_clust_5="13000.00000" pt_clust_6="13000.00000" pt_clust_7="13000.00000" pt_clust_8="13000.00000" pt_clust_9="59.74461" pt_clust_10="23.54276"></scales>
<clustering>
<clus scale="   23.543">  2 10  1 -1</clus>
<clus scale="   59.745">  2  9  1 -1</clus>
<clus scale="   91.624">  7  8 -1 -1</clus>
<clus scale="   91.774">  5  6 -1 -1</clus>
<clus scale="  116.572">  1  7  2 -1</clus>
<clus scale="   23.543">  2  5  1 -1</clus>
</clustering>
</event>
<event>
10    2  0.2421970E-006  0.1924899E+03  0.7546771E-02  0.1174204E+00
          1   -1    0    0  503    0 -0.00000000000E+00  0.00000000000E+00  0.59681976979E+03  0.59681976979E+03  0.00000000000E+00 0. -1.
         21   -1    0    0  501  502  0.00000000000E+00 -0.00000000000E+00 -0.52973957793E+03  0.52973957793E+03  0.00000000000E+00 0.  1.
         23    2    1    2    0    0  0.38354009507E+02 -0.84002604700E+02 -0.41039291529E+02  0.13722364953E+03  0.92836624774E+02 0.  0.
         23    2    1    2    0    0 -0.18540844605E+03 -0.16193429493E+02  0.49663042882E+03  0.53818083667E+03  0.91423799495E+02 0.  0.
        -11    1    3    3    0    0  0.59291900435E+02 -0.41560617678E+02  0.31486934746E+01  0.72475710894E+02  0.00000000000E+00 0. -1.
         11    1    3    3    0    0 -0.20937890929E+02 -0.42441987021E+02 -0.44187985003E+02  0.64747938635E+02  0.00000000000E+00 0.  1.
        -13    1    4    4    0    0 -0.15546213200E+03 -0.48884309738E+02  0.39548871093E+03  0.42774930824E+03  0.00000000000E+00 0. -1.
         13    1    4    4    0    0 -0.29946314048E+02  0.32690880245E+02  0.10114171788E+03  0.11043152843E+03  0.00000000000E+00 0.  1.
         21    1    1    2  503  502  0.17099071084E+02  0.42618003210E+02 -0.10223323255E+02  0.47044540256E+02  0.00000000000E+00 0.  1.
          1    1    1    2  501    0  0.12995536545E+03  0.57578030983E+02 -0.37828762218E+03  0.40411032127E+03  0.00000000000E+00 0. -1.
<scales pt_clust_5="13000.00000" pt_clust_6="13000.00000" pt_clust_7="13000.00000" pt_clust_8="13000.00000" pt_clust_9="45.92028" pt_clust_10="169.39324"></scales>
<clustering>
<clus scale="   45.920">  2  9  1 -1</clus>
<clus scale="   91.424">  7  8 -1 -1</clus>
<clus scale="   92.837">  5  6 -1 -1</clus>
<clus scale="  127.171">  1  5  2 -1</clus>
<clus scale="  169.393">  2 10  1 -1</clus>
<clus scale="   45.920">  2  5  1 -1</clus>
</clustering>
</event>
<event>
10    2  0.2421970E-006  0.1035572E+03  0.7546771E-02  0.1274088E+00
         21   -1    0    0  501  502  0.00000000000E+00  0.00000000000E+00  0.42367828194E+02  0.42367828194E+02  0.00000000000E+00 0.  1.
          1   -1    0    0  503    0 -0.00000000000E+00 -0.00000000000E+00 -0.57546628094E+03  0.57546628094E+03  0.00000000000E+00 0. -1.
         23    2    1    2    0    0 -0.32238206538E+02  0.46941388711E+02 -0.29622239522E+03  0.31467994771E+03  0.89626815918E+02 0.  0.
         23    2    1    2    0    0  0.21451430482E+02 -0.30116029078E+02 -0.23379138068E+03  0.25397340485E+03  0.92070307978E+02 0.  0.
        -11    1    3    3    0    0 -0.53848679913E+02 -0.37487000137E+00 -0.13846079168E+03  0.14856383035E+03  0.00000000000E+00 0.  1.
         11    1    3    3    0    0  0.21610473374E+02  0.47316258712E+02 -0.15776160354E+03  0.16611611737E+03  0.00000000000E+00 0. -1.
        -13    1    4    4    0    0 -0.16716899362E+02 -0.23559511950E+02 -0.16520636363E+02  0.33278172328E+02  0.00000000000E+00 0.  1.
         13    1    4    4    0    0  0.38168329845E+02 -0.65565171277E+01 -0.21727074432E+03  0.22069523252E+03  0.00000000000E+00 0. -1.
         21    1    1    2  503  502 -0.17415842121E+02 -0.99146988501E+01 -0.16586852157E+01  0.20108805203E+02  0.00000000000E+00 0.  1.
          1    1    1    2  501    0  0.28202618177E+02 -0.69106607831E+01 -0.14259916373E+01  0.29071951373E+02  0.00000000000E+00 0. -1.
<scales pt_clust_5="13000.00000" pt_clust_6="13000.00000" pt_clust_7="13000.00000" pt_clust_8="13000.00000" pt_clust_9="20.04028" pt_clust_10="23.67380"></scales>
<clustering>
<clus scale="   20.040">  1  9  2 -1</clus>
<clus scale="   23.674">  1 10  2 -1</clus>
<clus scale="   89.627">  5  6 -1 -1</clus>
<clus scale="   92.070">  7  8 -1 -1</clus>
<clus scale="  101.391">  2  5  1 -1</clus>
<clus scale="   20.040">  1  5  2 -1</clus>
</clustering>
</event>
<event>
10    2  0.2421970E-006  0.1131664E+03  0.7546771E-02  0.1255759E+00
         21   -1    0    0  501  502  0.00000000000E+00  0.00000000000E+00  0.33097120111E+03  0.33097120111E+03  0.00000000000E+00 0.  1.
         -2   -1    0    0    0  501 -0.00000000000E+00 -0.00000000000E+00 -0.16803518076E+03  0.16803518076E+03  0.00000000000E+00 0.  1.
         23    2    1    2    0    0  0.68664672051E+02  0.18386994238E+02 -0.59165957491E+02  0.12979529969E+03  0.91067505454E+02 0.  0.
         23    2    1    2    0    0 -0.62188807118E+02  0.67443573421E+02  0.24255113256E+02  0.12972368554E+03  0.88452477321E+02 0.  0.
        -13    1    4    4    0    0 -0.41023071461E+02  0.88466503208E+02  0.20614290761E+02  0.99670274232E+02  0.00000000000E+00 0.  1.
         13    1    4    4    0    0 -0.21165735657E+02 -0.21022929787E+02  0.36408224959E+01  0.30053411307E+02  0.00000000000E+00 0. -1.
        -13    1    3    3    0    0  0.48258413851E+02  0.35707358478E+02 -0.76996801408E+02  0.97633997070E+02  0.00000000000E+00 0.  1.
         13    1    3    3    0    0  0.20406258200E+02 -0.17320364240E+02  0.17830843916E+02  0.32161302615E+02  0.00000000000E+00 0. -1.
         21    1    1    2  503  502 -0.21034262541E+02  0.18967958610E+02  0.53255602227E+02  0.60319008803E+02  0.00000000000E+00 0. -1.
         -2    1    1    2    0  503  0.14558397607E+02 -0.10479852627E+03  0.14459126236E+03  0.17916838783E+03  0.00000000000E+00 0.  1.
<scales pt_clust_5="13000.00000" pt_clust_6="13000.00000" pt_clust_7="13000.00000" pt_clust_8="13000.00000" pt_clust_9="28.32355" pt_clust_10="93.62418"></scales>
<clustering>
<clus scale="   28.324">  1  9  2 -1</clus>
<clus scale="   88.452">  5  6 -1 -1</clus>
<clus scale="   91.068">  7  8 -1 -1</clus>
<clus scale="   93.624">  1 10  2 -1</clus>
<clus scale="  111.073">  1  5  2 -1</clus>
<clus scale="   28.324">  1  5  2 -1</clus>
</clustering>
</event>
<event>
10    2  0.2421970E-006  0.1250087E+03  0.7546771E-02  0.1238517E+00
         -3   -1    0    0    0  501 -0.00000000000E+00  0.00000000000E+00  0.34266856869E+02  0.34266856869E+02  0.00000000000E+00 0.  1.
         21   -1    0    0  503  502  0.00000000000E+00 -0.00000000000E+00 -0.78106491648E+03  0.78106491648E+03  0.00000000000E+00 0. -1.
         23    2    1    2    0    0 -0.93017663709E+02  0.49743699708E+01 -0.18574887769E+03  0.22618444597E+03  0.89329322826E+02 0.  0.
         23    2    1    2    0    0  0.48992258256E+02  0.18390480124E+02 -0.27506615056E+03  0.29738798347E+03  0.10019867463E+03 0.  0.
        -13    1    3    3    0    0 -0.13909255953E+02 -0.36979801385E+02 -0.55784790293E+02  0.68358729799E+02  0.00000000000E+00 0.  1.
         13    1    3    3    0    0 -0.79108407756E+02  0.41954171355E+02 -0.12996408740E+03  0.15782571617E+03  0.00000000000E+00 0. -1.
        -13    1    4    4    0    0  0.65078652309E+02  0.46122849724E+02 -0.17523911162E+03  0.19253907265E+03  0.00000000000E+00 0.  1.
         13    1    4    4    0    0 -0.16086394053E+02 -0.27732369600E+02 -0.99827038941E+02  0.10484891082E+03  0.00000000000E+00 0. -1.
         21    1    1    2  503  501  0.33904975760E+02 -0.18101331294E+01 -0.16661543818E+03  0.17003978417E+03  0.00000000000E+00 0.  1.
         -3    1    1    2    0  502  0.10120429693E+02 -0.21554716966E+02 -0.11936759318E+03  0.12171955973E+03  0.00000000000E+00 0.  1.
<scales pt_clust_5="13000.00000" pt_clust_6="13000.00000" pt_clust_7="13000.00000" pt_clust_8="13000.00000" pt_clust_9="37.20784" pt_clust_10="23.81237"></scales>
<clustering>
<clus scale="   23.812">  2 10  1 -1</clus>
<clus scale="   37.208">  2  9  1 -1</clus>
<clus scale="   89.329">  5  6 -1 -1</clus>
<clus scale="  100.199">  7  8 -1 -1</clus>
<clus scale="  116.478">  1  5  2 -1</clus>
<clus scale="   23.812">  2  5  1 -1</clus>
</clustering>
</event>
<event>
10    2  0.2421970E-006  0.1583483E+03  0.7546771E-02  0.1191450E+00
          1   -1    0    0  503    0 -0.00000000000E+00  0.00000000000E+00  0.13001896670E+04  0.13001896670E+04  0.00000000000E+00 0. -1.
         21   -1    0    0  501  502  0.00000000000E+00 -0.00000000000E+00 -0.46796058469E+02  0.46796058469E+02  0.00000000000E+00 0.  1.
         23    2    1    2    0    0  0.15161659354E+03  0.79656435540E+02  0.88107859223E+03  0.90168101846E+03  0.86002524414E+02 0.  0.
         23    2    1    2    0    0 -0.38275961289E+02 -0.47971728572E+02  0.15281224832E+03  0.18832093821E+03  0.91361132744E+02 0.  0.
        -11    1    3    3    0    0  0.53804436055E+02 -0.14663930311E+02  0.25505235304E+03  0.26107786383E+03  0.00000000000E+00 0. -1.
         11    1    3    3    0    0  0.97812157481E+02  0.94320365851E+02  0.62602623919E+03  0.64060315463E+03  0.00000000000E+00 0.  1.
        -13    1    4    4    0    0 -0.48501315803E+02 -0.26782250029E+02  0.29469783090E+02  0.62754558930E+02  0.00000000000E+00 0.  1.
         13    1    4    4    0    0  0.10225354514E+02 -0.21189478543E+02  0.12334246523E+03  0.12556637928E+03  0.00000000000E+00 0. -1.
         21    1    1    2  503  502 -0.22961935841E+02 -0.35840134256E+02  0.59235020551E+02  0.72942123501E+02  0.00000000000E+00 0. -1.
          1    1    1    2  501    0 -0.90378696406E+02  0.41554272874E+01  0.16026774745E+03  0.18404164532E+03  0.00000000000E+00 0. -1.
<scales pt_clust_5="13000.00000" pt_clust_6="13000.00000" pt_clust_7="13000.00000" pt_clust_8="13000.00000" pt_clust_9="42.56484" pt_clust_10="97.42998"></scales>
<clustering>
<clus scale="   42.565">  2  9  1 -1</clus>
<clus scale="   86.003">  5  6 -1 -1</clus>
<clus scale="   91.361">  7  8 -1 -1</clus>
<clus scale="   97.430">  2 10  1 -1</clus>
<clus scale="  155.318">  1  5  2 -1</clus>
<clus scale="   42.565">  2  5  1 -1</clus>
</clustering>
</event>
<event>
10    2  0.2421970E-006  0.1114600E+03  0.7546771E-02  0.1259920E+00
         -3   -1    0    0    0  501 -0.00000000000E+00  0.00000000000E+00  0.36704887152E+03  0.36704887152E+03  0.00000000000E+00 0.  1.
         21   -1    0    0  503  502  0.00000000000E+00 -0.00000000000E+00 -0.21989762158E+03  0.21989762158E+03  0.00000000000E+00 0.  1.
         23    2    1    2    0    0 -0.10501091726E+02 -0.75751127822E+02  0.23448659419E+03  0.26169895539E+03  0.87486422400E+02 0.  0.
         23    2    1    2    0    0  0.20370617348E+02  0.33959444103E+02  0.89087494510E+02  0.13458593819E+03  0.92782472405E+02 0.  0.
        -11    1    3    3    0    0 -0.35481542421E+01 -0.21699444988E+02  0.10794319386E+01  0.22014097407E+02  0.00000000000E+00 0. -1.
         11    1    3    3    0    0 -0.69529374841E+01 -0.54051682834E+02  0.23340716225E+03  0.23968485798E+03  0.00000000000E+00 0.  1.
        -13    1    4    4    0    0 -0.12136911568E+02 -0.28151080969E+02  0.30178523000E+02  0.43017801345E+02  0.00000000000E+00 0.  1.
         13    1    4    4    0    0  0.32507528917E+02  0.62110525072E+02  0.58908971509E+02  0.91568136845E+02  0.00000000000E+00 0. -1.
         21    1    1    2  503  501 -0.32311296027E+02  0.37299131694E+02 -0.12413055368E+03  0.13358008622E+03  0.00000000000E+00 0.  1.
         -3    1    1    2    0  502  0.22441770405E+02  0.44925520251E+01 -0.52292285077E+02  0.57081513305E+02  0.00000000000E+00 0.  1.
<scales pt_clust_5="13000.00000" pt_clust_6="13000.00000" pt_clust_7="13000.00000" pt_clust_8="13000.00000" pt_clust_9="43.40698" pt_clust_10="22.88703"></scales>
<clustering>
<clus scale="   22.887">  2 10  1 -1</clus>
<clus scale="   43.407">  2  9  1 -1</clus>
<clus scale="   87.486">  5  6 -1 -1</clus>
<clus scale="   92.782">  7  8 -1 -1</clus>
<clus scale="  107.092">  1  5  2 -1</clus>
<clus scale="   22.887">  2  5  1 -1</clus>
</clustering>
</event>
<event>
10    2  0.2421970E-006  0.1896627E+03  0.7546771E-02  0.1159391E+00
          1   -1    0    0  503    0 -0.00000000000E+00  0.00000000000E+00  0.38403648093E+03  0.38403648093E+03  0.00000000000E+00 0. -1.
         21   -1    0    0  501  502  0.00000000000E+00 -0.00000000000E+00 -0.24997212200E+03  0.24997212200E+03  0.00000000000E+00 0. -1.
         23    2    1    2    0    0 -0.17961463414E+03 -0.95545674564E+02  0.23000241344E+03  0.32167197002E+03  0.95819378944E+02 0.  0.
         23    2    1    2    0    0  0.97794937354E+02  0.15748891818E+02 -0.11120816485E+03  0.17414560114E+03  0.90263819449E+02 0.  0.
        -11    1    4    4    0    0  0.19586792678E+02  0.44047305531E+02 -0.24790647845E+02  0.54206861121E+02  0.00000000000E+00 0.  1.
         11    1    4    4    0    0  0.78208144676E+02 -0.28298413713E+02 -0.86417517001E+02  0.11993874002E+03  0.00000000000E+00 0. -1.
        -11    1    3    3    0    0 -0.14972872104E+03 -0.33830756596E+02  0.18135338358E+03  0.23759684285E+03  0.00000000000E+00 0. -1.
         11    1    3    3    0    0 -0.29885913091E+02 -0.61714917968E+02  0.48649029863E+02  0.84075127165E+02  0.00000000000E+00 0.  1.
         21    1    1    2  503  502  0.30646372576E+02 -0.49605273897E+01  0.23361757790E+02  0.38853297300E+02  0.00000000000E+00 0.  1.
          1    1    1    2  501    0  0.51173324205E+02  0.84757310135E+02 -0.80916474532E+01  0.99337734472E+02  0.00000000000E+00 0. -1.
<scales pt_clust_5="13000.00000" pt_clust_6="13000.00000" pt_clust_7="13000.00000" pt_clust_8="13000.00000" pt_clust_9="31.04524" pt_clust_10="100.57523"></scales>
<clustering>
<clus scale="   31.045">  1  9  2 -1</clus>
<clus scale="   90.264">  5  6 -1 -1</clus>
<clus scale="   95.819">  7  8 -1 -1</clus>
<clus scale="  100.575">  2 10  1 -1</clus>
<clus scale="  186.917">  2  5  1 -1</clus>
<clus scale="  100.575">  2  5  1 -1</clus>
</clustering>
</event>
<event>
10    2  0.2421970E-006  0.9500205E+02  0.7546771E-02  0.1291225E+00
         21   -1    0    0  503  502  0.00000000000E+00  0.00000000000E+00  0.26336027450E+03  0.26336027450E+03  0.00000000000E+00 0. -1.
          2   -1    0    0  502    0 -0.00000000000E+00 -0.00000000000E+00 -0.13840649551E+03  0.13840649551E+03  0.00000000000E+00 0. -1.
         23    2    1    2    0    0  0.36573418864E+02  0.28253507387E+02 -0.57721884010E+02  0.11798528109E+03  0.91939300697E+02 0.  0.
         23    2    1    2    0    0  0.80980105050E+01  0.46575512951E+02  0.33813141490E+02  0.10723856516E+03  0.90121724012E+02 0.  0.
        -11    1    3    3    0    0  0.59121422083E+02  0.12899729779E+02 -0.65937548750E+02  0.89495842990E+02  0.00000000000E+00 0. -1.
         11    1    3    3    0    0 -0.22548003219E+02  0.15353777608E+02  0.82156647396E+01  0.28489438097E+02  0.00000000000E+00 0.  1.
        -13    1    4    4    0    0  0.43683236087E+02  0.40171966346E+02  0.38557075044E+02  0.70771887294E+02  0.00000000000E+00 0. -1.
         13    1    4    4    0    0 -0.35585225582E+02  0.64035466052E+01 -0.47439335541E+01  0.36466677864E+02  0.00000000000E+00 0.  1.
         21    1    1    2  503  501 -0.57226102876E+01 -0.37975349224E+02  0.41551004101E+02  0.56580574043E+02  0.00000000000E+00 0. -1.
          2    1    1    2  501    0 -0.38948819082E+02 -0.36853671114E+02  0.10731151740E+03  0.11996234972E+03  0.00000000000E+00 0. -1.
<scales pt_clust_5="13000.00000" pt_clust_6="13000.00000" pt_clust_7="13000.00000" pt_clust_8="13000.00000" pt_clust_9="31.80577" pt_clust_10="94.90708"></scales>
<clustering>
<clus scale="   31.806">  9 10 -1 -1</clus>
<clus scale="   90.122">  7  8 -1 -1</clus>
<clus scale="   91.939">  5  6 -1 -1</clus>
<clus scale="   94.907">  1  9  2 -1</clus>
<clus scale="   94.907">  1  7  2 -1</clus>
<clus scale="   94.907">  1  5  2 -1</clus>
</clustering>
</event>
<event>
10    2  0.2421970E-006  0.1324370E+03  0.7546771E-02  0.1223915E+00
         21   -1    0    0  503  502  0.00000000000E+00  0.00000000000E+00  0.64074782239E+02  0.64074782239E+02  0.00000000000E+00 0. -1.
          2   -1    0    0  502    0 -0.00000000000E+00 -0.00000000000E+00 -0.71461493020E+03  0.71461493020E+03  0.00000000000E+00 0. -1.
         23    2    1    2    0    0  0.11846851331E+03  0.21090905087E+02 -0.44236308695E+03  0.46754199386E+03  0.91819390162E+02 0.  0.
         23    2    1    2    0    0 -0.37259221778E+02 -0.68866626534E+02 -0.16513785470E+03  0.20447388047E+03  0.91696209741E+02 0.  0.
        -13    1    4    4    0    0  0.81304764977E+01 -0.73952659164E+02 -0.11124319450E+03  0.13382880395E+03  0.00000000000E+00 0.  1.
         13    1    4    4    0    0 -0.45389698275E+02  0.50860326295E+01 -0.53894660202E+02  0.70645076514E+02  0.00000000000E+00 0. -1.
        -13    1    3    3    0    0  0.84684457152E+02  0.16617032666E+02 -0.41488381714E+03  0.42376427974E+03  0.00000000000E+00 0. -1.
         13    1    3    3    0    0  0.33784056158E+02  0.44738724211E+01 -0.27479269807E+02  0.43777714125E+02  0.00000000000E+00 0.  1.
         21    1    1    2  503  501 -0.41017230076E+02  0.38718565386E+02 -0.25103767128E+02  0.61739287270E+02  0.00000000000E+00 0. -1.
          2    1    1    2  501    0 -0.40192061456E+02  0.90571560615E+01 -0.17935439183E+02  0.44934550834E+02  0.00000000000E+00 0. -1.
<scales pt_clust_5="13000.00000" pt_clust_6="13000.00000" pt_clust_7="13000.00000" pt_clust_8="13000.00000" pt_clust_9="21.78046" pt_clust_10="97.60602"></scales>
<clustering>
<clus scale="   21.780">  9 10 -1 -1</clus>
<clus scale="   91.696">  5  6 -1 -1</clus>
<clus scale="   91.819">  7  8 -1 -1</clus>
<clus scale="   97.606">  1  9  2 -1</clus>
<clus scale="  132.352">  1  5  2 -1</clus>
<clus scale="   97.606">  1  5  2 -1</clus>
</clustering>
</event>
<event>
10    2  0.2421970E-006  0.2015067E+03  0.7546771E-02  0.1149806E+00
         21   -1    0    0  503  502  0.00000000000E+00  0.00000000000E+00  0.18687222368E+04  0.18687222368E+04  0.00000000000E+00 0.  1.
         -3   -1    0    0    0  501 -0.00000000000E+00 -0.00000000000E+00 -0.55994519062E+02  0.55994519062E+02  0.00000000000E+00 0.  1.
         23    2    1    2    0    0  0.88316177337E+02 -0.14917160982E+03  0.31757710130E+03  0.36983004842E+03  0.76597213326E+02 0.  0.
         23    2    1    2    0    0 -0.18955365896E+03  0.11694197197E+03  0.13033041736E+04  0.13253536048E+04  0.91402376020E+02 0.  0.
        -13    1    3    3    0    0  0.45373191077E+02 -0.88394778653E+02  0.10479617023E+03  0.14441122067E+03  0.00000000000E+00 0.  1.
         13    1    3    3    0    0  0.42942986261E+02 -0.60776831163E+02  0.21278093107E+03  0.22541882775E+03  0.00000000000E+00 0. -1.
        -13    1    4    4    0    0 -0.32996236303E+02  0.69862141841E+02  0.41462552411E+03  0.42176272442E+03  0.00000000000E+00 0. -1.
         13    1    4    4    0    0 -0.15655742266E+03  0.47079830129E+02  0.88867864948E+03  0.90359088034E+03  0.00000000000E+00 0.  1.
         21    1    1    2  503  501  0.48110842821E+02  0.11774828880E+02  0.15247033597E+03  0.16031376467E+03  0.00000000000E+00 0.  1.
         -3    1    1    2    0  502  0.53126638804E+02  0.20454808966E+02  0.39376106873E+02  0.69219337998E+02  0.00000000000E+00 0.  1.
<scales pt_clust_5="13000.00000" pt_clust_6="13000.00000" pt_clust_7="13000.00000" pt_clust_8="13000.00000" pt_clust_9="49.53080" pt_clust_10="58.48660"></scales>
<clustering>
<clus scale="   49.531">  1  9  2 -1</clus>
<clus scale="   58.487">  1 10  2 -1</clus>
<clus scale="   76.597">  5  6 -1 -1</clus>
<clus scale="   91.402">  7  8 -1 -1</clus>
<clus scale="  195.237">  2  5  1 -1</clus>
<clus scale="   49.531">  1  5  2 -1</clus>
</clustering>
</event>
<event>
10    2  0.2421970E-006  0.1086990E+03  0.7546771E-02  0.1264557E+00
         21   -1    0    0  503  502  0.00000000000E+00  0.00000000000E+00  0.11239199784E+03  0.11239199784E+03  0.00000000000E+00 0.  1.
         -3   -1    0    0    0  501 -0.00000000000E+00 -0.00000000000E+00 -0.33784767363E+03  0.33784767363E+03  0.00000000000E+00 0.  1.
         23    2    1    2    0    0  0.47034895617E+02 -0.50538929973E+02 -0.24187510099E+03  0.26823869814E+03  0.93177088661E+02 0.  0.
         23    2    1    2    0    0 -0.27153330743E+02  0.60213780843E+01 -0.34162796037E+02  0.99622014603E+02  0.89352609341E+02 0.  0.
        -11    1    4    4    0    0 -0.90809027063E+01 -0.41608521867E+02 -0.17178840949E+02  0.45922156550E+02  0.00000000000E+00 0.  1.
         11    1    4    4    0    0 -0.18072428037E+02  0.47629899951E+02 -0.16983955088E+02  0.53699858053E+02  0.00000000000E+00 0. -1.
        -11    1    3    3    0    0  0.26450477332E+02  0.15706520511E+02 -0.14996794039E+03  0.15309051467E+03  0.00000000000E+00 0.  1.
         11    1    3    3    0    0  0.20584418285E+02 -0.66245450484E+02 -0.91907160598E+02  0.11514818346E+03  0.00000000000E+00 0. -1.
         21    1    1    2  503  501 -0.30326335191E+01  0.22657795701E+02 -0.20476446394E+01  0.22951370780E+02  0.00000000000E+00 0.  1.
         -3    1    1    2    0  502 -0.16848931355E+02  0.21859756187E+02  0.52629865870E+02  0.59427587952E+02  0.00000000000E+00 0.  1.
<scales pt_clust_5="13000.00000" pt_clust_6="13000.00000" pt_clust_7="13000.00000" pt_clust_8="13000.00000" pt_clust_9="22.85985" pt_clust_10="38.98995"></scales>
<clustering>
<clus scale="   22.860">  1  9  2 -1</clus>
<clus scale="   38.990">  1 10  2 -1</clus>
<clus scale="   89.353">  5  6 -1 -1</clus>
<clus scale="   93.177">  7  8 -1 -1</clus>
<clus scale="  105.439">  1  5  2 -1</clus>
<clus scale="   22.860">  1  5  2 -1</clus>
</clustering>
</event>
<event>
10    2  0.2421970E-006  0.1992223E+03  0.7546771E-02  0.1178295E+00
          1   -1    0    0  503    0 -0.00000000000E+00  0.00000000000E+00  0.65454066297E+03  0.65454066297E+03  0.00000000000E+00 0. -1.
         21   -1    0    0  501  502  0.00000000000E+00 -0.00000000000E+00 -0.15567413720E+03  0.15567413720E+03  0.00000000000E+00 0.  1.
         23    2    1    2    0    0  0.22866963009E+02 -0.94848917998E+01  0.17810697013E+03  0.20646525923E+03  0.10145417334E+03 0.  0.
         23    2    1    2    0    0 -0.96034882050E+02 -0.17710984104E+03  0.31181910768E+03  0.37882083775E+03  0.75388837606E+02 0.  0.
        -13    1    3    3    0    0 -0.51955133358E+01 -0.52184403443E+02  0.76722087476E+02  0.92932685467E+02  0.00000000000E+00 0.  1.
         13    1    3    3    0    0  0.28062476345E+02  0.42699511643E+02  0.10138488266E+03  0.11353257376E+03  0.00000000000E+00 0. -1.
        -13    1    4    4    0    0  0.11086703289E+02 -0.25900682114E+02  0.26982910726E+02  0.39010739483E+02  0.00000000000E+00 0.  1.
         13    1    4    4    0    0 -0.10712158534E+03 -0.15120915893E+03  0.28483619696E+03  0.33981009827E+03  0.00000000000E+00 0. -1.
         21    1    1    2  503  502  0.57804220450E+02  0.14993597072E+03  0.49495877922E+02  0.16814269282E+03  0.00000000000E+00 0. -1.
          1    1    1    2  501    0  0.15363698590E+02  0.36658762121E+02 -0.40555429963E+02  0.56786010373E+02  0.00000000000E+00 0. -1.
<scales pt_clust_5="13000.00000" pt_clust_6="13000.00000" pt_clust_7="13000.00000" pt_clust_8="13000.00000" pt_clust_9="184.40731" pt_clust_10="39.74806"></scales>
<clustering>
<clus scale="   39.748">  2 10  1 -1</clus>
<clus scale="   75.389">  7  8 -1 -1</clus>
<clus scale="  101.454">  5  6 -1 -1</clus>
<clus scale="  104.568">  1  5  2 -1</clus>
<clus scale="  184.407">  2  9  1 -1</clus>
<clus scale="   39.748">  2  5  1 -1</clus>
</clustering>
</event>
<event>
10    2  0.2421970E-006  0.1325670E+03  0.7546771E-02  0.1227270E+00
          1   -1    0    0  502    0 -0.00000000000E+00  0.00000000000E+00  0.16988384643E+03  0.16988384643E+03  0.00000000000E+00 0. -1.
         21   -1    0    0  503  502  0.00000000000E+00 -0.00000000000E+00 -0.30273175128E+03  0.30273175128E+03  0.00000000000E+00 0. -1.
         23    2    1    2    0    0  0.82525791310E+02  0.80462875992E+02  0.65562306180E+02  0.16103830383E+03  0.91379093149E+02 0.  0.
         23    2    1    2    0    0 -0.14122477953E+01 -0.42486019980E+02 -0.28645586116E+02  0.11578664289E+03  0.10382158123E+03 0.  0.
        -11    1    4    4    0    0 -0.36561616295E+02  0.17129253312E+02  0.12616545414E+01  0.40394985794E+02  0.00000000000E+00 0.  1.
         11    1    4    4    0    0  0.35149368500E+02 -0.59615273293E+02 -0.29907240658E+02  0.75391657095E+02  0.00000000000E+00 0. -1.
        -13    1    3    3    0    0 -0.14233025194E+02  0.33283946579E+02  0.25161271855E+01  0.36286788258E+02  0.00000000000E+00 0.  1.
         13    1    3    3    0    0  0.96758816504E+02  0.47178929413E+02  0.63046178995E+02  0.12475151557E+03  0.00000000000E+00 0. -1.
         21    1    1    2  503  501 -0.25004169807E+02 -0.28468020324E+02 -0.91395103588E+02  0.98937867618E+02  0.00000000000E+00 0. -1.
          1    1    1    2  501    0 -0.56109373708E+02 -0.95088356880E+01 -0.78369521328E+02  0.96852783373E+02  0.00000000000E+00 0. -1.
<scales pt_clust_5="13000.00000" pt_clust_6="13000.00000" pt_clust_7="13000.00000" pt_clust_8="13000.00000" pt_clust_9="31.52083" pt_clust_10="97.53949"></scales>
<clustering>
<clus scale="   31.521">  9 10 -1 -1</clus>
<clus scale="   91.379">  7  8 -1 -1</clus>
<clus scale="   97.539">  2  9  1 -1</clus>
<clus scale="  103.822">  5  6 -1 -1</clus>
<clus scale="  123.066">  1  7  2 -1</clus>
<clus scale="   97.539">  2  5  1 -1</clus>
</clustering>
</event>
<event>
10    2  0.2421970E-006  0.1229088E+03  0.7546771E-02  0.1245657E+00
          1   -1    0    0  503    0 -0.00000000000E+00  0.00000000000E+00  0.57536055079E+03  0.57536055079E+03  0.00000000000E+00 0. -1.
         21   -1    0    0  501  502  0.00000000000E+00 -0.00000000000E+00 -0.11177971117E+03  0.11177971117E+03  0.00000000000E+00 0.  1.
         23    2    1    2    0    0  0.32934672866E+02 -0.82716766672E+02  0.23295968232E+03  0.26625333247E+03  0.93240910018E+02 0.  0.
         23    2    1    2    0    0 -0.61862770228E+01  0.32471837242E+02 -0.71722349975E+02  0.10522965549E+03  0.69544911179E+02 0.  0.
        -11    1    4    4    0    0  0.26259961713E+02 -0.24761789080E+01 -0.40145151239E+02  0.48034885439E+02  0.00000000000E+00 0.  1.
         11    1    4    4    0    0 -0.32446238736E+02  0.34948016150E+02 -0.31577198736E+02  0.57194770049E+02  0.00000000000E+00 0. -1.
        -13    1    3    3    0    0  0.48273233458E+02 -0.13874993045E+02  0.53260430614E+02  0.73208564866E+02  0.00000000000E+00 0. -1.
         13    1    3    3    0    0 -0.15338560591E+02 -0.68841773627E+02  0.17969925171E+03  0.19304476761E+03  0.00000000000E+00 0.  1.
         21    1    1    2  503  502  0.13771574251E+01  0.22399211916E+02  0.18545602957E+02  0.29112894842E+02  0.00000000000E+00 0. -1.
          1    1    1    2  501    0 -0.28125553269E+02  0.27845717514E+02  0.28379790432E+03  0.28654437916E+03  0.00000000000E+00 0. -1.
<scales pt_clust_5="13000.00000" pt_clust_6="13000.00000" pt_clust_7="13000.00000" pt_clust_8="13000.00000" pt_clust_9="22.44151" pt_clust_10="39.76937"></scales>
<clustering>
<clus scale="   22.442">  2  9  1 -1</clus>
<clus scale="   39.769">  2 10  1 -1</clus>
<clus scale="   69.545">  5  6 -1 -1</clus>
<clus scale="   93.241">  7  8 -1 -1</clus>
<clus scale="  106.062">  2  5  1 -1</clus>
<clus scale="   22.442">  2  5  1 -1</clus>
</clustering>
</event>
<event>
10    2  0.2421970E-006  0.1076357E+03  0.7546771E-02  0.1266441E+00
         21   -1    0    0  501  502  0.00000000000E+00  0.00000000000E+00  0.61703360010E+03  0.61703360010E+03  0.00000000000E+00 0.  1.
          4   -1    0    0  503    0 -0.00000000000E+00 -0.00000000000E+00 -0.36788633266E+02  0.36788633266E+02  0.00000000000E+00 0. -1.
         23    2    1    2    0    0 -0.24291022638E+02 -0.17354323649E+02  0.13646683202E+03  0.16786225446E+03  0.93076924643E+02 0.  0.
         23    2    1    2    0    0  0.61763910615E+02  0.54931231809E+02  0.31082307961E+03  0.33388514358E+03  0.89644193349E+02 0.  0.
        -11    1    4    4    0    0  0.52642977815E+02  0.79171416066E+02  0.26010662240E+03  0.27693835280E+03  0.00000000000E+00 0. -1.
         11    1    4    4    0    0  0.91209327997E+01 -0.24240184257E+02  0.50716457209E+02  0.56946790777E+02  0.00000000000E+00 0.  1.
        -11    1    3    3    0    0 -0.20800242639E+02 -0.43200820172E+02  0.13321266547E+03  0.14157886565E+03  0.00000000000E+00 0.  1.
         11    1    3    3    0    0 -0.34907799987E+01  0.25846496523E+02  0.32541665533E+01  0.26283388813E+02  0.00000000000E+00 0. -1.
         21    1    1    2  503  502  0.10811058442E+01 -0.35166845596E+02  0.64589295794E+02  0.73550342964E+02  0.00000000000E+00 0.  1.
          4    1    1    2  501    0 -0.38553993822E+02 -0.24100625645E+01  0.68365759409E+02  0.78524492362E+02  0.00000000000E+00 0. -1.
<scales pt_clust_5="13000.00000" pt_clust_6="13000.00000" pt_clust_7="13000.00000" pt_clust_8="13000.00000" pt_clust_9="35.18346" pt_clust_10="39.19644"></scales>
<clustering>
<clus scale="   35.183">  2  9  1 -1</clus>
<clus scale="   39.196">  1 10  2 -1</clus>
<clus scale="   89.644">  5  6 -1 -1</clus>
<clus scale="   93.077">  7  8 -1 -1</clus>
<clus scale="  104.682">  1  5  2 -1</clus>
<clus scale="   39.196">  1  5  2 -1</clus>
</clustering>
</event>
<event>
10    2  0.2421970E-006  0.9356338E+02  0.7546771E-02  0.1296226E+00
          1   -1    0    0  503    0 -0.00000000000E+00  0.00000000000E+00  0.13921270860E+03  0.13921270860E+03  0.00000000000E+00 0. -1.
         21   -1    0    0  501  502  0.00000000000E+00 -0.00000000000E+00 -0.20825962846E+03  0.20825962846E+03  0.00000000000E+00 0.  1.
         23    2    1    2    0    0 -0.39542529388E+01  0.60745533427E+01  0.62054517399E+02  0.10779895762E+03  0.87848254506E+02 0.  0.
         23    2    1    2    0    0 -0.57721287109E+02 -0.93297112472E+01 -0.79960803137E+02  0.13450020042E+03  0.90982324526E+02 0.  0.
        -11    1    4    4    0    0 -0.27117481453E+02 -0.10153097238E+01 -0.95431507736E+02  0.99214723317E+02  0.00000000000E+00 0.  1.
         11    1    4    4    0    0 -0.30603805656E+02 -0.83144015234E+01  0.15470704599E+02  0.35285477099E+02  0.00000000000E+00 0. -1.
        -11    1    3    3    0    0  0.22886800374E+02 -0.28737984979E+02  0.70860452208E+01  0.37415096537E+02  0.00000000000E+00 0. -1.
         11    1    3    3    0    0 -0.26841053313E+02  0.34812538322E+02  0.54968472178E+02  0.70383861083E+02  0.00000000000E+00 0.  1.
         21    1    1    2  503  502  0.20066636726E+02 -0.27280328018E+02 -0.20242174109E+01  0.33926150126E+02  0.00000000000E+00 0. -1.
          1    1    1    2  501    0  0.41608903322E+02  0.30535485922E+02 -0.49116416715E+02  0.71247028900E+02  0.00000000000E+00 0. -1.
<scales pt_clust_5="13000.00000" pt_clust_6="13000.00000" pt_clust_7="13000.00000" pt_clust_8="13000.00000" pt_clust_9="33.86571" pt_clust_10="51.70403"></scales>
<clustering>
<clus scale="   33.866">  1  9  2 -1</clus>
<clus scale="   51.704">  2 10  1 -1</clus>
<clus scale="   87.848">  7  8 -1 -1</clus>
<clus scale="   90.519">  1  7  2 -1</clus>
<clus scale="   90.982">  5  6 -1 -1</clus>
<clus scale="   51.704">  2  5  1 -1</clus>
</clustering>
</event>
<event>
10    2  0.2421970E-006  0.1000473E+03  0.7546771E-02  0.1280879E+00
         21   -1    0    0  503  502  0.00000000000E+00  0.00000000000E+00  0.75053656993E+03  0.75053656993E+03  0.00000000000E+00 0. -1.
         -1   -1    0    0    0  501 -0.00000000000E+00 -0.00000000000E+00 -0.15440027611E+03  0.15440027611E+03  0.00000000000E+00 0.  1.
         23    2    1    2    0    0  0.10643689106E+01 -0.38262988464E+02 -0.11904390122E+03  0.15456460937E+03  0.90849209607E+02 0.  0.
         23    2    1    2    0    0 -0.68265308642E+02  0.45519832197E+02  0.42996718872E+03  0.44734121657E+03  0.92250599901E+02 0.  0.
        -13    1    4    4    0    0 -0.39544406347E+02  0.72430368317E+02  0.32259868513E+03  0.33298623091E+03  0.00000000000E+00 0. -1.
         13    1    4    4    0    0 -0.28720902294E+02 -0.26910536120E+02  0.10736850359E+03  0.11435498566E+03  0.00000000000E+00 0.  1.
        -13    1    3    3    0    0 -0.19715073948E+02 -0.49104118040E+02 -0.11995732726E+03  0.13110933954E+03  0.00000000000E+00 0.  1.
         13    1    3    3    0    0  0.20779442858E+02  0.10841129576E+02  0.91342604616E+00  0.23455269837E+02  0.00000000000E+00 0. -1.
         21    1    1    2  503  501  0.37746363220E+02 -0.40489111180E+02  0.12362362855E+03  0.13545094166E+03  0.00000000000E+00 0. -1.
         -1    1    1    2    0  502  0.29454576511E+02  0.33232267447E+02  0.16158937778E+03  0.16758007843E+03  0.00000000000E+00 0.  1.
<scales pt_clust_5="13000.00000" pt_clust_6="13000.00000" pt_clust_7="13000.00000" pt_clust_8="13000.00000" pt_clust_9="55.29180" pt_clust_10="44.40671"></scales>
<clustering>
<clus scale="   44.407">  1 10  2 -1</clus>
<clus scale="   55.292">  1  9  2 -1</clus>
<clus scale="   90.849">  7  8 -1 -1</clus>
<clus scale="   92.251">  5  6 -1 -1</clus>
<clus scale="   98.757">  2  7  1 -1</clus>
<clus scale="   44.407">  1  5  2 -1</clus>
</clustering>
</event>
<event>
10    2  0.2421970E-006  0.1723092E+03  0.7546771E-02  0.1186967E+00
          1   -1    0    0  502    0 -0.00000000000E+00  0.00000000000E+00  0.36907493523E+03  0.36907493523E+03  0.00000000000E+00 0. -1.
         21   -1    0    0  503  502  0.00000000000E+00 -0.00000000000E+00 -0.15343126305E+04  0.15343126305E+04  0.00000000000E+00 0. -1.
         23    2    1    2    0    0 -0.93570073668E+02  0.25485439262E+02 -0.33977810432E+03  0.36492107669E+03  0.91177660294E+02 0.  0.
         23    2    1    2    0    0  0.23458207472E+03 -0.55343026366E+02  0.30372899386E+03  0.39854119428E+03  0.92153032955E+02 0.  0.
        -11    1    4    4    0    0  0.61365552324E+02 -0.26725939529E+02  0.30000690998E+02  0.73348812642E+02  0.00000000000E+00 0.  1.
         11    1    4    4    0    0  0.17321652240E+03 -0.28617086836E+02  0.27372830286E+03  0.32519238164E+03  0.00000000000E+00 0. -1.
        -13    1    3    3    0    0 -0.51475324015E+02  0.19920983020E+01 -0.52228748429E+02  0.73358841325E+02  0.00000000000E+00 0.  1.
         13    1    3    3    0    0 -0.42094749653E+02  0.23493340960E+02 -0.28754935589E+03  0.29156223536E+03  0.00000000000E+00 0. -1.
         21    1    1    2  503  501 -0.66625959488E+02  0.44510952975E+02 -0.60463359066E+03  0.60991968518E+03  0.00000000000E+00 0.  1.
          1    1    1    2  501    0 -0.74386041564E+02 -0.14653365872E+02 -0.52455499415E+03  0.53000560959E+03  0.00000000000E+00 0. -1.
<scales pt_clust_5="13000.00000" pt_clust_6="13000.00000" pt_clust_7="13000.00000" pt_clust_8="13000.00000" pt_clust_9="58.25786" pt_clust_10="157.43329"></scales>
<clustering>
<clus scale="   58.258">  9 10 -1 -1</clus>
<clus scale="   91.178">  7  8 -1 -1</clus>
<clus scale="   92.153">  5  6 -1 -1</clus>
<clus scale="  133.110">  1  7  2 -1</clus>
<clus scale="  157.433">  2  9  1 -1</clus>
<clus scale="  157.433">  2  5  1 -1</clus>
</clustering>
</event>
<event>
10    2  0.2421970E-006  0.9750899E+02  0.7546771E-02  0.1290652E+00
          1   -1    0    0  502    0 -0.00000000000E+00  0.00000000000E+00  0.16351114068E+03  0.16351114068E+03  0.00000000000E+00 0. -1.
         21   -1    0    0  503  502  0.00000000000E+00 -0.00000000000E+00 -0.17179040086E+03  0.17179040086E+03  0.00000000000E+00 0.  1.
         23    2    1    2    0    0  0.78689893612E+01  0.19196557299E+02  0.49788173395E+02  0.10354484381E+03  0.88386897576E+02 0.  0.
         23    2    1    2    0    0  0.26347414234E+02  0.43030228602E+02  0.30704268420E+02  0.11374449328E+03  0.97207360016E+02 0.  0.
        -13    1    3    3    0    0  0.15452994482E+02 -0.16616427964E+02  0.61142363313E+02  0.65217247015E+02  0.00000000000E+00 0.  1.
         13    1    3    3    0    0 -0.75840051209E+01  0.35812985262E+02 -0.11354189918E+02  0.38327596791E+02  0.00000000000E+00 0. -1.
        -13    1    4    4    0    0  0.24459424700E+02  0.90577712219E+01 -0.32675598200E+02  0.41809106590E+02  0.00000000000E+00 0.  1.
         13    1    4    4    0    0  0.18879895343E+01  0.33972457380E+02  0.63379866620E+02  0.71935386686E+02  0.00000000000E+00 0. -1.
         21    1    1    2  503  501 -0.12187099978E+02 -0.32879601997E+02 -0.20807331141E+02  0.40774240184E+02  0.00000000000E+00 0.  1.
          1    1    1    2  501    0 -0.22029303617E+02 -0.29347183903E+02 -0.67964370851E+02  0.77237964279E+02  0.00000000000E+00 0. -1.
<scales pt_clust_5="13000.00000" pt_clust_6="13000.00000" pt_clust_7="13000.00000" pt_clust_8="13000.00000" pt_clust_9="30.96708" pt_clust_10="77.75902"></scales>
<clustering>
<clus scale="   30.967">  9 10 -1 -1</clus>
<clus scale="   77.759">  2  9  1 -1</clus>
<clus scale="   88.387">  5  6 -1 -1</clus>
<clus scale="   88.719">  1  5  2 -1</clus>
<clus scale="   97.207">  7  8 -1 -1</clus>
<clus scale="   77.759">  2  5  1 -1</clus>
</clustering>
</event>
<event>
10    2  0.2421970E-006  0.1367343E+03  0.7546771E-02  0.1218148E+00
          1   -1    0    0  503    0 -0.00000000000E+00  0.00000000000E+00  0.57141592958E+03  0.57141592958E+03  0.00000000000E+00 0. -1.
         21   -1    0    0  501  502  0.00000000000E+00 -0.00000000000E+00 -0.23591158267E+03  0.23591158267E+03  0.00000000000E+00 0. -1.
         23    2    1    2    0    0 -0.44571959199E+02  0.93644268362E+02  0.25823998247E+03  0.29240231896E+03  0.89751429201E+02 0.  0.
         23    2    1    2    0    0  0.11424238410E+03 -0.36263820884E+02  0.25028239391E+03  0.29213206188E+03  0.91287884450E+02 0.  0.
        -13    1    3    3    0    0 -0.60829014233E+02  0.33576031506E+02  0.17640163597E+03  0.18959181427E+03  0.00000000000E+00 0.  1.
         13    1    3    3    0    0  0.16257055034E+02  0.60068236856E+02  0.81838346497E+02  0.10281050469E+03  0.00000000000E+00 0. -1.
        -13    1    4    4    0    0  0.59400471631E+02  0.24611446947E+02  0.75996582913E+02  0.99547074117E+02  0.00000000000E+00 0. -1.
         13    1    4    4    0    0  0.54841912466E+02 -0.60875267831E+02  0.17428581100E+03  0.19258498777E+03  0.00000000000E+00 0.  1.
         21    1    1    2  503  502  0.97411280495E+01 -0.58265155875E+02 -0.56197925494E+02  0.81534807258E+02  0.00000000000E+00 0.  1.
          1    1    1    2  501    0 -0.79411552948E+02  0.88470839660E+00 -0.11682010398E+03  0.14125832416E+03  0.00000000000E+00 0. -1.
<scales pt_clust_5="13000.00000" pt_clust_6="13000.00000" pt_clust_7="13000.00000" pt_clust_8="13000.00000" pt_clust_9="59.07383" pt_clust_10="84.34825"></scales>
<clustering>
<clus scale="   59.074">  2  9  1 -1</clus>
<clus scale="   84.348">  2 10  1 -1</clus>
<clus scale="   89.751">  5  6 -1 -1</clus>
<clus scale="   91.288">  7  8 -1 -1</clus>
<clus scale="  135.713">  1  5  2 -1</clus>
<clus scale="   59.074">  2  5  1 -1</clus>
</clustering>
</event>
<event>
10    2  0.2421970E-006  0.2222546E+03  0.7546771E-02  0.1166972E+00
         21   -1    0    0  503  502  0.00000000000E+00  0.00000000000E+00  0.49606697184E+03  0.49606697184E+03  0.00000000000E+00 0. -1.
          1   -1    0    0  502    0 -0.00000000000E+00 -0.00000000000E+00 -0.20123685685E+03  0.20123685685E+03  0.00000000000E+00 0. -1.
         23    2    1    2    0    0 -0.37340466282E+02  0.24722888719E+01 -0.77323666678E+02  0.12440949629E+03  0.89990836786E+02 0.  0.
         23    2    1    2    0    0  0.13456242323E+03  0.16763960257E+03  0.17342138312E+03  0.29046883128E+03  0.89928214275E+02 0.  0.
        -11    1    4    4    0    0  0.47417117909E+01  0.42745939321E+02  0.71644467124E+02  0.83562125563E+02  0.00000000000E+00 0.  1.
         11    1    4    4    0    0  0.12982071144E+03  0.12489366325E+03  0.10177691600E+03  0.20690670571E+03  0.00000000000E+00 0. -1.
        -13    1    3    3    0    0  0.76456117053E+01 -0.36608712270E+02 -0.23945819498E+02  0.44407831109E+02  0.00000000000E+00 0.  1.
         13    1    3    3    0    0 -0.44986077987E+02  0.39081001142E+02 -0.53377847180E+02  0.80001665186E+02  0.00000000000E+00 0. -1.
         21    1    1    2  503  501 -0.32845307300E+02 -0.10009175475E+03  0.11092246757E+03  0.15297374739E+03  0.00000000000E+00 0. -1.
          1    1    1    2  501    0 -0.64376649648E+02 -0.70020136697E+02  0.87809930978E+02  0.12945175372E+03  0.00000000000E+00 0. -1.
<scales pt_clust_5="13000.00000" pt_clust_6="13000.00000" pt_clust_7="13000.00000" pt_clust_8="13000.00000" pt_clust_9="41.19443" pt_clust_10="207.82072"></scales>
<clustering>
<clus scale="   41.194">  9 10 -1 -1</clus>
<clus scale="   89.928">  5  6 -1 -1</clus>
<clus scale="   89.991">  7  8 -1 -1</clus>
<clus scale="   97.462">  2  7  1 -1</clus>
<clus scale="  207.821">  1  9  2 -1</clus>
<clus scale="  207.821">  1  5  2 -1</clus>
</clustering>
</event>
<event>
10    2  0.2421970E-006  0.9981604E+02  0.7546771E-02  0.1281819E+00
         -3   -1    0    0    0  501 -0.00000000000E+00  0.00000000000E+00  0.38486519136E+03  0.38486519136E+03  0.00000000000E+00 0.  1.
         21   -1    0    0  503  502  0.00000000000E+00 -0.00000000000E+00 -0.89310402801E+02  0.89310402801E+02  0.00000000000E+00 0. -1.
         23    2    1    2    0    0 -0.21766564744E+02  0.33703888977E+02  0.27779931781E+03  0.29562668723E+03  0.92805935966E+02 0.  0.
         23    2    1    2    0    0  0.36154712048E+01 -0.22186713753E+02  0.94667282750E+01  0.93740390053E+02  0.90511435100E+02 0.  0.
        -11    1    4    4    0    0  0.29396148548E+01  0.26354281969E+02  0.30861447362E+02  0.40689291550E+02  0.00000000000E+00 0.  1.
         11    1    4    4    0    0  0.67585635000E+00 -0.48540995722E+02 -0.21394719087E+02  0.53051098502E+02  0.00000000000E+00 0. -1.
        -13    1    3    3    0    0  0.33039564189E+02  0.21222859549E+02  0.68976536993E+02  0.79371186363E+02  0.00000000000E+00 0. -1.
         13    1    3    3    0    0 -0.54806128933E+02  0.12481029427E+02  0.20882278082E+03  0.21625550087E+03  0.00000000000E+00 0.  1.
         21    1    1    2  503  501  0.26534198818E+02 -0.34118413513E+02  0.29800789966E+02  0.52499685048E+02  0.00000000000E+00 0. -1.
         -3    1    1    2    0  502 -0.83831052792E+01  0.22601238289E+02 -0.21512047501E+02  0.32308831827E+02  0.00000000000E+00 0.  1.
<scales pt_clust_5="13000.00000" pt_clust_6="13000.00000" pt_clust_7="13000.00000" pt_clust_8="13000.00000" pt_clust_9="39.06318" pt_clust_10="24.10586"></scales>
<clustering>
<clus scale="   24.106">  2 10  1 -1</clus>
<clus scale="   39.063">  2  9  1 -1</clus>
<clus scale="   90.511">  5  6 -1 -1</clus>
<clus scale="   92.806">  7  8 -1 -1</clus>
<clus scale="   97.686">  2  5  1 -1</clus>
<clus scale="   24.106">  2  5  1 -1</clus>
</clustering>
</event>
<event>
10    2  0.2421970E-006  0.1043253E+03  0.7546771E-02  0.1274635E+00
         -1   -1    0    0    0  501 -0.00000000000E+00  0.00000000000E+00  0.20025250545E+03  0.20025250545E+03  0.00000000000E+00 0.  1.
         21   -1    0    0  501  502  0.00000000000E+00 -0.00000000000E+00 -0.86790421634E+02  0.86790421634E+02  0.00000000000E+00 0. -1.
         23    2    1    2    0    0  0.23573027323E+02 -0.34154646385E+02  0.43455039254E+02  0.11579327146E+03  0.98982391327E+02 0.  0.
         23    2    1    2    0    0 -0.38108551122E+02 -0.11070572352E+02  0.29167865226E+02  0.10473404910E+03  0.92431798844E+02 0.  0.
        -13    1    3    3    0    0  0.47533233965E+02 -0.56841003705E+02  0.33581966257E+02  0.81351438162E+02  0.00000000000E+00 0.  1.
         13    1    3    3    0    0 -0.23960206642E+02  0.22686357320E+02  0.98730729977E+01  0.34441833302E+02  0.00000000000E+00 0. -1.
        -13    1    4    4    0    0 -0.27092894460E+02 -0.31217888884E+02  0.55881651826E+02  0.69507845078E+02  0.00000000000E+00 0.  1.
         13    1    4    4    0    0 -0.11015656662E+02  0.20147316532E+02 -0.26713786599E+02  0.35226204019E+02  0.00000000000E+00 0. -1.
         21    1    1    2  503  502  0.13258085158E+02  0.18736893793E+02  0.80036764064E+01  0.24308575587E+02  0.00000000000E+00 0.  1.
         -1    1    1    2    0  503  0.12774386414E+01  0.26488324944E+02  0.32835502924E+02  0.42207030932E+02  0.00000000000E+00 0.  1.
<scales pt_clust_5="13000.00000" pt_clust_6="13000.00000" pt_clust_7="13000.00000" pt_clust_8="13000.00000" pt_clust_9="20.80066" pt_clust_10="52.50229"></scales>
<clustering>
<clus scale="   20.801">  9 10 -1 -1</clus>
<clus scale="   52.502">  2  9  1 -1</clus>
<clus scale="   92.432">  7  8 -1 -1</clus>
<clus scale="   98.132">  2  7  1 -1</clus>
<clus scale="   98.982">  5  6 -1 -1</clus>
<clus scale="   52.502">  2  5  1 -1</clus>
</clustering>
</event>
<event>
10    2  0.2421970E-006  0.1585868E+03  0.7546771E-02  0.1192125E+00
         21   -1    0    0  501  502  0.00000000000E+00  0.00000000000E+00  0.76749656556E+02  0.76749656556E+02  0.00000000000E+00 0. -1.
          1   -1    0    0  503    0 -0.00000000000E+00 -0.00000000000E+00 -0.83102581450E+03  0.83102581450E+03  0.00000000000E+00 0. -1.
         23    2    1    2    0    0 -0.12621827685E+03  0.47656688090E+02 -0.62807790825E+03  0.64883410536E+03  0.91113248837E+02 0.  0.
         23    2    1    2    0    0  0.11485564725E+03 -0.72739084901E+01 -0.89978421997E+02  0.16643034916E+03  0.79738417622E+02 0.  0.
        -11    1    4    4    0    0  0.86078411197E+02  0.25393412273E+02 -0.35063499878E+02  0.96352308145E+02  0.00000000000E+00 0. -1.
         11    1    4    4    0    0  0.28777236056E+02 -0.32667320763E+02 -0.54914922119E+02  0.70078041013E+02  0.00000000000E+00 0.  1.
        -13    1    3    3    0    0 -0.20592695606E+02  0.45804764479E+02 -0.12359065542E+03  0.13340459388E+03  0.00000000000E+00 0.  1.
         13    1    3    3    0    0 -0.10562558124E+03  0.18519236107E+01 -0.50448725283E+03  0.51542951148E+03  0.00000000000E+00 0. -1.
         21    1    1    2  503  502  0.43014549154E+02 -0.19782373344E+02 -0.21011921809E+02  0.51798596430E+02  0.00000000000E+00 0.  1.
          1    1    1    2  501    0 -0.31651919562E+02 -0.20600406256E+02 -0.15207905890E+02  0.40712420112E+02  0.00000000000E+00 0. -1.
<scales pt_clust_5="13000.00000" pt_clust_6="13000.00000" pt_clust_7="13000.00000" pt_clust_8="13000.00000" pt_clust_9="43.18785" pt_clust_10="37.76534"></scales>
<clustering>
<clus scale="   37.765">  1 10  2 -1</clus>
<clus scale="   43.188">  1  9  2 -1</clus>
<clus scale="   79.738">  5  6 -1 -1</clus>
<clus scale="   91.113">  7  8 -1 -1</clus>
<clus scale="  152.336">  1  5  2 -1</clus>
<clus scale="   37.765">  1  5  2 -1</clus>
</clustering>
</event>
<event>
10    2  0.2421970E-006  0.2820433E+03  0.7546771E-02  0.1094674E+00
          2   -1    0    0  502    0 -0.00000000000E+00  0.00000000000E+00  0.11641206996E+04  0.11641206996E+04  0.00000000000E+00 0. -1.
         21   -1    0    0  503  502  0.00000000000E+00 -0.00000000000E+00 -0.15332271710E+03  0.15332271710E+03  0.00000000000E+00 0. -1.
         23    2    1    2    0    0 -0.33943039000E+03  0.10699576772E+03  0.75405621214E+03  0.83884846611E+03  0.91678209297E+02 0.  0.
         23    2    1    2    0    0  0.17685628041E+03 -0.10066837426E+02  0.18666969051E+03  0.27391385706E+03  0.93828261175E+02 0.  0.
        -11    1    3    3    0    0 -0.10742228217E+03  0.55054030423E+01  0.15704278582E+03  0.19034782044E+03  0.00000000000E+00 0.  1.
         11    1    3    3    0    0 -0.23200810783E+03  0.10149036468E+03  0.59701342632E+03  0.64850064567E+03  0.00000000000E+00 0. -1.
        -13    1    4    4    0    0  0.14512485971E+03  0.27204584617E+02  0.16167479662E+03  0.21895217329E+03  0.00000000000E+00 0.  1.
         13    1    4    4    0    0  0.31731420708E+02 -0.37271422044E+02  0.24994893890E+02  0.54961683761E+02  0.00000000000E+00 0. -1.
         21    1    1    2  503  501  0.67047307488E+02 -0.44006723186E+02  0.12307888810E+02  0.81138260111E+02  0.00000000000E+00 0. -1.
          2    1    1    2  501    0  0.95526802103E+02 -0.52922207112E+02  0.57764191076E+02  0.12354283345E+03  0.00000000000E+00 0. -1.
<scales pt_clust_5="13000.00000" pt_clust_6="13000.00000" pt_clust_7="13000.00000" pt_clust_8="13000.00000" pt_clust_9="29.17058" pt_clust_10="192.31291"></scales>
<clustering>
<clus scale="   29.171">  9 10 -1 -1</clus>
<clus scale="   91.678">  5  6 -1 -1</clus>
<clus scale="   93.828">  7  8 -1 -1</clus>
<clus scale="  192.313">  2  9  1 -1</clus>
<clus scale="  281.335">  1  5  2 -1</clus>
<clus scale="  192.313">  2  5  1 -1</clus>
</clustering>
</event>
<event>
10    2  0.2421970E-006  0.1338281E+03  0.7546771E-02  0.1225321E+00
          2   -1    0    0  503    0 -0.00000000000E+00  0.00000000000E+00  0.37133966948E+03  0.37133966948E+03  0.00000000000E+00 0. -1.
         21   -1    0    0  501  502  0.00000000000E+00 -0.00000000000E+00 -0.47804362987E+03  0.47804362987E+03  0.00000000000E+00 0.  1.
         23    2    1    2    0    0  0.83707869860E+02 -0.39813187794E+02  0.27231378823E+03  0.30154764434E+03  0.90465933635E+02 0.  0.
         23    2    1    2    0    0 -0.11427510501E+03  0.53430926257E+02  0.12021239253E+02  0.14781222664E+03  0.76093893613E+02 0.  0.
        -11    1    3    3    0    0  0.22096492037E+02  0.24819582548E+02  0.36332936857E+02  0.49237678041E+02  0.00000000000E+00 0.  1.
         11    1    3    3    0    0  0.61611377823E+02 -0.64632770342E+02  0.23598085138E+03  0.25230996630E+03  0.00000000000E+00 0. -1.
        -11    1    4    4    0    0 -0.11900941059E+03  0.29953974159E+02  0.15175409047E+02  0.12365586689E+03  0.00000000000E+00 0. -1.
         11    1    4    4    0    0  0.47343055805E+01  0.23476952098E+02 -0.31541697941E+01  0.24156359747E+02  0.00000000000E+00 0.  1.
         21    1    1    2  503  502 -0.62938348940E+01 -0.36613921428E+02 -0.24006012806E+03  0.24291779820E+03  0.00000000000E+00 0.  1.
          2    1    1    2  501    0  0.36861070047E+02  0.22996182965E+02 -0.15097885982E+03  0.15710563016E+03  0.00000000000E+00 0. -1.
<scales pt_clust_5="13000.00000" pt_clust_6="13000.00000" pt_clust_7="13000.00000" pt_clust_8="13000.00000" pt_clust_9="37.15093" pt_clust_10="32.77352"></scales>
<clustering>
<clus scale="   37.151">  2  9  1 -1</clus>
<clus scale="   32.774">  2 10  1 -1</clus>
<clus scale="   76.094">  7  8 -1 -1</clus>
<clus scale="   90.466">  5  6 -1 -1</clus>
<clus scale="  124.564">  2  7  1 -1</clus>
<clus scale="   37.151">  2  5  1 -1</clus>
</clustering>
</event>
<event>
10    2  0.2421970E-006  0.1018439E+03  0.7546771E-02  0.1276976E+00
         -1   -1    0    0    0  501 -0.00000000000E+00  0.00000000000E+00  0.99302035958E+02  0.99302035958E+02  0.00000000000E+00 0.  1.
         21   -1    0    0  503  502  0.00000000000E+00 -0.00000000000E+00 -0.37634420178E+03  0.37634420178E+03  0.00000000000E+00 0.  1.
         23    2    1    2    0    0 -0.27512811457E+02 -0.62557394978E+02 -0.27982079710E+02  0.11759874116E+03  0.91520952114E+02 0.  0.
         23    2    1    2    0    0 -0.58424988817E+02  0.47309023316E+02 -0.13687525103E+03  0.18044916091E+03  0.90418152618E+02 0.  0.
        -13    1    3    3    0    0 -0.48958735248E+02 -0.10462532151E+01 -0.14550694064E+02  0.51085957959E+02  0.00000000000E+00 0.  1.
         13    1    3    3    0    0  0.21445923791E+02 -0.61511141763E+02 -0.13431385645E+02  0.66512783196E+02  0.00000000000E+00 0. -1.
        -13    1    4    4    0    0 -0.78102346329E+02  0.14755494311E+02 -0.89716443065E+02  0.11986134185E+03  0.00000000000E+00 0. -1.
         13    1    4    4    0    0  0.19677357512E+02  0.32553529005E+02 -0.47158807965E+02  0.60587819057E+02  0.00000000000E+00 0.  1.
         21    1    1    2  503  501  0.26042875099E+01  0.47353277306E+02 -0.29222833232E+02  0.55705378260E+02  0.00000000000E+00 0. -1.
         -1    1    1    2    0  502  0.83333512764E+02 -0.32104905644E+02 -0.82962001851E+02  0.12189295741E+03  0.00000000000E+00 0.  1.
<scales pt_clust_5="13000.00000" pt_clust_6="13000.00000" pt_clust_7="13000.00000" pt_clust_8="13000.00000" pt_clust_9="47.42484" pt_clust_10="86.60668"></scales>
<clustering>
<clus scale="   47.425">  1  9  2 -1</clus>
<clus scale="   86.607">  2 10  1 -1</clus>
<clus scale="   90.418">  7  8 -1 -1</clus>
<clus scale="   91.521">  5  6 -1 -1</clus>
<clus scale="  100.854">  2  7  1 -1</clus>
<clus scale="   86.607">  2  5  1 -1</clus>
</clustering>
</event>
<event>
10    2  0.2421970E-006  0.2315797E+03  0.7546771E-02  0.1154302E+00
          1   -1    0    0  502    0 -0.00000000000E+00  0.00000000000E+00  0.53393235677E+03  0.53393235677E+03  0.00000000000E+00 0. -1.
         21   -1    0    0  503  502  0.00000000000E+00 -0.00000000000E+00 -0.23995410045E+03  0.23995410045E+03  0.00000000000E+00 0. -1.
         23    2    1    2    0    0  0.34003643766E+02  0.62025578581E+02 -0.35807813834E+02  0.12108755415E+03  0.91523636570E+02 0.  0.
         23    2    1    2    0    0 -0.23752229644E+03 -0.18496381451E+02  0.35464143891E+03  0.43705304393E+03  0.92118703757E+02 0.  0.
        -11    1    4    4    0    0 -0.45583280289E+02  0.33187000253E+02  0.86924022545E+02  0.10360983603E+03  0.00000000000E+00 0.  1.
         11    1    4    4    0    0 -0.19193901615E+03 -0.51683381704E+02  0.26771741636E+03  0.33344320789E+03  0.00000000000E+00 0. -1.
        -13    1    3    3    0    0  0.59366355007E+02  0.15434185804E+02 -0.10198024623E+02  0.62181813294E+02  0.00000000000E+00 0.  1.
         13    1    3    3    0    0 -0.25362711242E+02  0.46591392777E+02 -0.25609789210E+02  0.58905740857E+02  0.00000000000E+00 0. -1.
         21    1    1    2  503  501  0.59524841646E+02  0.97228146901E+01 -0.60181536920E+00  0.60316681608E+02  0.00000000000E+00 0. -1.
          1    1    1    2  501    0  0.14399381103E+03 -0.53252011820E+02 -0.24253553384E+02  0.15542917754E+03  0.00000000000E+00 0. -1.
<scales pt_clust_5="13000.00000" pt_clust_6="13000.00000" pt_clust_7="13000.00000" pt_clust_8="13000.00000" pt_clust_9="32.04488" pt_clust_10="218.53415"></scales>
<clustering>
<clus scale="   32.045">  9 10 -1 -1</clus>
<clus scale="   91.524">  7  8 -1 -1</clus>
<clus scale="   92.119">  5  6 -1 -1</clus>
<clus scale="  115.672">  1  7  2 -1</clus>
<clus scale="  218.534">  2  9  1 -1</clus>
<clus scale="  218.534">  2  5  1 -1</clus>
</clustering>
</event>
<event>
10    2  0.2421970E-006  0.1446237E+03  0.7546771E-02  0.1207600E+00
         21   -1    0    0  501  502  0.00000000000E+00  0.00000000000E+00  0.92498937296E+02  0.92498937296E+02  0.00000000000E+00 0.  1.
          1   -1    0    0  503    0 -0.00000000000E+00 -0.00000000000E+00 -0.62331223498E+03  0.62331223498E+03  0.00000000000E+00 0. -1.
         23    2    1    2    0    0 -0.10552501076E+03 -0.31634327534E+02 -0.37248866445E+03  0.39890879450E+03  0.90797371147E+02 0.  0.
         23    2    1    2    0    0  0.12124113984E+03 -0.29897746632E+02 -0.17916296617E+03  0.23718743391E+03  0.92548479802E+02 0.  0.
        -11    1    4    4    0    0  0.11294636428E+03  0.49341447659E+01 -0.16182528049E+03  0.19740478311E+03  0.00000000000E+00 0.  1.
         11    1    4    4    0    0  0.82947755582E+01 -0.34831891397E+02 -0.17337685684E+02  0.39782650801E+02  0.00000000000E+00 0. -1.
        -13    1    3    3    0    0 -0.81510086668E+02  0.19931562802E+02 -0.25339938846E+03  0.26693147340E+03  0.00000000000E+00 0. -1.
         13    1    3    3    0    0 -0.24014924090E+02 -0.51565890336E+02 -0.11908927600E+03  0.13197732109E+03  0.00000000000E+00 0.  1.
         21    1    1    2  503  502  0.93400956095E+01  0.46823518165E+02  0.15299403790E+02  0.50137321385E+02  0.00000000000E+00 0.  1.
          1    1    1    2  501    0 -0.25056224689E+02  0.14708556000E+02  0.55389291584E+01  0.29577622479E+02  0.00000000000E+00 0. -1.
<scales pt_clust_5="13000.00000" pt_clust_6="13000.00000" pt_clust_7="13000.00000" pt_clust_8="13000.00000" pt_clust_9="53.26914" pt_clust_10="29.05436"></scales>
<clustering>
<clus scale="   29.054">  1 10  2 -1</clus>
<clus scale="   53.269">  1  9  2 -1</clus>
<clus scale="   90.797">  7  8 -1 -1</clus>
<clus scale="   92.548">  5  6 -1 -1</clus>
<clus scale="  143.509">  2  7  1 -1</clus>
<clus scale="   29.054">  1  5  2 -1</clus>
</clustering>
</event>
<event>
10    2  0.2421970E-006  0.1195344E+03  0.7546771E-02  0.1246732E+00
          4   -1    0    0  503    0 -0.00000000000E+00  0.00000000000E+00  0.26112036159E+02  0.26112036159E+02  0.00000000000E+00 0. -1.
         21   -1    0    0  501  502  0.00000000000E+00 -0.00000000000E+00 -0.91170719479E+03  0.91170719479E+03  0.00000000000E+00 0. -1.
         23    2    1    2    0    0 -0.67137987029E+02 -0.40546506206E+02 -0.19131675604E+03  0.22254246531E+03  0.82289241446E+02 0.  0.
         23    2    1    2    0    0  0.80453811445E+02  0.53183269668E+01 -0.49104044485E+03  0.50591524221E+03  0.91260141592E+02 0.  0.
        -11    1    4    4    0    0  0.11295748773E+02 -0.36916367676E+02 -0.11726281857E+03  0.12345436712E+03  0.00000000000E+00 0. -1.
         11    1    4    4    0    0  0.69158062672E+02  0.42234694643E+02 -0.37377762628E+03  0.38246087508E+03  0.00000000000E+00 0.  1.
        -11    1    3    3    0    0 -0.23815467579E+02 -0.58442551758E+02 -0.81015836202E+02  0.10269505376E+03  0.00000000000E+00 0.  1.
         11    1    3    3    0    0 -0.43322519450E+02  0.17896045551E+02 -0.11030091983E+03  0.11984741155E+03  0.00000000000E+00 0. -1.
         21    1    1    2  503  502 -0.21760689077E+02  0.17098242642E+02 -0.83551991395E+02  0.88015980121E+02  0.00000000000E+00 0.  1.
          4    1    1    2  501    0  0.84448646615E+01  0.18129936598E+02 -0.11968596635E+03  0.12134554331E+03  0.00000000000E+00 0. -1.
<scales pt_clust_5="13000.00000" pt_clust_6="13000.00000" pt_clust_7="13000.00000" pt_clust_8="13000.00000" pt_clust_9="28.24803" pt_clust_10="20.00026"></scales>
<clustering>
<clus scale="   20.000">  2 10  1 -1</clus>
<clus scale="   28.248">  2  9  1 -1</clus>
<clus scale="   82.289">  7  8 -1 -1</clus>
<clus scale="   91.260">  5  6 -1 -1</clus>
<clus scale="  112.834">  1  7  2 -1</clus>
<clus scale="   20.000">  2  5  1 -1</clus>
</clustering>
</event>
<event>
10    2  0.2421970E-006  0.2156864E+03  0.7546771E-02  0.1137359E+00
         21   -1    0    0  501  502  0.00000000000E+00  0.00000000000E+00  0.28971635409E+03  0.28971635409E+03  0.00000000000E+00 0.  1.
          2   -1    0    0  503    0 -0.00000000000E+00 -0.00000000000E+00 -0.42165071333E+03  0.42165071333E+03  0.00000000000E+00 0.  1.
         23    2    1    2    0    0  0.74364920896E+02  0.22223363188E+03 -0.21478583540E+03  0.33549045482E+03  0.10725186054E+03 0.  0.
         23    2    1    2    0    0 -0.31325875017E+02 -0.13604335365E+03 -0.63172977201E+02  0.18572175350E+03  0.10494112709E+03 0.  0.
        -11    1    4    4    0    0 -0.13812324942E+02 -0.14969632571E+03 -0.64256051732E+02  0.16348886946E+03  0.00000000000E+00 0. -1.
         11    1    4    4    0    0 -0.17513550075E+02  0.13652972062E+02  0.10830745311E+01  0.22232884041E+02  0.00000000000E+00 0.  1.
        -11    1    3    3    0    0 -0.36280549603E+01  0.92118622446E+02 -0.31174361847E+02  0.97318262524E+02  0.00000000000E+00 0. -1.
         11    1    3    3    0    0  0.77992975856E+02  0.13011500943E+03 -0.18361147355E+03  0.23817219230E+03  0.00000000000E+00 0.  1.
         21    1    1    2  503  502 -0.28272960937E+02 -0.33004512819E+02  0.11812362440E+02  0.45035431529E+02  0.00000000000E+00 0. -1.
          2    1    1    2  501    0 -0.14766084942E+02 -0.53185765408E+02  0.13421209093E+03  0.14511942757E+03  0.00000000000E+00 0.  1.
<scales pt_clust_5="13000.00000" pt_clust_6="13000.00000" pt_clust_7="13000.00000" pt_clust_8="13000.00000" pt_clust_9="43.45870" pt_clust_10="76.87153"></scales>
<clustering>
<clus scale="   43.459">  1  9  2 -1</clus>
<clus scale="   76.872">  1 10  2 -1</clus>
<clus scale="  104.941">  5  6 -1 -1</clus>
<clus scale="  107.252">  7  8 -1 -1</clus>
<clus scale="  214.547">  1  5  2 -1</clus>
<clus scale="   43.459">  1  5  2 -1</clus>
</clustering>
</event>
<event>
10    2  0.2421970E-006  0.1109396E+03  0.7546771E-02  0.1265801E+00
         21   -1    0    0  503  502  0.00000000000E+00  0.00000000000E+00  0.34119866521E+03  0.34119866521E+03  0.00000000000E+00 0.  1.
         -4   -1    0    0    0  501 -0.00000000000E+00 -0.00000000000E+00 -0.91205303876E+02  0.91205303876E+02  0.00000000000E+00 0.  1.
         23    2    1    2    0    0  0.24295455437E+02 -0.32076633814E+02 -0.38088430787E+01  0.10178566287E+03  0.93416456202E+02 0.  0.
         23    2    1    2    0    0  0.10812823238E+02  0.62241691279E+01  0.11062703906E+03  0.15510442058E+03  0.10799713925E+03 0.  0.
        -13    1    4    4    0    0  0.35081424829E+02  0.42187131621E+02  0.93602342465E+02  0.10849819795E+03  0.00000000000E+00 0.  1.
         13    1    4    4    0    0 -0.24268601592E+02 -0.35962962493E+02  0.17024696597E+02  0.46606222639E+02  0.00000000000E+00 0. -1.
        -13    1    3    3    0    0  0.32025461083E+02 -0.58803118068E+02 -0.19634293829E+02  0.69777806975E+02  0.00000000000E+00 0.  1.
         13    1    3    3    0    0 -0.77300056457E+01  0.26726484253E+02  0.15825450750E+02  0.32007855899E+02  0.00000000000E+00 0. -1.
         21    1    1    2  503  501 -0.35333858943E+02 -0.38059893078E+01  0.70956900228E+01  0.36239701424E+02  0.00000000000E+00 0.  1.
         -4    1    1    2    0  502  0.22558026831E+00  0.29658453994E+02  0.13607947533E+03  0.13927418420E+03  0.00000000000E+00 0.  1.
<scales pt_clust_5="13000.00000" pt_clust_6="13000.00000" pt_clust_7="13000.00000" pt_clust_8="13000.00000" pt_clust_9="35.31580" pt_clust_10="29.65931"></scales>
<clustering>
<clus scale="   29.659">  1 10  2 -1</clus>
<clus scale="   35.316">  2  9  1 -1</clus>
<clus scale="   93.416">  7  8 -1 -1</clus>
<clus scale="   96.803">  2  7  1 -1</clus>
<clus scale="  107.997">  5  6 -1 -1</clus>
<clus scale="   29.659">  1  5  2 -1</clus>
</clustering>
</event>
<event>
10    2  0.2421970E-006  0.2413134E+03  0.7546771E-02  0.1137080E+00
          1   -1    0    0  503    0 -0.00000000000E+00  0.00000000000E+00  0.97261612177E+03  0.97261612177E+03  0.00000000000E+00 0. -1.
         21   -1    0    0  501  502  0.00000000000E+00 -0.00000000000E+00 -0.18764723400E+03  0.18764723400E+03  0.00000000000E+00 0. -1.
         23    2    1    2    0    0  0.10070552523E+03  0.76483866375E+02  0.53597591935E+03  0.55817533570E+03  0.91094097674E+02 0.  0.
         23    2    1    2    0    0  0.31180847466E+02  0.16776781022E+03  0.16547085365E+03  0.25431306003E+03  0.90422595090E+02 0.  0.
        -11    1    3    3    0    0  0.62352320668E+02  0.30338301031E+00  0.14222268705E+03  0.15529068435E+03  0.00000000000E+00 0.  1.
         11    1    3    3    0    0  0.38353204564E+02  0.76180483365E+02  0.39375323230E+03  0.40288465135E+03  0.00000000000E+00 0. -1.
        -13    1    4    4    0    0  0.33842515889E+02  0.13904123921E+03  0.79652245526E+02  0.16377503564E+03  0.00000000000E+00 0. -1.
         13    1    4    4    0    0 -0.26616684228E+01  0.28726571010E+02  0.85818608120E+02  0.90538024390E+02  0.00000000000E+00 0.  1.
         21    1    1    2  503  502 -0.47898033829E+02  0.17328427226E+02 -0.19244801679E+02  0.54450513555E+02  0.00000000000E+00 0.  1.
          1    1    1    2  501    0 -0.83988338870E+02 -0.26158010382E+03  0.10276691645E+03  0.29332444647E+03  0.00000000000E+00 0. -1.
<scales pt_clust_5="13000.00000" pt_clust_6="13000.00000" pt_clust_7="13000.00000" pt_clust_8="13000.00000" pt_clust_9="50.93620" pt_clust_10="223.73174"></scales>
<clustering>
<clus scale="   50.936">  2  9  1 -1</clus>
<clus scale="   90.423">  7  8 -1 -1</clus>
<clus scale="   91.094">  5  6 -1 -1</clus>
<clus scale="  154.236">  1  5  2 -1</clus>
<clus scale="  223.732">  2 10  1 -1</clus>
<clus scale="   50.936">  2  5  1 -1</clus>
</clustering>
</event>
<event>
10    2  0.2421970E-006  0.9445435E+02  0.7546771E-02  0.1294573E+00
          1   -1    0    0  502    0 -0.00000000000E+00  0.00000000000E+00  0.12589912833E+03  0.12589912833E+03  0.00000000000E+00 0. -1.
         21   -1    0    0  503  502  0.00000000000E+00 -0.00000000000E+00 -0.27325556445E+03  0.27325556445E+03  0.00000000000E+00 0. -1.
         23    2    1    2    0    0  0.15512073999E+02  0.15766988436E+02  0.70188444733E+02  0.11513882174E+03  0.88551161104E+02 0.  0.
         23    2    1    2    0    0  0.36540415383E+02 -0.29970845744E+02 -0.14304538324E+03  0.17671288759E+03  0.92368876919E+02 0.  0.
        -13    1    4    4    0    0  0.56332013896E+02  0.10510429355E+02 -0.94174187864E+02  0.11023857118E+03  0.00000000000E+00 0. -1.
         13    1    4    4    0    0 -0.19791598513E+02 -0.40481275099E+02 -0.48871195372E+02  0.66474316412E+02  0.00000000000E+00 0.  1.
        -13    1    3    3    0    0  0.40535175366E+02  0.32136196536E+02  0.67606096956E+02  0.85125906253E+02  0.00000000000E+00 0. -1.
         13    1    3    3    0    0 -0.25023101367E+02 -0.16369208100E+02  0.25823477771E+01  0.30012915484E+02  0.00000000000E+00 0.  1.
         21    1    1    2  503  501 -0.82203971629E+01  0.29632668398E+02 -0.29052176496E+02  0.42304833353E+02  0.00000000000E+00 0. -1.
          1    1    1    2  501    0 -0.43832092219E+02 -0.15428811090E+02 -0.45447321124E+02  0.64998150107E+02  0.00000000000E+00 0. -1.
<scales pt_clust_5="13000.00000" pt_clust_6="13000.00000" pt_clust_7="13000.00000" pt_clust_8="13000.00000" pt_clust_9="30.75175" pt_clust_10="46.53339"></scales>
<clustering>
<clus scale="   30.752">  2  9  1 -1</clus>
<clus scale="   46.533">  2 10  1 -1</clus>
<clus scale="   88.551">  7  8 -1 -1</clus>
<clus scale="   90.724">  1  7  2 -1</clus>
<clus scale="   92.369">  5  6 -1 -1</clus>
<clus scale="   30.752">  2  5  1 -1</clus>
</clustering>
</event>
<event>
10    2  0.2421970E-006  0.1036354E+03  0.7546771E-02  0.1273463E+00
         21   -1    0    0  501  502  0.00000000000E+00  0.00000000000E+00  0.23386922686E+03  0.23386922686E+03  0.00000000000E+00 0. -1.
          2   -1    0    0  503    0 -0.00000000000E+00 -0.00000000000E+00 -0.13426995657E+03  0.13426995657E+03  0.00000000000E+00 0. -1.
         23    2    1    2    0    0  0.14445880913E+02  0.62625328713E+02 -0.65176134239E+02  0.12888983966E+03  0.90741649873E+02 0.  0.
         23    2    1    2    0    0 -0.28379282172E+01  0.29857580720E+01  0.71216085019E+02  0.11653544685E+03  0.92151022887E+02 0.  0.
        -11    1    3    3    0    0 -0.91039438773E+01  0.20254390336E+02  0.20647417081E+02  0.30322235309E+02  0.00000000000E+00 0.  1.
         11    1    3    3    0    0  0.23549824790E+02  0.42370938376E+02 -0.85823551320E+02  0.98567604352E+02  0.00000000000E+00 0. -1.
        -13    1    4    4    0    0 -0.20365854067E+02 -0.37492705221E+02  0.15327278426E+02  0.45336480020E+02  0.00000000000E+00 0.  1.
         13    1    4    4    0    0  0.17527925850E+02  0.40478463293E+02  0.55888806592E+02  0.71198966829E+02  0.00000000000E+00 0. -1.
         21    1    1    2  503  502  0.80146098332E+01 -0.47003568279E+02  0.78265738131E+02  0.91646577497E+02  0.00000000000E+00 0. -1.
          2    1    1    2  501    0 -0.19622562529E+02 -0.18607518506E+02  0.15293581380E+02  0.31067319430E+02  0.00000000000E+00 0. -1.
<scales pt_clust_5="13000.00000" pt_clust_6="13000.00000" pt_clust_7="13000.00000" pt_clust_8="13000.00000" pt_clust_9="54.50678" pt_clust_10="27.04228"></scales>
<clustering>
<clus scale="   27.042">  1 10  2 -1</clus>
<clus scale="   54.507">  1  9  2 -1</clus>
<clus scale="   90.742">  5  6 -1 -1</clus>
<clus scale="   92.151">  7  8 -1 -1</clus>
<clus scale="  102.384">  2  5  1 -1</clus>
<clus scale="   27.042">  1  5  2 -1</clus>
</clustering>
</event>
<event>
10    2  0.2421970E-006  0.1503473E+03  0.7546771E-02  0.1223797E+00
          3   -1    0    0  502    0 -0.00000000000E+00  0.00000000000E+00  0.79607992047E+03  0.79607992047E+03  0.00000000000E+00 0. -1.
         21   -1    0    0  503  502  0.00000000000E+00 -0.00000000000E+00 -0.69200119520E+02  0.69200119520E+02  0.00000000000E+00 0. -1.
         23    2    1    2    0    0 -0.29938842216E+02  0.40569077471E+01  0.37873602767E+03  0.38944181068E+03  0.85505277488E+02 0.  0.
         23    2    1    2    0    0  0.57617785553E+02  0.11246612908E+03  0.31225879436E+03  0.34865159212E+03  0.89910725899E+02 0.  0.
        -11    1    4    4    0    0  0.80872791828E+02  0.99702239267E+02  0.26492025652E+03  0.29438696861E+03  0.00000000000E+00 0. -1.
         11    1    4    4    0    0 -0.23255006275E+02  0.12763889811E+02  0.47338537837E+02  0.54264623509E+02  0.00000000000E+00 0.  1.
        -13    1    3    3    0    0  0.28767951639E+02  0.64365702473E+01  0.87323973553E+02  0.92165616339E+02  0.00000000000E+00 0.  1.
         13    1    3    3    0    0 -0.58706793855E+02 -0.23796625002E+01  0.29141205412E+03  0.29727619435E+03  0.00000000000E+00 0. -1.
         21    1    1    2  503  501 -0.24040054181E+02 -0.52140589988E+02  0.14108163500E+02  0.59123646764E+02  0.00000000000E+00 0.  1.
          3    1    1    2  501    0 -0.36388891563E+01 -0.64382446837E+02  0.21776815414E+02  0.68062990418E+02  0.00000000000E+00 0. -1.
<scales pt_clust_5="13000.00000" pt_clust_6="13000.00000" pt_clust_7="13000.00000" pt_clust_8="13000.00000" pt_clust_9="22.02777" pt_clust_10="122.74099"></scales>
<clustering>
<clus scale="   22.028">  9 10 -1 -1</clus>
<clus scale="   85.505">  7  8 -1 -1</clus>
<clus scale="   89.911">  5  6 -1 -1</clus>
<clus scale="   90.686">  1  7  2 -1</clus>
<clus scale="  122.741">  2  9  1 -1</clus>
<clus scale="  122.741">  2  5  1 -1</clus>
</clustering>
</event>
<event>
10    2  0.2421970E-006  0.1517802E+03  0.7546771E-02  0.1198907E+00
         21   -1    0    0  503  502  0.00000000000E+00  0.00000000000E+00  0.68578250415E+03  0.68578250415E+03  0.00000000000E+00 0. -1.
         -4   -1    0    0    0  501 -0.00000000000E+00 -0.00000000000E+00 -0.11884787018E+03  0.11884787018E+03  0.00000000000E+00 0. -1.
         23    2    1    2    0    0 -0.45035628559E+02  0.11289627231E+03  0.10329535702E+02  0.15254050622E+03  0.91586738070E+02 0.  0.
         23    2    1    2    0    0 -0.33967346259E+02 -0.13625691817E+03  0.48295369743E+03  0.51064041021E+03  0.88258859728E+02 0.  0.
        -11    1    3    3    0    0  0.23420395970E+02  0.46907464007E+01 -0.16329131508E+01  0.23941270946E+02  0.00000000000E+00 0.  1.
         11    1    3    3    0    0 -0.68456024529E+02  0.10820552591E+03  0.11962448853E+02  0.12859923528E+03  0.00000000000E+00 0. -1.
        -13    1    4    4    0    0 -0.62256452144E+02 -0.98835447022E+02  0.37900007605E+03  0.39659219492E+03  0.00000000000E+00 0. -1.
         13    1    4    4    0    0  0.28289105885E+02 -0.37421471149E+02  0.10395362137E+03  0.11404821529E+03  0.00000000000E+00 0.  1.
         21    1    1    2  503  501  0.58030660042E+02  0.11772164312E+02  0.93272163692E+02  0.11048003384E+03  0.00000000000E+00 0. -1.
         -4    1    1    2    0  502  0.20972314776E+02  0.11588481549E+02 -0.19620762844E+02  0.30969424054E+02  0.00000000000E+00 0. -1.
<scales pt_clust_5="13000.00000" pt_clust_6="13000.00000" pt_clust_7="13000.00000" pt_clust_8="13000.00000" pt_clust_9="62.64586" pt_clust_10="23.96104"></scales>
<clustering>
<clus scale="   23.961">  1 10  2 -1</clus>
<clus scale="   62.646">  1  9  2 -1</clus>
<clus scale="   88.259">  7  8 -1 -1</clus>
<clus scale="   91.587">  5  6 -1 -1</clus>
<clus scale="  149.796">  1  7  2 -1</clus>
<clus scale="   23.961">  1  5  2 -1</clus>
</clustering>
</event>
<event>
10    2  0.2421970E-006  0.1194798E+03  0.7546771E-02  0.1244263E+00
          2   -1    0    0  503    0 -0.00000000000E+00  0.00000000000E+00  0.79559377035E+03  0.79559377035E+03  0.00000000000E+00 0. -1.
         21   -1    0    0  501  502  0.00000000000E+00 -0.00000000000E+00 -0.68199958740E+02  0.68199958740E+02  0.00000000000E+00 0. -1.
         23    2    1    2    0    0  0.14253154535E+02  0.10962700880E+03  0.51559797202E+03  0.53509414549E+03  0.90902377906E+02 0.  0.
         23    2    1    2    0    0  0.40919402799E+02 -0.35104065942E+02  0.13098822875E+03  0.16778922276E+03  0.89936723481E+02 0.  0.
        -11    1    3    3    0    0  0.40821295931E+02  0.10482943465E+03  0.35988675133E+03  0.37705975966E+03  0.00000000000E+00 0. -1.
         11    1    3    3    0    0 -0.26568141396E+02  0.47975741482E+01  0.15571122069E+03  0.15803438583E+03  0.00000000000E+00 0.  1.
        -13    1    4    4    0    0  0.61690744072E+02 -0.49671604917E+02  0.10433613783E+03  0.13099254137E+03  0.00000000000E+00 0. -1.
         13    1    4    4    0    0 -0.20771341273E+02  0.14567538975E+02  0.26652090925E+02  0.36796681382E+02  0.00000000000E+00 0.  1.
         21    1    1    2  503  502 -0.45054025663E+02 -0.16986903808E+02  0.89711827574E+02  0.10181665942E+03  0.00000000000E+00 0.  1.
          2    1    1    2  501    0 -0.10118531671E+02 -0.57536039045E+02 -0.89042167387E+01  0.59093701423E+02  0.00000000000E+00 0. -1.
<scales pt_clust_5="13000.00000" pt_clust_6="13000.00000" pt_clust_7="13000.00000" pt_clust_8="13000.00000" pt_clust_9="48.14998" pt_clust_10="59.31736"></scales>
<clustering>
<clus scale="   48.150">  1  9  2 -1</clus>
<clus scale="   59.317">  2 10  1 -1</clus>
<clus scale="   89.937">  7  8 -1 -1</clus>
<clus scale="   90.902">  5  6 -1 -1</clus>
<clus scale="  118.747">  2  7  1 -1</clus>
<clus scale="   59.317">  2  5  1 -1</clus>
</clustering>
</event>
<event>
10    2  0.2421970E-006  0.1339702E+03  0.7546771E-02  0.1223050E+00
         21   -1    0    0  503  502  0.00000000000E+00  0.00000000000E+00  0.11273908846E+03  0.11273908846E+03  0.00000000000E+00 0.  1.
         -1   -1    0    0    0  501 -0.00000000000E+00 -0.00000000000E+00 -0.30754606473E+03  0.30754606473E+03  0.00000000000E+00 0.  1.
         23    2    1    2    0    0 -0.88794170935E+02  0.42047371998E+02 -0.11670232481E+03  0.17856265142E+03  0.92805180798E+02 0.  0.
         23    2    1    2    0    0  0.52286141641E+02 -0.91289071066E+02 -0.69498701151E+02  0.15333503206E+03  0.87258394962E+02 0.  0.
        -13    1    4    4    0    0 -0.10933847311E+02 -0.66590577062E+02 -0.45300195125E+02  0.81277067177E+02  0.00000000000E+00 0.  1.
         13    1    4    4    0    0  0.63219988952E+02 -0.24698494004E+02 -0.24198506026E+02  0.72057964883E+02  0.00000000000E+00 0. -1.
        -13    1    3    3    0    0 -0.29381176693E+02  0.55230362343E+02 -0.95403243626E+02  0.11408516715E+03  0.00000000000E+00 0.  1.
         13    1    3    3    0    0 -0.59412994242E+02 -0.13182990345E+02 -0.21299081183E+02  0.64477484276E+02  0.00000000000E+00 0. -1.
         21    1    1    2  503  501  0.14577016062E+02  0.54225859304E+02 -0.24071245429E+02  0.61093028007E+02  0.00000000000E+00 0.  1.
         -1    1    1    2    0  502  0.21931013233E+02 -0.49841602362E+01  0.15465295122E+02  0.27294441703E+02  0.00000000000E+00 0.  1.
<scales pt_clust_5="13000.00000" pt_clust_6="13000.00000" pt_clust_7="13000.00000" pt_clust_8="13000.00000" pt_clust_9="56.51305" pt_clust_10="22.49025"></scales>
<clustering>
<clus scale="   22.490">  1 10  2 -1</clus>
<clus scale="   56.513">  1  9  2 -1</clus>
<clus scale="   87.258">  5  6 -1 -1</clus>
<clus scale="   92.805">  7  8 -1 -1</clus>
<clus scale="  130.189">  1  5  2 -1</clus>
<clus scale="   22.490">  1  5  2 -1</clus>
</clustering>
</event>
<event>
10    2  0.2421970E-006  0.1650403E+03  0.7546771E-02  0.1199843E+00
         21   -1    0    0  503  502  0.00000000000E+00  0.00000000000E+00  0.16009074524E+03  0.16009074524E+03  0.00000000000E+00 0.  1.
         -3   -1    0    0    0  501 -0.00000000000E+00 -0.00000000000E+00 -0.48624343463E+03  0.48624343463E+03  0.00000000000E+00 0.  1.
         23    2    1    2    0    0  0.19670889092E+02 -0.66119560942E+02 -0.50604519430E+02  0.12487862701E+03  0.90967652940E+02 0.  0.
         23    2    1    2    0    0 -0.66988295142E+02  0.77425086868E+02 -0.29187132731E+02  0.14036907894E+03  0.91485047102E+02 0.  0.
        -11    1    3    3    0    0  0.48844964603E+02 -0.56132637972E+02 -0.11839779633E+02  0.75345099340E+02  0.00000000000E+00 0.  1.
         11    1    3    3    0    0 -0.29174075511E+02 -0.99869229699E+01 -0.38764739797E+02  0.49533527674E+02  0.00000000000E+00 0. -1.
        -11    1    4    4    0    0 -0.48412924036E+02  0.38525246644E+02 -0.60929649100E+02  0.86835637743E+02  0.00000000000E+00 0. -1.
         11    1    4    4    0    0 -0.18575371106E+02  0.38899840224E+02  0.31742516369E+02  0.53533441199E+02  0.00000000000E+00 0.  1.
         21    1    1    2  503  501  0.14043175640E+03 -0.89894913183E+02 -0.11915697871E+03  0.20494037961E+03  0.00000000000E+00 0.  1.
         -3    1    1    2    0  502 -0.93114350352E+02  0.78589387257E+02 -0.12720405853E+03  0.17614609430E+03  0.00000000000E+00 0.  1.
<scales pt_clust_5="13000.00000" pt_clust_6="13000.00000" pt_clust_7="13000.00000" pt_clust_8="13000.00000" pt_clust_9="137.36368" pt_clust_10="100.92628"></scales>
<clustering>
<clus scale="   90.968">  5  6 -1 -1</clus>
<clus scale="   91.485">  7  8 -1 -1</clus>
<clus scale="  114.166">  2  5  1 -1</clus>
<clus scale="  100.926">  1 10  2 -1</clus>
<clus scale="  137.364">  1  9  2 -1</clus>
<clus scale="  100.926">  1  5  2 -1</clus>
</clustering>
</event>
<event>
10    2  0.2421970E-006  0.9480138E+02  0.7546771E-02  0.1292066E+00
          2   -1    0    0  502    0 -0.00000000000E+00  0.00000000000E+00  0.30449891915E+03  0.30449891915E+03  0.00000000000E+00 0. -1.
         21   -1    0    0  503  502  0.00000000000E+00 -0.00000000000E+00 -0.15216620915E+03  0.15216620915E+03  0.00000000000E+00 0. -1.
         23    2    1    2    0    0  0.31574503566E+02 -0.49106698689E+02  0.14870309437E+03  0.18419614102E+03  0.91690735425E+02 0.  0.
         23    2    1    2    0    0  0.33632937750E+02 -0.37908884474E+01  0.99268567592E+02  0.13877968187E+03  0.90884576524E+02 0.  0.
        -11    1    4    4    0    0  0.57126524994E+02  0.22586097583E+02  0.58362820999E+02  0.84733644657E+02  0.00000000000E+00 0. -1.
         11    1    4    4    0    0 -0.23493587243E+02 -0.26376986031E+02  0.40905746593E+02  0.54046037209E+02  0.00000000000E+00 0.  1.
        -13    1    3    3    0    0  0.28706472381E+02 -0.74211820359E+02  0.89101012294E+02  0.11945897300E+03  0.00000000000E+00 0. -1.
         13    1    3    3    0    0  0.28680311847E+01  0.25105121670E+02  0.59602082073E+02  0.64737168028E+02  0.00000000000E+00 0.  1.
         21    1    1    2  503  501 -0.22022505472E+02 -0.34722391397E+01 -0.20167065492E+02  0.30062563471E+02  0.00000000000E+00 0. -1.
          2    1    1    2  501    0 -0.43184935844E+02  0.56369826276E+02 -0.75471886467E+02  0.10362674194E+03  0.00000000000E+00 0. -1.
<scales pt_clust_5="13000.00000" pt_clust_6="13000.00000" pt_clust_7="13000.00000" pt_clust_8="13000.00000" pt_clust_9="22.29456" pt_clust_10="79.71291"></scales>
<clustering>
<clus scale="   22.295">  2  9  1 -1</clus>
<clus scale="   79.713">  2 10  1 -1</clus>
<clus scale="   90.885">  5  6 -1 -1</clus>
<clus scale="   91.691">  7  8 -1 -1</clus>
<clus scale="   94.022">  2  5  1 -1</clus>
<clus scale="   22.295">  2  5  1 -1</clus>
</clustering>
</event>
<event>
10    2  0.2421970E-006  0.1171915E+03  0.7546771E-02  0.1248041E+00
         21   -1    0    0  503  502  0.00000000000E+00  0.00000000000E+00  0.38870797945E+02  0.38870797945E+02  0.00000000000E+00 0. -1.
          2   -1    0    0  502    0 -0.00000000000E+00 -0.00000000000E+00 -0.10329461587E+04  0.10329461587E+04  0.00000000000E+00 0. -1.
         23    2    1    2    0    0  0.46230113365E+02  0.55098870892E+02 -0.43280235850E+03  0.44793581513E+03  0.90307829107E+02 0.  0.
         23    2    1    2    0    0 -0.12221298964E+03  0.21430033521E+02 -0.24542290338E+03  0.28922849247E+03  0.89584921612E+02 0.  0.
        -11    1    3    3    0    0  0.22734987514E+02  0.78181320527E+02 -0.27851425850E+03  0.29017131272E+03  0.00000000000E+00 0.  1.
         11    1    3    3    0    0  0.23495125850E+02 -0.23082449635E+02 -0.15428810000E+03  0.15776450241E+03  0.00000000000E+00 0. -1.
        -13    1    4    4    0    0 -0.10641557452E+03  0.37331397496E+02 -0.13201006397E+03  0.17362190164E+03  0.00000000000E+00 0. -1.
         13    1    4    4    0    0 -0.15797415123E+02 -0.15901363975E+02 -0.11341283942E+03  0.11560659084E+03  0.00000000000E+00 0.  1.
         21    1    1    2  503  501  0.39621309493E+02 -0.33616133825E+02 -0.18649008964E+03  0.19359350751E+03  0.00000000000E+00 0. -1.
          2    1    1    2  501    0  0.36361566784E+02 -0.42912770588E+02 -0.12936000924E+03  0.14105914153E+03  0.00000000000E+00 0. -1.
<scales pt_clust_5="13000.00000" pt_clust_6="13000.00000" pt_clust_7="13000.00000" pt_clust_8="13000.00000" pt_clust_9="23.56354" pt_clust_10="110.59441"></scales>
<clustering>
<clus scale="   23.564">  9 10 -1 -1</clus>
<clus scale="   89.585">  7  8 -1 -1</clus>
<clus scale="   90.308">  5  6 -1 -1</clus>
<clus scale="  110.594">  1  9  2 -1</clus>
<clus scale="  116.635">  1  7  2 -1</clus>
<clus scale="  110.594">  1  5  2 -1</clus>
</clustering>
</event>
<event>
10    2  0.2421970E-006  0.9736554E+02  0.7546771E-02  0.1287138E+00
          1   -1    0    0  502    0 -0.00000000000E+00  0.00000000000E+00  0.35303863958E+03  0.35303863958E+03  0.00000000000E+00 0. -1.
         21   -1    0    0  503  502  0.00000000000E+00 -0.00000000000E+00 -0.10119362359E+03  0.10119362359E+03  0.00000000000E+00 0. -1.
         23    2    1    2    0    0  0.84079294994E+00  0.16084924084E+02  0.17765155911E+03  0.20096607425E+03  0.92562707551E+02 0.  0.
         23    2    1    2    0    0  0.48611848451E+02 -0.39758354184E+02  0.12996367700E+03  0.17024192223E+03  0.90265808627E+02 0.  0.
        -13    1    4    4    0    0  0.67934707922E+02 -0.83482420881E+01  0.10628328615E+03  0.12641580044E+03  0.00000000000E+00 0.  1.
         13    1    4    4    0    0 -0.19322859471E+02 -0.31410112096E+02  0.23680390850E+02  0.43826121786E+02  0.00000000000E+00 0. -1.
        -13    1    3    3    0    0  0.89178663882E+01 -0.23928480891E+02  0.14880865798E+03  0.15098383102E+03  0.00000000000E+00 0. -1.
         13    1    3    3    0    0 -0.80770734382E+01  0.40013404975E+02  0.28842901133E+02  0.49982243234E+02  0.00000000000E+00 0.  1.
         21    1    1    2  503  501 -0.16803302476E+02  0.14831707372E+02 -0.39667907868E+02  0.45561754052E+02  0.00000000000E+00 0. -1.
          1    1    1    2  501    0 -0.32649338925E+02  0.88417227287E+01 -0.16102312254E+02  0.37462512636E+02  0.00000000000E+00 0. -1.
<scales pt_clust_5="13000.00000" pt_clust_6="13000.00000" pt_clust_7="13000.00000" pt_clust_8="13000.00000" pt_clust_9="22.41273" pt_clust_10="43.25196"></scales>
<clustering>
<clus scale="   22.413">  2  9  1 -1</clus>
<clus scale="   43.252">  2 10  1 -1</clus>
<clus scale="   90.266">  5  6 -1 -1</clus>
<clus scale="   92.563">  7  8 -1 -1</clus>
<clus scale="   95.185">  2  5  1 -1</clus>
<clus scale="   22.413">  2  5  1 -1</clus>
</clustering>
</event>
<event>
10    2  0.2421970E-006  0.1060954E+03  0.7546771E-02  0.1269538E+00
         21   -1    0    0  503  502  0.00000000000E+00  0.00000000000E+00  0.93929767265E+02  0.93929767265E+02  0.00000000000E+00 0.  1.
          1   -1    0    0  502    0 -0.00000000000E+00 -0.00000000000E+00 -0.20045925143E+03  0.20045925143E+03  0.00000000000E+00 0. -1.
         23    2    1    2    0    0  0.66493427737E+02  0.75128438749E+01 -0.57190475530E+02  0.13074849295E+03  0.96677811114E+02 0.  0.
         23    2    1    2    0    0 -0.16998301566E+02 -0.18936704017E+02 -0.27496424457E+02  0.10044361167E+03  0.93195089738E+02 0.  0.
        -11    1    4    4    0    0 -0.33482605884E+02 -0.48621662789E+02 -0.40373236838E+01  0.59173059509E+02  0.00000000000E+00 0.  1.
         11    1    4    4    0    0  0.16484304318E+02  0.29684958772E+02 -0.23459100773E+02  0.41270552156E+02  0.00000000000E+00 0. -1.
        -13    1    3    3    0    0  0.53758219755E+02 -0.25616482491E+02  0.43481329333E+01  0.59708095150E+02  0.00000000000E+00 0.  1.
         13    1    3    3    0    0  0.12735207982E+02  0.33129326366E+02 -0.61538608463E+02  0.71040397798E+02  0.00000000000E+00 0. -1.
         21    1    1    2  503  501 -0.27190049691E+02 -0.66167916175E+01 -0.14905531939E+01  0.28023248961E+02  0.00000000000E+00 0. -1.
          1    1    1    2  501    0 -0.22305076479E+02  0.18040651759E+02 -0.20352030982E+02  0.35173665117E+02  0.00000000000E+00 0. -1.
<scales pt_clust_5="13000.00000" pt_clust_6="13000.00000" pt_clust_7="13000.00000" pt_clust_8="13000.00000" pt_clust_9="27.98358" pt_clust_10="30.31660"></scales>
<clustering>
<clus scale="   27.984">  1  9  2 -1</clus>
<clus scale="   30.317">  1 10  2 -1</clus>
<clus scale="   93.195">  5  6 -1 -1</clus>
<clus scale="   96.678">  7  8 -1 -1</clus>
<clus scale="  102.932">  1  5  2 -1</clus>
<clus scale="   27.984">  1  5  2 -1</clus>
</clustering>
</event>
<event>
10    2  0.2421970E-006  0.9719209E+02  0.7546771E-02  0.1297402E+00
         21   -1    0    0  503  502  0.00000000000E+00  0.00000000000E+00  0.84838626238E+02  0.84838626238E+02  0.00000000000E+00 0. -1.
          1   -1    0    0  502    0 -0.00000000000E+00 -0.00000000000E+00 -0.35951405654E+03  0.35951405654E+03  0.00000000000E+00 0. -1.
         23    2    1    2    0    0  0.11081889646E+02  0.51426334298E+02 -0.18345249594E+03  0.20518422344E+03  0.75354304076E+02 0.  0.
         23    2    1    2    0    0 -0.46536888448E+00  0.29193121108E+02 -0.10493408375E+03  0.14403103176E+03  0.94240762351E+02 0.  0.
        -11    1    4    4    0    0  0.26781825808E+02  0.33749436422E+02 -0.87577498449E+01  0.43965768897E+02  0.00000000000E+00 0. -1.
         11    1    4    4    0    0 -0.27247194692E+02 -0.45563153131E+01 -0.96176333908E+02  0.10006526286E+03  0.00000000000E+00 0.  1.
        -11    1    3    3    0    0  0.25227647316E+02 -0.36723796717E+01 -0.20900274150E+02  0.32965770446E+02  0.00000000000E+00 0.  1.
         11    1    3    3    0    0 -0.14145757670E+02  0.55098713969E+02 -0.16255222179E+03  0.17221845299E+03  0.00000000000E+00 0. -1.
         21    1    1    2  503  501 -0.21514169758E+02 -0.28187444180E+02  0.20812158386E+02  0.41116145812E+02  0.00000000000E+00 0. -1.
          1    1    1    2  501    0  0.10897648996E+02 -0.52432011226E+02 -0.71010089902E+01  0.54021281765E+02  0.00000000000E+00 0. -1.
<scales pt_clust_5="13000.00000" pt_clust_6="13000.00000" pt_clust_7="13000.00000" pt_clust_8="13000.00000" pt_clust_9="35.45972" pt_clust_10="64.72456"></scales>
<clustering>
<clus scale="   35.460">  1  9  2 -1</clus>
<clus scale="   64.725">  1 10  2 -1</clus>
<clus scale="   75.354">  7  8 -1 -1</clus>
<clus scale="   79.014">  2  7  1 -1</clus>
<clus scale="   94.241">  5  6 -1 -1</clus>
<clus scale="   35.460">  1  5  2 -1</clus>
</clustering>
</event>
<event>
10    2  0.2421970E-006  0.2838137E+03  0.7546771E-02  0.1118538E+00
          2   -1    0    0  503    0 -0.00000000000E+00  0.00000000000E+00  0.46106423728E+03  0.46106423728E+03  0.00000000000E+00 0. -1.
         21   -1    0    0  501  502  0.00000000000E+00 -0.00000000000E+00 -0.89466768538E+03  0.89466768538E+03  0.00000000000E+00 0. -1.
         23    2    1    2    0    0  0.11542956635E+03  0.22208212902E+02  0.90497281327E+02  0.17388411403E+03  0.90712389863E+02 0.  0.
         23    2    1    2    0    0 -0.11748998141E+03 -0.25797511063E+03  0.55517369568E+02  0.30222533087E+03  0.88898362493E+02 0.  0.
        -13    1    3    3    0    0  0.85363610295E+02  0.56537822866E+02  0.56202244678E+02  0.11679967330E+03  0.00000000000E+00 0.  1.
         13    1    3    3    0    0  0.30065956057E+02 -0.34329609964E+02  0.34295036649E+02  0.57084440723E+02  0.00000000000E+00 0. -1.
        -13    1    4    4    0    0 -0.45887089808E+02 -0.34785909346E+02  0.33941011838E+02  0.66840682108E+02  0.00000000000E+00 0.  1.
         13    1    4    4    0    0 -0.71602891605E+02 -0.22318920129E+03  0.21576357730E+02  0.23538464876E+03  0.00000000000E+00 0. -1.
         21    1    1    2  503  502 -0.52746934538E+02  0.37069830920E+03 -0.62369777394E+03  0.72746023174E+03  0.00000000000E+00 0. -1.
          2    1    1    2  501    0  0.54807349599E+02 -0.13493141147E+03  0.44079674939E+02  0.15216224602E+03  0.00000000000E+00 0. -1.
<scales pt_clust_5="13000.00000" pt_clust_6="13000.00000" pt_clust_7="13000.00000" pt_clust_8="13000.00000" pt_clust_9="269.53163" pt_clust_10="145.63774"></scales>
<clustering>
<clus scale="   88.898">  7  8 -1 -1</clus>
<clus scale="   90.712">  5  6 -1 -1</clus>
<clus scale="  145.638">  2 10  1 -1</clus>
<clus scale="  149.761">  1  5  2 -1</clus>
<clus scale="  269.532">  2  9  1 -1</clus>
<clus scale="  145.638">  2  5  1 -1</clus>
</clustering>
</event>
<event>
10    2  0.2421970E-006  0.1486379E+03  0.7546771E-02  0.1202191E+00
          1   -1    0    0  503    0 -0.00000000000E+00  0.00000000000E+00  0.22593869491E+03  0.22593869491E+03  0.00000000000E+00 0. -1.
         21   -1    0    0  501  502  0.00000000000E+00 -0.00000000000E+00 -0.16375674018E+03  0.16375674018E+03  0.00000000000E+00 0. -1.
         23    2    1    2    0    0 -0.20965297986E+02 -0.11958888358E+03  0.89948206500E+02  0.17626962049E+03  0.90770339098E+02 0.  0.
         23    2    1    2    0    0  0.13409619505E+02  0.10925706779E+03 -0.25093836499E+02  0.14497888750E+03  0.90951923742E+02 0.  0.
        -11    1    3    3    0    0  0.34803584645E+02 -0.38280524954E+02  0.20404790626E+02  0.55615138006E+02  0.00000000000E+00 0.  1.
         11    1    3    3    0    0 -0.55768882631E+02 -0.81308358625E+02  0.69543415875E+02  0.12065448248E+03  0.00000000000E+00 0. -1.
        -11    1    4    4    0    0 -0.27401303940E+02  0.74199729365E+01  0.95134219488E+01  0.29939817187E+02  0.00000000000E+00 0.  1.
         11    1    4    4    0    0  0.40810923445E+02  0.10183709486E+03 -0.34607258448E+02  0.11503907031E+03  0.00000000000E+00 0. -1.
         21    1    1    2  503  502  0.17760273720E+02  0.36016888677E+02  0.28646160680E+01  0.40259776673E+02  0.00000000000E+00 0. -1.
          1    1    1    2  501    0 -0.10204595239E+02 -0.25685072891E+02 -0.55370313406E+01  0.28187150432E+02  0.00000000000E+00 0. -1.
<scales pt_clust_5="13000.00000" pt_clust_6="13000.00000" pt_clust_7="13000.00000" pt_clust_8="13000.00000" pt_clust_9="36.65213" pt_clust_10="27.63796"></scales>
<clustering>
<clus scale="   27.638">  2 10  1 -1</clus>
<clus scale="   36.652">  2  9  1 -1</clus>
<clus scale="   90.770">  5  6 -1 -1</clus>
<clus scale="   90.952">  7  8 -1 -1</clus>
<clus scale="  148.527">  1  5  2 -1</clus>
<clus scale="   27.638">  2  5  1 -1</clus>
</clustering>
</event>
<event>
10    2  0.2421970E-006  0.2023804E+03  0.7546771E-02  0.1179910E+00
         -1   -1    0    0    0  501 -0.00000000000E+00  0.00000000000E+00  0.28379189793E+03  0.28379189793E+03  0.00000000000E+00 0.  1.
         21   -1    0    0  503  502  0.00000000000E+00 -0.00000000000E+00 -0.67554496817E+03  0.67554496817E+03  0.00000000000E+00 0. -1.
         23    2    1    2    0    0  0.11042259759E+03  0.13905147085E+03  0.16548858977E+03  0.25885477526E+03  0.89949206368E+02 0.  0.
         23    2    1    2    0    0 -0.34632327245E+02 -0.76595269928E+01 -0.29700886289E+02  0.10295332442E+03  0.91973789304E+02 0.  0.
        -11    1    4    4    0    0 -0.20533854003E+02 -0.43328789892E+02  0.86413382786E+01  0.48720590318E+02  0.00000000000E+00 0. -1.
         11    1    4    4    0    0 -0.14098473242E+02  0.35669262899E+02 -0.38342224568E+02  0.54232734104E+02  0.00000000000E+00 0.  1.
        -11    1    3    3    0    0  0.54829471590E+02  0.10848649008E+02  0.26833437350E+02  0.61999979840E+02  0.00000000000E+00 0.  1.
         11    1    3    3    0    0  0.55593125997E+02  0.12820282184E+03  0.13865515242E+03  0.19685479542E+03  0.00000000000E+00 0. -1.
         21    1    1    2  503  501 -0.12427918681E+03 -0.17125478217E+03 -0.34743725047E+03  0.40679990131E+03  0.00000000000E+00 0. -1.
         -1    1    1    2    0  502  0.48488916472E+02  0.39862838310E+02 -0.18010352325E+03  0.19072886511E+03  0.00000000000E+00 0.  1.
<scales pt_clust_5="13000.00000" pt_clust_6="13000.00000" pt_clust_7="13000.00000" pt_clust_8="13000.00000" pt_clust_9="181.29251" pt_clust_10="62.77118"></scales>
<clustering>
<clus scale="   62.771">  2 10  1 -1</clus>
<clus scale="   89.949">  7  8 -1 -1</clus>
<clus scale="   91.974">  5  6 -1 -1</clus>
<clus scale="   96.189">  2  5  1 -1</clus>
<clus scale="  181.293">  2  9  1 -1</clus>
<clus scale="   62.771">  2  5  1 -1</clus>
</clustering>
</event>
<event>
10    2  0.2421970E-006  0.1105450E+03  0.7546771E-02  0.1260341E+00
         21   -1    0    0  501  502  0.00000000000E+00  0.00000000000E+00  0.75807868494E+02  0.75807868494E+02  0.00000000000E+00 0. -1.
          2   -1    0    0  503    0 -0.00000000000E+00 -0.00000000000E+00 -0.81772036995E+03  0.81772036995E+03  0.00000000000E+00 0. -1.
         23    2    1    2    0    0  0.77217281573E+02  0.33993002940E+02 -0.59099640915E+03  0.60343721656E+03  0.87986850623E+02 0.  0.
         23    2    1    2    0    0 -0.27204353441E+02  0.34821091775E+02 -0.15201456737E+03  0.18212759466E+03  0.90052466734E+02 0.  0.
        -11    1    3    3    0    0  0.94323202981E+02  0.18259586078E+02 -0.51786910300E+03  0.52670550306E+03  0.00000000000E+00 0.  1.
         11    1    3    3    0    0 -0.17105921408E+02  0.15733416862E+02 -0.73127306146E+02  0.76731713506E+02  0.00000000000E+00 0. -1.
        -11    1    4    4    0    0  0.41275455463E+01 -0.27639471541E+02 -0.26720931955E+02  0.38665038780E+02  0.00000000000E+00 0.  1.
         11    1    4    4    0    0 -0.31331898987E+02  0.62460563315E+02 -0.12529363542E+03  0.14346255588E+03  0.00000000000E+00 0. -1.
         21    1    1    2  503  502 -0.54086547345E+02 -0.18849472752E+02 -0.48467094737E+01  0.57481717262E+02  0.00000000000E+00 0.  1.
          2    1    1    2  501    0  0.40736192126E+01 -0.49964621962E+02  0.59451845379E+01  0.50481709960E+02  0.00000000000E+00 0. -1.
<scales pt_clust_5="13000.00000" pt_clust_6="13000.00000" pt_clust_7="13000.00000" pt_clust_8="13000.00000" pt_clust_9="69.61991" pt_clust_10="50.13041"></scales>
<clustering>
<clus scale="   50.130">  1 10  2 -1</clus>
<clus scale="   69.620">  1  9  2 -1</clus>
<clus scale="   87.987">  5  6 -1 -1</clus>
<clus scale="   90.052">  7  8 -1 -1</clus>
<clus scale="  108.869">  2  5  1 -1</clus>
<clus scale="   50.130">  1  5  2 -1</clus>
</clustering>
</event>
<event>
10    2  0.6541558E-006  0.2310190E+03  0.7546771E-02  0.1156960E+00
          1   -1    0    0  502    0 -0.00000000000E+00  0.00000000000E+00  0.62837904339E+03  0.62837904339E+03  0.00000000000E+00 0. -1.
         21   -1    0    0  503  502  0.00000000000E+00 -0.00000000000E+00 -0.23398612738E+03  0.23398612738E+03  0.00000000000E+00 0. -1.
         23    2    1    2    0    0  0.52668440317E+02  0.27619841680E+02  0.21141615698E+02  0.11078117309E+03  0.91042188780E+02 0.  0.
         23    2    1    2    0    0 -0.79390262545E+02  0.18318434023E+03  0.45967778183E+03  0.51265976917E+03  0.10796786341E+03 0.  0.
        -11    1    4    4    0    0 -0.37020353090E+02  0.10618412384E+03  0.37156374746E+03  0.38820766752E+03  0.00000000000E+00 0. -1.
         11    1    4    4    0    0 -0.42369909455E+02  0.77000216397E+02  0.88114034366E+02  0.12445210165E+03  0.00000000000E+00 0.  1.
        -11    1    3    3    0    0 -0.22803574294E+02 -0.91768900205E+01  0.19970459620E+01  0.24661843070E+02  0.00000000000E+00 0. -1.
         11    1    3    3    0    0  0.75472014611E+02  0.36796731701E+02  0.19144569736E+02  0.86119330023E+02  0.00000000000E+00 0.  1.
         21    1    1    2  503  501  0.15365445934E+02 -0.16707056942E+02  0.62412201508E+01  0.23540932636E+02  0.00000000000E+00 0. -1.
          1    1    1    2  501    0  0.11356376294E+02 -0.19409712497E+03 -0.92667701665E+02  0.21538329586E+03  0.00000000000E+00 0. -1.
<scales pt_clust_5="13000.00000" pt_clust_6="13000.00000" pt_clust_7="13000.00000" pt_clust_8="13000.00000" pt_clust_9="22.69852" pt_clust_10="204.23697"></scales>
<clustering>
<clus scale="   22.699">  2  9  1 -1</clus>
<clus scale="   91.042">  7  8 -1 -1</clus>
<clus scale="  107.968">  5  6 -1 -1</clus>
<clus scale="  109.473">  1  7  2 -1</clus>
<clus scale="  204.237">  2 10  1 -1</clus>
<clus scale="   22.699">  2  5  1 -1</clus>
</clustering>
</event>
<event>
10    2  0.2421970E-006  0.1691284E+03  0.7546771E-02  0.1203444E+00
          1   -1    0    0  502    0 -0.00000000000E+00  0.00000000000E+00  0.67864752905E+03  0.67864752905E+03  0.00000000000E+00 0. -1.
         21   -1    0    0  503  502  0.00000000000E+00 -0.00000000000E+00 -0.12408930280E+03  0.12408930280E+03  0.00000000000E+00 0. -1.
         23    2    1    2    0    0  0.28650066133E+02 -0.31786055074E+02  0.17531996262E+03  0.20091208931E+03  0.88302880762E+02 0.  0.
         23    2    1    2    0    0  0.10617114904E+02  0.16540999925E+03  0.40943169076E+03  0.45113192767E+03  0.91719767683E+02 0.  0.
        -11    1    4    4    0    0  0.18665364375E+02  0.86750165667E+02  0.10943615032E+03  0.14089094388E+03  0.00000000000E+00 0. -1.
         11    1    4    4    0    0 -0.80482494706E+01  0.78659833583E+02  0.29999554045E+03  0.31024098379E+03  0.00000000000E+00 0.  1.
        -11    1    3    3    0    0  0.37976964096E+02 -0.58204059263E+02  0.13463276928E+03  0.15151219383E+03  0.00000000000E+00 0. -1.
         11    1    3    3    0    0 -0.93268979627E+01  0.26418004190E+02  0.40687193344E+02  0.49399895477E+02  0.00000000000E+00 0.  1.
         21    1    1    2  503  501 -0.18118328072E+02 -0.72034779537E+02 -0.40752196976E+02  0.84723224877E+02  0.00000000000E+00 0. -1.
          1    1    1    2  501    0 -0.21148852965E+02 -0.61589164639E+02  0.10558769850E+02  0.65969589989E+02  0.00000000000E+00 0. -1.
<scales pt_clust_5="13000.00000" pt_clust_6="13000.00000" pt_clust_7="13000.00000" pt_clust_8="13000.00000" pt_clust_9="45.86435" pt_clust_10="150.30409"></scales>
<clustering>
<clus scale="   45.864">  9 10 -1 -1</clus>
<clus scale="   88.303">  7  8 -1 -1</clus>
<clus scale="   91.720">  5  6 -1 -1</clus>
<clus scale="   98.125">  1  7  2 -1</clus>
<clus scale="  150.304">  2  9  1 -1</clus>
<clus scale="  150.304">  2  5  1 -1</clus>
</clustering>
</event>
<event>
10    2  0.2421970E-006  0.1519687E+03  0.7546771E-02  0.1199933E+00
          2   -1    0    0  502    0 -0.00000000000E+00  0.00000000000E+00  0.40621404995E+03  0.40621404995E+03  0.00000000000E+00 0. -1.
         21   -1    0    0  503  502  0.00000000000E+00 -0.00000000000E+00 -0.10275312698E+03  0.10275312698E+03  0.00000000000E+00 0. -1.
         23    2    1    2    0    0 -0.15200235012E+03  0.39126762022E+01  0.17933264864E+03  0.25286998975E+03  0.93075288704E+02 0.  0.
         23    2    1    2    0    0  0.75785095974E+02  0.31470738418E+02  0.18584015699E+02  0.11810239112E+03  0.82879557199E+02 0.  0.
        -13    1    3    3    0    0 -0.13701881220E+03  0.33284219900E+02  0.12072896920E+03  0.18562725607E+03  0.00000000000E+00 0. -1.
         13    1    3    3    0    0 -0.14983537916E+02 -0.29371543697E+02  0.58603679449E+02  0.67242733679E+02  0.00000000000E+00 0.  1.
        -13    1    4    4    0    0  0.47411243909E+02  0.23684803129E+02 -0.30298927801E+02  0.61047694258E+02  0.00000000000E+00 0. -1.
         13    1    4    4    0    0  0.28373852065E+02  0.77859352888E+01  0.48882943500E+02  0.57054696867E+02  0.00000000000E+00 0.  1.
         21    1    1    2  503  501  0.29609448121E+02 -0.31043684524E+01  0.21949569638E+02  0.36988378294E+02  0.00000000000E+00 0.  1.
          2    1    1    2  501    0  0.46607806024E+02 -0.32279046167E+02  0.83594688981E+02  0.10100641777E+03  0.00000000000E+00 0. -1.
<scales pt_clust_5="13000.00000" pt_clust_6="13000.00000" pt_clust_7="13000.00000" pt_clust_8="13000.00000" pt_clust_9="21.02654" pt_clust_10="88.89871"></scales>
<clustering>
<clus scale="   21.027">  9 10 -1 -1</clus>
<clus scale="   82.880">  7  8 -1 -1</clus>
<clus scale="   88.899">  2  9  1 -1</clus>
<clus scale="   93.075">  5  6 -1 -1</clus>
<clus scale="  145.947">  2  7  1 -1</clus>
<clus scale="   88.899">  2  5  1 -1</clus>
</clustering>
</event>
<event>
10    2  0.2421970E-006  0.9520273E+02  0.7546771E-02  0.1291915E+00
         21   -1    0    0  501  502  0.00000000000E+00  0.00000000000E+00  0.93926212954E+02  0.93926212954E+02  0.00000000000E+00 0. -1.
          2   -1    0    0  503    0 -0.00000000000E+00 -0.00000000000E+00 -0.61839834881E+03  0.61839834881E+03  0.00000000000E+00 0. -1.
         23    2    1    2    0    0  0.21989803020E+02  0.32685436775E+01 -0.43905287306E+03  0.44888873065E+03  0.90771318980E+02 0.  0.
         23    2    1    2    0    0 -0.50962540492E+02  0.33861845563E+02 -0.14635983302E+03  0.18168234824E+03  0.88563366149E+02 0.  0.
        -11    1    3    3    0    0  0.25782662461E+02 -0.41232603658E+02 -0.21564689061E+03  0.22106210602E+03  0.00000000000E+00 0.  1.
         11    1    3    3    0    0 -0.37928594408E+01  0.44501147336E+02 -0.22340598245E+03  0.22782662463E+03  0.00000000000E+00 0. -1.
        -13    1    4    4    0    0 -0.36447534734E+02 -0.22556034622E+01 -0.13681446550E+03  0.14160405540E+03  0.00000000000E+00 0. -1.
         13    1    4    4    0    0 -0.14515005759E+02  0.36117449025E+02 -0.95453675182E+01  0.40078292845E+02  0.00000000000E+00 0.  1.
         21    1    1    2  503  502  0.78324816737E+01 -0.31110680625E+02  0.41135072518E+02  0.52166238212E+02  0.00000000000E+00 0. -1.
          2    1    1    2  501    0  0.21140255799E+02 -0.60197086160E+01  0.19805497705E+02  0.29587244657E+02  0.00000000000E+00 0. -1.
<scales pt_clust_5="13000.00000" pt_clust_6="13000.00000" pt_clust_7="13000.00000" pt_clust_8="13000.00000" pt_clust_9="41.52296" pt_clust_10="21.98061"></scales>
<clustering>
<clus scale="   21.981">  1 10  2 -1</clus>
<clus scale="   41.523">  1  9  2 -1</clus>
<clus scale="   88.563">  7  8 -1 -1</clus>
<clus scale="   90.771">  5  6 -1 -1</clus>
<clus scale="   93.100">  1  7  2 -1</clus>
<clus scale="   21.981">  1  5  2 -1</clus>
</clustering>
</event>
<event>
10    2  0.2421970E-006  0.1033612E+03  0.7546771E-02  0.1273407E+00
         -1   -1    0    0    0  501 -0.00000000000E+00  0.00000000000E+00  0.53075008541E+03  0.53075008541E+03  0.00000000000E+00 0.  1.
         21   -1    0    0  503  502  0.00000000000E+00 -0.00000000000E+00 -0.95138426093E+02  0.95138426093E+02  0.00000000000E+00 0.  1.
         23    2    1    2    0    0 -0.12432860136E+02 -0.66007491597E+02  0.33327575147E+03  0.35211835710E+03  0.91668129320E+02 0.  0.
         23    2    1    2    0    0  0.54692575036E+02 -0.23764450504E+02  0.97777226608E+02  0.14672999468E+03  0.91723925039E+02 0.  0.
        -11    1    4    4    0    0  0.31819681041E+01 -0.49943520487E+02  0.33096089223E+02  0.59998593996E+02  0.00000000000E+00 0. -1.
         11    1    4    4    0    0  0.51510606932E+02  0.26179069983E+02  0.64681137385E+02  0.86731400687E+02  0.00000000000E+00 0.  1.
        -11    1    3    3    0    0 -0.32383428576E+02 -0.16469039197E+02  0.40067591658E+02  0.54086297708E+02  0.00000000000E+00 0. -1.
         11    1    3    3    0    0  0.19950568441E+02 -0.49538452400E+02  0.29320815981E+03  0.29803205940E+03  0.00000000000E+00 0.  1.
         21    1    1    2  503  501 -0.55294849073E+02  0.25509553436E+02  0.77773810068E+01  0.61390107557E+02  0.00000000000E+00 0. -1.
         -1    1    1    2    0  502  0.13035134173E+02  0.64262388665E+02 -0.32186997722E+01  0.65650052156E+02  0.00000000000E+00 0.  1.
<scales pt_clust_5="13000.00000" pt_clust_6="13000.00000" pt_clust_7="13000.00000" pt_clust_8="13000.00000" pt_clust_9="60.89546" pt_clust_10="78.53023"></scales>
<clustering>
<clus scale="   60.895">  2  9  1 -1</clus>
<clus scale="   78.530">  2 10  1 -1</clus>
<clus scale="   91.668">  7  8 -1 -1</clus>
<clus scale="   91.724">  5  6 -1 -1</clus>
<clus scale="  103.312">  1  7  2 -1</clus>
<clus scale="   60.895">  2  5  1 -1</clus>
</clustering>
</event>
<event>
10    2  0.2421970E-006  0.4787090E+03  0.7546771E-02  0.1072741E+00
          1   -1    0    0  503    0 -0.00000000000E+00  0.00000000000E+00  0.50037934341E+03  0.50037934341E+03  0.00000000000E+00 0. -1.
         21   -1    0    0  501  502  0.00000000000E+00 -0.00000000000E+00 -0.86459228656E+03  0.86459228656E+03  0.00000000000E+00 0. -1.
         23    2    1    2    0    0  0.17586802242E+02 -0.43718368799E+02  0.35919504626E+02  0.10907714428E+03  0.91580681418E+02 0.  0.
         23    2    1    2    0    0 -0.39039163788E+03 -0.20515875422E+03 -0.10711837505E+03  0.46240843057E+03  0.88608492973E+02 0.  0.
        -13    1    4    4    0    0 -0.44105264198E+01 -0.21934251984E+02 -0.83386503019E+01  0.23876709201E+02  0.00000000000E+00 0.  1.
         13    1    4    4    0    0 -0.38598111146E+03 -0.18322450224E+03 -0.98779724752E+02  0.43853172137E+03  0.00000000000E+00 0. -1.
        -13    1    3    3    0    0 -0.20347308499E+02  0.21212721816E+01 -0.19136457874E+02  0.28012796697E+02  0.00000000000E+00 0.  1.
         13    1    3    3    0    0  0.37934110740E+02 -0.45839640981E+02  0.55055962500E+02  0.81064347587E+02  0.00000000000E+00 0. -1.
         21    1    1    2  503  502  0.42957459125E+03  0.29493026042E+03 -0.40485938224E+03  0.65987067472E+03  0.00000000000E+00 0. -1.
          1    1    1    2  501    0 -0.56769755613E+02 -0.46053137398E+02  0.11184530952E+03  0.13361538040E+03  0.00000000000E+00 0. -1.
<scales pt_clust_5="13000.00000" pt_clust_6="13000.00000" pt_clust_7="13000.00000" pt_clust_8="13000.00000" pt_clust_9="470.43689" pt_clust_10="73.10063"></scales>
<clustering>
<clus scale="   73.101">  2 10  1 -1</clus>
<clus scale="   88.608">  5  6 -1 -1</clus>
<clus scale="   91.581">  7  8 -1 -1</clus>
<clus scale="  103.462">  1  7  2 -1</clus>
<clus scale="  470.437">  2  9  1 -1</clus>
<clus scale="   73.101">  2  5  1 -1</clus>
</clustering>
</event>
<event>
10    2  0.2421970E-006  0.2367621E+03  0.7546771E-02  0.1162060E+00
         21   -1    0    0  503  502  0.00000000000E+00  0.00000000000E+00  0.19125789914E+03  0.19125789914E+03  0.00000000000E+00 0. -1.
          2   -1    0    0  502    0 -0.00000000000E+00 -0.00000000000E+00 -0.60875894180E+03  0.60875894180E+03  0.00000000000E+00 0. -1.
         23    2    1    2    0    0  0.10515458083E+02  0.52339310139E+01 -0.31752988223E+03  0.33012165695E+03  0.89538334718E+02 0.  0.
         23    2    1    2    0    0  0.18018309951E+03  0.11145179053E+03 -0.77618877863E+02  0.24340354495E+03  0.91286058805E+02 0.  0.
        -11    1    4    4    0    0  0.33360087706E+01  0.26895562843E+02  0.97368624129E+01  0.28797686449E+02  0.00000000000E+00 0.  1.
         11    1    4    4    0    0  0.17684709074E+03  0.84556227685E+02 -0.87355740276E+02  0.21460585850E+03  0.00000000000E+00 0. -1.
        -11    1    3    3    0    0 -0.18987962330E+02 -0.33383156347E+02 -0.97554735910E+02  0.10484228317E+03  0.00000000000E+00 0. -1.
         11    1    3    3    0    0  0.29503420414E+02  0.38617087361E+02 -0.21997514632E+03  0.22527937378E+03  0.00000000000E+00 0.  1.
         21    1    1    2  503  501 -0.11768329245E+03 -0.70218209921E+02  0.25522449561E+00  0.13704021112E+03  0.00000000000E+00 0.  1.
          2    1    1    2  501    0 -0.73015265148E+02 -0.46467511622E+02 -0.22607507054E+02  0.89451427916E+02  0.00000000000E+00 0. -1.
<scales pt_clust_5="13000.00000" pt_clust_6="13000.00000" pt_clust_7="13000.00000" pt_clust_8="13000.00000" pt_clust_9="22.71983" pt_clust_10="220.31904"></scales>
<clustering>
<clus scale="   22.720">  9 10 -1 -1</clus>
<clus scale="   89.538">  7  8 -1 -1</clus>
<clus scale="   90.305">  2  7  1 -1</clus>
<clus scale="   91.286">  5  6 -1 -1</clus>
<clus scale="  220.319">  1  9  2 -1</clus>
<clus scale="  220.319">  1  5  2 -1</clus>
</clustering>
</event>
<event>
10    2  0.2421970E-006  0.2051970E+03  0.7546771E-02  0.1163754E+00
          1   -1    0    0  503    0 -0.00000000000E+00  0.00000000000E+00  0.12596794032E+04  0.12596794032E+04  0.00000000000E+00 0. -1.
         21   -1    0    0  501  502  0.00000000000E+00 -0.00000000000E+00 -0.14688978495E+03  0.14688978495E+03  0.00000000000E+00 0.  1.
         23    2    1    2    0    0 -0.15676630269E+03 -0.78401150289E+02  0.51774694016E+03  0.55414367641E+03  0.91054412451E+02 0.  0.
         23    2    1    2    0    0 -0.66254733588E+01  0.16254742473E+03  0.19094685098E+02  0.18727563061E+03  0.90785420844E+02 0.  0.
        -11    1    3    3    0    0 -0.42676674505E+02 -0.59423430640E+02  0.12620677965E+03  0.14587869579E+03  0.00000000000E+00 0.  1.
         11    1    3    3    0    0 -0.11408962819E+03 -0.18977719650E+02  0.39154016052E+03  0.40826498062E+03  0.00000000000E+00 0. -1.
        -11    1    4    4    0    0  0.20100584019E+02  0.57707525656E+02  0.45163619672E+02  0.75986476015E+02  0.00000000000E+00 0. -1.
         11    1    4    4    0    0 -0.26726057378E+02  0.10483989907E+03 -0.26068934574E+02  0.11128915460E+03  0.00000000000E+00 0.  1.
         21    1    1    2  503  502  0.19382913251E+03  0.45715819355E+02  0.35615557381E+03  0.40805203284E+03  0.00000000000E+00 0.  1.
          1    1    1    2  501    0 -0.30437356465E+02 -0.12986209380E+03  0.21979241920E+03  0.25709784832E+03  0.00000000000E+00 0. -1.
<scales pt_clust_5="13000.00000" pt_clust_6="13000.00000" pt_clust_7="13000.00000" pt_clust_8="13000.00000" pt_clust_9="183.88828" pt_clust_10="133.38146"></scales>
<clustering>
<clus scale="   90.785">  7  8 -1 -1</clus>
<clus scale="   91.054">  5  6 -1 -1</clus>
<clus scale="  133.381">  2 10  1 -1</clus>
<clus scale="  133.381">  2  7  1 -1</clus>
<clus scale="  183.888">  2  9  1 -1</clus>
<clus scale="  133.381">  2  5  1 -1</clus>
</clustering>
</event>
<event>
10    2  0.2421970E-006  0.1202807E+03  0.7546771E-02  0.1244518E+00
         21   -1    0    0  503  502  0.00000000000E+00  0.00000000000E+00  0.14677499555E+03  0.14677499555E+03  0.00000000000E+00 0. -1.
         -1   -1    0    0    0  501 -0.00000000000E+00 -0.00000000000E+00 -0.24169160295E+03  0.24169160295E+03  0.00000000000E+00 0.  1.
         23    2    1    2    0    0  0.11439228148E+02  0.63933320830E+02 -0.50793298039E+02  0.11969374194E+03  0.86765818623E+02 0.  0.
         23    2    1    2    0    0 -0.62906373459E+02 -0.74857751911E+02 -0.38020268616E+02  0.13997845771E+03  0.92668942770E+02 0.  0.
        -11    1    4    4    0    0 -0.83572731823E+02 -0.44773247437E+02 -0.12931824764E+02  0.95688438603E+02  0.00000000000E+00 0. -1.
         11    1    4    4    0    0  0.20666358365E+02 -0.30084504474E+02 -0.25088443853E+02  0.44290019106E+02  0.00000000000E+00 0.  1.
        -11    1    3    3    0    0 -0.10744549403E+02  0.56569814899E+02 -0.69141450795E+02  0.89978494751E+02  0.00000000000E+00 0.  1.
         11    1    3    3    0    0  0.22183777551E+02  0.73635059307E+01  0.18348152756E+02  0.29715247190E+02  0.00000000000E+00 0. -1.
         21    1    1    2  503  501  0.40958079560E+02 -0.15527342855E+02 -0.56153278570E+02  0.71216945677E+02  0.00000000000E+00 0.  1.
         -1    1    1    2    0  502  0.10509065751E+02  0.26451773935E+02  0.50050237823E+02  0.57577453169E+02  0.00000000000E+00 0.  1.
<scales pt_clust_5="13000.00000" pt_clust_6="13000.00000" pt_clust_7="13000.00000" pt_clust_8="13000.00000" pt_clust_9="43.89959" pt_clust_10="28.46290"></scales>
<clustering>
<clus scale="   28.463">  1 10  2 -1</clus>
<clus scale="   43.900">  2  9  1 -1</clus>
<clus scale="   86.766">  7  8 -1 -1</clus>
<clus scale="   92.669">  5  6 -1 -1</clus>
<clus scale="  115.794">  2  7  1 -1</clus>
<clus scale="   28.463">  1  5  2 -1</clus>
</clustering>
</event>
<event>
10    2  0.2421970E-006  0.1402942E+03  0.7546771E-02  0.1232134E+00
         21   -1    0    0  501  502  0.00000000000E+00  0.00000000000E+00  0.29113824067E+03  0.29113824067E+03  0.00000000000E+00 0. -1.
          1   -1    0    0  503    0 -0.00000000000E+00 -0.00000000000E+00 -0.48185102251E+03  0.48185102251E+03  0.00000000000E+00 0. -1.
         23    2    1    2    0    0 -0.22960630064E+02 -0.58524656381E+01 -0.24983370044E+03  0.26691543132E+03  0.90914947715E+02 0.  0.
         23    2    1    2    0    0  0.11554788259E+03 -0.18984485912E+02 -0.14620039090E+03  0.20793917863E+03  0.90290773806E+02 0.  0.
        -11    1    4    4    0    0  0.31938000385E+02  0.35591305687E+02 -0.42361141813E+02  0.63884608825E+02  0.00000000000E+00 0.  1.
         11    1    4    4    0    0  0.83609882209E+02 -0.54575791600E+02 -0.10383924908E+03  0.14405456981E+03  0.00000000000E+00 0. -1.
        -11    1    3    3    0    0 -0.34640415496E+02  0.36142199034E+02 -0.14414855825E+03  0.15259431110E+03  0.00000000000E+00 0.  1.
         11    1    3    3    0    0  0.11679785433E+02 -0.41994664672E+02 -0.10568514219E+03  0.11432112022E+03  0.00000000000E+00 0. -1.
         21    1    1    2  503  502 -0.11173248710E+03  0.73415105731E+02  0.65488831464E+02  0.14887146627E+03  0.00000000000E+00 0. -1.
          1    1    1    2  501    0  0.19145234567E+02 -0.48578154181E+02  0.13983247802E+03  0.14926318696E+03  0.00000000000E+00 0. -1.
<scales pt_clust_5="13000.00000" pt_clust_6="13000.00000" pt_clust_7="13000.00000" pt_clust_8="13000.00000" pt_clust_9="107.37807" pt_clust_10="52.21472"></scales>
<clustering>
<clus scale="   52.215">  1 10  2 -1</clus>
<clus scale="   90.291">  5  6 -1 -1</clus>
<clus scale="   90.915">  7  8 -1 -1</clus>
<clus scale="   93.905">  2  7  1 -1</clus>
<clus scale="  107.378">  1  9  2 -1</clus>
<clus scale="   52.215">  1  5  2 -1</clus>
</clustering>
</event>
<event>
10    2  0.2421970E-006  0.9467791E+02  0.7546771E-02  0.1292373E+00
          1   -1    0    0  503    0 -0.00000000000E+00  0.00000000000E+00  0.27928970553E+03  0.27928970553E+03  0.00000000000E+00 0. -1.
         21   -1    0    0  501  502  0.00000000000E+00 -0.00000000000E+00 -0.25713623893E+03  0.25713623893E+03  0.00000000000E+00 0. -1.
         23    2    1    2    0    0 -0.13398366534E+02  0.53126250569E+01  0.10771914756E+03  0.14197161948E+03  0.91349798995E+02 0.  0.
         23    2    1    2    0    0 -0.10901500567E+02 -0.44363739159E+02  0.13309869882E+03  0.16730545008E+03  0.90492352894E+02 0.  0.
        -11    1    3    3    0    0  0.20631093711E+02  0.14787340713E+02 -0.31809330726E+01  0.25581747561E+02  0.00000000000E+00 0. -1.
         11    1    3    3    0    0 -0.34029460246E+02 -0.94747156557E+01  0.11090008063E+03  0.11638987192E+03  0.00000000000E+00 0.  1.
        -11    1    4    4    0    0  0.21388833454E+02  0.16666830596E+02  0.16338893923E+02  0.31657935708E+02  0.00000000000E+00 0.  1.
         11    1    4    4    0    0 -0.32290334021E+02 -0.61030569756E+02  0.11675980490E+03  0.13564751438E+03  0.00000000000E+00 0. -1.
         21    1    1    2  503  502  0.27708426369E+02  0.11518098057E+02 -0.74076651192E+02  0.79923549262E+02  0.00000000000E+00 0.  1.
          1    1    1    2  501    0 -0.34085592684E+01  0.27533016046E+02 -0.14458772859E+03  0.14722532563E+03  0.00000000000E+00 0. -1.
<scales pt_clust_5="13000.00000" pt_clust_6="13000.00000" pt_clust_7="13000.00000" pt_clust_8="13000.00000" pt_clust_9="39.71884" pt_clust_10="27.74320"></scales>
<clustering>
<clus scale="   27.743">  2 10  1 -1</clus>
<clus scale="   39.719">  2  9  1 -1</clus>
<clus scale="   90.492">  7  8 -1 -1</clus>
<clus scale="   91.350">  5  6 -1 -1</clus>
<clus scale="   93.851">  2  7  1 -1</clus>
<clus scale="   27.743">  2  5  1 -1</clus>
</clustering>
</event>
<event>
10    2  0.2421970E-006  0.1706751E+03  0.7546771E-02  0.1177466E+00
         21   -1    0    0  503  502  0.00000000000E+00  0.00000000000E+00  0.42344949361E+03  0.42344949361E+03  0.00000000000E+00 0.  1.
          2   -1    0    0  502    0 -0.00000000000E+00 -0.00000000000E+00 -0.15806752926E+03  0.15806752926E+03  0.00000000000E+00 0. -1.
         23    2    1    2    0    0  0.60339137120E+02 -0.16058688118E+03  0.21228086543E+02  0.19531191778E+03  0.90923900553E+02 0.  0.
         23    2    1    2    0    0  0.43491761133E+02  0.10132308116E+03  0.21201241432E+03  0.25486437907E+03  0.88592820412E+02 0.  0.
        -11    1    3    3    0    0  0.47840068684E+02 -0.20731028382E+02  0.16981419595E+02  0.54834444658E+02  0.00000000000E+00 0. -1.
         11    1    3    3    0    0  0.12499068436E+02 -0.13985585280E+03  0.42466669476E+01  0.14047747312E+03  0.00000000000E+00 0.  1.
        -13    1    4    4    0    0  0.91965754823E+01  0.71432246642E+02  0.19218745539E+03  0.20523927711E+03  0.00000000000E+00 0.  1.
         13    1    4    4    0    0  0.34295185650E+02  0.29890834521E+02  0.19824958927E+02  0.49625101951E+02  0.00000000000E+00 0. -1.
         21    1    1    2  503  501 -0.44721733794E+02  0.37327023960E+02 -0.44864359801E+01  0.58424894514E+02  0.00000000000E+00 0. -1.
          2    1    1    2  501    0 -0.59109164459E+02  0.21936776057E+02  0.36627899470E+02  0.72915831521E+02  0.00000000000E+00 0. -1.
<scales pt_clust_5="13000.00000" pt_clust_6="13000.00000" pt_clust_7="13000.00000" pt_clust_8="13000.00000" pt_clust_9="42.16491" pt_clust_10="127.34728"></scales>
<clustering>
<clus scale="   42.165">  9 10 -1 -1</clus>
<clus scale="   88.593">  7  8 -1 -1</clus>
<clus scale="   90.924">  5  6 -1 -1</clus>
<clus scale="  127.347">  1  9  2 -1</clus>
<clus scale="  169.445">  1  7  2 -1</clus>
<clus scale="  127.347">  1  5  2 -1</clus>
</clustering>
</event>
<event>
10    2  0.2421970E-006  0.1006331E+03  0.7546771E-02  0.1282341E+00
          2   -1    0    0  503    0 -0.00000000000E+00  0.00000000000E+00  0.22485522313E+03  0.22485522313E+03  0.00000000000E+00 0. -1.
         21   -1    0    0  501  502  0.00000000000E+00 -0.00000000000E+00 -0.24644491954E+03  0.24644491954E+03  0.00000000000E+00 0.  1.
         23    2    1    2    0    0 -0.57283096468E+01  0.16774515097E+02  0.17652099706E+03  0.20305063000E+03  0.98770937291E+02 0.  0.
         23    2    1    2    0    0  0.29669589837E+02 -0.17996262320E+02 -0.48309052135E+02  0.10988826996E+03  0.92398686882E+02 0.  0.
        -13    1    4    4    0    0  0.61547450338E+02 -0.54620944774E+00 -0.23487534053E+02  0.65879065292E+02  0.00000000000E+00 0.  1.
         13    1    4    4    0    0 -0.31877860501E+02 -0.17450052872E+02 -0.24821518082E+02  0.44009204665E+02  0.00000000000E+00 0. -1.
        -13    1    3    3    0    0  0.37192504859E+02  0.52174236734E+01  0.24931407327E+02  0.45078586921E+02  0.00000000000E+00 0.  1.
         13    1    3    3    0    0 -0.42920814506E+02  0.11557091423E+02  0.15158958973E+03  0.15797204308E+03  0.00000000000E+00 0. -1.
         21    1    1    2  503  502 -0.13663932377E+02 -0.19542954447E+02 -0.43936426759E+02  0.49990396206E+02  0.00000000000E+00 0. -1.
          2    1    1    2  501    0 -0.10277347813E+02  0.20764701670E+02 -0.10586521458E+03  0.10837084650E+03  0.00000000000E+00 0. -1.
<scales pt_clust_5="13000.00000" pt_clust_6="13000.00000" pt_clust_7="13000.00000" pt_clust_8="13000.00000" pt_clust_9="21.23014" pt_clust_10="23.16887"></scales>
<clustering>
<clus scale="   23.169">  2 10  1 -1</clus>
<clus scale="   21.230">  2  9  1 -1</clus>
<clus scale="   92.399">  5  6 -1 -1</clus>
<clus scale="   94.387">  2  5  1 -1</clus>
<clus scale="   98.771">  7  8 -1 -1</clus>
<clus scale="   23.169">  2  5  1 -1</clus>
</clustering>
</event>
<event>
10    2  0.2421970E-006  0.3880931E+03  0.7546771E-02  0.1093121E+00
          1   -1    0    0  503    0 -0.00000000000E+00  0.00000000000E+00  0.53759781505E+03  0.53759781505E+03  0.00000000000E+00 0. -1.
         21   -1    0    0  501  502  0.00000000000E+00 -0.00000000000E+00 -0.13951992394E+04  0.13951992394E+04  0.00000000000E+00 0. -1.
         23    2    1    2    0    0  0.44769110926E+02 -0.11459440953E+02  0.58208524361E+01  0.11356620734E+03  0.10357513720E+03 0.  0.
         23    2    1    2    0    0  0.34017455785E+03  0.25488003657E+02  0.36661458671E+03  0.50938438007E+03  0.93262121636E+02 0.  0.
        -13    1    3    3    0    0  0.48623991628E+02  0.37675681159E+02 -0.88438053800E+01  0.62144689284E+02  0.00000000000E+00 0. -1.
         13    1    3    3    0    0 -0.38548807027E+01 -0.49135122111E+02  0.14664657816E+02  0.51421518054E+02  0.00000000000E+00 0.  1.
        -13    1    4    4    0    0  0.23462579263E+03 -0.26108559775E+02  0.23941049906E+03  0.33622657022E+03  0.00000000000E+00 0. -1.
         13    1    4    4    0    0  0.10554876521E+03  0.51596563433E+02  0.12720408765E+03  0.17315780985E+03  0.00000000000E+00 0.  1.
         21    1    1    2  503  502 -0.49576999152E+02  0.42048437202E+02 -0.50612362326E+02  0.82386656300E+02  0.00000000000E+00 0.  1.
          1    1    1    2  501    0 -0.33536666962E+03 -0.56076999907E+02 -0.11794245011E+04  0.12274598107E+04  0.00000000000E+00 0. -1.
<scales pt_clust_5="13000.00000" pt_clust_6="13000.00000" pt_clust_7="13000.00000" pt_clust_8="13000.00000" pt_clust_9="65.00731" pt_clust_10="376.72058"></scales>
<clustering>
<clus scale="   65.007">  2  9  1 -1</clus>
<clus scale="   93.262">  7  8 -1 -1</clus>
<clus scale="  103.575">  5  6 -1 -1</clus>
<clus scale="  112.478">  1  5  2 -1</clus>
<clus scale="  376.721">  2 10  1 -1</clus>
<clus scale="   65.007">  2  5  1 -1</clus>
</clustering>
</event>
<event>
10    2  0.2421970E-006  0.1506527E+03  0.7546771E-02  0.1219359E+00
          2   -1    0    0  502    0 -0.00000000000E+00  0.00000000000E+00  0.66045138782E+03  0.66045138782E+03  0.00000000000E+00 0. -1.
         21   -1    0    0  503  502  0.00000000000E+00 -0.00000000000E+00 -0.11567768878E+03  0.11567768878E+03  0.00000000000E+00 0. -1.
         23    2    1    2    0    0  0.12572590751E+01  0.43908559713E+02  0.32229239092E+03  0.33712926648E+03  0.88624007788E+02 0.  0.
         23    2    1    2    0    0 -0.73988539020E+02  0.86995088407E+02 -0.19043945951E+02  0.14679064900E+03  0.90235100947E+02 0.  0.
        -11    1    3    3    0    0  0.13922225260E+02 -0.21541922704E+02  0.43694870445E+02  0.50666798726E+02  0.00000000000E+00 0.  1.
         11    1    3    3    0    0 -0.12664966185E+02  0.65450482417E+02  0.27859752047E+03  0.28646246775E+03  0.00000000000E+00 0. -1.
        -11    1    4    4    0    0 -0.87056873886E+01  0.38636956254E+02 -0.46456835828E+02  0.61047858084E+02  0.00000000000E+00 0.  1.
         11    1    4    4    0    0 -0.65282851632E+02  0.48358132153E+02  0.27412889877E+02  0.85742790915E+02  0.00000000000E+00 0. -1.
         21    1    1    2  503  501  0.55389567269E+01 -0.70914615495E+02  0.78339350215E+02  0.10581406582E+03  0.00000000000E+00 0.  1.
          2    1    1    2  501    0  0.67192323218E+02 -0.59989032625E+02  0.16318590386E+03  0.18639509530E+03  0.00000000000E+00 0. -1.
<scales pt_clust_5="13000.00000" pt_clust_6="13000.00000" pt_clust_7="13000.00000" pt_clust_8="13000.00000" pt_clust_9="60.44157" pt_clust_10="138.49199"></scales>
<clustering>
<clus scale="   60.442">  9 10 -1 -1</clus>
<clus scale="   88.624">  5  6 -1 -1</clus>
<clus scale="   90.235">  7  8 -1 -1</clus>
<clus scale="   98.913">  1  5  2 -1</clus>
<clus scale="  138.492">  2  9  1 -1</clus>
<clus scale="  138.492">  2  5  1 -1</clus>
</clustering>
</event>
<event>
10    2  0.2421970E-006  0.1017394E+03  0.7546771E-02  0.1278140E+00
         21   -1    0    0  501  502  0.00000000000E+00  0.00000000000E+00  0.15242334442E+03  0.15242334442E+03  0.00000000000E+00 0.  1.
          1   -1    0    0  503    0 -0.00000000000E+00 -0.00000000000E+00 -0.39579863195E+03  0.39579863195E+03  0.00000000000E+00 0. -1.
         23    2    1    2    0    0 -0.43953628355E+02  0.13015610402E+02 -0.20736951087E+03  0.23215236116E+03  0.93761810955E+02 0.  0.
         23    2    1    2    0    0  0.19412626721E+01 -0.52150451767E+02 -0.14329333076E+03  0.17744320048E+03  0.90717543159E+02 0.  0.
        -13    1    4    4    0    0  0.35539839530E+02 -0.53443836436E+02 -0.60998733976E+02  0.88544731032E+02  0.00000000000E+00 0. -1.
         13    1    4    4    0    0 -0.33598576858E+02  0.12933846693E+01 -0.82294596785E+02  0.88898469451E+02  0.00000000000E+00 0.  1.
        -13    1    3    3    0    0 -0.12544678166E+02  0.46698211844E+02 -0.56278373764E+02  0.74198027556E+02  0.00000000000E+00 0.  1.
         13    1    3    3    0    0 -0.31408950189E+02 -0.33682601442E+02 -0.15109113711E+03  0.15795433360E+03  0.00000000000E+00 0. -1.
         21    1    1    2  503  502  0.52496046827E+02  0.10867988252E+02  0.47316820711E+02  0.71504053195E+02  0.00000000000E+00 0.  1.
          1    1    1    2  501    0 -0.10483681144E+02  0.28266853113E+02  0.59970733386E+02  0.67122361535E+02  0.00000000000E+00 0. -1.
<scales pt_clust_5="13000.00000" pt_clust_6="13000.00000" pt_clust_7="13000.00000" pt_clust_8="13000.00000" pt_clust_9="54.36009" pt_clust_10="30.14834"></scales>
<clustering>
<clus scale="   30.148">  1 10  2 -1</clus>
<clus scale="   54.360">  1  9  2 -1</clus>
<clus scale="   90.718">  5  6 -1 -1</clus>
<clus scale="   93.762">  7  8 -1 -1</clus>
<clus scale="   98.941">  1  5  2 -1</clus>
<clus scale="   30.148">  1  5  2 -1</clus>
</clustering>
</event>
<event>
10    2  0.2421970E-006  0.4194742E+03  0.7546771E-02  0.1076219E+00
          2   -1    0    0  502    0 -0.00000000000E+00  0.00000000000E+00  0.18977349073E+04  0.18977349073E+04  0.00000000000E+00 0. -1.
         21   -1    0    0  503  502  0.00000000000E+00 -0.00000000000E+00 -0.14263832596E+03  0.14263832596E+03  0.00000000000E+00 0.  1.
         23    2    1    2    0    0  0.75402650292E+01  0.97069314315E+02  0.96477351763E+02  0.16992665955E+03  0.10043845302E+03 0.  0.
         23    2    1    2    0    0  0.37893648900E+03 -0.18417753283E+03  0.10464293880E+04  0.11321338623E+04  0.95908247051E+02 0.  0.
        -13    1    4    4    0    0  0.33281751135E+03 -0.18549310438E+03  0.97803791939E+03  0.10496348696E+04  0.00000000000E+00 0.  1.
         13    1    4    4    0    0  0.46118977656E+02  0.13155715522E+01  0.68391468626E+02  0.82498992778E+02  0.00000000000E+00 0. -1.
        -13    1    3    3    0    0 -0.12122148647E+02  0.10788177534E+03  0.99529858623E+02  0.14728074109E+03  0.00000000000E+00 0.  1.
         13    1    3    3    0    0  0.19662413676E+02 -0.10812461022E+02 -0.30525068599E+01  0.22645918463E+02  0.00000000000E+00 0. -1.
         21    1    1    2  503  501 -0.59793172287E+02 -0.54648991867E+01  0.37443216389E+02  0.70760744971E+02  0.00000000000E+00 0.  1.
          2    1    1    2  501    0 -0.32668358175E+03  0.92573117699E+02  0.57474662518E+03  0.66755196641E+03  0.00000000000E+00 0. -1.
<scales pt_clust_5="13000.00000" pt_clust_6="13000.00000" pt_clust_7="13000.00000" pt_clust_8="13000.00000" pt_clust_9="48.63633" pt_clust_10="48.63633"></scales>
<clustering>
<clus scale="   48.636">  9 10 -1 -1</clus>
<clus scale="   95.908">  5  6 -1 -1</clus>
<clus scale="  100.438">  7  8 -1 -1</clus>
<clus scale="  139.883">  1  7  2 -1</clus>
<clus scale="  414.463">  1  5  2 -1</clus>
<clus scale="  419.474">  2  5  1 -1</clus>
</clustering>
</event>
<event>
10    2  0.2421970E-006  0.2766931E+03  0.7546771E-02  0.1097768E+00
         21   -1    0    0  501  502  0.00000000000E+00  0.00000000000E+00  0.14711501134E+03  0.14711501134E+03  0.00000000000E+00 0. -1.
          1   -1    0    0  503    0 -0.00000000000E+00 -0.00000000000E+00 -0.15927757064E+04  0.15927757064E+04  0.00000000000E+00 0. -1.
         23    2    1    2    0    0  0.20740148742E+03  0.16378906252E+03 -0.12861171524E+04  0.13162216753E+04  0.92195091771E+02 0.  0.
         23    2    1    2    0    0 -0.24224929432E+03 -0.83455411612E+02 -0.17239332183E+03  0.32069059354E+03  0.86449251268E+02 0.  0.
        -11    1    4    4    0    0 -0.51512365047E+02 -0.25103933432E+02 -0.38628818951E+00  0.57305151994E+02  0.00000000000E+00 0.  1.
         11    1    4    4    0    0 -0.19073692928E+03 -0.58351478180E+02 -0.17200703364E+03  0.26338544155E+03  0.00000000000E+00 0. -1.
        -11    1    3    3    0    0  0.13973284887E+03  0.15951407690E+03 -0.98295682704E+03  0.10055715457E+04  0.00000000000E+00 0.  1.
         11    1    3    3    0    0  0.67668638550E+02  0.42749856202E+01 -0.30316032537E+03  0.31065012960E+03  0.00000000000E+00 0. -1.
         21    1    1    2  503  502  0.11931974752E+02 -0.73869233792E+02 -0.21140582457E+01  0.74856562603E+02  0.00000000000E+00 0. -1.
          1    1    1    2  501    0  0.22915832151E+02 -0.64644171153E+01  0.14963837472E+02  0.28121886204E+02  0.00000000000E+00 0. -1.
<scales pt_clust_5="13000.00000" pt_clust_6="13000.00000" pt_clust_7="13000.00000" pt_clust_8="13000.00000" pt_clust_9="77.98471" pt_clust_10="23.81017"></scales>
<clustering>
<clus scale="   23.810">  1 10  2 -1</clus>
<clus scale="   77.985">  1  9  2 -1</clus>
<clus scale="   86.449">  5  6 -1 -1</clus>
<clus scale="   92.195">  7  8 -1 -1</clus>
<clus scale="  274.832">  1  5  2 -1</clus>
<clus scale="   23.810">  1  5  2 -1</clus>
</clustering>
</event>
<event>
10    2  0.2421970E-006  0.1857407E+03  0.7546771E-02  0.1163507E+00
          1   -1    0    0  503    0 -0.00000000000E+00  0.00000000000E+00  0.64362477298E+03  0.64362477298E+03  0.00000000000E+00 0. -1.
         21   -1    0    0  501  502  0.00000000000E+00 -0.00000000000E+00 -0.13644033207E+03  0.13644033207E+03  0.00000000000E+00 0.  1.
         23    2    1    2    0    0 -0.42260083446E+02  0.11870014964E+03  0.37430486218E+03  0.40652046695E+03  0.96328189138E+02 0.  0.
         23    2    1    2    0    0  0.95278986676E+02 -0.18373060106E+03  0.10526738955E+03  0.24781201868E+03  0.86571093524E+02 0.  0.
        -11    1    4    4    0    0  0.85134747207E+02 -0.14074984791E+03  0.40475038276E+02  0.16940092560E+03  0.00000000000E+00 0.  1.
         11    1    4    4    0    0  0.10144239469E+02 -0.42980753147E+02  0.64792351276E+02  0.78411093089E+02  0.00000000000E+00 0. -1.
        -13    1    3    3    0    0 -0.23459744205E+02 -0.50173655973E+00  0.15898864704E+02  0.28344051168E+02  0.00000000000E+00 0.  1.
         13    1    3    3    0    0 -0.18800339241E+02  0.11920188620E+03  0.35840599748E+03  0.37817641579E+03  0.00000000000E+00 0. -1.
         21    1    1    2  503  502  0.10336759180E+02  0.34672030494E+02  0.40499639762E+02  0.54306713303E+02  0.00000000000E+00 0. -1.
          1    1    1    2  501    0 -0.63355662410E+02  0.30358420925E+02 -0.12887450583E+02  0.71425906106E+02  0.00000000000E+00 0. -1.
<scales pt_clust_5="13000.00000" pt_clust_6="13000.00000" pt_clust_7="13000.00000" pt_clust_8="13000.00000" pt_clust_9="36.18008" pt_clust_10="70.55335"></scales>
<clustering>
<clus scale="   36.180">  1  9  2 -1</clus>
<clus scale="   70.553">  2 10  1 -1</clus>
<clus scale="   86.571">  5  6 -1 -1</clus>
<clus scale="   96.328">  7  8 -1 -1</clus>
<clus scale="  180.873">  2  5  1 -1</clus>
<clus scale="   70.553">  2  5  1 -1</clus>
</clustering>
</event>
<event>
10    2  0.2421970E-006  0.1224748E+03  0.7546771E-02  0.1239206E+00
         21   -1    0    0  501  502  0.00000000000E+00  0.00000000000E+00  0.18929969540E+03  0.18929969540E+03  0.00000000000E+00 0. -1.
          2   -1    0    0  503    0 -0.00000000000E+00 -0.00000000000E+00 -0.18254568088E+03  0.18254568088E+03  0.00000000000E+00 0. -1.
         23    2    1    2    0    0 -0.69196925675E+02  0.19956725053E+02 -0.65635759019E+02  0.13365080666E+03  0.91476772248E+02 0.  0.
         23    2    1    2    0    0  0.76517914812E+02 -0.16122244547E+02  0.92380454135E+01  0.12104383391E+03  0.91931225314E+02 0.  0.
        -11    1    3    3    0    0 -0.68036410203E+02 -0.15412142167E+02 -0.68979424075E+02  0.98105291321E+02  0.00000000000E+00 0. -1.
         11    1    3    3    0    0 -0.11605154715E+01  0.35368867220E+02  0.33436650555E+01  0.35545515338E+02  0.00000000000E+00 0.  1.
        -13    1    4    4    0    0  0.12525284801E+02  0.24973366020E+02 -0.25138648495E+02  0.37583286416E+02  0.00000000000E+00 0.  1.
         13    1    4    4    0    0  0.63992630010E+02 -0.41095610567E+02  0.34376693908E+02  0.83460547491E+02  0.00000000000E+00 0. -1.
         21    1    1    2  503  502 -0.32095114464E+02  0.21244221171E+00 -0.14736560500E+02  0.35317243940E+02  0.00000000000E+00 0. -1.
          2    1    1    2  501    0  0.24774125328E+02 -0.40469227179E+01  0.77888288626E+02  0.81833491765E+02  0.00000000000E+00 0. -1.
<scales pt_clust_5="13000.00000" pt_clust_6="13000.00000" pt_clust_7="13000.00000" pt_clust_8="13000.00000" pt_clust_9="29.76612" pt_clust_10="25.10249"></scales>
<clustering>
<clus scale="   25.102">  1 10  2 -1</clus>
<clus scale="   29.766">  2  9  1 -1</clus>
<clus scale="   91.477">  5  6 -1 -1</clus>
<clus scale="   91.931">  7  8 -1 -1</clus>
<clus scale="  122.134">  2  5  1 -1</clus>
<clus scale="   25.102">  1  5  2 -1</clus>
</clustering>
</event>
<event>
10    2  0.2421970E-006  0.1844458E+03  0.7546771E-02  0.1179847E+00
         21   -1    0    0  501  502  0.00000000000E+00  0.00000000000E+00  0.38938811209E+03  0.38938811209E+03  0.00000000000E+00 0. -1.
          2   -1    0    0  503    0 -0.00000000000E+00 -0.00000000000E+00 -0.58169978735E+03  0.58169978735E+03  0.00000000000E+00 0. -1.
         23    2    1    2    0    0 -0.89686072720E+02  0.14599010574E+01 -0.20527144015E+03  0.24149003646E+03  0.90196178512E+02 0.  0.
         23    2    1    2    0    0  0.23498611412E+03 -0.42352239319E+01 -0.24232732067E+03  0.34979265591E+03  0.91629475811E+02 0.  0.
        -13    1    3    3    0    0 -0.25682242500E+02  0.35929569582E+02 -0.35007233967E+02  0.56356170737E+02  0.00000000000E+00 0. -1.
         13    1    3    3    0    0 -0.64003830220E+02 -0.34469668524E+02 -0.17026420619E+03  0.18513386573E+03  0.00000000000E+00 0.  1.
        -13    1    4    4    0    0  0.27120312052E+02  0.28750788273E+01 -0.84240948926E+02  0.88545552570E+02  0.00000000000E+00 0.  1.
         13    1    4    4    0    0  0.20786580206E+03 -0.71103027592E+01 -0.15808637175E+03  0.26124710334E+03  0.00000000000E+00 0. -1.
         21    1    1    2  503  502  0.21026430701E+01  0.79318973586E+02  0.51069082272E+01  0.79511013012E+02  0.00000000000E+00 0. -1.
          2    1    1    2  501    0 -0.14740268447E+03 -0.76543650712E+02  0.25018017734E+03  0.30029419406E+03  0.00000000000E+00 0. -1.
<scales pt_clust_5="13000.00000" pt_clust_6="13000.00000" pt_clust_7="13000.00000" pt_clust_8="13000.00000" pt_clust_9="79.34684" pt_clust_10="160.07593"></scales>
<clustering>
<clus scale="   79.347">  1  9  2 -1</clus>
<clus scale="   90.196">  5  6 -1 -1</clus>
<clus scale="   91.629">  7  8 -1 -1</clus>
<clus scale="  127.242">  2  5  1 -1</clus>
<clus scale="  160.076">  1 10  2 -1</clus>
<clus scale="   79.347">  1  5  2 -1</clus>
</clustering>
</event>
<event>
10    2  0.2421970E-006  0.2498633E+03  0.7546771E-02  0.1113695E+00
         -1   -1    0    0    0  501 -0.00000000000E+00  0.00000000000E+00  0.74822625424E+03  0.74822625424E+03  0.00000000000E+00 0.  1.
         21   -1    0    0  503  502  0.00000000000E+00 -0.00000000000E+00 -0.39710284476E+03  0.39710284476E+03  0.00000000000E+00 0.  1.
         23    2    1    2    0    0  0.21580609491E+03 -0.10121873056E+03  0.41743489248E+03  0.48932775424E+03  0.91500052419E+02 0.  0.
         23    2    1    2    0    0 -0.18801835541E+03  0.12499823507E+03  0.23948024219E+03  0.34021432802E+03  0.86136762454E+02 0.  0.
        -11    1    4    4    0    0 -0.10847305033E+03  0.47393562123E+02  0.69922301832E+02  0.13748338326E+03  0.00000000000E+00 0. -1.
         11    1    4    4    0    0 -0.79545305080E+02  0.77604672951E+02  0.16955794036E+03  0.20273094476E+03  0.00000000000E+00 0.  1.
        -11    1    3    3    0    0  0.10039429104E+03  0.23210240748E+00  0.18918579527E+03  0.21417360406E+03  0.00000000000E+00 0.  1.
         11    1    3    3    0    0  0.11541180387E+03 -0.10145083297E+03  0.22824909721E+03  0.27515415018E+03  0.00000000000E+00 0. -1.
         21    1    1    2  503  501 -0.79184149337E+01  0.24007005742E+02 -0.71196382279E+02  0.75551058691E+02  0.00000000000E+00 0.  1.
         -1    1    1    2    0  502 -0.19869324564E+02 -0.47786510253E+02 -0.23459534291E+03  0.24023595804E+03  0.00000000000E+00 0.  1.
<scales pt_clust_5="13000.00000" pt_clust_6="13000.00000" pt_clust_7="13000.00000" pt_clust_8="13000.00000" pt_clust_9="25.27919" pt_clust_10="39.62492"></scales>
<clustering>
<clus scale="   25.279">  2  9  1 -1</clus>
<clus scale="   39.625">  2 10  1 -1</clus>
<clus scale="   86.137">  5  6 -1 -1</clus>
<clus scale="   91.500">  7  8 -1 -1</clus>
<clus scale="  247.950">  2  5  1 -1</clus>
<clus scale="   25.279">  2  5  1 -1</clus>
</clustering>
</event>
<event>
10    2  0.2421970E-006  0.9895742E+02  0.7546771E-02  0.1284712E+00
         -2   -1    0    0    0  501 -0.00000000000E+00  0.00000000000E+00  0.28498900997E+03  0.28498900997E+03  0.00000000000E+00 0.  1.
         21   -1    0    0  503  502  0.00000000000E+00 -0.00000000000E+00 -0.20080133908E+03  0.20080133908E+03  0.00000000000E+00 0.  1.
         23    2    1    2    0    0 -0.85758426866E+01 -0.15512611702E+02  0.19188000745E+03  0.21404787690E+03  0.93189968050E+02 0.  0.
         23    2    1    2    0    0 -0.78030124118E+02  0.29796748231E+02 -0.39933013798E+01  0.12830343562E+03  0.97310218685E+02 0.  0.
        -11    1    4    4    0    0 -0.57824918221E+02  0.89864477916E+01  0.43318777359E+02  0.72807924590E+02  0.00000000000E+00 0.  1.
         11    1    4    4    0    0 -0.20205205897E+02  0.20810300440E+02 -0.47312078739E+02  0.55495511029E+02  0.00000000000E+00 0. -1.
        -13    1    3    3    0    0 -0.43111361762E+02  0.16032352886E+02  0.72824172098E+02  0.86133535245E+02  0.00000000000E+00 0.  1.
         13    1    3    3    0    0  0.34535519075E+02 -0.31544964588E+02  0.11905583535E+03  0.12791434165E+03  0.00000000000E+00 0. -1.
         21    1    1    2  503  501  0.21254524067E+02 -0.78633699847E+00 -0.14203603005E+01  0.21316438318E+02  0.00000000000E+00 0. -1.
         -2    1    1    2    0  502  0.65351442738E+02 -0.13497799531E+02 -0.10227867488E+03  0.12212259822E+03  0.00000000000E+00 0.  1.
<scales pt_clust_5="13000.00000" pt_clust_6="13000.00000" pt_clust_7="13000.00000" pt_clust_8="13000.00000" pt_clust_9="21.26906" pt_clust_10="79.18139"></scales>
<clustering>
<clus scale="   21.269">  2  9  1 -1</clus>
<clus scale="   79.181">  2 10  1 -1</clus>
<clus scale="   93.190">  7  8 -1 -1</clus>
<clus scale="   94.909">  1  7  2 -1</clus>
<clus scale="   97.310">  5  6 -1 -1</clus>
<clus scale="   21.269">  2  5  1 -1</clus>
</clustering>
</event>
<event>
10    2  0.2421970E-006  0.1038615E+03  0.7546771E-02  0.1273180E+00
          1   -1    0    0  503    0 -0.00000000000E+00  0.00000000000E+00  0.56088183141E+03  0.56088183141E+03  0.00000000000E+00 0. -1.
         21   -1    0    0  501  502  0.00000000000E+00 -0.00000000000E+00 -0.48014284207E+02  0.48014284207E+02  0.00000000000E+00 0.  1.
         23    2    1    2    0    0 -0.74143616831E+01  0.55713938209E+02  0.38082144223E+03  0.39574744986E+03  0.91826235562E+02 0.  0.
         23    2    1    2    0    0  0.10899660536E+01 -0.20720349269E+02  0.12516973535E+03  0.15766344895E+03  0.93593694162E+02 0.  0.
        -13    1    3    3    0    0  0.24968451964E+02  0.65176828322E+02  0.30287743886E+03  0.31081535598E+03  0.00000000000E+00 0.  1.
         13    1    3    3    0    0 -0.32382813647E+02 -0.94628901135E+01  0.77944003376E+02  0.84932093883E+02  0.00000000000E+00 0. -1.
        -13    1    4    4    0    0  0.25980454328E+02  0.95125970337E+01  0.12414395521E+01  0.27695029907E+02  0.00000000000E+00 0.  1.
         13    1    4    4    0    0 -0.24890488274E+02 -0.30232946302E+02  0.12392829580E+03  0.12996841904E+03  0.00000000000E+00 0. -1.
         21    1    1    2  503  502  0.20942623072E+02 -0.11942199702E+02 -0.66684743109E+01  0.25013559213E+02  0.00000000000E+00 0.  1.
          1    1    1    2  501    0 -0.14618227443E+02 -0.23051389238E+02  0.13544843928E+02  0.30471657592E+02  0.00000000000E+00 0. -1.
<scales pt_clust_5="13000.00000" pt_clust_6="13000.00000" pt_clust_7="13000.00000" pt_clust_8="13000.00000" pt_clust_9="24.10829" pt_clust_10="27.73162"></scales>
<clustering>
<clus scale="   24.108">  2  9  1 -1</clus>
<clus scale="   27.732">  2 10  1 -1</clus>
<clus scale="   91.826">  5  6 -1 -1</clus>
<clus scale="   93.594">  7  8 -1 -1</clus>
<clus scale="  102.272">  1  5  2 -1</clus>
<clus scale="   24.108">  2  5  1 -1</clus>
</clustering>
</event>
<event>
10    2  0.2421970E-006  0.1554599E+03  0.7546771E-02  0.1193940E+00
          1   -1    0    0  503    0 -0.00000000000E+00  0.00000000000E+00  0.17770021649E+03  0.17770021649E+03  0.00000000000E+00 0. -1.
         21   -1    0    0  501  502  0.00000000000E+00 -0.00000000000E+00 -0.96142692646E+03  0.96142692646E+03  0.00000000000E+00 0. -1.
         23    2    1    2    0    0  0.86330241047E+02 -0.80468734792E+02  0.10472277143E+02  0.14941616344E+03  0.91035122407E+02 0.  0.
         23    2    1    2    0    0 -0.16469393986E+03 -0.12779785181E+02 -0.64516530883E+01  0.18866773965E+03  0.90920159607E+02 0.  0.
        -11    1    3    3    0    0  0.83177111021E+02 -0.18510420733E+02  0.17469861553E+02  0.86984271775E+02  0.00000000000E+00 0.  1.
         11    1    3    3    0    0  0.31531300261E+01 -0.61958314058E+02 -0.69975844097E+01  0.62431891670E+02  0.00000000000E+00 0. -1.
        -11    1    4    4    0    0 -0.11448074944E+03  0.34506760642E+02 -0.52528687323E+01  0.11968354587E+03  0.00000000000E+00 0. -1.
         11    1    4    4    0    0 -0.50213190421E+02 -0.47286545824E+02 -0.11987843559E+01  0.68984193784E+02  0.00000000000E+00 0.  1.
         21    1    1    2  503  502  0.69372054046E+01  0.56631844206E+02 -0.20490837077E+03  0.21270338739E+03  0.00000000000E+00 0.  1.
          1    1    1    2  501    0  0.71426493407E+02  0.36616675767E+02 -0.58283896326E+03  0.58833985247E+03  0.00000000000E+00 0. -1.
<scales pt_clust_5="13000.00000" pt_clust_6="13000.00000" pt_clust_7="13000.00000" pt_clust_8="13000.00000" pt_clust_9="57.05515" pt_clust_10="111.40561"></scales>
<clustering>
<clus scale="   57.055">  2  9  1 -1</clus>
<clus scale="   90.920">  7  8 -1 -1</clus>
<clus scale="   91.035">  5  6 -1 -1</clus>
<clus scale="  111.406">  2 10  1 -1</clus>
<clus scale="  155.393">  2  7  1 -1</clus>
<clus scale="   57.055">  2  5  1 -1</clus>
</clustering>
</event>
<event>
10    2  0.2421970E-006  0.9648842E+02  0.7546771E-02  0.1288561E+00
         21   -1    0    0  501  502  0.00000000000E+00  0.00000000000E+00  0.53880280818E+03  0.53880280818E+03  0.00000000000E+00 0.  1.
          1   -1    0    0  503    0 -0.00000000000E+00 -0.00000000000E+00 -0.82611071436E+02  0.82611071436E+02  0.00000000000E+00 0. -1.
         23    2    1    2    0    0 -0.13344856760E+02 -0.44761172810E+02 -0.10733552717E+02  0.10356476210E+03  0.91808512687E+02 0.  0.
         23    2    1    2    0    0 -0.20359297776E+02 -0.25193393306E+02  0.14673688316E+03  0.17540577078E+03  0.90477972286E+02 0.  0.
        -11    1    3    3    0    0 -0.13760057086E+02 -0.72980431163E+02 -0.31121157290E+01  0.74331472258E+02  0.00000000000E+00 0. -1.
         11    1    3    3    0    0  0.41520032637E+00  0.28219258353E+02 -0.76214369878E+01  0.29233289843E+02  0.00000000000E+00 0.  1.
        -13    1    4    4    0    0 -0.44150005774E+01  0.33702062394E+02  0.65644725718E+02  0.73922603135E+02  0.00000000000E+00 0.  1.
         13    1    4    4    0    0 -0.15944297198E+02 -0.58895455700E+02  0.81092157446E+02  0.10148316764E+03  0.00000000000E+00 0. -1.
         21    1    1    2  503  502  0.40243957578E+02  0.90696617440E+02  0.27335394063E+03  0.29080548377E+03  0.00000000000E+00 0.  1.
          1    1    1    2  501    0 -0.65398030423E+01 -0.20742051325E+02  0.46834465672E+02  0.51637862967E+02  0.00000000000E+00 0. -1.
<scales pt_clust_5="13000.00000" pt_clust_6="13000.00000" pt_clust_7="13000.00000" pt_clust_8="13000.00000" pt_clust_9="86.78322" pt_clust_10="21.74860"></scales>
<clustering>
<clus scale="   21.749">  1 10  2 -1</clus>
<clus scale="   86.783">  1  9  2 -1</clus>
<clus scale="   90.478">  7  8 -1 -1</clus>
<clus scale="   91.809">  5  6 -1 -1</clus>
<clus scale="   95.223">  1  7  2 -1</clus>
<clus scale="   21.749">  1  5  2 -1</clus>
</clustering>
</event>
<event>
10    2  0.2625073E-006  0.2473442E+03  0.7546771E-02  0.1150500E+00
         21   -1    0    0  503  502  0.00000000000E+00  0.00000000000E+00  0.19004605548E+03  0.19004605548E+03  0.00000000000E+00 0.  1.
         -1   -1    0    0    0  501 -0.00000000000E+00 -0.00000000000E+00 -0.75129137133E+03  0.75129137133E+03  0.00000000000E+00 0.  1.
         23    2    1    2    0    0 -0.17719100766E+02  0.41433951519E+02 -0.25391527339E+03  0.27449058253E+03  0.94028585916E+02 0.  0.
         23    2    1    2    0    0 -0.19218478147E+03 -0.12205247503E+03 -0.31025488979E+03  0.39596046945E+03  0.93245910550E+02 0.  0.
        -13    1    4    4    0    0 -0.17590657852E+03 -0.13631062835E+03 -0.29481495021E+03  0.36937726870E+03  0.00000000000E+00 0.  1.
         13    1    4    4    0    0 -0.16278202956E+02  0.14258153321E+02 -0.15439939588E+02  0.26583200749E+02  0.00000000000E+00 0. -1.
        -13    1    3    3    0    0 -0.51524378851E+02  0.33237754230E+02 -0.20823224535E+03  0.21707182665E+03  0.00000000000E+00 0.  1.
         13    1    3    3    0    0  0.33805278085E+02  0.81961972884E+01 -0.45683028040E+02  0.57418755884E+02  0.00000000000E+00 0. -1.
         21    1    1    2  503  501 -0.63876198456E+01 -0.19934388599E+02  0.23508587822E+02  0.31477535442E+02  0.00000000000E+00 0.  1.
         -1    1    1    2    0  502  0.21629150208E+03  0.10055291211E+03 -0.20583740495E+02  0.23940883939E+03  0.00000000000E+00 0.  1.
<scales pt_clust_5="13000.00000" pt_clust_6="13000.00000" pt_clust_7="13000.00000" pt_clust_8="13000.00000" pt_clust_9="20.93279" pt_clust_10="229.09465"></scales>
<clustering>
<clus scale="   20.933">  1  9  2 -1</clus>
<clus scale="   93.246">  5  6 -1 -1</clus>
<clus scale="   94.029">  7  8 -1 -1</clus>
<clus scale="  103.844">  2  7  1 -1</clus>
<clus scale="  229.095">  1 10  2 -1</clus>
<clus scale="   20.933">  1  5  2 -1</clus>
</clustering>
</event>
<event>
10    2  0.2421970E-006  0.2871583E+03  0.7546771E-02  0.1091923E+00
         21   -1    0    0  503  502  0.00000000000E+00  0.00000000000E+00  0.16108001585E+03  0.16108001585E+03  0.00000000000E+00 0.  1.
          4   -1    0    0  502    0 -0.00000000000E+00 -0.00000000000E+00 -0.18056229631E+04  0.18056229631E+04  0.00000000000E+00 0. -1.
         23    2    1    2    0    0  0.11492596923E+03  0.25359014277E+03 -0.15607856793E+04  0.15881474030E+04  0.92974717238E+02 0.  0.
         23    2    1    2    0    0 -0.99138031192E+02 -0.21463026840E+03 -0.15193088490E+03  0.29541994613E+03  0.91079357935E+02 0.  0.
        -11    1    4    4    0    0 -0.41161869116E+02 -0.92000522878E+02 -0.11878909786E+03  0.15578589619E+03  0.00000000000E+00 0. -1.
         11    1    4    4    0    0 -0.57976162076E+02 -0.12262974552E+03 -0.33141787038E+02  0.13963404994E+03  0.00000000000E+00 0.  1.
        -13    1    3    3    0    0  0.56147187322E+02  0.33786681003E+02 -0.38804075135E+03  0.39353484111E+03  0.00000000000E+00 0.  1.
         13    1    3    3    0    0  0.58778781907E+02  0.21980346176E+03 -0.11727449280E+04  0.11946125619E+04  0.00000000000E+00 0. -1.
         21    1    1    2  503  501  0.98389884085E+00 -0.23017317596E+02  0.23999711508E+02  0.33267869164E+02  0.00000000000E+00 0. -1.
          4    1    1    2  501    0 -0.16771836877E+02 -0.15942556775E+02  0.44173905455E+02  0.49867760646E+02  0.00000000000E+00 0. -1.
<scales pt_clust_5="13000.00000" pt_clust_6="13000.00000" pt_clust_7="13000.00000" pt_clust_8="13000.00000" pt_clust_9="22.23910" pt_clust_10="47.58036"></scales>
<clustering>
<clus scale="   22.239">  9 10 -1 -1</clus>
<clus scale="   47.580">  1  9  2 -1</clus>
<clus scale="   91.079">  5  6 -1 -1</clus>
<clus scale="   92.975">  7  8 -1 -1</clus>
<clus scale="  286.550">  1  5  2 -1</clus>
<clus scale="   47.580">  1  5  2 -1</clus>
</clustering>
</event>
<event>
10    2  0.2421970E-006  0.1480879E+03  0.7546771E-02  0.1203167E+00
         21   -1    0    0  501  502  0.00000000000E+00  0.00000000000E+00  0.89640260655E+03  0.89640260655E+03  0.00000000000E+00 0. -1.
          1   -1    0    0  503    0 -0.00000000000E+00 -0.00000000000E+00 -0.10156263196E+03  0.10156263196E+03  0.00000000000E+00 0. -1.
         23    2    1    2    0    0 -0.68905450737E+02 -0.84416570725E+02  0.67021051406E+02  0.15641084529E+03  0.89991180890E+02 0.  0.
         23    2    1    2    0    0  0.18468094397E+03 -0.18922699558E+02  0.22727434599E+03  0.30744544389E+03  0.91673076755E+02 0.  0.
        -13    1    3    3    0    0 -0.51603857389E+02 -0.97019765453E+02  0.30441069943E+02  0.11402829353E+03  0.00000000000E+00 0. -1.
         13    1    3    3    0    0 -0.17301593348E+02  0.12603194728E+02  0.36579981463E+02  0.42382551758E+02  0.00000000000E+00 0.  1.
        -13    1    4    4    0    0  0.10328526711E+03  0.31312266944E+02  0.92279516701E+02  0.14199934389E+03  0.00000000000E+00 0.  1.
         13    1    4    4    0    0  0.81395676861E+02 -0.50234966503E+02  0.13499482929E+03  0.16544610000E+03  0.00000000000E+00 0. -1.
         21    1    1    2  503  502 -0.64730560633E+02 -0.42596032472E+01  0.21917220364E+03  0.22857087423E+03  0.00000000000E+00 0. -1.
          1    1    1    2  501    0 -0.51044932604E+02  0.10759887353E+03  0.28137237356E+03  0.30553807510E+03  0.00000000000E+00 0. -1.
<scales pt_clust_5="13000.00000" pt_clust_6="13000.00000" pt_clust_7="13000.00000" pt_clust_8="13000.00000" pt_clust_9="64.87056" pt_clust_10="132.16603"></scales>
<clustering>
<clus scale="   64.871">  1  9  2 -1</clus>
<clus scale="   89.991">  5  6 -1 -1</clus>
<clus scale="   91.673">  7  8 -1 -1</clus>
<clus scale="  132.166">  1 10  2 -1</clus>
<clus scale="  147.053">  2  5  1 -1</clus>
<clus scale="   64.871">  1  5  2 -1</clus>
</clustering>
</event>
<event>
10    2  0.2421970E-006  0.1547551E+03  0.7546771E-02  0.1194905E+00
          2   -1    0    0  503    0 -0.00000000000E+00  0.00000000000E+00  0.61215173466E+03  0.61215173466E+03  0.00000000000E+00 0. -1.
         21   -1    0    0  501  502  0.00000000000E+00 -0.00000000000E+00 -0.16075370373E+03  0.16075370373E+03  0.00000000000E+00 0. -1.
         23    2    1    2    0    0 -0.76227206461E+01 -0.13943821578E+03  0.43073872077E+03  0.46151513570E+03  0.89214645738E+02 0.  0.
         23    2    1    2    0    0 -0.96769993586E+01  0.10031362062E+03  0.13031063044E+03  0.18777684916E+03  0.90126676828E+02 0.  0.
        -13    1    4    4    0    0  0.26618140630E+02  0.76175213652E+01  0.56698897483E+01  0.28261275487E+02  0.00000000000E+00 0.  1.
         13    1    4    4    0    0 -0.36295139989E+02  0.92696099255E+02  0.12464074070E+03  0.15951557368E+03  0.00000000000E+00 0. -1.
        -13    1    3    3    0    0  0.20093154906E+02 -0.22929687105E+02  0.28167478186E+02  0.41507978175E+02  0.00000000000E+00 0.  1.
         13    1    3    3    0    0 -0.27715875552E+02 -0.11650852867E+03  0.40257124259E+03  0.42000715752E+03  0.00000000000E+00 0. -1.
         21    1    1    2  503  502 -0.70605970563E+01  0.21819501359E+02 -0.25406509852E+02  0.34226209449E+02  0.00000000000E+00 0. -1.
          2    1    1    2  501    0  0.24360317061E+02  0.17305093798E+02 -0.84244810440E+02  0.89387244083E+02  0.00000000000E+00 0. -1.
<scales pt_clust_5="13000.00000" pt_clust_6="13000.00000" pt_clust_7="13000.00000" pt_clust_8="13000.00000" pt_clust_9="22.93344" pt_clust_10="37.37286"></scales>
<clustering>
<clus scale="   22.933">  2  9  1 -1</clus>
<clus scale="   37.373">  2 10  1 -1</clus>
<clus scale="   89.215">  7  8 -1 -1</clus>
<clus scale="   90.127">  5  6 -1 -1</clus>
<clus scale="  154.226">  1  7  2 -1</clus>
<clus scale="   22.933">  2  5  1 -1</clus>
</clustering>
</event>
<event>
10    2  0.2421970E-006  0.1006988E+03  0.7546771E-02  0.1280652E+00
          1   -1    0    0  503    0 -0.00000000000E+00  0.00000000000E+00  0.24485343193E+02  0.24485343193E+02  0.00000000000E+00 0. -1.
         21   -1    0    0  501  502  0.00000000000E+00 -0.00000000000E+00 -0.78964453602E+03  0.78964453602E+03  0.00000000000E+00 0.  1.
         23    2    1    2    0    0 -0.17125195930E+02  0.45479002307E+01 -0.21204374397E+03  0.23131301872E+03  0.90714979702E+02 0.  0.
         23    2    1    2    0    0  0.45383032823E+02  0.43321063779E+02 -0.33435901569E+03  0.35304409062E+03  0.94381376951E+02 0.  0.
        -11    1    3    3    0    0 -0.51661037217E+02  0.13208975687E+02 -0.94630225749E+02  0.10861960887E+03  0.00000000000E+00 0.  1.
         11    1    3    3    0    0  0.34535841287E+02 -0.86610754558E+01 -0.11741351822E+03  0.12269340985E+03  0.00000000000E+00 0. -1.
        -13    1    4    4    0    0  0.50489039938E+00 -0.28280759462E+02 -0.99636774925E+02  0.10357385378E+03  0.00000000000E+00 0.  1.
         13    1    4    4    0    0  0.44878142423E+02  0.71601823242E+02 -0.23472224076E+03  0.24947023684E+03  0.00000000000E+00 0. -1.
         21    1    1    2  503  502 -0.23178655234E+02 -0.60725355684E+01 -0.44929992599E+02  0.50919838783E+02  0.00000000000E+00 0.  1.
          1    1    1    2  501    0 -0.50791816584E+01 -0.41796428442E+02 -0.17382644057E+03  0.17885293109E+03  0.00000000000E+00 0. -1.
<scales pt_clust_5="13000.00000" pt_clust_6="13000.00000" pt_clust_7="13000.00000" pt_clust_8="13000.00000" pt_clust_9="23.96092" pt_clust_10="43.21449"></scales>
<clustering>
<clus scale="   23.961">  1  9  2 -1</clus>
<clus scale="   43.214">  2 10  1 -1</clus>
<clus scale="   90.715">  5  6 -1 -1</clus>
<clus scale="   94.381">  7  8 -1 -1</clus>
<clus scale="   97.271">  1  5  2 -1</clus>
<clus scale="   43.214">  2  5  1 -1</clus>
</clustering>
</event>
<event>
10    2  0.2421970E-006  0.9706502E+02  0.7546771E-02  0.1287823E+00
         21   -1    0    0  501  502  0.00000000000E+00  0.00000000000E+00  0.29399642297E+03  0.29399642297E+03  0.00000000000E+00 0. -1.
         -1   -1    0    0    0  501 -0.00000000000E+00 -0.00000000000E+00 -0.78143469844E+02  0.78143469844E+02  0.00000000000E+00 0.  1.
         23    2    1    2    0    0 -0.32131598597E+02  0.11209123598E+02  0.22075652650E+02  0.10125274107E+03  0.92772296803E+02 0.  0.
         23    2    1    2    0    0 -0.40165211444E+02 -0.31608956840E+02  0.99150450356E+02  0.14654799500E+03  0.95042793892E+02 0.  0.
        -11    1    4    4    0    0  0.21099075541E+02  0.40335155337E+01 -0.35412098476E+01  0.21771091002E+02  0.00000000000E+00 0.  1.
         11    1    4    4    0    0 -0.61264286985E+02 -0.35642472374E+02  0.10269166020E+03  0.12477690400E+03  0.00000000000E+00 0. -1.
        -13    1    3    3    0    0  0.19458056206E+02 -0.11161176952E+02 -0.20760358849E+02  0.30564363592E+02  0.00000000000E+00 0.  1.
         13    1    3    3    0    0 -0.51589654802E+02  0.22370300550E+02  0.42836011499E+02  0.70688377478E+02  0.00000000000E+00 0. -1.
         21    1    1    2  503  502  0.36002689211E+02  0.15146695430E+02  0.27239311136E+02  0.47619282691E+02  0.00000000000E+00 0.  1.
         -1    1    1    2    0  503  0.36294120831E+02  0.52531378123E+01  0.67387538979E+02  0.76719874044E+02  0.00000000000E+00 0.  1.
<scales pt_clust_5="13000.00000" pt_clust_6="13000.00000" pt_clust_7="13000.00000" pt_clust_8="13000.00000" pt_clust_9="28.46519" pt_clust_10="80.65969"></scales>
<clustering>
<clus scale="   28.465">  9 10 -1 -1</clus>
<clus scale="   80.660">  1  9  2 -1</clus>
<clus scale="   92.772">  7  8 -1 -1</clus>
<clus scale="   94.843">  2  7  1 -1</clus>
<clus scale="   95.043">  5  6 -1 -1</clus>
<clus scale="   80.660">  1  5  2 -1</clus>
</clustering>
</event>
<event>
10    2  0.2421970E-006  0.2056010E+03  0.7546771E-02  0.1145152E+00
          1   -1    0    0  503    0 -0.00000000000E+00  0.00000000000E+00  0.56883692893E+03  0.56883692893E+03  0.00000000000E+00 0. -1.
         21   -1    0    0  501  502  0.00000000000E+00 -0.00000000000E+00 -0.30052734518E+03  0.30052734518E+03  0.00000000000E+00 0. -1.
         23    2    1    2    0    0  0.11956726246E+03 -0.11555760724E+03  0.26122701251E+03  0.32317788988E+03  0.92490570321E+02 0.  0.
         23    2    1    2    0    0 -0.12911293163E+03  0.16908156982E+03  0.22089091351E+03  0.32015145288E+03  0.91899024727E+02 0.  0.
        -11    1    4    4    0    0 -0.14245351075E+02  0.68885862854E+02  0.11409073609E+03  0.13403316079E+03  0.00000000000E+00 0. -1.
         11    1    4    4    0    0 -0.11486758055E+03  0.10019570696E+03  0.10680017741E+03  0.18611829209E+03  0.00000000000E+00 0.  1.
        -11    1    3    3    0    0 -0.14970323803E+02 -0.20965253760E+02  0.37965120148E+02  0.45880309587E+02  0.00000000000E+00 0.  1.
         11    1    3    3    0    0  0.13453758626E+03 -0.94592353476E+02  0.22326189236E+03  0.27729758029E+03  0.00000000000E+00 0. -1.
         21    1    1    2  503  502  0.15339780949E+02 -0.15200507071E+02 -0.23898656801E+02  0.32210403470E+02  0.00000000000E+00 0.  1.
          1    1    1    2  501    0 -0.57941117815E+01 -0.38323455509E+02 -0.18990968546E+03  0.19382452788E+03  0.00000000000E+00 0. -1.
<scales pt_clust_5="13000.00000" pt_clust_6="13000.00000" pt_clust_7="13000.00000" pt_clust_8="13000.00000" pt_clust_9="21.59547" pt_clust_10="49.28227"></scales>
<clustering>
<clus scale="   21.595">  2  9  1 -1</clus>
<clus scale="   49.282">  2 10  1 -1</clus>
<clus scale="   91.899">  5  6 -1 -1</clus>
<clus scale="   92.491">  7  8 -1 -1</clus>
<clus scale="  205.336">  2  5  1 -1</clus>
<clus scale="   21.595">  2  5  1 -1</clus>
</clustering>
</event>
<event>
10    2  0.2421970E-006  0.1574973E+03  0.7546771E-02  0.1192445E+00
         -1   -1    0    0    0  501 -0.00000000000E+00  0.00000000000E+00  0.26770404796E+03  0.26770404796E+03  0.00000000000E+00 0.  1.
         21   -1    0    0  503  502  0.00000000000E+00 -0.00000000000E+00 -0.28483362766E+03  0.28483362766E+03  0.00000000000E+00 0.  1.
         23    2    1    2    0    0 -0.12223821200E+03  0.33302289684E+02  0.16046914034E+03  0.22408829179E+03  0.91727828617E+02 0.  0.
         23    2    1    2    0    0  0.14535397473E+03  0.36594573714E+02 -0.10010904748E+03  0.19986531393E+03  0.86356131958E+02 0.  0.
        -11    1    3    3    0    0 -0.95431057032E+02 -0.51226047895E+01  0.58970587482E+02  0.11229807618E+03  0.00000000000E+00 0.  1.
         11    1    3    3    0    0 -0.26807154971E+02  0.38424894474E+02  0.10149855286E+03  0.11179021561E+03  0.00000000000E+00 0. -1.
        -11    1    4    4    0    0  0.11209295208E+03  0.14278728544E+02 -0.11095854529E+03  0.15836827576E+03  0.00000000000E+00 0.  1.
         11    1    4    4    0    0  0.33261022655E+02  0.22315845170E+02  0.10849497809E+02  0.41497038164E+02  0.00000000000E+00 0. -1.
         21    1    1    2  503  501 -0.10091136918E+01 -0.20659024113E+02 -0.71321207856E+02  0.74259869901E+02  0.00000000000E+00 0.  1.
         -1    1    1    2    0  502 -0.22106649040E+02 -0.49237839285E+02 -0.61684646991E+01  0.54324200003E+02  0.00000000000E+00 0.  1.
<scales pt_clust_5="13000.00000" pt_clust_6="13000.00000" pt_clust_7="13000.00000" pt_clust_8="13000.00000" pt_clust_9="20.68366" pt_clust_10="56.73033"></scales>
<clustering>
<clus scale="   20.684">  2  9  1 -1</clus>
<clus scale="   56.730">  2 10  1 -1</clus>
<clus scale="   86.356">  7  8 -1 -1</clus>
<clus scale="   91.728">  5  6 -1 -1</clus>
<clus scale="  154.430">  2  7  1 -1</clus>
<clus scale="   20.684">  2  5  1 -1</clus>
</clustering>
</event>
<event>
10    2  0.2421970E-006  0.9698024E+02  0.7546771E-02  0.1289708E+00
          2   -1    0    0  503    0 -0.00000000000E+00  0.00000000000E+00  0.25270241126E+03  0.25270241126E+03  0.00000000000E+00 0. -1.
         21   -1    0    0  501  502  0.00000000000E+00 -0.00000000000E+00 -0.18103569694E+03  0.18103569694E+03  0.00000000000E+00 0.  1.
         23    2    1    2    0    0 -0.35656904497E+02  0.66172337026E+01  0.10929856312E+03  0.14706660330E+03  0.91472440034E+02 0.  0.
         23    2    1    2    0    0 -0.31164439385E+02  0.15741365271E+02  0.80159338190E+02  0.13035441076E+03  0.96683711367E+02 0.  0.
        -11    1    4    4    0    0  0.91120662078E+01 -0.32307691476E+02  0.75214809222E+01  0.34400426659E+02  0.00000000000E+00 0.  1.
         11    1    4    4    0    0 -0.40276505592E+02  0.48049056747E+02  0.72637857268E+02  0.95953984104E+02  0.00000000000E+00 0. -1.
        -13    1    3    3    0    0 -0.35732885435E+02 -0.33672752206E+02  0.89709675273E+02  0.10226690168E+03  0.00000000000E+00 0.  1.
         13    1    3    3    0    0  0.75980938105E-01  0.40289985909E+02  0.19588887845E+02  0.44799701613E+02  0.00000000000E+00 0. -1.
         21    1    1    2  503  502  0.48192213634E+02 -0.49313023967E+02 -0.89835817256E+02  0.11324635910E+03  0.00000000000E+00 0.  1.
          2    1    1    2  501    0  0.18629130248E+02  0.26954424994E+02 -0.27955369733E+02  0.43070735047E+02  0.00000000000E+00 0. -1.
<scales pt_clust_5="13000.00000" pt_clust_6="13000.00000" pt_clust_7="13000.00000" pt_clust_8="13000.00000" pt_clust_9="68.37326" pt_clust_10="32.76561"></scales>
<clustering>
<clus scale="   32.766">  2 10  1 -1</clus>
<clus scale="   68.373">  2  9  1 -1</clus>
<clus scale="   91.472">  7  8 -1 -1</clus>
<clus scale="   91.786">  1  7  2 -1</clus>
<clus scale="   96.684">  5  6 -1 -1</clus>
<clus scale="   32.766">  2  5  1 -1</clus>
</clustering>
</event>
<event>
10    2  0.2421970E-006  0.1333889E+03  0.7546771E-02  0.1223413E+00
          1   -1    0    0  503    0 -0.00000000000E+00  0.00000000000E+00  0.12750294108E+04  0.12750294108E+04  0.00000000000E+00 0. -1.
         21   -1    0    0  501  502  0.00000000000E+00 -0.00000000000E+00 -0.41867109611E+02  0.41867109611E+02  0.00000000000E+00 0. -1.
         23    2    1    2    0    0 -0.73194610914E+02 -0.16194580324E+02  0.52818536406E+03  0.54220325690E+03  0.96875577319E+02 0.  0.
         23    2    1    2    0    0  0.11931530400E+03 -0.28421645506E+02  0.55658573972E+03  0.57754586769E+03  0.93421688715E+02 0.  0.
        -11    1    3    3    0    0 -0.31748612660E+01 -0.46141458288E+02  0.18971900840E+03  0.19527523158E+03  0.00000000000E+00 0.  1.
         11    1    3    3    0    0 -0.70019749648E+02  0.29946877964E+02  0.33846635566E+03  0.34692802532E+03  0.00000000000E+00 0. -1.
        -13    1    4    4    0    0  0.11079810537E+03  0.10385413787E+02  0.45636161854E+03  0.46973397136E+03  0.00000000000E+00 0. -1.
         13    1    4    4    0    0  0.85171986266E+01 -0.38807059293E+02  0.10022412117E+03  0.10781189632E+03  0.00000000000E+00 0.  1.
         21    1    1    2  503  502 -0.64795962176E+02  0.70574813607E+02  0.95073647247E+02  0.13497525488E+03  0.00000000000E+00 0. -1.
          1    1    1    2  501    0  0.18675269093E+02 -0.25958587777E+02  0.53317550195E+02  0.62172140978E+02  0.00000000000E+00 0. -1.
<scales pt_clust_5="13000.00000" pt_clust_6="13000.00000" pt_clust_7="13000.00000" pt_clust_8="13000.00000" pt_clust_9="78.91493" pt_clust_10="31.97834"></scales>
<clustering>
<clus scale="   31.978">  2 10  1 -1</clus>
<clus scale="   78.915">  2  9  1 -1</clus>
<clus scale="   93.422">  7  8 -1 -1</clus>
<clus scale="   96.876">  5  6 -1 -1</clus>
<clus scale="  130.902">  2  7  1 -1</clus>
<clus scale="   31.978">  2  5  1 -1</clus>
</clustering>
</event>
<event>
10    2  0.2421970E-006  0.1051162E+03  0.7546771E-02  0.1270091E+00
         -1   -1    0    0    0  501 -0.00000000000E+00  0.00000000000E+00  0.18008279666E+03  0.18008279666E+03  0.00000000000E+00 0.  1.
         21   -1    0    0  503  502  0.00000000000E+00 -0.00000000000E+00 -0.22357879323E+03  0.22357879323E+03  0.00000000000E+00 0.  1.
         23    2    1    2    0    0  0.19609133960E+02 -0.50473331313E+02  0.11393460179E+03  0.15550032806E+03  0.90924051998E+02 0.  0.
         23    2    1    2    0    0  0.30751818339E+02  0.46248124243E+02 -0.14936726687E+03  0.18370489553E+03  0.91391164249E+02 0.  0.
        -11    1    4    4    0    0  0.63600091427E+01  0.26329910909E+02 -0.14978139650E+03  0.15221097418E+03  0.00000000000E+00 0.  1.
         11    1    4    4    0    0  0.24391809197E+02  0.19918213335E+02  0.41412963259E+00  0.31493921345E+02  0.00000000000E+00 0. -1.
        -13    1    3    3    0    0 -0.21565079784E+02  0.30938808592E+01 -0.14028427559E+01  0.21831003931E+02  0.00000000000E+00 0. -1.
         13    1    3    3    0    0  0.41174213743E+02 -0.53567212172E+02  0.11533744455E+03  0.13366932412E+03  0.00000000000E+00 0.  1.
         21    1    1    2  503  501 -0.34427476313E+02 -0.10122120571E+02 -0.18762858528E+02  0.40493867564E+02  0.00000000000E+00 0.  1.
         -1    1    1    2    0  502 -0.15933475987E+02  0.14347327641E+02  0.10699527028E+02  0.23962498745E+02  0.00000000000E+00 0.  1.
<scales pt_clust_5="13000.00000" pt_clust_6="13000.00000" pt_clust_7="13000.00000" pt_clust_8="13000.00000" pt_clust_9="37.50262" pt_clust_10="21.44113"></scales>
<clustering>
<clus scale="   21.441">  2 10  1 -1</clus>
<clus scale="   37.503">  2  9  1 -1</clus>
<clus scale="   90.924">  7  8 -1 -1</clus>
<clus scale="   91.391">  5  6 -1 -1</clus>
<clus scale="  104.710">  1  7  2 -1</clus>
<clus scale="   21.441">  2  5  1 -1</clus>
</clustering>
</event>
<event>
10    2  0.2421970E-006  0.9235775E+02  0.7546771E-02  0.1297713E+00
         21   -1    0    0  503  502  0.00000000000E+00  0.00000000000E+00  0.34290101436E+03  0.34290101436E+03  0.00000000000E+00 0.  1.
         -2   -1    0    0    0  501 -0.00000000000E+00 -0.00000000000E+00 -0.53225367858E+02  0.53225367858E+02  0.00000000000E+00 0.  1.
         23    2    1    2    0    0 -0.84692500369E+00  0.40727628438E+01  0.92386897142E+02  0.12980814677E+03  0.91090677486E+02 0.  0.
         23    2    1    2    0    0 -0.82034523503E+01 -0.47738482764E+01  0.16714722449E+03  0.19098051213E+03  0.91898177887E+02 0.  0.
        -11    1    4    4    0    0 -0.26011021334E+02  0.26934841773E+02  0.26926164973E+02  0.46120248181E+02  0.00000000000E+00 0. -1.
         11    1    4    4    0    0  0.17807568984E+02 -0.31708690049E+02  0.14022105952E+03  0.14486026395E+03  0.00000000000E+00 0.  1.
        -13    1    3    3    0    0  0.21738528308E+02  0.14210241562E+02  0.10046476208E+03  0.10376735035E+03  0.00000000000E+00 0.  1.
         13    1    3    3    0    0 -0.22585453312E+02 -0.10137478718E+02 -0.80778649423E+01  0.26040796418E+02  0.00000000000E+00 0. -1.
         21    1    1    2  503  501  0.36275911597E+02 -0.10066617198E+02  0.76447073300E+01  0.38415102423E+02  0.00000000000E+00 0. -1.
         -2    1    1    2    0  502 -0.27225534243E+02  0.10767702630E+02  0.22496817536E+02  0.36922620898E+02  0.00000000000E+00 0.  1.
<scales pt_clust_5="13000.00000" pt_clust_6="13000.00000" pt_clust_7="13000.00000" pt_clust_8="13000.00000" pt_clust_9="35.50669" pt_clust_10="29.27753"></scales>
<clustering>
<clus scale="   29.278">  1 10  2 -1</clus>
<clus scale="   35.507">  2  9  1 -1</clus>
<clus scale="   91.091">  7  8 -1 -1</clus>
<clus scale="   91.554">  2  7  1 -1</clus>
<clus scale="   91.898">  5  6 -1 -1</clus>
<clus scale="   29.278">  1  5  2 -1</clus>
</clustering>
</event>
<event>
10    2  0.2421970E-006  0.1214054E+03  0.7546771E-02  0.1244923E+00
          2   -1    0    0  502    0 -0.00000000000E+00  0.00000000000E+00  0.87692968220E+02  0.87692968220E+02  0.00000000000E+00 0. -1.
         21   -1    0    0  503  502  0.00000000000E+00 -0.00000000000E+00 -0.52492927877E+03  0.52492927877E+03  0.00000000000E+00 0. -1.
         23    2    1    2    0    0 -0.64871246612E+02  0.79362643861E+02 -0.62085502661E+01  0.13857598935E+03  0.93048647756E+02 0.  0.
         23    2    1    2    0    0  0.44226185087E+02 -0.30018185542E+01 -0.11811890754E+03  0.14936683169E+03  0.79958787678E+02 0.  0.
        -11    1    4    4    0    0 -0.23055073301E+02 -0.65183591945E+01 -0.28090980185E+02  0.36920571221E+02  0.00000000000E+00 0.  1.
         11    1    4    4    0    0  0.67281258388E+02  0.35165406403E+01 -0.90027927360E+02  0.11244626047E+03  0.00000000000E+00 0. -1.
        -13    1    3    3    0    0 -0.57282148776E+02  0.50869123621E+02  0.37937541256E+02  0.85487831549E+02  0.00000000000E+00 0. -1.
         13    1    3    3    0    0 -0.75890978359E+01  0.28493520240E+02 -0.44146091522E+02  0.53088157797E+02  0.00000000000E+00 0.  1.
         21    1    1    2  503  501  0.89639745068E+01 -0.25713977981E+02 -0.52588374168E+02  0.59220761564E+02  0.00000000000E+00 0.  1.
          2    1    1    2  501    0  0.11681087018E+02 -0.50646847326E+02 -0.26032047857E+03  0.26545866439E+03  0.00000000000E+00 0. -1.
<scales pt_clust_5="13000.00000" pt_clust_6="13000.00000" pt_clust_7="13000.00000" pt_clust_8="13000.00000" pt_clust_9="25.56634" pt_clust_10="86.63013"></scales>
<clustering>
<clus scale="   25.566">  9 10 -1 -1</clus>
<clus scale="   79.959">  5  6 -1 -1</clus>
<clus scale="   86.630">  2  9  1 -1</clus>
<clus scale="   93.049">  7  8 -1 -1</clus>
<clus scale="  111.690">  2  5  1 -1</clus>
<clus scale="   86.630">  2  5  1 -1</clus>
</clustering>
</event>
<event>
10    2  0.2421970E-006  0.3148070E+03  0.7546771E-02  0.1078071E+00
          2   -1    0    0  502    0 -0.00000000000E+00  0.00000000000E+00  0.86349474964E+03  0.86349474964E+03  0.00000000000E+00 0. -1.
         21   -1    0    0  503  502  0.00000000000E+00 -0.00000000000E+00 -0.28309106344E+03  0.28309106344E+03  0.00000000000E+00 0. -1.
         23    2    1    2    0    0  0.27766367579E+03 -0.10560166377E+03  0.52778133650E+03  0.61265898848E+03  0.92461174372E+02 0.  0.
         23    2    1    2    0    0 -0.27004248347E+03  0.15610415961E+03  0.19094499048E+03  0.37727573431E+03  0.92658182503E+02 0.  0.
        -11    1    4    4    0    0 -0.19110689428E+03  0.75465916140E+02  0.15957016509E+03  0.26015300715E+03  0.00000000000E+00 0. -1.
         11    1    4    4    0    0 -0.78935589189E+02  0.80638243471E+02  0.31374825395E+02  0.11712272717E+03  0.00000000000E+00 0.  1.
        -11    1    3    3    0    0  0.32228345538E+02 -0.93618841190E+00  0.12812246803E+03  0.13211702964E+03  0.00000000000E+00 0.  1.
         11    1    3    3    0    0  0.24543533025E+03 -0.10466547536E+03  0.39965886846E+03  0.48054195884E+03  0.00000000000E+00 0. -1.
         21    1    1    2  503  501  0.17326952992E+02 -0.26888110646E+02 -0.10091601754E+03  0.10586423565E+03  0.00000000000E+00 0.  1.
          2    1    1    2  501    0 -0.24948145309E+02 -0.23614385192E+02 -0.37406623233E+02  0.50786854638E+02  0.00000000000E+00 0. -1.
<scales pt_clust_5="13000.00000" pt_clust_6="13000.00000" pt_clust_7="13000.00000" pt_clust_8="13000.00000" pt_clust_9="31.98740" pt_clust_10="36.62142"></scales>
<clustering>
<clus scale="   31.987">  2  9  1 -1</clus>
<clus scale="   36.621">  2 10  1 -1</clus>
<clus scale="   92.461">  7  8 -1 -1</clus>
<clus scale="   92.658">  5  6 -1 -1</clus>
<clus scale="  314.749">  1  7  2 -1</clus>
<clus scale="   31.987">  2  5  1 -1</clus>
</clustering>
</event>
<event>
10    2  0.2421970E-006  0.9861091E+02  0.7546771E-02  0.1290342E+00
         21   -1    0    0  501  502  0.00000000000E+00  0.00000000000E+00  0.66200751836E+02  0.66200751836E+02  0.00000000000E+00 0.  1.
          2   -1    0    0  503    0 -0.00000000000E+00 -0.00000000000E+00 -0.55347887961E+03  0.55347887961E+03  0.00000000000E+00 0. -1.
         23    2    1    2    0    0  0.26159229938E+02  0.19589024078E+02 -0.29221351286E+03  0.30776869143E+03  0.90910918796E+02 0.  0.
         23    2    1    2    0    0 -0.53773882654E+02  0.21832766600E+02 -0.22124501201E+03  0.24145808951E+03  0.77358603244E+02 0.  0.
        -11    1    4    4    0    0  0.96285898207E+01  0.29541421812E+02 -0.52169365818E+02  0.60721067797E+02  0.00000000000E+00 0.  1.
         11    1    4    4    0    0 -0.63402472475E+02 -0.77086552118E+01 -0.16907564619E+03  0.18073702171E+03  0.00000000000E+00 0. -1.
        -13    1    3    3    0    0 -0.19748740878E+02 -0.67565562550E+01 -0.15396764699E+02  0.25936926994E+02  0.00000000000E+00 0. -1.
         13    1    3    3    0    0  0.45907970816E+02  0.26345580333E+02 -0.27681674816E+03  0.28183176444E+03  0.00000000000E+00 0.  1.
         21    1    1    2  503  502  0.57325860920E+01 -0.23715864872E+02 -0.84544878580E+01  0.25822144660E+02  0.00000000000E+00 0. -1.
          2    1    1    2  501    0  0.21882066624E+02 -0.17705925807E+02  0.34634884952E+02  0.44630705843E+02  0.00000000000E+00 0. -1.
<scales pt_clust_5="13000.00000" pt_clust_6="13000.00000" pt_clust_7="13000.00000" pt_clust_8="13000.00000" pt_clust_9="24.39887" pt_clust_10="42.73809"></scales>
<clustering>
<clus scale="   24.399">  1  9  2 -1</clus>
<clus scale="   42.738">  1 10  2 -1</clus>
<clus scale="   77.359">  5  6 -1 -1</clus>
<clus scale="   86.277">  1  5  2 -1</clus>
<clus scale="   90.911">  7  8 -1 -1</clus>
<clus scale="   24.399">  1  5  2 -1</clus>
</clustering>
</event>
<event>
10    2  0.2421970E-006  0.1129349E+03  0.7546771E-02  0.1255517E+00
         21   -1    0    0  503  502  0.00000000000E+00  0.00000000000E+00  0.99342798932E+02  0.99342798932E+02  0.00000000000E+00 0. -1.
          2   -1    0    0  502    0 -0.00000000000E+00 -0.00000000000E+00 -0.38827624224E+03  0.38827624224E+03  0.00000000000E+00 0. -1.
         23    2    1    2    0    0 -0.27391420675E+02  0.76508520264E+02 -0.28993800598E+03  0.31408541955E+03  0.89340695447E+02 0.  0.
         23    2    1    2    0    0 -0.13087086806E+02 -0.31310552067E+02 -0.22128278745E+02  0.98831234590E+02  0.90146157426E+02 0.  0.
        -11    1    4    4    0    0  0.21332166341E+02  0.16351024089E+02 -0.29118099640E+02  0.39626771710E+02  0.00000000000E+00 0.  1.
         11    1    4    4    0    0 -0.34419253147E+02 -0.47661576156E+02  0.69898208945E+01  0.59204462881E+02  0.00000000000E+00 0. -1.
        -11    1    3    3    0    0 -0.31570983547E+02  0.38712192168E+02 -0.26245579543E+03  0.26716737334E+03  0.00000000000E+00 0. -1.
         11    1    3    3    0    0  0.41795628720E+01  0.37796328096E+02 -0.27482210557E+02  0.46918046213E+02  0.00000000000E+00 0.  1.
         21    1    1    2  503  501 -0.20957179103E+01 -0.22586635759E+02  0.52268666505E+01  0.23278064427E+02  0.00000000000E+00 0.  1.
          2    1    1    2  501    0  0.42574225392E+02 -0.22611332438E+02  0.17905974771E+02  0.51424322599E+02  0.00000000000E+00 0. -1.
<scales pt_clust_5="13000.00000" pt_clust_6="13000.00000" pt_clust_7="13000.00000" pt_clust_8="13000.00000" pt_clust_9="22.68365" pt_clust_10="52.46580"></scales>
<clustering>
<clus scale="   22.684">  1  9  2 -1</clus>
<clus scale="   52.466">  1 10  2 -1</clus>
<clus scale="   89.341">  7  8 -1 -1</clus>
<clus scale="   90.146">  5  6 -1 -1</clus>
<clus scale="  112.293">  2  7  1 -1</clus>
<clus scale="   22.684">  1  5  2 -1</clus>
</clustering>
</event>
<event>
10    2  0.2421970E-006  0.9731843E+02  0.7546771E-02  0.1289296E+00
         21   -1    0    0  501  502  0.00000000000E+00  0.00000000000E+00  0.37873130859E+02  0.37873130859E+02  0.00000000000E+00 0.  1.
          2   -1    0    0  503    0 -0.00000000000E+00 -0.00000000000E+00 -0.81975961415E+03  0.81975961415E+03  0.00000000000E+00 0. -1.
         23    2    1    2    0    0 -0.45313483576E+02 -0.34829839171E+02 -0.17710297072E+03  0.20721283821E+03  0.91133246355E+02 0.  0.
         23    2    1    2    0    0  0.25804286650E+02 -0.14053092812E+02 -0.11629008083E+03  0.14697029265E+03  0.84932522595E+02 0.  0.
        -11    1    3    3    0    0  0.79696773376E+01  0.24836526557E+02 -0.29902656334E+02  0.39680444354E+02  0.00000000000E+00 0.  1.
         11    1    3    3    0    0 -0.53283160913E+02 -0.59666365729E+02 -0.14720031438E+03  0.16753239385E+03  0.00000000000E+00 0. -1.
        -13    1    4    4    0    0  0.11443264122E+02 -0.35702288490E+02 -0.11500211556E+03  0.12095903554E+03  0.00000000000E+00 0. -1.
         13    1    4    4    0    0  0.14361022528E+02  0.21649195678E+02 -0.12879652729E+01  0.26011257103E+02  0.00000000000E+00 0.  1.
         21    1    1    2  503  502  0.57587934078E+02  0.28893949911E+02 -0.16539212776E+03  0.17749869413E+03  0.00000000000E+00 0.  1.
          2    1    1    2  501    0 -0.38078737152E+02  0.19988982072E+02 -0.32310130399E+03  0.32595092002E+03  0.00000000000E+00 0. -1.
<scales pt_clust_5="13000.00000" pt_clust_6="13000.00000" pt_clust_7="13000.00000" pt_clust_8="13000.00000" pt_clust_9="60.54508" pt_clust_10="43.00641"></scales>
<clustering>
<clus scale="   43.006">  1 10  2 -1</clus>
<clus scale="   60.545">  2  9  1 -1</clus>
<clus scale="   84.933">  7  8 -1 -1</clus>
<clus scale="   91.133">  5  6 -1 -1</clus>
<clus scale="   91.538">  1  7  2 -1</clus>
<clus scale="   43.006">  1  5  2 -1</clus>
</clustering>
</event>
<event>
10    2  0.2421970E-006  0.9266819E+02  0.7546771E-02  0.1299218E+00
         21   -1    0    0  501  502  0.00000000000E+00  0.00000000000E+00  0.11793691107E+03  0.11793691107E+03  0.00000000000E+00 0. -1.
          4   -1    0    0  503    0 -0.00000000000E+00 -0.00000000000E+00 -0.18233025428E+03  0.18233025428E+03  0.00000000000E+00 0. -1.
         23    2    1    2    0    0 -0.15060625926E+02  0.18168485660E+02 -0.94353844519E+02  0.13035638475E+03  0.86794140039E+02 0.  0.
         23    2    1    2    0    0  0.14219835466E+02  0.34974307233E+02  0.14209637632E+01  0.98881570992E+02  0.91379100765E+02 0.  0.
        -11    1    3    3    0    0  0.17035427577E+02 -0.16704326172E+02  0.99327634633E+00  0.23879424271E+02  0.00000000000E+00 0.  1.
         11    1    3    3    0    0 -0.32096053503E+02  0.34872811832E+02 -0.95347120866E+02  0.10647696048E+03  0.00000000000E+00 0. -1.
        -13    1    4    4    0    0 -0.35955787575E+02  0.25749425029E+01  0.12464870262E+02  0.38142128673E+02  0.00000000000E+00 0.  1.
         13    1    4    4    0    0  0.50175623041E+02  0.32399364730E+02 -0.11043906499E+02  0.60739442319E+02  0.00000000000E+00 0. -1.
         21    1    1    2  503  502 -0.16875916765E+02 -0.22658730383E+02  0.20387603323E+02  0.34840622820E+02  0.00000000000E+00 0.  1.
          4    1    1    2  501    0  0.17716707225E+02 -0.30484062510E+02  0.81519342226E+01  0.36188586787E+02  0.00000000000E+00 0. -1.
<scales pt_clust_5="13000.00000" pt_clust_6="13000.00000" pt_clust_7="13000.00000" pt_clust_8="13000.00000" pt_clust_9="28.25269" pt_clust_10="38.51705"></scales>
<clustering>
<clus scale="   28.253">  1  9  2 -1</clus>
<clus scale="   38.517">  1 10  2 -1</clus>
<clus scale="   86.794">  5  6 -1 -1</clus>
<clus scale="   88.150">  2  5  1 -1</clus>
<clus scale="   91.379">  7  8 -1 -1</clus>
<clus scale="   28.253">  1  5  2 -1</clus>
</clustering>
</event>
<event>
10    2  0.2421970E-006  0.3393485E+03  0.7546771E-02  0.1102753E+00
         21   -1    0    0  503  502  0.00000000000E+00  0.00000000000E+00  0.10823582656E+03  0.10823582656E+03  0.00000000000E+00 0. -1.
          2   -1    0    0  502    0 -0.00000000000E+00 -0.00000000000E+00 -0.24912021257E+04  0.24912021257E+04  0.00000000000E+00 0. -1.
         23    2    1    2    0    0  0.76241884463E+02  0.57279291012E+02 -0.56486188033E+02  0.14257867546E+03  0.89689727013E+02 0.  0.
         23    2    1    2    0    0 -0.21601700367E+03 -0.33037232313E+03 -0.18119328160E+04  0.18566632508E+04  0.91042185390E+02 0.  0.
        -13    1    4    4    0    0 -0.11939762941E+03 -0.23545807985E+03 -0.13359873150E+04  0.13618217237E+04  0.00000000000E+00 0. -1.
         13    1    4    4    0    0 -0.96619374255E+02 -0.94914243276E+02 -0.47594550099E+03  0.49484152713E+03  0.00000000000E+00 0.  1.
        -13    1    3    3    0    0 -0.19712276217E+02  0.18491940596E+02 -0.73498534616E+01  0.28009749134E+02  0.00000000000E+00 0.  1.
         13    1    3    3    0    0  0.95954160680E+02  0.38787350416E+02 -0.49136334572E+02  0.11456892632E+03  0.00000000000E+00 0. -1.
         21    1    1    2  503  501  0.67546540435E+02  0.10641536083E+03 -0.23816333367E+03  0.26945971434E+03  0.00000000000E+00 0.  1.
          2    1    1    2  501    0  0.72228578769E+02  0.16667767129E+03 -0.27638396147E+03  0.33073631167E+03  0.00000000000E+00 0. -1.
<scales pt_clust_5="13000.00000" pt_clust_6="13000.00000" pt_clust_7="13000.00000" pt_clust_8="13000.00000" pt_clust_9="30.71279" pt_clust_10="328.98053"></scales>
<clustering>
<clus scale="   30.713">  9 10 -1 -1</clus>
<clus scale="   89.690">  7  8 -1 -1</clus>
<clus scale="   91.042">  5  6 -1 -1</clus>
<clus scale="  130.912">  2  7  1 -1</clus>
<clus scale="  328.981">  1  9  2 -1</clus>
<clus scale="  328.981">  1  5  2 -1</clus>
</clustering>
</event>
<event>
10    2  0.2421970E-006  0.9816037E+02  0.7546771E-02  0.1285965E+00
         21   -1    0    0  501  502  0.00000000000E+00  0.00000000000E+00  0.10552646151E+03  0.10552646151E+03  0.00000000000E+00 0. -1.
          1   -1    0    0  503    0 -0.00000000000E+00 -0.00000000000E+00 -0.28918073594E+03  0.28918073594E+03  0.00000000000E+00 0. -1.
         23    2    1    2    0    0 -0.82159005477E+01  0.19377861949E+02 -0.17302652416E+03  0.19735447833E+03  0.92561382342E+02 0.  0.
         23    2    1    2    0    0  0.55047950689E+02 -0.53607914339E+02 -0.37354571374E+02  0.12349153515E+03  0.89166753312E+02 0.  0.
        -13    1    4    4    0    0  0.74875971656E+02 -0.24966704435E+02 -0.10746275330E+02  0.79656951331E+02  0.00000000000E+00 0. -1.
         13    1    4    4    0    0 -0.19828020967E+02 -0.28641209903E+02 -0.26608296044E+02  0.43834583819E+02  0.00000000000E+00 0.  1.
        -13    1    3    3    0    0  0.87297206781E+01 -0.34216016311E+02 -0.93693342691E+02  0.10012685084E+03  0.00000000000E+00 0.  1.
         13    1    3    3    0    0 -0.16945621226E+02  0.53593878261E+02 -0.79333181467E+02  0.97227627491E+02  0.00000000000E+00 0. -1.
         21    1    1    2  503  502 -0.15690831138E+02  0.32955301323E+02  0.75685642392E+01  0.37276497043E+02  0.00000000000E+00 0. -1.
          1    1    1    2  501    0 -0.31141219003E+02  0.12747510659E+01  0.19158256861E+02  0.36584686922E+02  0.00000000000E+00 0. -1.
<scales pt_clust_5="13000.00000" pt_clust_6="13000.00000" pt_clust_7="13000.00000" pt_clust_8="13000.00000" pt_clust_9="41.46908" pt_clust_10="31.16730"></scales>
<clustering>
<clus scale="   31.167">  1 10  2 -1</clus>
<clus scale="   41.469">  1  9  2 -1</clus>
<clus scale="   89.167">  5  6 -1 -1</clus>
<clus scale="   92.561">  7  8 -1 -1</clus>
<clus scale="   94.966">  1  5  2 -1</clus>
<clus scale="   31.167">  1  5  2 -1</clus>
</clustering>
</event>
<event>
10    2  0.2421970E-006  0.9844701E+02  0.7546771E-02  0.1283953E+00
         21   -1    0    0  501  502  0.00000000000E+00  0.00000000000E+00  0.54517879802E+03  0.54517879802E+03  0.00000000000E+00 0.  1.
          1   -1    0    0  503    0 -0.00000000000E+00 -0.00000000000E+00 -0.37123469895E+02  0.37123469895E+02  0.00000000000E+00 0. -1.
         23    2    1    2    0    0 -0.24335876094E+02  0.75274796245E+01  0.11243510185E+03  0.14746957078E+03  0.91960449984E+02 0.  0.
         23    2    1    2    0    0  0.50762319140E+02  0.22251210505E+01  0.26783909981E+03  0.28748259626E+03  0.91250729082E+02 0.  0.
        -13    1    4    4    0    0 -0.63875207599E-03 -0.38967303097E+02  0.10626241056E+03  0.11318193587E+03  0.00000000000E+00 0.  1.
         13    1    4    4    0    0  0.50762957892E+02  0.41192424148E+02  0.16157668925E+03  0.17430066038E+03  0.00000000000E+00 0. -1.
        -13    1    3    3    0    0  0.28017995335E+02  0.59572145092E+01  0.66177829269E+01  0.29398835320E+02  0.00000000000E+00 0.  1.
         13    1    3    3    0    0 -0.52353871429E+02  0.15702651153E+01  0.10581731893E+03  0.11807073546E+03  0.00000000000E+00 0. -1.
         21    1    1    2  503  502 -0.45331811880E+01 -0.30941018704E+02  0.24667295161E+02  0.39829283457E+02  0.00000000000E+00 0.  1.
          1    1    1    2  501    0 -0.21893261857E+02  0.21188418029E+02  0.10311383130E+03  0.10752081742E+03  0.00000000000E+00 0. -1.
<scales pt_clust_5="13000.00000" pt_clust_6="13000.00000" pt_clust_7="13000.00000" pt_clust_8="13000.00000" pt_clust_9="30.02181" pt_clust_10="30.46742"></scales>
<clustering>
<clus scale="   30.467">  1 10  2 -1</clus>
<clus scale="   30.022">  2  9  1 -1</clus>
<clus scale="   91.251">  5  6 -1 -1</clus>
<clus scale="   91.960">  7  8 -1 -1</clus>
<clus scale="   97.784">  1  5  2 -1</clus>
<clus scale="   30.467">  1  5  2 -1</clus>
</clustering>
</event>
<event>
10    2  0.2421970E-006  0.1251466E+03  0.7546771E-02  0.1236971E+00
         21   -1    0    0  501  502  0.00000000000E+00  0.00000000000E+00  0.24198112985E+03  0.24198112985E+03  0.00000000000E+00 0.  1.
          1   -1    0    0  503    0 -0.00000000000E+00 -0.00000000000E+00 -0.22274078527E+03  0.22274078527E+03  0.00000000000E+00 0. -1.
         23    2    1    2    0    0 -0.60561041554E+02 -0.40224855092E+02 -0.14638689245E+03  0.19098286458E+03  0.98790958898E+02 0.  0.
         23    2    1    2    0    0  0.10003503829E+03  0.35229209813E+02  0.10958156315E+03  0.17807076772E+03  0.91940052347E+02 0.  0.
        -11    1    4    4    0    0  0.80968919258E+02  0.46763312872E+02  0.12109176085E+03  0.15299015610E+03  0.00000000000E+00 0. -1.
         11    1    4    4    0    0  0.19066119034E+02 -0.11534103059E+02 -0.11510197703E+02  0.25080611626E+02  0.00000000000E+00 0.  1.
        -11    1    3    3    0    0  0.91375879062E+01  0.24997439987E+02 -0.40042725377E+02  0.48081050054E+02  0.00000000000E+00 0. -1.
         11    1    3    3    0    0 -0.69698629460E+02 -0.65222295079E+02 -0.10634416707E+03  0.14290181452E+03  0.00000000000E+00 0.  1.
         21    1    1    2  503  502 -0.21220155882E+02 -0.25637958103E+02  0.53816341213E+01  0.33712933677E+02  0.00000000000E+00 0. -1.
          1    1    1    2  501    0 -0.18253840856E+02  0.30633603382E+02  0.50664039759E+02  0.61955349139E+02  0.00000000000E+00 0. -1.
<scales pt_clust_5="13000.00000" pt_clust_6="13000.00000" pt_clust_7="13000.00000" pt_clust_8="13000.00000" pt_clust_9="33.28062" pt_clust_10="33.77981"></scales>
<clustering>
<clus scale="   33.281">  1  9  2 -1</clus>
<clus scale="   33.780">  1 10  2 -1</clus>
<clus scale="   91.940">  5  6 -1 -1</clus>
<clus scale="   98.791">  7  8 -1 -1</clus>
<clus scale="  119.812">  1  5  2 -1</clus>
<clus scale="   33.281">  1  5  2 -1</clus>
</clustering>
</event>
<event>
10    2  0.2421970E-006  0.9616751E+02  0.7546771E-02  0.1290842E+00
         21   -1    0    0  501  502  0.00000000000E+00  0.00000000000E+00  0.19648089616E+03  0.19648089616E+03  0.00000000000E+00 0.  1.
          1   -1    0    0  503    0 -0.00000000000E+00 -0.00000000000E+00 -0.23194295029E+03  0.23194295029E+03  0.00000000000E+00 0. -1.
         23    2    1    2    0    0  0.70399272412E+01  0.35488030010E+02 -0.14641817655E+03  0.17631891228E+03  0.91329707944E+02 0.  0.
         23    2    1    2    0    0  0.49450724052E+02  0.13738305653E+02  0.10079417298E+03  0.14275544336E+03  0.87094983500E+02 0.  0.
        -11    1    4    4    0    0  0.72509735265E+02  0.41491512318E+01  0.89732849105E+02  0.11544202602E+03  0.00000000000E+00 0.  1.
         11    1    4    4    0    0 -0.23059011213E+02  0.95891544213E+01  0.11061323873E+02  0.27313417334E+02  0.00000000000E+00 0. -1.
        -13    1    3    3    0    0  0.12682558696E+02  0.65044782519E+02 -0.83721345749E+02  0.10677515986E+03  0.00000000000E+00 0. -1.
         13    1    3    3    0    0 -0.56426314549E+01 -0.29556752509E+02 -0.62696830798E+02  0.69543752420E+02  0.00000000000E+00 0.  1.
         21    1    1    2  503  502  0.12066639378E+02 -0.28749760339E+02  0.20123557199E+02  0.37109433569E+02  0.00000000000E+00 0.  1.
          1    1    1    2  501    0 -0.68557290672E+02 -0.20476575324E+02 -0.99616077664E+01  0.72240057243E+02  0.00000000000E+00 0. -1.
<scales pt_clust_5="13000.00000" pt_clust_6="13000.00000" pt_clust_7="13000.00000" pt_clust_8="13000.00000" pt_clust_9="31.17936" pt_clust_10="71.16417"></scales>
<clustering>
<clus scale="   31.179">  1  9  2 -1</clus>
<clus scale="   71.164">  1 10  2 -1</clus>
<clus scale="   87.095">  5  6 -1 -1</clus>
<clus scale="   91.330">  7  8 -1 -1</clus>
<clus scale="   92.155">  1  5  2 -1</clus>
<clus scale="   31.179">  1  5  2 -1</clus>
</clustering>
</event>
<event>
10    2  0.2421970E-006  0.2548237E+03  0.7546771E-02  0.1133374E+00
          2   -1    0    0  502    0 -0.00000000000E+00  0.00000000000E+00  0.89755376625E+03  0.89755376625E+03  0.00000000000E+00 0. -1.
         21   -1    0    0  503  502  0.00000000000E+00 -0.00000000000E+00 -0.12248450924E+03  0.12248450924E+03  0.00000000000E+00 0. -1.
         23    2    1    2    0    0  0.77563968113E+02 -0.78340294373E+02  0.11942612705E+03  0.18657001317E+03  0.91610038328E+02 0.  0.
         23    2    1    2    0    0 -0.27772958302E+03  0.16625188194E+02  0.35007248772E+03  0.45680851196E+03  0.93344264805E+02 0.  0.
        -11    1    3    3    0    0  0.29811158943E+02 -0.52850458135E+02  0.11769070105E+03  0.13241214912E+03  0.00000000000E+00 0.  1.
         11    1    3    3    0    0  0.47752809170E+02 -0.25489836238E+02  0.17354259990E+01  0.54157864050E+02  0.00000000000E+00 0. -1.
        -11    1    4    4    0    0 -0.25260181985E+03  0.65633541046E+00  0.34339552819E+03  0.42629637454E+03  0.00000000000E+00 0. -1.
         11    1    4    4    0    0 -0.25127763166E+02  0.15968852784E+02  0.66769595309E+01  0.30512137413E+02  0.00000000000E+00 0.  1.
         21    1    1    2  503  501  0.34453183135E+02  0.23735571084E+02  0.25406021155E+02  0.48947574749E+02  0.00000000000E+00 0.  1.
          2    1    1    2  501    0  0.16571243177E+03  0.37979535095E+02  0.28016462109E+03  0.32771217561E+03  0.00000000000E+00 0. -1.
<scales pt_clust_5="13000.00000" pt_clust_6="13000.00000" pt_clust_7="13000.00000" pt_clust_8="13000.00000" pt_clust_9="33.73362" pt_clust_10="246.66995"></scales>
<clustering>
<clus scale="   33.734">  9 10 -1 -1</clus>
<clus scale="   91.610">  5  6 -1 -1</clus>
<clus scale="   93.344">  7  8 -1 -1</clus>
<clus scale="  143.338">  1  5  2 -1</clus>
<clus scale="  246.670">  2  9  1 -1</clus>
<clus scale="  246.670">  2  5  1 -1</clus>
</clustering>
</event>
<event>
10    2  0.2421970E-006  0.1557521E+03  0.7546771E-02  0.1217807E+00
         21   -1    0    0  501  502  0.00000000000E+00  0.00000000000E+00  0.46154922862E+03  0.46154922862E+03  0.00000000000E+00 0. -1.
          2   -1    0    0  503    0 -0.00000000000E+00 -0.00000000000E+00 -0.23769007211E+03  0.23769007211E+03  0.00000000000E+00 0. -1.
         23    2    1    2    0    0 -0.54877009460E+01  0.30606264349E+02 -0.25092646993E+02  0.94507727481E+02  0.85645848360E+02 0.  0.
         23    2    1    2    0    0  0.26399072195E+02  0.98983052170E+02 -0.10335601568E+03  0.16694115905E+03  0.81806656069E+02 0.  0.
        -11    1    3    3    0    0  0.13180798340E+02  0.39893295642E+02 -0.47826485944E+02  0.63659887212E+02  0.00000000000E+00 0. -1.
         11    1    3    3    0    0 -0.18668499285E+02 -0.92870312929E+01  0.22733838951E+02  0.30847840269E+02  0.00000000000E+00 0.  1.
        -11    1    4    4    0    0  0.25776285288E+02  0.74671699446E+02 -0.21961778399E+02  0.81991458651E+02  0.00000000000E+00 0.  1.
         11    1    4    4    0    0  0.62278690791E+00  0.24311352724E+02 -0.81394237282E+02  0.84949700397E+02  0.00000000000E+00 0. -1.
         21    1    1    2  503  502 -0.19231429134E+02 -0.17762680903E+03  0.34587493106E+03  0.38929500265E+03  0.00000000000E+00 0. -1.
          2    1    1    2  501    0 -0.16799421156E+01  0.48037492509E+02  0.64328881148E+01  0.48495411552E+02  0.00000000000E+00 0. -1.
<scales pt_clust_5="13000.00000" pt_clust_6="13000.00000" pt_clust_7="13000.00000" pt_clust_8="13000.00000" pt_clust_9="132.53828" pt_clust_10="48.06688"></scales>
<clustering>
<clus scale="   48.067">  1 10  2 -1</clus>
<clus scale="   81.807">  7  8 -1 -1</clus>
<clus scale="   85.646">  5  6 -1 -1</clus>
<clus scale="   92.485">  2  5  1 -1</clus>
<clus scale="  132.538">  1  9  2 -1</clus>
<clus scale="   48.067">  1  5  2 -1</clus>
</clustering>
</event>
<event>
10    2  0.2421970E-006  0.1372075E+03  0.7546771E-02  0.1228112E+00
         21   -1    0    0  503  502  0.00000000000E+00  0.00000000000E+00  0.45468697852E+03  0.45468697852E+03  0.00000000000E+00 0. -1.
          1   -1    0    0  502    0 -0.00000000000E+00 -0.00000000000E+00 -0.11404285934E+03  0.11404285934E+03  0.00000000000E+00 0. -1.
         23    2    1    2    0    0  0.43985548954E+02  0.21653767844E+02  0.89423193493E+02  0.14104613343E+03  0.97436594988E+02 0.  0.
         23    2    1    2    0    0  0.58818129237E+02  0.92194885631E+01 -0.37725405193E+02  0.11639480326E+03  0.92628142226E+02 0.  0.
        -11    1    4    4    0    0  0.43277627940E+01 -0.34805342725E+02  0.32746384460E+01  0.35225909072E+02  0.00000000000E+00 0.  1.
         11    1    4    4    0    0  0.54490366443E+02  0.44024831288E+02 -0.41000043639E+02  0.81168894186E+02  0.00000000000E+00 0. -1.
        -11    1    3    3    0    0  0.26299667960E+02 -0.24703072119E+02  0.83644072800E+02  0.91094704685E+02  0.00000000000E+00 0.  1.
         11    1    3    3    0    0  0.17685880993E+02  0.46356839963E+02  0.57791206926E+01  0.49951428747E+02  0.00000000000E+00 0. -1.
         21    1    1    2  503  501 -0.31184427887E+02  0.56157840915E+01  0.12128739130E+03  0.12535803470E+03  0.00000000000E+00 0.  1.
          1    1    1    2  501    0 -0.71619250303E+02 -0.36489040498E+02  0.16765893957E+03  0.18593086647E+03  0.00000000000E+00 0. -1.
<scales pt_clust_5="13000.00000" pt_clust_6="13000.00000" pt_clust_7="13000.00000" pt_clust_8="13000.00000" pt_clust_9="27.28877" pt_clust_10="110.15889"></scales>
<clustering>
<clus scale="   27.289">  9 10 -1 -1</clus>
<clus scale="   92.628">  5  6 -1 -1</clus>
<clus scale="   97.437">  7  8 -1 -1</clus>
<clus scale="  109.076">  2  7  1 -1</clus>
<clus scale="  110.159">  1  9  2 -1</clus>
<clus scale="  110.159">  1  5  2 -1</clus>
</clustering>
</event>
<event>
10    2  0.2421970E-006  0.1102042E+03  0.7546771E-02  0.1260709E+00
         -2   -1    0    0    0  501 -0.00000000000E+00  0.00000000000E+00  0.33077336035E+03  0.33077336035E+03  0.00000000000E+00 0.  1.
         21   -1    0    0  503  502  0.00000000000E+00 -0.00000000000E+00 -0.11953120015E+03  0.11953120015E+03  0.00000000000E+00 0.  1.
         23    2    1    2    0    0  0.71750475348E+02  0.31110207057E+01  0.24060376244E+03  0.26731307268E+03  0.91696778360E+02 0.  0.
         23    2    1    2    0    0 -0.12755499770E+02 -0.41409656889E+02 -0.90964899756E+01  0.10062135122E+03  0.90357333584E+02 0.  0.
        -11    1    3    3    0    0  0.57156603975E+02  0.44087438657E+02  0.16480724616E+03  0.17992222768E+03  0.00000000000E+00 0.  1.
         11    1    3    3    0    0  0.14593871372E+02 -0.40976417951E+02  0.75796516278E+02  0.87390844999E+02  0.00000000000E+00 0. -1.
        -13    1    4    4    0    0  0.11246196771E+02  0.25003065075E+02  0.67801070880E+01  0.28241813984E+02  0.00000000000E+00 0. -1.
         13    1    4    4    0    0 -0.24001696541E+02 -0.66412721964E+02 -0.15876597064E+02  0.72379537231E+02  0.00000000000E+00 0.  1.
         21    1    1    2  503  501 -0.27540642962E+02  0.27330701419E+02  0.68718796861E+01  0.39404022450E+02  0.00000000000E+00 0.  1.
         -2    1    1    2    0  502 -0.31454332616E+02  0.10967934764E+02 -0.27136991952E+02  0.42966114154E+02  0.00000000000E+00 0.  1.
<scales pt_clust_5="13000.00000" pt_clust_6="13000.00000" pt_clust_7="13000.00000" pt_clust_8="13000.00000" pt_clust_9="44.67236" pt_clust_10="33.31172"></scales>
<clustering>
<clus scale="   33.312">  2 10  1 -1</clus>
<clus scale="   44.672">  2  9  1 -1</clus>
<clus scale="   90.357">  7  8 -1 -1</clus>
<clus scale="   91.697">  5  6 -1 -1</clus>
<clus scale="  109.092">  2  7  1 -1</clus>
<clus scale="   33.312">  2  5  1 -1</clus>
</clustering>
</event>
<event>
10    2  0.2421970E-006  0.1252302E+03  0.7546771E-02  0.1235504E+00
          1   -1    0    0  502    0 -0.00000000000E+00  0.00000000000E+00  0.68371788543E+03  0.68371788543E+03  0.00000000000E+00 0. -1.
         21   -1    0    0  503  502  0.00000000000E+00 -0.00000000000E+00 -0.79668889993E+02  0.79668889993E+02  0.00000000000E+00 0.  1.
         23    2    1    2    0    0 -0.62897332758E+02 -0.22754219743E+02  0.35292824333E+03  0.37137688887E+03  0.94279476360E+02 0.  0.
         23    2    1    2    0    0  0.16219745458E+03  0.40514908799E+02  0.13187856063E+03  0.23179336256E+03  0.91579124616E+02 0.  0.
        -11    1    4    4    0    0  0.13748846646E+03 -0.63422468474E+01  0.94009483665E+02  0.16667658961E+03  0.00000000000E+00 0.  1.
         11    1    4    4    0    0  0.24708988117E+02  0.46857155647E+02  0.37869076968E+02  0.65116772950E+02  0.00000000000E+00 0. -1.
        -13    1    3    3    0    0  0.11358903515E+02 -0.30552582771E+02  0.18136174909E+03  0.18426765597E+03  0.00000000000E+00 0.  1.
         13    1    3    3    0    0 -0.74256236273E+02  0.77983630288E+01  0.17156649424E+03  0.18710923290E+03  0.00000000000E+00 0. -1.
         21    1    1    2  503  501 -0.38522857870E+02 -0.14451851223E+02  0.72922307610E+02  0.83728904981E+02  0.00000000000E+00 0.  1.
          1    1    1    2  501    0 -0.60777263948E+02 -0.33088378336E+01  0.46319883861E+02  0.76487619010E+02  0.00000000000E+00 0. -1.
<scales pt_clust_5="13000.00000" pt_clust_6="13000.00000" pt_clust_7="13000.00000" pt_clust_8="13000.00000" pt_clust_9="29.35378" pt_clust_10="107.00764"></scales>
<clustering>
<clus scale="   29.354">  9 10 -1 -1</clus>
<clus scale="   91.579">  5  6 -1 -1</clus>
<clus scale="   94.279">  7  8 -1 -1</clus>
<clus scale="  107.008">  2  9  1 -1</clus>
<clus scale="  123.210">  2  5  1 -1</clus>
<clus scale="  107.008">  2  5  1 -1</clus>
</clustering>
</event>
<event>
10    2  0.2421970E-006  0.1845518E+03  0.7546771E-02  0.1173345E+00
         21   -1    0    0  503  502  0.00000000000E+00  0.00000000000E+00  0.45946020990E+03  0.45946020990E+03  0.00000000000E+00 0.  1.
          1   -1    0    0  502    0 -0.00000000000E+00 -0.00000000000E+00 -0.26072798586E+03  0.26072798586E+03  0.00000000000E+00 0. -1.
         23    2    1    2    0    0  0.10826010206E+03 -0.40959551575E+02  0.17017485944E+02  0.14812432997E+03  0.90847607224E+02 0.  0.
         23    2    1    2    0    0 -0.52716860761E+02 -0.14940437082E+03  0.29110187075E+03  0.34415131275E+03  0.92731297218E+02 0.  0.
        -11    1    3    3    0    0  0.46696629050E+01 -0.41663771452E+02  0.14951396027E+02  0.44510895817E+02  0.00000000000E+00 0. -1.
         11    1    3    3    0    0  0.10359043915E+03  0.70421987682E+00  0.20660899170E+01  0.10361343415E+03  0.00000000000E+00 0.  1.
        -13    1    4    4    0    0 -0.36679819442E+02 -0.42310887893E+02  0.18205316929E+03  0.19047040935E+03  0.00000000000E+00 0. -1.
         13    1    4    4    0    0 -0.16037041319E+02 -0.10709348293E+03  0.10904870146E+03  0.15368090340E+03  0.00000000000E+00 0.  1.
         21    1    1    2  503  501 -0.34983798737E+02  0.75068143738E+02 -0.44066929077E+02  0.93813573733E+02  0.00000000000E+00 0. -1.
          1    1    1    2  501    0 -0.20559442557E+02  0.11529577866E+03 -0.65320203582E+02  0.13409897931E+03  0.00000000000E+00 0. -1.
<scales pt_clust_5="13000.00000" pt_clust_6="13000.00000" pt_clust_7="13000.00000" pt_clust_8="13000.00000" pt_clust_9="21.52381" pt_clust_10="161.60266"></scales>
<clustering>
<clus scale="   21.524">  9 10 -1 -1</clus>
<clus scale="   90.848">  5  6 -1 -1</clus>
<clus scale="   92.731">  7  8 -1 -1</clus>
<clus scale="  147.144">  2  5  1 -1</clus>
<clus scale="  161.603">  1  9  2 -1</clus>
<clus scale="  161.603">  1  5  2 -1</clus>
</clustering>
</event>
<event>
10    2  0.2421970E-006  0.1066293E+03  0.7546771E-02  0.1267053E+00
         21   -1    0    0  501  502  0.00000000000E+00  0.00000000000E+00  0.86855035250E+02  0.86855035250E+02  0.00000000000E+00 0. -1.
          1   -1    0    0  503    0 -0.00000000000E+00 -0.00000000000E+00 -0.66864892058E+03  0.66864892058E+03  0.00000000000E+00 0. -1.
         23    2    1    2    0    0  0.75245833958E+02  0.35656856065E+01 -0.42453218758E+03  0.44084927666E+03  0.91901342703E+02 0.  0.
         23    2    1    2    0    0 -0.98151461937E+01  0.46905308677E+02 -0.17312800683E+03  0.20190154730E+03  0.92165519451E+02 0.  0.
        -11    1    4    4    0    0  0.11775138405E+02  0.56247136251E+02 -0.16836153811E+03  0.17789885254E+03  0.00000000000E+00 0.  1.
         11    1    4    4    0    0 -0.21590284599E+02 -0.93418275740E+01 -0.47664687195E+01  0.24002694756E+02  0.00000000000E+00 0. -1.
        -13    1    3    3    0    0  0.47715192313E+02  0.47206503282E+02 -0.24936769751E+03  0.25824299040E+03  0.00000000000E+00 0. -1.
         13    1    3    3    0    0  0.27530641646E+02 -0.43640817676E+02 -0.17516449007E+03  0.18260628625E+03  0.00000000000E+00 0.  1.
         21    1    1    2  503  502 -0.28491696156E+02 -0.61348398651E+02  0.26747407227E+02  0.72738068164E+02  0.00000000000E+00 0. -1.
          1    1    1    2  501    0 -0.36938991608E+02  0.10877404367E+02 -0.10881098138E+02  0.40015063707E+02  0.00000000000E+00 0. -1.
<scales pt_clust_5="13000.00000" pt_clust_6="13000.00000" pt_clust_7="13000.00000" pt_clust_8="13000.00000" pt_clust_9="76.20742" pt_clust_10="38.50723"></scales>
<clustering>
<clus scale="   38.507">  1 10  2 -1</clus>
<clus scale="   76.207">  1  9  2 -1</clus>
<clus scale="   91.901">  7  8 -1 -1</clus>
<clus scale="   92.166">  5  6 -1 -1</clus>
<clus scale="  106.401">  2  7  1 -1</clus>
<clus scale="   38.507">  1  5  2 -1</clus>
</clustering>
</event>
<event>
10    2  0.2421970E-006  0.1216379E+03  0.7546771E-02  0.1245951E+00
          1   -1    0    0  503    0 -0.00000000000E+00  0.00000000000E+00  0.20064394081E+03  0.20064394081E+03  0.00000000000E+00 0. -1.
         21   -1    0    0  501  502  0.00000000000E+00 -0.00000000000E+00 -0.27011006371E+03  0.27011006371E+03  0.00000000000E+00 0.  1.
         23    2    1    2    0    0 -0.32231756447E+02 -0.34025777400E+02  0.82498633493E+02  0.13001260734E+03  0.88885397496E+02 0.  0.
         23    2    1    2    0    0  0.83764988970E+02 -0.63186291838E+02 -0.13189426149E+03  0.19816555763E+03  0.10423248612E+03 0.  0.
        -11    1    4    4    0    0  0.32758155947E+02 -0.85969948191E+02 -0.84093078807E+02  0.12464178543E+03  0.00000000000E+00 0.  1.
         11    1    4    4    0    0  0.51006833023E+02  0.22783656353E+02 -0.47801182685E+02  0.73523772196E+02  0.00000000000E+00 0. -1.
        -13    1    3    3    0    0 -0.49440373833E+02 -0.54486413783E+02  0.57041304156E+02  0.93095812105E+02  0.00000000000E+00 0. -1.
         13    1    3    3    0    0  0.17208617386E+02  0.20460636383E+02  0.25457329338E+02  0.36916795236E+02  0.00000000000E+00 0.  1.
         21    1    1    2  503  502 -0.41637780082E+02  0.23247958224E+01  0.93551210450E+01  0.42739065216E+02  0.00000000000E+00 0. -1.
          1    1    1    2  501    0 -0.98954524408E+01  0.94887273416E+02 -0.29425615953E+02  0.99836774334E+02  0.00000000000E+00 0. -1.
<scales pt_clust_5="13000.00000" pt_clust_6="13000.00000" pt_clust_7="13000.00000" pt_clust_8="13000.00000" pt_clust_9="41.70263" pt_clust_10="97.09452"></scales>
<clustering>
<clus scale="   41.703">  1  9  2 -1</clus>
<clus scale="   88.885">  7  8 -1 -1</clus>
<clus scale="   97.095">  2 10  1 -1</clus>
<clus scale="  104.232">  5  6 -1 -1</clus>
<clus scale="  108.775">  1  7  2 -1</clus>
<clus scale="   97.095">  2  5  1 -1</clus>
</clustering>
</event>
<event>
10    2  0.2421970E-006  0.9308312E+02  0.7546771E-02  0.1298606E+00
          1   -1    0    0  503    0 -0.00000000000E+00  0.00000000000E+00  0.64486523332E+03  0.64486523332E+03  0.00000000000E+00 0. -1.
         21   -1    0    0  501  502  0.00000000000E+00 -0.00000000000E+00 -0.22546585050E+02  0.22546585050E+02  0.00000000000E+00 0.  1.
         23    2    1    2    0    0 -0.12237660989E+02 -0.16195203493E+02  0.23158884799E+03  0.24794680351E+03  0.86210080017E+02 0.  0.
         23    2    1    2    0    0  0.22380533451E+02 -0.92267326911E+01  0.22135489763E+03  0.24071293844E+03  0.91425965424E+02 0.  0.
        -11    1    4    4    0    0  0.53889976588E+02 -0.29062559928E+01  0.18237928040E+03  0.19019668194E+03  0.00000000000E+00 0. -1.
         11    1    4    4    0    0 -0.31509443137E+02 -0.63204766983E+01  0.38975617226E+02  0.50516256498E+02  0.00000000000E+00 0.  1.
        -11    1    3    3    0    0  0.23586318803E+02 -0.15841308251E+02  0.23716672996E+02  0.37010026477E+02  0.00000000000E+00 0.  1.
         11    1    3    3    0    0 -0.35823979793E+02 -0.35389524222E+00  0.20787217499E+03  0.21093677704E+03  0.00000000000E+00 0. -1.
         21    1    1    2  503  502 -0.25038076706E+02 -0.16296156844E+01  0.58430817325E+02  0.63590261406E+02  0.00000000000E+00 0.  1.
          1    1    1    2  501    0  0.14895204245E+02  0.27051551869E+02  0.11094408533E+03  0.11516181501E+03  0.00000000000E+00 0. -1.
<scales pt_clust_5="13000.00000" pt_clust_6="13000.00000" pt_clust_7="13000.00000" pt_clust_8="13000.00000" pt_clust_9="25.09105" pt_clust_10="29.53955"></scales>
<clustering>
<clus scale="   25.091">  2  9  1 -1</clus>
<clus scale="   29.540">  2 10  1 -1</clus>
<clus scale="   86.210">  7  8 -1 -1</clus>
<clus scale="   87.966">  1  7  2 -1</clus>
<clus scale="   91.426">  5  6 -1 -1</clus>
<clus scale="   25.091">  2  5  1 -1</clus>
</clustering>
</event>
<event>
10    2  0.2421970E-006  0.9437013E+02  0.7546771E-02  0.1293103E+00
         21   -1    0    0  503  502  0.00000000000E+00  0.00000000000E+00  0.79833709370E+02  0.79833709370E+02  0.00000000000E+00 0. -1.
         -1   -1    0    0    0  501 -0.00000000000E+00 -0.00000000000E+00 -0.56891971063E+03  0.56891971063E+03  0.00000000000E+00 0.  1.
         23    2    1    2    0    0  0.31521927305E+02 -0.52972947030E+01 -0.28934405344E+03  0.30518371717E+03  0.91626561287E+02 0.  0.
         23    2    1    2    0    0  0.34267728985E+02 -0.14803405547E+01 -0.14074392176E+01  0.96998545969E+02  0.90720826589E+02 0.  0.
        -11    1    3    3    0    0  0.31237212027E+02 -0.39654733783E+02 -0.92634263133E+02  0.10549581998E+03  0.00000000000E+00 0.  1.
         11    1    3    3    0    0  0.28471527791E+00  0.34357439081E+02 -0.19670979030E+03  0.19968789719E+03  0.00000000000E+00 0. -1.
        -13    1    4    4    0    0 -0.92280510005E+01  0.36378339828E+02 -0.96420755692E+01  0.38749324578E+02  0.00000000000E+00 0.  1.
         13    1    4    4    0    0  0.43495779985E+02 -0.37858680383E+02  0.82346363516E+01  0.58249221391E+02  0.00000000000E+00 0. -1.
         21    1    1    2  503  501  0.24032119646E+02  0.34311346272E+02 -0.23341787221E+02  0.47954669098E+02  0.00000000000E+00 0. -1.
         -1    1    1    2    0  502 -0.89821775935E+02 -0.27533711014E+02 -0.17499272138E+03  0.19861648776E+03  0.00000000000E+00 0.  1.
<scales pt_clust_5="13000.00000" pt_clust_6="13000.00000" pt_clust_7="13000.00000" pt_clust_8="13000.00000" pt_clust_9="41.89047" pt_clust_10="88.28413"></scales>
<clustering>
<clus scale="   41.890">  1  9  2 -1</clus>
<clus scale="   88.284">  1 10  2 -1</clus>
<clus scale="   90.721">  7  8 -1 -1</clus>
<clus scale="   91.627">  5  6 -1 -1</clus>
<clus scale="   93.491">  1  7  2 -1</clus>
<clus scale="   41.890">  1  5  2 -1</clus>
</clustering>
</event>
<event>
10    2  0.2421970E-006  0.1327007E+03  0.7546771E-02  0.1224049E+00
         -1   -1    0    0    0  501 -0.00000000000E+00  0.00000000000E+00  0.37783441243E+02  0.37783441243E+02  0.00000000000E+00 0.  1.
         21   -1    0    0  501  502  0.00000000000E+00 -0.00000000000E+00 -0.86085249398E+03  0.86085249398E+03  0.00000000000E+00 0.  1.
         23    2    1    2    0    0 -0.11565430418E+03  0.49888286542E+02 -0.24751877493E+03  0.29269224279E+03  0.92403711153E+02 0.  0.
         23    2    1    2    0    0  0.44113244239E+02 -0.44924341642E+02 -0.30307624116E+03  0.32242974233E+03  0.90230571271E+02 0.  0.
        -11    1    4    4    0    0 -0.98088237222E+01 -0.40688162645E+02 -0.21527277248E+03  0.21930368481E+03  0.00000000000E+00 0.  1.
         11    1    4    4    0    0  0.53922067962E+02 -0.42361789973E+01 -0.87803468684E+02  0.10312605752E+03  0.00000000000E+00 0. -1.
        -13    1    3    3    0    0 -0.48370963296E+02  0.69932061777E+02 -0.11914635515E+03  0.14637655994E+03  0.00000000000E+00 0.  1.
         13    1    3    3    0    0 -0.67283340883E+02 -0.20043775236E+02 -0.12837241979E+03  0.14631568285E+03  0.00000000000E+00 0. -1.
         21    1    1    2  503  502  0.33693161907E+02 -0.14945752791E+02 -0.97981692040E+02  0.10468532209E+03  0.00000000000E+00 0.  1.
         -1    1    1    2    0  503  0.37847898034E+02  0.99818078911E+01 -0.17449234461E+03  0.17882862802E+03  0.00000000000E+00 0.  1.
<scales pt_clust_5="13000.00000" pt_clust_6="13000.00000" pt_clust_7="13000.00000" pt_clust_8="13000.00000" pt_clust_9="30.61452" pt_clust_10="78.34577"></scales>
<clustering>
<clus scale="   30.615">  9 10 -1 -1</clus>
<clus scale="   78.346">  2  9  1 -1</clus>
<clus scale="   90.231">  5  6 -1 -1</clus>
<clus scale="   92.404">  7  8 -1 -1</clus>
<clus scale="  131.197">  2  5  1 -1</clus>
<clus scale="   78.346">  2  5  1 -1</clus>
</clustering>
</event>
<event>
10    2  0.2421970E-006  0.9594594E+02  0.7546771E-02  0.1291505E+00
          1   -1    0    0  502    0 -0.00000000000E+00  0.00000000000E+00  0.54948983028E+03  0.54948983028E+03  0.00000000000E+00 0. -1.
         21   -1    0    0  503  502  0.00000000000E+00 -0.00000000000E+00 -0.49685873388E+02  0.49685873388E+02  0.00000000000E+00 0.  1.
         23    2    1    2    0    0  0.16086099287E+02  0.70295082997E+01  0.33956232069E+03  0.35165771351E+03  0.89735172922E+02 0.  0.
         23    2    1    2    0    0  0.27835268623E+02 -0.59894370792E+02  0.99055340529E+02  0.15176297264E+03  0.94116425480E+02 0.  0.
        -13    1    4    4    0    0 -0.25250641212E+02 -0.74413962987E+01  0.64217094879E+02  0.69403202629E+02  0.00000000000E+00 0. -1.
         13    1    4    4    0    0  0.53085909834E+02 -0.52452974494E+02  0.34838245650E+02  0.82359770010E+02  0.00000000000E+00 0.  1.
        -13    1    3    3    0    0  0.46664988749E+02  0.25882954890E+02  0.16419140135E+03  0.17264519919E+03  0.00000000000E+00 0.  1.
         13    1    3    3    0    0 -0.30578889462E+02 -0.18853446590E+02  0.17537091934E+03  0.17901251431E+03  0.00000000000E+00 0. -1.
         21    1    1    2  503  501 -0.24041493643E+02  0.15021354790E+02  0.12547851498E+02  0.31001340190E+02  0.00000000000E+00 0. -1.
          1    1    1    2  501    0 -0.19879874266E+02  0.37843507703E+02  0.48638444171E+02  0.64753677328E+02  0.00000000000E+00 0. -1.
<scales pt_clust_5="13000.00000" pt_clust_6="13000.00000" pt_clust_7="13000.00000" pt_clust_8="13000.00000" pt_clust_9="21.56838" pt_clust_10="73.65637"></scales>
<clustering>
<clus scale="   21.568">  9 10 -1 -1</clus>
<clus scale="   73.656">  2  9  1 -1</clus>
<clus scale="   89.735">  7  8 -1 -1</clus>
<clus scale="   91.652">  1  7  2 -1</clus>
<clus scale="   94.116">  5  6 -1 -1</clus>
<clus scale="   73.656">  2  5  1 -1</clus>
</clustering>
</event>
<event>
10    2  0.2421970E-006  0.1430175E+03  0.7546771E-02  0.1209543E+00
          1   -1    0    0  503    0 -0.00000000000E+00  0.00000000000E+00  0.83643816494E+03  0.83643816494E+03  0.00000000000E+00 0. -1.
         21   -1    0    0  501  502  0.00000000000E+00 -0.00000000000E+00 -0.46964009172E+03  0.46964009172E+03  0.00000000000E+00 0. -1.
         23    2    1    2    0    0  0.12300406955E+03  0.28532616702E+02  0.61541199430E+03  0.63454872226E+03  0.89308716498E+02 0.  0.
         23    2    1    2    0    0 -0.83827952277E+02  0.37635044331E+02  0.15689293815E+03  0.20210388788E+03  0.88244350001E+02 0.  0.
        -13    1    4    4    0    0 -0.60993736807E+02  0.59738622840E+02  0.14481120677E+03  0.16810480241E+03  0.00000000000E+00 0. -1.
         13    1    4    4    0    0 -0.22834215470E+02 -0.22103578509E+02  0.12081731385E+02  0.33999085462E+02  0.00000000000E+00 0.  1.
        -13    1    3    3    0    0  0.10551252446E+03  0.57113065444E+02  0.44607189689E+03  0.46192524531E+03  0.00000000000E+00 0. -1.
         13    1    3    3    0    0  0.17491545091E+02 -0.28580448742E+02  0.16934009741E+03  0.17262347694E+03  0.00000000000E+00 0.  1.
         21    1    1    2  503  502  0.41309246382E+02 -0.11880311965E+03 -0.14620012678E+03  0.19286034363E+03  0.00000000000E+00 0. -1.
          1    1    1    2  501    0 -0.80485363656E+02  0.52635458617E+02 -0.25930673246E+03  0.27656530290E+03  0.00000000000E+00 0. -1.
<scales pt_clust_5="13000.00000" pt_clust_6="13000.00000" pt_clust_7="13000.00000" pt_clust_8="13000.00000" pt_clust_9="79.07849" pt_clust_10="96.16853"></scales>
<clustering>
<clus scale="   88.244">  5  6 -1 -1</clus>
<clus scale="   89.309">  7  8 -1 -1</clus>
<clus scale="   96.169">  2 10  1 -1</clus>
<clus scale="   79.078">  2  9  1 -1</clus>
<clus scale="  142.355">  2  5  1 -1</clus>
<clus scale="   96.169">  2  5  1 -1</clus>
</clustering>
</event>
<event>
10    2  0.2421970E-006  0.1699926E+03  0.7546771E-02  0.1178525E+00
          2   -1    0    0  502    0 -0.00000000000E+00  0.00000000000E+00  0.63452656464E+03  0.63452656464E+03  0.00000000000E+00 0. -1.
         21   -1    0    0  503  502  0.00000000000E+00 -0.00000000000E+00 -0.12904760380E+03  0.12904760380E+03  0.00000000000E+00 0. -1.
         23    2    1    2    0    0 -0.47722751960E+02  0.12227969993E+03  0.43159115176E+03  0.46109784886E+03  0.95449032888E+02 0.  0.
         23    2    1    2    0    0  0.25295202273E+02 -0.19069889648E+03  0.77722265673E+02  0.22649038109E+03  0.90836258013E+02 0.  0.
        -11    1    3    3    0    0 -0.65783063040E+02  0.38405591418E+02  0.18842508596E+03  0.20323979397E+03  0.00000000000E+00 0. -1.
         11    1    3    3    0    0  0.18060311081E+02  0.83874108517E+02  0.24316606580E+03  0.25785805489E+03  0.00000000000E+00 0.  1.
        -11    1    4    4    0    0  0.46963439041E+02 -0.18078257006E+03  0.78594262777E+02  0.20264491206E+03  0.00000000000E+00 0. -1.
         11    1    4    4    0    0 -0.21668236767E+02 -0.99163264192E+01 -0.87199710379E+00  0.23845469029E+02  0.00000000000E+00 0.  1.
         21    1    1    2  503  501  0.16801816058E+02  0.28963518018E+02  0.79704139839E+01  0.34419673123E+02  0.00000000000E+00 0. -1.
          2    1    1    2  501    0  0.56257336288E+01  0.39455678524E+02 -0.11804870571E+02  0.41566265358E+02  0.00000000000E+00 0. -1.
<scales pt_clust_5="13000.00000" pt_clust_6="13000.00000" pt_clust_7="13000.00000" pt_clust_8="13000.00000" pt_clust_9="21.97887" pt_clust_10="75.88913"></scales>
<clustering>
<clus scale="   21.979">  9 10 -1 -1</clus>
<clus scale="   75.889">  2  9  1 -1</clus>
<clus scale="   90.836">  7  8 -1 -1</clus>
<clus scale="   95.449">  5  6 -1 -1</clus>
<clus scale="  167.446">  2  7  1 -1</clus>
<clus scale="   75.889">  2  5  1 -1</clus>
</clustering>
</event>
<event>
10    2  0.2421970E-006  0.3787076E+03  0.7546771E-02  0.1051431E+00
         21   -1    0    0  503  502  0.00000000000E+00  0.00000000000E+00  0.29089770203E+03  0.29089770203E+03  0.00000000000E+00 0. -1.
          2   -1    0    0  502    0 -0.00000000000E+00 -0.00000000000E+00 -0.14344757022E+04  0.14344757022E+04  0.00000000000E+00 0. -1.
         23    2    1    2    0    0 -0.30119154640E+03 -0.22275690529E+03 -0.12037150004E+04  0.12638995088E+04  0.90416700791E+02 0.  0.
         23    2    1    2    0    0  0.21111618398E+03  0.26163531321E+03  0.11941027709E+02  0.34812193096E+03  0.89572375311E+02 0.  0.
        -11    1    3    3    0    0 -0.28282297876E+02  0.40150475733E+01 -0.12893868643E+03  0.13206511212E+03  0.00000000000E+00 0.  1.
         11    1    3    3    0    0 -0.27290924853E+03 -0.22677195287E+03 -0.10747763140E+04  0.11318343967E+04  0.00000000000E+00 0. -1.
        -13    1    4    4    0    0  0.16385657030E+03  0.24600897479E+03 -0.47520576935E+01  0.29562133442E+03  0.00000000000E+00 0. -1.
         13    1    4    4    0    0  0.47259613683E+02  0.15626338414E+02  0.16693085403E+02  0.52500596549E+02  0.00000000000E+00 0.  1.
         21    1    1    2  503  501  0.40322916884E+02 -0.19163971949E+01  0.22877553497E+02  0.46400351919E+02  0.00000000000E+00 0.  1.
          2    1    1    2  501    0  0.49752445534E+02 -0.36962010716E+02  0.25318419031E+02  0.66951612490E+02  0.00000000000E+00 0. -1.
<scales pt_clust_5="13000.00000" pt_clust_6="13000.00000" pt_clust_7="13000.00000" pt_clust_8="13000.00000" pt_clust_9="24.22085" pt_clust_10="102.59540"></scales>
<clustering>
<clus scale="   24.221">  9 10 -1 -1</clus>
<clus scale="   89.572">  7  8 -1 -1</clus>
<clus scale="   90.417">  5  6 -1 -1</clus>
<clus scale="  102.595">  1  9  2 -1</clus>
<clus scale="  378.507">  1  7  2 -1</clus>
<clus scale="  102.595">  1  5  2 -1</clus>
</clustering>
</event>
<event>
10    2  0.2421970E-006  0.9056472E+02  0.7546771E-02  0.1302011E+00
         -1   -1    0    0    0  501 -0.00000000000E+00  0.00000000000E+00  0.41794250880E+02  0.41794250880E+02  0.00000000000E+00 0.  1.
         21   -1    0    0  503  502  0.00000000000E+00 -0.00000000000E+00 -0.52028929057E+03  0.52028929057E+03  0.00000000000E+00 0.  1.
         23    2    1    2    0    0 -0.98263907906E+01 -0.25058970780E+00 -0.71303532631E+02  0.11496323827E+03  0.89642242474E+02 0.  0.
         23    2    1    2    0    0 -0.10169771311E+02  0.66543019505E+01 -0.10300381886E+03  0.13765527549E+03  0.90506818458E+02 0.  0.
        -11    1    3    3    0    0  0.39384633136E+02 -0.69622068641E+01 -0.37965129355E+02  0.55145015175E+02  0.00000000000E+00 0. -1.
         11    1    3    3    0    0 -0.49211023927E+02  0.67116171563E+01 -0.33338403276E+02  0.59818223091E+02  0.00000000000E+00 0.  1.
        -11    1    4    4    0    0 -0.41461403206E+02 -0.15119363661E+02 -0.24722440267E+02  0.50584999417E+02  0.00000000000E+00 0.  1.
         11    1    4    4    0    0  0.31291631894E+02  0.21773665611E+02 -0.78281378597E+02  0.87070276076E+02  0.00000000000E+00 0. -1.
         21    1    1    2  503  501  0.78752425447E-01 -0.27628538071E+02 -0.16017711679E+03  0.16254245925E+03  0.00000000000E+00 0. -1.
         -1    1    1    2    0  502  0.19917409677E+02  0.21224825828E+02 -0.14401057140E+03  0.14692256844E+03  0.00000000000E+00 0.  1.
<scales pt_clust_5="13000.00000" pt_clust_6="13000.00000" pt_clust_7="13000.00000" pt_clust_8="13000.00000" pt_clust_9="27.62865" pt_clust_10="22.32773"></scales>
<clustering>
<clus scale="   27.629">  2  9  1 -1</clus>
<clus scale="   22.328">  2 10  1 -1</clus>
<clus scale="   89.642">  5  6 -1 -1</clus>
<clus scale="   89.701">  1  5  2 -1</clus>
<clus scale="   90.507">  7  8 -1 -1</clus>
<clus scale="   27.629">  2  5  1 -1</clus>
</clustering>
</event>
<event>
10    2  0.2421970E-006  0.1032039E+03  0.7546771E-02  0.1274810E+00
         21   -1    0    0  501  502  0.00000000000E+00  0.00000000000E+00  0.45062563532E+03  0.45062563532E+03  0.00000000000E+00 0. -1.
          1   -1    0    0  503    0 -0.00000000000E+00 -0.00000000000E+00 -0.19515609260E+03  0.19515609260E+03  0.00000000000E+00 0. -1.
         23    2    1    2    0    0 -0.92875228319E+01  0.42433735539E+02 -0.10929961859E+03  0.15562298205E+03  0.10190792867E+03 0.  0.
         23    2    1    2    0    0 -0.14175611664E+02  0.66391003740E+02  0.21250858908E+02  0.12247665175E+03  0.99700641307E+02 0.  0.
        -11    1    4    4    0    0  0.23186817819E+02 -0.34989317334E+01  0.34913728115E+02  0.42057573096E+02  0.00000000000E+00 0.  1.
         11    1    4    4    0    0 -0.37362429483E+02  0.69889935473E+02 -0.13662869207E+02  0.80419078659E+02  0.00000000000E+00 0. -1.
        -13    1    3    3    0    0 -0.45835602830E+02 -0.11653175581E+01 -0.78551764212E+02  0.90954054954E+02  0.00000000000E+00 0.  1.
         13    1    3    3    0    0  0.36548079998E+02  0.43599053097E+02 -0.30747854374E+02  0.64668927092E+02  0.00000000000E+00 0. -1.
         21    1    1    2  503  502  0.23299576492E+02 -0.47654327248E+01  0.37018812324E+02  0.43999682723E+02  0.00000000000E+00 0.  1.
          1    1    1    2  501    0  0.16355800367E+00 -0.10405930655E+03  0.30649949007E+03  0.32368241139E+03  0.00000000000E+00 0. -1.
<scales pt_clust_5="13000.00000" pt_clust_6="13000.00000" pt_clust_7="13000.00000" pt_clust_8="13000.00000" pt_clust_9="23.78192" pt_clust_10="109.22476"></scales>
<clustering>
<clus scale="   23.782">  1  9  2 -1</clus>
<clus scale="   99.701">  5  6 -1 -1</clus>
<clus scale="  101.908">  7  8 -1 -1</clus>
<clus scale="  109.225">  1 10  2 -1</clus>
<clus scale="  101.025">  1  5  2 -1</clus>
<clus scale="   23.782">  1  5  2 -1</clus>
</clustering>
</event>
<event>
10    2  0.2421970E-006  0.1300892E+03  0.7546771E-02  0.1228115E+00
         21   -1    0    0  501  502  0.00000000000E+00  0.00000000000E+00  0.46600246061E+02  0.46600246061E+02  0.00000000000E+00 0.  1.
          1   -1    0    0  503    0 -0.00000000000E+00 -0.00000000000E+00 -0.81718662477E+03  0.81718662477E+03  0.00000000000E+00 0. -1.
         23    2    1    2    0    0 -0.47604740852E+02  0.83293246582E+02 -0.48796019157E+03  0.50597246202E+03  0.93268469925E+02 0.  0.
         23    2    1    2    0    0 -0.12249365324E+02 -0.92360130342E+02 -0.20980520082E+03  0.24668025924E+03  0.90291125709E+02 0.  0.
        -11    1    4    4    0    0  0.21145214852E+02 -0.74533797363E+01 -0.10658178314E+03  0.10891441354E+03  0.00000000000E+00 0. -1.
         11    1    4    4    0    0 -0.33394580176E+02 -0.84906750606E+02 -0.10322341768E+03  0.13776584570E+03  0.00000000000E+00 0.  1.
        -13    1    3    3    0    0  0.25056502655E+02  0.26670012317E+02 -0.20946425536E+03  0.21263676106E+03  0.00000000000E+00 0. -1.
         13    1    3    3    0    0 -0.72661243507E+02  0.56623234265E+02 -0.27849593622E+03  0.29333570096E+03  0.00000000000E+00 0.  1.
         21    1    1    2  503  502  0.40321946874E+02  0.19453397114E+02 -0.76569136671E+02  0.88696824912E+02  0.00000000000E+00 0. -1.
          1    1    1    2  501    0  0.19532159303E+02 -0.10386513353E+02  0.37481503570E+01  0.22437324657E+02  0.00000000000E+00 0. -1.
<scales pt_clust_5="13000.00000" pt_clust_6="13000.00000" pt_clust_7="13000.00000" pt_clust_8="13000.00000" pt_clust_9="47.24664" pt_clust_10="22.12205"></scales>
<clustering>
<clus scale="   22.122">  1 10  2 -1</clus>
<clus scale="   47.247">  1  9  2 -1</clus>
<clus scale="   90.291">  5  6 -1 -1</clus>
<clus scale="   93.268">  7  8 -1 -1</clus>
<clus scale="  127.971">  1  5  2 -1</clus>
<clus scale="   22.122">  1  5  2 -1</clus>
</clustering>
</event>
<event>
10    2  0.2421970E-006  0.2558064E+03  0.7546771E-02  0.1149603E+00
         21   -1    0    0  501  502  0.00000000000E+00  0.00000000000E+00  0.24196354261E+03  0.24196354261E+03  0.00000000000E+00 0.  1.
          3   -1    0    0  503    0 -0.00000000000E+00 -0.00000000000E+00 -0.56344941546E+03  0.56344941546E+03  0.00000000000E+00 0. -1.
         23    2    1    2    0    0  0.18494145720E+02  0.40316650759E+02 -0.19579193059E+03  0.22009361018E+03  0.90217799814E+02 0.  0.
         23    2    1    2    0    0  0.16060065458E+03 -0.19449060057E+03  0.35598749995E+02  0.27056343590E+03  0.91203826024E+02 0.  0.
        -13    1    3    3    0    0 -0.11056686032E+02  0.56516318014E+02 -0.16379413568E+03  0.17362276173E+03  0.00000000000E+00 0. -1.
         13    1    3    3    0    0  0.29550831752E+02 -0.16199667255E+02 -0.31997794908E+02  0.46470848447E+02  0.00000000000E+00 0.  1.
        -13    1    4    4    0    0  0.18891697794E+02 -0.49533382969E+02 -0.25516110450E+02  0.58834719056E+02  0.00000000000E+00 0. -1.
         13    1    4    4    0    0  0.14170895678E+03 -0.14495721760E+03  0.61114860445E+02  0.21172871684E+03  0.00000000000E+00 0.  1.
         21    1    1    2  503  502 -0.49069548719E+02 -0.19647272827E+02 -0.25268503559E+02  0.58586117922E+02  0.00000000000E+00 0. -1.
          3    1    1    2  501    0 -0.13002525158E+03  0.17382122264E+03 -0.13602418870E+03  0.25616979408E+03  0.00000000000E+00 0. -1.
<scales pt_clust_5="13000.00000" pt_clust_6="13000.00000" pt_clust_7="13000.00000" pt_clust_8="13000.00000" pt_clust_9="52.85675" pt_clust_10="238.99549"></scales>
<clustering>
<clus scale="   52.857">  2  9  1 -1</clus>
<clus scale="   90.218">  5  6 -1 -1</clus>
<clus scale="   91.204">  7  8 -1 -1</clus>
<clus scale="   95.893">  2  5  1 -1</clus>
<clus scale="  238.995">  1 10  2 -1</clus>
<clus scale="  238.995">  1  5  2 -1</clus>
</clustering>
</event>
<event>
10    2  0.2421970E-006  0.1216582E+03  0.7546771E-02  0.1241155E+00
         21   -1    0    0  503  502  0.00000000000E+00  0.00000000000E+00  0.10128420389E+03  0.10128420389E+03  0.00000000000E+00 0.  1.
         -2   -1    0    0    0  501 -0.00000000000E+00 -0.00000000000E+00 -0.41156282903E+03  0.41156282903E+03  0.00000000000E+00 0.  1.
         23    2    1    2    0    0 -0.49411677909E+02  0.38906579833E+02 -0.15432912196E+03  0.19067887474E+03  0.92659157761E+02 0.  0.
         23    2    1    2    0    0  0.12666102312E+03  0.22263619332E+02 -0.51060013341E+02  0.16788682489E+03  0.95079847940E+02 0.  0.
        -13    1    4    4    0    0  0.12723663192E+03  0.20508152993E+01 -0.65421221234E+02  0.14308494866E+03  0.00000000000E+00 0.  1.
         13    1    4    4    0    0 -0.57560879224E+00  0.20212804033E+02  0.14361207894E+02  0.24801876230E+02  0.00000000000E+00 0. -1.
        -13    1    3    3    0    0 -0.63418845796E+02  0.30829134339E+01 -0.13130239796E+03  0.14584846269E+03  0.00000000000E+00 0.  1.
         13    1    3    3    0    0  0.14007167887E+02  0.35823666399E+02 -0.23026724002E+02  0.44830412052E+02  0.00000000000E+00 0. -1.
         21    1    1    2  503  501 -0.14286789910E+02 -0.41429426057E+02 -0.60700394497E+02  0.74866865845E+02  0.00000000000E+00 0. -1.
         -2    1    1    2    0  502 -0.62962555306E+02 -0.19740773108E+02 -0.44189095330E+02  0.79414467446E+02  0.00000000000E+00 0.  1.
<scales pt_clust_5="13000.00000" pt_clust_6="13000.00000" pt_clust_7="13000.00000" pt_clust_8="13000.00000" pt_clust_9="43.82362" pt_clust_10="70.94732"></scales>
<clustering>
<clus scale="   43.824">  2  9  1 -1</clus>
<clus scale="   70.947">  1 10  2 -1</clus>
<clus scale="   92.659">  7  8 -1 -1</clus>
<clus scale="   95.080">  5  6 -1 -1</clus>
<clus scale="  119.776">  2  7  1 -1</clus>
<clus scale="   70.947">  1  5  2 -1</clus>
</clustering>
</event>
<event>
10    2  0.2421970E-006  0.2459245E+03  0.7546771E-02  0.1115945E+00
         21   -1    0    0  503  502  0.00000000000E+00  0.00000000000E+00  0.18273984608E+03  0.18273984608E+03  0.00000000000E+00 0.  1.
          1   -1    0    0  502    0 -0.00000000000E+00 -0.00000000000E+00 -0.70657230993E+03  0.70657230993E+03  0.00000000000E+00 0. -1.
         23    2    1    2    0    0 -0.15850733853E+03  0.11486929039E+03 -0.23415218285E+03  0.31867698502E+03  0.91696487425E+02 0.  0.
         23    2    1    2    0    0  0.18653717564E+03 -0.25189425961E+03 -0.16747200534E+03  0.36686291157E+03  0.91075174405E+02 0.  0.
        -11    1    4    4    0    0  0.13002786923E+03 -0.99981718658E+02 -0.76352620218E+02  0.18092350167E+03  0.00000000000E+00 0.  1.
         11    1    4    4    0    0  0.56509306410E+02 -0.15191254095E+03 -0.91119385122E+02  0.18593940990E+03  0.00000000000E+00 0. -1.
        -11    1    3    3    0    0 -0.66922624080E+02  0.90923987856E+02 -0.82206625482E+02  0.13965578561E+03  0.00000000000E+00 0.  1.
         11    1    3    3    0    0 -0.91584714445E+02  0.23945302533E+02 -0.15194555737E+03  0.17902119941E+03  0.00000000000E+00 0. -1.
         21    1    1    2  503  501  0.72530442609E+01  0.58684865067E+02 -0.62627412620E+01  0.59462105303E+02  0.00000000000E+00 0. -1.
          1    1    1    2  501    0 -0.35282881371E+02  0.78340104155E+02 -0.11594553439E+03  0.14431015412E+03  0.00000000000E+00 0. -1.
<scales pt_clust_5="13000.00000" pt_clust_6="13000.00000" pt_clust_7="13000.00000" pt_clust_8="13000.00000" pt_clust_9="59.13138" pt_clust_10="90.55156"></scales>
<clustering>
<clus scale="   59.131">  1  9  2 -1</clus>
<clus scale="   90.552">  1 10  2 -1</clus>
<clus scale="   91.075">  5  6 -1 -1</clus>
<clus scale="   91.696">  7  8 -1 -1</clus>
<clus scale="  245.694">  1  5  2 -1</clus>
<clus scale="   59.131">  1  5  2 -1</clus>
</clustering>
</event>
<event>
10    2  0.2421970E-006  0.1034205E+03  0.7546771E-02  0.1274816E+00
          2   -1    0    0  503    0 -0.00000000000E+00  0.00000000000E+00  0.86251474384E+03  0.86251474384E+03  0.00000000000E+00 0. -1.
         21   -1    0    0  501  502  0.00000000000E+00 -0.00000000000E+00 -0.31271368150E+02  0.31271368150E+02  0.00000000000E+00 0.  1.
         23    2    1    2    0    0 -0.38327342850E+02 -0.22343971743E+02  0.34730221785E+03  0.36183192600E+03  0.91297721062E+02 0.  0.
         23    2    1    2    0    0  0.62773737262E+02 -0.26042712797E+02  0.29433570178E+03  0.31459200274E+03  0.87839955968E+02 0.  0.
        -13    1    3    3    0    0  0.12096666089E+02  0.23005111359E+02  0.44555577755E+02  0.51582593849E+02  0.00000000000E+00 0. -1.
         13    1    3    3    0    0 -0.50424008939E+02 -0.45349083101E+02  0.30274664009E+03  0.31024933216E+03  0.00000000000E+00 0.  1.
        -13    1    4    4    0    0 -0.11346503220E+02 -0.30357249306E+02  0.53289483298E+02  0.62370463771E+02  0.00000000000E+00 0.  1.
         13    1    4    4    0    0  0.74120240482E+02  0.43145365096E+01  0.24104621849E+03  0.25222153897E+03  0.00000000000E+00 0. -1.
         21    1    1    2  503  502 -0.56519363029E+02  0.48071616348E+02  0.13095553384E+03  0.15051468546E+03  0.00000000000E+00 0. -1.
          2    1    1    2  501    0  0.32072968617E+02  0.31506819112E+00  0.58649922221E+02  0.66847497787E+02  0.00000000000E+00 0. -1.
<scales pt_clust_5="13000.00000" pt_clust_6="13000.00000" pt_clust_7="13000.00000" pt_clust_8="13000.00000" pt_clust_9="65.91393" pt_clust_10="32.07452"></scales>
<clustering>
<clus scale="   32.075">  2 10  1 -1</clus>
<clus scale="   65.914">  2  9  1 -1</clus>
<clus scale="   87.840">  7  8 -1 -1</clus>
<clus scale="   91.298">  5  6 -1 -1</clus>
<clus scale="  100.381">  2  7  1 -1</clus>
<clus scale="   32.075">  2  5  1 -1</clus>
</clustering>
</event>
<event>
10    2  0.2421970E-006  0.2451256E+03  0.7546771E-02  0.1121837E+00
          2   -1    0    0  502    0 -0.00000000000E+00  0.00000000000E+00  0.32884864309E+03  0.32884864309E+03  0.00000000000E+00 0. -1.
         21   -1    0    0  503  502  0.00000000000E+00 -0.00000000000E+00 -0.82939076552E+03  0.82939076552E+03  0.00000000000E+00 0. -1.
         23    2    1    2    0    0  0.64058076422E+02 -0.18330254464E+03 -0.52875602561E+03  0.57043754650E+03  0.90071081981E+02 0.  0.
         23    2    1    2    0    0  0.17928783568E+03  0.14147505299E+03  0.16038806856E+03  0.29427730802E+03  0.93356750375E+02 0.  0.
        -13    1    4    4    0    0  0.32062316303E+02  0.41003116584E+02 -0.34657461107E+01  0.52165688843E+02  0.00000000000E+00 0.  1.
         13    1    4    4    0    0  0.14722551938E+03  0.10047193641E+03  0.16385381467E+03  0.24211161918E+03  0.00000000000E+00 0. -1.
        -13    1    3    3    0    0  0.59516072851E+02 -0.43677346287E+02 -0.20219860048E+03  0.21525368183E+03  0.00000000000E+00 0. -1.
         13    1    3    3    0    0  0.45420035713E+01 -0.13962519835E+03 -0.32655742514E+03  0.35518386467E+03  0.00000000000E+00 0.  1.
         21    1    1    2  503  501 -0.13070131949E+03  0.65966914866E+02 -0.65179535316E+02  0.16025866778E+03  0.00000000000E+00 0. -1.
          2    1    1    2  501    0 -0.11264459261E+03 -0.24139423221E+02 -0.66994630062E+02  0.13326588632E+03  0.00000000000E+00 0. -1.
<scales pt_clust_5="13000.00000" pt_clust_6="13000.00000" pt_clust_7="13000.00000" pt_clust_8="13000.00000" pt_clust_9="77.93944" pt_clust_10="243.08627"></scales>
<clustering>
<clus scale="   77.939">  9 10 -1 -1</clus>
<clus scale="   90.071">  7  8 -1 -1</clus>
<clus scale="   93.357">  5  6 -1 -1</clus>
<clus scale="  214.047">  1  7  2 -1</clus>
<clus scale="  243.086">  2  9  1 -1</clus>
<clus scale="  243.086">  2  5  1 -1</clus>
</clustering>
</event>
<event>
10    2  0.2421970E-006  0.1003428E+03  0.7546771E-02  0.1281092E+00
         21   -1    0    0  503  502  0.00000000000E+00  0.00000000000E+00  0.48910824180E+02  0.48910824180E+02  0.00000000000E+00 0. -1.
         -3   -1    0    0    0  501 -0.00000000000E+00 -0.00000000000E+00 -0.47071544098E+03  0.47071544098E+03  0.00000000000E+00 0.  1.
         23    2    1    2    0    0 -0.18172826489E+02 -0.80887968664E+01 -0.17321927405E+03  0.19494407671E+03  0.87192866015E+02 0.  0.
         23    2    1    2    0    0  0.79352265769E+02 -0.19196363533E+01 -0.21870756572E+03  0.24959984225E+03  0.90369324781E+02 0.  0.
        -13    1    4    4    0    0  0.48584952365E+02 -0.29086773846E+02 -0.48636968677E+02  0.74646451564E+02  0.00000000000E+00 0.  1.
         13    1    4    4    0    0  0.30767313404E+02  0.27167137493E+02 -0.17007059704E+03  0.17495339068E+03  0.00000000000E+00 0. -1.
        -13    1    3    3    0    0 -0.11350324404E+02 -0.36070348647E+02 -0.15781501418E+03  0.16228209580E+03  0.00000000000E+00 0.  1.
         13    1    3    3    0    0 -0.68225020846E+01  0.27981551781E+02 -0.15404259866E+02  0.32661980907E+02  0.00000000000E+00 0. -1.
         21    1    1    2  503  501 -0.20133106106E+02 -0.26773533697E+01 -0.24439823850E+02  0.31777589153E+02  0.00000000000E+00 0.  1.
         -3    1    1    2    0  502 -0.41046333174E+02  0.12685786589E+02 -0.54379531816E+01  0.43304757051E+02  0.00000000000E+00 0.  1.
<scales pt_clust_5="13000.00000" pt_clust_6="13000.00000" pt_clust_7="13000.00000" pt_clust_8="13000.00000" pt_clust_9="20.31035" pt_clust_10="50.80575"></scales>
<clustering>
<clus scale="   20.310">  1  9  2 -1</clus>
<clus scale="   50.806">  1 10  2 -1</clus>
<clus scale="   87.193">  7  8 -1 -1</clus>
<clus scale="   90.369">  5  6 -1 -1</clus>
<clus scale="   97.492">  2  7  1 -1</clus>
<clus scale="   20.310">  1  5  2 -1</clus>
</clustering>
</event>
<event>
10    2  0.2421970E-006  0.1637194E+03  0.7546771E-02  0.1185244E+00
         -1   -1    0    0    0  501 -0.00000000000E+00  0.00000000000E+00  0.12711588141E+03  0.12711588141E+03  0.00000000000E+00 0.  1.
         21   -1    0    0  503  502  0.00000000000E+00 -0.00000000000E+00 -0.48377815166E+03  0.48377815166E+03  0.00000000000E+00 0.  1.
         23    2    1    2    0    0  0.81045259425E+02 -0.98154881397E+02 -0.63273822906E+02  0.16762854029E+03  0.88842760189E+02 0.  0.
         23    2    1    2    0    0 -0.15216407977E+03  0.40333557099E+02 -0.69325778375E+02  0.19566376471E+03  0.93260614805E+02 0.  0.
        -13    1    3    3    0    0  0.42066526889E+02 -0.79135672549E+02 -0.80974193337E+02  0.12078438368E+03  0.00000000000E+00 0.  1.
         13    1    3    3    0    0  0.38978732537E+02 -0.19019208849E+02  0.17700370431E+02  0.46844156613E+02  0.00000000000E+00 0. -1.
        -13    1    4    4    0    0 -0.11421308858E+03  0.64614375782E+02 -0.27260900502E+02  0.13402538512E+03  0.00000000000E+00 0.  1.
         13    1    4    4    0    0 -0.37950991187E+02 -0.24280818682E+02 -0.42064877873E+02  0.61638379590E+02  0.00000000000E+00 0. -1.
         21    1    1    2  503  501  0.61438511595E+02  0.18370388240E+02 -0.14996017191E+03  0.16309572352E+03  0.00000000000E+00 0.  1.
         -1    1    1    2    0  502  0.96803087487E+01  0.39450936058E+02 -0.74102497064E+02  0.84506004547E+02  0.00000000000E+00 0.  1.
<scales pt_clust_5="13000.00000" pt_clust_6="13000.00000" pt_clust_7="13000.00000" pt_clust_8="13000.00000" pt_clust_9="73.35211" pt_clust_10="40.62124"></scales>
<clustering>
<clus scale="   40.621">  2 10  1 -1</clus>
<clus scale="   73.352">  2  9  1 -1</clus>
<clus scale="   88.843">  5  6 -1 -1</clus>
<clus scale="   93.261">  7  8 -1 -1</clus>
<clus scale="  161.244">  1  5  2 -1</clus>
<clus scale="   40.621">  2  5  1 -1</clus>
</clustering>
</event>
<event>
10    2  0.2421970E-006  0.3282097E+03  0.7546771E-02  0.1072265E+00
          2   -1    0    0  503    0 -0.00000000000E+00  0.00000000000E+00  0.26400825197E+03  0.26400825197E+03  0.00000000000E+00 0. -1.
         21   -1    0    0  501  502  0.00000000000E+00 -0.00000000000E+00 -0.81755445202E+03  0.81755445202E+03  0.00000000000E+00 0. -1.
         23    2    1    2    0    0 -0.21495728508E+03 -0.24775328437E+03  0.61635898243E+02  0.34603396303E+03  0.91390345726E+02 0.  0.
         23    2    1    2    0    0  0.14140964025E+03  0.22877271458E+03 -0.36071506415E+03  0.46124464659E+03  0.10147721523E+03 0.  0.
        -11    1    4    4    0    0  0.74376900763E+02  0.51450286247E+02 -0.70810881455E+02  0.11486181373E+03  0.00000000000E+00 0.  1.
         11    1    4    4    0    0  0.67032739490E+02  0.17732242834E+03 -0.28990418269E+03  0.34638283286E+03  0.00000000000E+00 0. -1.
        -13    1    3    3    0    0 -0.12153231667E+03 -0.10334315341E+03  0.69154008992E+02  0.17387405877E+03  0.00000000000E+00 0.  1.
         13    1    3    3    0    0 -0.93424968404E+02 -0.14441013096E+03 -0.75181107485E+01  0.17215990426E+03  0.00000000000E+00 0. -1.
         21    1    1    2  503  502  0.68347804566E+02 -0.12387206040E+02 -0.15484536070E+03  0.16971137556E+03  0.00000000000E+00 0. -1.
          2    1    1    2  501    0  0.51998402581E+01  0.31367775830E+02 -0.99621673444E+02  0.10457271881E+03  0.00000000000E+00 0. -1.
<scales pt_clust_5="13000.00000" pt_clust_6="13000.00000" pt_clust_7="13000.00000" pt_clust_8="13000.00000" pt_clust_9="69.72685" pt_clust_10="31.79584"></scales>
<clustering>
<clus scale="   31.796">  2 10  1 -1</clus>
<clus scale="   69.727">  2  9  1 -1</clus>
<clus scale="   91.390">  7  8 -1 -1</clus>
<clus scale="  101.477">  5  6 -1 -1</clus>
<clus scale="  325.232">  1  7  2 -1</clus>
<clus scale="   31.796">  2  5  1 -1</clus>
</clustering>
</event>
<event>
10    2  0.2421970E-006  0.1492749E+03  0.7546771E-02  0.1202116E+00
         -1   -1    0    0    0  501 -0.00000000000E+00  0.00000000000E+00  0.71586280568E+03  0.71586280568E+03  0.00000000000E+00 0.  1.
         21   -1    0    0  503  502  0.00000000000E+00 -0.00000000000E+00 -0.11831023356E+03  0.11831023356E+03  0.00000000000E+00 0. -1.
         23    2    1    2    0    0  0.91988726490E+02  0.32191293903E+02  0.40981274933E+03  0.43234130538E+03  0.97336065363E+02 0.  0.
         23    2    1    2    0    0 -0.19039353764E+03 -0.88477990257E+01  0.16753124588E+03  0.27047680091E+03  0.93610890190E+02 0.  0.
        -11    1    4    4    0    0 -0.16464353594E+03  0.23068351138E+02  0.15574703862E+03  0.22780865389E+03  0.00000000000E+00 0.  1.
         11    1    4    4    0    0 -0.25750001705E+02 -0.31916150163E+02  0.11784207254E+02  0.42668147015E+02  0.00000000000E+00 0. -1.
        -11    1    3    3    0    0  0.42569434845E+02  0.65189328904E+02  0.21474876110E+03  0.22842687184E+03  0.00000000000E+00 0. -1.
         11    1    3    3    0    0  0.49419291645E+02 -0.32998035002E+02  0.19506398823E+03  0.20391443354E+03  0.00000000000E+00 0.  1.
         21    1    1    2  503  501  0.95054278394E+02 -0.66442235485E+00  0.37964695244E+02  0.10235758586E+03  0.00000000000E+00 0. -1.
         -1    1    1    2    0  502  0.33505327578E+01 -0.22679072522E+02 -0.17756118329E+02  0.28997347092E+02  0.00000000000E+00 0.  1.
<scales pt_clust_5="13000.00000" pt_clust_6="13000.00000" pt_clust_7="13000.00000" pt_clust_8="13000.00000" pt_clust_9="96.55286" pt_clust_10="22.92524"></scales>
<clustering>
<clus scale="   22.925">  2 10  1 -1</clus>
<clus scale="   93.611">  5  6 -1 -1</clus>
<clus scale="   96.553">  2  9  1 -1</clus>
<clus scale="   97.336">  7  8 -1 -1</clus>
<clus scale="  146.873">  2  5  1 -1</clus>
<clus scale="   22.925">  2  5  1 -1</clus>
</clustering>
</event>
<event>
10    2  0.2421970E-006  0.1455977E+03  0.7546771E-02  0.1211852E+00
         -4   -1    0    0    0  501 -0.00000000000E+00  0.00000000000E+00  0.20348232670E+03  0.20348232670E+03  0.00000000000E+00 0.  1.
         21   -1    0    0  503  502  0.00000000000E+00 -0.00000000000E+00 -0.40354220648E+03  0.40354220648E+03  0.00000000000E+00 0.  1.
         23    2    1    2    0    0 -0.31228188326E+02 -0.82635241742E+02  0.57445184001E+02  0.13815504493E+03  0.89348107703E+02 0.  0.
         23    2    1    2    0    0 -0.39527142638E+02  0.11070148963E+03 -0.36038227328E-01  0.16279767081E+03  0.11263154759E+03 0.  0.
        -13    1    3    3    0    0  0.26900904445E+02 -0.30409615093E+02 -0.93523963038E+00  0.40611304131E+02  0.00000000000E+00 0.  1.
         13    1    3    3    0    0 -0.58129092771E+02 -0.52225626650E+02  0.58380423631E+02  0.97543740797E+02  0.00000000000E+00 0. -1.
        -13    1    4    4    0    0 -0.49396706353E+02  0.12898583889E+03  0.12243307724E+02  0.13866246722E+03  0.00000000000E+00 0.  1.
         13    1    4    4    0    0  0.98695637152E+01 -0.18284349253E+02 -0.12279345951E+02  0.24135203594E+02  0.00000000000E+00 0. -1.
         21    1    1    2  503  501 -0.40385218964E+02 -0.86003851368E+01 -0.12718775274E+03  0.13372231296E+03  0.00000000000E+00 0.  1.
         -4    1    1    2    0  502  0.11114054993E+03 -0.19465862753E+02 -0.13028127281E+03  0.17234950448E+03  0.00000000000E+00 0.  1.
<scales pt_clust_5="13000.00000" pt_clust_6="13000.00000" pt_clust_7="13000.00000" pt_clust_8="13000.00000" pt_clust_9="41.29083" pt_clust_10="92.01141"></scales>
<clustering>
<clus scale="   41.291">  2  9  1 -1</clus>
<clus scale="   89.348">  5  6 -1 -1</clus>
<clus scale="   92.011">  2 10  1 -1</clus>
<clus scale="  112.632">  7  8 -1 -1</clus>
<clus scale="  128.436">  1  5  2 -1</clus>
<clus scale="   41.291">  2  5  1 -1</clus>
</clustering>
</event>
<event>
10    2  0.2421970E-006  0.1392362E+03  0.7546771E-02  0.1215519E+00
          2   -1    0    0  503    0 -0.00000000000E+00  0.00000000000E+00  0.33290593722E+03  0.33290593722E+03  0.00000000000E+00 0. -1.
         21   -1    0    0  501  502  0.00000000000E+00 -0.00000000000E+00 -0.18192121614E+03  0.18192121614E+03  0.00000000000E+00 0. -1.
         23    2    1    2    0    0  0.89926729163E+02  0.69268826695E+02  0.21162098007E+03  0.25704162978E+03  0.91662278322E+02 0.  0.
         23    2    1    2    0    0 -0.19531178545E+02 -0.79490491473E+02  0.15939764142E+02  0.12760991462E+03  0.96591972015E+02 0.  0.
        -11    1    4    4    0    0  0.15664261558E+02 -0.88233159348E+02  0.17524423680E+02  0.91310267353E+02  0.00000000000E+00 0.  1.
         11    1    4    4    0    0 -0.35195440103E+02  0.87426678758E+01 -0.15846595380E+01  0.36299647264E+02  0.00000000000E+00 0. -1.
        -13    1    3    3    0    0  0.10245250981E+02  0.65236386018E+02  0.10011112795E+03  0.11992910059E+03  0.00000000000E+00 0.  1.
         13    1    3    3    0    0  0.79681478182E+02  0.40324406773E+01  0.11150985212E+03  0.13711252920E+03  0.00000000000E+00 0. -1.
         21    1    1    2  503  502 -0.34481918498E+01 -0.24629324846E+02 -0.34900112825E+01  0.25113220585E+02  0.00000000000E+00 0.  1.
          2    1    1    2  501    0 -0.66947358768E+02  0.34850989623E+02 -0.73086011851E+02  0.10506238838E+03  0.00000000000E+00 0. -1.
<scales pt_clust_5="13000.00000" pt_clust_6="13000.00000" pt_clust_7="13000.00000" pt_clust_8="13000.00000" pt_clust_9="24.86953" pt_clust_10="72.14065"></scales>
<clustering>
<clus scale="   24.870">  2  9  1 -1</clus>
<clus scale="   72.141">  2 10  1 -1</clus>
<clus scale="   91.662">  7  8 -1 -1</clus>
<clus scale="   96.592">  5  6 -1 -1</clus>
<clus scale="  135.863">  1  7  2 -1</clus>
<clus scale="   24.870">  2  5  1 -1</clus>
</clustering>
</event>
<event>
10    2  0.2421970E-006  0.9936071E+02  0.7546771E-02  0.1283183E+00
         21   -1    0    0  501  502  0.00000000000E+00  0.00000000000E+00  0.17963643148E+03  0.17963643148E+03  0.00000000000E+00 0. -1.
          1   -1    0    0  503    0 -0.00000000000E+00 -0.00000000000E+00 -0.40692410599E+03  0.40692410599E+03  0.00000000000E+00 0. -1.
         23    2    1    2    0    0 -0.70760483794E+01  0.41060621482E+02 -0.28550932718E+03  0.30400545023E+03  0.95748069260E+02 0.  0.
         23    2    1    2    0    0 -0.24977367946E+02  0.21409151438E+02 -0.48731728800E+02  0.10984444586E+03  0.92783620422E+02 0.  0.
        -13    1    4    4    0    0  0.29249692337E+02 -0.60156657949E+01  0.30361298778E+01  0.30015842840E+02  0.00000000000E+00 0. -1.
         13    1    4    4    0    0 -0.54227060284E+02  0.27424817233E+02 -0.51767858677E+02  0.79828603015E+02  0.00000000000E+00 0.  1.
        -13    1    3    3    0    0  0.38206579210E+02  0.20670575509E+02 -0.66461634215E+02  0.79398767052E+02  0.00000000000E+00 0.  1.
         13    1    3    3    0    0 -0.45282627590E+02  0.20390045973E+02 -0.21904769296E+03  0.22460668318E+03  0.00000000000E+00 0. -1.
         21    1    1    2  503  502 -0.27333674796E+02 -0.59936491601E+02  0.22856640934E+02  0.69727604563E+02  0.00000000000E+00 0.  1.
          1    1    1    2  501    0  0.59387091122E+02 -0.25332813187E+01  0.84096740529E+02  0.10298303683E+03  0.00000000000E+00 0. -1.
<scales pt_clust_5="13000.00000" pt_clust_6="13000.00000" pt_clust_7="13000.00000" pt_clust_8="13000.00000" pt_clust_9="61.47074" pt_clust_10="59.44110"></scales>
<clustering>
<clus scale="   59.441">  1 10  2 -1</clus>
<clus scale="   61.471">  1  9  2 -1</clus>
<clus scale="   92.784">  5  6 -1 -1</clus>
<clus scale="   95.748">  7  8 -1 -1</clus>
<clus scale="   96.507">  1  5  2 -1</clus>
<clus scale="   59.441">  1  5  2 -1</clus>
</clustering>
</event>
<event>
10    2  0.2421970E-006  0.1090444E+03  0.7546771E-02  0.1265678E+00
         21   -1    0    0  503  502  0.00000000000E+00  0.00000000000E+00  0.56891939340E+02  0.56891939340E+02  0.00000000000E+00 0.  1.
          1   -1    0    0  502    0 -0.00000000000E+00 -0.00000000000E+00 -0.44206267255E+03  0.44206267255E+03  0.00000000000E+00 0. -1.
         23    2    1    2    0    0  0.12551503906E+01 -0.80103815929E+02 -0.23302985572E+03  0.26536290675E+03  0.98470106584E+02 0.  0.
         23    2    1    2    0    0 -0.20776948583E+02  0.83131088652E+01 -0.10753951162E+03  0.14252161738E+03  0.90812309132E+02 0.  0.
        -11    1    3    3    0    0  0.21629900887E+02 -0.59492405836E+02 -0.22712999084E+03  0.23578641119E+03  0.00000000000E+00 0. -1.
         11    1    3    3    0    0 -0.20374750496E+02 -0.20611410093E+02 -0.58998648864E+01  0.29576495558E+02  0.00000000000E+00 0.  1.
        -13    1    4    4    0    0 -0.36789988763E+02 -0.31141538581E+02 -0.39789958594E+02  0.62502315983E+02  0.00000000000E+00 0.  1.
         13    1    4    4    0    0  0.16013040180E+02  0.39454647446E+02 -0.67749553024E+02  0.80019301396E+02  0.00000000000E+00 0. -1.
         21    1    1    2  503  501  0.13701156438E+02  0.31801847037E+02 -0.59192691527E+01  0.35130000142E+02  0.00000000000E+00 0.  1.
          1    1    1    2  501    0  0.58206417546E+01  0.39988860027E+02 -0.38682096717E+02  0.55940087622E+02  0.00000000000E+00 0. -1.
<scales pt_clust_5="13000.00000" pt_clust_6="13000.00000" pt_clust_7="13000.00000" pt_clust_8="13000.00000" pt_clust_9="25.67810" pt_clust_10="79.40075"></scales>
<clustering>
<clus scale="   25.678">  9 10 -1 -1</clus>
<clus scale="   79.401">  1  9  2 -1</clus>
<clus scale="   90.812">  7  8 -1 -1</clus>
<clus scale="   98.470">  5  6 -1 -1</clus>
<clus scale="  102.182">  1  7  2 -1</clus>
<clus scale="   79.401">  1  5  2 -1</clus>
</clustering>
</event>
<event>
10    2  0.2421970E-006  0.2068063E+03  0.7546771E-02  0.1144130E+00
         21   -1    0    0  501  502  0.00000000000E+00  0.00000000000E+00  0.20590591203E+03  0.20590591203E+03  0.00000000000E+00 0.  1.
         -2   -1    0    0    0  501 -0.00000000000E+00 -0.00000000000E+00 -0.48294329815E+03  0.48294329815E+03  0.00000000000E+00 0.  1.
         23    2    1    2    0    0  0.12606645903E+03  0.54631663088E+02 -0.96512544403E+02  0.19082505580E+03  0.90676126888E+02 0.  0.
         23    2    1    2    0    0 -0.20140664080E+03 -0.16138631403E+03 -0.21456352789E+03  0.34769201887E+03  0.90785765217E+02 0.  0.
        -11    1    4    4    0    0 -0.16960304964E+03 -0.13520798241E+03 -0.21649087906E+03  0.30645504347E+03  0.00000000000E+00 0.  1.
         11    1    4    4    0    0 -0.31803591161E+02 -0.26178331616E+02  0.19273511642E+01  0.41236975391E+02  0.00000000000E+00 0. -1.
        -13    1    3    3    0    0  0.10375263667E+03  0.79320823151E+02 -0.69365122327E+02  0.14787806733E+03  0.00000000000E+00 0.  1.
         13    1    3    3    0    0  0.22313822363E+02 -0.24689160063E+02 -0.27147422076E+02  0.42946988467E+02  0.00000000000E+00 0. -1.
         21    1    1    2  503  502 -0.99222377235E+01  0.30285684886E+02  0.62011417330E+01  0.32467332339E+02  0.00000000000E+00 0.  1.
         -2    1    1    2    0  503  0.85262419491E+02  0.76468966053E+02  0.27837544452E+02  0.11786480318E+03  0.00000000000E+00 0.  1.
<scales pt_clust_5="13000.00000" pt_clust_6="13000.00000" pt_clust_7="13000.00000" pt_clust_8="13000.00000" pt_clust_9="31.86963" pt_clust_10="120.08318"></scales>
<clustering>
<clus scale="   31.870">  1  9  2 -1</clus>
<clus scale="   90.676">  7  8 -1 -1</clus>
<clus scale="   90.786">  5  6 -1 -1</clus>
<clus scale="  120.083">  1 10  2 -1</clus>
<clus scale="  206.758">  2  7  1 -1</clus>
<clus scale="   31.870">  1  5  2 -1</clus>
</clustering>
</event>
<event>
10    2  0.2421970E-006  0.2205243E+03  0.7546771E-02  0.1133528E+00
         21   -1    0    0  503  502  0.00000000000E+00  0.00000000000E+00  0.47775697958E+02  0.47775697958E+02  0.00000000000E+00 0. -1.
          4   -1    0    0  502    0 -0.00000000000E+00 -0.00000000000E+00 -0.17992602174E+04  0.17992602174E+04  0.00000000000E+00 0. -1.
         23    2    1    2    0    0 -0.97444386101E+02  0.16928787010E+03 -0.90743880937E+03  0.93275062857E+03  0.91786442365E+02 0.  0.
         23    2    1    2    0    0  0.28037592331E+02 -0.22281959885E+03 -0.46305020818E+03  0.52267799119E+03  0.91335135431E+02 0.  0.
        -13    1    4    4    0    0 -0.30552743995E+02 -0.42759815426E+02 -0.11547473615E+03  0.12687114199E+03  0.00000000000E+00 0.  1.
         13    1    4    4    0    0  0.58590336326E+02 -0.18005978342E+03 -0.34757547204E+03  0.39580684920E+03  0.00000000000E+00 0. -1.
        -13    1    3    3    0    0  0.35389990071E+01  0.41843007299E+02 -0.90243651724E+02  0.99535312579E+02  0.00000000000E+00 0.  1.
         13    1    3    3    0    0 -0.10098338511E+03  0.12744486281E+03 -0.81719515764E+03  0.83321531599E+03  0.00000000000E+00 0. -1.
         21    1    1    2  503  501  0.43975530232E+02  0.19679175223E+02 -0.19792491016E+03  0.20370416603E+03  0.00000000000E+00 0. -1.
          4    1    1    2  501    0  0.25431263538E+02  0.33852553518E+02 -0.18307059177E+03  0.18790312961E+03  0.00000000000E+00 0. -1.
<scales pt_clust_5="13000.00000" pt_clust_6="13000.00000" pt_clust_7="13000.00000" pt_clust_8="13000.00000" pt_clust_9="21.29002" pt_clust_10="90.54673"></scales>
<clustering>
<clus scale="   21.290">  9 10 -1 -1</clus>
<clus scale="   90.547">  1  9  2 -1</clus>
<clus scale="   91.335">  5  6 -1 -1</clus>
<clus scale="   91.786">  7  8 -1 -1</clus>
<clus scale="  220.337">  1  5  2 -1</clus>
<clus scale="   90.547">  1  5  2 -1</clus>
</clustering>
</event>
<event>
10    2  0.2421970E-006  0.1091450E+03  0.7546771E-02  0.1262850E+00
          1   -1    0    0  503    0 -0.00000000000E+00  0.00000000000E+00  0.59355321930E+03  0.59355321930E+03  0.00000000000E+00 0. -1.
         21   -1    0    0  501  502  0.00000000000E+00 -0.00000000000E+00 -0.11350966511E+03  0.11350966511E+03  0.00000000000E+00 0.  1.
         23    2    1    2    0    0 -0.10972935469E+02  0.46691691413E+02  0.36465940778E+03  0.37832157295E+03  0.88601408096E+02 0.  0.
         23    2    1    2    0    0  0.29891926636E+02 -0.10937440175E+03  0.16841560416E+03  0.22223247275E+03  0.90372391701E+02 0.  0.
        -11    1    3    3    0    0  0.30700580464E+02 -0.80024160825E+01  0.10277834852E+03  0.10756371707E+03  0.00000000000E+00 0.  1.
         11    1    3    3    0    0 -0.41673515933E+02  0.54694107495E+02  0.26188105926E+03  0.27075785589E+03  0.00000000000E+00 0. -1.
        -11    1    4    4    0    0 -0.23320925602E+02 -0.34709020168E+02  0.16831442984E+02  0.45076369917E+02  0.00000000000E+00 0. -1.
         11    1    4    4    0    0  0.53212852238E+02 -0.74665381585E+02  0.15158416118E+03  0.17715610283E+03  0.00000000000E+00 0.  1.
         21    1    1    2  503  502  0.18358066594E+02  0.16762040443E+02  0.29955592307E+01  0.25039129058E+02  0.00000000000E+00 0.  1.
          1    1    1    2  501    0 -0.37277057760E+02  0.45920669897E+02 -0.56027016978E+02  0.81469709651E+02  0.00000000000E+00 0. -1.
<scales pt_clust_5="13000.00000" pt_clust_6="13000.00000" pt_clust_7="13000.00000" pt_clust_8="13000.00000" pt_clust_9="24.85930" pt_clust_10="62.37721"></scales>
<clustering>
<clus scale="   24.859">  2  9  1 -1</clus>
<clus scale="   62.377">  2 10  1 -1</clus>
<clus scale="   88.601">  5  6 -1 -1</clus>
<clus scale="   90.372">  7  8 -1 -1</clus>
<clus scale="  107.683">  1  5  2 -1</clus>
<clus scale="   24.859">  2  5  1 -1</clus>
</clustering>
</event>
<event>
10    2  0.2421970E-006  0.9997096E+02  0.7546771E-02  0.1280734E+00
          1   -1    0    0  502    0 -0.00000000000E+00  0.00000000000E+00  0.13801208843E+03  0.13801208843E+03  0.00000000000E+00 0. -1.
         21   -1    0    0  503  502  0.00000000000E+00 -0.00000000000E+00 -0.42793048826E+03  0.42793048826E+03  0.00000000000E+00 0. -1.
         23    2    1    2    0    0 -0.77914580784E+01  0.53090042580E+02  0.23949492733E+02  0.10859398218E+03  0.91322589339E+02 0.  0.
         23    2    1    2    0    0  0.62164743282E+02  0.17118391044E+02  0.16404352051E+02  0.11361594851E+03  0.92097700136E+02 0.  0.
        -11    1    4    4    0    0  0.62692565883E+02 -0.26122873727E+02  0.16956760585E+01  0.67938484426E+02  0.00000000000E+00 0. -1.
         11    1    4    4    0    0 -0.52782260099E+00  0.43241264771E+02  0.14708675993E+02  0.45677464084E+02  0.00000000000E+00 0.  1.
        -11    1    3    3    0    0  0.27090829737E+02  0.22923449837E+02  0.45489139287E+02  0.57694535282E+02  0.00000000000E+00 0. -1.
         11    1    3    3    0    0 -0.34882287816E+02  0.30166592743E+02 -0.21539646554E+02  0.50899446899E+02  0.00000000000E+00 0.  1.
         21    1    1    2  503  501 -0.22719921797E+02 -0.42131480074E+02 -0.11902142994E+03  0.12828623171E+03  0.00000000000E+00 0.  1.
          1    1    1    2  501    0 -0.31653363407E+02 -0.28076953550E+02 -0.21125081466E+03  0.21544641429E+03  0.00000000000E+00 0. -1.
<scales pt_clust_5="13000.00000" pt_clust_6="13000.00000" pt_clust_7="13000.00000" pt_clust_8="13000.00000" pt_clust_9="32.38770" pt_clust_10="95.24902"></scales>
<clustering>
<clus scale="   32.388">  9 10 -1 -1</clus>
<clus scale="   91.323">  7  8 -1 -1</clus>
<clus scale="   92.098">  5  6 -1 -1</clus>
<clus scale="   95.249">  2  9  1 -1</clus>
<clus scale="   99.257">  1  7  2 -1</clus>
<clus scale="   95.249">  2  5  1 -1</clus>
</clustering>
</event>
<event>
10    2  0.2421970E-006  0.1829401E+03  0.7546771E-02  0.1165078E+00
          2   -1    0    0  503    0 -0.00000000000E+00  0.00000000000E+00  0.57388781947E+03  0.57388781947E+03  0.00000000000E+00 0. -1.
         21   -1    0    0  501  502  0.00000000000E+00 -0.00000000000E+00 -0.58472746495E+03  0.58472746495E+03  0.00000000000E+00 0. -1.
         23    2    1    2    0    0  0.15412786946E+03  0.41992995574E+02  0.48251938264E+03  0.51619416183E+03  0.90070229641E+02 0.  0.
         23    2    1    2    0    0 -0.15662856642E+03 -0.43489205071E+00 -0.54927280248E+02  0.18921449288E+03  0.90842838189E+02 0.  0.
        -13    1    4    4    0    0 -0.12812970444E+03 -0.95636096623E+01 -0.78981391166E+02  0.15082023717E+03  0.00000000000E+00 0.  1.
         13    1    4    4    0    0 -0.28498861982E+02  0.91287176116E+01  0.24054110918E+02  0.38394255711E+02  0.00000000000E+00 0. -1.
        -13    1    3    3    0    0  0.17606539773E+02 -0.22012135895E+02  0.41974412799E+02  0.50560614111E+02  0.00000000000E+00 0. -1.
         13    1    3    3    0    0  0.13652132969E+03  0.64005131469E+02  0.44054496984E+03  0.46563354772E+03  0.00000000000E+00 0.  1.
         21    1    1    2  503  502  0.24461209759E+02  0.14833039979E+02 -0.34732967287E+02  0.44997209630E+02  0.00000000000E+00 0. -1.
          2    1    1    2  501    0 -0.21960512794E+02 -0.56391143503E+02 -0.40369878059E+03  0.40820942007E+03  0.00000000000E+00 0. -1.
<scales pt_clust_5="13000.00000" pt_clust_6="13000.00000" pt_clust_7="13000.00000" pt_clust_8="13000.00000" pt_clust_9="28.60716" pt_clust_10="45.49329"></scales>
<clustering>
<clus scale="   28.607">  2  9  1 -1</clus>
<clus scale="   45.493">  2 10  1 -1</clus>
<clus scale="   90.070">  7  8 -1 -1</clus>
<clus scale="   90.843">  5  6 -1 -1</clus>
<clus scale="  182.558">  1  7  2 -1</clus>
<clus scale="   28.607">  2  5  1 -1</clus>
</clustering>
</event>
<event>
10    2  0.2421970E-006  0.9927671E+02  0.7546771E-02  0.1282995E+00
         21   -1    0    0  501  502  0.00000000000E+00  0.00000000000E+00  0.31151521377E+02  0.31151521377E+02  0.00000000000E+00 0.  1.
          2   -1    0    0  503    0 -0.00000000000E+00 -0.00000000000E+00 -0.56855866919E+03  0.56855866919E+03  0.00000000000E+00 0. -1.
         23    2    1    2    0    0 -0.24024159978E+02 -0.56828649384E+01 -0.20226629189E+03  0.22349415634E+03  0.91807025140E+02 0.  0.
         23    2    1    2    0    0  0.35514978423E+02  0.47164880817E+02 -0.17507766761E+03  0.20527700939E+03  0.89446191721E+02 0.  0.
        -11    1    4    4    0    0 -0.37730829354E+01  0.55778787632E+02 -0.14392645589E+03  0.15440315415E+03  0.00000000000E+00 0.  1.
         11    1    4    4    0    0  0.39288061359E+02 -0.86139068152E+01 -0.31151211720E+02  0.50873855246E+02  0.00000000000E+00 0. -1.
        -13    1    3    3    0    0  0.12566509931E+01 -0.41593772152E+02 -0.14769949668E+03  0.15344954341E+03  0.00000000000E+00 0. -1.
         13    1    3    3    0    0 -0.25280810971E+02  0.35910907214E+02 -0.54566795207E+02  0.70044612922E+02  0.00000000000E+00 0.  1.
         21    1    1    2  503  502  0.14453915059E+02 -0.23215761647E+02 -0.59389971727E+02  0.65383912327E+02  0.00000000000E+00 0.  1.
          2    1    1    2  501    0 -0.25944733505E+02 -0.18266254232E+02 -0.10067321658E+03  0.10555511251E+03  0.00000000000E+00 0. -1.
<scales pt_clust_5="13000.00000" pt_clust_6="13000.00000" pt_clust_7="13000.00000" pt_clust_8="13000.00000" pt_clust_9="27.34753" pt_clust_10="32.52403"></scales>
<clustering>
<clus scale="   27.348">  2  9  1 -1</clus>
<clus scale="   32.524">  1 10  2 -1</clus>
<clus scale="   89.446">  5  6 -1 -1</clus>
<clus scale="   91.807">  7  8 -1 -1</clus>
<clus scale="   97.098">  1  5  2 -1</clus>
<clus scale="   32.524">  1  5  2 -1</clus>
</clustering>
</event>
<event>
10    2  0.2421970E-006  0.1152715E+03  0.7546771E-02  0.1252868E+00
         21   -1    0    0  501  502  0.00000000000E+00  0.00000000000E+00  0.20080236295E+03  0.20080236295E+03  0.00000000000E+00 0.  1.
          2   -1    0    0  503    0 -0.00000000000E+00 -0.00000000000E+00 -0.32822129181E+03  0.32822129181E+03  0.00000000000E+00 0. -1.
         23    2    1    2    0    0  0.19136849550E+02  0.25107174633E+02 -0.21726439881E+03  0.23625184106E+03  0.87261241024E+02 0.  0.
         23    2    1    2    0    0 -0.10072399219E+03 -0.43169897382E+02  0.34044306507E+01  0.14329842946E+03  0.92270727187E+02 0.  0.
        -13    1    3    3    0    0 -0.32168710680E+02  0.20363777411E+02 -0.63002235125E+02  0.73612437862E+02  0.00000000000E+00 0.  1.
         13    1    3    3    0    0  0.51305560229E+02  0.47433972218E+01 -0.15426216369E+03  0.16263940320E+03  0.00000000000E+00 0. -1.
        -13    1    4    4    0    0 -0.92594033469E+02  0.46979584406E+01  0.13545241599E+02  0.93697382127E+02  0.00000000000E+00 0.  1.
         13    1    4    4    0    0 -0.81299587185E+01 -0.47867855823E+02 -0.10140810948E+02  0.49601047333E+02  0.00000000000E+00 0. -1.
         21    1    1    2  503  502  0.37140446966E+02  0.12651590851E+02 -0.12247003852E+02  0.41103097879E+02  0.00000000000E+00 0.  1.
          2    1    1    2  501    0  0.44446695672E+02  0.54111318974E+01  0.98688043158E+02  0.10837028636E+03  0.00000000000E+00 0. -1.
<scales pt_clust_5="13000.00000" pt_clust_6="13000.00000" pt_clust_7="13000.00000" pt_clust_8="13000.00000" pt_clust_9="39.23615" pt_clust_10="45.39150"></scales>
<clustering>
<clus scale="   39.236">  2  9  1 -1</clus>
<clus scale="   45.391">  1 10  2 -1</clus>
<clus scale="   87.261">  5  6 -1 -1</clus>
<clus scale="   92.271">  7  8 -1 -1</clus>
<clus scale="  111.302">  2  5  1 -1</clus>
<clus scale="   45.391">  1  5  2 -1</clus>
</clustering>
</event>
<event>
10    2  0.2421970E-006  0.1026814E+03  0.7546771E-02  0.1276170E+00
          1   -1    0    0  503    0 -0.00000000000E+00  0.00000000000E+00  0.71801815347E+03  0.71801815347E+03  0.00000000000E+00 0. -1.
         21   -1    0    0  501  502  0.00000000000E+00 -0.00000000000E+00 -0.13290471032E+03  0.13290471032E+03  0.00000000000E+00 0.  1.
         23    2    1    2    0    0  0.28338079208E+02  0.60443819320E+02  0.51053931564E+03  0.52350129408E+03  0.94587050185E+02 0.  0.
         23    2    1    2    0    0 -0.31243312372E+02 -0.58301676916E+00 -0.36110002218E+02  0.10330028554E+03  0.91599848556E+02 0.  0.
        -11    1    3    3    0    0 -0.28903295038E+02 -0.34576031746E+01  0.15920396093E+03  0.16184330897E+03  0.00000000000E+00 0. -1.
         11    1    3    3    0    0  0.57241374246E+02  0.63901422495E+02  0.35133535471E+03  0.36165798511E+03  0.00000000000E+00 0.  1.
        -13    1    4    4    0    0  0.75449395863E+01 -0.40455314900E+02 -0.15806985173E+02  0.44084230710E+02  0.00000000000E+00 0.  1.
         13    1    4    4    0    0 -0.38788251959E+02  0.39872298131E+02 -0.20303017045E+02  0.59216054828E+02  0.00000000000E+00 0. -1.
         21    1    1    2  503  502  0.54391703733E+01 -0.38453612283E+02  0.16298710731E+03  0.16755017762E+03  0.00000000000E+00 0.  1.
          1    1    1    2  501    0 -0.25339372086E+01 -0.21407190268E+02 -0.52302977575E+02  0.56571106549E+02  0.00000000000E+00 0. -1.
<scales pt_clust_5="13000.00000" pt_clust_6="13000.00000" pt_clust_7="13000.00000" pt_clust_8="13000.00000" pt_clust_9="39.44270" pt_clust_10="21.55664"></scales>
<clustering>
<clus scale="   21.557">  2 10  1 -1</clus>
<clus scale="   39.443">  1  9  2 -1</clus>
<clus scale="   91.600">  7  8 -1 -1</clus>
<clus scale="   94.587">  5  6 -1 -1</clus>
<clus scale="   99.936">  2  7  1 -1</clus>
<clus scale="   21.557">  2  5  1 -1</clus>
</clustering>
</event>
<event>
10    2  0.2421970E-006  0.4616957E+03  0.7546771E-02  0.1049837E+00
         -4   -1    0    0    0  501 -0.00000000000E+00  0.00000000000E+00  0.25785467309E+03  0.25785467309E+03  0.00000000000E+00 0.  1.
         21   -1    0    0  501  502  0.00000000000E+00 -0.00000000000E+00 -0.13058734940E+04  0.13058734940E+04  0.00000000000E+00 0.  1.
         23    2    1    2    0    0 -0.51838503843E+02 -0.19158407561E+03 -0.17638134743E+03  0.28088208079E+03  0.91611544478E+02 0.  0.
         23    2    1    2    0    0 -0.41843370673E+03  0.54095245216E+02 -0.44331605108E+03  0.61807077713E+03  0.86425123190E+02 0.  0.
        -11    1    3    3    0    0 -0.67537036665E+01 -0.25804907093E+02 -0.79044049772E+02  0.83423423256E+02  0.00000000000E+00 0. -1.
         11    1    3    3    0    0 -0.45084800176E+02 -0.16577916852E+03 -0.97337297657E+02  0.19745865754E+03  0.00000000000E+00 0.  1.
        -11    1    4    4    0    0 -0.20288041018E+03 -0.12910029080E+02 -0.23721149255E+03  0.31240426034E+03  0.00000000000E+00 0. -1.
         11    1    4    4    0    0 -0.21555329655E+03  0.67005274296E+02 -0.20610455853E+03  0.30566651679E+03  0.00000000000E+00 0.  1.
         21    1    1    2  503  502  0.10966086530E+03  0.89405872077E+02 -0.15407225989E+03  0.20918216131E+03  0.00000000000E+00 0.  1.
         -4    1    1    2    0  503  0.36061134528E+03  0.48082958320E+02 -0.27424916247E+03  0.45559314782E+03  0.00000000000E+00 0.  1.
<scales pt_clust_5="13000.00000" pt_clust_6="13000.00000" pt_clust_7="13000.00000" pt_clust_8="13000.00000" pt_clust_9="84.61133" pt_clust_10="84.61133"></scales>
<clustering>
<clus scale="   84.611">  9 10 -1 -1</clus>
<clus scale="   86.425">  7  8 -1 -1</clus>
<clus scale="   91.612">  5  6 -1 -1</clus>
<clus scale="  218.596">  1  5  2 -1</clus>
<clus scale="  449.694">  1  7  2 -1</clus>
<clus scale="  461.696">  2  5  1 -1</clus>
</clustering>
</event>
<event>
10    2  0.2421970E-006  0.2182817E+03  0.7546771E-02  0.1169503E+00
          1   -1    0    0  503    0 -0.00000000000E+00  0.00000000000E+00  0.53036993898E+03  0.53036993898E+03  0.00000000000E+00 0. -1.
         21   -1    0    0  501  502  0.00000000000E+00 -0.00000000000E+00 -0.43097710655E+03  0.43097710655E+03  0.00000000000E+00 0. -1.
         23    2    1    2    0    0  0.12064031766E+02  0.30295516213E+02  0.39347990109E+03  0.40533385359E+03  0.91682829045E+02 0.  0.
         23    2    1    2    0    0 -0.88067698346E+02  0.17896404688E+03 -0.12601162109E+03  0.25323017023E+03  0.91992069751E+02 0.  0.
        -11    1    4    4    0    0  0.47018483638E+01  0.93158934308E+02 -0.54455365582E+02  0.10800963503E+03  0.00000000000E+00 0.  1.
         11    1    4    4    0    0 -0.92769546710E+02  0.85805112573E+02 -0.71556255508E+02  0.14522053520E+03  0.00000000000E+00 0. -1.
        -13    1    3    3    0    0 -0.25799875548E+02  0.48604438250E+02  0.20929205573E+03  0.21640515148E+03  0.00000000000E+00 0. -1.
         13    1    3    3    0    0  0.37863907314E+02 -0.18308922038E+02  0.18418784536E+03  0.18892870211E+03  0.00000000000E+00 0.  1.
         21    1    1    2  503  502 -0.23773929647E+02 -0.42241615731E+02 -0.46413006396E+01  0.48693895942E+02  0.00000000000E+00 0. -1.
          1    1    1    2  501    0  0.99777596227E+02 -0.16701794736E+03 -0.16343414693E+03  0.25408912577E+03  0.00000000000E+00 0. -1.
<scales pt_clust_5="13000.00000" pt_clust_6="13000.00000" pt_clust_7="13000.00000" pt_clust_8="13000.00000" pt_clust_9="48.47220" pt_clust_10="197.95035"></scales>
<clustering>
<clus scale="   48.472">  2  9  1 -1</clus>
<clus scale="   91.683">  7  8 -1 -1</clus>
<clus scale="   91.992">  5  6 -1 -1</clus>
<clus scale="   97.076">  1  7  2 -1</clus>
<clus scale="  197.950">  2 10  1 -1</clus>
<clus scale="   48.472">  2  5  1 -1</clus>
</clustering>
</event>
<event>
10    2  0.2421970E-006  0.1081107E+03  0.7546771E-02  0.1266354E+00
         21   -1    0    0  501  502  0.00000000000E+00  0.00000000000E+00  0.16973002422E+03  0.16973002422E+03  0.00000000000E+00 0.  1.
          2   -1    0    0  503    0 -0.00000000000E+00 -0.00000000000E+00 -0.20676357375E+03  0.20676357375E+03  0.00000000000E+00 0. -1.
         23    2    1    2    0    0  0.30605614923E+01  0.57551351462E+02 -0.13228509229E+03  0.17318591119E+03  0.95773112631E+02 0.  0.
         23    2    1    2    0    0  0.15059135469E+01 -0.28925202530E+02  0.19594059122E+02  0.97037785148E+02  0.90517785416E+02 0.  0.
        -11    1    3    3    0    0 -0.19957662852E+02  0.30962049908E+02 -0.55396931285E+00  0.36841060286E+02  0.00000000000E+00 0.  1.
         11    1    3    3    0    0  0.23018224344E+02  0.26589301554E+02 -0.13173112297E+03  0.13634485091E+03  0.00000000000E+00 0. -1.
        -11    1    4    4    0    0  0.33495100757E+02  0.11200054719E+02 -0.11370500367E+02  0.37103251597E+02  0.00000000000E+00 0. -1.
         11    1    4    4    0    0 -0.31989187210E+02 -0.40125257249E+02  0.30964559489E+02  0.59934533551E+02  0.00000000000E+00 0.  1.
         21    1    1    2  503  502 -0.14780787306E+02  0.15581790555E+02  0.49353277940E+02  0.53823878657E+02  0.00000000000E+00 0.  1.
          2    1    1    2  501    0  0.10214312267E+02 -0.44207939487E+02  0.26304205694E+02  0.52446022976E+02  0.00000000000E+00 0. -1.
<scales pt_clust_5="13000.00000" pt_clust_6="13000.00000" pt_clust_7="13000.00000" pt_clust_8="13000.00000" pt_clust_9="21.47705" pt_clust_10="39.37146"></scales>
<clustering>
<clus scale="   21.477">  1  9  2 -1</clus>
<clus scale="   39.371">  1 10  2 -1</clus>
<clus scale="   90.518">  7  8 -1 -1</clus>
<clus scale="   95.773">  5  6 -1 -1</clus>
<clus scale="  103.484">  1  7  2 -1</clus>
<clus scale="   21.477">  1  5  2 -1</clus>
</clustering>
</event>
<event>
10    2  0.2421970E-006  0.9696782E+02  0.7546771E-02  0.1288561E+00
         -4   -1    0    0    0  501 -0.00000000000E+00  0.00000000000E+00  0.10849058473E+03  0.10849058473E+03  0.00000000000E+00 0.  1.
         21   -1    0    0  503  502  0.00000000000E+00 -0.00000000000E+00 -0.71644927304E+03  0.71644927304E+03  0.00000000000E+00 0. -1.
         23    2    1    2    0    0 -0.19794060377E+02  0.97221835257E+01  0.58670774772E+02  0.11089717646E+03  0.91485508442E+02 0.  0.
         23    2    1    2    0    0  0.29444971610E+02  0.79026093935E+02 -0.21299860039E+03  0.24789344621E+03  0.94713394156E+02 0.  0.
        -11    1    3    3    0    0 -0.17753669918E+02  0.50363432119E+02  0.32402047345E+02  0.62462474835E+02  0.00000000000E+00 0.  1.
         11    1    3    3    0    0 -0.20403904592E+01 -0.40641248594E+02  0.26268727428E+02  0.48434701621E+02  0.00000000000E+00 0. -1.
        -13    1    4    4    0    0  0.55090130949E+02  0.70365780513E+02 -0.11174701886E+03  0.14308620416E+03  0.00000000000E+00 0.  1.
         13    1    4    4    0    0 -0.25645159340E+02  0.86603134214E+01 -0.10125158153E+03  0.10480724206E+03  0.00000000000E+00 0. -1.
         21    1    1    2  503  501 -0.29473604668E+02 -0.70733435180E+02 -0.27328080033E+03  0.28382090842E+03  0.00000000000E+00 0. -1.
         -4    1    1    2    0  502  0.19822693436E+02 -0.18014842280E+02 -0.18035006236E+03  0.18232832668E+03  0.00000000000E+00 0.  1.
<scales pt_clust_5="13000.00000" pt_clust_6="13000.00000" pt_clust_7="13000.00000" pt_clust_8="13000.00000" pt_clust_9="82.36923" pt_clust_10="26.78570"></scales>
<clustering>
<clus scale="   26.786">  2 10  1 -1</clus>
<clus scale="   82.369">  2  9  1 -1</clus>
<clus scale="   91.486">  5  6 -1 -1</clus>
<clus scale="   93.818">  1  5  2 -1</clus>
<clus scale="   94.713">  7  8 -1 -1</clus>
<clus scale="   26.786">  2  5  1 -1</clus>
</clustering>
</event>
<event>
10    2  0.2421970E-006  0.1479530E+03  0.7546771E-02  0.1215713E+00
         21   -1    0    0  501  502  0.00000000000E+00  0.00000000000E+00  0.38950617920E+03  0.38950617920E+03  0.00000000000E+00 0. -1.
          2   -1    0    0  503    0 -0.00000000000E+00 -0.00000000000E+00 -0.32918435657E+03  0.32918435657E+03  0.00000000000E+00 0. -1.
         23    2    1    2    0    0  0.36585434175E+02  0.53419756061E+02 -0.10456273487E+03  0.15346326910E+03  0.91790223380E+02 0.  0.
         23    2    1    2    0    0 -0.14562524443E+03 -0.48075966157E+02 -0.13212496020E+03  0.22212057513E+03  0.91446894143E+02 0.  0.
        -11    1    4    4    0    0 -0.43893289027E+02  0.20632075070E+02 -0.68273788896E+02  0.83747319918E+02  0.00000000000E+00 0. -1.
         11    1    4    4    0    0 -0.10173195541E+03 -0.68708041227E+02 -0.63851171309E+02  0.13837325521E+03  0.00000000000E+00 0.  1.
        -11    1    3    3    0    0  0.31186274871E+02  0.79147995254E+02 -0.70834470410E+02  0.11070009526E+03  0.00000000000E+00 0. -1.
         11    1    3    3    0    0  0.53991593042E+01 -0.25728239193E+02 -0.33728264461E+02  0.42763173838E+02  0.00000000000E+00 0.  1.
         21    1    1    2  503  502 -0.19876792023E+02  0.26410117147E+02  0.28828716367E+02  0.43859731374E+02  0.00000000000E+00 0.  1.
          2    1    1    2  501    0  0.12891660228E+03 -0.31753907051E+02  0.26818080134E+03  0.29924696016E+03  0.00000000000E+00 0. -1.
<scales pt_clust_5="13000.00000" pt_clust_6="13000.00000" pt_clust_7="13000.00000" pt_clust_8="13000.00000" pt_clust_9="33.05422" pt_clust_10="116.30805"></scales>
<clustering>
<clus scale="   33.054">  1  9  2 -1</clus>
<clus scale="   91.447">  5  6 -1 -1</clus>
<clus scale="   91.790">  7  8 -1 -1</clus>
<clus scale="  112.772">  2  7  1 -1</clus>
<clus scale="  116.308">  1 10  2 -1</clus>
<clus scale="   33.054">  1  5  2 -1</clus>
</clustering>
</event>
<event>
10    2  0.2421970E-006  0.3818759E+03  0.7546771E-02  0.1095839E+00
          1   -1    0    0  502    0 -0.00000000000E+00  0.00000000000E+00  0.75715280023E+03  0.75715280023E+03  0.00000000000E+00 0. -1.
         21   -1    0    0  503  502  0.00000000000E+00 -0.00000000000E+00 -0.28224808932E+03  0.28224808932E+03  0.00000000000E+00 0.  1.
         23    2    1    2    0    0  0.21522594830E+02 -0.55811091685E+02  0.20479531139E+02  0.11183347794E+03  0.92245409362E+02 0.  0.
         23    2    1    2    0    0 -0.22487695454E+03  0.34328870032E+03  0.37455327236E+03  0.56306038890E+03  0.91269224085E+02 0.  0.
        -13    1    4    4    0    0 -0.20762865000E+03  0.26469513390E+03  0.27142354841E+03  0.43225445381E+03  0.00000000000E+00 0.  1.
         13    1    4    4    0    0 -0.17248304538E+02  0.78593566418E+02  0.10312972395E+03  0.13080593508E+03  0.00000000000E+00 0. -1.
        -13    1    3    3    0    0  0.37259423424E+02 -0.35934689511E+02  0.50652294004E+02  0.72423900972E+02  0.00000000000E+00 0.  1.
         13    1    3    3    0    0 -0.15736828594E+02 -0.19876402174E+02 -0.30172762865E+02  0.39409576964E+02  0.00000000000E+00 0. -1.
         21    1    1    2  503  501  0.12501542481E+03 -0.17451004632E+03  0.23594429645E+02  0.21596136187E+03  0.00000000000E+00 0. -1.
          1    1    1    2  501    0  0.78338934895E+02 -0.11296756231E+03  0.56277477766E+02  0.14854566085E+03  0.00000000000E+00 0. -1.
<scales pt_clust_5="13000.00000" pt_clust_6="13000.00000" pt_clust_7="13000.00000" pt_clust_8="13000.00000" pt_clust_9="39.92800" pt_clust_10="374.15053"></scales>
<clustering>
<clus scale="   39.928">  9 10 -1 -1</clus>
<clus scale="   91.269">  5  6 -1 -1</clus>
<clus scale="   92.245">  7  8 -1 -1</clus>
<clus scale="  109.942">  1  7  2 -1</clus>
<clus scale="  374.151">  2  9  1 -1</clus>
<clus scale="  374.151">  2  5  1 -1</clus>
</clustering>
</event>
<event>
10    2  0.2421970E-006  0.1136859E+03  0.7546771E-02  0.1254904E+00
         -3   -1    0    0    0  501 -0.00000000000E+00  0.00000000000E+00  0.60177005450E+02  0.60177005450E+02  0.00000000000E+00 0.  1.
         21   -1    0    0  503  502  0.00000000000E+00 -0.00000000000E+00 -0.78556308136E+03  0.78556308136E+03  0.00000000000E+00 0. -1.
         23    2    1    2    0    0 -0.55973657443E+02  0.40893154351E+02 -0.28416788673E+03  0.30679233810E+03  0.92546477329E+02 0.  0.
         23    2    1    2    0    0 -0.61339747848E+02 -0.89283783994E+02 -0.25966308007E+03  0.29532248292E+03  0.89756866100E+02 0.  0.
        -13    1    4    4    0    0 -0.24028862349E+02 -0.94646076513E+02 -0.21950449204E+03  0.24024464208E+03  0.00000000000E+00 0. -1.
         13    1    4    4    0    0 -0.37310885499E+02  0.53622925188E+01 -0.40158588038E+02  0.55077840834E+02  0.00000000000E+00 0.  1.
        -13    1    3    3    0    0 -0.66161380945E+02  0.62699233274E+02 -0.21371322846E+03  0.23233997978E+03  0.00000000000E+00 0. -1.
         13    1    3    3    0    0  0.10187723502E+02 -0.21806078923E+02 -0.70454658268E+02  0.74452358323E+02  0.00000000000E+00 0.  1.
         21    1    1    2  503  501  0.64887652201E+02 -0.24028022977E+02 -0.53573661984E+02  0.87509374096E+02  0.00000000000E+00 0.  1.
         -3    1    1    2    0  502  0.52425753089E+02  0.72418652620E+02 -0.12798144712E+03  0.15611589170E+03  0.00000000000E+00 0.  1.
<scales pt_clust_5="13000.00000" pt_clust_6="13000.00000" pt_clust_7="13000.00000" pt_clust_8="13000.00000" pt_clust_9="69.19359" pt_clust_10="97.88953"></scales>
<clustering>
<clus scale="   69.194">  1  9  2 -1</clus>
<clus scale="   89.757">  5  6 -1 -1</clus>
<clus scale="   92.546">  7  8 -1 -1</clus>
<clus scale="   97.890">  2 10  1 -1</clus>
<clus scale="  111.427">  2  5  1 -1</clus>
<clus scale="   97.890">  2  5  1 -1</clus>
</clustering>
</event>
<event>
10    2  0.2421970E-006  0.1020511E+03  0.7546771E-02  0.1277923E+00
         21   -1    0    0  501  502  0.00000000000E+00  0.00000000000E+00  0.32108114841E+03  0.32108114841E+03  0.00000000000E+00 0. -1.
          2   -1    0    0  503    0 -0.00000000000E+00 -0.00000000000E+00 -0.29493608357E+03  0.29493608357E+03  0.00000000000E+00 0. -1.
         23    2    1    2    0    0  0.89462812554E+01 -0.54998860269E+02 -0.20901929920E+03  0.23342172799E+03  0.87702480458E+02 0.  0.
         23    2    1    2    0    0  0.62757845808E+02 -0.40450371780E+01  0.23564724894E+01  0.11124517966E+03  0.91733458992E+02 0.  0.
        -11    1    3    3    0    0 -0.25364152009E+02 -0.57351027324E+02 -0.91153180514E+02  0.11064078299E+03  0.00000000000E+00 0. -1.
         11    1    3    3    0    0  0.34310433264E+02  0.23521670541E+01 -0.11786611869E+03  0.12278094500E+03  0.00000000000E+00 0.  1.
        -13    1    4    4    0    0  0.14255412651E+02  0.41539057034E+02 -0.53396823128E+01  0.44240504703E+02  0.00000000000E+00 0.  1.
         13    1    4    4    0    0  0.48502433157E+02 -0.45584094212E+02  0.76961548022E+01  0.67004674957E+02  0.00000000000E+00 0. -1.
         21    1    1    2  503  502 -0.29632257105E+02  0.82323772908E+02  0.11815821248E+03  0.14702597534E+03  0.00000000000E+00 0. -1.
          2    1    1    2  501    0 -0.42071869958E+02 -0.23279875461E+02  0.11464967906E+03  0.12432434899E+03  0.00000000000E+00 0. -1.
<scales pt_clust_5="13000.00000" pt_clust_6="13000.00000" pt_clust_7="13000.00000" pt_clust_8="13000.00000" pt_clust_9="88.17224" pt_clust_10="48.08321"></scales>
<clustering>
<clus scale="   48.083">  1 10  2 -1</clus>
<clus scale="   87.702">  5  6 -1 -1</clus>
<clus scale="   88.172">  1  9  2 -1</clus>
<clus scale="   91.733">  7  8 -1 -1</clus>
<clus scale="   98.443">  2  5  1 -1</clus>
<clus scale="   48.083">  1  5  2 -1</clus>
</clustering>
</event>
<event>
10    2  0.2421970E-006  0.1185350E+03  0.7546771E-02  0.1245949E+00
         21   -1    0    0  501  502  0.00000000000E+00  0.00000000000E+00  0.22098539510E+03  0.22098539510E+03  0.00000000000E+00 0.  1.
          2   -1    0    0  503    0 -0.00000000000E+00 -0.00000000000E+00 -0.25672004116E+03  0.25672004116E+03  0.00000000000E+00 0. -1.
         23    2    1    2    0    0 -0.75334048296E+02  0.33275148424E+02 -0.15888394940E+03  0.20297038765E+03  0.95762281469E+02 0.  0.
         23    2    1    2    0    0  0.42074242047E+02  0.45810339205E+00  0.54837752543E+01  0.10362359764E+03  0.94537434349E+02 0.  0.
        -11    1    4    4    0    0  0.19529695042E+02 -0.46437087454E+02  0.10125221535E+02  0.51384162840E+02  0.00000000000E+00 0.  1.
         11    1    4    4    0    0  0.22544547005E+02  0.46895190846E+02 -0.46414462809E+01  0.52239434795E+02  0.00000000000E+00 0. -1.
        -13    1    3    3    0    0 -0.94261076853E+02  0.12166447791E+02 -0.13881639069E+03  0.16823544034E+03  0.00000000000E+00 0. -1.
         13    1    3    3    0    0  0.18927028557E+02  0.21108700634E+02 -0.20067558706E+02  0.34734947314E+02  0.00000000000E+00 0.  1.
         21    1    1    2  503  502  0.73205111852E+02 -0.28206642230E+02  0.99961631935E+02  0.12707057459E+03  0.00000000000E+00 0.  1.
          2    1    1    2  501    0 -0.39945305603E+02 -0.55266095866E+01  0.17703896151E+02  0.44040876379E+02  0.00000000000E+00 0. -1.
<scales pt_clust_5="13000.00000" pt_clust_6="13000.00000" pt_clust_7="13000.00000" pt_clust_8="13000.00000" pt_clust_9="58.55311" pt_clust_10="40.32581"></scales>
<clustering>
<clus scale="   40.326">  1 10  2 -1</clus>
<clus scale="   58.553">  1  9  2 -1</clus>
<clus scale="   94.537">  5  6 -1 -1</clus>
<clus scale="   95.762">  7  8 -1 -1</clus>
<clus scale="  117.548">  1  5  2 -1</clus>
<clus scale="   40.326">  1  5  2 -1</clus>
</clustering>
</event>
<event>
10    2  0.2421970E-006  0.1544951E+03  0.7546771E-02  0.1212787E+00
         21   -1    0    0  503  502  0.00000000000E+00  0.00000000000E+00  0.61712077687E+03  0.61712077687E+03  0.00000000000E+00 0.  1.
          3   -1    0    0  502    0 -0.00000000000E+00 -0.00000000000E+00 -0.71338641107E+02  0.71338641107E+02  0.00000000000E+00 0. -1.
         23    2    1    2    0    0  0.44902435221E+02 -0.12373139279E+02  0.19668668861E+03  0.22313902562E+03  0.94530672336E+02 0.  0.
         23    2    1    2    0    0  0.86106570874E+02 -0.49397139062E+02  0.90834857725E+02  0.16100431611E+03  0.88413797194E+02 0.  0.
        -11    1    4    4    0    0  0.20908779626E+02  0.25813013271E+02  0.26415852291E+02  0.42441559489E+02  0.00000000000E+00 0.  1.
         11    1    4    4    0    0  0.65197791248E+02 -0.75210152333E+02  0.64419005434E+02  0.11856275663E+03  0.00000000000E+00 0. -1.
        -11    1    3    3    0    0 -0.19985518617E+02 -0.12768080734E+02  0.12163442595E+03  0.12392489022E+03  0.00000000000E+00 0.  1.
         11    1    3    3    0    0  0.64887953838E+02  0.39494145443E+00  0.75052262660E+02  0.99214135396E+02  0.00000000000E+00 0. -1.
         21    1    1    2  503  501 -0.53772709368E+02 -0.10946554482E+02  0.89528984715E+02  0.10500843029E+03  0.00000000000E+00 0. -1.
          3    1    1    2  501    0 -0.77236296727E+02  0.72716832823E+02  0.16873160471E+03  0.19930764596E+03  0.00000000000E+00 0. -1.
<scales pt_clust_5="13000.00000" pt_clust_6="13000.00000" pt_clust_7="13000.00000" pt_clust_8="13000.00000" pt_clust_9="50.50451" pt_clust_10="144.85352"></scales>
<clustering>
<clus scale="   50.505">  9 10 -1 -1</clus>
<clus scale="   88.414">  5  6 -1 -1</clus>
<clus scale="   94.531">  7  8 -1 -1</clus>
<clus scale="  105.382">  2  7  1 -1</clus>
<clus scale="  144.854">  1  9  2 -1</clus>
<clus scale="  144.854">  1  5  2 -1</clus>
</clustering>
</event>
<event>
10    2  0.2421970E-006  0.1571546E+03  0.7546771E-02  0.1193391E+00
          1   -1    0    0  503    0 -0.00000000000E+00  0.00000000000E+00  0.58340431069E+02  0.58340431069E+02  0.00000000000E+00 0. -1.
         21   -1    0    0  501  502  0.00000000000E+00 -0.00000000000E+00 -0.81329144074E+03  0.81329144074E+03  0.00000000000E+00 0.  1.
         23    2    1    2    0    0  0.99496568254E+02  0.92725597019E+02 -0.17293929668E+03  0.23475142402E+03  0.81869574963E+02 0.  0.
         23    2    1    2    0    0 -0.12064697985E+03 -0.35757417495E+02 -0.25857207830E+03  0.30152280040E+03  0.90676308011E+02 0.  0.
        -13    1    4    4    0    0 -0.10422015725E+03  0.93573348489E+01 -0.20058966697E+03  0.22624238195E+03  0.00000000000E+00 0.  1.
         13    1    4    4    0    0 -0.16426822600E+02 -0.45114752344E+02 -0.57982411325E+02  0.75280418456E+02  0.00000000000E+00 0. -1.
        -13    1    3    3    0    0  0.23428799935E+02  0.67192957471E+02 -0.11699055740E+03  0.13693280367E+03  0.00000000000E+00 0.  1.
         13    1    3    3    0    0  0.76067768319E+02  0.25532639548E+02 -0.55948739276E+02  0.97818620344E+02  0.00000000000E+00 0. -1.
         21    1    1    2  503  502  0.32405694927E+02 -0.37558092740E+01 -0.91991340698E+02  0.97604517982E+02  0.00000000000E+00 0. -1.
          1    1    1    2  501    0 -0.11255283333E+02 -0.53212370250E+02 -0.23144829399E+03  0.23775312941E+03  0.00000000000E+00 0. -1.
<scales pt_clust_5="13000.00000" pt_clust_6="13000.00000" pt_clust_7="13000.00000" pt_clust_8="13000.00000" pt_clust_9="32.62262" pt_clust_10="54.44288"></scales>
<clustering>
<clus scale="   32.623">  2  9  1 -1</clus>
<clus scale="   54.443">  2 10  1 -1</clus>
<clus scale="   81.870">  7  8 -1 -1</clus>
<clus scale="   90.676">  5  6 -1 -1</clus>
<clus scale="  152.243">  1  7  2 -1</clus>
<clus scale="   32.623">  2  5  1 -1</clus>
</clustering>
</event>
<event>
10    2  0.2421970E-006  0.1338898E+03  0.7546771E-02  0.1223743E+00
         21   -1    0    0  503  502  0.00000000000E+00  0.00000000000E+00  0.64588711800E+03  0.64588711800E+03  0.00000000000E+00 0.  1.
         -4   -1    0    0    0  501 -0.00000000000E+00 -0.00000000000E+00 -0.13885570310E+03  0.13885570310E+03  0.00000000000E+00 0.  1.
         23    2    1    2    0    0  0.44575874976E+02 -0.10505323036E+03 -0.44298092746E+02  0.15223367441E+03  0.90496302499E+02 0.  0.
         23    2    1    2    0    0 -0.22977245103E+02  0.47916643346E+02  0.55994070543E+02  0.12470035245E+03  0.97933056026E+02 0.  0.
        -11    1    4    4    0    0 -0.23140126875E+02  0.77983766867E+02  0.41614828072E+02  0.91371370145E+02  0.00000000000E+00 0.  1.
         11    1    4    4    0    0  0.16288177198E+00 -0.30067123522E+02  0.14379242471E+02  0.33328982303E+02  0.00000000000E+00 0. -1.
        -13    1    3    3    0    0 -0.16110000813E+02 -0.26752087801E+02  0.17180835911E+02  0.35642495010E+02  0.00000000000E+00 0. -1.
         13    1    3    3    0    0  0.60685875788E+02 -0.78301142556E+02 -0.61478928657E+02  0.11659117940E+03  0.00000000000E+00 0.  1.
         21    1    1    2  503  501  0.16463846694E+02  0.64524656772E+02  0.22310645580E+03  0.23283251534E+03  0.00000000000E+00 0.  1.
         -4    1    1    2    0  502 -0.38062476566E+02 -0.73880697601E+01  0.27222898129E+03  0.27497627889E+03  0.00000000000E+00 0.  1.
<scales pt_clust_5="13000.00000" pt_clust_6="13000.00000" pt_clust_7="13000.00000" pt_clust_8="13000.00000" pt_clust_9="60.38960" pt_clust_10="38.77287"></scales>
<clustering>
<clus scale="   38.773">  1 10  2 -1</clus>
<clus scale="   60.390">  1  9  2 -1</clus>
<clus scale="   90.496">  7  8 -1 -1</clus>
<clus scale="   97.933">  5  6 -1 -1</clus>
<clus scale="  128.550">  2  7  1 -1</clus>
<clus scale="   38.773">  1  5  2 -1</clus>
</clustering>
</event>
<event>
10    2  0.2421970E-006  0.1032950E+03  0.7546771E-02  0.1274930E+00
          1   -1    0    0  502    0 -0.00000000000E+00  0.00000000000E+00  0.15834730211E+03  0.15834730211E+03  0.00000000000E+00 0. -1.
         21   -1    0    0  503  502  0.00000000000E+00 -0.00000000000E+00 -0.48030864741E+03  0.48030864741E+03  0.00000000000E+00 0. -1.
         23    2    1    2    0    0  0.66911816426E+02 -0.26931323946E+02  0.92192478301E+02  0.14900730010E+03  0.92202142281E+02 0.  0.
         23    2    1    2    0    0  0.15697374117E+02  0.90429755550E+01 -0.30864980668E+02  0.96008923528E+02  0.89089187920E+02 0.  0.
        -11    1    4    4    0    0  0.14482053056E+02  0.41402524242E+02 -0.43003382014E+02  0.61426295175E+02  0.00000000000E+00 0. -1.
         11    1    4    4    0    0  0.12153210611E+01 -0.32359548687E+02  0.12138401346E+02  0.34582628352E+02  0.00000000000E+00 0.  1.
        -13    1    3    3    0    0  0.40236355563E+02 -0.44077668277E+02  0.94860531411E+01  0.60430045126E+02  0.00000000000E+00 0.  1.
         13    1    3    3    0    0  0.26675460863E+02  0.17146344332E+02  0.82706425160E+02  0.88577254975E+02  0.00000000000E+00 0. -1.
         21    1    1    2  503  501 -0.40315767403E+02 -0.59072619737E+01 -0.15653484878E+03  0.16175109189E+03  0.00000000000E+00 0.  1.
          1    1    1    2  501    0 -0.42293423140E+02  0.23795610364E+02 -0.22675399416E+03  0.23188863400E+03  0.00000000000E+00 0. -1.
<scales pt_clust_5="13000.00000" pt_clust_6="13000.00000" pt_clust_7="13000.00000" pt_clust_8="13000.00000" pt_clust_9="27.45334" pt_clust_10="89.67662"></scales>
<clustering>
<clus scale="   27.453">  9 10 -1 -1</clus>
<clus scale="   89.089">  5  6 -1 -1</clus>
<clus scale="   89.677">  2  9  1 -1</clus>
<clus scale="   92.202">  7  8 -1 -1</clus>
<clus scale="  100.526">  2  5  1 -1</clus>
<clus scale="   89.677">  2  5  1 -1</clus>
</clustering>
</event>
<event>
10    2  0.2421970E-006  0.4030899E+03  0.7546771E-02  0.1069438E+00
          2   -1    0    0  502    0 -0.00000000000E+00  0.00000000000E+00  0.21380276792E+04  0.21380276792E+04  0.00000000000E+00 0. -1.
         21   -1    0    0  503  502  0.00000000000E+00 -0.00000000000E+00 -0.35890355552E+03  0.35890355552E+03  0.00000000000E+00 0. -1.
         23    2    1    2    0    0  0.16517732630E+03 -0.21610597538E+02  0.46535483744E+03  0.50253857127E+03  0.90770721289E+02 0.  0.
         23    2    1    2    0    0  0.30880120670E+02 -0.32710440831E+03  0.15064606486E+04  0.15446204259E+04  0.92074419162E+02 0.  0.
        -11    1    4    4    0    0  0.55534264992E+02 -0.14006629191E+03  0.58925461628E+03  0.60821346871E+03  0.00000000000E+00 0.  1.
         11    1    4    4    0    0 -0.24654144322E+02 -0.18703811641E+03  0.91720603230E+03  0.93640695721E+03  0.00000000000E+00 0. -1.
        -13    1    3    3    0    0  0.14301730442E+03 -0.14586221800E+02  0.45485199149E+03  0.47702939259E+03  0.00000000000E+00 0. -1.
         13    1    3    3    0    0  0.22160021877E+02 -0.70243757373E+01  0.10502845941E+02  0.25509178681E+02  0.00000000000E+00 0.  1.
         21    1    1    2  503  501 -0.51948877942E+02  0.43754795181E+02 -0.19797585754E+02  0.70746819169E+02  0.00000000000E+00 0. -1.
          2    1    1    2  501    0 -0.14410856902E+03  0.30496021067E+03 -0.17289377660E+03  0.37902541834E+03  0.00000000000E+00 0. -1.
<scales pt_clust_5="13000.00000" pt_clust_6="13000.00000" pt_clust_7="13000.00000" pt_clust_8="13000.00000" pt_clust_9="32.12310" pt_clust_10="398.90877"></scales>
<clustering>
<clus scale="   32.123">  9 10 -1 -1</clus>
<clus scale="   90.771">  7  8 -1 -1</clus>
<clus scale="   92.074">  5  6 -1 -1</clus>
<clus scale="  189.710">  1  7  2 -1</clus>
<clus scale="  398.909">  2  9  1 -1</clus>
<clus scale="  398.909">  2  5  1 -1</clus>
</clustering>
</event>
<event>
10    2  0.2421970E-006  0.1042952E+03  0.7546771E-02  0.1271599E+00
         -2   -1    0    0    0  501 -0.00000000000E+00  0.00000000000E+00  0.14489736800E+03  0.14489736800E+03  0.00000000000E+00 0.  1.
         21   -1    0    0  503  502  0.00000000000E+00 -0.00000000000E+00 -0.18923408010E+03  0.18923408010E+03  0.00000000000E+00 0.  1.
         23    2    1    2    0    0 -0.16282968115E+02  0.70829138483E+01  0.20067465975E+02  0.96428614755E+02  0.92630836301E+02 0.  0.
         23    2    1    2    0    0  0.57417791530E+02 -0.62172348080E+02 -0.20596401369E+02  0.12701029507E+03  0.92440249100E+02 0.  0.
        -11    1    3    3    0    0 -0.54346542993E+02  0.11561603922E+01  0.19956137416E+02  0.57906224732E+02  0.00000000000E+00 0.  1.
         11    1    3    3    0    0  0.38063574878E+02  0.59267534560E+01  0.11132855837E+00  0.38522390023E+02  0.00000000000E+00 0. -1.
        -13    1    4    4    0    0  0.55571726956E+02 -0.82182989336E+02 -0.13980434715E+01  0.99218018014E+02  0.00000000000E+00 0.  1.
         13    1    4    4    0    0  0.18460645746E+01  0.20010641256E+02 -0.19198357897E+02  0.27792277054E+02  0.00000000000E+00 0. -1.
         21    1    1    2  503  501 -0.89363233781E+01  0.34454548329E+02  0.16538183402E+02  0.39249016374E+02  0.00000000000E+00 0.  1.
         -2    1    1    2    0  502 -0.32198500038E+02  0.20634885903E+02 -0.60345960105E+02  0.71443521903E+02  0.00000000000E+00 0.  1.
<scales pt_clust_5="13000.00000" pt_clust_6="13000.00000" pt_clust_7="13000.00000" pt_clust_8="13000.00000" pt_clust_9="35.59458" pt_clust_10="39.49831"></scales>
<clustering>
<clus scale="   35.595">  1  9  2 -1</clus>
<clus scale="   39.498">  2 10  1 -1</clus>
<clus scale="   92.440">  7  8 -1 -1</clus>
<clus scale="   92.631">  5  6 -1 -1</clus>
<clus scale="  104.126">  2  7  1 -1</clus>
<clus scale="   39.498">  2  5  1 -1</clus>
</clustering>
</event>
<event>
10    2  0.2421970E-006  0.2173978E+03  0.7546771E-02  0.1136719E+00
         21   -1    0    0  501  502  0.00000000000E+00  0.00000000000E+00  0.33749607196E+03  0.33749607196E+03  0.00000000000E+00 0. -1.
          2   -1    0    0  503    0 -0.00000000000E+00 -0.00000000000E+00 -0.57379915021E+03  0.57379915021E+03  0.00000000000E+00 0. -1.
         23    2    1    2    0    0  0.81810590290E+02 -0.18748128731E+03 -0.38944304650E+03  0.44938238964E+03  0.91850094587E+02 0.  0.
         23    2    1    2    0    0  0.93106852551E+02  0.14595782545E+03  0.16315455208E+03  0.25885803530E+03  0.10205636568E+03 0.  0.
        -11    1    4    4    0    0  0.16057647340E+02  0.10800023207E+03  0.59863799428E+02  0.12452137426E+03  0.00000000000E+00 0.  1.
         11    1    4    4    0    0  0.77049205211E+02  0.37957593381E+02  0.10329075265E+03  0.13433666105E+03  0.00000000000E+00 0. -1.
        -13    1    3    3    0    0  0.90030836445E+02 -0.11498226181E+03 -0.30230808783E+03  0.33573300703E+03  0.00000000000E+00 0. -1.
         13    1    3    3    0    0 -0.82202461556E+01 -0.72499025499E+02 -0.87134958675E+02  0.11364938261E+03  0.00000000000E+00 0.  1.
         21    1    1    2  503  502 -0.41814604912E+02  0.31275143709E+02  0.34207708313E+02  0.62424058711E+02  0.00000000000E+00 0.  1.
          2    1    1    2  501    0 -0.13310283793E+03  0.10248318156E+02 -0.44222292138E+02  0.14063073850E+03  0.00000000000E+00 0. -1.
<scales pt_clust_5="13000.00000" pt_clust_6="13000.00000" pt_clust_7="13000.00000" pt_clust_8="13000.00000" pt_clust_9="52.21682" pt_clust_10="140.92386"></scales>
<clustering>
<clus scale="   52.217">  1  9  2 -1</clus>
<clus scale="   91.850">  7  8 -1 -1</clus>
<clus scale="  102.056">  5  6 -1 -1</clus>
<clus scale="  140.924">  1 10  2 -1</clus>
<clus scale="  212.797">  2  7  1 -1</clus>
<clus scale="   52.217">  1  5  2 -1</clus>
</clustering>
</event>
<event>
10    2  0.2421970E-006  0.1291244E+03  0.7546771E-02  0.1247489E+00
         21   -1    0    0  501  502  0.00000000000E+00  0.00000000000E+00  0.96549071008E+03  0.96549071008E+03  0.00000000000E+00 0. -1.
          2   -1    0    0  503    0 -0.00000000000E+00 -0.00000000000E+00 -0.45984350633E+02  0.45984350633E+02  0.00000000000E+00 0. -1.
         23    2    1    2    0    0  0.11639309792E+00 -0.15304657628E+02  0.62884803862E+02  0.10865141182E+03  0.87271900645E+02 0.  0.
         23    2    1    2    0    0  0.59690699377E+02  0.71994448196E+02  0.24336735626E+03  0.27639516990E+03  0.91762953815E+02 0.  0.
        -11    1    4    4    0    0  0.61783785340E+02  0.32455504846E+01  0.10489449762E+03  0.12178105501E+03  0.00000000000E+00 0.  1.
         11    1    4    4    0    0 -0.20930859634E+01  0.68748897711E+02  0.13847285863E+03  0.15461411489E+03  0.00000000000E+00 0. -1.
        -11    1    3    3    0    0  0.35669755428E+02 -0.94037032493E+01  0.83897987190E+00  0.36898034830E+02  0.00000000000E+00 0.  1.
         11    1    3    3    0    0 -0.35553362330E+02 -0.59009543792E+01  0.62045823990E+02  0.71753376995E+02  0.00000000000E+00 0. -1.
         21    1    1    2  503  502 -0.71603708910E+01  0.27455319884E+02  0.12352812851E+03  0.12674487774E+03  0.00000000000E+00 0. -1.
          2    1    1    2  501    0 -0.52646721584E+02 -0.84145110451E+02  0.48972607082E+03  0.49968360124E+03  0.00000000000E+00 0. -1.
<scales pt_clust_5="13000.00000" pt_clust_6="13000.00000" pt_clust_7="13000.00000" pt_clust_8="13000.00000" pt_clust_9="28.37368" pt_clust_10="90.84425"></scales>
<clustering>
<clus scale="   28.374">  1  9  2 -1</clus>
<clus scale="   87.272">  7  8 -1 -1</clus>
<clus scale="   88.165">  2  7  1 -1</clus>
<clus scale="   90.844">  1 10  2 -1</clus>
<clus scale="   91.763">  5  6 -1 -1</clus>
<clus scale="   28.374">  1  5  2 -1</clus>
</clustering>
</event>
<event>
10    2  0.2421970E-006  0.1238209E+03  0.7546771E-02  0.1237053E+00
         21   -1    0    0  501  502  0.00000000000E+00  0.00000000000E+00  0.23829350321E+03  0.23829350321E+03  0.00000000000E+00 0. -1.
          2   -1    0    0  503    0 -0.00000000000E+00 -0.00000000000E+00 -0.54436090341E+03  0.54436090341E+03  0.00000000000E+00 0. -1.
         23    2    1    2    0    0  0.60196949743E+01  0.60163167859E+02 -0.16954166270E+03  0.20157840421E+03  0.90739374914E+02 0.  0.
         23    2    1    2    0    0  0.38515851181E+02 -0.10927632026E+03 -0.26491050656E+03  0.30317783015E+03  0.91183525086E+02 0.  0.
        -13    1    4    4    0    0  0.64901930358E+02 -0.87527741955E+02 -0.16641175626E+03  0.19891264112E+03  0.00000000000E+00 0.  1.
         13    1    4    4    0    0 -0.26386079178E+02 -0.21748578302E+02 -0.98498750301E+02  0.10426518903E+03  0.00000000000E+00 0. -1.
        -13    1    3    3    0    0  0.18780609578E+02  0.26163533638E+02 -0.16110921057E+03  0.16429674226E+03  0.00000000000E+00 0. -1.
         13    1    3    3    0    0 -0.12760914604E+02  0.33999634221E+02 -0.84324521300E+01  0.37281661948E+02  0.00000000000E+00 0.  1.
         21    1    1    2  503  502  0.12852999230E+02  0.11493525827E+03 -0.80254753667E+01  0.11592981255E+03  0.00000000000E+00 0. -1.
          2    1    1    2  501    0 -0.57388545385E+02 -0.65822105872E+02  0.13641024443E+03  0.16196835971E+03  0.00000000000E+00 0. -1.
<scales pt_clust_5="13000.00000" pt_clust_6="13000.00000" pt_clust_7="13000.00000" pt_clust_8="13000.00000" pt_clust_9="78.20781" pt_clust_10="87.32694"></scales>
<clustering>
<clus scale="   87.327">  1 10  2 -1</clus>
<clus scale="   78.208">  1  9  2 -1</clus>
<clus scale="   90.739">  7  8 -1 -1</clus>
<clus scale="   91.184">  5  6 -1 -1</clus>
<clus scale="  123.494">  2  7  1 -1</clus>
<clus scale="   87.327">  1  5  2 -1</clus>
</clustering>
</event>
<event>
10    2  0.2421970E-006  0.1117377E+03  0.7546771E-02  0.1258097E+00
         21   -1    0    0  501  502  0.00000000000E+00  0.00000000000E+00  0.87776994850E+03  0.87776994850E+03  0.00000000000E+00 0.  1.
         -1   -1    0    0    0  501 -0.00000000000E+00 -0.00000000000E+00 -0.57280819434E+02  0.57280819434E+02  0.00000000000E+00 0.  1.
         23    2    1    2    0    0  0.25163110755E+02 -0.57635074512E+02  0.35412094016E+02  0.11726212559E+03  0.92419725919E+02 0.  0.
         23    2    1    2    0    0 -0.69193831415E+02  0.32818459685E+02  0.23608849613E+03  0.26419347448E+03  0.90529422577E+02 0.  0.
        -11    1    3    3    0    0 -0.14567588591E+02 -0.66037698487E+02  0.76206319601E+01  0.68053407631E+02  0.00000000000E+00 0.  1.
         11    1    3    3    0    0  0.39730699345E+02  0.84026239747E+01  0.27791462056E+02  0.49208717961E+02  0.00000000000E+00 0. -1.
        -11    1    4    4    0    0 -0.33484940497E+02 -0.63523538989E+01  0.15706834209E+02  0.37527300476E+02  0.00000000000E+00 0.  1.
         11    1    4    4    0    0 -0.35708890917E+02  0.39170813584E+02  0.22038166192E+03  0.22666617401E+03  0.00000000000E+00 0. -1.
         21    1    1    2  503  502  0.18951654583E+02 -0.14863392989E+02  0.16515525057E+03  0.16690219427E+03  0.00000000000E+00 0.  1.
         -1    1    1    2    0  503  0.25079066077E+02  0.39680007816E+02  0.38383328835E+03  0.38669297358E+03  0.00000000000E+00 0.  1.
<scales pt_clust_5="13000.00000" pt_clust_6="13000.00000" pt_clust_7="13000.00000" pt_clust_8="13000.00000" pt_clust_9="24.08497" pt_clust_10="47.42872"></scales>
<clustering>
<clus scale="   24.085">  1  9  2 -1</clus>
<clus scale="   47.429">  1 10  2 -1</clus>
<clus scale="   90.529">  7  8 -1 -1</clus>
<clus scale="   92.420">  5  6 -1 -1</clus>
<clus scale="  110.179">  1  7  2 -1</clus>
<clus scale="   24.085">  1  5  2 -1</clus>
</clustering>
</event>
<event>
10    2  0.2421970E-006  0.2462948E+03  0.7546771E-02  0.1141862E+00
         21   -1    0    0  501  502  0.00000000000E+00  0.00000000000E+00  0.11049052878E+03  0.11049052878E+03  0.00000000000E+00 0. -1.
          2   -1    0    0  503    0 -0.00000000000E+00 -0.00000000000E+00 -0.21827047212E+04  0.21827047212E+04  0.00000000000E+00 0. -1.
         23    2    1    2    0    0  0.54426154990E+02  0.72179616033E+02 -0.13076491345E+03  0.18295485083E+03  0.90558884357E+02 0.  0.
         23    2    1    2    0    0 -0.16005563789E+03 -0.27683846286E+03 -0.16758596937E+04  0.17104086923E+04  0.12138714816E+03 0.  0.
        -11    1    4    4    0    0 -0.50793394097E+02 -0.18000897380E+03 -0.11294135951E+04  0.11447961689E+04  0.00000000000E+00 0.  1.
         11    1    4    4    0    0 -0.10926224379E+03 -0.96829489056E+02 -0.54644609867E+03  0.56561252339E+03  0.00000000000E+00 0. -1.
        -11    1    3    3    0    0  0.44096363506E+01 -0.20350080762E+02 -0.34902646554E+02  0.40641916985E+02  0.00000000000E+00 0.  1.
         11    1    3    3    0    0  0.50016518639E+02  0.92529696795E+02 -0.95862266894E+02  0.14231293385E+03  0.00000000000E+00 0. -1.
         21    1    1    2  503  502 -0.17600346292E+02  0.41630624965E+02 -0.16685519780E+03  0.17286855746E+03  0.00000000000E+00 0.  1.
          2    1    1    2  501    0  0.12322982919E+03  0.16302822186E+03 -0.98734387389E+02  0.22696314938E+03  0.00000000000E+00 0. -1.
<scales pt_clust_5="13000.00000" pt_clust_6="13000.00000" pt_clust_7="13000.00000" pt_clust_8="13000.00000" pt_clust_9="45.19824" pt_clust_10="214.30425"></scales>
<clustering>
<clus scale="   45.198">  2  9  1 -1</clus>
<clus scale="   90.559">  7  8 -1 -1</clus>
<clus scale="  121.387">  5  6 -1 -1</clus>
<clus scale="  129.246">  2  7  1 -1</clus>
<clus scale="  214.304">  1 10  2 -1</clus>
<clus scale="  214.304">  1  5  2 -1</clus>
</clustering>
</event>
<event>
10    2  0.2421970E-006  0.1013266E+03  0.7546771E-02  0.1281146E+00
         -1   -1    0    0    0  501 -0.00000000000E+00  0.00000000000E+00  0.17395789635E+03  0.17395789635E+03  0.00000000000E+00 0.  1.
         21   -1    0    0  503  502  0.00000000000E+00 -0.00000000000E+00 -0.14341444398E+03  0.14341444398E+03  0.00000000000E+00 0.  1.
         23    2    1    2    0    0  0.11512489500E+02  0.24758272384E+02  0.72472150215E+02  0.12510437001E+03  0.98251622752E+02 0.  0.
         23    2    1    2    0    0  0.51597611820E+02 -0.20913660567E+02 -0.13892366225E+02  0.10781965257E+03  0.91281897966E+02 0.  0.
        -13    1    3    3    0    0 -0.33520736686E+02  0.14390382836E+02  0.69870234358E+02  0.78819874114E+02  0.00000000000E+00 0. -1.
         13    1    3    3    0    0  0.45033226187E+02  0.10367889548E+02  0.26019158575E+01  0.46284495899E+02  0.00000000000E+00 0.  1.
        -13    1    4    4    0    0  0.37563638191E+02  0.33607572705E+02 -0.31197364409E+01  0.50499788245E+02  0.00000000000E+00 0.  1.
         13    1    4    4    0    0  0.14033973629E+02 -0.54521233273E+02 -0.10772629784E+02  0.57319864322E+02  0.00000000000E+00 0. -1.
         21    1    1    2  503  501 -0.91809755530E+01  0.18565415428E+02 -0.30791744322E+01  0.20939108799E+02  0.00000000000E+00 0.  1.
         -1    1    1    2    0  502 -0.53929125767E+02 -0.22410027245E+02 -0.24957157192E+02  0.63509208956E+02  0.00000000000E+00 0.  1.
<scales pt_clust_5="13000.00000" pt_clust_6="13000.00000" pt_clust_7="13000.00000" pt_clust_8="13000.00000" pt_clust_9="20.71147" pt_clust_10="59.26550"></scales>
<clustering>
<clus scale="   20.711">  2  9  1 -1</clus>
<clus scale="   59.265">  2 10  1 -1</clus>
<clus scale="   91.282">  7  8 -1 -1</clus>
<clus scale="   94.584">  2  7  1 -1</clus>
<clus scale="   98.252">  5  6 -1 -1</clus>
<clus scale="   20.711">  2  5  1 -1</clus>
</clustering>
</event>
<event>
10    2  0.2421970E-006  0.2457456E+03  0.7546771E-02  0.1116095E+00
         21   -1    0    0  501  502  0.00000000000E+00  0.00000000000E+00  0.98840672858E+03  0.98840672858E+03  0.00000000000E+00 0.  1.
          1   -1    0    0  503    0 -0.00000000000E+00 -0.00000000000E+00 -0.31309400264E+03  0.31309400264E+03  0.00000000000E+00 0. -1.
         23    2    1    2    0    0 -0.21611573922E+03 -0.47873477441E+02 -0.21157109109E+03  0.31979492340E+03  0.92241985377E+02 0.  0.
         23    2    1    2    0    0  0.28622689480E+03  0.78926306401E+02  0.53799005361E+03  0.62119242846E+03  0.91057884051E+02 0.  0.
        -11    1    4    4    0    0  0.20098447285E+03  0.66484855669E+02  0.29282495122E+03  0.36133287481E+03  0.00000000000E+00 0.  1.
         11    1    4    4    0    0  0.85242421954E+02  0.12441450732E+02  0.24516510239E+03  0.25985955366E+03  0.00000000000E+00 0. -1.
        -13    1    3    3    0    0 -0.10969443671E+03  0.17036600094E+02 -0.70332185283E+02  0.13141435034E+03  0.00000000000E+00 0.  1.
         13    1    3    3    0    0 -0.10642130251E+03 -0.64910077535E+02 -0.14123890581E+03  0.18838057307E+03  0.00000000000E+00 0. -1.
         21    1    1    2  503  502 -0.58568312552E+02 -0.89953563740E+01  0.29827592887E+03  0.30410474086E+03  0.00000000000E+00 0. -1.
          1    1    1    2  501    0 -0.11542843031E+02 -0.22057472585E+02  0.50617834557E+02  0.56408638499E+02  0.00000000000E+00 0. -1.
<scales pt_clust_5="13000.00000" pt_clust_6="13000.00000" pt_clust_7="13000.00000" pt_clust_8="13000.00000" pt_clust_9="64.33453" pt_clust_10="24.89517"></scales>
<clustering>
<clus scale="   24.895">  1 10  2 -1</clus>
<clus scale="   64.335">  1  9  2 -1</clus>
<clus scale="   91.058">  5  6 -1 -1</clus>
<clus scale="   92.242">  7  8 -1 -1</clus>
<clus scale="  245.304">  1  5  2 -1</clus>
<clus scale="   24.895">  1  5  2 -1</clus>
</clustering>
</event>
<event>
10    2  0.2421970E-006  0.1042431E+03  0.7546771E-02  0.1272226E+00
          1   -1    0    0  503    0 -0.00000000000E+00  0.00000000000E+00  0.34603331144E+03  0.34603331144E+03  0.00000000000E+00 0. -1.
         21   -1    0    0  501  502  0.00000000000E+00 -0.00000000000E+00 -0.32340731830E+03  0.32340731830E+03  0.00000000000E+00 0. -1.
         23    2    1    2    0    0 -0.60527802276E+01 -0.65912654100E+02  0.23727842754E+03  0.26282149116E+03  0.91613153636E+02 0.  0.
         23    2    1    2    0    0  0.33166161851E+02  0.83177542556E+01  0.58387837899E+02  0.11278106887E+03  0.90228878710E+02 0.  0.
        -11    1    3    3    0    0 -0.18423464723E+02 -0.37944459241E+02  0.22650249672E+03  0.23039658648E+03  0.00000000000E+00 0. -1.
         11    1    3    3    0    0  0.12370684495E+02 -0.27968194860E+02  0.10775930821E+02  0.32424904682E+02  0.00000000000E+00 0.  1.
        -13    1    4    4    0    0  0.63759609149E+02 -0.30253265641E+01  0.37286870420E+02  0.73923954611E+02  0.00000000000E+00 0. -1.
         13    1    4    4    0    0 -0.30593447298E+02  0.11343080820E+02  0.21100967479E+02  0.38857114260E+02  0.00000000000E+00 0.  1.
         21    1    1    2  503  502 -0.53969458843E+02  0.11790975630E+02 -0.12941287136E+03  0.14071041492E+03  0.00000000000E+00 0. -1.
          1    1    1    2  501    0  0.26856077219E+02  0.45803924214E+02 -0.14362740095E+03  0.15312765478E+03  0.00000000000E+00 0. -1.
<scales pt_clust_5="13000.00000" pt_clust_6="13000.00000" pt_clust_7="13000.00000" pt_clust_8="13000.00000" pt_clust_9="57.68063" pt_clust_10="53.09659"></scales>
<clustering>
<clus scale="   53.097">  2 10  1 -1</clus>
<clus scale="   57.681">  2  9  1 -1</clus>
<clus scale="   90.229">  7  8 -1 -1</clus>
<clus scale="   91.613">  5  6 -1 -1</clus>
<clus scale="  103.029">  2  7  1 -1</clus>
<clus scale="   53.097">  2  5  1 -1</clus>
</clustering>
</event>
<event>
10    2  0.2421970E-006  0.1521648E+03  0.7546771E-02  0.1216361E+00
         21   -1    0    0  501  502  0.00000000000E+00  0.00000000000E+00  0.12645474282E+03  0.12645474282E+03  0.00000000000E+00 0. -1.
          1   -1    0    0  503    0 -0.00000000000E+00 -0.00000000000E+00 -0.53952106840E+03  0.53952106840E+03  0.00000000000E+00 0. -1.
         23    2    1    2    0    0  0.46792798096E+02 -0.35697806025E+02  0.69733592214E+01  0.10069659677E+03  0.81408092676E+02 0.  0.
         23    2    1    2    0    0 -0.14873581796E+03 -0.36484188733E+02 -0.34497761996E+03  0.38793727671E+03  0.89623282754E+02 0.  0.
        -11    1    4    4    0    0 -0.22957908587E+02 -0.33282635913E+02 -0.35292028613E+02  0.53668675255E+02  0.00000000000E+00 0.  1.
         11    1    4    4    0    0 -0.12577790937E+03 -0.32015528194E+01 -0.30968559135E+03  0.33426860145E+03  0.00000000000E+00 0. -1.
        -13    1    3    3    0    0  0.45189150634E+02 -0.10539064970E+02 -0.30503189300E+02  0.55529953925E+02  0.00000000000E+00 0.  1.
         13    1    3    3    0    0  0.16036474624E+01 -0.25158741055E+02  0.37476548521E+02  0.45166642843E+02  0.00000000000E+00 0. -1.
         21    1    1    2  503  502  0.24026839892E+02 -0.21087298417E+02 -0.39294016223E+02  0.50655531787E+02  0.00000000000E+00 0.  1.
          1    1    1    2  501    0  0.77916179973E+02  0.93269293175E+02 -0.35768048616E+02  0.12668640595E+03  0.00000000000E+00 0. -1.
<scales pt_clust_5="13000.00000" pt_clust_6="13000.00000" pt_clust_7="13000.00000" pt_clust_8="13000.00000" pt_clust_9="31.96816" pt_clust_10="122.97072"></scales>
<clustering>
<clus scale="   31.968">  2  9  1 -1</clus>
<clus scale="   81.408">  7  8 -1 -1</clus>
<clus scale="   89.623">  5  6 -1 -1</clus>
<clus scale="  102.255">  2  7  1 -1</clus>
<clus scale="  122.971">  1 10  2 -1</clus>
<clus scale="  122.971">  1  5  2 -1</clus>
</clustering>
</event>
<event>
10    2  0.2421970E-006  0.1029404E+03  0.7546771E-02  0.1274413E+00
         21   -1    0    0  503  502  0.00000000000E+00  0.00000000000E+00  0.42769822662E+03  0.42769822662E+03  0.00000000000E+00 0. -1.
         -3   -1    0    0    0  501 -0.00000000000E+00 -0.00000000000E+00 -0.52386491865E+02  0.52386491865E+02  0.00000000000E+00 0.  1.
         23    2    1    2    0    0 -0.10826100659E+02  0.45698791072E+02  0.75644740452E+02  0.13013687646E+03  0.94909935708E+02 0.  0.
         23    2    1    2    0    0  0.24604831756E+02 -0.25034189918E+02  0.91088295968E+02  0.13588000072E+03  0.94520836454E+02 0.  0.
        -11    1    4    4    0    0 -0.12630936167E+02  0.23858138372E+02  0.62536733448E+02  0.68114567791E+02  0.00000000000E+00 0. -1.
         11    1    4    4    0    0  0.37235767923E+02 -0.48892328289E+02  0.28551562520E+02  0.67765432934E+02  0.00000000000E+00 0.  1.
        -13    1    3    3    0    0  0.39439417615E+02  0.27722065694E+02  0.54386463732E+02  0.72676461288E+02  0.00000000000E+00 0.  1.
         13    1    3    3    0    0 -0.50265518274E+02  0.17976725379E+02  0.21258276720E+02  0.57460415173E+02  0.00000000000E+00 0. -1.
         21    1    1    2  503  501  0.92769649740E+01 -0.21937148213E+02  0.81531014351E+02  0.84938841833E+02  0.00000000000E+00 0. -1.
         -3    1    1    2    0  502 -0.23055696071E+02  0.12725470587E+01  0.12704768398E+03  0.12912899947E+03  0.00000000000E+00 0.  1.
<scales pt_clust_5="13000.00000" pt_clust_6="13000.00000" pt_clust_7="13000.00000" pt_clust_8="13000.00000" pt_clust_9="21.77384" pt_clust_10="23.09079"></scales>
<clustering>
<clus scale="   23.091">  1 10  2 -1</clus>
<clus scale="   21.774">  1  9  2 -1</clus>
<clus scale="   94.521">  5  6 -1 -1</clus>
<clus scale="   94.910">  7  8 -1 -1</clus>
<clus scale="  102.582">  1  5  2 -1</clus>
<clus scale="   23.091">  1  5  2 -1</clus>
</clustering>
</event>
<event>
10    2  0.2421970E-006  0.9656204E+02  0.7546771E-02  0.1288739E+00
          1   -1    0    0  503    0 -0.00000000000E+00  0.00000000000E+00  0.34403612152E+03  0.34403612152E+03  0.00000000000E+00 0. -1.
         21   -1    0    0  501  502  0.00000000000E+00 -0.00000000000E+00 -0.26301658425E+03  0.26301658425E+03  0.00000000000E+00 0. -1.
         23    2    1    2    0    0  0.23537379390E+02 -0.11724822221E+02  0.28901842831E+03  0.30486799539E+03  0.93388238160E+02 0.  0.
         23    2    1    2    0    0 -0.13405038996E+02 -0.19210555535E+01 -0.24944307236E+02  0.95753362634E+02  0.91449999821E+02 0.  0.
        -11    1    4    4    0    0 -0.48680930609E+02 -0.27422523713E+01  0.56071367494E+01  0.49079455331E+02  0.00000000000E+00 0.  1.
         11    1    4    4    0    0  0.35275891613E+02  0.82119681774E+00 -0.30551443985E+02  0.46673907303E+02  0.00000000000E+00 0. -1.
        -11    1    3    3    0    0 -0.21453749301E+02  0.21502543659E+02  0.17782110586E+03  0.18039669740E+03  0.00000000000E+00 0.  1.
         11    1    3    3    0    0  0.44991128691E+02 -0.33227365880E+02  0.11119732245E+03  0.12447129800E+03  0.00000000000E+00 0. -1.
         21    1    1    2  503  502  0.25643360290E+02 -0.52597002858E+01 -0.89169149298E+01  0.27654253668E+02  0.00000000000E+00 0. -1.
          1    1    1    2  501    0 -0.35775700684E+02  0.18905578060E+02 -0.17413766888E+03  0.17877709407E+03  0.00000000000E+00 0. -1.
<scales pt_clust_5="13000.00000" pt_clust_6="13000.00000" pt_clust_7="13000.00000" pt_clust_8="13000.00000" pt_clust_9="26.17721" pt_clust_10="22.96128"></scales>
<clustering>
<clus scale="   26.177">  2  9  1 -1</clus>
<clus scale="   22.961">  2 10  1 -1</clus>
<clus scale="   91.450">  5  6 -1 -1</clus>
<clus scale="   93.388">  7  8 -1 -1</clus>
<clus scale="   94.689">  2  5  1 -1</clus>
<clus scale="   26.177">  2  5  1 -1</clus>
</clustering>
</event>
<event>
10    2  0.2421970E-006  0.1206621E+03  0.7546771E-02  0.1244697E+00
          1   -1    0    0  503    0 -0.00000000000E+00  0.00000000000E+00  0.16787397613E+03  0.16787397613E+03  0.00000000000E+00 0. -1.
         21   -1    0    0  501  502  0.00000000000E+00 -0.00000000000E+00 -0.61736948830E+03  0.61736948830E+03  0.00000000000E+00 0. -1.
         23    2    1    2    0    0  0.41774130922E+02 -0.61620435048E+02  0.91435243560E+02  0.14971479732E+03  0.92260288000E+02 0.  0.
         23    2    1    2    0    0 -0.97771478412E+02  0.34669756703E+02 -0.54929758391E+02  0.14419549071E+03  0.83748475595E+02 0.  0.
        -11    1    4    4    0    0 -0.62244753276E+02  0.26562150573E+02  0.11290828345E+02  0.68610786019E+02  0.00000000000E+00 0. -1.
         11    1    4    4    0    0 -0.35526725136E+02  0.81076061295E+01 -0.66220586736E+02  0.75584704694E+02  0.00000000000E+00 0.  1.
        -11    1    3    3    0    0 -0.20431115309E+02 -0.19015591929E+02 -0.38853364354E+01  0.28180117962E+02  0.00000000000E+00 0. -1.
         11    1    3    3    0    0  0.62205246231E+02 -0.42604843119E+02  0.95320579995E+02  0.12153467936E+03  0.00000000000E+00 0.  1.
         21    1    1    2  503  502  0.29910932297E+02  0.33883313206E+02 -0.30311283793E+03  0.30646392170E+03  0.00000000000E+00 0. -1.
          1    1    1    2  501    0  0.26086415193E+02 -0.69326348608E+01 -0.18288815941E+03  0.18486925471E+03  0.00000000000E+00 0. -1.
<scales pt_clust_5="13000.00000" pt_clust_6="13000.00000" pt_clust_7="13000.00000" pt_clust_8="13000.00000" pt_clust_9="56.30106" pt_clust_10="26.99190"></scales>
<clustering>
<clus scale="   26.992">  2 10  1 -1</clus>
<clus scale="   56.301">  2  9  1 -1</clus>
<clus scale="   83.748">  5  6 -1 -1</clus>
<clus scale="   92.260">  7  8 -1 -1</clus>
<clus scale="  114.286">  2  5  1 -1</clus>
<clus scale="   26.992">  2  5  1 -1</clus>
</clustering>
</event>
<event>
10    2  0.2421970E-006  0.1306438E+03  0.7546771E-02  0.1226693E+00
         21   -1    0    0  501  502  0.00000000000E+00  0.00000000000E+00  0.60925964867E+02  0.60925964867E+02  0.00000000000E+00 0.  1.
          3   -1    0    0  503    0 -0.00000000000E+00 -0.00000000000E+00 -0.90359196295E+03  0.90359196295E+03  0.00000000000E+00 0. -1.
         23    2    1    2    0    0 -0.44650534295E+02 -0.67036332981E+02 -0.21136568015E+03  0.24399947495E+03  0.91502747941E+02 0.  0.
         23    2    1    2    0    0  0.15186808793E+03 -0.35656002177E+02 -0.30257268266E+03  0.35231316362E+03  0.90769324921E+02 0.  0.
        -11    1    3    3    0    0 -0.52038136537E+02 -0.20964342240E+02 -0.47153086736E+02  0.73286321292E+02  0.00000000000E+00 0.  1.
         11    1    3    3    0    0  0.73876022424E+01 -0.46071990741E+02 -0.16421259341E+03  0.17071315366E+03  0.00000000000E+00 0. -1.
        -13    1    4    4    0    0  0.13194355077E+03  0.16346641537E+01 -0.26373309563E+03  0.29490154026E+03  0.00000000000E+00 0.  1.
         13    1    4    4    0    0  0.19924537156E+02 -0.37290666330E+02 -0.38839587028E+02  0.57411623360E+02  0.00000000000E+00 0. -1.
         21    1    1    2  503  502 -0.25341425507E+02  0.33107692662E+02 -0.17974150282E+03  0.18451372576E+03  0.00000000000E+00 0. -1.
          3    1    1    2  501    0 -0.81876128127E+02  0.69584642496E+02 -0.14898613246E+03  0.18369156348E+03  0.00000000000E+00 0. -1.
<scales pt_clust_5="13000.00000" pt_clust_6="13000.00000" pt_clust_7="13000.00000" pt_clust_8="13000.00000" pt_clust_9="41.69301" pt_clust_10="116.86395"></scales>
<clustering>
<clus scale="   41.693">  2  9  1 -1</clus>
<clus scale="   90.769">  7  8 -1 -1</clus>
<clus scale="   91.503">  5  6 -1 -1</clus>
<clus scale="  116.864">  1 10  2 -1</clus>
<clus scale="  130.131">  1  7  2 -1</clus>
<clus scale="  116.864">  1  5  2 -1</clus>
</clustering>
</event>
<event>
10    2  0.2421970E-006  0.2218765E+03  0.7546771E-02  0.1164684E+00
          2   -1    0    0  502    0 -0.00000000000E+00  0.00000000000E+00  0.92512228211E+03  0.92512228211E+03  0.00000000000E+00 0. -1.
         21   -1    0    0  503  502  0.00000000000E+00 -0.00000000000E+00 -0.86178553996E+02  0.86178553996E+02  0.00000000000E+00 0. -1.
         23    2    1    2    0    0 -0.34368935923E+02 -0.35004375635E+02  0.26587227635E+03  0.28522130215E+03  0.90865801037E+02 0.  0.
         23    2    1    2    0    0  0.12506316747E+03  0.18376464394E+03  0.20980856103E+03  0.31871882941E+03  0.90287428362E+02 0.  0.
        -11    1    3    3    0    0  0.73943151879E+01  0.27250015228E+02  0.77213037743E+02  0.82213699738E+02  0.00000000000E+00 0.  1.
         11    1    3    3    0    0 -0.41763251111E+02 -0.62254390864E+02  0.18865923861E+03  0.20300760241E+03  0.00000000000E+00 0. -1.
        -13    1    4    4    0    0  0.13943454121E+03  0.16234638285E+03  0.19031486156E+03  0.28638799876E+03  0.00000000000E+00 0. -1.
         13    1    4    4    0    0 -0.14371373740E+02  0.21418261083E+02  0.19493699478E+02  0.32330830647E+02  0.00000000000E+00 0.  1.
         21    1    1    2  503  501 -0.53745133921E+02 -0.79441714583E+02  0.26331140422E+03  0.28023636635E+03  0.00000000000E+00 0. -1.
          2    1    1    2  501    0 -0.36949097623E+02 -0.69318553718E+02  0.99951486514E+02  0.12712433819E+03  0.00000000000E+00 0. -1.
<scales pt_clust_5="13000.00000" pt_clust_6="13000.00000" pt_clust_7="13000.00000" pt_clust_8="13000.00000" pt_clust_9="54.50723" pt_clust_10="211.43598"></scales>
<clustering>
<clus scale="   54.507">  9 10 -1 -1</clus>
<clus scale="   90.287">  7  8 -1 -1</clus>
<clus scale="   90.866">  5  6 -1 -1</clus>
<clus scale="  103.262">  1  5  2 -1</clus>
<clus scale="  211.436">  2  9  1 -1</clus>
<clus scale="  211.436">  2  5  1 -1</clus>
</clustering>
</event>
<event>
10    2  0.2421970E-006  0.9572763E+02  0.7546771E-02  0.1290812E+00
         21   -1    0    0  501  502  0.00000000000E+00  0.00000000000E+00  0.67837427396E+02  0.67837427396E+02  0.00000000000E+00 0. -1.
          1   -1    0    0  503    0 -0.00000000000E+00 -0.00000000000E+00 -0.49752840708E+03  0.49752840708E+03  0.00000000000E+00 0. -1.
         23    2    1    2    0    0  0.34895464901E+02  0.22333847692E+02 -0.15704983518E+03  0.18759776996E+03  0.93871072959E+02 0.  0.
         23    2    1    2    0    0  0.43689175245E+02  0.77486926275E+01 -0.27776864334E+02  0.10548814963E+03  0.91582799958E+02 0.  0.
        -11    1    3    3    0    0  0.65731136883E+02  0.11645762992E+02 -0.12579513463E+03  0.14241004897E+03  0.00000000000E+00 0. -1.
         11    1    3    3    0    0 -0.30835671983E+02  0.10688084699E+02 -0.31254700555E+02  0.45187720986E+02  0.00000000000E+00 0.  1.
        -13    1    4    4    0    0  0.43657024487E+02 -0.31395927281E+02  0.55747400894E+01  0.54062165735E+02  0.00000000000E+00 0.  1.
         13    1    4    4    0    0  0.32150757317E-01  0.39144619909E+02 -0.33351604423E+02  0.51425983890E+02  0.00000000000E+00 0. -1.
         21    1    1    2  503  502 -0.78030423337E+02  0.87055472048E+01 -0.14066046183E+03  0.16108972357E+03  0.00000000000E+00 0. -1.
          1    1    1    2  501    0 -0.55421680802E+00 -0.38788087524E+02 -0.10420381833E+03  0.11119019132E+03  0.00000000000E+00 0. -1.
<scales pt_clust_5="13000.00000" pt_clust_6="13000.00000" pt_clust_7="13000.00000" pt_clust_8="13000.00000" pt_clust_9="78.15995" pt_clust_10="38.79207"></scales>
<clustering>
<clus scale="   38.792">  1 10  2 -1</clus>
<clus scale="   78.160">  2  9  1 -1</clus>
<clus scale="   91.583">  7  8 -1 -1</clus>
<clus scale="   93.485">  1  7  2 -1</clus>
<clus scale="   93.871">  5  6 -1 -1</clus>
<clus scale="   38.792">  1  5  2 -1</clus>
</clustering>
</event>
<event>
10    2  0.2421970E-006  0.1008817E+03  0.7546771E-02  0.1279746E+00
          4   -1    0    0  502    0 -0.00000000000E+00  0.00000000000E+00  0.57763354248E+02  0.57763354248E+02  0.00000000000E+00 0. -1.
         21   -1    0    0  503  502  0.00000000000E+00 -0.00000000000E+00 -0.64607748878E+03  0.64607748878E+03  0.00000000000E+00 0. -1.
         23    2    1    2    0    0  0.41380730647E+02 -0.48939168326E+02 -0.84466340333E+02  0.13837280100E+03  0.88910417506E+02 0.  0.
         23    2    1    2    0    0  0.53437785807E+02  0.34361150814E+02 -0.10173249237E+03  0.15093227257E+03  0.91622951620E+02 0.  0.
        -13    1    3    3    0    0 -0.48553424746E+01 -0.26472125665E+02 -0.82664659355E+02  0.86935572086E+02  0.00000000000E+00 0.  1.
         13    1    3    3    0    0  0.46236073122E+02 -0.22467042661E+02 -0.18016809782E+01  0.51437228910E+02  0.00000000000E+00 0. -1.
        -13    1    4    4    0    0  0.40396659139E+02 -0.24588216861E+02 -0.25631225539E+02  0.53790614429E+02  0.00000000000E+00 0.  1.
         13    1    4    4    0    0  0.13041126667E+02  0.58949367675E+02 -0.76101266829E+02  0.97141658144E+02  0.00000000000E+00 0. -1.
         21    1    1    2  503  501 -0.40456305751E+02  0.14414923687E+01 -0.23078113832E+03  0.23430476816E+03  0.00000000000E+00 0. -1.
          4    1    1    2  501    0 -0.54362210703E+02  0.13136525143E+02 -0.17133416350E+03  0.18023100130E+03  0.00000000000E+00 0. -1.
<scales pt_clust_5="13000.00000" pt_clust_6="13000.00000" pt_clust_7="13000.00000" pt_clust_8="13000.00000" pt_clust_9="26.08626" pt_clust_10="100.71340"></scales>
<clustering>
<clus scale="   26.086">  9 10 -1 -1</clus>
<clus scale="   88.910">  5  6 -1 -1</clus>
<clus scale="   91.623">  7  8 -1 -1</clus>
<clus scale="  100.713">  2  9  1 -1</clus>
<clus scale="   98.425">  1  5  2 -1</clus>
<clus scale="  100.713">  2  5  1 -1</clus>
</clustering>
</event>
<event>
10    2  0.2421970E-006  0.1485044E+03  0.7546771E-02  0.1202430E+00
         21   -1    0    0  501  502  0.00000000000E+00  0.00000000000E+00  0.51964754891E+03  0.51964754891E+03  0.00000000000E+00 0. -1.
          3   -1    0    0  503    0 -0.00000000000E+00 -0.00000000000E+00 -0.69750538539E+02  0.69750538539E+02  0.00000000000E+00 0. -1.
         23    2    1    2    0    0  0.12423270886E+03 -0.62999333598E+02  0.13725785167E+03  0.21555405104E+03  0.90670552502E+02 0.  0.
         23    2    1    2    0    0 -0.95582428728E+02  0.14275608205E+02  0.16423193842E+03  0.21127096402E+03  0.91233201022E+02 0.  0.
        -11    1    4    4    0    0 -0.29335449694E+02  0.33599989817E+02  0.12310653931E+03  0.13093795457E+03  0.00000000000E+00 0.  1.
         11    1    4    4    0    0 -0.66246979034E+02 -0.19324381612E+02  0.41125399106E+02  0.80333009451E+02  0.00000000000E+00 0. -1.
        -11    1    3    3    0    0  0.73919489164E+02 -0.10198080520E+01  0.25476202440E+02  0.78193144056E+02  0.00000000000E+00 0.  1.
         11    1    3    3    0    0  0.50313219694E+02 -0.61979525546E+02  0.11178164923E+03  0.13736090698E+03  0.00000000000E+00 0. -1.
         21    1    1    2  503  502 -0.25164828600E+02  0.19897253402E+02  0.45670219027E+02  0.55811631381E+02  0.00000000000E+00 0.  1.
          3    1    1    2  501    0 -0.34854515292E+01  0.28826471991E+02  0.10273700126E+03  0.10676144101E+03  0.00000000000E+00 0. -1.
<scales pt_clust_5="13000.00000" pt_clust_6="13000.00000" pt_clust_7="13000.00000" pt_clust_8="13000.00000" pt_clust_9="34.69185" pt_clust_10="29.03642"></scales>
<clustering>
<clus scale="   29.036">  1 10  2 -1</clus>
<clus scale="   34.692">  1  9  2 -1</clus>
<clus scale="   90.671">  7  8 -1 -1</clus>
<clus scale="   91.233">  5  6 -1 -1</clus>
<clus scale="  148.159">  2  7  1 -1</clus>
<clus scale="   29.036">  1  5  2 -1</clus>
</clustering>
</event>
<event>
10    2  0.2421970E-006  0.1195242E+03  0.7546771E-02  0.1252669E+00
         21   -1    0    0  501  502  0.00000000000E+00  0.00000000000E+00  0.16887846560E+03  0.16887846560E+03  0.00000000000E+00 0. -1.
          3   -1    0    0  503    0 -0.00000000000E+00 -0.00000000000E+00 -0.29939300086E+03  0.29939300086E+03  0.00000000000E+00 0. -1.
         23    2    1    2    0    0  0.10456231327E+02 -0.46227245504E+02 -0.33704289215E+02  0.10806790968E+03  0.91084592500E+02 0.  0.
         23    2    1    2    0    0  0.74010154573E+02 -0.93457105399E+01 -0.17167728403E+03  0.19984543939E+03  0.70001889308E+02 0.  0.
        -13    1    3    3    0    0  0.47262833017E+02 -0.54302274895E+01 -0.18626171747E+02  0.51090087389E+02  0.00000000000E+00 0.  1.
         13    1    3    3    0    0 -0.36806601690E+02 -0.40797018015E+02 -0.15078117468E+02  0.56977822293E+02  0.00000000000E+00 0. -1.
        -13    1    4    4    0    0  0.26607299234E+02  0.17464940813E+02 -0.12216572931E+03  0.12624356597E+03  0.00000000000E+00 0.  1.
         13    1    4    4    0    0  0.47402855339E+02 -0.26810651352E+02 -0.49511554717E+02  0.73601873419E+02  0.00000000000E+00 0. -1.
         21    1    1    2  503  502  0.18440378656E+02  0.28530561898E+02  0.87204748180E+01  0.35072599109E+02  0.00000000000E+00 0. -1.
          3    1    1    2  501    0 -0.10290676456E+03  0.27042394146E+02  0.66146563163E+02  0.12528551828E+03  0.00000000000E+00 0. -1.
<scales pt_clust_5="13000.00000" pt_clust_6="13000.00000" pt_clust_7="13000.00000" pt_clust_8="13000.00000" pt_clust_9="33.97117" pt_clust_10="96.88018"></scales>
<clustering>
<clus scale="   33.971">  1  9  2 -1</clus>
<clus scale="   70.002">  7  8 -1 -1</clus>
<clus scale="   91.085">  5  6 -1 -1</clus>
<clus scale="  100.234">  2  5  1 -1</clus>
<clus scale="   96.880">  1 10  2 -1</clus>
<clus scale="   33.971">  1  5  2 -1</clus>
</clustering>
</event>
<event>
10    2  0.2421970E-006  0.1763425E+03  0.7546771E-02  0.1184612E+00
         21   -1    0    0  503  502  0.00000000000E+00  0.00000000000E+00  0.15734190862E+03  0.15734190862E+03  0.00000000000E+00 0.  1.
         -2   -1    0    0    0  501 -0.00000000000E+00 -0.00000000000E+00 -0.69958333515E+03  0.69958333515E+03  0.00000000000E+00 0.  1.
         23    2    1    2    0    0  0.22414199160E+03  0.94835067884E+02 -0.25599371673E+03  0.36632288026E+03  0.97089376848E+02 0.  0.
         23    2    1    2    0    0 -0.39021596001E+02 -0.55652761555E+02 -0.93891635342E+02  0.14821840126E+03  0.92374999113E+02 0.  0.
        -13    1    3    3    0    0  0.20429416211E+03  0.10974364672E+03 -0.20464379361E+03  0.30928765725E+03  0.00000000000E+00 0.  1.
         13    1    3    3    0    0  0.19847829486E+02 -0.14908578835E+02 -0.51349923124E+02  0.57035223003E+02  0.00000000000E+00 0. -1.
        -13    1    4    4    0    0  0.29467643691E+02 -0.28254502719E+02 -0.36375480915E+02  0.54679379663E+02  0.00000000000E+00 0. -1.
         13    1    4    4    0    0 -0.68489239692E+02 -0.27398258836E+02 -0.57516154427E+02  0.93539021595E+02  0.00000000000E+00 0.  1.
         21    1    1    2  503  501 -0.12317128268E+03  0.27806451574E+02 -0.21412211402E+03  0.24858126104E+03  0.00000000000E+00 0.  1.
         -2    1    1    2    0  502 -0.61949112916E+02 -0.66988757904E+02  0.21766039563E+02  0.93802701213E+02  0.00000000000E+00 0.  1.
<scales pt_clust_5="13000.00000" pt_clust_6="13000.00000" pt_clust_7="13000.00000" pt_clust_8="13000.00000" pt_clust_9="147.20847" pt_clust_10="91.24246"></scales>
<clustering>
<clus scale="   91.242">  1 10  2 -1</clus>
<clus scale="   92.375">  7  8 -1 -1</clus>
<clus scale="   97.089">  5  6 -1 -1</clus>
<clus scale="  130.867">  1  7  2 -1</clus>
<clus scale="  147.208">  2  9  1 -1</clus>
<clus scale="   91.242">  1  5  2 -1</clus>
</clustering>
</event>
<event>
10    2  0.2421970E-006  0.1383962E+03  0.7546771E-02  0.1215725E+00
         21   -1    0    0  501  502  0.00000000000E+00  0.00000000000E+00  0.17119973343E+03  0.17119973343E+03  0.00000000000E+00 0. -1.
          1   -1    0    0  503    0 -0.00000000000E+00 -0.00000000000E+00 -0.53206481656E+03  0.53206481656E+03  0.00000000000E+00 0. -1.
         23    2    1    2    0    0  0.10932819449E+03  0.27192331914E+02 -0.40349844136E+03  0.42895135707E+03  0.92174820470E+02 0.  0.
         23    2    1    2    0    0 -0.67393748258E+02  0.33593365226E+02  0.26798629323E+00  0.11827148017E+03  0.91201094914E+02 0.  0.
        -11    1    3    3    0    0  0.14621601886E+02  0.25500969730E+02 -0.24412973485E+02  0.38211045174E+02  0.00000000000E+00 0.  1.
         11    1    3    3    0    0  0.94706592608E+02  0.16913621836E+01 -0.37908546787E+03  0.39074031190E+03  0.00000000000E+00 0. -1.
        -13    1    4    4    0    0 -0.27410287932E+02 -0.30995802083E+02  0.71755497347E+01  0.41994668058E+02  0.00000000000E+00 0.  1.
         13    1    4    4    0    0 -0.39983460325E+02  0.64589167309E+02 -0.69075634415E+01  0.76276812112E+02  0.00000000000E+00 0. -1.
         21    1    1    2  503  502 -0.22020008682E+02 -0.45504890641E+02 -0.43432050474E+02  0.66647722114E+02  0.00000000000E+00 0. -1.
          1    1    1    2  501    0 -0.19914437554E+02 -0.15280806499E+02  0.85797422406E+02  0.89393990636E+02  0.00000000000E+00 0. -1.
<scales pt_clust_5="13000.00000" pt_clust_6="13000.00000" pt_clust_7="13000.00000" pt_clust_8="13000.00000" pt_clust_9="53.68968" pt_clust_10="25.10155"></scales>
<clustering>
<clus scale="   25.102">  1 10  2 -1</clus>
<clus scale="   53.690">  1  9  2 -1</clus>
<clus scale="   91.201">  7  8 -1 -1</clus>
<clus scale="   92.175">  5  6 -1 -1</clus>
<clus scale="  137.750">  1  7  2 -1</clus>
<clus scale="   25.102">  1  5  2 -1</clus>
</clustering>
</event>
<event>
10    2  0.2421970E-006  0.2245574E+03  0.7546771E-02  0.1161757E+00
         21   -1    0    0  503  502  0.00000000000E+00  0.00000000000E+00  0.38250700451E+03  0.38250700451E+03  0.00000000000E+00 0. -1.
          2   -1    0    0  502    0 -0.00000000000E+00 -0.00000000000E+00 -0.24723750199E+03  0.24723750199E+03  0.00000000000E+00 0. -1.
         23    2    1    2    0    0 -0.50680139206E+02  0.13226693426E+02 -0.73361515941E+02  0.12939723442E+03  0.92834855121E+02 0.  0.
         23    2    1    2    0    0 -0.32547480331E+02  0.18737804430E+03  0.17440732775E+02  0.20996796759E+03  0.87249632037E+02 0.  0.
        -11    1    3    3    0    0 -0.38864961128E+02  0.50908926409E+02 -0.59846994752E+02  0.87657668076E+02  0.00000000000E+00 0. -1.
         11    1    3    3    0    0 -0.11815178078E+02 -0.37682232983E+02 -0.13514521189E+02  0.41739566344E+02  0.00000000000E+00 0.  1.
        -11    1    4    4    0    0 -0.59431222515E+02  0.92342863986E+02  0.17519575067E+02  0.11120346330E+03  0.00000000000E+00 0. -1.
         11    1    4    4    0    0  0.26883742184E+02  0.95035180319E+02 -0.78842291594E-01  0.98764504292E+02  0.00000000000E+00 0.  1.
         21    1    1    2  503  501  0.54754025120E+02 -0.11272162187E+03  0.12265278296E+03  0.17535071278E+03  0.00000000000E+00 0. -1.
          2    1    1    2  501    0  0.28473594416E+02 -0.87883115861E+02  0.68537502717E+02  0.11502859171E+03  0.00000000000E+00 0. -1.
<scales pt_clust_5="13000.00000" pt_clust_6="13000.00000" pt_clust_7="13000.00000" pt_clust_8="13000.00000" pt_clust_9="20.98406" pt_clust_10="208.35266"></scales>
<clustering>
<clus scale="   20.984">  9 10 -1 -1</clus>
<clus scale="   87.250">  7  8 -1 -1</clus>
<clus scale="   92.835">  5  6 -1 -1</clus>
<clus scale="  106.591">  2  5  1 -1</clus>
<clus scale="  208.353">  1  9  2 -1</clus>
<clus scale="  208.353">  1  5  2 -1</clus>
</clustering>
</event>
<event>
10    2  0.2421970E-006  0.9367780E+02  0.7546771E-02  0.1294194E+00
         21   -1    0    0  501  502  0.00000000000E+00  0.00000000000E+00  0.81298314141E+02  0.81298314141E+02  0.00000000000E+00 0. -1.
          1   -1    0    0  503    0 -0.00000000000E+00 -0.00000000000E+00 -0.50676412505E+03  0.50676412505E+03  0.00000000000E+00 0. -1.
         23    2    1    2    0    0 -0.48311714151E+02 -0.32436295818E-01 -0.24435074357E+03  0.26531043465E+03  0.91369130844E+02 0.  0.
         23    2    1    2    0    0 -0.49194766758E+02  0.45269143197E+02 -0.16553918762E+03  0.20054178524E+03  0.91347493606E+02 0.  0.
        -11    1    4    4    0    0  0.13810657964E+02  0.21714474072E+02 -0.11100224881E+03  0.11394626760E+03  0.00000000000E+00 0.  1.
         11    1    4    4    0    0 -0.63005424722E+02  0.23554669125E+02 -0.54536938808E+02  0.86595517647E+02  0.00000000000E+00 0. -1.
        -13    1    3    3    0    0 -0.46061124696E+02 -0.34780656915E+02 -0.20402197682E+03  0.21202897993E+03  0.00000000000E+00 0.  1.
         13    1    3    3    0    0 -0.22505894556E+01  0.34748220619E+02 -0.40328766752E+02  0.53281454718E+02  0.00000000000E+00 0. -1.
         21    1    1    2  503  502  0.82308331077E+01 -0.18659280450E+02 -0.20520860364E+02  0.28931316434E+02  0.00000000000E+00 0. -1.
          1    1    1    2  501    0  0.89275647802E+02 -0.26577426451E+02  0.49449806455E+01  0.93278902871E+02  0.00000000000E+00 0. -1.
<scales pt_clust_5="13000.00000" pt_clust_6="13000.00000" pt_clust_7="13000.00000" pt_clust_8="13000.00000" pt_clust_9="20.39400" pt_clust_10="102.04585"></scales>
<clustering>
<clus scale="   20.394">  1  9  2 -1</clus>
<clus scale="   91.347">  5  6 -1 -1</clus>
<clus scale="   91.369">  7  8 -1 -1</clus>
<clus scale="  102.046">  1 10  2 -1</clus>
<clus scale="   93.657">  1  5  2 -1</clus>
<clus scale="   20.394">  1  5  2 -1</clus>
</clustering>
</event>
<event>
10    2  0.2421970E-006  0.9941837E+02  0.7546771E-02  0.1283025E+00
         21   -1    0    0  501  502  0.00000000000E+00  0.00000000000E+00  0.82160717924E+02  0.82160717924E+02  0.00000000000E+00 0.  1.
          1   -1    0    0  503    0 -0.00000000000E+00 -0.00000000000E+00 -0.35735411252E+03  0.35735411252E+03  0.00000000000E+00 0. -1.
         23    2    1    2    0    0 -0.43335670879E+02  0.15259777510E+02 -0.19778987245E+03  0.22159551874E+03  0.88729358730E+02 0.  0.
         23    2    1    2    0    0  0.57497533133E+01 -0.38531985015E+02 -0.87602386828E+02  0.13270977924E+03  0.91760197226E+02 0.  0.
        -11    1    3    3    0    0  0.13998569449E+02  0.14791555868E+02 -0.57245251609E+01  0.21154674659E+02  0.00000000000E+00 0.  1.
         11    1    3    3    0    0 -0.57334240328E+02  0.46822164159E+00 -0.19206534729E+03  0.20044084408E+03  0.00000000000E+00 0. -1.
        -13    1    4    4    0    0 -0.17909880421E+02  0.24495211995E+02 -0.40231810844E+02  0.50392239791E+02  0.00000000000E+00 0.  1.
         13    1    4    4    0    0  0.23659633734E+02 -0.63027197010E+02 -0.47370575985E+02  0.82317539446E+02  0.00000000000E+00 0. -1.
         21    1    1    2  503  502  0.46377436578E+02  0.19207890758E+01 -0.17089151222E+02  0.49463068482E+02  0.00000000000E+00 0.  1.
          1    1    1    2  501    0 -0.87915190128E+01  0.21351418429E+02  0.27288015904E+02  0.35746463986E+02  0.00000000000E+00 0. -1.
<scales pt_clust_5="13000.00000" pt_clust_6="13000.00000" pt_clust_7="13000.00000" pt_clust_8="13000.00000" pt_clust_9="44.43649" pt_clust_10="23.09056"></scales>
<clustering>
<clus scale="   23.091">  1 10  2 -1</clus>
<clus scale="   44.436">  1  9  2 -1</clus>
<clus scale="   88.729">  5  6 -1 -1</clus>
<clus scale="   91.760">  7  8 -1 -1</clus>
<clus scale="   96.628">  2  5  1 -1</clus>
<clus scale="   23.091">  1  5  2 -1</clus>
</clustering>
</event>
<event>
10    2  0.2421970E-006  0.3137900E+03  0.7546771E-02  0.1098222E+00
         21   -1    0    0  501  502  0.00000000000E+00  0.00000000000E+00  0.15343915623E+03  0.15343915623E+03  0.00000000000E+00 0. -1.
          1   -1    0    0  503    0 -0.00000000000E+00 -0.00000000000E+00 -0.15547731187E+04  0.15547731187E+04  0.00000000000E+00 0. -1.
         23    2    1    2    0    0  0.14856756918E+03  0.11386119927E+02 -0.37772623436E+03  0.41628485784E+03  0.91727904167E+02 0.  0.
         23    2    1    2    0    0  0.14169202037E+03  0.13886191943E+03 -0.34066994504E+03  0.40574612459E+03  0.95992941734E+02 0.  0.
        -11    1    4    4    0    0  0.17276199828E+02  0.47255100154E+02 -0.16152032778E+03  0.16917543515E+03  0.00000000000E+00 0. -1.
         11    1    4    4    0    0  0.12441582054E+03  0.91606819275E+02 -0.17914961725E+03  0.23657068944E+03  0.00000000000E+00 0.  1.
        -13    1    3    3    0    0  0.82373929664E+02  0.49783588069E+02 -0.24258559771E+03  0.26098207246E+03  0.00000000000E+00 0. -1.
         13    1    3    3    0    0  0.66193639515E+02 -0.38397468143E+02 -0.13514063665E+03  0.15530278538E+03  0.00000000000E+00 0.  1.
         21    1    1    2  503  502 -0.36428651505E+03 -0.24512246547E+03 -0.58242107254E+03  0.72938603898E+03  0.00000000000E+00 0. -1.
          1    1    1    2  501    0  0.74026925495E+02  0.94874426111E+02 -0.10051671049E+03  0.15679525348E+03  0.00000000000E+00 0. -1.
<scales pt_clust_5="13000.00000" pt_clust_6="13000.00000" pt_clust_7="13000.00000" pt_clust_8="13000.00000" pt_clust_9="298.74658" pt_clust_10="120.33762"></scales>
<clustering>
<clus scale="   91.728">  7  8 -1 -1</clus>
<clus scale="   95.993">  5  6 -1 -1</clus>
<clus scale="  120.338">  1 10  2 -1</clus>
<clus scale="  186.214">  2  7  1 -1</clus>
<clus scale="  298.747">  1  9  2 -1</clus>
<clus scale="  120.338">  1  5  2 -1</clus>
</clustering>
</event>
<event>
10    2  0.2421970E-006  0.2298227E+03  0.7546771E-02  0.1142849E+00
         21   -1    0    0  501  502  0.00000000000E+00  0.00000000000E+00  0.85239679081E+02  0.85239679081E+02  0.00000000000E+00 0. -1.
          2   -1    0    0  503    0 -0.00000000000E+00 -0.00000000000E+00 -0.18227978936E+04  0.18227978936E+04  0.00000000000E+00 0. -1.
         23    2    1    2    0    0 -0.32801666467E+02 -0.94595233078E+02 -0.53631140344E+03  0.55290666600E+03  0.89731000249E+02 0.  0.
         23    2    1    2    0    0  0.11402364530E+03 -0.14388657345E+03 -0.44045434151E+03  0.48596630311E+03  0.91970011923E+02 0.  0.
        -13    1    4    4    0    0  0.53080641025E+02 -0.23548587816E+02 -0.21985444304E+03  0.22739407768E+03  0.00000000000E+00 0.  1.
         13    1    4    4    0    0  0.60943004277E+02 -0.12033798563E+03 -0.22059989847E+03  0.25857222543E+03  0.00000000000E+00 0. -1.
        -13    1    3    3    0    0  0.20662459939E+02 -0.61638815077E+01 -0.35420945846E+02  0.41467747594E+02  0.00000000000E+00 0.  1.
         13    1    3    3    0    0 -0.53464126406E+02 -0.88431351570E+02 -0.50089045759E+03  0.51143891841E+03  0.00000000000E+00 0. -1.
         21    1    1    2  503  502 -0.10743819512E+03 -0.17050976757E+02 -0.46430204839E+03  0.47687534400E+03  0.00000000000E+00 0. -1.
          2    1    1    2  501    0  0.26216216281E+02  0.25553278329E+03 -0.29649042121E+03  0.39228925960E+03  0.00000000000E+00 0. -1.
<scales pt_clust_5="13000.00000" pt_clust_6="13000.00000" pt_clust_7="13000.00000" pt_clust_8="13000.00000" pt_clust_9="108.78282" pt_clust_10="210.61812"></scales>
<clustering>
<clus scale="   89.731">  7  8 -1 -1</clus>
<clus scale="   91.970">  5  6 -1 -1</clus>
<clus scale="  108.783">  2  9  1 -1</clus>
<clus scale="  155.349">  2  7  1 -1</clus>
<clus scale="  210.618">  1 10  2 -1</clus>
<clus scale="  210.618">  1  5  2 -1</clus>
</clustering>
</event>
<event>
10    2  0.2421970E-006  0.2190917E+03  0.7546771E-02  0.1134588E+00
          2   -1    0    0  503    0 -0.00000000000E+00  0.00000000000E+00  0.12662337548E+04  0.12662337548E+04  0.00000000000E+00 0. -1.
         21   -1    0    0  501  502  0.00000000000E+00 -0.00000000000E+00 -0.20254295954E+03  0.20254295954E+03  0.00000000000E+00 0. -1.
         23    2    1    2    0    0  0.10911206798E+03  0.14151060506E+03  0.78357221031E+03  0.80902615618E+03  0.92775093035E+02 0.  0.
         23    2    1    2    0    0 -0.10568749294E+03 -0.30112263371E+03  0.32598218829E+03  0.46546265825E+03  0.92446808766E+02 0.  0.
        -11    1    3    3    0    0  0.29330221888E+02 -0.92627090436E+01  0.11853988416E+03  0.12246535767E+03  0.00000000000E+00 0. -1.
         11    1    3    3    0    0  0.79781846091E+02  0.15077331410E+03  0.66503232615E+03  0.68656079850E+03  0.00000000000E+00 0.  1.
        -13    1    4    4    0    0 -0.42764270409E+02 -0.23802974289E+03  0.25591584788E+03  0.35210774278E+03  0.00000000000E+00 0. -1.
         13    1    4    4    0    0 -0.62923222527E+02 -0.63092890817E+02  0.70066340401E+02  0.11335491547E+03  0.00000000000E+00 0.  1.
         21    1    1    2  503  502 -0.79383620713E+01  0.59214388952E+02 -0.68886925283E+02  0.91185360263E+02  0.00000000000E+00 0. -1.
          2    1    1    2  501    0  0.45137870296E+01  0.10039763969E+03  0.23023321941E+02  0.10310253965E+03  0.00000000000E+00 0. -1.
<scales pt_clust_5="13000.00000" pt_clust_6="13000.00000" pt_clust_7="13000.00000" pt_clust_8="13000.00000" pt_clust_9="59.74413" pt_clust_10="119.76640"></scales>
<clustering>
<clus scale="   59.744">  2  9  1 -1</clus>
<clus scale="   92.447">  7  8 -1 -1</clus>
<clus scale="   92.775">  5  6 -1 -1</clus>
<clus scale="  119.766">  2 10  1 -1</clus>
<clus scale="  218.953">  2  7  1 -1</clus>
<clus scale="   59.744">  2  5  1 -1</clus>
</clustering>
</event>
<event>
10    2  0.2421970E-006  0.1070564E+03  0.7546771E-02  0.1266770E+00
         21   -1    0    0  501  502  0.00000000000E+00  0.00000000000E+00  0.50089860551E+02  0.50089860551E+02  0.00000000000E+00 0. -1.
          1   -1    0    0  503    0 -0.00000000000E+00 -0.00000000000E+00 -0.40356288571E+03  0.40356288571E+03  0.00000000000E+00 0. -1.
         23    2    1    2    0    0  0.60983098517E+02  0.11296514085E+02 -0.23444467505E+03  0.25928648480E+03  0.91753070827E+02 0.  0.
         23    2    1    2    0    0 -0.37867923254E+02  0.21613734626E+02 -0.10252370216E+03  0.14531746651E+03  0.93300179172E+02 0.  0.
        -11    1    4    4    0    0  0.17922342402E+02  0.39032966334E+02 -0.31100717005E+02  0.53028647128E+02  0.00000000000E+00 0. -1.
         11    1    4    4    0    0 -0.55790265656E+02 -0.17419231708E+02 -0.71422985155E+02  0.92288819386E+02  0.00000000000E+00 0.  1.
        -13    1    3    3    0    0  0.55410074748E+02 -0.30082856734E+02 -0.97428770864E+02  0.11605007559E+03  0.00000000000E+00 0.  1.
         13    1    3    3    0    0  0.55730237693E+01  0.41379370819E+02 -0.13701590419E+03  0.14323640921E+03  0.00000000000E+00 0. -1.
         21    1    1    2  503  502 -0.47939588064E+01 -0.23748589953E+02 -0.27683187288E+01  0.24385265108E+02  0.00000000000E+00 0. -1.
          1    1    1    2  501    0 -0.18321216457E+02 -0.91616587569E+01 -0.13736329223E+02  0.24663529840E+02  0.00000000000E+00 0. -1.
<scales pt_clust_5="13000.00000" pt_clust_6="13000.00000" pt_clust_7="13000.00000" pt_clust_8="13000.00000" pt_clust_9="27.55959" pt_clust_10="20.48421"></scales>
<clustering>
<clus scale="   20.484">  1 10  2 -1</clus>
<clus scale="   27.560">  1  9  2 -1</clus>
<clus scale="   91.753">  7  8 -1 -1</clus>
<clus scale="   93.300">  5  6 -1 -1</clus>
<clus scale="  105.711">  2  7  1 -1</clus>
<clus scale="   20.484">  1  5  2 -1</clus>
</clustering>
</event>
<event>
10    2  0.2421970E-006  0.1013681E+03  0.7546771E-02  0.1279309E+00
         21   -1    0    0  501  502  0.00000000000E+00  0.00000000000E+00  0.13183258334E+03  0.13183258334E+03  0.00000000000E+00 0.  1.
          1   -1    0    0  503    0 -0.00000000000E+00 -0.00000000000E+00 -0.21700306107E+03  0.21700306107E+03  0.00000000000E+00 0. -1.
         23    2    1    2    0    0 -0.31514277345E+02 -0.56121760431E+02 -0.10301060783E+03  0.14962761754E+03  0.87375265005E+02 0.  0.
         23    2    1    2    0    0 -0.18281558435E+02  0.30599225775E+02  0.64746819713E+02  0.11748465116E+03  0.91323406634E+02 0.  0.
        -11    1    3    3    0    0  0.21737296478E+02 -0.17792312718E+02 -0.71605685247E+00  0.28099629667E+02  0.00000000000E+00 0. -1.
         11    1    3    3    0    0 -0.53251573823E+02 -0.38329447713E+02 -0.10229455098E+03  0.12152798788E+03  0.00000000000E+00 0.  1.
        -11    1    4    4    0    0 -0.12643284128E+02 -0.17603261452E+02  0.65453435558E+02  0.68948384126E+02  0.00000000000E+00 0.  1.
         11    1    4    4    0    0 -0.56382743066E+01  0.48202487227E+02 -0.70661584471E+00  0.48536267038E+02  0.00000000000E+00 0. -1.
         21    1    1    2  503  502  0.10601867329E+02  0.19106023317E+02 -0.33128675575E+02  0.39685625398E+02  0.00000000000E+00 0. -1.
          1    1    1    2  501    0  0.39193968450E+02  0.64165113382E+01 -0.13778014033E+02  0.42037750312E+02  0.00000000000E+00 0. -1.
<scales pt_clust_5="13000.00000" pt_clust_6="13000.00000" pt_clust_7="13000.00000" pt_clust_8="13000.00000" pt_clust_9="21.85039" pt_clust_10="41.89340"></scales>
<clustering>
<clus scale="   21.850">  2  9  1 -1</clus>
<clus scale="   41.893">  1 10  2 -1</clus>
<clus scale="   87.375">  5  6 -1 -1</clus>
<clus scale="   91.323">  7  8 -1 -1</clus>
<clus scale="   97.826">  2  5  1 -1</clus>
<clus scale="   41.893">  1  5  2 -1</clus>
</clustering>
</event>
<event>
10    2  0.2421970E-006  0.2294253E+03  0.7546771E-02  0.1127133E+00
         21   -1    0    0  503  502  0.00000000000E+00  0.00000000000E+00  0.92838819946E+02  0.92838819946E+02  0.00000000000E+00 0. -1.
          1   -1    0    0  502    0 -0.00000000000E+00 -0.00000000000E+00 -0.97110143511E+03  0.97110143511E+03  0.00000000000E+00 0. -1.
         23    2    1    2    0    0  0.47928861984E+01 -0.16871160156E+03 -0.29832790417E+03  0.35446597252E+03  0.90332779287E+02 0.  0.
         23    2    1    2    0    0 -0.31525027420E+02  0.25967206401E+03 -0.52629488226E+03  0.59480940945E+03  0.91588876470E+02 0.  0.
        -11    1    3    3    0    0  0.42702316951E+02 -0.12547339775E+03 -0.22681150872E+03  0.26269853807E+03  0.00000000000E+00 0. -1.
         11    1    3    3    0    0 -0.37909430753E+02 -0.43238203809E+02 -0.71516395450E+02  0.91767434457E+02  0.00000000000E+00 0.  1.
        -13    1    4    4    0    0 -0.35418978055E+02  0.19916280453E+03 -0.47158930698E+03  0.51314403550E+03  0.00000000000E+00 0. -1.
         13    1    4    4    0    0  0.38939506358E+01  0.60509259485E+02 -0.54705575278E+02  0.81665373945E+02  0.00000000000E+00 0.  1.
         21    1    1    2  503  501  0.22361554548E+02 -0.57483355869E+02 -0.15240969533E+02  0.63534734407E+02  0.00000000000E+00 0.  1.
          1    1    1    2  501    0  0.43705866728E+01 -0.33477106583E+02 -0.38398859207E+02  0.51130138680E+02  0.00000000000E+00 0. -1.
<scales pt_clust_5="13000.00000" pt_clust_6="13000.00000" pt_clust_7="13000.00000" pt_clust_8="13000.00000" pt_clust_9="26.49403" pt_clust_10="101.34496"></scales>
<clustering>
<clus scale="   26.494">  9 10 -1 -1</clus>
<clus scale="   90.333">  5  6 -1 -1</clus>
<clus scale="   91.589">  7  8 -1 -1</clus>
<clus scale="  101.345">  1  9  2 -1</clus>
<clus scale="  228.927">  2  5  1 -1</clus>
<clus scale="  101.345">  1  5  2 -1</clus>
</clustering>
</event>
<event>
10    2  0.2421970E-006  0.9867976E+02  0.7546771E-02  0.1284167E+00
         21   -1    0    0  503  502  0.00000000000E+00  0.00000000000E+00  0.35482346324E+03  0.35482346324E+03  0.00000000000E+00 0.  1.
          4   -1    0    0  502    0 -0.00000000000E+00 -0.00000000000E+00 -0.13049702940E+03  0.13049702940E+03  0.00000000000E+00 0. -1.
         23    2    1    2    0    0  0.39996844010E+02  0.61438349168E+01 -0.56368432083E+02  0.11678097544E+03  0.93930303160E+02 0.  0.
         23    2    1    2    0    0 -0.13164136155E+02  0.99348056477E+01  0.11743431889E+02  0.94056048202E+02  0.91851168565E+02 0.  0.
        -11    1    4    4    0    0  0.77729064534E+01  0.31774222662E+02  0.40673911490E+02  0.52195654765E+02  0.00000000000E+00 0.  1.
         11    1    4    4    0    0 -0.20937042608E+02 -0.21839417014E+02 -0.28930479601E+02  0.41860393436E+02  0.00000000000E+00 0. -1.
        -13    1    3    3    0    0  0.69302377350E+02 -0.75899415560E+01 -0.41815269830E+02  0.81295408912E+02  0.00000000000E+00 0.  1.
         13    1    3    3    0    0 -0.29305533339E+02  0.13733776473E+02 -0.14553162252E+02  0.35485566531E+02  0.00000000000E+00 0. -1.
         21    1    1    2  503  501 -0.17012663664E+02  0.13908741176E+02  0.82277925538E+02  0.85161850831E+02  0.00000000000E+00 0.  1.
          4    1    1    2  501    0 -0.98200441914E+01 -0.29987381741E+02  0.18667350849E+03  0.18932161817E+03  0.00000000000E+00 0. -1.
<scales pt_clust_5="13000.00000" pt_clust_6="13000.00000" pt_clust_7="13000.00000" pt_clust_8="13000.00000" pt_clust_9="21.97462" pt_clust_10="29.68379"></scales>
<clustering>
<clus scale="   21.975">  1  9  2 -1</clus>
<clus scale="   29.684">  1 10  2 -1</clus>
<clus scale="   91.851">  5  6 -1 -1</clus>
<clus scale="   93.930">  7  8 -1 -1</clus>
<clus scale="   96.703">  1  5  2 -1</clus>
<clus scale="   21.975">  1  5  2 -1</clus>
</clustering>
</event>
<event>
10    2  0.2421970E-006  0.1798582E+03  0.7546771E-02  0.1168093E+00
         21   -1    0    0  503  502  0.00000000000E+00  0.00000000000E+00  0.70298095459E+02  0.70298095459E+02  0.00000000000E+00 0. -1.
          3   -1    0    0  502    0 -0.00000000000E+00 -0.00000000000E+00 -0.87116381571E+03  0.87116381571E+03  0.00000000000E+00 0. -1.
         23    2    1    2    0    0 -0.12568472594E+03 -0.91839005175E+02 -0.43981464502E+03  0.47559291410E+03  0.92307338628E+02 0.  0.
         23    2    1    2    0    0  0.63369104800E+02  0.15481969332E+03 -0.29674683647E+03  0.35261558749E+03  0.91072974603E+02 0.  0.
        -13    1    3    3    0    0 -0.25010182474E+02 -0.30415457866E+02 -0.31024011466E+02  0.50130814795E+02  0.00000000000E+00 0.  1.
         13    1    3    3    0    0 -0.10067454347E+03 -0.61423547309E+02 -0.40879063355E+03  0.42546209931E+03  0.00000000000E+00 0. -1.
        -13    1    4    4    0    0 -0.14495038678E+02  0.73739827315E+02 -0.14987834123E+03  0.16766390622E+03  0.00000000000E+00 0.  1.
         13    1    4    4    0    0  0.77864143478E+02  0.81079866001E+02 -0.14686849524E+03  0.18495168127E+03  0.00000000000E+00 0. -1.
         21    1    1    2  503  501  0.31650081909E+02 -0.27636550595E+02 -0.13383839632E+02  0.44098001960E+02  0.00000000000E+00 0. -1.
          3    1    1    2  501    0  0.30665539232E+02 -0.35344137547E+02 -0.50920399125E+02  0.69155407615E+02  0.00000000000E+00 0. -1.
<scales pt_clust_5="13000.00000" pt_clust_6="13000.00000" pt_clust_7="13000.00000" pt_clust_8="13000.00000" pt_clust_9="27.48862" pt_clust_10="93.22714"></scales>
<clustering>
<clus scale="   27.489">  9 10 -1 -1</clus>
<clus scale="   91.073">  7  8 -1 -1</clus>
<clus scale="   92.307">  5  6 -1 -1</clus>
<clus scale="   93.227">  1  9  2 -1</clus>
<clus scale="  179.228">  1  7  2 -1</clus>
<clus scale="   93.227">  1  5  2 -1</clus>
</clustering>
</event>
<event>
10    2  0.2421970E-006  0.2053721E+03  0.7546771E-02  0.1171685E+00
          1   -1    0    0  502    0 -0.00000000000E+00  0.00000000000E+00  0.17373973913E+03  0.17373973913E+03  0.00000000000E+00 0. -1.
         21   -1    0    0  503  502  0.00000000000E+00 -0.00000000000E+00 -0.13044921274E+04  0.13044921274E+04  0.00000000000E+00 0. -1.
         23    2    1    2    0    0  0.62542025301E+02 -0.17737345714E+01  0.99117766099E+02  0.14872895858E+03  0.91549552162E+02 0.  0.
         23    2    1    2    0    0 -0.10964991762E+03 -0.17274641055E+03 -0.27121305321E+03  0.35181235695E+03  0.91383737488E+02 0.  0.
        -13    1    3    3    0    0 -0.19462258478E+02  0.10636817844E+02  0.43621867134E+02  0.48936578254E+02  0.00000000000E+00 0.  1.
         13    1    3    3    0    0  0.82004283779E+02 -0.12410552415E+02  0.55495898965E+02  0.99792380327E+02  0.00000000000E+00 0. -1.
        -13    1    4    4    0    0 -0.94843906652E+02 -0.65200568975E+02 -0.12860983616E+03  0.17258902277E+03  0.00000000000E+00 0. -1.
         13    1    4    4    0    0 -0.14806010971E+02 -0.10754584157E+03 -0.14260321704E+03  0.17922333417E+03  0.00000000000E+00 0.  1.
         21    1    1    2  503  501  0.44256149450E+02  0.55013305944E+02 -0.42345269239E+03  0.42929855961E+03  0.00000000000E+00 0. -1.
          1    1    1    2  501    0  0.28517428717E+01  0.11950683918E+03 -0.53520440882E+03  0.54839199143E+03  0.00000000000E+00 0. -1.
<scales pt_clust_5="13000.00000" pt_clust_6="13000.00000" pt_clust_7="13000.00000" pt_clust_8="13000.00000" pt_clust_9="49.68128" pt_clust_10="194.95035"></scales>
<clustering>
<clus scale="   49.681">  9 10 -1 -1</clus>
<clus scale="   91.384">  7  8 -1 -1</clus>
<clus scale="   91.550">  5  6 -1 -1</clus>
<clus scale="  110.887">  1  5  2 -1</clus>
<clus scale="  194.950">  2  9  1 -1</clus>
<clus scale="  194.950">  2  5  1 -1</clus>
</clustering>
</event>
<event>
10    2  0.2421970E-006  0.1983146E+03  0.7546771E-02  0.1151186E+00
         21   -1    0    0  501  502  0.00000000000E+00  0.00000000000E+00  0.32907965683E+03  0.32907965683E+03  0.00000000000E+00 0. -1.
          2   -1    0    0  503    0 -0.00000000000E+00 -0.00000000000E+00 -0.12474609524E+04  0.12474609524E+04  0.00000000000E+00 0. -1.
         23    2    1    2    0    0 -0.18062471841E+03 -0.60360510198E+01 -0.65903971082E+03  0.68941191936E+03  0.91069925357E+02 0.  0.
         23    2    1    2    0    0  0.15451343130E+03  0.10457221809E+03 -0.50224736368E+03  0.54343681625E+03  0.90892297187E+02 0.  0.
        -11    1    4    4    0    0  0.10282166146E+03  0.68908616408E+02 -0.43119475923E+03  0.44860852852E+03  0.00000000000E+00 0. -1.
         11    1    4    4    0    0  0.51691769837E+02  0.35663601682E+02 -0.71052604451E+02  0.94828287726E+02  0.00000000000E+00 0.  1.
        -13    1    3    3    0    0 -0.72956532001E+02  0.40232440965E+02 -0.22876551025E+03  0.24346450161E+03  0.00000000000E+00 0. -1.
         13    1    3    3    0    0 -0.10766818641E+03 -0.46268491984E+02 -0.43027420057E+03  0.44594741774E+03  0.00000000000E+00 0.  1.
         21    1    1    2  503  502  0.74222441443E+02 -0.14815893993E+03  0.20895333297E+03  0.26668621572E+03  0.00000000000E+00 0. -1.
          2    1    1    2  501    0 -0.48111154332E+02  0.49622772858E+02  0.33952445973E+02  0.77005657876E+02  0.00000000000E+00 0. -1.
<scales pt_clust_5="13000.00000" pt_clust_6="13000.00000" pt_clust_7="13000.00000" pt_clust_8="13000.00000" pt_clust_9="109.91071" pt_clust_10="69.11659"></scales>
<clustering>
<clus scale="   69.117">  1 10  2 -1</clus>
<clus scale="   90.892">  5  6 -1 -1</clus>
<clus scale="   91.070">  7  8 -1 -1</clus>
<clus scale="  109.911">  1  9  2 -1</clus>
<clus scale="  198.233">  1  5  2 -1</clus>
<clus scale="   69.117">  1  5  2 -1</clus>
</clustering>
</event>
<event>
10    2  0.2421970E-006  0.2241529E+03  0.7546771E-02  0.1148963E+00
         21   -1    0    0  503  502  0.00000000000E+00  0.00000000000E+00  0.10925191900E+03  0.10925191900E+03  0.00000000000E+00 0. -1.
          1   -1    0    0  502    0 -0.00000000000E+00 -0.00000000000E+00 -0.14465703781E+04  0.14465703781E+04  0.00000000000E+00 0. -1.
         23    2    1    2    0    0 -0.49295047175E+02 -0.99072953095E+02 -0.85122316134E+02  0.16788307057E+03  0.93238752509E+02 0.  0.
         23    2    1    2    0    0  0.92250449665E+02  0.28361404185E+03 -0.10976373132E+04  0.11408806503E+04  0.88622325905E+02 0.  0.
        -11    1    3    3    0    0 -0.49735198950E+02 -0.14811383336E+02 -0.59023802297E+01  0.52228394416E+02  0.00000000000E+00 0.  1.
         11    1    3    3    0    0  0.44015177474E+00 -0.84261569759E+02 -0.79219935904E+02  0.11565467616E+03  0.00000000000E+00 0. -1.
        -13    1    4    4    0    0  0.53955437160E+02  0.62159322900E+02 -0.38270056440E+03  0.39145203106E+03  0.00000000000E+00 0. -1.
         13    1    4    4    0    0  0.38295012505E+02  0.22145471895E+03 -0.71493674877E+03  0.74942861920E+03  0.00000000000E+00 0.  1.
         21    1    1    2  503  501 -0.41740303147E+01 -0.75367713053E+02 -0.46667185477E+02  0.88744244322E+02  0.00000000000E+00 0. -1.
          1    1    1    2  501    0 -0.38781372175E+02 -0.10917337570E+03 -0.10789164431E+03  0.15831433196E+03  0.00000000000E+00 0. -1.
<scales pt_clust_5="13000.00000" pt_clust_6="13000.00000" pt_clust_7="13000.00000" pt_clust_8="13000.00000" pt_clust_9="28.52548" pt_clust_10="208.90076"></scales>
<clustering>
<clus scale="   28.525">  9 10 -1 -1</clus>
<clus scale="   88.622">  7  8 -1 -1</clus>
<clus scale="   93.239">  5  6 -1 -1</clus>
<clus scale="  144.703">  2  5  1 -1</clus>
<clus scale="  208.901">  1  9  2 -1</clus>
<clus scale="  208.901">  1  5  2 -1</clus>
</clustering>
</event>
<event>
10    2  0.2421970E-006  0.1168873E+03  0.7546771E-02  0.1248574E+00
          3   -1    0    0  503    0 -0.00000000000E+00  0.00000000000E+00  0.13928912354E+03  0.13928912354E+03  0.00000000000E+00 0. -1.
         21   -1    0    0  501  502  0.00000000000E+00 -0.00000000000E+00 -0.55622941663E+03  0.55622941663E+03  0.00000000000E+00 0. -1.
         23    2    1    2    0    0 -0.46294121337E+02  0.46154046207E+02  0.21187663557E+02  0.11336269688E+03  0.90160092639E+02 0.  0.
         23    2    1    2    0    0  0.12720705943E+03  0.12333339102E+02 -0.79534023733E+02  0.17507416811E+03  0.89395504284E+02 0.  0.
        -11    1    3    3    0    0  0.74204080056E+01 -0.21382172828E+02 -0.50102737872E+01  0.23181083091E+02  0.00000000000E+00 0.  1.
         11    1    3    3    0    0 -0.53714529343E+02  0.67536219035E+02  0.26197937344E+02  0.90181613787E+02  0.00000000000E+00 0. -1.
        -11    1    4    4    0    0  0.11907778696E+03  0.38773870548E+02 -0.50666487629E+02  0.13509265470E+03  0.00000000000E+00 0.  1.
         11    1    4    4    0    0  0.81292724693E+01 -0.26440531446E+02 -0.28867536103E+02  0.39981513412E+02  0.00000000000E+00 0. -1.
         21    1    1    2  503  502 -0.47566225612E+02 -0.11471548762E+03 -0.19838857248E+03  0.23405173489E+03  0.00000000000E+00 0. -1.
          3    1    1    2  501    0 -0.33346712480E+02  0.56228102308E+02 -0.16020536043E+03  0.17302994028E+03  0.00000000000E+00 0. -1.
<scales pt_clust_5="13000.00000" pt_clust_6="13000.00000" pt_clust_7="13000.00000" pt_clust_8="13000.00000" pt_clust_9="106.48777" pt_clust_10="65.37280"></scales>
<clustering>
<clus scale="   65.373">  2 10  1 -1</clus>
<clus scale="   89.396">  7  8 -1 -1</clus>
<clus scale="   90.160">  5  6 -1 -1</clus>
<clus scale="  106.488">  2  9  1 -1</clus>
<clus scale="  116.299">  2  7  1 -1</clus>
<clus scale="   65.373">  2  5  1 -1</clus>
</clustering>
</event>
<event>
10    2  0.2421970E-006  0.1455546E+03  0.7546771E-02  0.1222155E+00
         21   -1    0    0  501  502  0.00000000000E+00  0.00000000000E+00  0.86026989584E+03  0.86026989584E+03  0.00000000000E+00 0. -1.
          1   -1    0    0  503    0 -0.00000000000E+00 -0.00000000000E+00 -0.11101051093E+03  0.11101051093E+03  0.00000000000E+00 0. -1.
         23    2    1    2    0    0  0.47868196361E+02 -0.13614400859E+02  0.18902503399E+01  0.10455466519E+03  0.91931435504E+02 0.  0.
         23    2    1    2    0    0 -0.12728946023E+03 -0.70715744085E+02  0.95822679692E+02  0.19694935931E+03  0.91671920680E+02 0.  0.
        -13    1    4    4    0    0 -0.11651219529E+03 -0.18695807147E+02  0.75397154007E+02  0.14003340919E+03  0.00000000000E+00 0.  1.
         13    1    4    4    0    0 -0.10777264941E+02 -0.52019936938E+02  0.20425525685E+02  0.56915950121E+02  0.00000000000E+00 0. -1.
        -13    1    3    3    0    0  0.37154521985E+02 -0.52322350120E+02 -0.19996071026E+01  0.64203467621E+02  0.00000000000E+00 0.  1.
         13    1    3    3    0    0  0.10713674376E+02  0.38707949261E+02  0.38898574424E+01  0.40351197573E+02  0.00000000000E+00 0. -1.
         21    1    1    2  503  502 -0.15204684323E+02  0.53354758293E+02  0.24772418278E+03  0.25386055896E+03  0.00000000000E+00 0. -1.
          1    1    1    2  501    0  0.94625948192E+02  0.30975386651E+02  0.40382227209E+03  0.41591582331E+03  0.00000000000E+00 0. -1.
<scales pt_clust_5="13000.00000" pt_clust_6="13000.00000" pt_clust_7="13000.00000" pt_clust_8="13000.00000" pt_clust_9="55.47894" pt_clust_10="113.05930"></scales>
<clustering>
<clus scale="   55.479">  1  9  2 -1</clus>
<clus scale="   91.672">  5  6 -1 -1</clus>
<clus scale="   91.931">  7  8 -1 -1</clus>
<clus scale="  103.429">  2  7  1 -1</clus>
<clus scale="  113.059">  1 10  2 -1</clus>
<clus scale="   55.479">  1  5  2 -1</clus>
</clustering>
</event>
<event>
10    2  0.2421970E-006  0.1421168E+03  0.7546771E-02  0.1210713E+00
          2   -1    0    0  503    0 -0.00000000000E+00  0.00000000000E+00  0.54649091581E+03  0.54649091581E+03  0.00000000000E+00 0. -1.
         21   -1    0    0  501  502  0.00000000000E+00 -0.00000000000E+00 -0.79199521752E+02  0.79199521752E+02  0.00000000000E+00 0. -1.
         23    2    1    2    0    0  0.57827056661E+02 -0.91338659345E+02  0.23778639428E+03  0.27744158537E+03  0.93513340300E+02 0.  0.
         23    2    1    2    0    0  0.12261466033E+02  0.11924522979E+03  0.19555455694E+03  0.24734791193E+03  0.92572330752E+02 0.  0.
        -13    1    4    4    0    0  0.37647794805E+02  0.11031811691E+03  0.18453842522E+03  0.21827018522E+03  0.00000000000E+00 0. -1.
         13    1    4    4    0    0 -0.25386328772E+02  0.89271128818E+01  0.11016131720E+02  0.29077726716E+02  0.00000000000E+00 0.  1.
        -13    1    3    3    0    0 -0.20467260513E+02 -0.50758585711E+02  0.88644715653E+02  0.10417882889E+03  0.00000000000E+00 0. -1.
         13    1    3    3    0    0  0.78294317174E+02 -0.40580073634E+02  0.14914167863E+03  0.17326275648E+03  0.00000000000E+00 0.  1.
         21    1    1    2  503  502 -0.45610431167E+02  0.12917263389E+02  0.17787545604E+02  0.50631649226E+02  0.00000000000E+00 0. -1.
          2    1    1    2  501    0 -0.24478091527E+02 -0.40823833838E+02  0.16162897236E+02  0.50269291035E+02  0.00000000000E+00 0. -1.
<scales pt_clust_5="13000.00000" pt_clust_6="13000.00000" pt_clust_7="13000.00000" pt_clust_8="13000.00000" pt_clust_9="47.40429" pt_clust_10="52.45616"></scales>
<clustering>
<clus scale="   47.404">  2  9  1 -1</clus>
<clus scale="   52.456">  2 10  1 -1</clus>
<clus scale="   92.572">  5  6 -1 -1</clus>
<clus scale="   93.513">  7  8 -1 -1</clus>
<clus scale="  141.499">  2  5  1 -1</clus>
<clus scale="   47.404">  2  5  1 -1</clus>
</clustering>
</event>
<event>
10    2  0.2421970E-006  0.1110988E+03  0.7546771E-02  0.1261404E+00
          2   -1    0    0  502    0 -0.00000000000E+00  0.00000000000E+00  0.63223808755E+03  0.63223808755E+03  0.00000000000E+00 0.  1.
         21   -1    0    0  503  502  0.00000000000E+00 -0.00000000000E+00 -0.48743192131E+02  0.48743192131E+02  0.00000000000E+00 0.  1.
         23    2    1    2    0    0 -0.28614292328E+02  0.24441872431E+02  0.31745483930E+03  0.33498004000E+03  0.10008930688E+03 0.  0.
         23    2    1    2    0    0  0.13700969411E+02 -0.80061491181E+02  0.17974562223E+03  0.21820477372E+03  0.93312783853E+02 0.  0.
        -11    1    4    4    0    0  0.46249634717E+01 -0.10058081623E+03  0.13821425964E+03  0.17100021184E+03  0.00000000000E+00 0.  1.
         11    1    4    4    0    0  0.90760059393E+01  0.20519325046E+02  0.41531362589E+02  0.47204561884E+02  0.00000000000E+00 0. -1.
        -13    1    3    3    0    0 -0.55863714696E+02  0.45742467061E+02  0.20643117996E+03  0.21869375842E+03  0.00000000000E+00 0.  1.
         13    1    3    3    0    0  0.27249422367E+02 -0.21300594629E+02  0.11102365934E+03  0.11628628158E+03  0.00000000000E+00 0. -1.
         21    1    1    2  503  501 -0.30311137475E+02  0.26962734240E+02  0.40836480767E+02  0.57561899327E+02  0.00000000000E+00 0.  1.
          2    1    1    2  501    0  0.45224460392E+02  0.28656884509E+02  0.45457953116E+02  0.70234566625E+02  0.00000000000E+00 0.  1.
<scales pt_clust_5="13000.00000" pt_clust_6="13000.00000" pt_clust_7="13000.00000" pt_clust_8="13000.00000" pt_clust_9="40.56789" pt_clust_10="51.52051"></scales>
<clustering>
<clus scale="   40.568">  2  9  1 -1</clus>
<clus scale="   51.521">  2 10  1 -1</clus>
<clus scale="   93.313">  5  6 -1 -1</clus>
<clus scale="  100.089">  7  8 -1 -1</clus>
<clus scale="  105.035">  2  5  1 -1</clus>
<clus scale="   40.568">  2  5  1 -1</clus>
</clustering>
</event>
<event>
10    2  0.2421970E-006  0.1606263E+03  0.7546771E-02  0.1188127E+00
         21   -1    0    0  501  502  0.00000000000E+00  0.00000000000E+00  0.19696342616E+03  0.19696342616E+03  0.00000000000E+00 0. -1.
          2   -1    0    0  503    0 -0.00000000000E+00 -0.00000000000E+00 -0.56223395200E+03  0.56223395200E+03  0.00000000000E+00 0. -1.
         23    2    1    2    0    0 -0.16474540716E+03 -0.53194013536E+01 -0.41267625388E+03  0.45365101168E+03  0.91258997743E+02 0.  0.
         23    2    1    2    0    0  0.15214825229E+03  0.14597335330E+02  0.79331022026E+02  0.19449720980E+03  0.90407857463E+02 0.  0.
        -13    1    4    4    0    0  0.67392193649E+02 -0.33393435480E+01  0.83992628796E+02  0.10773866842E+03  0.00000000000E+00 0.  1.
         13    1    4    4    0    0  0.84756058637E+02  0.17936678878E+02 -0.46616067702E+01  0.86758541381E+02  0.00000000000E+00 0. -1.
        -13    1    3    3    0    0 -0.35409128383E+02 -0.39919444466E+02 -0.14144316487E+03  0.15117386450E+03  0.00000000000E+00 0.  1.
         13    1    3    3    0    0 -0.12933627878E+03  0.34600043112E+02 -0.27123308902E+03  0.30247714719E+03  0.00000000000E+00 0. -1.
         21    1    1    2  503  502  0.42720566548E+02 -0.98766686463E+01 -0.56955925028E+02  0.71878875795E+02  0.00000000000E+00 0. -1.
          2    1    1    2  501    0 -0.30123411669E+02  0.59873467040E+00  0.25030631049E+02  0.39170280884E+02  0.00000000000E+00 0. -1.
<scales pt_clust_5="13000.00000" pt_clust_6="13000.00000" pt_clust_7="13000.00000" pt_clust_8="13000.00000" pt_clust_9="42.51393" pt_clust_10="30.12936"></scales>
<clustering>
<clus scale="   30.129">  1 10  2 -1</clus>
<clus scale="   42.514">  2  9  1 -1</clus>
<clus scale="   90.408">  5  6 -1 -1</clus>
<clus scale="   91.259">  7  8 -1 -1</clus>
<clus scale="  160.144">  1  5  2 -1</clus>
<clus scale="   30.129">  1  5  2 -1</clus>
</clustering>
</event>
<event>
10    2  0.2421970E-006  0.2300308E+03  0.7546771E-02  0.1149715E+00
         -1   -1    0    0    0  501 -0.00000000000E+00  0.00000000000E+00  0.56664304015E+03  0.56664304015E+03  0.00000000000E+00 0.  1.
         21   -1    0    0  501  502  0.00000000000E+00 -0.00000000000E+00 -0.17671766969E+03  0.17671766969E+03  0.00000000000E+00 0.  1.
         23    2    1    2    0    0  0.58261232255E+02 -0.74396429519E+02 -0.14479312607E+02  0.13231958351E+03  0.91485636994E+02 0.  0.
         23    2    1    2    0    0  0.95392255579E+02 -0.13465995456E+03  0.21380300415E+03  0.28490825681E+03  0.90708348161E+02 0.  0.
        -11    1    3    3    0    0  0.73318821767E+02 -0.50536515925E+02  0.16341246422E+02  0.90535216362E+02  0.00000000000E+00 0.  1.
         11    1    3    3    0    0 -0.15057589512E+02 -0.23859913595E+02 -0.30820559029E+02  0.41784367143E+02  0.00000000000E+00 0. -1.
        -13    1    4    4    0    0  0.31160532388E+02 -0.56831363589E+02  0.22474933579E+02  0.68599601350E+02  0.00000000000E+00 0. -1.
         13    1    4    4    0    0  0.64231723191E+02 -0.77828590973E+02  0.19132807057E+03  0.21630865546E+03  0.00000000000E+00 0.  1.
         21    1    1    2  503  502 -0.44695462953E+02  0.31107060102E+02  0.25876054381E+02  0.60290163270E+02  0.00000000000E+00 0.  1.
         -1    1    1    2    0  503 -0.10895802488E+03  0.17794932398E+03  0.16472562454E+03  0.26584270626E+03  0.00000000000E+00 0.  1.
<scales pt_clust_5="13000.00000" pt_clust_6="13000.00000" pt_clust_7="13000.00000" pt_clust_8="13000.00000" pt_clust_9="26.64163" pt_clust_10="217.72898"></scales>
<clustering>
<clus scale="   26.642">  9 10 -1 -1</clus>
<clus scale="   90.708">  7  8 -1 -1</clus>
<clus scale="   91.486">  5  6 -1 -1</clus>
<clus scale="  131.525">  1  5  2 -1</clus>
<clus scale="  217.729">  2  9  1 -1</clus>
<clus scale="  217.729">  2  5  1 -1</clus>
</clustering>
</event>
<event>
10    2  0.2522169E-006  0.1409423E+03  0.7546771E-02  0.1212552E+00
         21   -1    0    0  501  502  0.00000000000E+00  0.00000000000E+00  0.62279782543E+02  0.62279782543E+02  0.00000000000E+00 0.  1.
         -1   -1    0    0    0  501 -0.00000000000E+00 -0.00000000000E+00 -0.10855130858E+04  0.10855130858E+04  0.00000000000E+00 0.  1.
         23    2    1    2    0    0 -0.70173059976E+02  0.49215730743E+02 -0.45205793033E+03  0.46943510651E+03  0.93094040330E+02 0.  0.
         23    2    1    2    0    0  0.16329528767E+03  0.93234957206E+01 -0.49731829180E+03  0.53135529546E+03  0.90888327691E+02 0.  0.
        -11    1    4    4    0    0  0.42434605549E+02 -0.23932091905E+02 -0.65001878357E+02  0.81232290138E+02  0.00000000000E+00 0. -1.
         11    1    4    4    0    0  0.12086068212E+03  0.33255587626E+02 -0.43231641344E+03  0.45012300532E+03  0.00000000000E+00 0.  1.
        -13    1    3    3    0    0 -0.33205292645E+02 -0.26006734339E+02 -0.17260778008E+03  0.17768620496E+03  0.00000000000E+00 0. -1.
         13    1    3    3    0    0 -0.36967767331E+02  0.75222465082E+02 -0.27945015025E+03  0.29174890154E+03  0.00000000000E+00 0.  1.
         21    1    1    2  503  502 -0.18259094720E+02  0.12119071349E+02 -0.24398033900E+02  0.32795281498E+02  0.00000000000E+00 0.  1.
         -1    1    1    2    0  503 -0.74863132970E+02 -0.70658297812E+02 -0.49459047245E+02  0.11420718490E+03  0.00000000000E+00 0.  1.
<scales pt_clust_5="13000.00000" pt_clust_6="13000.00000" pt_clust_7="13000.00000" pt_clust_8="13000.00000" pt_clust_9="21.91498" pt_clust_10="106.37448"></scales>
<clustering>
<clus scale="   21.915">  1  9  2 -1</clus>
<clus scale="   90.888">  5  6 -1 -1</clus>
<clus scale="   93.094">  7  8 -1 -1</clus>
<clus scale="  106.374">  1 10  2 -1</clus>
<clus scale="  139.495">  1  5  2 -1</clus>
<clus scale="   21.915">  1  5  2 -1</clus>
</clustering>
</event>
<event>
10    2  0.2421970E-006  0.1648765E+03  0.7546771E-02  0.1191735E+00
          2   -1    0    0  503    0 -0.00000000000E+00  0.00000000000E+00  0.43505421671E+03  0.43505421671E+03  0.00000000000E+00 0. -1.
         21   -1    0    0  501  502  0.00000000000E+00 -0.00000000000E+00 -0.18646108623E+03  0.18646108623E+03  0.00000000000E+00 0. -1.
         23    2    1    2    0    0  0.29167236251E+02 -0.97723099157E+02  0.13398916488E+03  0.19155694311E+03  0.91325978621E+02 0.  0.
         23    2    1    2    0    0 -0.31996141889E+02 -0.98243776572E+02  0.60105686556E+02  0.15485746763E+03  0.98450743993E+02 0.  0.
        -11    1    3    3    0    0 -0.27688559986E+02 -0.53470997819E+01  0.32240660580E+02  0.42833491859E+02  0.00000000000E+00 0. -1.
         11    1    3    3    0    0  0.56855796237E+02 -0.92375999375E+02  0.10174850430E+03  0.14872345125E+03  0.00000000000E+00 0.  1.
        -13    1    4    4    0    0  0.25996932635E+02  0.76902629611E+00  0.16020617439E+01  0.26057599846E+02  0.00000000000E+00 0.  1.
         13    1    4    4    0    0 -0.57993074524E+02 -0.99012802869E+02  0.58503624812E+02  0.12879986778E+03  0.00000000000E+00 0. -1.
         21    1    1    2  503  502 -0.19833244188E+02  0.18747293421E+03  0.10737159531E+03  0.21695187973E+03  0.00000000000E+00 0. -1.
          2    1    1    2  501    0  0.22662149825E+02  0.84939415149E+01 -0.52873316276E+02  0.58149012469E+02  0.00000000000E+00 0. -1.
<scales pt_clust_5="13000.00000" pt_clust_6="13000.00000" pt_clust_7="13000.00000" pt_clust_8="13000.00000" pt_clust_9="132.25620" pt_clust_10="24.20165"></scales>
<clustering>
<clus scale="   24.202">  2 10  1 -1</clus>
<clus scale="   91.326">  5  6 -1 -1</clus>
<clus scale="   98.451">  7  8 -1 -1</clus>
<clus scale="  136.729">  1  5  2 -1</clus>
<clus scale="  132.256">  1  9  2 -1</clus>
<clus scale="   24.202">  2  5  1 -1</clus>
</clustering>
</event>
<event>
10    2  0.2800616E-006  0.1418977E+03  0.7546771E-02  0.1227391E+00
         21   -1    0    0  501  502  0.00000000000E+00  0.00000000000E+00  0.11811652697E+03  0.11811652697E+03  0.00000000000E+00 0. -1.
          2   -1    0    0  503    0 -0.00000000000E+00 -0.00000000000E+00 -0.83285828449E+03  0.83285828449E+03  0.00000000000E+00 0. -1.
         23    2    1    2    0    0  0.35546027106E+02 -0.87917112939E+01 -0.31695723700E+03  0.33185492859E+03  0.91241379365E+02 0.  0.
         23    2    1    2    0    0 -0.13381571736E+03  0.44338938108E+02 -0.41394570260E+03  0.44642457066E+03  0.89840218978E+02 0.  0.
        -11    1    3    3    0    0  0.45800678632E+02 -0.39479759015E+02 -0.14886907065E+03  0.16068090656E+03  0.00000000000E+00 0.  1.
         11    1    3    3    0    0 -0.10254651526E+02  0.30688047721E+02 -0.16808816635E+03  0.17117402203E+03  0.00000000000E+00 0. -1.
        -11    1    4    4    0    0 -0.81685814850E+02 -0.89329644635E+01 -0.13821297867E+03  0.16079551509E+03  0.00000000000E+00 0.  1.
         11    1    4    4    0    0 -0.52129902514E+02  0.53271902572E+02 -0.27573272393E+03  0.28562905557E+03  0.00000000000E+00 0. -1.
         21    1    1    2  503  502  0.13180928866E+02  0.30993852373E+02 -0.38899276739E+02  0.51453955159E+02  0.00000000000E+00 0. -1.
          2    1    1    2  501    0  0.85088761392E+02 -0.66541079187E+02  0.55060458824E+02  0.12124135705E+03  0.00000000000E+00 0. -1.
<scales pt_clust_5="13000.00000" pt_clust_6="13000.00000" pt_clust_7="13000.00000" pt_clust_8="13000.00000" pt_clust_9="33.68020" pt_clust_10="109.83481"></scales>
<clustering>
<clus scale="   33.680">  2  9  1 -1</clus>
<clus scale="   89.840">  7  8 -1 -1</clus>
<clus scale="   91.241">  5  6 -1 -1</clus>
<clus scale="  100.098">  2  5  1 -1</clus>
<clus scale="  109.835">  1 10  2 -1</clus>
<clus scale="  109.835">  1  5  2 -1</clus>
</clustering>
</event>
<event>
10    2  0.2421970E-006  0.1056336E+03  0.7546771E-02  0.1269507E+00
          4   -1    0    0  503    0 -0.00000000000E+00  0.00000000000E+00  0.32990368589E+02  0.32990368589E+02  0.00000000000E+00 0. -1.
         21   -1    0    0  501  502  0.00000000000E+00 -0.00000000000E+00 -0.10827478406E+04  0.10827478406E+04  0.00000000000E+00 0. -1.
         23    2    1    2    0    0 -0.65978736074E+02 -0.47664218999E+02 -0.24490540963E+03  0.27259464360E+03  0.87773052046E+02 0.  0.
         23    2    1    2    0    0  0.46713010433E+02 -0.50717226245E+02 -0.25098647785E+03  0.27517610727E+03  0.89293535995E+02 0.  0.
        -11    1    4    4    0    0  0.10367523586E+01 -0.60363177112E+02 -0.96856716488E+02  0.11413155364E+03  0.00000000000E+00 0. -1.
         11    1    4    4    0    0  0.45676258074E+02  0.96459508669E+01 -0.15412976136E+03  0.16104455364E+03  0.00000000000E+00 0.  1.
        -13    1    3    3    0    0 -0.17237005242E+01 -0.48438941796E+02 -0.15268719435E+03  0.16019576007E+03  0.00000000000E+00 0.  1.
         13    1    3    3    0    0 -0.64255035550E+02  0.77472279722E+00 -0.92218215277E+02  0.11239888353E+03  0.00000000000E+00 0. -1.
         21    1    1    2  503  502 -0.23050022891E+02  0.69496498362E+02 -0.36528806991E+03  0.37255394356E+03  0.00000000000E+00 0. -1.
          4    1    1    2  501    0  0.42315748532E+02  0.28884946882E+02 -0.18857751463E+03  0.19541351477E+03  0.00000000000E+00 0. -1.
<scales pt_clust_5="13000.00000" pt_clust_6="13000.00000" pt_clust_7="13000.00000" pt_clust_8="13000.00000" pt_clust_9="81.64681" pt_clust_10="51.23439"></scales>
<clustering>
<clus scale="   51.234">  2 10  1 -1</clus>
<clus scale="   81.647">  2  9  1 -1</clus>
<clus scale="   87.773">  7  8 -1 -1</clus>
<clus scale="   89.294">  5  6 -1 -1</clus>
<clus scale="  104.351">  1  7  2 -1</clus>
<clus scale="   51.234">  2  5  1 -1</clus>
</clustering>
</event>
<event>
10    2  0.2421970E-006  0.1964514E+03  0.7546771E-02  0.1152951E+00
         21   -1    0    0  501  502  0.00000000000E+00  0.00000000000E+00  0.23213598841E+03  0.23213598841E+03  0.00000000000E+00 0. -1.
          2   -1    0    0  503    0 -0.00000000000E+00 -0.00000000000E+00 -0.41529171495E+03  0.41529171495E+03  0.00000000000E+00 0. -1.
         23    2    1    2    0    0  0.44852563325E+02  0.14544100417E+03 -0.24645242745E+03  0.30319009357E+03  0.89557778638E+02 0.  0.
         23    2    1    2    0    0 -0.82442405552E+02 -0.15241565914E+03  0.43464187629E+02  0.20067155005E+03  0.91392844402E+02 0.  0.
        -13    1    4    4    0    0 -0.41160886325E+02 -0.60327448004E+02 -0.26700018898E+02  0.77759311692E+02  0.00000000000E+00 0. -1.
         13    1    4    4    0    0 -0.41281519226E+02 -0.92088211138E+02  0.70164206526E+02  0.12291223836E+03  0.00000000000E+00 0.  1.
        -13    1    3    3    0    0 -0.88549659878E+01  0.76025112126E+02 -0.60489222790E+02  0.97556005300E+02  0.00000000000E+00 0.  1.
         13    1    3    3    0    0  0.53707529312E+02  0.69415892048E+02 -0.18596320466E+03  0.20563408827E+03  0.00000000000E+00 0. -1.
         21    1    1    2  503  502 -0.88716218256E+01  0.38535106126E+02 -0.43586247410E+02  0.58850837218E+02  0.00000000000E+00 0. -1.
          2    1    1    2  501    0  0.46461464053E+02 -0.31560451158E+02  0.63418760687E+02  0.84715222518E+02  0.00000000000E+00 0. -1.
<scales pt_clust_5="13000.00000" pt_clust_6="13000.00000" pt_clust_7="13000.00000" pt_clust_8="13000.00000" pt_clust_9="39.54314" pt_clust_10="55.32464"></scales>
<clustering>
<clus scale="   39.543">  2  9  1 -1</clus>
<clus scale="   55.325">  1 10  2 -1</clus>
<clus scale="   89.558">  7  8 -1 -1</clus>
<clus scale="   91.393">  5  6 -1 -1</clus>
<clus scale="  195.604">  2  7  1 -1</clus>
<clus scale="   55.325">  1  5  2 -1</clus>
</clustering>
</event>
<event>
10    2  0.2421970E-006  0.2879419E+03  0.7546771E-02  0.1091468E+00
          3   -1    0    0  503    0 -0.00000000000E+00  0.00000000000E+00  0.15737744681E+04  0.15737744681E+04  0.00000000000E+00 0. -1.
         21   -1    0    0  501  502  0.00000000000E+00 -0.00000000000E+00 -0.18630334417E+03  0.18630334417E+03  0.00000000000E+00 0.  1.
         23    2    1    2    0    0 -0.25035650409E+03  0.10358631527E+03  0.10962052737E+04  0.11328267828E+04  0.90675320361E+02 0.  0.
         23    2    1    2    0    0  0.24200175715E+03 -0.14139744467E+03  0.39631316309E+03  0.49398112118E+03  0.91624980361E+02 0.  0.
        -13    1    4    4    0    0  0.20505677103E+03 -0.83748595543E+02  0.26092217845E+03  0.34226085054E+03  0.00000000000E+00 0.  1.
         13    1    4    4    0    0  0.36944986119E+02 -0.57648849127E+02  0.13539098463E+03  0.15172027064E+03  0.00000000000E+00 0. -1.
        -13    1    3    3    0    0 -0.16664305221E+03  0.68689768286E+02  0.88171240515E+03  0.89994719651E+03  0.00000000000E+00 0. -1.
         13    1    3    3    0    0 -0.83713451876E+02  0.34896546981E+02  0.21449286859E+03  0.23287958625E+03  0.00000000000E+00 0.  1.
         21    1    1    2  503  502 -0.33997236311E+01  0.54043609820E+02 -0.98109892670E+02  0.11206168356E+03  0.00000000000E+00 0.  1.
          3    1    1    2  501    0  0.11754470567E+02 -0.16232480417E+02 -0.69374202200E+01  0.21208224775E+02  0.00000000000E+00 0. -1.
<scales pt_clust_5="13000.00000" pt_clust_6="13000.00000" pt_clust_7="13000.00000" pt_clust_8="13000.00000" pt_clust_9="44.30032" pt_clust_10="20.04148"></scales>
<clustering>
<clus scale="   20.041">  2 10  1 -1</clus>
<clus scale="   44.300">  2  9  1 -1</clus>
<clus scale="   90.675">  7  8 -1 -1</clus>
<clus scale="   91.625">  5  6 -1 -1</clus>
<clus scale="  287.641">  1  7  2 -1</clus>
<clus scale="   20.041">  2  5  1 -1</clus>
</clustering>
</event>
<event>
10    2  0.2421970E-006  0.1782720E+03  0.7546771E-02  0.1169794E+00
         -1   -1    0    0    0  501 -0.00000000000E+00  0.00000000000E+00  0.31950667762E+03  0.31950667762E+03  0.00000000000E+00 0.  1.
         21   -1    0    0  501  502  0.00000000000E+00 -0.00000000000E+00 -0.20374325026E+03  0.20374325026E+03  0.00000000000E+00 0.  1.
         23    2    1    2    0    0 -0.15584899272E+03 -0.62572257038E+02  0.14080728600E+03  0.23815173973E+03  0.93195297416E+02 0.  0.
         23    2    1    2    0    0  0.77700908252E+02  0.90843079181E+02 -0.89282591715E+02  0.17464884520E+03  0.90779633011E+02 0.  0.
        -11    1    4    4    0    0  0.56714416666E+02  0.10708370944E+03 -0.84388539920E+02  0.14766472685E+03  0.00000000000E+00 0.  1.
         11    1    4    4    0    0  0.20986491586E+02 -0.16240630262E+02 -0.48940517952E+01  0.26984118355E+02  0.00000000000E+00 0. -1.
        -13    1    3    3    0    0 -0.14280849404E+03 -0.31033842961E+02  0.14231878417E+03  0.20399020002E+03  0.00000000000E+00 0.  1.
         13    1    3    3    0    0 -0.13040498684E+02 -0.31538414077E+02 -0.15114981617E+01  0.34161539707E+02  0.00000000000E+00 0. -1.
         21    1    1    2  503  502  0.22381285146E+02 -0.34074526515E+01  0.11740084956E+01  0.22669604194E+02  0.00000000000E+00 0. -1.
         -1    1    1    2    0  503  0.55766799323E+02 -0.24863369491E+02  0.63064724578E+02  0.87779738752E+02  0.00000000000E+00 0.  1.
<scales pt_clust_5="13000.00000" pt_clust_6="13000.00000" pt_clust_7="13000.00000" pt_clust_8="13000.00000" pt_clust_9="20.79323" pt_clust_10="89.84682"></scales>
<clustering>
<clus scale="   20.793">  9 10 -1 -1</clus>
<clus scale="   89.847">  2  9  1 -1</clus>
<clus scale="   90.780">  5  6 -1 -1</clus>
<clus scale="   93.195">  7  8 -1 -1</clus>
<clus scale="  177.021">  2  5  1 -1</clus>
<clus scale="   89.847">  2  5  1 -1</clus>
</clustering>
</event>
<event>
10    2  0.2421970E-006  0.9292941E+02  0.7546771E-02  0.1296495E+00
         -3   -1    0    0    0  501 -0.00000000000E+00  0.00000000000E+00  0.31218489956E+03  0.31218489956E+03  0.00000000000E+00 0.  1.
         21   -1    0    0  503  502  0.00000000000E+00 -0.00000000000E+00 -0.76234562624E+02  0.76234562624E+02  0.00000000000E+00 0. -1.
         23    2    1    2    0    0  0.10157760233E+02  0.11990333953E+02  0.95250220260E+02  0.13380749699E+03  0.92654700845E+02 0.  0.
         23    2    1    2    0    0  0.16882513208E+02  0.27383513505E+02  0.88360602670E+02  0.13130715225E+03  0.91646582389E+02 0.  0.
        -11    1    4    4    0    0  0.32229994128E+02 -0.25814701432E+02  0.44172461192E+02  0.60467988715E+02  0.00000000000E+00 0.  1.
         11    1    4    4    0    0 -0.15347480920E+02  0.53198214936E+02  0.44188141478E+02  0.70839163535E+02  0.00000000000E+00 0. -1.
        -11    1    3    3    0    0  0.14213727813E+02 -0.37512100070E+02  0.23336479389E+02  0.46408824379E+02  0.00000000000E+00 0.  1.
         11    1    3    3    0    0 -0.40559675798E+01  0.49502434023E+02  0.71913740871E+02  0.87398672606E+02  0.00000000000E+00 0. -1.
         21    1    1    2  503  501 -0.48983678494E+02 -0.62578625274E+02  0.40929428714E+02  0.89390733495E+02  0.00000000000E+00 0.  1.
         -3    1    1    2    0  502  0.21943405052E+02  0.23204777816E+02  0.11410085291E+02  0.33914079453E+02  0.00000000000E+00 0.  1.
<scales pt_clust_5="13000.00000" pt_clust_6="13000.00000" pt_clust_7="13000.00000" pt_clust_8="13000.00000" pt_clust_9="67.62230" pt_clust_10="31.93704"></scales>
<clustering>
<clus scale="   31.937">  2 10  1 -1</clus>
<clus scale="   67.622">  2  9  1 -1</clus>
<clus scale="   91.647">  5  6 -1 -1</clus>
<clus scale="   91.924">  2  5  1 -1</clus>
<clus scale="   92.655">  7  8 -1 -1</clus>
<clus scale="   31.937">  2  5  1 -1</clus>
</clustering>
</event>
<event>
10    2  0.2421970E-006  0.1165058E+03  0.7546771E-02  0.1249773E+00
         21   -1    0    0  503  502  0.00000000000E+00  0.00000000000E+00  0.15893713232E+03  0.15893713232E+03  0.00000000000E+00 0.  1.
         -4   -1    0    0    0  501 -0.00000000000E+00 -0.00000000000E+00 -0.40957969416E+03  0.40957969416E+03  0.00000000000E+00 0.  1.
         23    2    1    2    0    0 -0.17859977591E+02 -0.78940801816E+02 -0.19981060008E+03  0.23478643147E+03  0.93004104783E+02 0.  0.
         23    2    1    2    0    0 -0.32400873933E+02  0.68544691893E+02  0.10897204672E+03  0.16076955256E+03  0.90684897553E+02 0.  0.
        -11    1    3    3    0    0 -0.45719300558E+02 -0.82956807688E+02 -0.14550438144E+03  0.17361915621E+03  0.00000000000E+00 0.  1.
         11    1    3    3    0    0  0.27859322968E+02  0.40160058724E+01 -0.54306218637E+02  0.61167275254E+02  0.00000000000E+00 0. -1.
        -13    1    4    4    0    0 -0.59356748798E+02  0.65048520730E+02  0.97172023986E+02  0.13113708828E+03  0.00000000000E+00 0.  1.
         13    1    4    4    0    0  0.26955874866E+02  0.34961711630E+01  0.11800022738E+02  0.29632464278E+02  0.00000000000E+00 0. -1.
         21    1    1    2  503  501  0.17736314387E+02  0.15319043707E+02 -0.25274974039E+02  0.34468453125E+02  0.00000000000E+00 0.  1.
         -4    1    1    2    0  502  0.32524537136E+02 -0.49229337839E+01 -0.13452903445E+03  0.13849238933E+03  0.00000000000E+00 0.  1.
<scales pt_clust_5="13000.00000" pt_clust_6="13000.00000" pt_clust_7="13000.00000" pt_clust_8="13000.00000" pt_clust_9="23.43608" pt_clust_10="38.90542"></scales>
<clustering>
<clus scale="   23.436">  2  9  1 -1</clus>
<clus scale="   38.905">  1 10  2 -1</clus>
<clus scale="   90.685">  7  8 -1 -1</clus>
<clus scale="   93.004">  5  6 -1 -1</clus>
<clus scale="  114.663">  1  7  2 -1</clus>
<clus scale="   38.905">  1  5  2 -1</clus>
</clustering>
</event>
<event>
10    2  0.2421970E-006  0.1004955E+03  0.7546771E-02  0.1279995E+00
          1   -1    0    0  503    0 -0.00000000000E+00  0.00000000000E+00  0.41536212719E+03  0.41536212719E+03  0.00000000000E+00 0. -1.
         21   -1    0    0  501  502  0.00000000000E+00 -0.00000000000E+00 -0.80161012489E+02  0.80161012489E+02  0.00000000000E+00 0. -1.
         23    2    1    2    0    0 -0.67657733921E+02 -0.23328735014E+02  0.23684145944E+03  0.26402700410E+03  0.92166062892E+02 0.  0.
         23    2    1    2    0    0 -0.14054309754E+02  0.18248539080E+02  0.93458712253E+02  0.13221120507E+03  0.90635197626E+02 0.  0.
        -13    1    3    3    0    0 -0.49095871809E+02  0.29368230049E+02  0.87158989717E+02  0.10425731175E+03  0.00000000000E+00 0.  1.
         13    1    3    3    0    0 -0.18561862112E+02 -0.52696965063E+02  0.14968246972E+03  0.15976969235E+03  0.00000000000E+00 0. -1.
        -13    1    4    4    0    0 -0.50808317073E+02  0.89379844486E+00  0.38000801413E+02  0.63453485857E+02  0.00000000000E+00 0. -1.
         13    1    4    4    0    0  0.36754007318E+02  0.17354740635E+02  0.55457910840E+02  0.68757719212E+02  0.00000000000E+00 0.  1.
         21    1    1    2  503  502  0.42628371990E+02 -0.13613496980E+02  0.25291646645E+02  0.51402069886E+02  0.00000000000E+00 0.  1.
          1    1    1    2  501    0  0.39083671685E+02  0.18693692914E+02 -0.20390703632E+02  0.47882860627E+02  0.00000000000E+00 0. -1.
<scales pt_clust_5="13000.00000" pt_clust_6="13000.00000" pt_clust_7="13000.00000" pt_clust_8="13000.00000" pt_clust_9="54.35396" pt_clust_10="43.32421"></scales>
<clustering>
<clus scale="   43.324">  2 10  1 -1</clus>
<clus scale="   54.354">  2  9  1 -1</clus>
<clus scale="   90.635">  7  8 -1 -1</clus>
<clus scale="   92.166">  5  6 -1 -1</clus>
<clus scale="   99.093">  2  7  1 -1</clus>
<clus scale="   43.324">  2  5  1 -1</clus>
</clustering>
</event>
<event>
10    2  0.2421970E-006  0.1440162E+03  0.7546771E-02  0.1218955E+00
          3   -1    0    0  503    0 -0.00000000000E+00  0.00000000000E+00  0.14980059999E+03  0.14980059999E+03  0.00000000000E+00 0. -1.
         21   -1    0    0  501  502  0.00000000000E+00 -0.00000000000E+00 -0.43017331584E+03  0.43017331584E+03  0.00000000000E+00 0. -1.
         23    2    1    2    0    0 -0.68755145876E+02 -0.10930894568E+02 -0.29379220860E+02  0.11930812093E+03  0.92328406033E+02 0.  0.
         23    2    1    2    0    0 -0.40772052741E+02  0.47502976177E+02  0.44985857285E+02  0.12317303221E+03  0.96067556846E+02 0.  0.
        -11    1    4    4    0    0 -0.89851173336E+01  0.18023506251E+02  0.70192907897E+02  0.73024813797E+02  0.00000000000E+00 0.  1.
         11    1    4    4    0    0 -0.31786935407E+02  0.29479469925E+02 -0.25207050612E+02  0.50148218415E+02  0.00000000000E+00 0. -1.
        -11    1    3    3    0    0  0.22282038457E+02 -0.98350517703E+01 -0.93369136027E+01  0.26084390672E+02  0.00000000000E+00 0.  1.
         11    1    3    3    0    0 -0.91037184333E+02 -0.10958427972E+01 -0.20042307258E+02  0.93223730256E+02  0.00000000000E+00 0. -1.
         21    1    1    2  503  502  0.82480028643E+01  0.35933416458E+02 -0.54784465713E+02  0.66034670084E+02  0.00000000000E+00 0. -1.
          3    1    1    2  501    0  0.10127919575E+03 -0.72505498068E+02 -0.24119488655E+03  0.27145809261E+03  0.00000000000E+00 0. -1.
<scales pt_clust_5="13000.00000" pt_clust_6="13000.00000" pt_clust_7="13000.00000" pt_clust_8="13000.00000" pt_clust_9="36.86787" pt_clust_10="107.29254"></scales>
<clustering>
<clus scale="   36.868">  2  9  1 -1</clus>
<clus scale="   92.328">  7  8 -1 -1</clus>
<clus scale="   96.068">  5  6 -1 -1</clus>
<clus scale="  114.194">  1  7  2 -1</clus>
<clus scale="  107.293">  2 10  1 -1</clus>
<clus scale="   36.868">  2  5  1 -1</clus>
</clustering>
</event>
<event>
10    2  0.2421970E-006  0.4107402E+03  0.7546771E-02  0.1050194E+00
          2   -1    0    0  502    0 -0.00000000000E+00  0.00000000000E+00  0.16614731847E+04  0.16614731847E+04  0.00000000000E+00 0. -1.
         21   -1    0    0  503  502  0.00000000000E+00 -0.00000000000E+00 -0.30312137761E+03  0.30312137761E+03  0.00000000000E+00 0. -1.
         23    2    1    2    0    0 -0.19674125717E+03 -0.21764806184E+03  0.62594308401E+03  0.69731577551E+03  0.91469914550E+02 0.  0.
         23    2    1    2    0    0  0.43099472561E+03 -0.11900343659E+03  0.71643132273E+03  0.84937324419E+03  0.90789847082E+02 0.  0.
        -11    1    3    3    0    0 -0.18538043258E+03 -0.16667811566E+03  0.56162674693E+03  0.61446895926E+03  0.00000000000E+00 0. -1.
         11    1    3    3    0    0 -0.11360824594E+02 -0.50969946178E+02  0.64316337076E+02  0.82846816256E+02  0.00000000000E+00 0.  1.
        -13    1    4    4    0    0  0.15000898475E+03 -0.48876733009E+02  0.17693489257E+03  0.23706030191E+03  0.00000000000E+00 0.  1.
         13    1    4    4    0    0  0.28098574086E+03 -0.70126703582E+02  0.53949643016E+03  0.61231294228E+03  0.00000000000E+00 0. -1.
         21    1    1    2  503  501 -0.29349691727E+02  0.11774477769E+02  0.11895253437E+02  0.33786680594E+02  0.00000000000E+00 0. -1.
          2    1    1    2  501    0 -0.20490377671E+03  0.32487702066E+03  0.40821469504E+01  0.38411886206E+03  0.00000000000E+00 0. -1.
<scales pt_clust_5="13000.00000" pt_clust_6="13000.00000" pt_clust_7="13000.00000" pt_clust_8="13000.00000" pt_clust_9="22.55839" pt_clust_10="408.22243"></scales>
<clustering>
<clus scale="   22.558">  9 10 -1 -1</clus>
<clus scale="   90.790">  7  8 -1 -1</clus>
<clus scale="   91.470">  5  6 -1 -1</clus>
<clus scale="  307.318">  1  5  2 -1</clus>
<clus scale="  408.222">  2  9  1 -1</clus>
<clus scale="  408.222">  2  5  1 -1</clus>
</clustering>
</event>
<event>
10    2  0.2421970E-006  0.1169871E+03  0.7546771E-02  0.1258542E+00
          1   -1    0    0  503    0 -0.00000000000E+00  0.00000000000E+00  0.19473887719E+03  0.19473887719E+03  0.00000000000E+00 0. -1.
         21   -1    0    0  501  502  0.00000000000E+00 -0.00000000000E+00 -0.22466659031E+03  0.22466659031E+03  0.00000000000E+00 0. -1.
         23    2    1    2    0    0  0.36894046217E+02  0.29667190928E+02  0.11378843884E+03  0.16724887723E+03  0.11306221852E+03 0.  0.
         23    2    1    2    0    0  0.30871113004E+01 -0.41245630352E+01 -0.13780015972E+01  0.90455102513E+02  0.90297754157E+02 0.  0.
        -11    1    3    3    0    0  0.18777291005E+02 -0.40120913358E+02  0.70163662857E+02  0.82977189225E+02  0.00000000000E+00 0. -1.
         11    1    3    3    0    0  0.18116755212E+02  0.69788104286E+02  0.43624775981E+02  0.84271688002E+02  0.00000000000E+00 0.  1.
        -13    1    4    4    0    0 -0.10297412568E+02  0.27539183557E+02 -0.32682278870E+02  0.43961058776E+02  0.00000000000E+00 0.  1.
         13    1    4    4    0    0  0.13384523868E+02 -0.31663746592E+02  0.31304277273E+02  0.46494043737E+02  0.00000000000E+00 0. -1.
         21    1    1    2  503  502 -0.95590993046E+01 -0.26388835754E+02 -0.17204819961E+02  0.32920401909E+02  0.00000000000E+00 0. -1.
          1    1    1    2  501    0 -0.30422058213E+02  0.84620786162E+00 -0.12513333040E+03  0.12878108584E+03  0.00000000000E+00 0. -1.
<scales pt_clust_5="13000.00000" pt_clust_6="13000.00000" pt_clust_7="13000.00000" pt_clust_8="13000.00000" pt_clust_9="28.06683" pt_clust_10="39.83003"></scales>
<clustering>
<clus scale="   28.067">  2  9  1 -1</clus>
<clus scale="   39.830">  2 10  1 -1</clus>
<clus scale="   90.298">  7  8 -1 -1</clus>
<clus scale="   95.166">  2  7  1 -1</clus>
<clus scale="  113.062">  5  6 -1 -1</clus>
<clus scale="   28.067">  2  5  1 -1</clus>
</clustering>
</event>
<event>
10    2  0.2421970E-006  0.1338898E+03  0.7546771E-02  0.1222133E+00
         21   -1    0    0  501  502  0.00000000000E+00  0.00000000000E+00  0.56845292495E+03  0.56845292495E+03  0.00000000000E+00 0. -1.
          3   -1    0    0  503    0 -0.00000000000E+00 -0.00000000000E+00 -0.11390134459E+03  0.11390134459E+03  0.00000000000E+00 0. -1.
         23    2    1    2    0    0  0.67853665907E+02  0.10615393454E+03  0.24064171191E+02  0.15704758254E+03  0.90620533275E+02 0.  0.
         23    2    1    2    0    0  0.63687301158E+02 -0.80245459562E+02  0.12592018751E+03  0.18523426523E+03  0.89221260266E+02 0.  0.
        -11    1    4    4    0    0  0.61411753061E+02 -0.12519202312E+02  0.86560509642E+02  0.10686840352E+03  0.00000000000E+00 0.  1.
         11    1    4    4    0    0  0.22755480973E+01 -0.67726257250E+02  0.39359677866E+02  0.78365861713E+02  0.00000000000E+00 0. -1.
        -13    1    3    3    0    0 -0.17341539051E+02  0.24742579155E+02  0.24982149083E+02  0.39204999333E+02  0.00000000000E+00 0.  1.
         13    1    3    3    0    0  0.85195204957E+02  0.81411355388E+02 -0.91797789206E+00  0.11784258321E+03  0.00000000000E+00 0. -1.
         21    1    1    2  503  502 -0.14030817232E+02  0.20464459235E+02  0.44654907800E+02  0.51085406083E+02  0.00000000000E+00 0. -1.
          3    1    1    2  501    0 -0.11751014983E+03 -0.46372934216E+02  0.25991231386E+03  0.28898701569E+03  0.00000000000E+00 0. -1.
<scales pt_clust_5="13000.00000" pt_clust_6="13000.00000" pt_clust_7="13000.00000" pt_clust_8="13000.00000" pt_clust_9="24.81246" pt_clust_10="129.87697"></scales>
<clustering>
<clus scale="   24.812">  1  9  2 -1</clus>
<clus scale="   89.221">  5  6 -1 -1</clus>
<clus scale="   90.621">  7  8 -1 -1</clus>
<clus scale="  129.877">  1 10  2 -1</clus>
<clus scale="  132.947">  1  5  2 -1</clus>
<clus scale="   24.812">  1  5  2 -1</clus>
</clustering>
</event>
<event>
10    2  0.2421970E-006  0.2632966E+03  0.7546771E-02  0.1105181E+00
          1   -1    0    0  503    0 -0.00000000000E+00  0.00000000000E+00  0.92446386536E+03  0.92446386536E+03  0.00000000000E+00 0. -1.
         21   -1    0    0  501  502  0.00000000000E+00 -0.00000000000E+00 -0.18499925376E+03  0.18499925376E+03  0.00000000000E+00 0. -1.
         23    2    1    2    0    0 -0.19383187718E+03  0.16151638928E+03  0.31294975430E+03  0.41225758868E+03  0.91435387536E+02 0.  0.
         23    2    1    2    0    0  0.28449382231E+03 -0.65395607655E+00  0.12307414620E+03  0.32319385529E+03  0.91486939177E+02 0.  0.
        -11    1    4    4    0    0  0.18540040531E+03 -0.22924429703E+02  0.11910538311E+03  0.22155119510E+03  0.00000000000E+00 0. -1.
         11    1    4    4    0    0  0.99093417003E+02  0.22270473626E+02  0.39687630927E+01  0.10164266018E+03  0.00000000000E+00 0.  1.
        -13    1    3    3    0    0 -0.86636733600E+02  0.73508569605E+02  0.21263548830E+03  0.24108771080E+03  0.00000000000E+00 0.  1.
         13    1    3    3    0    0 -0.10719514358E+03  0.88007819679E+02  0.10031426600E+03  0.17116987788E+03  0.00000000000E+00 0. -1.
         21    1    1    2  503  502 -0.26513110732E+02 -0.82726628715E+02  0.23856700186E+03  0.25389142269E+03  0.00000000000E+00 0. -1.
          1    1    1    2  501    0 -0.64148834400E+02 -0.78135804492E+02  0.64873709243E+02  0.12012025245E+03  0.00000000000E+00 0. -1.
<scales pt_clust_5="13000.00000" pt_clust_6="13000.00000" pt_clust_7="13000.00000" pt_clust_8="13000.00000" pt_clust_9="86.87140" pt_clust_10="112.19459"></scales>
<clustering>
<clus scale="   86.871">  1  9  2 -1</clus>
<clus scale="   91.435">  7  8 -1 -1</clus>
<clus scale="   91.487">  5  6 -1 -1</clus>
<clus scale="  112.195">  2 10  1 -1</clus>
<clus scale="  263.279">  1  7  2 -1</clus>
<clus scale="  112.195">  2  5  1 -1</clus>
</clustering>
</event>
<event>
10    2  0.2421970E-006  0.1170313E+03  0.7546771E-02  0.1251840E+00
          2   -1    0    0  502    0 -0.00000000000E+00  0.00000000000E+00  0.29442300804E+03  0.29442300804E+03  0.00000000000E+00 0. -1.
         21   -1    0    0  503  502  0.00000000000E+00 -0.00000000000E+00 -0.21290752787E+03  0.21290752787E+03  0.00000000000E+00 0.  1.
         23    2    1    2    0    0 -0.55475706595E+02  0.92473028553E+02  0.18528461769E+03  0.22828151135E+03  0.78442614934E+02 0.  0.
         23    2    1    2    0    0  0.38005860879E+02 -0.43117419757E+01  0.41379062910E+02  0.10602430063E+03  0.89810293932E+02 0.  0.
        -11    1    3    3    0    0  0.19768632289E+02  0.11757182026E+02  0.31753014478E+02  0.39208214448E+02  0.00000000000E+00 0.  1.
         11    1    3    3    0    0 -0.75244338884E+02  0.80715846527E+02  0.15353160322E+03  0.18907329690E+03  0.00000000000E+00 0. -1.
        -11    1    4    4    0    0  0.67306861881E+02 -0.75375183102E+00  0.34836795152E+02  0.75791715210E+02  0.00000000000E+00 0.  1.
         11    1    4    4    0    0 -0.29301001002E+02 -0.35579901447E+01  0.65422677579E+01  0.30232585417E+02  0.00000000000E+00 0. -1.
         21    1    1    2  503  501 -0.25006469924E+01 -0.57183754360E+02 -0.91812648374E+02  0.10819333343E+03  0.00000000000E+00 0. -1.
          2    1    1    2  501    0  0.19970492708E+02 -0.30977532217E+02 -0.53335552053E+02  0.64831390499E+02  0.00000000000E+00 0. -1.
<scales pt_clust_5="13000.00000" pt_clust_6="13000.00000" pt_clust_7="13000.00000" pt_clust_8="13000.00000" pt_clust_9="22.58206" pt_clust_10="94.17831"></scales>
<clustering>
<clus scale="   22.582">  9 10 -1 -1</clus>
<clus scale="   78.443">  5  6 -1 -1</clus>
<clus scale="   89.810">  7  8 -1 -1</clus>
<clus scale="   94.178">  2  9  1 -1</clus>
<clus scale="  108.553">  1  5  2 -1</clus>
<clus scale="   94.178">  2  5  1 -1</clus>
</clustering>
</event>
<event>
10    2  0.2421970E-006  0.2729439E+03  0.7546771E-02  0.1104619E+00
          2   -1    0    0  503    0 -0.00000000000E+00  0.00000000000E+00  0.85179170115E+03  0.85179170115E+03  0.00000000000E+00 0. -1.
         21   -1    0    0  501  502  0.00000000000E+00 -0.00000000000E+00 -0.29479441263E+03  0.29479441263E+03  0.00000000000E+00 0. -1.
         23    2    1    2    0    0  0.22775977384E+03  0.40477508343E+02  0.93202514405E+02  0.26577523328E+03  0.91852178386E+02 0.  0.
         23    2    1    2    0    0 -0.11730324726E+03 -0.29502423714E+03  0.44594643951E+03  0.55605546177E+03  0.97622217404E+02 0.  0.
        -13    1    3    3    0    0  0.17774796605E+02  0.13604865335E+02 -0.16054978664E+02  0.27546290041E+02  0.00000000000E+00 0.  1.
         13    1    3    3    0    0  0.20998497723E+03  0.26872643008E+02  0.10925749307E+03  0.23822894324E+03  0.00000000000E+00 0. -1.
        -13    1    4    4    0    0 -0.22324701216E+02 -0.18565994537E+03  0.23929702522E+03  0.30369569289E+03  0.00000000000E+00 0.  1.
         13    1    4    4    0    0 -0.94978546040E+02 -0.10936429177E+03  0.20664941429E+03  0.25235976888E+03  0.00000000000E+00 0. -1.
         21    1    1    2  503  502 -0.46148074826E+02  0.10872602949E+02  0.52074777284E+02  0.70424716784E+02  0.00000000000E+00 0. -1.
          2    1    1    2  501    0 -0.64308451756E+02  0.24367412585E+03 -0.34226442686E+02  0.25433070195E+03  0.00000000000E+00 0. -1.
<scales pt_clust_5="13000.00000" pt_clust_6="13000.00000" pt_clust_7="13000.00000" pt_clust_8="13000.00000" pt_clust_9="47.41158" pt_clust_10="254.88877"></scales>
<clustering>
<clus scale="   47.412">  1  9  2 -1</clus>
<clus scale="   91.852">  5  6 -1 -1</clus>
<clus scale="   97.622">  7  8 -1 -1</clus>
<clus scale="  239.776">  1  5  2 -1</clus>
<clus scale="  254.889">  2 10  1 -1</clus>
<clus scale="  254.889">  2  5  1 -1</clus>
</clustering>
</event>
<event>
10    2  0.2421970E-006  0.3054400E+03  0.7546771E-02  0.1106963E+00
         21   -1    0    0  503  502  0.00000000000E+00  0.00000000000E+00  0.12695278878E+04  0.12695278878E+04  0.00000000000E+00 0.  1.
         -4   -1    0    0    0  501 -0.00000000000E+00 -0.00000000000E+00 -0.25273976417E+03  0.25273976417E+03  0.00000000000E+00 0.  1.
         23    2    1    2    0    0 -0.66549503244E+02  0.11581296388E+03 -0.10517836391E+03  0.19323605808E+03  0.91848826450E+02 0.  0.
         23    2    1    2    0    0 -0.18539117895E+03 -0.25986935368E+03  0.30261349656E+03  0.44897684076E+03  0.90018359394E+02 0.  0.
        -11    1    4    4    0    0  0.38781255172E+01 -0.41891127706E+02  0.27953667977E+02  0.50510533469E+02  0.00000000000E+00 0. -1.
         11    1    4    4    0    0 -0.18926930446E+03 -0.21797822597E+03  0.27465982858E+03  0.39846630729E+03  0.00000000000E+00 0.  1.
        -13    1    3    3    0    0  0.18256465201E+02  0.17231062208E+02 -0.41354601364E+02  0.48377795324E+02  0.00000000000E+00 0. -1.
         13    1    3    3    0    0 -0.84805968445E+02  0.98581901674E+02 -0.63823762550E+02  0.14485826275E+03  0.00000000000E+00 0.  1.
         21    1    1    2  503  501  0.21556661348E+02 -0.23443299577E+02  0.13668705365E+03  0.14034824038E+03  0.00000000000E+00 0.  1.
         -4    1    1    2    0  502  0.23038402084E+03  0.16749968938E+03  0.68266593733E+03  0.73970651275E+03  0.00000000000E+00 0.  1.
<scales pt_clust_5="13000.00000" pt_clust_6="13000.00000" pt_clust_7="13000.00000" pt_clust_8="13000.00000" pt_clust_9="31.84773" pt_clust_10="291.87379"></scales>
<clustering>
<clus scale="   31.848">  1  9  2 -1</clus>
<clus scale="   90.018">  5  6 -1 -1</clus>
<clus scale="   91.849">  7  8 -1 -1</clus>
<clus scale="  161.109">  2  7  1 -1</clus>
<clus scale="  291.874">  1 10  2 -1</clus>
<clus scale="   31.848">  1  5  2 -1</clus>
</clustering>
</event>
<event>
10    2  0.2421970E-006  0.2162528E+03  0.7546771E-02  0.1137788E+00
         21   -1    0    0  503  502  0.00000000000E+00  0.00000000000E+00  0.16735743595E+03  0.16735743595E+03  0.00000000000E+00 0.  1.
         -2   -1    0    0    0  501 -0.00000000000E+00 -0.00000000000E+00 -0.13439592069E+04  0.13439592069E+04  0.00000000000E+00 0.  1.
         23    2    1    2    0    0  0.24864580917E+03  0.10362661324E+03 -0.80176185681E+03  0.85231923972E+03  0.10517983632E+03 0.  0.
         23    2    1    2    0    0  0.11795871989E+01 -0.15974594505E+03 -0.23371951404E+03  0.29803069519E+03  0.93152163923E+02 0.  0.
        -13    1    3    3    0    0  0.22128740058E+03  0.12359381509E+03 -0.73465140385E+03  0.77714620887E+03  0.00000000000E+00 0.  1.
         13    1    3    3    0    0  0.27358408588E+02 -0.19967201850E+02 -0.67110452962E+02  0.75173030848E+02  0.00000000000E+00 0. -1.
        -13    1    4    4    0    0  0.42139011137E+02 -0.12152545063E+03 -0.17020159077E+03  0.21333708751E+03  0.00000000000E+00 0.  1.
         13    1    4    4    0    0 -0.40959423938E+02 -0.38220494426E+02 -0.63517923273E+02  0.84693607672E+02  0.00000000000E+00 0. -1.
         21    1    1    2  503  501 -0.12170046171E+03  0.79076328614E+02 -0.17412769946E+03  0.22668154721E+03  0.00000000000E+00 0. -1.
         -2    1    1    2    0  502 -0.12812493466E+03 -0.22956996799E+02  0.33007299364E+02  0.13428516074E+03  0.00000000000E+00 0.  1.
<scales pt_clust_5="13000.00000" pt_clust_6="13000.00000" pt_clust_7="13000.00000" pt_clust_8="13000.00000" pt_clust_9="177.15255" pt_clust_10="130.16537"></scales>
<clustering>
<clus scale="   93.152">  7  8 -1 -1</clus>
<clus scale="  105.180">  5  6 -1 -1</clus>
<clus scale="  130.165">  1 10  2 -1</clus>
<clus scale="  177.153">  1  9  2 -1</clus>
<clus scale="  210.665">  1  7  2 -1</clus>
<clus scale="  130.165">  1  5  2 -1</clus>
</clustering>
</event>
<event>
10    2  0.2421970E-006  0.1235818E+03  0.7546771E-02  0.1237551E+00
         21   -1    0    0  501  502  0.00000000000E+00  0.00000000000E+00  0.51078685702E+03  0.51078685702E+03  0.00000000000E+00 0.  1.
          4   -1    0    0  503    0 -0.00000000000E+00 -0.00000000000E+00 -0.14757743013E+03  0.14757743013E+03  0.00000000000E+00 0. -1.
         23    2    1    2    0    0  0.64187994856E+02 -0.70618520971E+02 -0.90460963589E+02  0.15983516332E+03  0.90868142449E+02 0.  0.
         23    2    1    2    0    0 -0.21032583492E+02  0.27646930366E+02  0.11465863111E+03  0.15087858211E+03  0.91711626988E+02 0.  0.
        -11    1    4    4    0    0  0.21469064241E+02 -0.13974658335E+02  0.49654989314E+01  0.26093446966E+02  0.00000000000E+00 0. -1.
         11    1    4    4    0    0 -0.42501647732E+02  0.41621588700E+02  0.10969313218E+03  0.12478513514E+03  0.00000000000E+00 0.  1.
        -13    1    3    3    0    0  0.87506378285E+02 -0.56694480531E+02 -0.76324514876E+02  0.12921711162E+03  0.00000000000E+00 0. -1.
         13    1    3    3    0    0 -0.23318383429E+02 -0.13924040441E+02 -0.14136448713E+02  0.30618051704E+02  0.00000000000E+00 0.  1.
         21    1    1    2  503  502 -0.12012928692E+02  0.32466831791E+02  0.89132165737E+02  0.95618766940E+02  0.00000000000E+00 0.  1.
          4    1    1    2  501    0 -0.31142482673E+02  0.10504758815E+02  0.24987959363E+03  0.25203177478E+03  0.00000000000E+00 0. -1.
<scales pt_clust_5="13000.00000" pt_clust_6="13000.00000" pt_clust_7="13000.00000" pt_clust_8="13000.00000" pt_clust_9="42.93546" pt_clust_10="32.86646"></scales>
<clustering>
<clus scale="   32.866">  1 10  2 -1</clus>
<clus scale="   42.935">  1  9  2 -1</clus>
<clus scale="   90.868">  7  8 -1 -1</clus>
<clus scale="   91.712">  5  6 -1 -1</clus>
<clus scale="  122.957">  2  7  1 -1</clus>
<clus scale="   32.866">  1  5  2 -1</clus>
</clustering>
</event>
<event>
10    2  0.2421970E-006  0.1813147E+03  0.7546771E-02  0.1181379E+00
         21   -1    0    0  503  502  0.00000000000E+00  0.00000000000E+00  0.97736885582E+02  0.97736885582E+02  0.00000000000E+00 0. -1.
          1   -1    0    0  502    0 -0.00000000000E+00 -0.00000000000E+00 -0.76331676476E+03  0.76331676476E+03  0.00000000000E+00 0. -1.
         23    2    1    2    0    0 -0.25854603777E+02 -0.85511363862E+02 -0.30786041184E+03  0.33318548388E+03  0.90850864635E+02 0.  0.
         23    2    1    2    0    0 -0.11217417305E+03  0.15322090019E+03 -0.14527289184E+03  0.25718111676E+03  0.94753492609E+02 0.  0.
        -11    1    3    3    0    0  0.30691621294E+02 -0.32135737787E+02 -0.69776039914E+02  0.82724706146E+02  0.00000000000E+00 0.  1.
         11    1    3    3    0    0 -0.56546225071E+02 -0.53375626074E+02 -0.23808437192E+03  0.25046077773E+03  0.00000000000E+00 0. -1.
        -13    1    4    4    0    0 -0.46319447474E+02  0.12008063160E+03 -0.53291836204E+02  0.13930136074E+03  0.00000000000E+00 0. -1.
         13    1    4    4    0    0 -0.65854725579E+02  0.33140268591E+02 -0.91981055636E+02  0.11787975602E+03  0.00000000000E+00 0.  1.
         21    1    1    2  503  501  0.78932837926E+01 -0.23266426651E+02 -0.11339973212E+02  0.27059666121E+02  0.00000000000E+00 0. -1.
          1    1    1    2  501    0  0.13013549304E+03 -0.44443109675E+02 -0.20110660229E+03  0.24362738358E+03  0.00000000000E+00 0. -1.
<scales pt_clust_5="13000.00000" pt_clust_6="13000.00000" pt_clust_7="13000.00000" pt_clust_8="13000.00000" pt_clust_9="24.56889" pt_clust_10="154.58600"></scales>
<clustering>
<clus scale="   24.569">  1  9  2 -1</clus>
<clus scale="   90.851">  5  6 -1 -1</clus>
<clus scale="   94.753">  7  8 -1 -1</clus>
<clus scale="  129.420">  2  5  1 -1</clus>
<clus scale="  154.586">  1 10  2 -1</clus>
<clus scale="   24.569">  1  5  2 -1</clus>
</clustering>
</event>
<event>
10    2  0.2421970E-006  0.1023620E+03  0.7546771E-02  0.1278431E+00
         21   -1    0    0  501  502  0.00000000000E+00  0.00000000000E+00  0.65071171681E+02  0.65071171681E+02  0.00000000000E+00 0. -1.
          1   -1    0    0  503    0 -0.00000000000E+00 -0.00000000000E+00 -0.60165670305E+03  0.60165670305E+03  0.00000000000E+00 0. -1.
         23    2    1    2    0    0  0.13356407781E+02 -0.26983859220E+02 -0.38434406026E+03  0.39733489502E+03  0.96167249381E+02 0.  0.
         23    2    1    2    0    0 -0.56327701224E+02  0.14720626470E+02 -0.17313320560E+03  0.20363652185E+03  0.90017883667E+02 0.  0.
        -13    1    4    4    0    0 -0.51456614383E+01 -0.34128297665E+02 -0.39694423140E+02  0.52601005329E+02  0.00000000000E+00 0. -1.
         13    1    4    4    0    0 -0.51182039786E+02  0.48848924135E+02 -0.13343878246E+03  0.15103551652E+03  0.00000000000E+00 0.  1.
        -13    1    3    3    0    0 -0.14959707216E+02  0.31835054495E+02 -0.11994521047E+03  0.12499646815E+03  0.00000000000E+00 0.  1.
         13    1    3    3    0    0  0.28316114998E+02 -0.58818913715E+02 -0.26439884979E+03  0.27233842687E+03  0.00000000000E+00 0. -1.
         21    1    1    2  503  502  0.18262404301E+02 -0.86082016728E+01 -0.86379838259E+01  0.21959765742E+02  0.00000000000E+00 0. -1.
          1    1    1    2  501    0  0.24708889142E+02  0.20871434422E+02  0.29529718314E+02  0.43796692126E+02  0.00000000000E+00 0. -1.
<scales pt_clust_5="13000.00000" pt_clust_6="13000.00000" pt_clust_7="13000.00000" pt_clust_8="13000.00000" pt_clust_9="20.18952" pt_clust_10="39.34047"></scales>
<clustering>
<clus scale="   20.190">  1  9  2 -1</clus>
<clus scale="   39.340">  1 10  2 -1</clus>
<clus scale="   90.018">  5  6 -1 -1</clus>
<clus scale="   96.167">  7  8 -1 -1</clus>
<clus scale="   96.608">  1  5  2 -1</clus>
<clus scale="   20.190">  1  5  2 -1</clus>
</clustering>
</event>
<event>
10    2  0.2421970E-006  0.2956090E+03  0.7546771E-02  0.1108575E+00
         -1   -1    0    0    0  501 -0.00000000000E+00  0.00000000000E+00  0.67398395225E+03  0.67398395225E+03  0.00000000000E+00 0.  1.
         21   -1    0    0  501  502  0.00000000000E+00 -0.00000000000E+00 -0.28007229230E+03  0.28007229230E+03  0.00000000000E+00 0. -1.
         23    2    1    2    0    0 -0.13546863216E+03  0.48201787463E+02  0.28742027973E+03  0.33421015786E+03  0.91710685302E+02 0.  0.
         23    2    1    2    0    0 -0.10175337257E+03 -0.25493953430E+03  0.11987322186E+02  0.28770490578E+03  0.85337576334E+02 0.  0.
        -11    1    3    3    0    0 -0.11244831066E+03  0.24030267337E+02  0.27589275711E+03  0.29889611865E+03  0.00000000000E+00 0.  1.
         11    1    3    3    0    0 -0.23020321500E+02  0.24171520126E+02  0.11527522622E+02  0.35314039205E+02  0.00000000000E+00 0. -1.
        -11    1    4    4    0    0 -0.14751664079E+02 -0.43645942246E+02  0.35263473136E+02  0.58018035172E+02  0.00000000000E+00 0.  1.
         11    1    4    4    0    0 -0.87001708494E+02 -0.21129359206E+03 -0.23276150950E+02  0.22968687061E+03  0.00000000000E+00 0. -1.
         21    1    1    2  503  502  0.55288459452E+02  0.39394836635E+02  0.11151278320E+01  0.67897057463E+02  0.00000000000E+00 0.  1.
         -1    1    1    2    0  503  0.18193354528E+03  0.16734291021E+03  0.93388930198E+02  0.26424412345E+03  0.00000000000E+00 0.  1.
<scales pt_clust_5="13000.00000" pt_clust_6="13000.00000" pt_clust_7="13000.00000" pt_clust_8="13000.00000" pt_clust_9="25.52316" pt_clust_10="287.18323"></scales>
<clustering>
<clus scale="   25.523">  9 10 -1 -1</clus>
<clus scale="   85.338">  7  8 -1 -1</clus>
<clus scale="   91.711">  5  6 -1 -1</clus>
<clus scale="  170.546">  1  5  2 -1</clus>
<clus scale="  287.183">  2  9  1 -1</clus>
<clus scale="  287.183">  2  5  1 -1</clus>
</clustering>
</event>
<event>
10    2  0.2421970E-006  0.9409639E+02  0.7546771E-02  0.1296752E+00
         21   -1    0    0  501  502  0.00000000000E+00  0.00000000000E+00  0.52722578400E+02  0.52722578400E+02  0.00000000000E+00 0. -1.
          2   -1    0    0  503    0 -0.00000000000E+00 -0.00000000000E+00 -0.72118096211E+03  0.72118096211E+03  0.00000000000E+00 0. -1.
         23    2    1    2    0    0 -0.37105925101E+02  0.11038021533E+02 -0.34856786260E+03  0.36285528030E+03  0.93089806123E+02 0.  0.
         23    2    1    2    0    0 -0.35426525193E+02 -0.15871401249E+02 -0.26656584530E+03  0.28309382260E+03  0.87050688965E+02 0.  0.
        -11    1    4    4    0    0 -0.34561128864E+02 -0.49873432412E+02 -0.18583725258E+03  0.19549249432E+03  0.00000000000E+00 0.  1.
         11    1    4    4    0    0 -0.86539632943E+00  0.34002031164E+02 -0.80728592726E+02  0.87601328287E+02  0.00000000000E+00 0. -1.
        -13    1    3    3    0    0  0.22038641751E+02 -0.23187082726E+02 -0.12852593338E+03  0.13244718981E+03  0.00000000000E+00 0.  1.
         13    1    3    3    0    0 -0.59144566852E+02  0.34225104259E+02 -0.22004192922E+03  0.23040809049E+03  0.00000000000E+00 0. -1.
         21    1    1    2  503  502  0.70278677630E+02  0.36780412765E+02 -0.20145014882E+02  0.81839555945E+02  0.00000000000E+00 0. -1.
          2    1    1    2  501    0  0.22537726643E+01 -0.31947033050E+02 -0.33179660925E+02  0.46114881665E+02  0.00000000000E+00 0. -1.
<scales pt_clust_5="13000.00000" pt_clust_6="13000.00000" pt_clust_7="13000.00000" pt_clust_8="13000.00000" pt_clust_9="73.43086" pt_clust_10="32.02643"></scales>
<clustering>
<clus scale="   32.026">  1 10  2 -1</clus>
<clus scale="   73.431">  1  9  2 -1</clus>
<clus scale="   87.051">  5  6 -1 -1</clus>
<clus scale="   88.126">  1  5  2 -1</clus>
<clus scale="   93.090">  7  8 -1 -1</clus>
<clus scale="   32.026">  1  5  2 -1</clus>
</clustering>
</event>
<event>
10    2  0.2421970E-006  0.1413027E+03  0.7546771E-02  0.1226722E+00
         21   -1    0    0  501  502  0.00000000000E+00  0.00000000000E+00  0.22110430401E+03  0.22110430401E+03  0.00000000000E+00 0.  1.
          2   -1    0    0  503    0 -0.00000000000E+00 -0.00000000000E+00 -0.29531963240E+03  0.29531963240E+03  0.00000000000E+00 0. -1.
         23    2    1    2    0    0 -0.33003827148E+02  0.31230370450E+02 -0.84430995650E+02  0.13303868230E+03  0.92228571040E+02 0.  0.
         23    2    1    2    0    0  0.43463200018E+02  0.13264046525E+03  0.65431142987E+02  0.17887753974E+03  0.90738067927E+02 0.  0.
        -11    1    4    4    0    0 -0.17418666174E+02  0.58281595893E+02  0.55358364398E+02  0.82247813709E+02  0.00000000000E+00 0. -1.
         11    1    4    4    0    0  0.60881866192E+02  0.74358869359E+02  0.10072778589E+02  0.96629726026E+02  0.00000000000E+00 0.  1.
        -11    1    3    3    0    0  0.28262129600E+02  0.13922246681E+02 -0.60852651276E+01  0.32087495599E+02  0.00000000000E+00 0.  1.
         11    1    3    3    0    0 -0.61265956748E+02  0.17308123769E+02 -0.78345730522E+02  0.10095118670E+03  0.00000000000E+00 0. -1.
         21    1    1    2  503  502  0.35569233385E+02 -0.10333867650E+03  0.20572981947E+01  0.10930821058E+03  0.00000000000E+00 0. -1.
          2    1    1    2  501    0 -0.46028606254E+02 -0.60532159200E+02 -0.57272773919E+02  0.95199503799E+02  0.00000000000E+00 0. -1.
<scales pt_clust_5="13000.00000" pt_clust_6="13000.00000" pt_clust_7="13000.00000" pt_clust_8="13000.00000" pt_clust_9="108.31923" pt_clust_10="76.04460"></scales>
<clustering>
<clus scale="   76.045">  1 10  2 -1</clus>
<clus scale="   90.738">  5  6 -1 -1</clus>
<clus scale="   92.229">  7  8 -1 -1</clus>
<clus scale="  102.786">  2  7  1 -1</clus>
<clus scale="  108.319">  2  9  1 -1</clus>
<clus scale="   76.045">  1  5  2 -1</clus>
</clustering>
</event>
<event>
10    2  0.2421970E-006  0.1637753E+03  0.7546771E-02  0.1184734E+00
         21   -1    0    0  501  502  0.00000000000E+00  0.00000000000E+00  0.68914019992E+02  0.68914019992E+02  0.00000000000E+00 0.  1.
          1   -1    0    0  503    0 -0.00000000000E+00 -0.00000000000E+00 -0.78080039591E+03  0.78080039591E+03  0.00000000000E+00 0. -1.
         23    2    1    2    0    0  0.74506472332E+02 -0.85382857210E+02 -0.29417693869E+03  0.32795756039E+03  0.90413734777E+02 0.  0.
         23    2    1    2    0    0 -0.98164409189E+02  0.13274317285E+03 -0.40670579828E+03  0.44784104215E+03  0.88853764711E+02 0.  0.
        -13    1    4    4    0    0 -0.33031141630E+02  0.30618579145E+02 -0.22499885002E+03  0.22946249414E+03  0.00000000000E+00 0. -1.
         13    1    4    4    0    0 -0.65133267559E+02  0.10212459371E+03 -0.18170694826E+03  0.21837854801E+03  0.00000000000E+00 0.  1.
        -13    1    3    3    0    0  0.16645787357E+02 -0.83156766026E+02 -0.14562264341E+03  0.16851731141E+03  0.00000000000E+00 0. -1.
         13    1    3    3    0    0  0.57860684975E+02 -0.22260911837E+01 -0.14855429528E+03  0.15944024898E+03  0.00000000000E+00 0.  1.
         21    1    1    2  503  502  0.30206314971E+02 -0.13005059152E+02 -0.19080810547E+02  0.38021446037E+02  0.00000000000E+00 0. -1.
          1    1    1    2  501    0 -0.65483781137E+01 -0.34355256490E+02  0.80771716044E+01  0.35894367323E+02  0.00000000000E+00 0. -1.
<scales pt_clust_5="13000.00000" pt_clust_6="13000.00000" pt_clust_7="13000.00000" pt_clust_8="13000.00000" pt_clust_9="32.88697" pt_clust_10="39.43727"></scales>
<clustering>
<clus scale="   32.887">  1  9  2 -1</clus>
<clus scale="   39.437">  1 10  2 -1</clus>
<clus scale="   88.854">  5  6 -1 -1</clus>
<clus scale="   90.414">  7  8 -1 -1</clus>
<clus scale="  162.919">  1  5  2 -1</clus>
<clus scale="   32.887">  1  5  2 -1</clus>
</clustering>
</event>
<event>
10    2  0.2421970E-006  0.1258036E+03  0.7546771E-02  0.1249087E+00
         -1   -1    0    0    0  501 -0.00000000000E+00  0.00000000000E+00  0.53732316572E+03  0.53732316572E+03  0.00000000000E+00 0.  1.
         21   -1    0    0  501  502  0.00000000000E+00 -0.00000000000E+00 -0.51036505531E+02  0.51036505531E+02  0.00000000000E+00 0.  1.
         23    2    1    2    0    0 -0.67309931378E+01  0.25481375290E+02  0.71088465326E+02  0.11652619353E+03  0.88488288042E+02 0.  0.
         23    2    1    2    0    0 -0.81808805686E+02 -0.33958180412E+02  0.20760557176E+03  0.24303711523E+03  0.90117297155E+02 0.  0.
        -11    1    3    3    0    0  0.27409134623E+02 -0.19900426855E+02  0.37562297996E+02  0.50578788840E+02  0.00000000000E+00 0.  1.
         11    1    3    3    0    0 -0.34140127760E+02  0.45381802144E+02  0.33526167331E+02  0.65947404689E+02  0.00000000000E+00 0. -1.
        -13    1    4    4    0    0 -0.11013797529E+02 -0.45685682890E+02  0.43964557587E+02  0.64353458967E+02  0.00000000000E+00 0.  1.
         13    1    4    4    0    0 -0.70795008157E+02  0.11727502478E+02  0.16364101417E+03  0.17868365626E+03  0.00000000000E+00 0. -1.
         21    1    1    2  503  502  0.45721634016E+02  0.22164118984E+02  0.12087012396E+03  0.13111560873E+03  0.00000000000E+00 0.  1.
         -1    1    1    2    0  503  0.42818164807E+02 -0.13687313862E+02  0.86722499142E+02  0.97680753763E+02  0.00000000000E+00 0.  1.
<scales pt_clust_5="13000.00000" pt_clust_6="13000.00000" pt_clust_7="13000.00000" pt_clust_8="13000.00000" pt_clust_9="34.45599" pt_clust_10="95.11755"></scales>
<clustering>
<clus scale="   34.456">  9 10 -1 -1</clus>
<clus scale="   88.488">  5  6 -1 -1</clus>
<clus scale="   90.117">  7  8 -1 -1</clus>
<clus scale="   92.330">  1  5  2 -1</clus>
<clus scale="   95.118">  2  9  1 -1</clus>
<clus scale="   95.118">  2  5  1 -1</clus>
</clustering>
</event>
<event>
10    2  0.2421970E-006  0.2282656E+03  0.7546771E-02  0.1127917E+00
          2   -1    0    0  502    0 -0.00000000000E+00  0.00000000000E+00  0.61173931391E+03  0.61173931391E+03  0.00000000000E+00 0. -1.
         21   -1    0    0  503  502  0.00000000000E+00 -0.00000000000E+00 -0.32012288720E+03  0.32012288720E+03  0.00000000000E+00 0. -1.
         23    2    1    2    0    0 -0.16000944201E+03  0.11861572030E+03  0.41908936032E+03  0.47298809283E+03  0.91701327085E+02 0.  0.
         23    2    1    2    0    0  0.27830377855E+03 -0.11334018724E+03 -0.12014644740E+03  0.33617542748E+03  0.90993175701E+02 0.  0.
        -11    1    4    4    0    0  0.25142690054E+03 -0.70237042428E+02 -0.85537022472E+02  0.27470950231E+03  0.00000000000E+00 0. -1.
         11    1    4    4    0    0  0.26876878006E+02 -0.43103144811E+02 -0.34609424927E+02  0.61465925176E+02  0.00000000000E+00 0.  1.
        -13    1    3    3    0    0 -0.18969782124E+02  0.32400886771E+02  0.23610686518E+02  0.44352391313E+02  0.00000000000E+00 0. -1.
         13    1    3    3    0    0 -0.14103965989E+03  0.86214833532E+02  0.39547867380E+03  0.42863570152E+03  0.00000000000E+00 0.  1.
         21    1    1    2  503  501 -0.46996560110E+02 -0.17065662332E+02 -0.65678347801E+01  0.50428661956E+02  0.00000000000E+00 0.  1.
          2    1    1    2  501    0 -0.71297776426E+02  0.11790129267E+02 -0.75865143099E+00  0.72270018842E+02  0.00000000000E+00 0. -1.
<scales pt_clust_5="13000.00000" pt_clust_6="13000.00000" pt_clust_7="13000.00000" pt_clust_8="13000.00000" pt_clust_9="26.03794" pt_clust_10="122.47975"></scales>
<clustering>
<clus scale="   26.038">  9 10 -1 -1</clus>
<clus scale="   90.993">  5  6 -1 -1</clus>
<clus scale="   91.701">  7  8 -1 -1</clus>
<clus scale="  122.480">  2  9  1 -1</clus>
<clus scale="  227.982">  2  5  1 -1</clus>
<clus scale="  122.480">  2  5  1 -1</clus>
</clustering>
</event>
<event>
10    2  0.2421970E-006  0.2135462E+03  0.7546771E-02  0.1145571E+00
         21   -1    0    0  503  502  0.00000000000E+00  0.00000000000E+00  0.14473583120E+03  0.14473583120E+03  0.00000000000E+00 0. -1.
          2   -1    0    0  502    0 -0.00000000000E+00 -0.00000000000E+00 -0.76013204839E+03  0.76013204839E+03  0.00000000000E+00 0. -1.
         23    2    1    2    0    0  0.13500206152E+03  0.80153916524E+02 -0.76170526953E+02  0.19677434808E+03  0.90928477038E+02 0.  0.
         23    2    1    2    0    0 -0.96370214657E+02  0.15736570305E+03 -0.19033191597E+03  0.28038719864E+03  0.91321192238E+02 0.  0.
        -11    1    4    4    0    0  0.10079265423E+01  0.44616816301E+02 -0.90928061165E+02  0.10128962691E+03  0.00000000000E+00 0.  1.
         11    1    4    4    0    0 -0.97378141200E+02  0.11274888675E+03 -0.99403854804E+02  0.17909757172E+03  0.00000000000E+00 0. -1.
        -13    1    3    3    0    0  0.97855370473E+02  0.64166286152E+02 -0.96348906757E+02  0.15157868466E+03  0.00000000000E+00 0. -1.
         13    1    3    3    0    0  0.37146691044E+02  0.15987630372E+02  0.20178379804E+02  0.45195663420E+02  0.00000000000E+00 0.  1.
         21    1    1    2  503  501  0.62616470483E+01 -0.10049745034E+03 -0.11413641354E+03  0.15220402966E+03  0.00000000000E+00 0.  1.
          2    1    1    2  501    0 -0.44893493909E+02 -0.13702216923E+03 -0.23475736074E+03  0.27550230322E+03  0.00000000000E+00 0. -1.
<scales pt_clust_5="13000.00000" pt_clust_6="13000.00000" pt_clust_7="13000.00000" pt_clust_8="13000.00000" pt_clust_9="47.98965" pt_clust_10="201.39593"></scales>
<clustering>
<clus scale="   47.990">  9 10 -1 -1</clus>
<clus scale="   90.928">  7  8 -1 -1</clus>
<clus scale="   91.321">  5  6 -1 -1</clus>
<clus scale="  181.434">  2  7  1 -1</clus>
<clus scale="  201.396">  1  9  2 -1</clus>
<clus scale="  201.396">  1  5  2 -1</clus>
</clustering>
</event>
<event>
10    2  0.2421970E-006  0.1047517E+03  0.7546771E-02  0.1274058E+00
         -3   -1    0    0    0  501 -0.00000000000E+00  0.00000000000E+00  0.79352461404E+03  0.79352461404E+03  0.00000000000E+00 0.  1.
         21   -1    0    0  501  502  0.00000000000E+00 -0.00000000000E+00 -0.55777730809E+02  0.55777730809E+02  0.00000000000E+00 0.  1.
         23    2    1    2    0    0  0.20495934384E+02  0.45915564544E+02  0.37401340993E+03  0.38652668230E+03  0.83597385886E+02 0.  0.
         23    2    1    2    0    0  0.22989636044E+02 -0.57780426421E+02  0.37887808939E+03  0.39467668685E+03  0.91400106560E+02 0.  0.
        -11    1    3    3    0    0  0.53283150744E+02  0.28290176361E+02  0.23001903465E+03  0.23779862180E+03  0.00000000000E+00 0.  1.
         11    1    3    3    0    0 -0.32787216360E+02  0.17625388183E+02  0.14399437528E+03  0.14872806049E+03  0.00000000000E+00 0. -1.
        -13    1    4    4    0    0  0.51636289561E+02 -0.34682451648E+02  0.31388493418E+03  0.31998895412E+03  0.00000000000E+00 0.  1.
         13    1    4    4    0    0 -0.28646653517E+02 -0.23097974774E+02  0.64993155208E+02  0.74687732730E+02  0.00000000000E+00 0. -1.
         21    1    1    2  503  502 -0.63736250673E+01  0.23949928742E+02  0.31701769258E+01  0.24985439860E+02  0.00000000000E+00 0.  1.
         -3    1    1    2    0  503 -0.37111945361E+02 -0.12085066865E+02 -0.18314793015E+02  0.43113535842E+02  0.00000000000E+00 0.  1.
<scales pt_clust_5="13000.00000" pt_clust_6="13000.00000" pt_clust_7="13000.00000" pt_clust_8="13000.00000" pt_clust_9="24.78351" pt_clust_10="41.69801"></scales>
<clustering>
<clus scale="   24.784">  2  9  1 -1</clus>
<clus scale="   41.698">  2 10  1 -1</clus>
<clus scale="   83.597">  5  6 -1 -1</clus>
<clus scale="   91.400">  7  8 -1 -1</clus>
<clus scale="   98.018">  1  5  2 -1</clus>
<clus scale="   24.784">  2  5  1 -1</clus>
</clustering>
</event>
<event>
10    2  0.2421970E-006  0.1422102E+03  0.7546771E-02  0.1210388E+00
         -1   -1    0    0    0  501 -0.00000000000E+00  0.00000000000E+00  0.32219069492E+03  0.32219069492E+03  0.00000000000E+00 0.  1.
         21   -1    0    0  501  502  0.00000000000E+00 -0.00000000000E+00 -0.17155058668E+03  0.17155058668E+03  0.00000000000E+00 0.  1.
         23    2    1    2    0    0  0.19441192571E+02  0.12126916666E+03  0.22613378379E+03  0.27321542823E+03  0.91793307488E+02 0.  0.
         23    2    1    2    0    0 -0.33657345098E+02 -0.68642838669E+02  0.41042696510E+01  0.11953791690E+03  0.91803117415E+02 0.  0.
        -11    1    3    3    0    0  0.49388049346E+02  0.10611919940E+03  0.19502732457E+03  0.22745575664E+03  0.00000000000E+00 0.  1.
         11    1    3    3    0    0 -0.29946856775E+02  0.15149967260E+02  0.31106459219E+02  0.45759671588E+02  0.00000000000E+00 0. -1.
        -13    1    4    4    0    0  0.62408845443E+01 -0.78169158566E+02  0.14266024844E+01  0.78430868830E+02  0.00000000000E+00 0.  1.
         13    1    4    4    0    0 -0.39898229642E+02  0.95263198966E+01  0.26776671666E+01  0.41107048067E+02  0.00000000000E+00 0. -1.
         21    1    1    2  503  502  0.88075091712E+00 -0.26608226770E+02 -0.60412694328E+02  0.66018687430E+02  0.00000000000E+00 0.  1.
         -1    1    1    2    0  503  0.13335401610E+02 -0.26018101223E+02 -0.19185250879E+02  0.34969249043E+02  0.00000000000E+00 0.  1.
<scales pt_clust_5="13000.00000" pt_clust_6="13000.00000" pt_clust_7="13000.00000" pt_clust_8="13000.00000" pt_clust_9="26.62280" pt_clust_10="35.36931"></scales>
<clustering>
<clus scale="   26.623">  2  9  1 -1</clus>
<clus scale="   35.369">  2 10  1 -1</clus>
<clus scale="   91.793">  5  6 -1 -1</clus>
<clus scale="   91.803">  7  8 -1 -1</clus>
<clus scale="  142.204">  1  5  2 -1</clus>
<clus scale="   26.623">  2  5  1 -1</clus>
</clustering>
</event>
<event>
10    2  0.2421970E-006  0.1731266E+03  0.7546771E-02  0.1202797E+00
          4   -1    0    0  502    0 -0.00000000000E+00  0.00000000000E+00  0.35849399084E+03  0.35849399084E+03  0.00000000000E+00 0. -1.
         21   -1    0    0  503  502  0.00000000000E+00 -0.00000000000E+00 -0.29839638702E+03  0.29839638702E+03  0.00000000000E+00 0. -1.
         23    2    1    2    0    0  0.21482893057E+02 -0.52412299701E+02  0.19493447856E+02  0.94797996644E+02  0.73471775563E+02 0.  0.
         23    2    1    2    0    0 -0.14509278426E+03 -0.28556863959E+02  0.24999357155E+03  0.30452424495E+03  0.91492182317E+02 0.  0.
        -11    1    3    3    0    0 -0.14239517964E+02 -0.51546417370E+02 -0.12288152138E+01  0.53491186212E+02  0.00000000000E+00 0. -1.
         11    1    3    3    0    0  0.35722411021E+02 -0.86588233125E+00  0.20722263070E+02  0.41306810432E+02  0.00000000000E+00 0.  1.
        -13    1    4    4    0    0 -0.19808912616E+02 -0.28567603712E+02  0.14275771834E+02  0.37580562294E+02  0.00000000000E+00 0.  1.
         13    1    4    4    0    0 -0.12528387164E+03  0.10739753021E-01  0.23571779971E+03  0.26694368266E+03  0.00000000000E+00 0. -1.
         21    1    1    2  503  501  0.48596514252E+02  0.44580714220E+02 -0.10466734436E+03  0.12371060688E+03  0.00000000000E+00 0. -1.
          4    1    1    2  501    0  0.75013376948E+02  0.36388449440E+02 -0.10472207122E+03  0.13385752939E+03  0.00000000000E+00 0. -1.
<scales pt_clust_5="13000.00000" pt_clust_6="13000.00000" pt_clust_7="13000.00000" pt_clust_8="13000.00000" pt_clust_9="22.88318" pt_clust_10="149.21123"></scales>
<clustering>
<clus scale="   22.883">  9 10 -1 -1</clus>
<clus scale="   73.472">  5  6 -1 -1</clus>
<clus scale="   91.492">  7  8 -1 -1</clus>
<clus scale="   92.772">  1  5  2 -1</clus>
<clus scale="  149.211">  2  9  1 -1</clus>
<clus scale="  149.211">  2  5  1 -1</clus>
</clustering>
</event>
<event>
10    2  0.2421970E-006  0.1239885E+03  0.7546771E-02  0.1237189E+00
          1   -1    0    0  503    0 -0.00000000000E+00  0.00000000000E+00  0.63199991981E+03  0.63199991981E+03  0.00000000000E+00 0. -1.
         21   -1    0    0  501  502  0.00000000000E+00 -0.00000000000E+00 -0.41118719398E+02  0.41118719398E+02  0.00000000000E+00 0.  1.
         23    2    1    2    0    0 -0.59454445313E+02  0.41918174404E+02  0.23583462872E+03  0.26236509345E+03  0.89025309590E+02 0.  0.
         23    2    1    2    0    0  0.83482955181E+02 -0.36801449344E+02  0.15826372690E+03  0.20402440561E+03  0.90855931837E+02 0.  0.
        -11    1    4    4    0    0  0.94578394609E+02 -0.11255642838E+02  0.14421975366E+03  0.17283257670E+03  0.00000000000E+00 0. -1.
         11    1    4    4    0    0 -0.11095439429E+02 -0.25545806506E+02  0.14043973245E+02  0.31191828908E+02  0.00000000000E+00 0.  1.
        -13    1    3    3    0    0 -0.82732446796E+01 -0.19578062137E+02  0.11823037655E+03  0.12012563854E+03  0.00000000000E+00 0. -1.
         13    1    3    3    0    0 -0.51181200633E+02  0.61496236541E+02  0.11760425216E+03  0.14223945491E+03  0.00000000000E+00 0.  1.
         21    1    1    2  503  502 -0.31634290933E+02  0.18049730692E+02  0.87849070491E+02  0.95099843990E+02  0.00000000000E+00 0.  1.
          1    1    1    2  501    0  0.76057810650E+01 -0.23166455752E+02  0.10893377430E+03  0.11162929616E+03  0.00000000000E+00 0. -1.
<scales pt_clust_5="13000.00000" pt_clust_6="13000.00000" pt_clust_7="13000.00000" pt_clust_8="13000.00000" pt_clust_9="34.80463" pt_clust_10="24.38305"></scales>
<clustering>
<clus scale="   24.383">  2 10  1 -1</clus>
<clus scale="   34.805">  1  9  2 -1</clus>
<clus scale="   89.025">  7  8 -1 -1</clus>
<clus scale="   90.856">  5  6 -1 -1</clus>
<clus scale="  122.653">  1  7  2 -1</clus>
<clus scale="   24.383">  2  5  1 -1</clus>
</clustering>
</event>
<event>
10    2  0.2421970E-006  0.1856868E+03  0.7546771E-02  0.1163665E+00
          4   -1    0    0  502    0 -0.00000000000E+00  0.00000000000E+00  0.40633898107E+03  0.40633898107E+03  0.00000000000E+00 0. -1.
         21   -1    0    0  503  502  0.00000000000E+00 -0.00000000000E+00 -0.48343721021E+03  0.48343721021E+03  0.00000000000E+00 0. -1.
         23    2    1    2    0    0 -0.10238585894E+03  0.89279501416E+02  0.13017291890E+03  0.21418593705E+03  0.10235689196E+03 0.  0.
         23    2    1    2    0    0  0.25412329600E+03 -0.18821350074E+03 -0.27654211234E+03  0.43012624523E+03  0.92358407899E+02 0.  0.
        -11    1    4    4    0    0  0.22618321903E+01 -0.20596047689E+02 -0.43689896392E+02  0.48354111635E+02  0.00000000000E+00 0.  1.
         11    1    4    4    0    0  0.25186146381E+03 -0.16761745305E+03 -0.23285221595E+03  0.38177213360E+03  0.00000000000E+00 0. -1.
        -13    1    3    3    0    0 -0.50917428530E+02 -0.15607097298E+02  0.40562883121E+02  0.66944107293E+02  0.00000000000E+00 0.  1.
         13    1    3    3    0    0 -0.51468430407E+02  0.10488659871E+03  0.89610035777E+02  0.14724182976E+03  0.00000000000E+00 0. -1.
         21    1    1    2  503  501 -0.40053323807E+02 -0.26216853522E+02 -0.23987375908E+02  0.53544246746E+02  0.00000000000E+00 0. -1.
          4    1    1    2  501    0 -0.11168411326E+03  0.12515085285E+03  0.93258340207E+02  0.19191976225E+03  0.00000000000E+00 0. -1.
<scales pt_clust_5="13000.00000" pt_clust_6="13000.00000" pt_clust_7="13000.00000" pt_clust_8="13000.00000" pt_clust_9="47.87058" pt_clust_10="168.60854"></scales>
<clustering>
<clus scale="   47.871">  2  9  1 -1</clus>
<clus scale="   92.358">  5  6 -1 -1</clus>
<clus scale="  102.357">  7  8 -1 -1</clus>
<clus scale="  168.609">  2 10  1 -1</clus>
<clus scale="  180.368">  2  5  1 -1</clus>
<clus scale="   47.871">  2  5  1 -1</clus>
</clustering>
</event>
<event>
10    2  0.2421970E-006  0.1508733E+03  0.7546771E-02  0.1212065E+00
         21   -1    0    0  501  502  0.00000000000E+00  0.00000000000E+00  0.34041241044E+03  0.34041241044E+03  0.00000000000E+00 0. -1.
         -1   -1    0    0    0  501 -0.00000000000E+00 -0.00000000000E+00 -0.49392511860E+03  0.49392511860E+03  0.00000000000E+00 0.  1.
         23    2    1    2    0    0 -0.48356990699E+02 -0.59328813065E+02 -0.39731518812E+03  0.42379879451E+03  0.12604662990E+03 0.  0.
         23    2    1    2    0    0  0.15079704849E+03  0.67956322276E+02  0.81203111601E+02  0.20069942060E+03  0.79551873180E+02 0.  0.
        -11    1    3    3    0    0  0.12278982655E+02 -0.37379153970E+02 -0.26543195761E+02  0.47460676436E+02  0.00000000000E+00 0. -1.
         11    1    3    3    0    0 -0.60635973354E+02 -0.21949659094E+02 -0.37077199236E+03  0.37633811807E+03  0.00000000000E+00 0.  1.
        -13    1    4    4    0    0  0.86533649601E+02  0.16559011535E+02  0.45204592448E+01  0.88219657266E+02  0.00000000000E+00 0.  1.
         13    1    4    4    0    0  0.64263398887E+02  0.51397310741E+02  0.76682652356E+02  0.11247976334E+03  0.00000000000E+00 0. -1.
         21    1    1    2  503  502 -0.34369070879E+02 -0.29672731488E+02  0.11634682468E+03  0.12489310485E+03  0.00000000000E+00 0. -1.
         -1    1    1    2    0  503 -0.68070986910E+02  0.21045222277E+02  0.46252543677E+02  0.84946209075E+02  0.00000000000E+00 0.  1.
<scales pt_clust_5="13000.00000" pt_clust_6="13000.00000" pt_clust_7="13000.00000" pt_clust_8="13000.00000" pt_clust_9="45.40599" pt_clust_10="79.27152"></scales>
<clustering>
<clus scale="   45.406">  1  9  2 -1</clus>
<clus scale="   79.272">  1 10  2 -1</clus>
<clus scale="   79.552">  7  8 -1 -1</clus>
<clus scale="  114.906">  1  7  2 -1</clus>
<clus scale="  126.047">  5  6 -1 -1</clus>
<clus scale="   45.406">  1  5  2 -1</clus>
</clustering>
</event>
<event>
10    2  0.2421970E-006  0.1316878E+03  0.7546771E-02  0.1227740E+00
         21   -1    0    0  501  502  0.00000000000E+00  0.00000000000E+00  0.20628787961E+03  0.20628787961E+03  0.00000000000E+00 0.  1.
         -1   -1    0    0    0  501 -0.00000000000E+00 -0.00000000000E+00 -0.21930436496E+03  0.21930436496E+03  0.00000000000E+00 0.  1.
         23    2    1    2    0    0  0.22874547362E+02 -0.61605103233E+02 -0.40537032779E+02  0.11943492973E+03  0.91120896346E+02 0.  0.
         23    2    1    2    0    0 -0.71080609293E+02  0.10858445511E+03 -0.84086931102E+02  0.17416459740E+03  0.80122768905E+02 0.  0.
        -11    1    3    3    0    0 -0.21315422213E+02  0.94734844536E+01 -0.25213315055E+02  0.34348295269E+02  0.00000000000E+00 0.  1.
         11    1    3    3    0    0  0.44189969574E+02 -0.71078587686E+02 -0.15323717724E+02  0.85086634458E+02  0.00000000000E+00 0. -1.
        -13    1    4    4    0    0 -0.47962630238E+01  0.35046558945E+02  0.10848941588E+02  0.36999526571E+02  0.00000000000E+00 0. -1.
         13    1    4    4    0    0 -0.66284346270E+02  0.73537896165E+02 -0.94935872689E+02  0.13716507083E+03  0.00000000000E+00 0.  1.
         21    1    1    2  503  502  0.22211533034E+02 -0.27395546886E+02  0.39949456979E+02  0.53290030042E+02  0.00000000000E+00 0.  1.
         -1    1    1    2    0  503  0.25994528897E+02 -0.19583804992E+02  0.71658021559E+02  0.78702687402E+02  0.00000000000E+00 0.  1.
<scales pt_clust_5="13000.00000" pt_clust_6="13000.00000" pt_clust_7="13000.00000" pt_clust_8="13000.00000" pt_clust_9="20.03466" pt_clust_10="70.46877"></scales>
<clustering>
<clus scale="   20.035">  9 10 -1 -1</clus>
<clus scale="   70.469">  1  9  2 -1</clus>
<clus scale="   80.123">  7  8 -1 -1</clus>
<clus scale="   91.121">  5  6 -1 -1</clus>
<clus scale="  124.331">  1  7  2 -1</clus>
<clus scale="   70.469">  1  5  2 -1</clus>
</clustering>
</event>
<event>
10    2  0.2421970E-006  0.2090983E+03  0.7546771E-02  0.1142733E+00
         -2   -1    0    0    0  501 -0.00000000000E+00  0.00000000000E+00  0.33914208349E+03  0.33914208349E+03  0.00000000000E+00 0.  1.
         21   -1    0    0  501  502  0.00000000000E+00 -0.00000000000E+00 -0.30419249704E+03  0.30419249704E+03  0.00000000000E+00 0.  1.
         23    2    1    2    0    0  0.13468252808E+02  0.18675374682E+03  0.18072500415E+03  0.27626613335E+03  0.92752862608E+02 0.  0.
         23    2    1    2    0    0  0.72762560135E+02 -0.19024479682E+03 -0.15816532980E+03  0.27234149194E+03  0.87556517797E+02 0.  0.
        -13    1    3    3    0    0  0.50191780624E+02  0.11483909329E+03  0.87061884639E+02  0.15260079930E+03  0.00000000000E+00 0.  1.
         13    1    3    3    0    0 -0.36723527816E+02  0.71914653535E+02  0.93663119513E+02  0.12366533405E+03  0.00000000000E+00 0. -1.
        -13    1    4    4    0    0 -0.57705786000E+01 -0.86895240638E+02 -0.36473863572E+02  0.94416233492E+02  0.00000000000E+00 0.  1.
         13    1    4    4    0    0  0.78533138735E+02 -0.10334955619E+03 -0.12169146622E+03  0.17792525845E+03  0.00000000000E+00 0. -1.
         21    1    1    2  503  502 -0.24317611146E+02 -0.14502560091E+02 -0.29058935486E+01  0.28462513564E+02  0.00000000000E+00 0.  1.
         -2    1    1    2    0  503 -0.61913201797E+02  0.17993610090E+02  0.15295805646E+02  0.66264441680E+02  0.00000000000E+00 0.  1.
<scales pt_clust_5="13000.00000" pt_clust_6="13000.00000" pt_clust_7="13000.00000" pt_clust_8="13000.00000" pt_clust_9="24.54372" pt_clust_10="93.91323"></scales>
<clustering>
<clus scale="   24.544">  9 10 -1 -1</clus>
<clus scale="   87.557">  7  8 -1 -1</clus>
<clus scale="   92.753">  5  6 -1 -1</clus>
<clus scale="   93.913">  2  9  1 -1</clus>
<clus scale="  206.846">  2  7  1 -1</clus>
<clus scale="   93.913">  2  5  1 -1</clus>
</clustering>
</event>
<event>
10    2  0.3553714E-006  0.1133896E+03  0.7546771E-02  0.1255060E+00
          1   -1    0    0  503    0 -0.00000000000E+00  0.00000000000E+00  0.56166338826E+03  0.56166338826E+03  0.00000000000E+00 0. -1.
         21   -1    0    0  501  502  0.00000000000E+00 -0.00000000000E+00 -0.22097659843E+03  0.22097659843E+03  0.00000000000E+00 0. -1.
         23    2    1    2    0    0 -0.11428158378E+02  0.80107130134E+02  0.48160994255E+03  0.49675256012E+03  0.90924221825E+02 0.  0.
         23    2    1    2    0    0 -0.75570458505E+01  0.41657192123E+01  0.59306997726E+01  0.89743079773E+02  0.89130157684E+02 0.  0.
        -11    1    4    4    0    0  0.32381374894E+02  0.22648030830E+02  0.18985526306E+02  0.43839901341E+02  0.00000000000E+00 0. -1.
         11    1    4    4    0    0 -0.39938420744E+02 -0.18482311618E+02 -0.13054826533E+02  0.45903178431E+02  0.00000000000E+00 0.  1.
        -11    1    3    3    0    0 -0.36550510337E+02  0.11059025648E+02  0.82156609369E+02  0.90597739029E+02  0.00000000000E+00 0.  1.
         11    1    3    3    0    0  0.25122351959E+02  0.69048104486E+02  0.39945333318E+03  0.40615482109E+03  0.00000000000E+00 0. -1.
         21    1    1    2  503  502  0.42859081311E+02 -0.38775702715E+02 -0.23270184843E+02  0.62305356708E+02  0.00000000000E+00 0. -1.
          1    1    1    2  501    0 -0.23873877082E+02 -0.45497146631E+02 -0.12358366765E+03  0.13383899009E+03  0.00000000000E+00 0. -1.
<scales pt_clust_5="13000.00000" pt_clust_6="13000.00000" pt_clust_7="13000.00000" pt_clust_8="13000.00000" pt_clust_9="67.78979" pt_clust_10="51.38047"></scales>
<clustering>
<clus scale="   51.380">  2 10  1 -1</clus>
<clus scale="   67.790">  2  9  1 -1</clus>
<clus scale="   89.130">  5  6 -1 -1</clus>
<clus scale="   90.924">  7  8 -1 -1</clus>
<clus scale="  111.956">  2  5  1 -1</clus>
<clus scale="   51.380">  2  5  1 -1</clus>
</clustering>
</event>
<event>
10    2  0.2421970E-006  0.1083816E+03  0.7546771E-02  0.1264514E+00
         21   -1    0    0  501  502  0.00000000000E+00  0.00000000000E+00  0.40727952278E+03  0.40727952278E+03  0.00000000000E+00 0. -1.
          2   -1    0    0  503    0 -0.00000000000E+00 -0.00000000000E+00 -0.39143874542E+03  0.39143874542E+03  0.00000000000E+00 0. -1.
         23    2    1    2    0    0  0.22647739823E+02 -0.59490497681E+02 -0.30824052517E+03  0.32733403765E+03  0.89907237820E+02 0.  0.
         23    2    1    2    0    0  0.10581182755E+02  0.53764407211E+02 -0.30497310455E+02  0.10771417166E+03  0.87576731609E+02 0.  0.
        -11    1    4    4    0    0  0.44982395210E+02  0.78391524500E+01 -0.96905534252E+01  0.46677350135E+02  0.00000000000E+00 0.  1.
         11    1    4    4    0    0 -0.34401212455E+02  0.45925254761E+02 -0.20806757030E+02  0.61036821521E+02  0.00000000000E+00 0. -1.
        -11    1    3    3    0    0  0.28498877341E+02 -0.11554806962E+02 -0.23969122798E+02  0.38989978473E+02  0.00000000000E+00 0.  1.
         11    1    3    3    0    0 -0.58511375181E+01 -0.47935690719E+02 -0.28427140237E+03  0.28834405917E+03  0.00000000000E+00 0. -1.
         21    1    1    2  503  502 -0.73510852764E+01 -0.26726801050E+02  0.58950944901E+02  0.65142722187E+02  0.00000000000E+00 0. -1.
          2    1    1    2  501    0 -0.25877837301E+02  0.32452891520E+02  0.29562766808E+03  0.29852733672E+03  0.00000000000E+00 0. -1.
<scales pt_clust_5="13000.00000" pt_clust_6="13000.00000" pt_clust_7="13000.00000" pt_clust_8="13000.00000" pt_clust_9="27.71931" pt_clust_10="33.56261"></scales>
<clustering>
<clus scale="   27.719">  1  9  2 -1</clus>
<clus scale="   33.563">  1 10  2 -1</clus>
<clus scale="   87.577">  5  6 -1 -1</clus>
<clus scale="   89.907">  7  8 -1 -1</clus>
<clus scale="  106.456">  1  5  2 -1</clus>
<clus scale="   27.719">  1  5  2 -1</clus>
</clustering>
</event>
<event>
10    2  0.2421970E-006  0.2119445E+03  0.7546771E-02  0.1149552E+00
          1   -1    0    0  503    0 -0.00000000000E+00  0.00000000000E+00  0.22931012144E+03  0.22931012144E+03  0.00000000000E+00 0. -1.
         21   -1    0    0  501  502  0.00000000000E+00 -0.00000000000E+00 -0.69696454522E+03  0.69696454522E+03  0.00000000000E+00 0. -1.
         23    2    1    2    0    0 -0.14569068137E+03  0.52473667103E+02  0.75876285355E+02  0.19405243204E+03  0.88993681374E+02 0.  0.
         23    2    1    2    0    0  0.24303309754E+03  0.10247066548E+03 -0.26847914667E+03  0.38694822818E+03  0.89903032794E+02 0.  0.
        -11    1    4    4    0    0  0.89384510855E+02 -0.70158188069E+01 -0.77834969788E+02  0.11873118805E+03  0.00000000000E+00 0.  1.
         11    1    4    4    0    0  0.15364858668E+03  0.10948648429E+03 -0.19064417689E+03  0.26821704012E+03  0.00000000000E+00 0. -1.
        -11    1    3    3    0    0 -0.11389700921E+03  0.69020539415E+02  0.31214381162E+02  0.13678706503E+03  0.00000000000E+00 0. -1.
         11    1    3    3    0    0 -0.31793672158E+02 -0.16546872312E+02  0.44661904193E+02  0.57265367009E+02  0.00000000000E+00 0.  1.
         21    1    1    2  503  502  0.11548224840E+02 -0.24979387565E+02 -0.75024876046E+01  0.28524000777E+02  0.00000000000E+00 0.  1.
          1    1    1    2  501    0 -0.10889064101E+03 -0.12996494502E+03 -0.26754907486E+03  0.31675000567E+03  0.00000000000E+00 0. -1.
<scales pt_clust_5="13000.00000" pt_clust_6="13000.00000" pt_clust_7="13000.00000" pt_clust_8="13000.00000" pt_clust_9="27.51965" pt_clust_10="191.93208"></scales>
<clustering>
<clus scale="   27.520">  1  9  2 -1</clus>
<clus scale="   88.994">  7  8 -1 -1</clus>
<clus scale="   89.903">  5  6 -1 -1</clus>
<clus scale="  168.803">  1  7  2 -1</clus>
<clus scale="  191.932">  2 10  1 -1</clus>
<clus scale="  191.932">  2  5  1 -1</clus>
</clustering>
</event>
<event>
10    2  0.2421970E-006  0.1974013E+03  0.7546771E-02  0.1153263E+00
         21   -1    0    0  501  502  0.00000000000E+00  0.00000000000E+00  0.80792071453E+03  0.80792071453E+03  0.00000000000E+00 0. -1.
          1   -1    0    0  503    0 -0.00000000000E+00 -0.00000000000E+00 -0.10879198863E+03  0.10879198863E+03  0.00000000000E+00 0. -1.
         23    2    1    2    0    0  0.16119032814E+03 -0.66420752221E+02  0.64782696278E+02  0.20810211902E+03  0.93357677740E+02 0.  0.
         23    2    1    2    0    0 -0.10322247091E+03  0.11745847319E+03  0.42025386597E+03  0.46056568201E+03  0.10514782049E+03 0.  0.
        -11    1    4    4    0    0 -0.58464939738E+02  0.12934921640E+03  0.30811230670E+03  0.33923820908E+03  0.00000000000E+00 0. -1.
         11    1    4    4    0    0 -0.44757531169E+02 -0.11890743210E+02  0.11214155927E+03  0.12132747292E+03  0.00000000000E+00 0.  1.
        -11    1    3    3    0    0  0.75183879645E+02  0.48357898875E+01  0.59996556984E+02  0.96309851377E+02  0.00000000000E+00 0.  1.
         11    1    3    3    0    0  0.86006448495E+02 -0.71256542109E+02  0.47861392944E+01  0.11179226765E+03  0.00000000000E+00 0. -1.
         21    1    1    2  503  502 -0.32593196558E+02  0.27201086459E+02  0.84292389092E+02  0.94379141898E+02  0.00000000000E+00 0. -1.
          1    1    1    2  501    0 -0.25374660674E+02 -0.78238807426E+02  0.12979977456E+03  0.15366576023E+03  0.00000000000E+00 0. -1.
<scales pt_clust_5="13000.00000" pt_clust_6="13000.00000" pt_clust_7="13000.00000" pt_clust_8="13000.00000" pt_clust_9="42.45251" pt_clust_10="79.51117"></scales>
<clustering>
<clus scale="   42.453">  1  9  2 -1</clus>
<clus scale="   79.511">  1 10  2 -1</clus>
<clus scale="   93.358">  7  8 -1 -1</clus>
<clus scale="  105.148">  5  6 -1 -1</clus>
<clus scale="  191.382">  2  7  1 -1</clus>
<clus scale="   42.453">  1  5  2 -1</clus>
</clustering>
</event>
<event>
10    2  0.2421970E-006  0.1168950E+03  0.7546771E-02  0.1249074E+00
         21   -1    0    0  501  502  0.00000000000E+00  0.00000000000E+00  0.13496848396E+03  0.13496848396E+03  0.00000000000E+00 0.  1.
         -1   -1    0    0    0  501 -0.00000000000E+00 -0.00000000000E+00 -0.35084214168E+03  0.35084214168E+03  0.00000000000E+00 0.  1.
         23    2    1    2    0    0  0.12891360837E+01 -0.38914356781E+02 -0.10373230228E+03  0.14493057274E+03  0.93426395320E+02 0.  0.
         23    2    1    2    0    0  0.69354172078E+02  0.10137156133E+03 -0.16827865787E+03  0.22742111973E+03  0.91194651028E+02 0.  0.
        -13    1    4    4    0    0  0.31538380267E+02  0.99735883536E+02 -0.15562128729E+03  0.18750973562E+03  0.00000000000E+00 0.  1.
         13    1    4    4    0    0  0.37815791811E+02  0.16356777963E+01 -0.12657370582E+02  0.39911384118E+02  0.00000000000E+00 0. -1.
        -13    1    3    3    0    0  0.17553243235E+02  0.26168055965E+02 -0.18769677489E+02  0.36676754138E+02  0.00000000000E+00 0.  1.
         13    1    3    3    0    0 -0.16264107151E+02 -0.65082412746E+02 -0.84962624790E+02  0.10825381860E+03  0.00000000000E+00 0. -1.
         21    1    1    2  503  502 -0.24188277109E+02 -0.36753430493E+02  0.35358580334E+02  0.56445696078E+02  0.00000000000E+00 0.  1.
         -1    1    1    2    0  503 -0.46455031052E+02 -0.25703774059E+02  0.20778722095E+02  0.57013237084E+02  0.00000000000E+00 0.  1.
<scales pt_clust_5="13000.00000" pt_clust_6="13000.00000" pt_clust_7="13000.00000" pt_clust_8="13000.00000" pt_clust_9="26.22919" pt_clust_10="98.59783"></scales>
<clustering>
<clus scale="   26.229">  9 10 -1 -1</clus>
<clus scale="   91.195">  5  6 -1 -1</clus>
<clus scale="   93.426">  7  8 -1 -1</clus>
<clus scale="   98.598">  1  9  2 -1</clus>
<clus scale="  115.119">  1  5  2 -1</clus>
<clus scale="   98.598">  1  5  2 -1</clus>
</clustering>
</event>
<event>
10    2  0.2421970E-006  0.1125547E+03  0.7546771E-02  0.1258663E+00
         21   -1    0    0  501  502  0.00000000000E+00  0.00000000000E+00  0.95594543745E+02  0.95594543745E+02  0.00000000000E+00 0.  1.
          3   -1    0    0  503    0 -0.00000000000E+00 -0.00000000000E+00 -0.31390223035E+03  0.31390223035E+03  0.00000000000E+00 0. -1.
         23    2    1    2    0    0 -0.10246088724E+02  0.75204062398E+02 -0.14664475483E+03  0.18707932259E+03  0.87939499018E+02 0.  0.
         23    2    1    2    0    0  0.50805440205E+02 -0.16398954008E+02 -0.35954790680E+02  0.11480771259E+03  0.95068109529E+02 0.  0.
        -13    1    4    4    0    0 -0.23469848337E+02  0.15135991087E+02 -0.49438156741E+01  0.28361475994E+02  0.00000000000E+00 0. -1.
         13    1    4    4    0    0  0.74275288542E+02 -0.31534945094E+02 -0.31010975006E+02  0.86446236592E+02  0.00000000000E+00 0.  1.
        -13    1    3    3    0    0 -0.18340806338E+02 -0.15877806061E+02 -0.24273124043E+02  0.34317261739E+02  0.00000000000E+00 0.  1.
         13    1    3    3    0    0  0.80947176137E+01  0.91081868459E+02 -0.12237163078E+03  0.15276206085E+03  0.00000000000E+00 0. -1.
         21    1    1    2  503  502  0.10997843443E+02 -0.29801619395E+02  0.95014607657E+01  0.33156701218E+02  0.00000000000E+00 0.  1.
          3    1    1    2  501    0 -0.51557194923E+02 -0.29003488995E+02 -0.45209601868E+02  0.74453037704E+02  0.00000000000E+00 0. -1.
<scales pt_clust_5="13000.00000" pt_clust_6="13000.00000" pt_clust_7="13000.00000" pt_clust_8="13000.00000" pt_clust_9="31.76616" pt_clust_10="60.46112"></scales>
<clustering>
<clus scale="   31.766">  1  9  2 -1</clus>
<clus scale="   60.461">  1 10  2 -1</clus>
<clus scale="   87.939">  7  8 -1 -1</clus>
<clus scale="   95.068">  5  6 -1 -1</clus>
<clus scale="  106.602">  2  7  1 -1</clus>
<clus scale="   31.766">  1  5  2 -1</clus>
</clustering>
</event>
<event>
10    2  0.2421970E-006  0.1954045E+03  0.7546771E-02  0.1153872E+00
         21   -1    0    0  501  502  0.00000000000E+00  0.00000000000E+00  0.11478418432E+03  0.11478418432E+03  0.00000000000E+00 0. -1.
          1   -1    0    0  503    0 -0.00000000000E+00 -0.00000000000E+00 -0.76826796971E+03  0.76826796971E+03  0.00000000000E+00 0. -1.
         23    2    1    2    0    0 -0.87757851146E+01  0.17168086113E+03 -0.47815260973E+03  0.51634939274E+03  0.91844677067E+02 0.  0.
         23    2    1    2    0    0 -0.75825316016E+02 -0.17396684847E+03 -0.96990328723E+02  0.23130896883E+03  0.89904239509E+02 0.  0.
        -11    1    4    4    0    0 -0.91850457345E+02 -0.11392953691E+03 -0.55121192127E+02  0.15638027918E+03  0.00000000000E+00 0. -1.
         11    1    4    4    0    0  0.16025141328E+02 -0.60037311559E+02 -0.41869136596E+02  0.74928689653E+02  0.00000000000E+00 0.  1.
        -13    1    3    3    0    0 -0.31327987129E+02  0.44765518711E+02 -0.23358944796E+03  0.23989461153E+03  0.00000000000E+00 0.  1.
         13    1    3    3    0    0  0.22552202015E+02  0.12691534242E+03 -0.24456316177E+03  0.27645478121E+03  0.00000000000E+00 0. -1.
         21    1    1    2  503  502  0.87007893711E+01  0.25972888500E+02 -0.63133722991E+01  0.28109666353E+02  0.00000000000E+00 0.  1.
          1    1    1    2  501    0  0.75900311760E+02 -0.23686901165E+02 -0.72027474640E+02  0.10728412611E+03  0.00000000000E+00 0. -1.
<scales pt_clust_5="13000.00000" pt_clust_6="13000.00000" pt_clust_7="13000.00000" pt_clust_8="13000.00000" pt_clust_9="27.39151" pt_clust_10="79.74248"></scales>
<clustering>
<clus scale="   27.392">  1  9  2 -1</clus>
<clus scale="   79.742">  1 10  2 -1</clus>
<clus scale="   89.904">  5  6 -1 -1</clus>
<clus scale="   91.845">  7  8 -1 -1</clus>
<clus scale="  194.500">  1  5  2 -1</clus>
<clus scale="   27.392">  1  5  2 -1</clus>
</clustering>
</event>
<event>
10    2  0.2421970E-006  0.9905645E+02  0.7546771E-02  0.1287412E+00
         21   -1    0    0  501  502  0.00000000000E+00  0.00000000000E+00  0.31285826263E+03  0.31285826263E+03  0.00000000000E+00 0.  1.
          3   -1    0    0  503    0 -0.00000000000E+00 -0.00000000000E+00 -0.82080819887E+02  0.82080819887E+02  0.00000000000E+00 0. -1.
         23    2    1    2    0    0  0.44424003443E+02 -0.57108728131E+01  0.25206639600E+02  0.11019778428E+03  0.97478566006E+02 0.  0.
         23    2    1    2    0    0  0.25967045904E+02 -0.26561334165E+02  0.77206666918E+02  0.12295434683E+03  0.88187924581E+02 0.  0.
        -11    1    3    3    0    0  0.18769762113E+02  0.24847797482E+02  0.53070393487E+02  0.61531972781E+02  0.00000000000E+00 0.  1.
         11    1    3    3    0    0  0.25654241330E+02 -0.30558670295E+02 -0.27863753886E+02  0.48665811501E+02  0.00000000000E+00 0. -1.
        -13    1    4    4    0    0  0.35637712622E+02  0.23013095148E+02  0.20827588142E+02  0.47259258744E+02  0.00000000000E+00 0.  1.
         13    1    4    4    0    0 -0.96706667185E+01 -0.49574429313E+02  0.56379078776E+02  0.75695088085E+02  0.00000000000E+00 0. -1.
         21    1    1    2  503  502 -0.19336333600E+02  0.40954173185E+02  0.46446908379E+02  0.64872593569E+02  0.00000000000E+00 0.  1.
          3    1    1    2  501    0 -0.51054715746E+02 -0.86819662073E+01  0.81917227849E+02  0.96914357841E+02  0.00000000000E+00 0. -1.
<scales pt_clust_5="13000.00000" pt_clust_6="13000.00000" pt_clust_7="13000.00000" pt_clust_8="13000.00000" pt_clust_9="45.28949" pt_clust_10="58.04356"></scales>
<clustering>
<clus scale="   45.289">  1  9  2 -1</clus>
<clus scale="   58.044">  1 10  2 -1</clus>
<clus scale="   88.188">  7  8 -1 -1</clus>
<clus scale="   89.929">  1  7  2 -1</clus>
<clus scale="   97.479">  5  6 -1 -1</clus>
<clus scale="   45.289">  1  5  2 -1</clus>
</clustering>
</event>
<event>
10    2  0.2421970E-006  0.1214241E+03  0.7546771E-02  0.1240790E+00
         21   -1    0    0  503  502  0.00000000000E+00  0.00000000000E+00  0.45183920505E+03  0.45183920505E+03  0.00000000000E+00 0. -1.
          1   -1    0    0  502    0 -0.00000000000E+00 -0.00000000000E+00 -0.56273536254E+03  0.56273536254E+03  0.00000000000E+00 0. -1.
         23    2    1    2    0    0 -0.28017637702E+02 -0.65719580664E+02 -0.37150246359E+03  0.38897342653E+03  0.90455485106E+02 0.  0.
         23    2    1    2    0    0  0.98080483556E+02  0.82712438986E+02 -0.14411220003E+03  0.21306584168E+03  0.90374763473E+02 0.  0.
        -11    1    4    4    0    0  0.67347821986E+02 -0.62035159697E+00 -0.72657972710E+02  0.99072170465E+02  0.00000000000E+00 0. -1.
         11    1    4    4    0    0  0.30732661570E+02  0.83332790583E+02 -0.71454227324E+02  0.11399367121E+03  0.00000000000E+00 0.  1.
        -11    1    3    3    0    0  0.85560969409E+01 -0.52509264446E+02 -0.32024797531E+03  0.32463702090E+03  0.00000000000E+00 0. -1.
         11    1    3    3    0    0 -0.36573734643E+02 -0.13210316218E+02 -0.51254488277E+02  0.64336405626E+02  0.00000000000E+00 0.  1.
         21    1    1    2  503  501 -0.44955345609E+02  0.66114590978E+01  0.23546458480E+03  0.23980880965E+03  0.00000000000E+00 0. -1.
          1    1    1    2  501    0 -0.25107500245E+02 -0.23604317420E+02  0.16925392134E+03  0.17272648974E+03  0.00000000000E+00 0. -1.
<scales pt_clust_5="13000.00000" pt_clust_6="13000.00000" pt_clust_7="13000.00000" pt_clust_8="13000.00000" pt_clust_9="30.05096" pt_clust_10="79.92687"></scales>
<clustering>
<clus scale="   30.051">  9 10 -1 -1</clus>
<clus scale="   79.927">  1  9  2 -1</clus>
<clus scale="   90.375">  5  6 -1 -1</clus>
<clus scale="   90.455">  7  8 -1 -1</clus>
<clus scale="  121.364">  1  5  2 -1</clus>
<clus scale="   79.927">  1  5  2 -1</clus>
</clustering>
</event>
<event>
10    2  0.2421970E-006  0.1224411E+03  0.7546771E-02  0.1241160E+00
          1   -1    0    0  503    0 -0.00000000000E+00  0.00000000000E+00  0.10217287845E+04  0.10217287845E+04  0.00000000000E+00 0. -1.
         21   -1    0    0  501  502  0.00000000000E+00 -0.00000000000E+00 -0.40255656273E+02  0.40255656273E+02  0.00000000000E+00 0.  1.
         23    2    1    2    0    0  0.85955237351E+02  0.62879443287E+02  0.50856973328E+03  0.52695144365E+03  0.87707030204E+02 0.  0.
         23    2    1    2    0    0 -0.21658207008E+02 -0.41413566506E+02  0.93411899705E+02  0.14068625420E+03  0.94247958558E+02 0.  0.
        -11    1    4    4    0    0 -0.20388241376E+02  0.17660567386E+02 -0.34816350601E+01  0.27197386079E+02  0.00000000000E+00 0. -1.
         11    1    4    4    0    0 -0.12699656321E+01 -0.59074133892E+02  0.96893534765E+02  0.11348886812E+03  0.00000000000E+00 0.  1.
        -11    1    3    3    0    0 -0.60796717368E+00  0.41926165317E+02  0.24952989485E+03  0.25302834107E+03  0.00000000000E+00 0. -1.
         11    1    3    3    0    0  0.86563204525E+02  0.20953277970E+02  0.25903983843E+03  0.27392310259E+03  0.00000000000E+00 0.  1.
         21    1    1    2  503  502 -0.57211500631E+02  0.21441177071E+02  0.17731452004E+03  0.18754551153E+03  0.00000000000E+00 0. -1.
          1    1    1    2  501    0 -0.70855297117E+01 -0.42907053853E+02  0.20217697524E+03  0.20680123143E+03  0.00000000000E+00 0. -1.
<scales pt_clust_5="13000.00000" pt_clust_6="13000.00000" pt_clust_7="13000.00000" pt_clust_8="13000.00000" pt_clust_9="60.23702" pt_clust_10="43.48818"></scales>
<clustering>
<clus scale="   43.488">  2 10  1 -1</clus>
<clus scale="   60.237">  1  9  2 -1</clus>
<clus scale="   87.707">  7  8 -1 -1</clus>
<clus scale="   94.248">  5  6 -1 -1</clus>
<clus scale="  117.480">  1  7  2 -1</clus>
<clus scale="   43.488">  2  5  1 -1</clus>
</clustering>
</event>
<event>
10    2  0.2421970E-006  0.1228229E+03  0.7546771E-02  0.1238514E+00
         21   -1    0    0  501  502  0.00000000000E+00  0.00000000000E+00  0.55913107685E+03  0.55913107685E+03  0.00000000000E+00 0. -1.
          1   -1    0    0  503    0 -0.00000000000E+00 -0.00000000000E+00 -0.14473534030E+03  0.14473534030E+03  0.00000000000E+00 0. -1.
         23    2    1    2    0    0 -0.46775633175E+02 -0.85471005693E+02 -0.45023046767E+02  0.14111262859E+03  0.91610297094E+02 0.  0.
         23    2    1    2    0    0 -0.54086051552E+02  0.70857964469E+02  0.56321356562E+02  0.13968612565E+03  0.91618591966E+02 0.  0.
        -11    1    3    3    0    0  0.16749700779E+01 -0.38720261212E+02  0.23274682511E+02  0.45208129790E+02  0.00000000000E+00 0.  1.
         11    1    3    3    0    0 -0.48450603253E+02 -0.46750744480E+02 -0.68297729278E+02  0.95904498797E+02  0.00000000000E+00 0. -1.
        -11    1    4    4    0    0 -0.32820489073E+01  0.74441921658E+02  0.46454688643E+02  0.87808938281E+02  0.00000000000E+00 0.  1.
         11    1    4    4    0    0 -0.50804002644E+02 -0.35839571882E+01  0.98666679182E+01  0.51877187372E+02  0.00000000000E+00 0. -1.
         21    1    1    2  503  502  0.47048498754E+02  0.29508087744E+02  0.95757664478E+02  0.11069696827E+03  0.00000000000E+00 0. -1.
          1    1    1    2  501    0  0.53813185973E+02 -0.14895046521E+02  0.30733976227E+03  0.31237069464E+03  0.00000000000E+00 0. -1.
<scales pt_clust_5="13000.00000" pt_clust_6="13000.00000" pt_clust_7="13000.00000" pt_clust_8="13000.00000" pt_clust_9="55.53637" pt_clust_10="85.94477"></scales>
<clustering>
<clus scale="   55.536">  1  9  2 -1</clus>
<clus scale="   85.945">  1 10  2 -1</clus>
<clus scale="   91.610">  5  6 -1 -1</clus>
<clus scale="   91.619">  7  8 -1 -1</clus>
<clus scale="  122.817">  2  5  1 -1</clus>
<clus scale="   55.536">  1  5  2 -1</clus>
</clustering>
</event>
<event>
10    2  0.2421970E-006  0.2022059E+03  0.7546771E-02  0.1148443E+00
          3   -1    0    0  503    0 -0.00000000000E+00  0.00000000000E+00  0.66288824145E+03  0.66288824145E+03  0.00000000000E+00 0. -1.
         21   -1    0    0  501  502  0.00000000000E+00 -0.00000000000E+00 -0.15935467948E+03  0.15935467948E+03  0.00000000000E+00 0. -1.
         23    2    1    2    0    0 -0.17894770129E+03  0.10326844104E+02  0.37995226054E+03  0.42994238364E+03  0.91421055886E+02 0.  0.
         23    2    1    2    0    0  0.17452429409E+03  0.33840673307E+02  0.20391991958E+03  0.28740867341E+03  0.97038608565E+02 0.  0.
        -13    1    3    3    0    0 -0.12439440829E+03 -0.27981164892E+02  0.19164086912E+03  0.23018066191E+03  0.00000000000E+00 0.  1.
         13    1    3    3    0    0 -0.54553293002E+02  0.38308008996E+02  0.18831139142E+03  0.19976172173E+03  0.00000000000E+00 0. -1.
        -13    1    4    4    0    0  0.13679811539E+03 -0.13983930350E+02  0.16640334019E+03  0.21586881736E+03  0.00000000000E+00 0.  1.
         13    1    4    4    0    0  0.37726178704E+02  0.47824603657E+02  0.37516579381E+02  0.71539856045E+02  0.00000000000E+00 0. -1.
         21    1    1    2  503  502 -0.19580821464E+02 -0.13049901738E+02 -0.12893415949E+02  0.26831859410E+02  0.00000000000E+00 0. -1.
          3    1    1    2  501    0  0.24004228663E+02 -0.31117615673E+02 -0.67445202197E+02  0.78060004473E+02  0.00000000000E+00 0. -1.
<scales pt_clust_5="13000.00000" pt_clust_6="13000.00000" pt_clust_7="13000.00000" pt_clust_8="13000.00000" pt_clust_9="23.53101" pt_clust_10="40.35382"></scales>
<clustering>
<clus scale="   23.531">  2  9  1 -1</clus>
<clus scale="   40.354">  2 10  1 -1</clus>
<clus scale="   91.421">  5  6 -1 -1</clus>
<clus scale="   97.039">  7  8 -1 -1</clus>
<clus scale="  199.571">  1  5  2 -1</clus>
<clus scale="   23.531">  2  5  1 -1</clus>
</clustering>
</event>
<event>
10    2  0.2421970E-006  0.9896579E+02  0.7546771E-02  0.1282819E+00
         21   -1    0    0  501  502  0.00000000000E+00  0.00000000000E+00  0.12703433346E+03  0.12703433346E+03  0.00000000000E+00 0. -1.
          2   -1    0    0  503    0 -0.00000000000E+00 -0.00000000000E+00 -0.31333606258E+03  0.31333606258E+03  0.00000000000E+00 0. -1.
         23    2    1    2    0    0 -0.29191705292E+02 -0.77661112834E-01 -0.18225230776E+03  0.20638852249E+03  0.92348020236E+02 0.  0.
         23    2    1    2    0    0  0.49405699217E+02  0.83045887677E+02 -0.16451305993E+02  0.13421487102E+03  0.91681206135E+02 0.  0.
        -13    1    3    3    0    0 -0.46382318662E+02 -0.13141238241E+02 -0.17796120596E+03  0.18437516768E+03  0.00000000000E+00 0. -1.
         13    1    3    3    0    0  0.17190613370E+02  0.13063577128E+02 -0.42911017938E+01  0.22013354810E+02  0.00000000000E+00 0.  1.
        -13    1    4    4    0    0  0.18682005477E+02  0.71328774246E+02 -0.48533967680E+02  0.88274330260E+02  0.00000000000E+00 0. -1.
         13    1    4    4    0    0  0.30723693740E+02  0.11717113431E+02  0.32082661688E+02  0.45940540758E+02  0.00000000000E+00 0.  1.
         21    1    1    2  503  502 -0.28699014675E+02 -0.19018572997E+02  0.27437234796E+01  0.34537915118E+02  0.00000000000E+00 0. -1.
          2    1    1    2  501    0  0.84850207506E+01 -0.63949653567E+02  0.96581611569E+01  0.65229087418E+02  0.00000000000E+00 0. -1.
<scales pt_clust_5="13000.00000" pt_clust_6="13000.00000" pt_clust_7="13000.00000" pt_clust_8="13000.00000" pt_clust_9="34.42876" pt_clust_10="70.53393"></scales>
<clustering>
<clus scale="   34.429">  1  9  2 -1</clus>
<clus scale="   70.534">  1 10  2 -1</clus>
<clus scale="   91.681">  7  8 -1 -1</clus>
<clus scale="   92.348">  5  6 -1 -1</clus>
<clus scale="   98.344">  1  7  2 -1</clus>
<clus scale="   34.429">  1  5  2 -1</clus>
</clustering>
</event>
<event>
10    2  0.2421970E-006  0.1307088E+03  0.7546771E-02  0.1235489E+00
         21   -1    0    0  503  502  0.00000000000E+00  0.00000000000E+00  0.66227263641E+02  0.66227263641E+02  0.00000000000E+00 0.  1.
          1   -1    0    0  502    0 -0.00000000000E+00 -0.00000000000E+00 -0.48305519496E+03  0.48305519496E+03  0.00000000000E+00 0. -1.
         23    2    1    2    0    0  0.49610170247E+02 -0.21352110031E+02 -0.30635770022E+03  0.32410728891E+03  0.90958301657E+02 0.  0.
         23    2    1    2    0    0 -0.62411119128E+02  0.58057816790E+02 -0.88092254701E+02  0.16922098943E+03  0.11666036192E+03 0.  0.
        -11    1    3    3    0    0 -0.67228744922E+01 -0.38897299121E+02 -0.18502954332E+03  0.18919336358E+03  0.00000000000E+00 0.  1.
         11    1    3    3    0    0  0.56333044739E+02  0.17545189091E+02 -0.12132815690E+03  0.13491392533E+03  0.00000000000E+00 0. -1.
        -11    1    4    4    0    0 -0.66965754403E+01  0.44338941409E+02  0.18228607017E+02  0.48405247254E+02  0.00000000000E+00 0.  1.
         11    1    4    4    0    0 -0.55714543688E+02  0.13718875380E+02 -0.10632086172E+03  0.12081574217E+03  0.00000000000E+00 0. -1.
         21    1    1    2  503  501  0.19700432893E+02 -0.97144503378E+01 -0.33556264055E+01  0.22220212198E+02  0.00000000000E+00 0. -1.
          1    1    1    2  501    0 -0.68994840112E+01 -0.26991256421E+02 -0.19022349987E+02  0.33733968072E+02  0.00000000000E+00 0. -1.
<scales pt_clust_5="13000.00000" pt_clust_6="13000.00000" pt_clust_7="13000.00000" pt_clust_8="13000.00000" pt_clust_9="21.96537" pt_clust_10="28.58207"></scales>
<clustering>
<clus scale="   21.965">  1  9  2 -1</clus>
<clus scale="   28.582">  1 10  2 -1</clus>
<clus scale="   90.958">  5  6 -1 -1</clus>
<clus scale="  108.391">  2  5  1 -1</clus>
<clus scale="  116.660">  7  8 -1 -1</clus>
<clus scale="   21.965">  1  5  2 -1</clus>
</clustering>
</event>
<event>
10    2  0.2421970E-006  0.1180192E+03  0.7546771E-02  0.1246411E+00
         21   -1    0    0  503  502  0.00000000000E+00  0.00000000000E+00  0.26817102209E+03  0.26817102209E+03  0.00000000000E+00 0. -1.
         -4   -1    0    0    0  501 -0.00000000000E+00 -0.00000000000E+00 -0.45768194047E+03  0.45768194047E+03  0.00000000000E+00 0.  1.
         23    2    1    2    0    0  0.26497184303E+02  0.60757981915E+02 -0.29320575591E+03  0.31374219163E+03  0.89838267835E+02 0.  0.
         23    2    1    2    0    0 -0.79944271757E+02 -0.88415382938E+02 -0.10528915695E+03  0.18267724112E+03  0.89871026050E+02 0.  0.
        -11    1    3    3    0    0  0.53510168638E+01 -0.20345401402E+02 -0.24626455601E+02  0.32388748898E+02  0.00000000000E+00 0. -1.
         11    1    3    3    0    0  0.21146167439E+02  0.81103383317E+02 -0.26857930031E+03  0.28135344273E+03  0.00000000000E+00 0.  1.
        -11    1    4    4    0    0  0.17730181018E+02 -0.16178933200E+02 -0.34641318412E+02  0.42144253935E+02  0.00000000000E+00 0.  1.
         11    1    4    4    0    0 -0.97674452775E+02 -0.72236449738E+02 -0.70647838542E+02  0.14053298718E+03  0.00000000000E+00 0. -1.
         21    1    1    2  503  501  0.53660664469E+02  0.44429027759E+01  0.19507650665E+03  0.20237106943E+03  0.00000000000E+00 0. -1.
         -4    1    1    2    0  502 -0.21357701453E+00  0.23214498247E+02  0.13907487834E+02  0.27062460380E+02  0.00000000000E+00 0.  1.
<scales pt_clust_5="13000.00000" pt_clust_6="13000.00000" pt_clust_7="13000.00000" pt_clust_8="13000.00000" pt_clust_9="58.25167" pt_clust_10="23.21548"></scales>
<clustering>
<clus scale="   23.215">  1 10  2 -1</clus>
<clus scale="   58.252">  1  9  2 -1</clus>
<clus scale="   89.838">  5  6 -1 -1</clus>
<clus scale="   89.871">  7  8 -1 -1</clus>
<clus scale="  117.994">  2  5  1 -1</clus>
<clus scale="   23.215">  1  5  2 -1</clus>
</clustering>
</event>
<event>
10    2  0.2421970E-006  0.1273843E+03  0.7546771E-02  0.1232428E+00
          3   -1    0    0  502    0 -0.00000000000E+00  0.00000000000E+00  0.22806264189E+03  0.22806264189E+03  0.00000000000E+00 0. -1.
         21   -1    0    0  503  502  0.00000000000E+00 -0.00000000000E+00 -0.11187844705E+03  0.11187844705E+03  0.00000000000E+00 0.  1.
         23    2    1    2    0    0  0.11974325103E+02 -0.10418995090E+03  0.10357858479E+03  0.17608902756E+03  0.96332196436E+02 0.  0.
         23    2    1    2    0    0 -0.11423021034E+02  0.53753716688E+02  0.12260872061E+02  0.10849508520E+03  0.92741075372E+02 0.  0.
        -13    1    4    4    0    0 -0.42003236824E+02  0.13442688213E+02 -0.20065867196E+02  0.48452211471E+02  0.00000000000E+00 0.  1.
         13    1    4    4    0    0  0.30580215790E+02  0.40311028474E+02  0.32326739257E+02  0.60042873727E+02  0.00000000000E+00 0. -1.
        -13    1    3    3    0    0 -0.21127647551E+02  0.54843281723E+01  0.38703250949E+02  0.44434187070E+02  0.00000000000E+00 0.  1.
         13    1    3    3    0    0  0.33101972655E+02 -0.10967427907E+03  0.64875333837E+02  0.13165484049E+03  0.00000000000E+00 0. -1.
         21    1    1    2  503  501  0.11968421794E+01  0.24400237083E+02 -0.11136554799E+02  0.26848218818E+02  0.00000000000E+00 0. -1.
          3    1    1    2  501    0 -0.17481462489E+01  0.26035997130E+02  0.11481292797E+02  0.28508757359E+02  0.00000000000E+00 0. -1.
<scales pt_clust_5="13000.00000" pt_clust_6="13000.00000" pt_clust_7="13000.00000" pt_clust_8="13000.00000" pt_clust_9="22.06735" pt_clust_10="55.35590"></scales>
<clustering>
<clus scale="   22.067">  9 10 -1 -1</clus>
<clus scale="   55.356">  2  9  1 -1</clus>
<clus scale="   92.741">  5  6 -1 -1</clus>
<clus scale="   96.332">  7  8 -1 -1</clus>
<clus scale="  124.691">  2  5  1 -1</clus>
<clus scale="   55.356">  2  5  1 -1</clus>
</clustering>
</event>
<event>
10    2  0.2421970E-006  0.1677200E+03  0.7546771E-02  0.1180471E+00
         -2   -1    0    0    0  501 -0.00000000000E+00  0.00000000000E+00  0.23060880582E+03  0.23060880582E+03  0.00000000000E+00 0.  1.
         21   -1    0    0  503  502  0.00000000000E+00 -0.00000000000E+00 -0.25482190272E+03  0.25482190272E+03  0.00000000000E+00 0. -1.
         23    2    1    2    0    0  0.44993579451E+02  0.14651233042E+03  0.96604531089E+02  0.20223418781E+03  0.89866268075E+02 0.  0.
         23    2    1    2    0    0 -0.86216509694E+02 -0.80223139869E+02 -0.10994339042E+03  0.18524184427E+03  0.91421841257E+02 0.  0.
        -11    1    3    3    0    0  0.34919441071E+02  0.22500794314E+02 -0.46758574724E+01  0.41803310306E+02  0.00000000000E+00 0. -1.
         11    1    3    3    0    0  0.10074138381E+02  0.12401153610E+03  0.10128038856E+03  0.16043087751E+03  0.00000000000E+00 0.  1.
        -13    1    4    4    0    0  0.52255232105E+01 -0.47820724620E+02 -0.57471817938E+02  0.74947566025E+02  0.00000000000E+00 0.  1.
         13    1    4    4    0    0 -0.91442032905E+02 -0.32402415249E+02 -0.52471572481E+02  0.11029427825E+03  0.00000000000E+00 0. -1.
         21    1    1    2  503  501  0.10505665060E+02 -0.51403145825E+02 -0.28319498534E+02  0.59620855380E+02  0.00000000000E+00 0. -1.
         -2    1    1    2    0  502  0.30717265182E+02 -0.14886044721E+02  0.17445260962E+02  0.38333821069E+02  0.00000000000E+00 0.  1.
<scales pt_clust_5="13000.00000" pt_clust_6="13000.00000" pt_clust_7="13000.00000" pt_clust_8="13000.00000" pt_clust_9="56.40794" pt_clust_10="34.13423"></scales>
<clustering>
<clus scale="   34.134">  2 10  1 -1</clus>
<clus scale="   56.408">  2  9  1 -1</clus>
<clus scale="   89.866">  5  6 -1 -1</clus>
<clus scale="   91.422">  7  8 -1 -1</clus>
<clus scale="  166.877">  1  5  2 -1</clus>
<clus scale="   34.134">  2  5  1 -1</clus>
</clustering>
</event>
<event>
10    2  0.2421970E-006  0.1296306E+03  0.7546771E-02  0.1233310E+00
          1   -1    0    0  503    0 -0.00000000000E+00  0.00000000000E+00  0.92424305117E+03  0.92424305117E+03  0.00000000000E+00 0. -1.
         21   -1    0    0  501  502  0.00000000000E+00 -0.00000000000E+00 -0.91090154973E+02  0.91090154973E+02  0.00000000000E+00 0. -1.
         23    2    1    2    0    0 -0.47431628267E+02  0.90396721224E+01  0.44610255892E+03  0.46150980176E+03  0.10794595412E+03 0.  0.
         23    2    1    2    0    0  0.95150213929E+02 -0.77535022335E+02  0.38592893654E+03  0.41515719487E+03  0.91373461684E+02 0.  0.
        -11    1    4    4    0    0 -0.15269271249E+02 -0.21932653279E+02  0.43041924659E+02  0.50663588529E+02  0.00000000000E+00 0.  1.
         11    1    4    4    0    0  0.11041948518E+03 -0.55602369057E+02  0.34288701188E+03  0.36449360634E+03  0.00000000000E+00 0. -1.
        -13    1    3    3    0    0 -0.14194416691E+02 -0.49179639881E+02  0.18825004384E+03  0.19508510310E+03  0.00000000000E+00 0. -1.
         13    1    3    3    0    0 -0.33237211576E+02  0.58219312003E+02  0.25785251508E+03  0.26642469866E+03  0.00000000000E+00 0.  1.
         21    1    1    2  503  502  0.30070690358E+01  0.44310048253E+02  0.48065245123E+02  0.65442269437E+02  0.00000000000E+00 0. -1.
          1    1    1    2  501    0 -0.50725654698E+02  0.24185301960E+02 -0.46943844380E+02  0.73223940078E+02  0.00000000000E+00 0. -1.
<scales pt_clust_5="13000.00000" pt_clust_6="13000.00000" pt_clust_7="13000.00000" pt_clust_8="13000.00000" pt_clust_9="44.41197" pt_clust_10="74.47864"></scales>
<clustering>
<clus scale="   44.412">  2  9  1 -1</clus>
<clus scale="   74.479">  2 10  1 -1</clus>
<clus scale="   91.373">  5  6 -1 -1</clus>
<clus scale="  107.946">  7  8 -1 -1</clus>
<clus scale="  116.193">  2  5  1 -1</clus>
<clus scale="   44.412">  2  5  1 -1</clus>
</clustering>
</event>
<event>
10    2  0.2421970E-006  0.1775042E+03  0.7546771E-02  0.1170440E+00
          1   -1    0    0  502    0 -0.00000000000E+00  0.00000000000E+00  0.12192867933E+04  0.12192867933E+04  0.00000000000E+00 0. -1.
         21   -1    0    0  503  502  0.00000000000E+00 -0.00000000000E+00 -0.72611073906E+02  0.72611073906E+02  0.00000000000E+00 0. -1.
         23    2    1    2    0    0 -0.59286452210E+01 -0.10068557098E+03  0.30205093239E+03  0.33144827918E+03  0.91926399783E+02 0.  0.
         23    2    1    2    0    0 -0.37770403997E+02  0.20508020894E+03  0.80426411370E+03  0.83575687659E+03  0.90356497665E+02 0.  0.
        -11    1    4    4    0    0 -0.41646850646E+02  0.97193093718E+02  0.25623073576E+03  0.27719153591E+03  0.00000000000E+00 0.  1.
         11    1    4    4    0    0  0.38764466490E+01  0.10788711522E+03  0.54803337794E+03  0.55856534068E+03  0.00000000000E+00 0. -1.
        -11    1    3    3    0    0 -0.36415407632E+02 -0.21062458656E+02  0.49865571325E+02  0.65240204484E+02  0.00000000000E+00 0.  1.
         11    1    3    3    0    0  0.30486762411E+02 -0.79623112321E+02  0.25218536106E+03  0.26620807470E+03  0.00000000000E+00 0. -1.
         21    1    1    2  503  501  0.24081295401E+02 -0.43960659518E+02  0.34573182450E+02  0.60891323833E+02  0.00000000000E+00 0. -1.
          1    1    1    2  501    0  0.19617753817E+02 -0.60433978441E+02  0.57874909044E+01  0.63801387650E+02  0.00000000000E+00 0. -1.
<scales pt_clust_5="13000.00000" pt_clust_6="13000.00000" pt_clust_7="13000.00000" pt_clust_8="13000.00000" pt_clust_9="29.61076" pt_clust_10="117.98003"></scales>
<clustering>
<clus scale="   29.611">  9 10 -1 -1</clus>
<clus scale="   90.356">  5  6 -1 -1</clus>
<clus scale="   91.926">  7  8 -1 -1</clus>
<clus scale="  117.980">  2  9  1 -1</clus>
<clus scale="  176.696">  2  5  1 -1</clus>
<clus scale="  117.980">  2  5  1 -1</clus>
</clustering>
</event>
<event>
10    2  0.2421970E-006  0.1814937E+03  0.7546771E-02  0.1166905E+00
          1   -1    0    0  502    0 -0.00000000000E+00  0.00000000000E+00  0.18848507918E+03  0.18848507918E+03  0.00000000000E+00 0. -1.
         21   -1    0    0  503  502  0.00000000000E+00 -0.00000000000E+00 -0.38581357180E+03  0.38581357180E+03  0.00000000000E+00 0. -1.
         23    2    1    2    0    0 -0.21922414219E+02 -0.14918191124E+03 -0.44280791845E+02  0.18349789858E+03  0.94735713281E+02 0.  0.
         23    2    1    2    0    0  0.14690590539E+03  0.12214982850E+03 -0.14241828429E+03  0.25485728469E+03  0.90373349050E+02 0.  0.
        -11    1    3    3    0    0 -0.54418584391E+02 -0.12601346863E+03 -0.26453352171E+02  0.13978754038E+03  0.00000000000E+00 0. -1.
         11    1    3    3    0    0  0.32496170173E+02 -0.23168442604E+02 -0.17827439674E+02  0.43710358200E+02  0.00000000000E+00 0.  1.
        -13    1    4    4    0    0  0.44127810507E+02  0.59861382622E+01 -0.71673019324E+02  0.84380798826E+02  0.00000000000E+00 0.  1.
         13    1    4    4    0    0  0.10277809488E+03  0.11616369024E+03 -0.70745264963E+02  0.17047648586E+03  0.00000000000E+00 0. -1.
         21    1    1    2  503  501 -0.37128710033E+02  0.24975660242E+02 -0.16920780808E+02  0.47839706692E+02  0.00000000000E+00 0. -1.
          1    1    1    2  501    0 -0.87854781134E+02  0.20564224966E+01  0.62913643254E+01  0.88103761024E+02  0.00000000000E+00 0. -1.
<scales pt_clust_5="13000.00000" pt_clust_6="13000.00000" pt_clust_7="13000.00000" pt_clust_8="13000.00000" pt_clust_9="32.03985" pt_clust_10="135.52734"></scales>
<clustering>
<clus scale="   32.040">  9 10 -1 -1</clus>
<clus scale="   90.373">  7  8 -1 -1</clus>
<clus scale="   94.736">  5  6 -1 -1</clus>
<clus scale="  135.527">  2  9  1 -1</clus>
<clus scale="  179.255">  2  7  1 -1</clus>
<clus scale="  135.527">  2  5  1 -1</clus>
</clustering>
</event>
<event>
10    2  0.2421970E-006  0.1193595E+03  0.7546771E-02  0.1245879E+00
         -1   -1    0    0    0  501 -0.00000000000E+00  0.00000000000E+00  0.21306349992E+03  0.21306349992E+03  0.00000000000E+00 0.  1.
         21   -1    0    0  501  502  0.00000000000E+00 -0.00000000000E+00 -0.19223616090E+03  0.19223616090E+03  0.00000000000E+00 0.  1.
         23    2    1    2    0    0  0.30123015448E+01 -0.92181050970E+02  0.49530692566E+02  0.13936676849E+03  0.91996665890E+02 0.  0.
         23    2    1    2    0    0  0.89855436392E+02  0.24306376798E+02  0.25321273551E+02  0.13301131131E+03  0.91575338599E+02 0.  0.
        -11    1    4    4    0    0  0.99950229946E+02  0.43247936138E+02  0.18327593260E+02  0.11043700974E+03  0.00000000000E+00 0.  1.
         11    1    4    4    0    0 -0.10094793554E+02 -0.18941559340E+02  0.69936802910E+01  0.22574301565E+02  0.00000000000E+00 0. -1.
        -13    1    3    3    0    0  0.31204680037E+02 -0.96145412945E+02  0.44551161311E+02  0.11046482907E+03  0.00000000000E+00 0.  1.
         13    1    3    3    0    0 -0.28192378492E+02  0.39643619752E+01  0.49795312550E+01  0.28901939423E+02  0.00000000000E+00 0. -1.
         21    1    1    2  503  502 -0.20767616614E+02  0.29961834814E+02 -0.32071083545E+02  0.48554709813E+02  0.00000000000E+00 0.  1.
         -1    1    1    2    0  503 -0.72100121324E+02  0.37912839358E+02 -0.21953543558E+02  0.84366871210E+02  0.00000000000E+00 0.  1.
<scales pt_clust_5="13000.00000" pt_clust_6="13000.00000" pt_clust_7="13000.00000" pt_clust_8="13000.00000" pt_clust_9="26.06502" pt_clust_10="121.44746"></scales>
<clustering>
<clus scale="   26.065">  9 10 -1 -1</clus>
<clus scale="   91.575">  5  6 -1 -1</clus>
<clus scale="   91.997">  7  8 -1 -1</clus>
<clus scale="  121.447">  2  9  1 -1</clus>
<clus scale="  121.447">  2  5  1 -1</clus>
<clus scale="  119.359">  2  5  1 -1</clus>
</clustering>
</event>
<event>
10    2  0.2421970E-006  0.1467831E+03  0.7546771E-02  0.1225268E+00
          1   -1    0    0  502    0 -0.00000000000E+00  0.00000000000E+00  0.14092202936E+03  0.14092202936E+03  0.00000000000E+00 0. -1.
         21   -1    0    0  503  502  0.00000000000E+00 -0.00000000000E+00 -0.50464113546E+03  0.50464113546E+03  0.00000000000E+00 0. -1.
         23    2    1    2    0    0 -0.30704066933E+02 -0.25141634915E+02 -0.72501721635E+02  0.11911728560E+03  0.85776375277E+02 0.  0.
         23    2    1    2    0    0 -0.44530858462E+02  0.11346608048E+03  0.54372375428E+02  0.16093951598E+03  0.89931217154E+02 0.  0.
        -11    1    4    4    0    0 -0.74620744536E+00  0.47059597583E+02 -0.20836249503E+02  0.51471466305E+02  0.00000000000E+00 0.  1.
         11    1    4    4    0    0 -0.43784651017E+02  0.66406482902E+02  0.75208624931E+02  0.10946804968E+03  0.00000000000E+00 0. -1.
        -11    1    3    3    0    0 -0.14090733962E+02 -0.54230995525E+02 -0.62967156046E+02  0.84287676441E+02  0.00000000000E+00 0.  1.
         11    1    3    3    0    0 -0.16613332970E+02  0.29089360610E+02 -0.95345655897E+01  0.34829609157E+02  0.00000000000E+00 0. -1.
         21    1    1    2  503  501  0.41827703414E+02 -0.30829337295E+02 -0.16919342823E+03  0.17699271444E+03  0.00000000000E+00 0.  1.
          1    1    1    2  501    0  0.33407221981E+02 -0.57495108274E+02 -0.17639633166E+03  0.18851364879E+03  0.00000000000E+00 0. -1.
<scales pt_clust_5="13000.00000" pt_clust_6="13000.00000" pt_clust_7="13000.00000" pt_clust_8="13000.00000" pt_clust_9="23.40661" pt_clust_10="118.99063"></scales>
<clustering>
<clus scale="   23.407">  9 10 -1 -1</clus>
<clus scale="   85.776">  7  8 -1 -1</clus>
<clus scale="   89.931">  5  6 -1 -1</clus>
<clus scale="   94.512">  1  7  2 -1</clus>
<clus scale="  118.991">  2  9  1 -1</clus>
<clus scale="  118.991">  2  5  1 -1</clus>
</clustering>
</event>
<event>
10    2  0.2421970E-006  0.1847431E+03  0.7546771E-02  0.1164185E+00
         21   -1    0    0  501  502  0.00000000000E+00  0.00000000000E+00  0.91295107201E+02  0.91295107201E+02  0.00000000000E+00 0. -1.
          2   -1    0    0  503    0 -0.00000000000E+00 -0.00000000000E+00 -0.72106084863E+03  0.72106084863E+03  0.00000000000E+00 0. -1.
         23    2    1    2    0    0 -0.16059516083E+03 -0.84816450861E+01 -0.40972471236E+03  0.44949858988E+03  0.91169613325E+02 0.  0.
         23    2    1    2    0    0  0.14735965508E+03 -0.50428407950E+02 -0.20941715401E+03  0.27894187218E+03  0.98463858292E+02 0.  0.
        -13    1    3    3    0    0 -0.46748347311E+02  0.39612234653E+02 -0.13508850893E+03  0.14833557346E+03  0.00000000000E+00 0. -1.
         13    1    3    3    0    0 -0.11384681352E+03 -0.48093879739E+02 -0.27463620344E+03  0.30116301642E+03  0.00000000000E+00 0.  1.
        -13    1    4    4    0    0  0.65991400443E+02 -0.64880170744E+02 -0.66882693690E+02  0.11418229374E+03  0.00000000000E+00 0. -1.
         13    1    4    4    0    0  0.81368254635E+02  0.14451762794E+02 -0.14253446032E+03  0.16475957844E+03  0.00000000000E+00 0.  1.
         21    1    1    2  503  502  0.18168000714E+02  0.27380629052E+02 -0.31710374476E+02  0.45665336379E+02  0.00000000000E+00 0. -1.
          2    1    1    2  501    0 -0.49324949627E+01  0.31529423985E+02  0.21086499415E+02  0.38250157397E+02  0.00000000000E+00 0. -1.
<scales pt_clust_5="13000.00000" pt_clust_6="13000.00000" pt_clust_7="13000.00000" pt_clust_8="13000.00000" pt_clust_9="35.60935" pt_clust_10="31.91291"></scales>
<clustering>
<clus scale="   31.913">  1 10  2 -1</clus>
<clus scale="   35.609">  1  9  2 -1</clus>
<clus scale="   91.170">  5  6 -1 -1</clus>
<clus scale="   98.464">  7  8 -1 -1</clus>
<clus scale="  180.961">  2  5  1 -1</clus>
<clus scale="   31.913">  1  5  2 -1</clus>
</clustering>
</event>
<event>
10    2  0.2421970E-006  0.1323200E+03  0.7546771E-02  0.1225581E+00
          3   -1    0    0  503    0 -0.00000000000E+00  0.00000000000E+00  0.50113799062E+03  0.50113799062E+03  0.00000000000E+00 0. -1.
         21   -1    0    0  501  502  0.00000000000E+00 -0.00000000000E+00 -0.80705253428E+02  0.80705253428E+02  0.00000000000E+00 0.  1.
         23    2    1    2    0    0  0.40015523502E+02 -0.89679125815E+02  0.27802664849E+03  0.30698148596E+03  0.85412105260E+02 0.  0.
         23    2    1    2    0    0 -0.62418330041E+02  0.97495826326E+02  0.12581307418E+03  0.19391969099E+03  0.91511927316E+02 0.  0.
        -11    1    4    4    0    0 -0.70361030616E+02  0.25666177247E+02  0.71184612982E+02  0.10332800399E+03  0.00000000000E+00 0. -1.
         11    1    4    4    0    0  0.79427005753E+01  0.71829649079E+02  0.54628461199E+02  0.90591686993E+02  0.00000000000E+00 0.  1.
        -13    1    3    3    0    0 -0.24891070149E+02 -0.27134472552E+02  0.11427507543E+03  0.12006097551E+03  0.00000000000E+00 0. -1.
         13    1    3    3    0    0  0.64906593651E+02 -0.62544653263E+02  0.16375157306E+03  0.18692051046E+03  0.00000000000E+00 0.  1.
         21    1    1    2  503  502  0.72956534673E+00  0.25197629398E+02  0.30046724171E+02  0.39220637760E+02  0.00000000000E+00 0. -1.
          3    1    1    2  501    0  0.21673241191E+02 -0.33014329910E+02 -0.13453709647E+02  0.41721429343E+02  0.00000000000E+00 0. -1.
<scales pt_clust_5="13000.00000" pt_clust_6="13000.00000" pt_clust_7="13000.00000" pt_clust_8="13000.00000" pt_clust_9="25.20819" pt_clust_10="38.86913"></scales>
<clustering>
<clus scale="   25.208">  1  9  2 -1</clus>
<clus scale="   38.869">  2 10  1 -1</clus>
<clus scale="   85.412">  7  8 -1 -1</clus>
<clus scale="   91.512">  5  6 -1 -1</clus>
<clus scale="  128.177">  1  7  2 -1</clus>
<clus scale="   38.869">  2  5  1 -1</clus>
</clustering>
</event>
<event>
10    2  0.2421970E-006  0.1219448E+03  0.7546771E-02  0.1240458E+00
         21   -1    0    0  503  502  0.00000000000E+00  0.00000000000E+00  0.22038434060E+03  0.22038434060E+03  0.00000000000E+00 0.  1.
         -1   -1    0    0    0  501 -0.00000000000E+00 -0.00000000000E+00 -0.57934653513E+03  0.57934653513E+03  0.00000000000E+00 0.  1.
         23    2    1    2    0    0 -0.73273973700E+02 -0.54861402605E+02 -0.38707342303E+03  0.40781571572E+03  0.90049844288E+02 0.  0.
         23    2    1    2    0    0  0.74096351804E+02 -0.42109557821E+02 -0.80276967090E+02  0.14878312652E+03  0.91807097125E+02 0.  0.
        -11    1    4    4    0    0  0.32917116285E+02  0.17448599212E+02  0.42335658489E+01  0.37495509582E+02  0.00000000000E+00 0.  1.
         11    1    4    4    0    0  0.41179235519E+02 -0.59558157033E+02 -0.84510532939E+02  0.11128761694E+03  0.00000000000E+00 0. -1.
        -13    1    3    3    0    0 -0.44431446774E+02  0.46691217930E+01 -0.64070560383E+02  0.78108839887E+02  0.00000000000E+00 0.  1.
         13    1    3    3    0    0 -0.28842526925E+02 -0.59530524398E+02 -0.32300286264E+03  0.32970687583E+03  0.00000000000E+00 0. -1.
         21    1    1    2  503  501  0.86568934704E+02  0.88513755270E+02  0.34895661411E+02  0.12863348131E+03  0.00000000000E+00 0.  1.
         -1    1    1    2    0  502 -0.87391312809E+02  0.84572051563E+01  0.73492534173E+02  0.11449855219E+03  0.00000000000E+00 0.  1.
<scales pt_clust_5="13000.00000" pt_clust_6="13000.00000" pt_clust_7="13000.00000" pt_clust_8="13000.00000" pt_clust_9="98.66688" pt_clust_10="87.79958"></scales>
<clustering>
<clus scale="   87.800">  1 10  2 -1</clus>
<clus scale="   90.050">  7  8 -1 -1</clus>
<clus scale="   91.807">  5  6 -1 -1</clus>
<clus scale="   98.667">  1  9  2 -1</clus>
<clus scale="  120.627">  2  7  1 -1</clus>
<clus scale="   87.800">  1  5  2 -1</clus>
</clustering>
</event>
<event>
10    2  0.2421970E-006  0.1659319E+03  0.7546771E-02  0.1201667E+00
         21   -1    0    0  503  502  0.00000000000E+00  0.00000000000E+00  0.91957663672E+03  0.91957663672E+03  0.00000000000E+00 0.  1.
         -2   -1    0    0    0  501 -0.00000000000E+00 -0.00000000000E+00 -0.32562120945E+03  0.32562120945E+03  0.00000000000E+00 0.  1.
         23    2    1    2    0    0 -0.52236002425E+01  0.53824949886E+02 -0.10041544595E+03  0.14677919621E+03  0.92392961985E+02 0.  0.
         23    2    1    2    0    0 -0.13376896936E+02  0.94246482166E+02 -0.10529923624E+03  0.16902695255E+03  0.91765139147E+02 0.  0.
        -11    1    3    3    0    0 -0.87009970952E+01  0.76414159801E+02 -0.96810997785E+02  0.12364141887E+03  0.00000000000E+00 0.  1.
         11    1    3    3    0    0  0.34773968527E+01 -0.22589209915E+02 -0.36044481652E+01  0.23137777336E+02  0.00000000000E+00 0. -1.
        -11    1    4    4    0    0  0.12146067303E+02  0.45612531159E+02 -0.10386086732E+03  0.11408378373E+03  0.00000000000E+00 0.  1.
         11    1    4    4    0    0 -0.25522964240E+02  0.48633951007E+02 -0.14383689137E+01  0.54943168813E+02  0.00000000000E+00 0. -1.
         21    1    1    2  503  501  0.67922813109E+02 -0.21223693031E+03  0.81681267864E+03  0.84666461785E+03  0.00000000000E+00 0.  1.
         -2    1    1    2    0  502 -0.49322315931E+02  0.64165498255E+02 -0.17142569187E+02  0.82727079565E+02  0.00000000000E+00 0.  1.
<scales pt_clust_5="13000.00000" pt_clust_6="13000.00000" pt_clust_7="13000.00000" pt_clust_8="13000.00000" pt_clust_9="138.24812" pt_clust_10="80.93151"></scales>
<clustering>
<clus scale="   80.932">  1 10  2 -1</clus>
<clus scale="   91.765">  7  8 -1 -1</clus>
<clus scale="   92.393">  5  6 -1 -1</clus>
<clus scale="  107.979">  2  5  1 -1</clus>
<clus scale="  138.248">  1  9  2 -1</clus>
<clus scale="   80.932">  1  5  2 -1</clus>
</clustering>
</event>
<event>
10    2  0.2421970E-006  0.1354172E+03  0.7546771E-02  0.1236898E+00
         21   -1    0    0  503  502  0.00000000000E+00  0.00000000000E+00  0.15992405414E+03  0.15992405414E+03  0.00000000000E+00 0. -1.
          1   -1    0    0  502    0 -0.00000000000E+00 -0.00000000000E+00 -0.28138887800E+03  0.28138887800E+03  0.00000000000E+00 0. -1.
         23    2    1    2    0    0 -0.14298582091E+02  0.14803995173E+02 -0.37562438013E+01  0.92937912788E+02  0.90552407715E+02 0.  0.
         23    2    1    2    0    0  0.70709152220E+02  0.87939211421E+02 -0.15511745762E+03  0.21077913776E+03  0.87368931229E+02 0.  0.
        -11    1    4    4    0    0  0.63977178659E+02  0.36318163983E+02 -0.38416399001E+02  0.82993422248E+02  0.00000000000E+00 0.  1.
         11    1    4    4    0    0  0.67319735608E+01  0.51621047438E+02 -0.11670105862E+03  0.12778571551E+03  0.00000000000E+00 0. -1.
        -13    1    3    3    0    0  0.20334539904E+02 -0.28785697518E+02  0.77557840298E+01  0.36086868534E+02  0.00000000000E+00 0. -1.
         13    1    3    3    0    0 -0.34633121995E+02  0.43589692690E+02 -0.11512027831E+02  0.56851044254E+02  0.00000000000E+00 0.  1.
         21    1    1    2  503  501 -0.35706805109E+02 -0.12872410264E+02 -0.30597173683E+00  0.37957456392E+02  0.00000000000E+00 0.  1.
          1    1    1    2  501    0 -0.20703765020E+02 -0.89870796331E+02  0.37714849295E+02  0.99638425201E+02  0.00000000000E+00 0. -1.
<scales pt_clust_5="13000.00000" pt_clust_6="13000.00000" pt_clust_7="13000.00000" pt_clust_8="13000.00000" pt_clust_9="37.95622" pt_clust_10="103.46251"></scales>
<clustering>
<clus scale="   37.956">  1  9  2 -1</clus>
<clus scale="   87.369">  5  6 -1 -1</clus>
<clus scale="   90.552">  7  8 -1 -1</clus>
<clus scale="   94.707">  2  7  1 -1</clus>
<clus scale="  103.463">  1 10  2 -1</clus>
<clus scale="   37.956">  1  5  2 -1</clus>
</clustering>
</event>
<event>
10    2  0.2421970E-006  0.1563162E+03  0.7546771E-02  0.1194636E+00
         21   -1    0    0  503  502  0.00000000000E+00  0.00000000000E+00  0.90228336222E+02  0.90228336222E+02  0.00000000000E+00 0. -1.
          1   -1    0    0  502    0 -0.00000000000E+00 -0.00000000000E+00 -0.83321791462E+03  0.83321791462E+03  0.00000000000E+00 0. -1.
         23    2    1    2    0    0  0.10732076665E+02 -0.13784797310E+03 -0.54530562825E+03  0.56998511194E+03  0.91692739456E+02 0.  0.
         23    2    1    2    0    0 -0.84128923743E+02  0.57847475293E+02 -0.76502169919E+01  0.13082955951E+03  0.81448398476E+02 0.  0.
        -13    1    3    3    0    0  0.24221095418E+02 -0.99376961383E+02 -0.49387892213E+03  0.50435982358E+03  0.00000000000E+00 0. -1.
         13    1    3    3    0    0 -0.13489018753E+02 -0.38471011718E+02 -0.51426706125E+02  0.65625288361E+02  0.00000000000E+00 0.  1.
        -13    1    4    4    0    0  0.10559224264E+02  0.22753227352E+02 -0.15592500480E+02  0.29535277944E+02  0.00000000000E+00 0.  1.
         13    1    4    4    0    0 -0.94688148007E+02  0.35094247941E+02  0.79422834883E+01  0.10129428157E+03  0.00000000000E+00 0. -1.
         21    1    1    2  503  501  0.39039737633E+02  0.68866258234E+02 -0.11869372482E+03  0.14267046979E+03  0.00000000000E+00 0.  1.
          1    1    1    2  501    0  0.34357109444E+02  0.11134239573E+02 -0.71340008325E+02  0.79961109598E+02  0.00000000000E+00 0. -1.
<scales pt_clust_5="13000.00000" pt_clust_6="13000.00000" pt_clust_7="13000.00000" pt_clust_8="13000.00000" pt_clust_9="27.55981" pt_clust_10="115.98282"></scales>
<clustering>
<clus scale="   27.560">  9 10 -1 -1</clus>
<clus scale="   81.448">  7  8 -1 -1</clus>
<clus scale="   91.693">  5  6 -1 -1</clus>
<clus scale="  115.983">  1  9  2 -1</clus>
<clus scale="  150.536">  1  7  2 -1</clus>
<clus scale="  115.983">  1  5  2 -1</clus>
</clustering>
</event>
<event>
10    2  0.2421970E-006  0.1113869E+03  0.7546771E-02  0.1258114E+00
         -1   -1    0    0    0  501 -0.00000000000E+00  0.00000000000E+00  0.67844372727E+03  0.67844372727E+03  0.00000000000E+00 0.  1.
         21   -1    0    0  503  502  0.00000000000E+00 -0.00000000000E+00 -0.10034965672E+03  0.10034965672E+03  0.00000000000E+00 0. -1.
         23    2    1    2    0    0  0.60965861367E+02 -0.39617555592E+02  0.49900207385E+03  0.51225264711E+03  0.90073957405E+02 0.  0.
         23    2    1    2    0    0 -0.27280301512E+02  0.31123878877E+02  0.80509493172E+02  0.12752778367E+03  0.89825644609E+02 0.  0.
        -13    1    4    4    0    0  0.63130746240E+01  0.47958643892E+02  0.75433613038E+02  0.89610916808E+02  0.00000000000E+00 0.  1.
         13    1    4    4    0    0 -0.33593376136E+02 -0.16834765015E+02  0.50758801335E+01  0.37916866860E+02  0.00000000000E+00 0. -1.
        -13    1    3    3    0    0 -0.52018984085E+01 -0.48464367735E+02  0.19388496289E+03  0.19991806702E+03  0.00000000000E+00 0. -1.
         13    1    3    3    0    0  0.66167759776E+02  0.88468121436E+01  0.30511711096E+03  0.31233458009E+03  0.00000000000E+00 0.  1.
         21    1    1    2  503  501 -0.66800394346E+02  0.23054823987E+02 -0.43917490012E+02  0.83201944225E+02  0.00000000000E+00 0. -1.
         -1    1    1    2    0  502  0.33114834491E+02 -0.14561147273E+02  0.42499993546E+02  0.55811008992E+02  0.00000000000E+00 0.  1.
<scales pt_clust_5="13000.00000" pt_clust_6="13000.00000" pt_clust_7="13000.00000" pt_clust_8="13000.00000" pt_clust_9="46.25283" pt_clust_10="36.17486"></scales>
<clustering>
<clus scale="   36.175">  2 10  1 -1</clus>
<clus scale="   46.253">  2  9  1 -1</clus>
<clus scale="   89.826">  5  6 -1 -1</clus>
<clus scale="   90.074">  7  8 -1 -1</clus>
<clus scale="  111.186">  2  5  1 -1</clus>
<clus scale="   36.175">  2  5  1 -1</clus>
</clustering>
</event>
<event>
10    2  0.2421970E-006  0.3858321E+03  0.7546771E-02  0.1087852E+00
          1   -1    0    0  502    0 -0.00000000000E+00  0.00000000000E+00  0.54736811882E+03  0.54736811882E+03  0.00000000000E+00 0. -1.
         21   -1    0    0  503  502  0.00000000000E+00 -0.00000000000E+00 -0.89287756640E+03  0.89287756640E+03  0.00000000000E+00 0. -1.
         23    2    1    2    0    0 -0.68242591631E+02  0.67889256955E+02  0.16562191543E+03  0.21151289751E+03  0.89672093880E+02 0.  0.
         23    2    1    2    0    0 -0.76816792085E+02 -0.40462448072E+03  0.16480573480E+03  0.45286694931E+03  0.91135907364E+02 0.  0.
        -13    1    3    3    0    0  0.13885775500E+02  0.43826469151E+02  0.58421836507E+02  0.74341678353E+02  0.00000000000E+00 0.  1.
         13    1    3    3    0    0 -0.82128367131E+02  0.24062787804E+02  0.10720007893E+03  0.13717121916E+03  0.00000000000E+00 0. -1.
        -13    1    4    4    0    0 -0.61168507787E+02 -0.38105984815E+03  0.17368438744E+03  0.42321916386E+03  0.00000000000E+00 0. -1.
         13    1    4    4    0    0 -0.15648284298E+02 -0.23564632572E+02 -0.88786526373E+01  0.29647785455E+02  0.00000000000E+00 0.  1.
         21    1    1    2  503  501  0.80100030567E+02  0.10416382592E+03 -0.31814626822E+03  0.34421383689E+03  0.00000000000E+00 0. -1.
          1    1    1    2  501    0  0.64959353148E+02  0.23257139785E+03 -0.35779082959E+03  0.43165200150E+03  0.00000000000E+00 0. -1.
<scales pt_clust_5="13000.00000" pt_clust_6="13000.00000" pt_clust_7="13000.00000" pt_clust_8="13000.00000" pt_clust_9="76.10566" pt_clust_10="76.10566"></scales>
<clustering>
<clus scale="   76.106">  9 10 -1 -1</clus>
<clus scale="   89.672">  5  6 -1 -1</clus>
<clus scale="   91.136">  7  8 -1 -1</clus>
<clus scale="  131.556">  1  5  2 -1</clus>
<clus scale="  382.790">  1  7  2 -1</clus>
<clus scale="  385.832">  2  5  1 -1</clus>
</clustering>
</event>
<event>
10    2  0.2421970E-006  0.1227770E+03  0.7546771E-02  0.1238901E+00
          1   -1    0    0  503    0 -0.00000000000E+00  0.00000000000E+00  0.63603894634E+02  0.63603894634E+02  0.00000000000E+00 0. -1.
         21   -1    0    0  501  502  0.00000000000E+00 -0.00000000000E+00 -0.69232768962E+03  0.69232768962E+03  0.00000000000E+00 0. -1.
         23    2    1    2    0    0  0.63368328354E+02 -0.17301603894E+00 -0.68289876492E+02  0.13029353597E+03  0.91089644364E+02 0.  0.
         23    2    1    2    0    0 -0.96375853199E+02  0.77766653061E+02 -0.47278713634E+03  0.49695882218E+03  0.90024647972E+02 0.  0.
        -11    1    4    4    0    0 -0.89830641388E+02  0.54884394319E+02 -0.45559514629E+03  0.46759895016E+03  0.00000000000E+00 0. -1.
         11    1    4    4    0    0 -0.65452118107E+01  0.22882258742E+02 -0.17191990054E+02  0.29359872016E+02  0.00000000000E+00 0.  1.
        -13    1    3    3    0    0  0.59333208776E+02  0.30910175110E+02 -0.72519044334E+02  0.98665497414E+02  0.00000000000E+00 0. -1.
         13    1    3    3    0    0  0.40351195783E+01 -0.31083191149E+02  0.42291678419E+01  0.31628038552E+02  0.00000000000E+00 0.  1.
         21    1    1    2  503  502  0.22747972519E+02 -0.12181731114E+02 -0.12983748943E+02  0.28886719497E+02  0.00000000000E+00 0.  1.
          1    1    1    2  501    0  0.10259552326E+02 -0.65411905908E+02 -0.74663033215E+02  0.99792506619E+02  0.00000000000E+00 0. -1.
<scales pt_clust_5="13000.00000" pt_clust_6="13000.00000" pt_clust_7="13000.00000" pt_clust_8="13000.00000" pt_clust_9="25.80436" pt_clust_10="69.87924"></scales>
<clustering>
<clus scale="   25.804">  1  9  2 -1</clus>
<clus scale="   69.879">  2 10  1 -1</clus>
<clus scale="   90.025">  5  6 -1 -1</clus>
<clus scale="   91.090">  7  8 -1 -1</clus>
<clus scale="  121.989">  2  5  1 -1</clus>
<clus scale="   69.879">  2  5  1 -1</clus>
</clustering>
</event>
<event>
10    2  0.2421970E-006  0.2435641E+03  0.7546771E-02  0.1117907E+00
          2   -1    0    0  502    0 -0.00000000000E+00  0.00000000000E+00  0.19832132295E+04  0.19832132295E+04  0.00000000000E+00 0. -1.
         21   -1    0    0  503  502  0.00000000000E+00 -0.00000000000E+00 -0.10061386176E+03  0.10061386176E+03  0.00000000000E+00 0. -1.
         23    2    1    2    0    0 -0.21521244038E+03  0.83130579795E+02  0.12674757084E+04  0.12919103813E+04  0.96491834512E+02 0.  0.
         23    2    1    2    0    0  0.98665041112E+02 -0.22607200160E+03  0.18218596864E+03  0.31933102691E+03  0.89091174262E+02 0.  0.
        -11    1    3    3    0    0 -0.16812297253E+02 -0.17848440688E+02  0.77374601805E+02  0.81166798498E+02  0.00000000000E+00 0.  1.
         11    1    3    3    0    0 -0.19840014313E+03  0.10097902048E+03  0.11901011066E+04  0.12107435828E+04  0.00000000000E+00 0. -1.
        -13    1    4    4    0    0  0.92635545192E+02 -0.14190480936E+03  0.81750710997E+02  0.18815285780E+03  0.00000000000E+00 0.  1.
         13    1    4    4    0    0  0.60294959204E+01 -0.84167192244E+02  0.10043525765E+03  0.13117816911E+03  0.00000000000E+00 0. -1.
         21    1    1    2  503  501  0.35351152137E+02  0.16733829241E+02  0.79193315128E+02  0.88325003025E+02  0.00000000000E+00 0.  1.
          2    1    1    2  501    0  0.81196247130E+02  0.12620759256E+03  0.35374437555E+03  0.38426068001E+03  0.00000000000E+00 0. -1.
<scales pt_clust_5="13000.00000" pt_clust_6="13000.00000" pt_clust_7="13000.00000" pt_clust_8="13000.00000" pt_clust_9="22.17429" pt_clust_10="189.47881"></scales>
<clustering>
<clus scale="   22.174">  9 10 -1 -1</clus>
<clus scale="   89.091">  7  8 -1 -1</clus>
<clus scale="   96.492">  5  6 -1 -1</clus>
<clus scale="  189.479">  2  9  1 -1</clus>
<clus scale="  240.728">  2  7  1 -1</clus>
<clus scale="  189.479">  2  5  1 -1</clus>
</clustering>
</event>
<event>
10    2  0.2421970E-006  0.1338540E+03  0.7546771E-02  0.1233793E+00
         -1   -1    0    0    0  501 -0.00000000000E+00  0.00000000000E+00  0.11230580497E+03  0.11230580497E+03  0.00000000000E+00 0.  1.
         21   -1    0    0  503  502  0.00000000000E+00 -0.00000000000E+00 -0.38441641956E+03  0.38441641956E+03  0.00000000000E+00 0.  1.
         23    2    1    2    0    0  0.30600710959E+02  0.44147833949E+01  0.40735162872E+01  0.96212676000E+02  0.91018633612E+02 0.  0.
         23    2    1    2    0    0  0.46541665616E+02  0.33979421016E+02 -0.55566761998E+02  0.12075714384E+03  0.90409596057E+02 0.  0.
        -13    1    4    4    0    0 -0.24798217385E+02  0.24821576099E+02 -0.14782567803E+02  0.38073436099E+02  0.00000000000E+00 0. -1.
         13    1    4    4    0    0  0.71339883001E+02  0.91578449170E+01 -0.40784194195E+02  0.82683707744E+02  0.00000000000E+00 0.  1.
        -13    1    3    3    0    0 -0.29812668316E+02 -0.55962592724E+01 -0.12444383540E+02  0.32786826496E+02  0.00000000000E+00 0. -1.
         13    1    3    3    0    0  0.60413379274E+02  0.10011042667E+02  0.16517899828E+02  0.63425849504E+02  0.00000000000E+00 0.  1.
         21    1    1    2  503  501  0.41508879676E+02 -0.70793588863E+01 -0.25419811978E+02  0.49186088024E+02  0.00000000000E+00 0.  1.
         -1    1    1    2    0  502 -0.11865125625E+03 -0.31314845525E+02 -0.19519755690E+03  0.23056631667E+03  0.00000000000E+00 0.  1.
<scales pt_clust_5="13000.00000" pt_clust_6="13000.00000" pt_clust_7="13000.00000" pt_clust_8="13000.00000" pt_clust_9="42.10825" pt_clust_10="98.70661"></scales>
<clustering>
<clus scale="   42.108">  1  9  2 -1</clus>
<clus scale="   90.410">  5  6 -1 -1</clus>
<clus scale="   91.019">  7  8 -1 -1</clus>
<clus scale="  104.497">  1  7  2 -1</clus>
<clus scale="   98.707">  2 10  1 -1</clus>
<clus scale="   98.707">  2  5  1 -1</clus>
</clustering>
</event>
<event>
10    2  0.2421970E-006  0.2470113E+03  0.7546771E-02  0.1132319E+00
         21   -1    0    0  501  502  0.00000000000E+00  0.00000000000E+00  0.10143450471E+03  0.10143450471E+03  0.00000000000E+00 0.  1.
          1   -1    0    0  503    0 -0.00000000000E+00 -0.00000000000E+00 -0.17194216757E+04  0.17194216757E+04  0.00000000000E+00 0. -1.
         23    2    1    2    0    0 -0.99673309240E+01  0.11247735654E+03 -0.37908968158E+03  0.40593598230E+03  0.91238871266E+02 0.  0.
         23    2    1    2    0    0 -0.19666964725E+03 -0.28478912614E+03 -0.69876496653E+03  0.78534879633E+03  0.93361967292E+02 0.  0.
        -13    1    3    3    0    0  0.20955719385E+02  0.75231365943E+02 -0.32078225945E+03  0.33015172054E+03  0.00000000000E+00 0.  1.
         13    1    3    3    0    0 -0.30923050309E+02  0.37245990598E+02 -0.58307422124E+02  0.75784261762E+02  0.00000000000E+00 0. -1.
        -13    1    4    4    0    0 -0.19725340615E+03 -0.23527654071E+03 -0.57071164820E+03  0.64805535430E+03  0.00000000000E+00 0.  1.
         13    1    4    4    0    0  0.58375889775E+00 -0.49512585426E+02 -0.12805331833E+03  0.13729344203E+03  0.00000000000E+00 0. -1.
         21    1    1    2  503  502  0.16702236970E+03  0.37875596323E+02 -0.21041544610E+03  0.27130369097E+03  0.00000000000E+00 0.  1.
          1    1    1    2  501    0  0.39614608475E+02  0.13443617327E+03 -0.32971707681E+03  0.35826771084E+03  0.00000000000E+00 0. -1.
<scales pt_clust_5="13000.00000" pt_clust_6="13000.00000" pt_clust_7="13000.00000" pt_clust_8="13000.00000" pt_clust_9="228.68784" pt_clust_10="140.15142"></scales>
<clustering>
<clus scale="   91.239">  5  6 -1 -1</clus>
<clus scale="   93.362">  7  8 -1 -1</clus>
<clus scale="  140.151">  1 10  2 -1</clus>
<clus scale="  161.483">  2  5  1 -1</clus>
<clus scale="  228.688">  1  9  2 -1</clus>
<clus scale="  140.151">  1  5  2 -1</clus>
</clustering>
</event>
<event>
10    2  0.2421970E-006  0.1001461E+03  0.7546771E-02  0.1280852E+00
         21   -1    0    0  503  502  0.00000000000E+00  0.00000000000E+00  0.25273002036E+03  0.25273002036E+03  0.00000000000E+00 0.  1.
         -1   -1    0    0    0  501 -0.00000000000E+00 -0.00000000000E+00 -0.54764158139E+03  0.54764158139E+03  0.00000000000E+00 0.  1.
         23    2    1    2    0    0 -0.34248678585E+02 -0.80623338641E+01 -0.40668759091E+03  0.41835481673E+03  0.91585931618E+02 0.  0.
         23    2    1    2    0    0  0.10863807200E+03 -0.30532968875E+02 -0.22577596618E+02  0.14597383530E+03  0.89800444583E+02 0.  0.
        -11    1    4    4    0    0  0.22986759450E+02 -0.46276170924E+01  0.33114331493E+02  0.40575422366E+02  0.00000000000E+00 0. -1.
         11    1    4    4    0    0  0.85651312555E+02 -0.25905351782E+02 -0.55691928111E+02  0.10539841294E+03  0.00000000000E+00 0.  1.
        -13    1    3    3    0    0 -0.44405880715E+02 -0.41790395475E+02 -0.21605178735E+03  0.22449208051E+03  0.00000000000E+00 0.  1.
         13    1    3    3    0    0  0.10157202130E+02  0.33728061611E+02 -0.19063580356E+03  0.19386273621E+03  0.00000000000E+00 0. -1.
         21    1    1    2  503  501  0.93531478705E+01  0.25263114076E+02 -0.36464025676E+02  0.45335763768E+02  0.00000000000E+00 0.  1.
         -1    1    1    2    0  502 -0.83742541290E+02  0.13332188663E+02  0.17081765217E+03  0.19070718594E+03  0.00000000000E+00 0.  1.
<scales pt_clust_5="13000.00000" pt_clust_6="13000.00000" pt_clust_7="13000.00000" pt_clust_8="13000.00000" pt_clust_9="26.93894" pt_clust_10="84.69544"></scales>
<clustering>
<clus scale="   26.939">  2  9  1 -1</clus>
<clus scale="   84.695">  1 10  2 -1</clus>
<clus scale="   89.800">  5  6 -1 -1</clus>
<clus scale="   91.586">  7  8 -1 -1</clus>
<clus scale="   98.516">  1  5  2 -1</clus>
<clus scale="   84.695">  1  5  2 -1</clus>
</clustering>
</event>
<event>
10    2  0.2421970E-006  0.1227372E+03  0.7546771E-02  0.1239312E+00
         21   -1    0    0  501  502  0.00000000000E+00  0.00000000000E+00  0.42540936644E+03  0.42540936644E+03  0.00000000000E+00 0. -1.
          1   -1    0    0  503    0 -0.00000000000E+00 -0.00000000000E+00 -0.98988967729E+02  0.98988967729E+02  0.00000000000E+00 0. -1.
         23    2    1    2    0    0 -0.24539718603E+02  0.48393821996E+02  0.10593320293E+03  0.14993953404E+03  0.91191340533E+02 0.  0.
         23    2    1    2    0    0  0.96600969943E+02 -0.70927794711E+02  0.19473042065E+03  0.24535086140E+03  0.88964088316E+02 0.  0.
        -11    1    4    4    0    0  0.73401786039E+02 -0.13566364761E+02  0.55582546779E+02  0.93066040815E+02  0.00000000000E+00 0.  1.
         11    1    4    4    0    0  0.23199183904E+02 -0.57361429950E+02  0.13914787387E+03  0.15228482059E+03  0.00000000000E+00 0. -1.
        -11    1    3    3    0    0  0.32420439811E+02  0.87078402436E+01  0.18608281382E+02  0.38382020989E+02  0.00000000000E+00 0.  1.
         11    1    3    3    0    0 -0.56960158414E+02  0.39685981753E+02  0.87324921552E+02  0.11155751305E+03  0.00000000000E+00 0. -1.
         21    1    1    2  503  502 -0.52999518816E+02 -0.56482207938E+01 -0.31932369546E+02  0.62133144277E+02  0.00000000000E+00 0. -1.
          1    1    1    2  501    0 -0.19061732524E+02  0.28182193509E+02  0.57689144682E+02  0.66974794452E+02  0.00000000000E+00 0. -1.
<scales pt_clust_5="13000.00000" pt_clust_6="13000.00000" pt_clust_7="13000.00000" pt_clust_8="13000.00000" pt_clust_9="53.97821" pt_clust_10="34.02331"></scales>
<clustering>
<clus scale="   34.023">  1 10  2 -1</clus>
<clus scale="   53.978">  2  9  1 -1</clus>
<clus scale="   88.964">  5  6 -1 -1</clus>
<clus scale="   91.191">  7  8 -1 -1</clus>
<clus scale="  121.092">  1  5  2 -1</clus>
<clus scale="   34.023">  1  5  2 -1</clus>
</clustering>
</event>
<event>
10    2  0.2421970E-006  0.1144518E+03  0.7546771E-02  0.1252994E+00
         21   -1    0    0  501  502  0.00000000000E+00  0.00000000000E+00  0.33111816064E+03  0.33111816064E+03  0.00000000000E+00 0.  1.
          1   -1    0    0  503    0 -0.00000000000E+00 -0.00000000000E+00 -0.14315153833E+03  0.14315153833E+03  0.00000000000E+00 0. -1.
         23    2    1    2    0    0  0.35704836453E+01  0.66699931658E+02 -0.89975920630E+02  0.14504132569E+03  0.92085235676E+02 0.  0.
         23    2    1    2    0    0  0.42831405348E+01 -0.77071880039E+02  0.19029283085E+03  0.22453366563E+03  0.90805206564E+02 0.  0.
        -13    1    4    4    0    0 -0.41511586866E+02 -0.22873109574E+02  0.89427401522E+02  0.10121092396E+03  0.00000000000E+00 0.  1.
         13    1    4    4    0    0  0.45794727401E+02 -0.54198770465E+02  0.10086542933E+03  0.12332274167E+03  0.00000000000E+00 0. -1.
        -13    1    3    3    0    0 -0.29670240522E+02  0.45615709900E+02 -0.92052121623E+01  0.55189238926E+02  0.00000000000E+00 0.  1.
         13    1    3    3    0    0  0.33240724167E+02  0.21084221758E+02 -0.80770708468E+02  0.89852086769E+02  0.00000000000E+00 0. -1.
         21    1    1    2  503  502  0.28411075992E+01  0.29464604214E+02  0.26438429875E+02  0.39689108936E+02  0.00000000000E+00 0. -1.
          1    1    1    2  501    0 -0.10694731779E+02 -0.19092655833E+02  0.61211282206E+02  0.65005598712E+02  0.00000000000E+00 0. -1.
<scales pt_clust_5="13000.00000" pt_clust_6="13000.00000" pt_clust_7="13000.00000" pt_clust_8="13000.00000" pt_clust_9="27.15186" pt_clust_10="21.88394"></scales>
<clustering>
<clus scale="   21.884">  1 10  2 -1</clus>
<clus scale="   27.152">  1  9  2 -1</clus>
<clus scale="   90.805">  5  6 -1 -1</clus>
<clus scale="   92.085">  7  8 -1 -1</clus>
<clus scale="  113.424">  1  5  2 -1</clus>
<clus scale="   21.884">  1  5  2 -1</clus>
</clustering>
</event>
<event>
10    2  0.2421970E-006  0.9333851E+02  0.7546771E-02  0.1295345E+00
         21   -1    0    0  503  502  0.00000000000E+00  0.00000000000E+00  0.10585397172E+03  0.10585397172E+03  0.00000000000E+00 0. -1.
          2   -1    0    0  502    0 -0.00000000000E+00 -0.00000000000E+00 -0.43969902135E+03  0.43969902135E+03  0.00000000000E+00 0. -1.
         23    2    1    2    0    0  0.15413563421E+02 -0.18392848218E+02 -0.21773257373E+03  0.23765070286E+03  0.92165655760E+02 0.  0.
         23    2    1    2    0    0  0.33898940220E+02 -0.67174686821E+01 -0.18452673497E+03  0.20943227074E+03  0.92830477612E+02 0.  0.
        -11    1    3    3    0    0  0.24268259072E+02  0.16008604014E+02 -0.16749403017E+02  0.33552441078E+02  0.00000000000E+00 0.  1.
         11    1    3    3    0    0 -0.88546956508E+01 -0.34401452232E+02 -0.20098317071E+03  0.20409826178E+03  0.00000000000E+00 0. -1.
        -11    1    4    4    0    0  0.66075221942E+02 -0.94836126243E+01 -0.12318619892E+03  0.14010964802E+03  0.00000000000E+00 0. -1.
         11    1    4    4    0    0 -0.32176281722E+02  0.27661439422E+01 -0.61340536046E+02  0.69322622715E+02  0.00000000000E+00 0.  1.
         21    1    1    2  503  501 -0.10766211828E+02  0.29536327648E+02  0.24396180802E+02  0.39792959249E+02  0.00000000000E+00 0.  1.
          2    1    1    2  501    0 -0.38546291813E+02 -0.44260107486E+01  0.44018078264E+02  0.58677060234E+02  0.00000000000E+00 0. -1.
<scales pt_clust_5="13000.00000" pt_clust_6="13000.00000" pt_clust_7="13000.00000" pt_clust_8="13000.00000" pt_clust_9="31.43733" pt_clust_10="48.78679"></scales>
<clustering>
<clus scale="   31.437">  1  9  2 -1</clus>
<clus scale="   48.787">  1 10  2 -1</clus>
<clus scale="   92.166">  5  6 -1 -1</clus>
<clus scale="   92.677">  2  5  1 -1</clus>
<clus scale="   92.830">  7  8 -1 -1</clus>
<clus scale="   31.437">  1  5  2 -1</clus>
</clustering>
</event>
<event>
10    2  0.2421970E-006  0.2015829E+03  0.7546771E-02  0.1178762E+00
         21   -1    0    0  503  502  0.00000000000E+00  0.00000000000E+00  0.10338083456E+04  0.10338083456E+04  0.00000000000E+00 0. -1.
          1   -1    0    0  502    0 -0.00000000000E+00 -0.00000000000E+00 -0.16761510397E+03  0.16761510397E+03  0.00000000000E+00 0. -1.
         23    2    1    2    0    0 -0.69217806723E+00 -0.49355016912E+02  0.28836081995E+01  0.99922247382E+02  0.86831696521E+02 0.  0.
         23    2    1    2    0    0 -0.31660641023E+02  0.22173854944E+03  0.24883518366E+02  0.24340097431E+03  0.91948161012E+02 0.  0.
        -13    1    3    3    0    0 -0.34873252109E+02 -0.22389323664E+02 -0.24831664049E+02  0.48311872932E+02  0.00000000000E+00 0. -1.
         13    1    3    3    0    0  0.34181074042E+02 -0.26965693248E+02  0.27715272249E+02  0.51610374449E+02  0.00000000000E+00 0.  1.
        -13    1    4    4    0    0  0.15559614425E+02  0.13922785161E+03  0.43161447563E+02  0.14659265610E+03  0.00000000000E+00 0.  1.
         13    1    4    4    0    0 -0.47220255448E+02  0.82510697822E+02 -0.18277929197E+02  0.96808318213E+02  0.00000000000E+00 0. -1.
         21    1    1    2  503  501 -0.73742227145E+01 -0.65856472071E+02  0.38342904277E+03  0.38911346021E+03  0.00000000000E+00 0.  1.
          1    1    1    2  501    0  0.39727041805E+02 -0.10652706045E+03  0.45499707231E+03  0.46898676769E+03  0.00000000000E+00 0. -1.
<scales pt_clust_5="13000.00000" pt_clust_6="13000.00000" pt_clust_7="13000.00000" pt_clust_8="13000.00000" pt_clust_9="39.03988" pt_clust_10="186.53701"></scales>
<clustering>
<clus scale="   39.040">  9 10 -1 -1</clus>
<clus scale="   86.832">  5  6 -1 -1</clus>
<clus scale="   91.948">  7  8 -1 -1</clus>
<clus scale="   99.881">  2  5  1 -1</clus>
<clus scale="  186.537">  1  9  2 -1</clus>
<clus scale="  186.537">  1  5  2 -1</clus>
</clustering>
</event>
<event>
10    2  0.2421970E-006  0.2060184E+03  0.7546771E-02  0.1144883E+00
         21   -1    0    0  501  502  0.00000000000E+00  0.00000000000E+00  0.19110389761E+03  0.19110389761E+03  0.00000000000E+00 0. -1.
          2   -1    0    0  503    0 -0.00000000000E+00 -0.00000000000E+00 -0.55463986404E+03  0.55463986404E+03  0.00000000000E+00 0. -1.
         23    2    1    2    0    0  0.15976480492E+03 -0.93576258307E+02 -0.27050444355E+03  0.34046546662E+03  0.91993320246E+02 0.  0.
         23    2    1    2    0    0 -0.18300143045E+03  0.43207841897E+02 -0.17225071799E+03  0.27062223989E+03  0.90607095350E+02 0.  0.
        -11    1    3    3    0    0  0.99070588854E+02 -0.50161949267E+02 -0.82938210163E+02  0.13859996189E+03  0.00000000000E+00 0.  1.
         11    1    3    3    0    0  0.60694216066E+02 -0.43414309039E+02 -0.18756623339E+03  0.20186550473E+03  0.00000000000E+00 0. -1.
        -13    1    4    4    0    0 -0.99226348813E+02  0.50656485815E+02 -0.14364497839E+03  0.18178511400E+03  0.00000000000E+00 0.  1.
         13    1    4    4    0    0 -0.83775081634E+02 -0.74486439179E+01 -0.28605739601E+02  0.88837125894E+02  0.00000000000E+00 0. -1.
         21    1    1    2  503  502  0.47882797277E+02  0.26456973120E+02  0.76016828668E+01  0.55231506264E+02  0.00000000000E+00 0. -1.
          2    1    1    2  501    0 -0.24646171750E+02  0.23911443289E+02  0.71617512254E+02  0.79424548872E+02  0.00000000000E+00 0. -1.
<scales pt_clust_5="13000.00000" pt_clust_6="13000.00000" pt_clust_7="13000.00000" pt_clust_8="13000.00000" pt_clust_9="52.74675" pt_clust_10="34.33935"></scales>
<clustering>
<clus scale="   34.339">  1 10  2 -1</clus>
<clus scale="   52.747">  1  9  2 -1</clus>
<clus scale="   90.607">  7  8 -1 -1</clus>
<clus scale="   91.993">  5  6 -1 -1</clus>
<clus scale="  205.403">  1  7  2 -1</clus>
<clus scale="   34.339">  1  5  2 -1</clus>
</clustering>
</event>
<event>
10    2  0.2421970E-006  0.1116386E+03  0.7546771E-02  0.1258442E+00
         -1   -1    0    0    0  501 -0.00000000000E+00  0.00000000000E+00  0.24409648955E+03  0.24409648955E+03  0.00000000000E+00 0.  1.
         21   -1    0    0  503  502  0.00000000000E+00 -0.00000000000E+00 -0.13363148113E+03  0.13363148113E+03  0.00000000000E+00 0.  1.
         23    2    1    2    0    0  0.77530492495E+02 -0.29200036239E+02  0.13955801385E+03  0.18594539958E+03  0.90750388491E+02 0.  0.
         23    2    1    2    0    0 -0.10876959846E+02  0.33352611159E+02  0.18986723070E+02  0.10124334955E+03  0.93053829839E+02 0.  0.
        -11    1    4    4    0    0  0.22929164852E+02 -0.15991747625E+02 -0.15737669907E+02  0.32080474545E+02  0.00000000000E+00 0.  1.
         11    1    4    4    0    0 -0.33806124698E+02  0.49344358784E+02  0.34724392977E+02  0.69162875002E+02  0.00000000000E+00 0. -1.
        -13    1    3    3    0    0  0.32065714171E+02 -0.59730474376E+02  0.83837611700E+02  0.10781783122E+03  0.00000000000E+00 0. -1.
         13    1    3    3    0    0  0.45464778324E+02  0.30530438137E+02  0.55720402149E+02  0.78127568351E+02  0.00000000000E+00 0.  1.
         21    1    1    2  503  501 -0.26943918334E+02 -0.13920117447E+02 -0.42983250969E+01  0.30630377137E+02  0.00000000000E+00 0.  1.
         -1    1    1    2    0  502 -0.39709614316E+02  0.97675425269E+01 -0.43781403397E+02  0.59908844418E+02  0.00000000000E+00 0.  1.
<scales pt_clust_5="13000.00000" pt_clust_6="13000.00000" pt_clust_7="13000.00000" pt_clust_8="13000.00000" pt_clust_9="30.32729" pt_clust_10="51.85662"></scales>
<clustering>
<clus scale="   30.327">  2  9  1 -1</clus>
<clus scale="   51.857">  2 10  1 -1</clus>
<clus scale="   90.750">  7  8 -1 -1</clus>
<clus scale="   93.054">  5  6 -1 -1</clus>
<clus scale="  109.726">  1  7  2 -1</clus>
<clus scale="   30.327">  2  5  1 -1</clus>
</clustering>
</event>
<event>
10    2  0.2421970E-006  0.1756873E+03  0.7546771E-02  0.1197173E+00
          1   -1    0    0  502    0 -0.00000000000E+00  0.00000000000E+00  0.17992190058E+03  0.17992190058E+03  0.00000000000E+00 0. -1.
         21   -1    0    0  503  502  0.00000000000E+00 -0.00000000000E+00 -0.43406767516E+03  0.43406767516E+03  0.00000000000E+00 0. -1.
         23    2    1    2    0    0  0.80236909155E+01  0.34889448229E+02  0.29777756684E+02  0.10463401127E+03  0.93701164918E+02 0.  0.
         23    2    1    2    0    0  0.12475435590E+02 -0.18072629903E+03 -0.22859302955E+02  0.20098430355E+03  0.83991135765E+02 0.  0.
        -11    1    3    3    0    0 -0.97531388213E+01 -0.30610310974E+02  0.13449707353E+02  0.34828285670E+02  0.00000000000E+00 0. -1.
         11    1    3    3    0    0  0.17776829737E+02  0.65499759203E+02  0.16328049331E+02  0.69805725597E+02  0.00000000000E+00 0.  1.
        -13    1    4    4    0    0  0.10231913579E+02 -0.25147188090E+02  0.26308968476E+02  0.37805223800E+02  0.00000000000E+00 0.  1.
         13    1    4    4    0    0  0.22435220109E+01 -0.15557911094E+03 -0.49168271431E+02  0.16317907975E+03  0.00000000000E+00 0. -1.
         21    1    1    2  503  501  0.58274616666E+01  0.94814611656E+02 -0.10258310280E+03  0.13981081100E+03  0.00000000000E+00 0. -1.
          1    1    1    2  501    0 -0.26326588172E+02  0.51022239150E+02 -0.15848112552E+03  0.16856044992E+03  0.00000000000E+00 0. -1.
<scales pt_clust_5="13000.00000" pt_clust_6="13000.00000" pt_clust_7="13000.00000" pt_clust_8="13000.00000" pt_clust_9="56.32860" pt_clust_10="170.47352"></scales>
<clustering>
<clus scale="   56.329">  9 10 -1 -1</clus>
<clus scale="   83.991">  7  8 -1 -1</clus>
<clus scale="   93.701">  5  6 -1 -1</clus>
<clus scale="  100.307">  1  5  2 -1</clus>
<clus scale="  170.474">  2  9  1 -1</clus>
<clus scale="  170.474">  2  5  1 -1</clus>
</clustering>
</event>
<event>
10    2  0.2421970E-006  0.1094846E+03  0.7546771E-02  0.1262352E+00
          1   -1    0    0  503    0 -0.00000000000E+00  0.00000000000E+00  0.14078495493E+03  0.14078495493E+03  0.00000000000E+00 0. -1.
         21   -1    0    0  501  502  0.00000000000E+00 -0.00000000000E+00 -0.21810980037E+03  0.21810980037E+03  0.00000000000E+00 0.  1.
         23    2    1    2    0    0 -0.82795711140E+01 -0.78513408102E+02  0.53083326105E+02  0.13009891755E+03  0.88741096954E+02 0.  0.
         23    2    1    2    0    0  0.45137146727E+02  0.43542079958E+02 -0.12890596016E+03  0.16972323425E+03  0.90862285572E+02 0.  0.
        -13    1    4    4    0    0  0.10277234055E+02 -0.23197964611E+02 -0.67994373898E+01  0.26267840618E+02  0.00000000000E+00 0. -1.
         13    1    4    4    0    0  0.34859912672E+02  0.66740044568E+02 -0.12210652277E+03  0.14345539364E+03  0.00000000000E+00 0.  1.
        -13    1    3    3    0    0  0.32049828491E+02 -0.15437171686E+02 -0.42138285866E+01  0.35822536584E+02  0.00000000000E+00 0.  1.
         13    1    3    3    0    0 -0.40329399605E+02 -0.63076236416E+02  0.57297154692E+02  0.94276380970E+02  0.00000000000E+00 0. -1.
         21    1    1    2  503  502 -0.11542651187E+02  0.25570217100E+02  0.99132795932E+01  0.29754695617E+02  0.00000000000E+00 0.  1.
          1    1    1    2  501    0 -0.25314924426E+02  0.94011110445E+01 -0.11415490986E+02  0.29317907873E+02  0.00000000000E+00 0. -1.
<scales pt_clust_5="13000.00000" pt_clust_6="13000.00000" pt_clust_7="13000.00000" pt_clust_8="13000.00000" pt_clust_9="29.02316" pt_clust_10="27.00419"></scales>
<clustering>
<clus scale="   27.004">  2 10  1 -1</clus>
<clus scale="   29.023">  1  9  2 -1</clus>
<clus scale="   88.741">  7  8 -1 -1</clus>
<clus scale="   90.862">  5  6 -1 -1</clus>
<clus scale="  107.731">  1  7  2 -1</clus>
<clus scale="   27.004">  2  5  1 -1</clus>
</clustering>
</event>
<event>
10    2  0.2421970E-006  0.1084521E+03  0.7546771E-02  0.1267497E+00
         -3   -1    0    0    0  501 -0.00000000000E+00  0.00000000000E+00  0.33856996956E+03  0.33856996956E+03  0.00000000000E+00 0.  1.
         21   -1    0    0  503  502  0.00000000000E+00 -0.00000000000E+00 -0.11746882294E+03  0.11746882294E+03  0.00000000000E+00 0. -1.
         23    2    1    2    0    0  0.35470607355E+02 -0.29277872780E+02  0.26306911984E+03  0.28520986772E+03  0.10011967346E+03 0.  0.
         23    2    1    2    0    0 -0.38904576161E+02 -0.17172046430E+02  0.54663082136E+00  0.10060949078E+03  0.91178536971E+02 0.  0.
        -11    1    3    3    0    0 -0.20484980923E+02 -0.32263609830E+02  0.40457927381E+02  0.55654459396E+02  0.00000000000E+00 0. -1.
         11    1    3    3    0    0  0.55955588278E+02  0.29857370496E+01  0.22261119246E+03  0.22955540833E+03  0.00000000000E+00 0.  1.
        -13    1    4    4    0    0  0.94587250453E+01 -0.33433636703E+02  0.26183562097E+02  0.43506947339E+02  0.00000000000E+00 0.  1.
         13    1    4    4    0    0 -0.48363301206E+02  0.16261590273E+02 -0.25636931276E+02  0.57102543437E+02  0.00000000000E+00 0. -1.
         21    1    1    2  503  501 -0.13727506556E+02  0.23276566334E+02 -0.19473632334E+02  0.33308637511E+02  0.00000000000E+00 0.  1.
         -3    1    1    2    0  502  0.17161475362E+02  0.23173352876E+02 -0.23040971709E+02  0.36910796488E+02  0.00000000000E+00 0.  1.
<scales pt_clust_5="13000.00000" pt_clust_6="13000.00000" pt_clust_7="13000.00000" pt_clust_8="13000.00000" pt_clust_9="27.02301" pt_clust_10="33.32576"></scales>
<clustering>
<clus scale="   27.023">  2  9  1 -1</clus>
<clus scale="   33.326">  2 10  1 -1</clus>
<clus scale="   91.179">  7  8 -1 -1</clus>
<clus scale="  100.120">  5  6 -1 -1</clus>
<clus scale="  100.257">  2  7  1 -1</clus>
<clus scale="   27.023">  2  5  1 -1</clus>
</clustering>
</event>
<event>
10    2  0.2421970E-006  0.1602940E+03  0.7546771E-02  0.1206375E+00
          1   -1    0    0  502    0 -0.00000000000E+00  0.00000000000E+00  0.15723615278E+03  0.15723615278E+03  0.00000000000E+00 0. -1.
         21   -1    0    0  503  502  0.00000000000E+00 -0.00000000000E+00 -0.34835209011E+03  0.34835209011E+03  0.00000000000E+00 0. -1.
         23    2    1    2    0    0  0.24614354638E+02 -0.52759193571E+02  0.38424147746E+02  0.11482846954E+03  0.91212736641E+02 0.  0.
         23    2    1    2    0    0 -0.13901660074E+03  0.79983929301E+02 -0.11981567509E+03  0.21956431545E+03  0.90164562852E+02 0.  0.
        -11    1    3    3    0    0  0.31518727671E+02 -0.76377137388E+02  0.35919089241E+02  0.90094829382E+02  0.00000000000E+00 0. -1.
         11    1    3    3    0    0 -0.69043730328E+01  0.23617943817E+02  0.25050585042E+01  0.24733640153E+02  0.00000000000E+00 0.  1.
        -11    1    4    4    0    0 -0.14674613918E+03  0.55184815806E+02 -0.93278456233E+02  0.18242988696E+03  0.00000000000E+00 0. -1.
         11    1    4    4    0    0  0.77295384394E+01  0.24799113494E+02 -0.26537218854E+02  0.37134428488E+02  0.00000000000E+00 0.  1.
         21    1    1    2  503  501  0.48964575682E+02 -0.35302095921E+02 -0.29006813080E+02  0.66971358454E+02  0.00000000000E+00 0.  1.
          1    1    1    2  501    0  0.65437670418E+02  0.80773601912E+01 -0.80717596906E+02  0.10422409946E+03  0.00000000000E+00 0. -1.
<scales pt_clust_5="13000.00000" pt_clust_6="13000.00000" pt_clust_7="13000.00000" pt_clust_8="13000.00000" pt_clust_9="56.11409" pt_clust_10="144.92716"></scales>
<clustering>
<clus scale="   56.114">  9 10 -1 -1</clus>
<clus scale="   90.165">  7  8 -1 -1</clus>
<clus scale="   91.213">  5  6 -1 -1</clus>
<clus scale="  108.209">  1  5  2 -1</clus>
<clus scale="  144.927">  2  9  1 -1</clus>
<clus scale="  144.927">  2  5  1 -1</clus>
</clustering>
</event>
<event>
10    2  0.2421970E-006  0.1052109E+03  0.7546771E-02  0.1270065E+00
         21   -1    0    0  501  502  0.00000000000E+00  0.00000000000E+00  0.32103057615E+03  0.32103057615E+03  0.00000000000E+00 0. -1.
          1   -1    0    0  503    0 -0.00000000000E+00 -0.00000000000E+00 -0.21766661487E+03  0.21766661487E+03  0.00000000000E+00 0. -1.
         23    2    1    2    0    0 -0.52431038213E+02  0.12569453932E+02 -0.11237908829E+03  0.15404730850E+03  0.90523526398E+02 0.  0.
         23    2    1    2    0    0  0.49242166028E+02 -0.12757484125E+01 -0.18240095390E+02  0.10538997855E+03  0.91366996501E+02 0.  0.
        -11    1    3    3    0    0 -0.52350565120E+02  0.47330741914E+02 -0.73622718576E+02  0.10198571218E+03  0.00000000000E+00 0. -1.
         11    1    3    3    0    0 -0.80473092970E-01 -0.34761287982E+02 -0.38756369714E+02  0.52061596321E+02  0.00000000000E+00 0.  1.
        -13    1    4    4    0    0  0.37965851833E+02  0.33572481004E+02 -0.38396295295E+02  0.63582960599E+02  0.00000000000E+00 0.  1.
         13    1    4    4    0    0  0.11276314195E+02 -0.34848229417E+02  0.20156199904E+02  0.41807017950E+02  0.00000000000E+00 0. -1.
         21    1    1    2  503  502  0.68596418150E+02  0.24523127479E+02  0.80176972856E+02  0.10832912508E+03  0.00000000000E+00 0. -1.
          1    1    1    2  501    0 -0.65407545965E+02 -0.35816832999E+02  0.15380617210E+03  0.17093077889E+03  0.00000000000E+00 0. -1.
<scales pt_clust_5="13000.00000" pt_clust_6="13000.00000" pt_clust_7="13000.00000" pt_clust_8="13000.00000" pt_clust_9="72.84815" pt_clust_10="24.47180"></scales>
<clustering>
<clus scale="   72.848">  1  9  2 -1</clus>
<clus scale="   24.472">  1 10  2 -1</clus>
<clus scale="   90.524">  5  6 -1 -1</clus>
<clus scale="   91.367">  7  8 -1 -1</clus>
<clus scale="  104.479">  2  5  1 -1</clus>
<clus scale="   72.848">  1  5  2 -1</clus>
</clustering>
</event>
<event>
10    2  0.2421970E-006  0.1194529E+03  0.7546771E-02  0.1244342E+00
         21   -1    0    0  503  502  0.00000000000E+00  0.00000000000E+00  0.43428338766E+03  0.43428338766E+03  0.00000000000E+00 0.  1.
          2   -1    0    0  502    0 -0.00000000000E+00 -0.00000000000E+00 -0.10446022818E+03  0.10446022818E+03  0.00000000000E+00 0. -1.
         23    2    1    2    0    0  0.26068349665E+02  0.50260866465E+02  0.12284869672E+02  0.10623815653E+03  0.89050066411E+02 0.  0.
         23    2    1    2    0    0 -0.85711137400E+02 -0.10103933708E+03  0.97644467946E+02  0.18765312225E+03  0.90132710252E+02 0.  0.
        -13    1    4    4    0    0 -0.37630840336E+02 -0.61464404398E+02  0.10237810815E+03  0.12520075951E+03  0.00000000000E+00 0.  1.
         13    1    4    4    0    0 -0.48080297063E+02 -0.39574932679E+02 -0.47336402056E+01  0.62452362740E+02  0.00000000000E+00 0. -1.
        -13    1    3    3    0    0 -0.17985694493E+01 -0.20852432278E+02  0.20651151031E+02  0.29402870997E+02  0.00000000000E+00 0.  1.
         13    1    3    3    0    0  0.27866919114E+02  0.71113298743E+02 -0.83662813583E+01  0.76835285532E+02  0.00000000000E+00 0. -1.
         21    1    1    2  503  501  0.14483655770E+02 -0.15356106812E+02  0.88456914525E+02  0.90940706112E+02  0.00000000000E+00 0.  1.
          2    1    1    2  501    0  0.45159131965E+02  0.66134577424E+02  0.13143690734E+03  0.15391163095E+03  0.00000000000E+00 0. -1.
<scales pt_clust_5="13000.00000" pt_clust_6="13000.00000" pt_clust_7="13000.00000" pt_clust_8="13000.00000" pt_clust_9="21.10892" pt_clust_10="78.67758"></scales>
<clustering>
<clus scale="   21.109">  1  9  2 -1</clus>
<clus scale="   78.678">  1 10  2 -1</clus>
<clus scale="   89.050">  7  8 -1 -1</clus>
<clus scale="   90.133">  5  6 -1 -1</clus>
<clus scale="  118.638">  2  7  1 -1</clus>
<clus scale="   21.109">  1  5  2 -1</clus>
</clustering>
</event>
<event>
10    2  0.2421970E-006  0.1840043E+03  0.7546771E-02  0.1164016E+00
         21   -1    0    0  503  502  0.00000000000E+00  0.00000000000E+00  0.78080850908E+02  0.78080850908E+02  0.00000000000E+00 0. -1.
          2   -1    0    0  502    0 -0.00000000000E+00 -0.00000000000E+00 -0.10682450340E+04  0.10682450340E+04  0.00000000000E+00 0. -1.
         23    2    1    2    0    0 -0.14059940303E+03 -0.98463034161E+02 -0.78269106430E+03  0.80636219032E+03  0.90285760912E+02 0.  0.
         23    2    1    2    0    0  0.56597214408E+02  0.10493319363E+03 -0.47634838658E+02  0.15678960632E+03  0.89998238824E+02 0.  0.
        -11    1    3    3    0    0 -0.42583222711E+01 -0.31314896454E+02 -0.59477277024E+02  0.67352078889E+02  0.00000000000E+00 0.  1.
         11    1    3    3    0    0 -0.13634108076E+03 -0.67148137708E+02 -0.72321378727E+03  0.73901011143E+03  0.00000000000E+00 0. -1.
        -11    1    4    4    0    0  0.58193387846E+02  0.74717821138E+02 -0.71161559595E+02  0.11846176914E+03  0.00000000000E+00 0.  1.
         11    1    4    4    0    0 -0.15961734385E+01  0.30215372492E+02  0.23526720937E+02  0.38327837175E+02  0.00000000000E+00 0. -1.
         21    1    1    2  503  501  0.44670706468E+02 -0.18033871186E+02 -0.78864453181E+02  0.92413713819E+02  0.00000000000E+00 0.  1.
          2    1    1    2  501    0  0.39331482155E+02  0.11563711718E+02 -0.80973826925E+02  0.90760374416E+02  0.00000000000E+00 0. -1.
<scales pt_clust_5="13000.00000" pt_clust_6="13000.00000" pt_clust_7="13000.00000" pt_clust_8="13000.00000" pt_clust_9="27.77083" pt_clust_10="89.46775"></scales>
<clustering>
<clus scale="   27.771">  9 10 -1 -1</clus>
<clus scale="   89.468">  1  9  2 -1</clus>
<clus scale="   89.998">  7  8 -1 -1</clus>
<clus scale="   90.286">  5  6 -1 -1</clus>
<clus scale="  183.863">  1  7  2 -1</clus>
<clus scale="   89.468">  1  5  2 -1</clus>
</clustering>
</event>
<event>
10    2  0.2421970E-006  0.9695781E+02  0.7546771E-02  0.1287332E+00
         21   -1    0    0  501  502  0.00000000000E+00  0.00000000000E+00  0.55028994224E+02  0.55028994224E+02  0.00000000000E+00 0. -1.
          2   -1    0    0  503    0 -0.00000000000E+00 -0.00000000000E+00 -0.36614618010E+03  0.36614618010E+03  0.00000000000E+00 0.  1.
         23    2    1    2    0    0 -0.15698516934E+02  0.11382584200E+02 -0.94664802440E+02  0.13443390516E+03  0.93461453970E+02 0.  0.
         23    2    1    2    0    0  0.21559810303E+02 -0.29374783326E+02 -0.63585816008E+02  0.11802031044E+03  0.92509104216E+02 0.  0.
        -11    1    3    3    0    0  0.51132946053E+01  0.32616826190E+02  0.22197510593E+01  0.33089732957E+02  0.00000000000E+00 0.  1.
         11    1    3    3    0    0 -0.20811811539E+02 -0.21234241989E+02 -0.96884553499E+02  0.10134417220E+03  0.00000000000E+00 0. -1.
        -11    1    4    4    0    0  0.24977270409E+02 -0.77575459546E+01 -0.84069716154E+02  0.88044084018E+02  0.00000000000E+00 0.  1.
         11    1    4    4    0    0 -0.34174601059E+01 -0.21617237372E+02  0.20483900147E+02  0.29976226420E+02  0.00000000000E+00 0. -1.
         21    1    1    2  503  502  0.28190707544E+02  0.14955308635E+02 -0.42285607569E+02  0.52975936572E+02  0.00000000000E+00 0.  1.
          2    1    1    2  501    0 -0.34052000914E+02  0.30368904906E+01 -0.11058095986E+03  0.11574502215E+03  0.00000000000E+00 0.  1.
<scales pt_clust_5="13000.00000" pt_clust_6="13000.00000" pt_clust_7="13000.00000" pt_clust_8="13000.00000" pt_clust_9="31.91202" pt_clust_10="25.44548"></scales>
<clustering>
<clus scale="   31.912">  2  9  1 -1</clus>
<clus scale="   25.445">  1 10  2 -1</clus>
<clus scale="   92.509">  7  8 -1 -1</clus>
<clus scale="   93.461">  5  6 -1 -1</clus>
<clus scale="   96.040">  1  7  2 -1</clus>
<clus scale="   25.445">  1  5  2 -1</clus>
</clustering>
</event>
<event>
10    2  0.2421970E-006  0.9975553E+02  0.7546771E-02  0.1280850E+00
         21   -1    0    0  503  502  0.00000000000E+00  0.00000000000E+00  0.27173872418E+03  0.27173872418E+03  0.00000000000E+00 0. -1.
          2   -1    0    0  502    0 -0.00000000000E+00 -0.00000000000E+00 -0.15109715373E+03  0.15109715373E+03  0.00000000000E+00 0. -1.
         23    2    1    2    0    0  0.23360587808E+02 -0.56454496336E+02 -0.48750255976E+02  0.11984801247E+03  0.90852250477E+02 0.  0.
         23    2    1    2    0    0 -0.43456543389E+02 -0.13517008823E+02 -0.14391059694E+02  0.10269985408E+03  0.90933914129E+02 0.  0.
        -11    1    4    4    0    0 -0.63683680581E+02  0.11496141512E+02  0.53887324326E+01  0.64936976210E+02  0.00000000000E+00 0.  1.
         11    1    4    4    0    0  0.20227137193E+02 -0.25013150336E+02 -0.19779792126E+02  0.37762877874E+02  0.00000000000E+00 0. -1.
        -13    1    3    3    0    0 -0.26903102063E+02 -0.48688666833E+02 -0.39321020223E+02  0.68121258135E+02  0.00000000000E+00 0. -1.
         13    1    3    3    0    0  0.50263689872E+02 -0.77658295029E+01 -0.94292357532E+01  0.51726754338E+02  0.00000000000E+00 0.  1.
         21    1    1    2  503  501  0.17691720400E+02  0.20635712492E+02  0.40901748673E+02  0.49109903739E+02  0.00000000000E+00 0. -1.
          2    1    1    2  501    0  0.24042351801E+01  0.49335792667E+02  0.14288113744E+03  0.15117810761E+03  0.00000000000E+00 0. -1.
<scales pt_clust_5="13000.00000" pt_clust_6="13000.00000" pt_clust_7="13000.00000" pt_clust_8="13000.00000" pt_clust_9="23.91463" pt_clust_10="79.61871"></scales>
<clustering>
<clus scale="   23.915">  9 10 -1 -1</clus>
<clus scale="   79.619">  1  9  2 -1</clus>
<clus scale="   90.852">  7  8 -1 -1</clus>
<clus scale="   90.934">  5  6 -1 -1</clus>
<clus scale="   99.681">  2  7  1 -1</clus>
<clus scale="   79.619">  1  5  2 -1</clus>
</clustering>
</event>
<event>
10    2  0.2421970E-006  0.2566917E+03  0.7546771E-02  0.1109213E+00
         21   -1    0    0  503  502  0.00000000000E+00  0.00000000000E+00  0.30489252918E+03  0.30489252918E+03  0.00000000000E+00 0.  1.
         -2   -1    0    0    0  501 -0.00000000000E+00 -0.00000000000E+00 -0.47121956097E+03  0.47121956097E+03  0.00000000000E+00 0.  1.
         23    2    1    2    0    0 -0.16554376059E+03 -0.24017610371E+03 -0.25072286764E+03  0.39502710437E+03  0.89973103578E+02 0.  0.
         23    2    1    2    0    0  0.80498968180E+02  0.16144321841E+03 -0.35994323140E+02  0.20531532019E+03  0.91185485449E+02 0.  0.
        -13    1    4    4    0    0  0.68217244040E+02  0.38065836383E+02 -0.15614887974E+02  0.79664452615E+02  0.00000000000E+00 0. -1.
         13    1    4    4    0    0  0.12281724140E+02  0.12337738203E+03 -0.20379435166E+02  0.12565086758E+03  0.00000000000E+00 0.  1.
        -13    1    3    3    0    0 -0.12214406823E+03 -0.17472704454E+03 -0.12599435284E+03  0.24763539821E+03  0.00000000000E+00 0.  1.
         13    1    3    3    0    0 -0.43399692364E+02 -0.65449059177E+02 -0.12472851479E+03  0.14739170617E+03  0.00000000000E+00 0. -1.
         21    1    1    2  503  501  0.19331347265E+02  0.30945681791E+02  0.73246369329E+02  0.81831331582E+02  0.00000000000E+00 0.  1.
         -2    1    1    2    0  502  0.65713445149E+02  0.47787203509E+02  0.47143789653E+02  0.93938334004E+02  0.00000000000E+00 0.  1.
<scales pt_clust_5="13000.00000" pt_clust_6="13000.00000" pt_clust_7="13000.00000" pt_clust_8="13000.00000" pt_clust_9="36.48748" pt_clust_10="91.84764"></scales>
<clustering>
<clus scale="   36.487">  1  9  2 -1</clus>
<clus scale="   89.973">  7  8 -1 -1</clus>
<clus scale="   91.185">  5  6 -1 -1</clus>
<clus scale="   91.848">  1 10  2 -1</clus>
<clus scale="  256.263">  2  7  1 -1</clus>
<clus scale="   36.487">  1  5  2 -1</clus>
</clustering>
</event>
<event>
10    2  0.2421970E-006  0.9251561E+02  0.7546771E-02  0.1298533E+00
         21   -1    0    0  503  502  0.00000000000E+00  0.00000000000E+00  0.13499289981E+03  0.13499289981E+03  0.00000000000E+00 0.  1.
          1   -1    0    0  502    0 -0.00000000000E+00 -0.00000000000E+00 -0.13911753370E+03  0.13911753370E+03  0.00000000000E+00 0. -1.
         23    2    1    2    0    0 -0.12887437397E+02  0.43539075670E+01 -0.75200938730E+02  0.11918840518E+03  0.91463939284E+02 0.  0.
         23    2    1    2    0    0 -0.10017210560E+01 -0.28981635203E+02  0.46320787783E+02  0.10412376062E+03  0.88629586036E+02 0.  0.
        -13    1    3    3    0    0 -0.38543024049E+00  0.43779193587E+02 -0.61750910668E+02  0.75696375844E+02  0.00000000000E+00 0. -1.
         13    1    3    3    0    0 -0.12502007157E+02 -0.39425286020E+02 -0.13450028062E+02  0.43492029334E+02  0.00000000000E+00 0.  1.
        -13    1    4    4    0    0 -0.35306128574E+02 -0.43455438384E+02  0.26521333834E+02  0.61953845630E+02  0.00000000000E+00 0.  1.
         13    1    4    4    0    0  0.34304407518E+02  0.14473803181E+02  0.19799453949E+02  0.42169914991E+02  0.00000000000E+00 0. -1.
         21    1    1    2  503  501 -0.79373082064E+01  0.19591214264E+02  0.16890994694E+02  0.27057757476E+02  0.00000000000E+00 0. -1.
          1    1    1    2  501    0  0.21826466660E+02  0.50365133716E+01  0.78645223652E+01  0.23740510227E+02  0.00000000000E+00 0. -1.
<scales pt_clust_5="13000.00000" pt_clust_6="13000.00000" pt_clust_7="13000.00000" pt_clust_8="13000.00000" pt_clust_9="21.13804" pt_clust_10="22.12787"></scales>
<clustering>
<clus scale="   21.138">  1  9  2 -1</clus>
<clus scale="   22.128">  1 10  2 -1</clus>
<clus scale="   88.630">  7  8 -1 -1</clus>
<clus scale="   89.714">  1  7  2 -1</clus>
<clus scale="   91.464">  5  6 -1 -1</clus>
<clus scale="   21.138">  1  5  2 -1</clus>
</clustering>
</event>
<event>
10    2  0.2421970E-006  0.1145884E+03  0.7546771E-02  0.1260411E+00
         21   -1    0    0  501  502  0.00000000000E+00  0.00000000000E+00  0.56797068233E+02  0.56797068233E+02  0.00000000000E+00 0.  1.
         -1   -1    0    0    0  501 -0.00000000000E+00 -0.00000000000E+00 -0.75122926450E+03  0.75122926450E+03  0.00000000000E+00 0.  1.
         23    2    1    2    0    0  0.22903309932E+02  0.34761314173E+02 -0.38983946692E+03  0.40340763671E+03  0.95026316449E+02 0.  0.
         23    2    1    2    0    0 -0.67559428449E+02 -0.87962943783E+02 -0.29898524425E+03  0.32729435581E+03  0.73672676190E+02 0.  0.
        -13    1    4    4    0    0 -0.77694227857E+02 -0.51548994202E+02 -0.23715707533E+03  0.25482772656E+03  0.00000000000E+00 0. -1.
         13    1    4    4    0    0  0.10134799408E+02 -0.36413949581E+02 -0.61828168918E+02  0.72466629250E+02  0.00000000000E+00 0.  1.
        -13    1    3    3    0    0 -0.29570703004E+02 -0.12441406587E+02 -0.15032703779E+03  0.15371217702E+03  0.00000000000E+00 0.  1.
         13    1    3    3    0    0  0.52474012936E+02  0.47202720760E+02 -0.23951242913E+03  0.24969545968E+03  0.00000000000E+00 0. -1.
         21    1    1    2  503  502  0.45967690021E+01  0.28690308864E+02  0.41701517871E+01  0.29353948183E+02  0.00000000000E+00 0.  1.
         -1    1    1    2    0  503  0.40059349515E+02  0.24511320747E+02 -0.97776368847E+01  0.47970392028E+02  0.00000000000E+00 0.  1.
<scales pt_clust_5="13000.00000" pt_clust_6="13000.00000" pt_clust_7="13000.00000" pt_clust_8="13000.00000" pt_clust_9="26.35938" pt_clust_10="77.12075"></scales>
<clustering>
<clus scale="   26.359">  9 10 -1 -1</clus>
<clus scale="   73.673">  5  6 -1 -1</clus>
<clus scale="   77.121">  1  9  2 -1</clus>
<clus scale="   95.026">  7  8 -1 -1</clus>
<clus scale="   97.612">  1  5  2 -1</clus>
<clus scale="   77.121">  1  5  2 -1</clus>
</clustering>
</event>
<event>
10    2  0.2421970E-006  0.1733174E+03  0.7546771E-02  0.1181409E+00
         21   -1    0    0  503  502  0.00000000000E+00  0.00000000000E+00  0.66095480314E+02  0.66095480314E+02  0.00000000000E+00 0. -1.
          2   -1    0    0  502    0 -0.00000000000E+00 -0.00000000000E+00 -0.11609600072E+04  0.11609600072E+04  0.00000000000E+00 0. -1.
         23    2    1    2    0    0  0.11095270472E+03 -0.35998270445E+02 -0.49477386755E+03  0.51645618077E+03  0.91210901120E+02 0.  0.
         23    2    1    2    0    0 -0.70659822479E+02  0.17337788629E+03 -0.44555115352E+03  0.49166597199E+03  0.90370878265E+02 0.  0.
        -11    1    3    3    0    0  0.99744064001E+02  0.59777844510E+01 -0.39843330714E+03  0.41077209308E+03  0.00000000000E+00 0. -1.
         11    1    3    3    0    0  0.11208640721E+02 -0.41976054896E+02 -0.96340560406E+02  0.10568408769E+03  0.00000000000E+00 0.  1.
        -13    1    4    4    0    0 -0.80666761029E+02  0.11657427645E+03 -0.24576070561E+03  0.28371643006E+03  0.00000000000E+00 0.  1.
         13    1    4    4    0    0  0.10006938550E+02  0.56803609833E+02 -0.19979044791E+03  0.20794954193E+03  0.00000000000E+00 0. -1.
         21    1    1    2  503  501  0.10371887695E+01 -0.34985300265E+02 -0.88053565108E+01  0.36091291172E+02  0.00000000000E+00 0. -1.
          2    1    1    2  501    0 -0.41330071012E+02 -0.10239431558E+03 -0.14573414934E+03  0.18284204362E+03  0.00000000000E+00 0. -1.
<scales pt_clust_5="13000.00000" pt_clust_6="13000.00000" pt_clust_7="13000.00000" pt_clust_8="13000.00000" pt_clust_9="33.55754" pt_clust_10="159.45120"></scales>
<clustering>
<clus scale="   33.558">  9 10 -1 -1</clus>
<clus scale="   90.371">  7  8 -1 -1</clus>
<clus scale="   91.211">  5  6 -1 -1</clus>
<clus scale="  148.074">  2  5  1 -1</clus>
<clus scale="  159.451">  1  9  2 -1</clus>
<clus scale="  159.451">  1  5  2 -1</clus>
</clustering>
</event>
<event>
10    2  0.2421970E-006  0.1776673E+03  0.7546771E-02  0.1170556E+00
         21   -1    0    0  501  502  0.00000000000E+00  0.00000000000E+00  0.16354403661E+03  0.16354403661E+03  0.00000000000E+00 0.  1.
          2   -1    0    0  503    0 -0.00000000000E+00 -0.00000000000E+00 -0.75246295234E+03  0.75246295234E+03  0.00000000000E+00 0. -1.
         23    2    1    2    0    0 -0.18037595098E+03  0.15384535073E+02 -0.45849156311E+03  0.50212229176E+03  0.95603947757E+02 0.  0.
         23    2    1    2    0    0  0.11704120282E+03  0.25412166176E+02 -0.22246400587E+03  0.26887820904E+03  0.91982802969E+02 0.  0.
        -11    1    3    3    0    0 -0.47199792609E+02  0.16534594781E+02 -0.43498059877E+02  0.66281931625E+02  0.00000000000E+00 0.  1.
         11    1    3    3    0    0 -0.13317615837E+03 -0.11500597083E+01 -0.41499350323E+03  0.43584036014E+03  0.00000000000E+00 0. -1.
        -13    1    4    4    0    0  0.52946253154E+02 -0.20308800084E+02 -0.37854964190E+02  0.68181752674E+02  0.00000000000E+00 0. -1.
         13    1    4    4    0    0  0.64094949665E+02  0.45720966260E+02 -0.18460904168E+03  0.20069645636E+03  0.00000000000E+00 0.  1.
         21    1    1    2  503  502  0.39435496976E+02  0.21769924297E+02  0.38739368466E+02  0.59412344633E+02  0.00000000000E+00 0. -1.
          2    1    1    2  501    0  0.23899251186E+02 -0.62566625546E+02  0.53297284778E+02  0.85594143515E+02  0.00000000000E+00 0. -1.
<scales pt_clust_5="13000.00000" pt_clust_6="13000.00000" pt_clust_7="13000.00000" pt_clust_8="13000.00000" pt_clust_9="45.04540" pt_clust_10="68.72751"></scales>
<clustering>
<clus scale="   45.045">  1  9  2 -1</clus>
<clus scale="   68.728">  1 10  2 -1</clus>
<clus scale="   91.983">  7  8 -1 -1</clus>
<clus scale="   95.604">  5  6 -1 -1</clus>
<clus scale="  175.745">  1  7  2 -1</clus>
<clus scale="   45.045">  1  5  2 -1</clus>
</clustering>
</event>
<event>
10    2  0.2421970E-006  0.1459395E+03  0.7546771E-02  0.1206237E+00
          2   -1    0    0  503    0 -0.00000000000E+00  0.00000000000E+00  0.19972983040E+03  0.19972983040E+03  0.00000000000E+00 0. -1.
         21   -1    0    0  501  502  0.00000000000E+00 -0.00000000000E+00 -0.27316037934E+03  0.27316037934E+03  0.00000000000E+00 0.  1.
         23    2    1    2    0    0 -0.49067561148E+02  0.14332664086E+03  0.77107860461E+02  0.19354003162E+03  0.92530914614E+02 0.  0.
         23    2    1    2    0    0  0.45420499988E+01 -0.84516096589E+02 -0.84523301161E+02  0.14917282618E+03  0.89133286876E+02 0.  0.
        -13    1    3    3    0    0 -0.73428146897E+01  0.24120792928E+02 -0.21635591304E+02  0.33223912926E+02  0.00000000000E+00 0.  1.
         13    1    3    3    0    0 -0.41724746458E+02  0.11920584793E+03  0.98743451765E+02  0.16031611870E+03  0.00000000000E+00 0. -1.
        -13    1    4    4    0    0  0.15567807509E+02  0.15414604310E+02 -0.20343126075E+02  0.29896645885E+02  0.00000000000E+00 0. -1.
         13    1    4    4    0    0 -0.11025757510E+02 -0.99930700898E+02 -0.64180175086E+02  0.11927618029E+03  0.00000000000E+00 0.  1.
         21    1    1    2  503  502  0.43146263361E+01 -0.36904561496E+02  0.12570001933E+02  0.39224579134E+02  0.00000000000E+00 0. -1.
          2    1    1    2  501    0  0.40210884813E+02 -0.21905982775E+02 -0.78585110173E+02  0.90952772798E+02  0.00000000000E+00 0. -1.
<scales pt_clust_5="13000.00000" pt_clust_6="13000.00000" pt_clust_7="13000.00000" pt_clust_8="13000.00000" pt_clust_9="37.15592" pt_clust_10="46.56603"></scales>
<clustering>
<clus scale="   37.156">  1  9  2 -1</clus>
<clus scale="   46.566">  2 10  1 -1</clus>
<clus scale="   89.133">  7  8 -1 -1</clus>
<clus scale="   92.531">  5  6 -1 -1</clus>
<clus scale="  143.809">  2  7  1 -1</clus>
<clus scale="   46.566">  2  5  1 -1</clus>
</clustering>
</event>
<event>
10    2  0.2421970E-006  0.1321316E+03  0.7546771E-02  0.1238920E+00
         21   -1    0    0  503  502  0.00000000000E+00  0.00000000000E+00  0.75401551017E+03  0.75401551017E+03  0.00000000000E+00 0.  1.
         -3   -1    0    0    0  501 -0.00000000000E+00 -0.00000000000E+00 -0.11378996220E+03  0.11378996220E+03  0.00000000000E+00 0.  1.
         23    2    1    2    0    0  0.36768450298E+01 -0.40653646677E+02 -0.86210653033E+01  0.99415367072E+02  0.90237765185E+02 0.  0.
         23    2    1    2    0    0 -0.98601664790E+02  0.79533255117E+02  0.63122058579E+02  0.16333629045E+03  0.81526207625E+02 0.  0.
        -11    1    4    4    0    0 -0.10068138867E+03  0.45392926338E+02  0.27213006442E+02  0.11374448341E+03  0.00000000000E+00 0.  1.
         11    1    4    4    0    0  0.20797238780E+01  0.34140328778E+02  0.35909052137E+02  0.49591807044E+02  0.00000000000E+00 0. -1.
        -13    1    3    3    0    0 -0.23606694232E+02  0.13876831942E+01 -0.35414922944E+02  0.42584251130E+02  0.00000000000E+00 0. -1.
         13    1    3    3    0    0  0.27283539262E+02 -0.42041329871E+02  0.26793857640E+02  0.56831115942E+02  0.00000000000E+00 0.  1.
         21    1    1    2  503  501  0.28217398684E+02  0.38662797746E+02  0.22929263047E+03  0.23423523199E+03  0.00000000000E+00 0.  1.
         -3    1    1    2    0  502  0.66707421076E+02 -0.77542406186E+02  0.35643192422E+03  0.37081858285E+03  0.00000000000E+00 0.  1.
<scales pt_clust_5="13000.00000" pt_clust_6="13000.00000" pt_clust_7="13000.00000" pt_clust_8="13000.00000" pt_clust_9="47.86474" pt_clust_10="103.98186"></scales>
<clustering>
<clus scale="   47.865">  1  9  2 -1</clus>
<clus scale="   81.526">  5  6 -1 -1</clus>
<clus scale="   90.238">  7  8 -1 -1</clus>
<clus scale="   97.832">  2  7  1 -1</clus>
<clus scale="  103.982">  1 10  2 -1</clus>
<clus scale="   47.865">  1  5  2 -1</clus>
</clustering>
</event>
<event>
10    2  0.2421970E-006  0.9636863E+02  0.7546771E-02  0.1288804E+00
         21   -1    0    0  503  502  0.00000000000E+00  0.00000000000E+00  0.34004098326E+03  0.34004098326E+03  0.00000000000E+00 0. -1.
          2   -1    0    0  502    0 -0.00000000000E+00 -0.00000000000E+00 -0.13750609789E+03  0.13750609789E+03  0.00000000000E+00 0. -1.
         23    2    1    2    0    0 -0.25928533736E+02  0.39821912653E+02 -0.48801612698E+02  0.11552317422E+03  0.93305588212E+02 0.  0.
         23    2    1    2    0    0  0.23374207210E+01  0.97312970383E+01 -0.58453121327E+01  0.92768032199E+02  0.92041177993E+02 0.  0.
        -11    1    3    3    0    0 -0.55299626744E+02  0.21981980446E+00 -0.28366619367E+02  0.62151123345E+02  0.00000000000E+00 0.  1.
         11    1    3    3    0    0  0.29371093008E+02  0.39602092848E+02 -0.20434993332E+02  0.53372050878E+02  0.00000000000E+00 0. -1.
        -13    1    4    4    0    0  0.24261891101E+02 -0.26384695818E+02  0.22102835337E+02  0.42110887703E+02  0.00000000000E+00 0. -1.
         13    1    4    4    0    0 -0.21924470380E+02  0.36115992856E+02 -0.27948147470E+02  0.50657144495E+02  0.00000000000E+00 0.  1.
         21    1    1    2  503  501  0.34431728303E+02 -0.12190246345E+02  0.16854047389E+03  0.17245300044E+03  0.00000000000E+00 0. -1.
          2    1    1    2  501    0 -0.10840615288E+02 -0.37362963346E+02  0.88641336298E+02  0.96802874289E+02  0.00000000000E+00 0. -1.
<scales pt_clust_5="13000.00000" pt_clust_6="13000.00000" pt_clust_7="13000.00000" pt_clust_8="13000.00000" pt_clust_9="36.52596" pt_clust_10="44.74874"></scales>
<clustering>
<clus scale="   36.526">  1  9  2 -1</clus>
<clus scale="   44.749">  1 10  2 -1</clus>
<clus scale="   92.041">  7  8 -1 -1</clus>
<clus scale="   93.306">  5  6 -1 -1</clus>
<clus scale="   95.145">  1  7  2 -1</clus>
<clus scale="   36.526">  1  5  2 -1</clus>
</clustering>
</event>
<event>
10    2  0.2421970E-006  0.1223107E+03  0.7546771E-02  0.1239684E+00
         21   -1    0    0  501  502  0.00000000000E+00  0.00000000000E+00  0.29621762979E+03  0.29621762979E+03  0.00000000000E+00 0. -1.
          2   -1    0    0  503    0 -0.00000000000E+00 -0.00000000000E+00 -0.23630882570E+03  0.23630882570E+03  0.00000000000E+00 0. -1.
         23    2    1    2    0    0 -0.63830088164E+01  0.67114706242E+02 -0.54401274675E+02  0.12697101429E+03  0.92827868593E+02 0.  0.
         23    2    1    2    0    0 -0.39737920424E+01 -0.11340980300E+03  0.44763107707E+02  0.15259814841E+03  0.91678157957E+02 0.  0.
        -13    1    4    4    0    0 -0.39596681387E+02 -0.65038032297E+02 -0.24639188333E+01  0.76183421542E+02  0.00000000000E+00 0. -1.
         13    1    4    4    0    0  0.35622889344E+02 -0.48371770704E+02  0.47227026540E+02  0.76414726866E+02  0.00000000000E+00 0.  1.
        -13    1    3    3    0    0  0.34507387927E+02  0.33856128028E+02 -0.56327092534E+02  0.74227613326E+02  0.00000000000E+00 0.  1.
         13    1    3    3    0    0 -0.40890396744E+02  0.33258578213E+02  0.19258178594E+01  0.52743400962E+02  0.00000000000E+00 0. -1.
         21    1    1    2  503  502 -0.20932918671E+02 -0.95141812933E+02  0.38883381531E+02  0.10489074798E+03  0.00000000000E+00 0.  1.
          2    1    1    2  501    0  0.31289719530E+02  0.14143690969E+03  0.30663589528E+02  0.14806654482E+03  0.00000000000E+00 0. -1.
<scales pt_clust_5="13000.00000" pt_clust_6="13000.00000" pt_clust_7="13000.00000" pt_clust_8="13000.00000" pt_clust_9="97.41741" pt_clust_10="106.04915"></scales>
<clustering>
<clus scale="   91.678">  5  6 -1 -1</clus>
<clus scale="   92.828">  7  8 -1 -1</clus>
<clus scale="   97.417">  1  9  2 -1</clus>
<clus scale="  106.049">  1 10  2 -1</clus>
<clus scale="  121.440">  1  5  2 -1</clus>
<clus scale="   97.417">  1  5  2 -1</clus>
</clustering>
</event>
<event>
10    2  0.2421970E-006  0.1829419E+03  0.7546771E-02  0.1193270E+00
          3   -1    0    0  502    0 -0.00000000000E+00  0.00000000000E+00  0.58498271077E+02  0.58498271077E+02  0.00000000000E+00 0. -1.
         21   -1    0    0  503  502  0.00000000000E+00 -0.00000000000E+00 -0.13966847079E+04  0.13966847079E+04  0.00000000000E+00 0. -1.
         23    2    1    2    0    0 -0.32711983255E+02 -0.92094210346E+01 -0.25379842673E+03  0.27162074493E+03  0.90605189621E+02 0.  0.
         23    2    1    2    0    0  0.14372469458E+03 -0.99920579099E+02 -0.19165055750E+03  0.27522860736E+03  0.91542013083E+02 0.  0.
        -11    1    4    4    0    0  0.11296927560E+03 -0.90215692260E+02 -0.19506415134E+03  0.24279817030E+03  0.00000000000E+00 0. -1.
         11    1    4    4    0    0  0.30755418980E+02 -0.97048868395E+01  0.34135938434E+01  0.32430437064E+02  0.00000000000E+00 0.  1.
        -13    1    3    3    0    0 -0.13563589406E+02  0.39501676269E+02 -0.81958277318E+02  0.91986480565E+02  0.00000000000E+00 0. -1.
         13    1    3    3    0    0 -0.19148393848E+02 -0.48711097304E+02 -0.17184014941E+03  0.17963426437E+03  0.00000000000E+00 0.  1.
         21    1    1    2  503  501 -0.41166734250E+02  0.42654693828E+01 -0.24126033889E+03  0.24478448757E+03  0.00000000000E+00 0. -1.
          3    1    1    2  501    0 -0.69845977075E+02  0.10486453075E+03 -0.65147711373E+03  0.66354913913E+03  0.00000000000E+00 0. -1.
<scales pt_clust_5="13000.00000" pt_clust_6="13000.00000" pt_clust_7="13000.00000" pt_clust_8="13000.00000" pt_clust_9="35.59250" pt_clust_10="170.13067"></scales>
<clustering>
<clus scale="   35.593">  9 10 -1 -1</clus>
<clus scale="   90.605">  7  8 -1 -1</clus>
<clus scale="   91.542">  5  6 -1 -1</clus>
<clus scale="   96.769">  1  7  2 -1</clus>
<clus scale="  170.131">  2  9  1 -1</clus>
<clus scale="  170.131">  2  5  1 -1</clus>
</clustering>
</event>
<event>
10    2  0.2421970E-006  0.1947768E+03  0.7546771E-02  0.1186615E+00
         21   -1    0    0  501  502  0.00000000000E+00  0.00000000000E+00  0.31442482398E+03  0.31442482398E+03  0.00000000000E+00 0. -1.
          1   -1    0    0  503    0 -0.00000000000E+00 -0.00000000000E+00 -0.38726742610E+03  0.38726742610E+03  0.00000000000E+00 0. -1.
         23    2    1    2    0    0  0.16873239450E+02 -0.57417703569E+01 -0.12620930002E+03  0.15606651124E+03  0.90057172857E+02 0.  0.
         23    2    1    2    0    0 -0.18829081678E+03  0.90474774186E+02 -0.12935456331E+03  0.26261337795E+03  0.92704189654E+02 0.  0.
        -13    1    4    4    0    0 -0.14463405801E+03  0.77252007215E+02 -0.14018686541E+03  0.21572955428E+03  0.00000000000E+00 0. -1.
         13    1    4    4    0    0 -0.43656758774E+02  0.13222766971E+02  0.10832302103E+02  0.46883823669E+02  0.00000000000E+00 0.  1.
        -13    1    3    3    0    0 -0.31036847799E+02 -0.25081745854E+02 -0.60550479388E+02  0.72517173487E+02  0.00000000000E+00 0. -1.
         13    1    3    3    0    0  0.47910087249E+02  0.19339975497E+02 -0.65658820633E+02  0.83549337755E+02  0.00000000000E+00 0.  1.
         21    1    1    2  503  502  0.82947271604E+02 -0.20962440938E+02  0.21237369301E+02  0.88151572031E+02  0.00000000000E+00 0.  1.
          1    1    1    2  501    0  0.88470305728E+02 -0.63770562891E+02  0.16148389192E+03  0.19486078886E+03  0.00000000000E+00 0. -1.
<scales pt_clust_5="13000.00000" pt_clust_6="13000.00000" pt_clust_7="13000.00000" pt_clust_8="13000.00000" pt_clust_9="85.55509" pt_clust_10="171.30076"></scales>
<clustering>
<clus scale="   85.555">  1  9  2 -1</clus>
<clus scale="   90.057">  7  8 -1 -1</clus>
<clus scale="   92.704">  5  6 -1 -1</clus>
<clus scale="   92.881">  2  7  1 -1</clus>
<clus scale="  171.301">  1 10  2 -1</clus>
<clus scale="   85.555">  1  5  2 -1</clus>
</clustering>
</event>
<event>
10    2  0.2421970E-006  0.1017965E+03  0.7546771E-02  0.1280489E+00
         21   -1    0    0  501  502  0.00000000000E+00  0.00000000000E+00  0.25393470998E+03  0.25393470998E+03  0.00000000000E+00 0.  1.
          1   -1    0    0  503    0 -0.00000000000E+00 -0.00000000000E+00 -0.12156583619E+03  0.12156583619E+03  0.00000000000E+00 0. -1.
         23    2    1    2    0    0  0.22081727676E+02 -0.95209923293E+01 -0.60040712840E+02  0.11229707791E+03  0.91801386252E+02 0.  0.
         23    2    1    2    0    0  0.35744440337E+01  0.34182477356E+02  0.63384754276E+02  0.12275053816E+03  0.99342081393E+02 0.  0.
        -11    1    3    3    0    0  0.41502370149E+02 -0.89410230733E+00 -0.75403355526E+02  0.86075038028E+02  0.00000000000E+00 0. -1.
         11    1    3    3    0    0 -0.19420642473E+02 -0.86268900220E+01  0.15362642686E+02  0.26222039887E+02  0.00000000000E+00 0.  1.
        -11    1    4    4    0    0  0.19910524704E+02 -0.31578599112E+02  0.21163144079E+02  0.42912883650E+02  0.00000000000E+00 0. -1.
         11    1    4    4    0    0 -0.16336080670E+02  0.65761076468E+02  0.42221610197E+02  0.79837654509E+02  0.00000000000E+00 0.  1.
         21    1    1    2  503  502 -0.38658819945E+01 -0.26469390029E+02  0.35753243707E+02  0.44652750058E+02  0.00000000000E+00 0. -1.
          1    1    1    2  501    0 -0.21790289715E+02  0.18079050032E+01  0.93271588652E+02  0.95800180042E+02  0.00000000000E+00 0. -1.
<scales pt_clust_5="13000.00000" pt_clust_6="13000.00000" pt_clust_7="13000.00000" pt_clust_8="13000.00000" pt_clust_9="27.64669" pt_clust_10="21.86516"></scales>
<clustering>
<clus scale="   21.865">  1 10  2 -1</clus>
<clus scale="   27.647">  1  9  2 -1</clus>
<clus scale="   91.801">  5  6 -1 -1</clus>
<clus scale="   94.452">  2  5  1 -1</clus>
<clus scale="   99.342">  7  8 -1 -1</clus>
<clus scale="   21.865">  1  5  2 -1</clus>
</clustering>
</event>
<event>
10    2  0.2421970E-006  0.3535458E+03  0.7546771E-02  0.1061396E+00
         21   -1    0    0  501  502  0.00000000000E+00  0.00000000000E+00  0.34411220723E+03  0.34411220723E+03  0.00000000000E+00 0. -1.
          1   -1    0    0  503    0 -0.00000000000E+00 -0.00000000000E+00 -0.85744626823E+03  0.85744626823E+03  0.00000000000E+00 0. -1.
         23    2    1    2    0    0  0.38285155400E+03  0.15590386022E+03 -0.46773395857E+03  0.63211469668E+03  0.99562079789E+02 0.  0.
         23    2    1    2    0    0 -0.14269478709E+03 -0.16031610458E+03  0.71156473819E+02  0.24385325033E+03  0.91313242634E+02 0.  0.
        -13    1    3    3    0    0  0.21930973911E+03  0.12975321692E+03 -0.32849127805E+03  0.41573931583E+03  0.00000000000E+00 0. -1.
         13    1    3    3    0    0  0.16354181488E+03  0.26150643298E+02 -0.13924268052E+03  0.21637538085E+03  0.00000000000E+00 0.  1.
        -13    1    4    4    0    0 -0.83107151920E+02 -0.14141132368E+03  0.24492180225E+02  0.16584278114E+03  0.00000000000E+00 0.  1.
         13    1    4    4    0    0 -0.59587635173E+02 -0.18904780897E+02  0.46664293594E+02  0.78010469188E+02  0.00000000000E+00 0. -1.
         21    1    1    2  503  502 -0.16837769110E+03  0.90473759139E+02 -0.84378071544E+02  0.20894067797E+03  0.00000000000E+00 0. -1.
          1    1    1    2  501    0 -0.71779075808E+02 -0.86061514782E+02 -0.32378504709E+02  0.11664985048E+03  0.00000000000E+00 0. -1.
<scales pt_clust_5="13000.00000" pt_clust_6="13000.00000" pt_clust_7="13000.00000" pt_clust_8="13000.00000" pt_clust_9="197.08969" pt_clust_10="112.06614"></scales>
<clustering>
<clus scale="   91.313">  7  8 -1 -1</clus>
<clus scale="   99.562">  5  6 -1 -1</clus>
<clus scale="  112.066">  1 10  2 -1</clus>
<clus scale="  197.090">  1  9  2 -1</clus>
<clus scale="  351.312">  1  7  2 -1</clus>
<clus scale="  112.066">  1  5  2 -1</clus>
</clustering>
</event>
<event>
10    2  0.2421970E-006  0.2541521E+03  0.7546771E-02  0.1111232E+00
         21   -1    0    0  501  502  0.00000000000E+00  0.00000000000E+00  0.71184751565E+03  0.71184751565E+03  0.00000000000E+00 0.  1.
         -1   -1    0    0    0  501 -0.00000000000E+00 -0.00000000000E+00 -0.27131624017E+03  0.27131624017E+03  0.00000000000E+00 0.  1.
         23    2    1    2    0    0 -0.21408875038E+03  0.86202825081E+01 -0.86034307767E+02  0.24908233527E+03  0.93444129392E+02 0.  0.
         23    2    1    2    0    0  0.31061816746E+03 -0.65462010142E+02  0.19406586608E+03  0.38140041689E+03  0.83879657230E+02 0.  0.
        -11    1    4    4    0    0  0.41961165508E+02  0.14694755982E+01  0.61412162756E+02  0.74393228883E+02  0.00000000000E+00 0. -1.
         11    1    4    4    0    0  0.26865700195E+03 -0.66931485740E+02  0.13265370333E+03  0.30700718800E+03  0.00000000000E+00 0.  1.
        -11    1    3    3    0    0 -0.20036507749E+03 -0.18609098075E+02 -0.62970951568E+02  0.21085019220E+03  0.00000000000E+00 0.  1.
         11    1    3    3    0    0 -0.13723672897E+02  0.27229380583E+02 -0.23063356199E+02  0.38232143072E+02  0.00000000000E+00 0. -1.
         21    1    1    2  503  502 -0.37965299562E+02  0.57482956443E+01  0.85119996955E+02  0.93379980485E+02  0.00000000000E+00 0.  1.
         -1    1    1    2    0  503 -0.58564117511E+02  0.51093431989E+02  0.24737972021E+03  0.25930102318E+03  0.00000000000E+00 0.  1.
<scales pt_clust_5="13000.00000" pt_clust_6="13000.00000" pt_clust_7="13000.00000" pt_clust_8="13000.00000" pt_clust_9="25.13687" pt_clust_10="117.59179"></scales>
<clustering>
<clus scale="   25.137">  9 10 -1 -1</clus>
<clus scale="   83.880">  5  6 -1 -1</clus>
<clus scale="   93.444">  7  8 -1 -1</clus>
<clus scale="  117.592">  1  9  2 -1</clus>
<clus scale="  250.793">  1  5  2 -1</clus>
<clus scale="  117.592">  1  5  2 -1</clus>
</clustering>
</event>
<event>
10    2  0.2421970E-006  0.1096760E+03  0.7546771E-02  0.1262653E+00
         21   -1    0    0  503  502  0.00000000000E+00  0.00000000000E+00  0.20885230965E+03  0.20885230965E+03  0.00000000000E+00 0. -1.
         -2   -1    0    0    0  501 -0.00000000000E+00 -0.00000000000E+00 -0.20209117376E+03  0.20209117376E+03  0.00000000000E+00 0.  1.
         23    2    1    2    0    0  0.29112563204E+02 -0.64952932339E+02  0.36461070180E+02  0.12336346051E+03  0.93929276556E+02 0.  0.
         23    2    1    2    0    0 -0.44443198700E+02  0.20080209385E+02  0.98486931385E+02  0.14220434309E+03  0.90244040354E+02 0.  0.
        -11    1    4    4    0    0  0.57758773837E+01  0.43971721822E+02  0.59835302936E+02  0.74479101478E+02  0.00000000000E+00 0.  1.
         11    1    4    4    0    0 -0.50219076083E+02 -0.23891512436E+02  0.38651628449E+02  0.67725241608E+02  0.00000000000E+00 0. -1.
        -13    1    3    3    0    0  0.13431963671E+02 -0.88383109359E+02  0.24170722585E+02  0.92607858729E+02  0.00000000000E+00 0. -1.
         13    1    3    3    0    0  0.15680599533E+02  0.23430177020E+02  0.12290347595E+02  0.30755601781E+02  0.00000000000E+00 0.  1.
         21    1    1    2  503  501  0.87943227504E+01  0.22193970160E+02 -0.11671873606E+03  0.11913511561E+03  0.00000000000E+00 0.  1.
         -2    1    1    2    0  502  0.65363127455E+01  0.22678752794E+02 -0.11468129615E+02  0.26240564199E+02  0.00000000000E+00 0.  1.
<scales pt_clust_5="13000.00000" pt_clust_6="13000.00000" pt_clust_7="13000.00000" pt_clust_8="13000.00000" pt_clust_9="24.01372" pt_clust_10="23.60190"></scales>
<clustering>
<clus scale="   23.602">  1 10  2 -1</clus>
<clus scale="   24.014">  2  9  1 -1</clus>
<clus scale="   90.244">  5  6 -1 -1</clus>
<clus scale="   93.929">  7  8 -1 -1</clus>
<clus scale="  106.537">  1  5  2 -1</clus>
<clus scale="   23.602">  1  5  2 -1</clus>
</clustering>
</event>
<event>
10    2  0.2421970E-006  0.1420896E+03  0.7546771E-02  0.1211013E+00
         -2   -1    0    0    0  501 -0.00000000000E+00  0.00000000000E+00  0.11175237430E+03  0.11175237430E+03  0.00000000000E+00 0.  1.
         21   -1    0    0  503  502  0.00000000000E+00 -0.00000000000E+00 -0.78189290019E+03  0.78189290019E+03  0.00000000000E+00 0.  1.
         23    2    1    2    0    0 -0.12210398309E+03 -0.48686773529E+02 -0.12415948162E+02  0.16037275353E+03  0.91024610418E+02 0.  0.
         23    2    1    2    0    0  0.71518455496E+02  0.36633407956E+01 -0.13555561277E+03  0.17717183009E+03  0.88804412516E+02 0.  0.
        -11    1    4    4    0    0  0.45915007905E+02 -0.28359758565E+02 -0.12295779305E+03  0.13427986718E+03  0.00000000000E+00 0.  1.
         11    1    4    4    0    0  0.25603447591E+02  0.32023099361E+02 -0.12597819722E+02  0.42891962918E+02  0.00000000000E+00 0. -1.
        -11    1    3    3    0    0 -0.13260958435E+02 -0.44195788727E+02  0.14114750278E+02  0.48252947425E+02  0.00000000000E+00 0.  1.
         11    1    3    3    0    0 -0.10884302466E+03 -0.44909848020E+01 -0.26530698439E+02  0.11211980610E+03  0.00000000000E+00 0. -1.
         21    1    1    2  503  501 -0.49146629875E+02  0.71355072939E+02 -0.20426069232E+03  0.22187692104E+03  0.00000000000E+00 0.  1.
         -2    1    1    2    0  502  0.99732157471E+02 -0.26331640206E+02 -0.31790827263E+03  0.33422376983E+03  0.00000000000E+00 0.  1.
<scales pt_clust_5="13000.00000" pt_clust_6="13000.00000" pt_clust_7="13000.00000" pt_clust_8="13000.00000" pt_clust_9="86.64259" pt_clust_10="73.02835"></scales>
<clustering>
<clus scale="   86.643">  2  9  1 -1</clus>
<clus scale="   73.028">  2 10  1 -1</clus>
<clus scale="   88.804">  5  6 -1 -1</clus>
<clus scale="   91.025">  7  8 -1 -1</clus>
<clus scale="  140.678">  2  5  1 -1</clus>
<clus scale="   86.643">  2  5  1 -1</clus>
</clustering>
</event>
<event>
10    2  0.2421970E-006  0.1369036E+03  0.7546771E-02  0.1218134E+00
         21   -1    0    0  501  502  0.00000000000E+00  0.00000000000E+00  0.13562459176E+03  0.13562459176E+03  0.00000000000E+00 0.  1.
          1   -1    0    0  503    0 -0.00000000000E+00 -0.00000000000E+00 -0.39585410134E+03  0.39585410134E+03  0.00000000000E+00 0. -1.
         23    2    1    2    0    0  0.52550939572E+02  0.44079222252E+02 -0.19352909542E+03  0.22563408945E+03  0.93555611602E+02 0.  0.
         23    2    1    2    0    0 -0.31832266245E+02 -0.13811060798E+03 -0.72352664719E+02  0.18337176880E+03  0.91117859325E+02 0.  0.
        -13    1    4    4    0    0 -0.55619166661E+02 -0.70174707424E+02 -0.13833560344E+02  0.90605455983E+02  0.00000000000E+00 0.  1.
         13    1    4    4    0    0  0.23786900416E+02 -0.67935900558E+02 -0.58519104375E+02  0.92766312813E+02  0.00000000000E+00 0. -1.
        -13    1    3    3    0    0 -0.21211333578E+02  0.10688983537E+02 -0.95904885819E+02  0.98802440077E+02  0.00000000000E+00 0.  1.
         13    1    3    3    0    0  0.73762273150E+02  0.33390238714E+02 -0.97624209605E+02  0.12683164937E+03  0.00000000000E+00 0. -1.
         21    1    1    2  503  502  0.31036962450E+01  0.44126811046E+02 -0.32842375552E+02  0.55094736730E+02  0.00000000000E+00 0. -1.
          1    1    1    2  501    0 -0.23822369572E+02  0.49904574684E+02  0.38494626124E+02  0.67378098124E+02  0.00000000000E+00 0. -1.
<scales pt_clust_5="13000.00000" pt_clust_6="13000.00000" pt_clust_7="13000.00000" pt_clust_8="13000.00000" pt_clust_9="44.23583" pt_clust_10="56.88545"></scales>
<clustering>
<clus scale="   44.236">  2  9  1 -1</clus>
<clus scale="   56.885">  1 10  2 -1</clus>
<clus scale="   91.118">  5  6 -1 -1</clus>
<clus scale="   93.556">  7  8 -1 -1</clus>
<clus scale="  135.249">  1  5  2 -1</clus>
<clus scale="   56.885">  1  5  2 -1</clus>
</clustering>
</event>
<event>
10    2  0.2421970E-006  0.1480264E+03  0.7546771E-02  0.1203062E+00
          1   -1    0    0  503    0 -0.00000000000E+00  0.00000000000E+00  0.15204214564E+03  0.15204214564E+03  0.00000000000E+00 0. -1.
         21   -1    0    0  501  502  0.00000000000E+00 -0.00000000000E+00 -0.23364133824E+03  0.23364133824E+03  0.00000000000E+00 0.  1.
         23    2    1    2    0    0 -0.51757523230E+02  0.10172172428E+03 -0.23643175432E+01  0.14595668356E+03  0.90948408875E+02 0.  0.
         23    2    1    2    0    0  0.57758147840E+02 -0.10494055947E+03 -0.14531126903E+02  0.15065508723E+03  0.90206856693E+02 0.  0.
        -11    1    3    3    0    0 -0.24747404682E+02  0.26967813097E+02  0.41368201746E+02  0.55236085102E+02  0.00000000000E+00 0. -1.
         11    1    3    3    0    0 -0.27010118549E+02  0.74753911183E+02 -0.43732519289E+02  0.90720598457E+02  0.00000000000E+00 0.  1.
        -11    1    4    4    0    0  0.66313852249E+02 -0.60294419603E+02 -0.40444293536E+02  0.98329471244E+02  0.00000000000E+00 0.  1.
         11    1    4    4    0    0 -0.85557044096E+01 -0.44646139870E+02  0.25913166633E+02  0.52325615985E+02  0.00000000000E+00 0. -1.
         21    1    1    2  503  502  0.43206277750E+01  0.27297939112E+02 -0.54212929938E+02  0.60851352299E+02  0.00000000000E+00 0.  1.
          1    1    1    2  501    0 -0.10321252384E+02 -0.24079103918E+02 -0.10490818212E+02  0.28220360788E+02  0.00000000000E+00 0. -1.
<scales pt_clust_5="13000.00000" pt_clust_6="13000.00000" pt_clust_7="13000.00000" pt_clust_8="13000.00000" pt_clust_9="20.89065" pt_clust_10="26.19793"></scales>
<clustering>
<clus scale="   26.198">  2 10  1 -1</clus>
<clus scale="   20.891">  2  9  1 -1</clus>
<clus scale="   90.207">  7  8 -1 -1</clus>
<clus scale="   90.948">  5  6 -1 -1</clus>
<clus scale="  147.572">  2  7  1 -1</clus>
<clus scale="   26.198">  2  5  1 -1</clus>
</clustering>
</event>
<event>
10    2  0.2421970E-006  0.1272224E+03  0.7546771E-02  0.1232566E+00
         -3   -1    0    0    0  501 -0.00000000000E+00  0.00000000000E+00  0.29027880307E+03  0.29027880307E+03  0.00000000000E+00 0.  1.
         21   -1    0    0  503  502  0.00000000000E+00 -0.00000000000E+00 -0.12637771070E+03  0.12637771070E+03  0.00000000000E+00 0. -1.
         23    2    1    2    0    0 -0.10945400799E+02  0.76033539659E+02  0.17976733297E+03  0.21670559206E+03  0.93509992390E+02 0.  0.
         23    2    1    2    0    0  0.53448436463E+02 -0.91983601061E+02 -0.31694656555E+02  0.14303397929E+03  0.90202271328E+02 0.  0.
        -11    1    3    3    0    0  0.60836067136E+01  0.89692121993E+02  0.17098070130E+03  0.19317372294E+03  0.00000000000E+00 0.  1.
         11    1    3    3    0    0 -0.17029007513E+02 -0.13658582333E+02  0.87866316677E+01  0.23531869120E+02  0.00000000000E+00 0. -1.
        -13    1    4    4    0    0  0.33811362039E+02 -0.87865291724E+02 -0.57522526816E+02  0.11032841331E+03  0.00000000000E+00 0. -1.
         13    1    4    4    0    0  0.19637074424E+02 -0.41183093372E+01  0.25827870261E+02  0.32705565978E+02  0.00000000000E+00 0.  1.
         21    1    1    2  503  501 -0.27182662128E+02 -0.15896265686E+01  0.19294150072E+02  0.33371968177E+02  0.00000000000E+00 0. -1.
         -3    1    1    2    0  502 -0.15320373535E+02  0.17539687970E+02 -0.34657341091E+01  0.23544974247E+02  0.00000000000E+00 0.  1.
<scales pt_clust_5="13000.00000" pt_clust_6="13000.00000" pt_clust_7="13000.00000" pt_clust_8="13000.00000" pt_clust_9="28.14243" pt_clust_10="23.28851"></scales>
<clustering>
<clus scale="   23.289">  2 10  1 -1</clus>
<clus scale="   28.142">  1  9  2 -1</clus>
<clus scale="   90.202">  7  8 -1 -1</clus>
<clus scale="   93.510">  5  6 -1 -1</clus>
<clus scale="  124.811">  2  7  1 -1</clus>
<clus scale="   23.289">  2  5  1 -1</clus>
</clustering>
</event>
<event>
10    2  0.2421970E-006  0.9592811E+02  0.7546771E-02  0.1289151E+00
          2   -1    0    0  503    0 -0.00000000000E+00  0.00000000000E+00  0.89778125739E+02  0.89778125739E+02  0.00000000000E+00 0. -1.
         21   -1    0    0  501  502  0.00000000000E+00 -0.00000000000E+00 -0.26132422160E+03  0.26132422160E+03  0.00000000000E+00 0.  1.
         23    2    1    2    0    0 -0.64047315420E+01 -0.18544021385E+02 -0.33581534995E+00  0.94072075414E+02  0.92002941722E+02 0.  0.
         23    2    1    2    0    0 -0.14091717818E+02  0.56533522959E+02 -0.13593325454E+03  0.17422666011E+03  0.92100291391E+02 0.  0.
        -13    1    3    3    0    0 -0.25463535272E+02 -0.37677715902E+02  0.29206147879E+02  0.54046285516E+02  0.00000000000E+00 0. -1.
         13    1    3    3    0    0  0.19058803730E+02  0.19133694517E+02 -0.29541963229E+02  0.40025789898E+02  0.00000000000E+00 0.  1.
        -13    1    4    4    0    0 -0.22897293902E+02 -0.32211214126E+01 -0.10273376854E+03  0.10530379333E+03  0.00000000000E+00 0.  1.
         13    1    4    4    0    0  0.88055760837E+01  0.59754644371E+02 -0.33199485991E+02  0.68922866772E+02  0.00000000000E+00 0. -1.
         21    1    1    2  503  502  0.25324799011E+02  0.86473642238E+01 -0.56779391897E+01  0.27356193931E+02  0.00000000000E+00 0.  1.
          2    1    1    2  501    0 -0.48283496505E+01 -0.46636865798E+02 -0.29599086788E+02  0.55447417889E+02  0.00000000000E+00 0. -1.
<scales pt_clust_5="13000.00000" pt_clust_6="13000.00000" pt_clust_7="13000.00000" pt_clust_8="13000.00000" pt_clust_9="26.76046" pt_clust_10="45.22626"></scales>
<clustering>
<clus scale="   26.760">  1  9  2 -1</clus>
<clus scale="   45.226">  2 10  1 -1</clus>
<clus scale="   92.003">  5  6 -1 -1</clus>
<clus scale="   92.100">  7  8 -1 -1</clus>
<clus scale="   95.835">  1  5  2 -1</clus>
<clus scale="   45.226">  2  5  1 -1</clus>
</clustering>
</event>
<event>
10    2  0.2421970E-006  0.2192174E+03  0.7546771E-02  0.1135561E+00
         21   -1    0    0  501  502  0.00000000000E+00  0.00000000000E+00  0.20876085408E+03  0.20876085408E+03  0.00000000000E+00 0.  1.
          1   -1    0    0  503    0 -0.00000000000E+00 -0.00000000000E+00 -0.58661632257E+03  0.58661632257E+03  0.00000000000E+00 0. -1.
         23    2    1    2    0    0  0.18260731670E+03 -0.16007978691E+03 -0.28780889587E+03  0.38912165303E+03  0.98034330855E+02 0.  0.
         23    2    1    2    0    0 -0.75388455806E+02  0.10772320682E+03 -0.69347751286E+02  0.18492426184E+03  0.11000074296E+03 0.  0.
        -11    1    3    3    0    0  0.44469757769E+02 -0.80321871693E+02 -0.55367927058E+02  0.10721366412E+03  0.00000000000E+00 0.  1.
         11    1    3    3    0    0  0.13813755893E+03 -0.79757915218E+02 -0.23244096881E+03  0.28190798891E+03  0.00000000000E+00 0. -1.
        -13    1    4    4    0    0 -0.65350054973E+02  0.49709898089E+02 -0.90655602756E+02  0.12231165915E+03  0.00000000000E+00 0.  1.
         13    1    4    4    0    0 -0.10038400833E+02  0.58013308730E+02  0.21307851469E+02  0.62612602687E+02  0.00000000000E+00 0. -1.
         21    1    1    2  503  502 -0.15612884672E+03  0.55462358394E+02 -0.36839165583E+02  0.16973336177E+03  0.00000000000E+00 0.  1.
          1    1    1    2  501    0  0.48909985829E+02 -0.31057783012E+01  0.16140344248E+02  0.51597900006E+02  0.00000000000E+00 0. -1.
<scales pt_clust_5="13000.00000" pt_clust_6="13000.00000" pt_clust_7="13000.00000" pt_clust_8="13000.00000" pt_clust_9="147.87012" pt_clust_10="49.00849"></scales>
<clustering>
<clus scale="   49.008">  1 10  2 -1</clus>
<clus scale="   98.034">  5  6 -1 -1</clus>
<clus scale="  110.001">  7  8 -1 -1</clus>
<clus scale="  147.870">  1  9  2 -1</clus>
<clus scale="  213.464">  2  5  1 -1</clus>
<clus scale="   49.008">  1  5  2 -1</clus>
</clustering>
</event>
<event>
10    2  0.2421970E-006  0.3415396E+03  0.7546771E-02  0.1096382E+00
          2   -1    0    0  503    0 -0.00000000000E+00  0.00000000000E+00  0.60264247174E+03  0.60264247174E+03  0.00000000000E+00 0. -1.
         21   -1    0    0  501  502  0.00000000000E+00 -0.00000000000E+00 -0.60908786936E+03  0.60908786936E+03  0.00000000000E+00 0. -1.
         23    2    1    2    0    0 -0.82389702503E+02  0.88697030683E+02  0.57713339051E+02  0.16213086268E+03  0.91106315905E+02 0.  0.
         23    2    1    2    0    0  0.15315910615E+03  0.27078359059E+03  0.23088034999E+03  0.39833066915E+03  0.92628943854E+02 0.  0.
        -11    1    4    4    0    0 -0.62970729409E+01  0.58963936110E+02  0.47190819374E+02  0.75785040228E+02  0.00000000000E+00 0. -1.
         11    1    4    4    0    0  0.15945617909E+03  0.21181965448E+03  0.18368953061E+03  0.32254562892E+03  0.00000000000E+00 0.  1.
        -11    1    3    3    0    0 -0.37878438675E+02  0.94664001359E+02  0.20945683130E+02  0.10409020565E+03  0.00000000000E+00 0. -1.
         11    1    3    3    0    0 -0.44511263828E+02 -0.59669706766E+01  0.36767655922E+02  0.58040657031E+02  0.00000000000E+00 0.  1.
         21    1    1    2  503  502 -0.19944543703E+03 -0.82249588349E+01 -0.15148543470E+03  0.25058724873E+03  0.00000000000E+00 0. -1.
          2    1    1    2  501    0  0.12867603338E+03 -0.35125566244E+03 -0.14355365196E+03  0.40068156054E+03  0.00000000000E+00 0. -1.
<scales pt_clust_5="13000.00000" pt_clust_6="13000.00000" pt_clust_7="13000.00000" pt_clust_8="13000.00000" pt_clust_9="207.73220" pt_clust_10="328.73872"></scales>
<clustering>
<clus scale="   91.106">  7  8 -1 -1</clus>
<clus scale="   92.629">  5  6 -1 -1</clus>
<clus scale="  151.511">  1  7  2 -1</clus>
<clus scale="  207.732">  2  9  1 -1</clus>
<clus scale="  328.739">  2 10  1 -1</clus>
<clus scale="  207.732">  2  5  1 -1</clus>
</clustering>
</event>
<event>
10    2  0.2421970E-006  0.6636129E+03  0.7546771E-02  0.9972110E-01
          1   -1    0    0  503    0 -0.00000000000E+00  0.00000000000E+00  0.22213126385E+04  0.22213126385E+04  0.00000000000E+00 0. -1.
         21   -1    0    0  501  502  0.00000000000E+00 -0.00000000000E+00 -0.74492628101E+03  0.74492628101E+03  0.00000000000E+00 0. -1.
         23    2    1    2    0    0  0.21245764207E+03  0.31640483685E+03  0.74996102137E+03  0.84609719029E+03  0.90491167399E+02 0.  0.
         23    2    1    2    0    0 -0.56684772610E+03  0.22581758573E+03  0.62806312378E+03  0.88058016991E+03  0.92995814848E+02 0.  0.
        -11    1    4    4    0    0 -0.52087082864E+03  0.20721305453E+03  0.53383278176E+03  0.77409373397E+03  0.00000000000E+00 0. -1.
         11    1    4    4    0    0 -0.45976897457E+02  0.18604531192E+02  0.94230342021E+02  0.10648643593E+03  0.00000000000E+00 0.  1.
        -13    1    3    3    0    0  0.98614107261E+02  0.16575634455E+03  0.28371541437E+03  0.34306609314E+03  0.00000000000E+00 0.  1.
         13    1    3    3    0    0  0.11384353481E+03  0.15064849230E+03  0.46624560700E+03  0.50303109715E+03  0.00000000000E+00 0. -1.
         21    1    1    2  503  502  0.66631035501E+03 -0.37568636046E+03  0.31237101938E+03  0.82624777420E+03  0.00000000000E+00 0. -1.
          1    1    1    2  501    0 -0.31192027098E+03 -0.16653606211E+03 -0.21400880709E+03  0.41331378508E+03  0.00000000000E+00 0. -1.
<scales pt_clust_5="13000.00000" pt_clust_6="13000.00000" pt_clust_7="13000.00000" pt_clust_8="13000.00000" pt_clust_9="657.06463" pt_clust_10="353.59372"></scales>
<clustering>
<clus scale="   90.491">  7  8 -1 -1</clus>
<clus scale="   92.996">  5  6 -1 -1</clus>
<clus scale="  353.594">  2 10  1 -1</clus>
<clus scale="  358.432">  1  7  2 -1</clus>
<clus scale="  657.065">  2  9  1 -1</clus>
<clus scale="  353.594">  2  5  1 -1</clus>
</clustering>
</event>
<event>
10    2  0.2421970E-006  0.1426960E+03  0.7546771E-02  0.1209981E+00
         21   -1    0    0  503  502  0.00000000000E+00  0.00000000000E+00  0.90229729560E+02  0.90229729560E+02  0.00000000000E+00 0. -1.
          1   -1    0    0  502    0 -0.00000000000E+00 -0.00000000000E+00 -0.74373422106E+03  0.74373422106E+03  0.00000000000E+00 0. -1.
         23    2    1    2    0    0  0.10387733173E+02  0.93338704130E+02 -0.38481213118E+03  0.40694146040E+03  0.93278921496E+02 0.  0.
         23    2    1    2    0    0  0.60761345162E+02 -0.14578061516E+03 -0.25300420413E+03  0.31217474575E+03  0.92184682876E+02 0.  0.
        -13    1    3    3    0    0 -0.35650034695E+02  0.41682375623E+02 -0.10226628406E+03  0.11604627640E+03  0.00000000000E+00 0.  1.
         13    1    3    3    0    0  0.46037767869E+02  0.51656328507E+02 -0.28254584712E+03  0.29089518400E+03  0.00000000000E+00 0. -1.
        -13    1    4    4    0    0  0.83827617428E+01 -0.39453744704E+02 -0.96240432038E+01  0.41466744184E+02  0.00000000000E+00 0.  1.
         13    1    4    4    0    0  0.52378583420E+02 -0.10632687046E+03 -0.24338016092E+03  0.27070800157E+03  0.00000000000E+00 0. -1.
         21    1    1    2  503  501  0.31481596559E+01  0.29210744541E+02  0.12674533548E+02  0.31997223419E+02  0.00000000000E+00 0.  1.
          1    1    1    2  501    0 -0.74297237992E+02  0.23231166489E+02 -0.28362689738E+02  0.82850521053E+02  0.00000000000E+00 0. -1.
<scales pt_clust_5="13000.00000" pt_clust_6="13000.00000" pt_clust_7="13000.00000" pt_clust_8="13000.00000" pt_clust_9="29.37990" pt_clust_10="80.96695"></scales>
<clustering>
<clus scale="   29.380">  1  9  2 -1</clus>
<clus scale="   80.967">  1 10  2 -1</clus>
<clus scale="   92.185">  7  8 -1 -1</clus>
<clus scale="   93.279">  5  6 -1 -1</clus>
<clus scale="  141.983">  1  7  2 -1</clus>
<clus scale="   29.380">  1  5  2 -1</clus>
</clustering>
</event>
<event>
10    2  0.2421970E-006  0.2251183E+03  0.7546771E-02  0.1130662E+00
         -1   -1    0    0    0  501 -0.00000000000E+00  0.00000000000E+00  0.31297640581E+03  0.31297640581E+03  0.00000000000E+00 0.  1.
         21   -1    0    0  501  502  0.00000000000E+00 -0.00000000000E+00 -0.50147827310E+03  0.50147827310E+03  0.00000000000E+00 0.  1.
         23    2    1    2    0    0  0.10596927804E+03 -0.14637877916E+03  0.10368291632E+03  0.22770399558E+03  0.91884316354E+02 0.  0.
         23    2    1    2    0    0 -0.16642855025E+03  0.19872048109E+03  0.61123122704E+01  0.27266664735E+03  0.84388673838E+02 0.  0.
        -11    1    4    4    0    0 -0.43314934193E+01  0.27123741462E+02 -0.21667562432E+02  0.34984888851E+02  0.00000000000E+00 0. -1.
         11    1    4    4    0    0 -0.16209705683E+03  0.17159673963E+03  0.27779874703E+02  0.23768175850E+03  0.00000000000E+00 0.  1.
        -13    1    3    3    0    0  0.11377094737E+03 -0.95280219571E+02  0.92343724242E+02  0.17478418726E+03  0.00000000000E+00 0.  1.
         13    1    3    3    0    0 -0.78016693368E+01 -0.51098559589E+02  0.11339192082E+02  0.52919808329E+02  0.00000000000E+00 0. -1.
         21    1    1    2  503  502  0.19492390228E+02  0.55827351508E+01 -0.12805087879E+03  0.12964624086E+03  0.00000000000E+00 0.  1.
         -1    1    1    2    0  503  0.40966881989E+02 -0.57924437081E+02 -0.17024621709E+03  0.18443779511E+03  0.00000000000E+00 0.  1.
<scales pt_clust_5="13000.00000" pt_clust_6="13000.00000" pt_clust_7="13000.00000" pt_clust_8="13000.00000" pt_clust_9="20.27610" pt_clust_10="74.69221"></scales>
<clustering>
<clus scale="   20.276">  2  9  1 -1</clus>
<clus scale="   74.692">  2 10  1 -1</clus>
<clus scale="   84.389">  5  6 -1 -1</clus>
<clus scale="   91.884">  7  8 -1 -1</clus>
<clus scale="  222.164">  2  5  1 -1</clus>
<clus scale="   20.276">  2  5  1 -1</clus>
</clustering>
</event>
<event>
10    2  0.2421970E-006  0.3198126E+03  0.7546771E-02  0.1075758E+00
         21   -1    0    0  501  502  0.00000000000E+00  0.00000000000E+00  0.63846074168E+03  0.63846074168E+03  0.00000000000E+00 0. -1.
          4   -1    0    0  503    0 -0.00000000000E+00 -0.00000000000E+00 -0.55601439222E+03  0.55601439222E+03  0.00000000000E+00 0. -1.
         23    2    1    2    0    0 -0.24982516439E+03  0.15897207610E+03 -0.35792244111E+03  0.47344869295E+03  0.91435536129E+02 0.  0.
         23    2    1    2    0    0  0.32860386114E+03 -0.15153820903E+03  0.17637699651E+03  0.41265916438E+03  0.90743675795E+02 0.  0.
        -11    1    4    4    0    0  0.82783199082E+02 -0.63707795578E+02  0.14397102914E+02  0.10544675358E+03  0.00000000000E+00 0. -1.
         11    1    4    4    0    0  0.24582066206E+03 -0.87830413448E+02  0.16197989359E+03  0.30721241080E+03  0.00000000000E+00 0.  1.
        -13    1    3    3    0    0 -0.11872857741E+02  0.28479337311E+02 -0.10495244010E+02  0.32591218931E+02  0.00000000000E+00 0.  1.
         13    1    3    3    0    0 -0.23795230665E+03  0.13049273879E+03 -0.34742719710E+03  0.44085747402E+03  0.00000000000E+00 0. -1.
         21    1    1    2  503  502 -0.19995183552E+02 -0.64666233914E+02  0.68229749853E+02  0.96108417628E+02  0.00000000000E+00 0. -1.
          4    1    1    2  501    0 -0.58783513203E+02  0.57232366842E+02  0.19576204421E+03  0.21225885893E+03  0.00000000000E+00 0. -1.
<scales pt_clust_5="13000.00000" pt_clust_6="13000.00000" pt_clust_7="13000.00000" pt_clust_8="13000.00000" pt_clust_9="67.68699" pt_clust_10="74.12676"></scales>
<clustering>
<clus scale="   67.687">  1  9  2 -1</clus>
<clus scale="   74.127">  1 10  2 -1</clus>
<clus scale="   90.744">  5  6 -1 -1</clus>
<clus scale="   91.436">  7  8 -1 -1</clus>
<clus scale="  319.615">  1  5  2 -1</clus>
<clus scale="   67.687">  1  5  2 -1</clus>
</clustering>
</event>
<event>
10    2  0.2421970E-006  0.1170689E+03  0.7546771E-02  0.1248836E+00
         21   -1    0    0  501  502  0.00000000000E+00  0.00000000000E+00  0.26678881882E+03  0.26678881882E+03  0.00000000000E+00 0.  1.
          2   -1    0    0  503    0 -0.00000000000E+00 -0.00000000000E+00 -0.37906304189E+03  0.37906304189E+03  0.00000000000E+00 0. -1.
         23    2    1    2    0    0 -0.73400207397E+02 -0.32501292490E+01 -0.33002961261E+03  0.35060997530E+03  0.92788230873E+02 0.  0.
         23    2    1    2    0    0  0.31716340855E+02  0.59467100563E+02  0.15808548167E+03  0.19416035435E+03  0.90360175740E+02 0.  0.
        -11    1    3    3    0    0  0.20262679335E+02 -0.72774915799E+01 -0.35485543800E+02  0.41506166726E+02  0.00000000000E+00 0.  1.
         11    1    3    3    0    0 -0.93662886732E+02  0.40273623309E+01 -0.29454406881E+03  0.30910380857E+03  0.00000000000E+00 0. -1.
        -13    1    4    4    0    0  0.31301785249E+02  0.82810879719E+02  0.13410890939E+03  0.16069425359E+03  0.00000000000E+00 0.  1.
         13    1    4    4    0    0  0.41455560572E+00 -0.23343779157E+02  0.23976572285E+02  0.33466100762E+02  0.00000000000E+00 0. -1.
         21    1    1    2  503  502  0.58238718451E+01 -0.27216929647E+02  0.29659629560E+01  0.27990635558E+02  0.00000000000E+00 0.  1.
          2    1    1    2  501    0  0.35859994697E+02 -0.29000041667E+02  0.56703944916E+02  0.73090895502E+02  0.00000000000E+00 0. -1.
<scales pt_clust_5="13000.00000" pt_clust_6="13000.00000" pt_clust_7="13000.00000" pt_clust_8="13000.00000" pt_clust_9="27.83305" pt_clust_10="51.90483"></scales>
<clustering>
<clus scale="   27.833">  1  9  2 -1</clus>
<clus scale="   51.905">  1 10  2 -1</clus>
<clus scale="   90.360">  7  8 -1 -1</clus>
<clus scale="   92.788">  5  6 -1 -1</clus>
<clus scale="  115.154">  1  7  2 -1</clus>
<clus scale="   27.833">  1  5  2 -1</clus>
</clustering>
</event>
<event>
10    2  0.2421970E-006  0.1282981E+03  0.7546771E-02  0.1242473E+00
         21   -1    0    0  501  502  0.00000000000E+00  0.00000000000E+00  0.40888643048E+02  0.40888643048E+02  0.00000000000E+00 0.  1.
          2   -1    0    0  503    0 -0.00000000000E+00 -0.00000000000E+00 -0.76476283108E+03  0.76476283108E+03  0.00000000000E+00 0. -1.
         23    2    1    2    0    0  0.30379492677E+02 -0.21644569831E+02 -0.36676859374E+03  0.38092255427E+03  0.95871737342E+02 0.  0.
         23    2    1    2    0    0  0.44479785223E+01  0.17370900738E+02 -0.33530493320E+03  0.35849029069E+03  0.12555619295E+03 0.  0.
        -11    1    4    4    0    0 -0.52279766120E+02  0.37593086630E+02 -0.13974520738E+03  0.15386727102E+03  0.00000000000E+00 0.  1.
         11    1    4    4    0    0  0.56727744642E+02 -0.20222185892E+02 -0.19555972582E+03  0.20462301967E+03  0.00000000000E+00 0. -1.
        -13    1    3    3    0    0  0.38223851128E+02  0.30053802501E+02 -0.21393826054E+03  0.21939433257E+03  0.00000000000E+00 0.  1.
         13    1    3    3    0    0 -0.78443584508E+01 -0.51698372331E+02 -0.15283033320E+03  0.16152822170E+03  0.00000000000E+00 0. -1.
         21    1    1    2  503  502 -0.25935450567E+02 -0.20103836798E+02 -0.74710096596E+00  0.32823315036E+02  0.00000000000E+00 0.  1.
          2    1    1    2  501    0 -0.88920206325E+01  0.24377505891E+02 -0.21053560135E+02  0.33415314135E+02  0.00000000000E+00 0. -1.
<scales pt_clust_5="13000.00000" pt_clust_6="13000.00000" pt_clust_7="13000.00000" pt_clust_8="13000.00000" pt_clust_9="31.31766" pt_clust_10="25.94862"></scales>
<clustering>
<clus scale="   25.949">  1 10  2 -1</clus>
<clus scale="   31.318">  1  9  2 -1</clus>
<clus scale="   95.872">  7  8 -1 -1</clus>
<clus scale="   99.436">  2  7  1 -1</clus>
<clus scale="  125.556">  5  6 -1 -1</clus>
<clus scale="   25.949">  1  5  2 -1</clus>
</clustering>
</event>
<event>
10    2  0.2421970E-006  0.1948012E+03  0.7546771E-02  0.1171186E+00
         21   -1    0    0  503  502  0.00000000000E+00  0.00000000000E+00  0.18482889880E+03  0.18482889880E+03  0.00000000000E+00 0. -1.
          2   -1    0    0  502    0 -0.00000000000E+00 -0.00000000000E+00 -0.67156009001E+03  0.67156009001E+03  0.00000000000E+00 0. -1.
         23    2    1    2    0    0  0.77141252742E+02 -0.47349982357E+02 -0.67137500521E+02  0.14758009248E+03  0.95287176558E+02 0.  0.
         23    2    1    2    0    0 -0.21065454466E+03  0.13724535795E+03 -0.46069036496E+03  0.53281368658E+03  0.91886815035E+02 0.  0.
        -11    1    4    4    0    0 -0.67368622242E+02  0.61231046680E+02 -0.25564165302E+03  0.27136769723E+03  0.00000000000E+00 0.  1.
         11    1    4    4    0    0 -0.14328592242E+03  0.76014311268E+02 -0.20504871194E+03  0.26144598935E+03  0.00000000000E+00 0. -1.
        -11    1    3    3    0    0  0.76133456031E+02 -0.69909596812E+02 -0.69974875151E+02  0.12482042303E+03  0.00000000000E+00 0.  1.
         11    1    3    3    0    0  0.10077967107E+01  0.22559614455E+02  0.28373746298E+01  0.22759669447E+02  0.00000000000E+00 0. -1.
         21    1    1    2  503  501  0.32053088171E+02 -0.31920528363E+02  0.38031677807E+02  0.59099315640E+02  0.00000000000E+00 0. -1.
          2    1    1    2  501    0  0.10146020374E+03 -0.57974847228E+02  0.30649964643E+01  0.11689589410E+03  0.00000000000E+00 0. -1.
<scales pt_clust_5="13000.00000" pt_clust_6="13000.00000" pt_clust_7="13000.00000" pt_clust_8="13000.00000" pt_clust_9="36.16379" pt_clust_10="181.33598"></scales>
<clustering>
<clus scale="   36.164">  9 10 -1 -1</clus>
<clus scale="   91.887">  5  6 -1 -1</clus>
<clus scale="   95.287">  7  8 -1 -1</clus>
<clus scale="  131.425">  2  7  1 -1</clus>
<clus scale="  181.336">  1  9  2 -1</clus>
<clus scale="  181.336">  1  5  2 -1</clus>
</clustering>
</event>
<event>
10    2  0.2421970E-006  0.1039962E+03  0.7546771E-02  0.1275776E+00
         21   -1    0    0  501  502  0.00000000000E+00  0.00000000000E+00  0.27660254361E+03  0.27660254361E+03  0.00000000000E+00 0. -1.
          3   -1    0    0  503    0 -0.00000000000E+00 -0.00000000000E+00 -0.53890613612E+03  0.53890613612E+03  0.00000000000E+00 0. -1.
         23    2    1    2    0    0 -0.10804832128E+02  0.11359673707E+02 -0.24069758742E+03  0.26068181343E+03  0.98862999540E+02 0.  0.
         23    2    1    2    0    0  0.41779765463E+02 -0.25560806518E+02 -0.26382669905E+03  0.28347133091E+03  0.91392366672E+02 0.  0.
        -13    1    3    3    0    0 -0.54416401920E+02 -0.18851697583E+01 -0.12612242465E+03  0.13737381360E+03  0.00000000000E+00 0.  1.
         13    1    3    3    0    0  0.43611569792E+02  0.13244843465E+02 -0.11457516277E+03  0.12330799983E+03  0.00000000000E+00 0. -1.
        -13    1    4    4    0    0  0.67349079628E+01 -0.54396662013E+02 -0.17983648100E+03  0.18800403113E+03  0.00000000000E+00 0.  1.
         13    1    4    4    0    0  0.35044857500E+02  0.28835855495E+02 -0.83990218045E+02  0.95467299776E+02  0.00000000000E+00 0. -1.
         21    1    1    2  503  502 -0.32745308770E+02  0.64314948498E+02  0.14148810860E+03  0.15883183788E+03  0.00000000000E+00 0. -1.
          3    1    1    2  501    0  0.17703754353E+01 -0.50113815687E+02  0.10073258535E+03  0.11252369752E+03  0.00000000000E+00 0. -1.
<scales pt_clust_5="13000.00000" pt_clust_6="13000.00000" pt_clust_7="13000.00000" pt_clust_8="13000.00000" pt_clust_9="37.06748" pt_clust_10="50.14508"></scales>
<clustering>
<clus scale="   50.145">  1 10  2 -1</clus>
<clus scale="   37.067">  1  9  2 -1</clus>
<clus scale="   91.392">  7  8 -1 -1</clus>
<clus scale="   96.922">  1  7  2 -1</clus>
<clus scale="   98.863">  5  6 -1 -1</clus>
<clus scale="   50.145">  1  5  2 -1</clus>
</clustering>
</event>
<event>
10    2  0.2421970E-006  0.1440178E+03  0.7546771E-02  0.1226999E+00
          1   -1    0    0  503    0 -0.00000000000E+00  0.00000000000E+00  0.28012139690E+03  0.28012139690E+03  0.00000000000E+00 0. -1.
         21   -1    0    0  501  502  0.00000000000E+00 -0.00000000000E+00 -0.31299014784E+03  0.31299014784E+03  0.00000000000E+00 0. -1.
         23    2    1    2    0    0  0.53434953104E+02  0.62178531075E+01 -0.85101624042E+02  0.13489750817E+03  0.89783603098E+02 0.  0.
         23    2    1    2    0    0 -0.48192493407E+02 -0.13059097720E+03  0.14249056512E+03  0.21927466225E+03  0.91658587225E+02 0.  0.
        -11    1    3    3    0    0  0.29094636803E+02 -0.36083452184E+02 -0.69728729377E+02  0.83729380224E+02  0.00000000000E+00 0. -1.
         11    1    3    3    0    0  0.24340316301E+02  0.42301305292E+02 -0.15372894666E+02  0.51168127945E+02  0.00000000000E+00 0.  1.
        -13    1    4    4    0    0  0.26196016375E+02 -0.18931703194E+02  0.23761990988E+02  0.40115743486E+02  0.00000000000E+00 0.  1.
         13    1    4    4    0    0 -0.74388509782E+02 -0.11165927400E+03  0.11872857413E+03  0.17915891877E+03  0.00000000000E+00 0. -1.
         21    1    1    2  503  502 -0.88687668749E+02  0.54470292193E+02 -0.76603650138E+02  0.12923093490E+03  0.00000000000E+00 0. -1.
          1    1    1    2  501    0  0.83445209052E+02  0.69902831896E+02 -0.13654041879E+02  0.10970843942E+03  0.00000000000E+00 0. -1.
<scales pt_clust_5="13000.00000" pt_clust_6="13000.00000" pt_clust_7="13000.00000" pt_clust_8="13000.00000" pt_clust_9="104.07937" pt_clust_10="111.08485"></scales>
<clustering>
<clus scale="   89.784">  5  6 -1 -1</clus>
<clus scale="   91.659">  7  8 -1 -1</clus>
<clus scale="  104.079">  2  9  1 -1</clus>
<clus scale="   96.524">  1  5  2 -1</clus>
<clus scale="  111.085">  2 10  1 -1</clus>
<clus scale="  104.079">  2  5  1 -1</clus>
</clustering>
</event>
<event>
10    2  0.2421970E-006  0.1465584E+03  0.7546771E-02  0.1205406E+00
         21   -1    0    0  503  502  0.00000000000E+00  0.00000000000E+00  0.18402482948E+03  0.18402482948E+03  0.00000000000E+00 0.  1.
         -1   -1    0    0    0  501 -0.00000000000E+00 -0.00000000000E+00 -0.41852376393E+03  0.41852376393E+03  0.00000000000E+00 0.  1.
         23    2    1    2    0    0  0.10843298143E+02  0.10148845606E+03 -0.26145032946E+03  0.29545368722E+03  0.92299093655E+02 0.  0.
         23    2    1    2    0    0  0.72387442262E+01 -0.16838788174E+03 -0.41048912549E+02  0.19500729376E+03  0.89083967498E+02 0.  0.
        -11    1    4    4    0    0  0.36983949611E+02 -0.49427622694E+02 -0.37710124084E+02  0.72339172462E+02  0.00000000000E+00 0.  1.
         11    1    4    4    0    0 -0.29745205385E+02 -0.11896025904E+03 -0.33387884653E+01  0.12266812130E+03  0.00000000000E+00 0. -1.
        -13    1    3    3    0    0  0.28840489906E+02  0.19867736752E+02 -0.20870502086E+02  0.40768599179E+02  0.00000000000E+00 0. -1.
         13    1    3    3    0    0 -0.17997191763E+02  0.81620719304E+02 -0.24057982738E+03  0.25468508804E+03  0.00000000000E+00 0.  1.
         21    1    1    2  503  501 -0.61223637097E+01  0.29264319871E+02 -0.38057978804E+01  0.30139141534E+02  0.00000000000E+00 0.  1.
         -1    1    1    2    0  502 -0.11959678660E+02  0.37635105810E+02  0.71806105442E+02  0.81948470893E+02  0.00000000000E+00 0.  1.
<scales pt_clust_5="13000.00000" pt_clust_6="13000.00000" pt_clust_7="13000.00000" pt_clust_8="13000.00000" pt_clust_9="29.89789" pt_clust_10="52.89056"></scales>
<clustering>
<clus scale="   29.898">  1  9  2 -1</clus>
<clus scale="   52.891">  1 10  2 -1</clus>
<clus scale="   89.084">  5  6 -1 -1</clus>
<clus scale="   92.299">  7  8 -1 -1</clus>
<clus scale="  144.555">  1  5  2 -1</clus>
<clus scale="   29.898">  1  5  2 -1</clus>
</clustering>
</event>
<event>
10    2  0.2421970E-006  0.1631711E+03  0.7546771E-02  0.1201697E+00
          2   -1    0    0  503    0 -0.00000000000E+00  0.00000000000E+00  0.72215454101E+03  0.72215454101E+03  0.00000000000E+00 0. -1.
         21   -1    0    0  501  502  0.00000000000E+00 -0.00000000000E+00 -0.81986189446E+02  0.81986189446E+02  0.00000000000E+00 0.  1.
         23    2    1    2    0    0  0.58061878858E+02 -0.48195276390E+02  0.23761387471E+03  0.26591961826E+03  0.92514450089E+02 0.  0.
         23    2    1    2    0    0 -0.30142647551E+02  0.16760333138E+03  0.18620259751E+03  0.26648469908E+03  0.85692657991E+02 0.  0.
        -13    1    3    3    0    0  0.75109459199E+02 -0.16598046204E+02  0.11655893872E+03  0.13965282738E+03  0.00000000000E+00 0. -1.
         13    1    3    3    0    0 -0.17047580341E+02 -0.31597230185E+02  0.12105493599E+03  0.12626679088E+03  0.00000000000E+00 0.  1.
        -13    1    4    4    0    0  0.23347730459E+02  0.22413548954E+02  0.54059283579E+02  0.63007061790E+02  0.00000000000E+00 0. -1.
         13    1    4    4    0    0 -0.53490378010E+02  0.14518978243E+03  0.13214331393E+03  0.20347763729E+03  0.00000000000E+00 0.  1.
         21    1    1    2  503  502 -0.33006948794E+02  0.16904722329E-01  0.98469084668E+02  0.10385383763E+03  0.00000000000E+00 0. -1.
          2    1    1    2  501    0  0.50877174875E+01 -0.11942495972E+03  0.11788279468E+03  0.16788257549E+03  0.00000000000E+00 0. -1.
<scales pt_clust_5="13000.00000" pt_clust_6="13000.00000" pt_clust_7="13000.00000" pt_clust_8="13000.00000" pt_clust_9="33.00695" pt_clust_10="138.85816"></scales>
<clustering>
<clus scale="   33.007">  1  9  2 -1</clus>
<clus scale="   85.693">  7  8 -1 -1</clus>
<clus scale="   92.514">  5  6 -1 -1</clus>
<clus scale="  113.478">  1  5  2 -1</clus>
<clus scale="  138.858">  2 10  1 -1</clus>
<clus scale="  138.858">  2  5  1 -1</clus>
</clustering>
</event>
<event>
10    2  0.2421970E-006  0.1251919E+03  0.7546771E-02  0.1234899E+00
         -3   -1    0    0    0  501 -0.00000000000E+00  0.00000000000E+00  0.48551164285E+03  0.48551164285E+03  0.00000000000E+00 0.  1.
         21   -1    0    0  503  502  0.00000000000E+00 -0.00000000000E+00 -0.58856760406E+02  0.58856760406E+02  0.00000000000E+00 0. -1.
         23    2    1    2    0    0 -0.89377760805E+02  0.17913962855E+02  0.26374585582E+03  0.29332144013E+03  0.90367563799E+02 0.  0.
         23    2    1    2    0    0  0.61269726907E+02 -0.62575764863E+02  0.13258997450E+03  0.18302678473E+03  0.90823988064E+02 0.  0.
        -13    1    3    3    0    0 -0.68651219950E+02  0.53534657850E+02  0.18401839537E+03  0.20357239357E+03  0.00000000000E+00 0. -1.
         13    1    3    3    0    0 -0.20726540855E+02 -0.35620694996E+02  0.79727460455E+02  0.89749046560E+02  0.00000000000E+00 0.  1.
        -13    1    4    4    0    0 -0.14638884399E+01 -0.44873017205E+02  0.10113067212E+03  0.11064873920E+03  0.00000000000E+00 0.  1.
         13    1    4    4    0    0  0.62733615346E+02 -0.17702747658E+02  0.31459302379E+02  0.72378045533E+02  0.00000000000E+00 0. -1.
         21    1    1    2  503  501 -0.27220988178E+01  0.21485398138E+02  0.15799638397E+02  0.26807848265E+02  0.00000000000E+00 0. -1.
         -3    1    1    2    0  502  0.30830132717E+02  0.23176403870E+02  0.14519413728E+02  0.41212330129E+02  0.00000000000E+00 0.  1.
<scales pt_clust_5="13000.00000" pt_clust_6="13000.00000" pt_clust_7="13000.00000" pt_clust_8="13000.00000" pt_clust_9="21.65715" pt_clust_10="41.52274"></scales>
<clustering>
<clus scale="   21.657">  2  9  1 -1</clus>
<clus scale="   41.523">  2 10  1 -1</clus>
<clus scale="   90.368">  5  6 -1 -1</clus>
<clus scale="   90.824">  7  8 -1 -1</clus>
<clus scale="  124.861">  1  5  2 -1</clus>
<clus scale="   21.657">  2  5  1 -1</clus>
</clustering>
</event>
<event>
10    2  0.2421970E-006  0.1533259E+03  0.7546771E-02  0.1210818E+00
         -1   -1    0    0    0  501 -0.00000000000E+00  0.00000000000E+00  0.34366269622E+03  0.34366269622E+03  0.00000000000E+00 0.  1.
         21   -1    0    0  501  502  0.00000000000E+00 -0.00000000000E+00 -0.13511461267E+03  0.13511461267E+03  0.00000000000E+00 0. -1.
         23    2    1    2    0    0  0.47108380338E+02  0.57543901704E+02  0.14178030458E+02  0.11331753194E+03  0.84316940036E+02 0.  0.
         23    2    1    2    0    0  0.94718146706E+02 -0.49026578416E+02  0.14350108549E+03  0.20001360702E+03  0.89653492680E+02 0.  0.
        -11    1    4    4    0    0 -0.10638796812E+02 -0.19357148370E+02  0.35946459815E+01  0.22378665517E+02  0.00000000000E+00 0.  1.
         11    1    4    4    0    0  0.10535694352E+03 -0.29669430046E+02  0.13990643951E+03  0.17763494150E+03  0.00000000000E+00 0. -1.
        -13    1    3    3    0    0  0.64647910484E+02  0.15020780020E+02  0.65725459193E+01  0.66694636383E+02  0.00000000000E+00 0. -1.
         13    1    3    3    0    0 -0.17539530147E+02  0.42523121684E+02  0.76054845389E+01  0.46622895562E+02  0.00000000000E+00 0.  1.
         21    1    1    2  503  502 -0.71264880418E+02 -0.37709439291E+02  0.32322170743E+02  0.86864306330E+02  0.00000000000E+00 0. -1.
         -1    1    1    2    0  503 -0.70561646626E+02  0.29192116003E+02  0.18546796853E+02  0.78581863587E+02  0.00000000000E+00 0.  1.
<scales pt_clust_5="13000.00000" pt_clust_6="13000.00000" pt_clust_7="13000.00000" pt_clust_8="13000.00000" pt_clust_9="65.98694" pt_clust_10="141.66355"></scales>
<clustering>
<clus scale="   65.987">  9 10 -1 -1</clus>
<clus scale="   84.317">  7  8 -1 -1</clus>
<clus scale="   89.653">  5  6 -1 -1</clus>
<clus scale="  112.427">  1  7  2 -1</clus>
<clus scale="  141.664">  2  9  1 -1</clus>
<clus scale="  141.664">  2  5  1 -1</clus>
</clustering>
</event>
<event>
10    2  0.2421970E-006  0.9519391E+02  0.7546771E-02  0.1290942E+00
         21   -1    0    0  501  502  0.00000000000E+00  0.00000000000E+00  0.21767499355E+03  0.21767499355E+03  0.00000000000E+00 0. -1.
          2   -1    0    0  503    0 -0.00000000000E+00 -0.00000000000E+00 -0.33980805662E+03  0.33980805662E+03  0.00000000000E+00 0. -1.
         23    2    1    2    0    0  0.29015860551E+01 -0.33000233667E+02 -0.27930278630E+03  0.29565646037E+03  0.91133207456E+02 0.  0.
         23    2    1    2    0    0 -0.89507610988E+01 -0.20846134137E+02  0.13735771655E+02  0.95272560574E+02  0.91506895602E+02 0.  0.
        -13    1    3    3    0    0  0.30060185773E+02  0.20857701971E+02 -0.10038167240E+03  0.10684165225E+03  0.00000000000E+00 0.  1.
         13    1    3    3    0    0 -0.27158599717E+02 -0.53857935638E+02 -0.17892111390E+03  0.18881480813E+03  0.00000000000E+00 0. -1.
        -13    1    4    4    0    0 -0.36737797957E+02 -0.13791996803E+02  0.40256723606E+02  0.56218224537E+02  0.00000000000E+00 0.  1.
         13    1    4    4    0    0  0.27787036859E+02 -0.70541373338E+01 -0.26520951951E+02  0.39054336037E+02  0.00000000000E+00 0. -1.
         21    1    1    2  503  502 -0.27685067766E+02  0.19203204151E+02  0.39469800273E+02  0.51895001305E+02  0.00000000000E+00 0. -1.
          2    1    1    2  501    0  0.33734242809E+02  0.34643163653E+02  0.10396415131E+03  0.11465902792E+03  0.00000000000E+00 0. -1.
<scales pt_clust_5="13000.00000" pt_clust_6="13000.00000" pt_clust_7="13000.00000" pt_clust_8="13000.00000" pt_clust_9="33.69312" pt_clust_10="49.54986"></scales>
<clustering>
<clus scale="   33.693">  1  9  2 -1</clus>
<clus scale="   49.550">  1 10  2 -1</clus>
<clus scale="   91.133">  5  6 -1 -1</clus>
<clus scale="   91.507">  7  8 -1 -1</clus>
<clus scale="   94.835">  2  5  1 -1</clus>
<clus scale="   33.693">  1  5  2 -1</clus>
</clustering>
</event>
<event>
10    2  0.2421970E-006  0.1012260E+03  0.7546771E-02  0.1282825E+00
         21   -1    0    0  501  502  0.00000000000E+00  0.00000000000E+00  0.83006120667E+02  0.83006120667E+02  0.00000000000E+00 0.  1.
          1   -1    0    0  503    0 -0.00000000000E+00 -0.00000000000E+00 -0.30525967603E+03  0.30525967603E+03  0.00000000000E+00 0. -1.
         23    2    1    2    0    0 -0.25513171793E+01 -0.63669649244E+02 -0.11148946875E+03  0.15149947815E+03  0.80385675230E+02 0.  0.
         23    2    1    2    0    0 -0.37609920771E+02 -0.31110772188E+01 -0.17693991218E+02  0.10000990301E+03  0.90910496826E+02 0.  0.
        -11    1    3    3    0    0 -0.28337914167E+02  0.51909556537E+01 -0.36137308612E+02  0.46215673463E+02  0.00000000000E+00 0. -1.
         11    1    3    3    0    0  0.25786596988E+02 -0.68860604898E+02 -0.75352160143E+02  0.10528380469E+03  0.00000000000E+00 0.  1.
        -13    1    4    4    0    0 -0.10105585860E+02 -0.36745776042E+02  0.19505925401E+02  0.42811868077E+02  0.00000000000E+00 0.  1.
         13    1    4    4    0    0 -0.27504334911E+02  0.33634698823E+02 -0.37199916619E+02  0.57198034934E+02  0.00000000000E+00 0. -1.
         21    1    1    2  503  502  0.26592796412E+02 -0.50465847314E+01 -0.26796123958E+02  0.38087755219E+02  0.00000000000E+00 0.  1.
          1    1    1    2  501    0  0.13568441538E+02  0.71827311195E+02 -0.66273971430E+02  0.98668660315E+02  0.00000000000E+00 0. -1.
<scales pt_clust_5="13000.00000" pt_clust_6="13000.00000" pt_clust_7="13000.00000" pt_clust_8="13000.00000" pt_clust_9="27.06741" pt_clust_10="73.54738"></scales>
<clustering>
<clus scale="   27.067">  2  9  1 -1</clus>
<clus scale="   73.547">  1 10  2 -1</clus>
<clus scale="   80.386">  5  6 -1 -1</clus>
<clus scale="   90.910">  7  8 -1 -1</clus>
<clus scale="   91.890">  2  5  1 -1</clus>
<clus scale="   73.547">  1  5  2 -1</clus>
</clustering>
</event>
<event>
10    2  0.2421970E-006  0.2287198E+03  0.7546771E-02  0.1128535E+00
          1   -1    0    0  502    0 -0.00000000000E+00  0.00000000000E+00  0.45594289799E+03  0.45594289799E+03  0.00000000000E+00 0. -1.
         21   -1    0    0  503  502  0.00000000000E+00 -0.00000000000E+00 -0.91807661847E+03  0.91807661847E+03  0.00000000000E+00 0.  1.
         23    2    1    2    0    0  0.16497848630E+03 -0.13435976239E+03  0.37052121911E+03  0.43674216339E+03  0.90483682381E+02 0.  0.
         23    2    1    2    0    0 -0.14013539929E+03  0.70506173503E+02 -0.68300445082E+03  0.70483962520E+03  0.75463678467E+02 0.  0.
        -13    1    4    4    0    0 -0.11946549316E+03  0.22208444726E+02 -0.47051236401E+03  0.48594969263E+03  0.00000000000E+00 0.  1.
         13    1    4    4    0    0 -0.20669906127E+02  0.48297728777E+02 -0.21249208681E+03  0.21888993257E+03  0.00000000000E+00 0. -1.
        -13    1    3    3    0    0  0.20289085527E+02  0.90244298643E+01  0.14361737316E+02  0.26445166375E+02  0.00000000000E+00 0.  1.
         13    1    3    3    0    0  0.14468940078E+03 -0.14338419225E+03  0.35615948179E+03  0.41029699701E+03  0.00000000000E+00 0. -1.
         21    1    1    2  503  501 -0.63650441527E+02 -0.33328738304E+02 -0.75239288009E+02  0.10403429225E+03  0.00000000000E+00 0. -1.
          1    1    1    2  501    0  0.38807354513E+02  0.97182327189E+02 -0.74411200758E+02  0.12840343563E+03  0.00000000000E+00 0. -1.
<scales pt_clust_5="13000.00000" pt_clust_6="13000.00000" pt_clust_7="13000.00000" pt_clust_8="13000.00000" pt_clust_9="71.84834" pt_clust_10="98.13306"></scales>
<clustering>
<clus scale="   71.848">  2  9  1 -1</clus>
<clus scale="   75.464">  5  6 -1 -1</clus>
<clus scale="   90.484">  7  8 -1 -1</clus>
<clus scale="   98.133">  2 10  1 -1</clus>
<clus scale="  223.204">  2  5  1 -1</clus>
<clus scale="   71.848">  2  5  1 -1</clus>
</clustering>
</event>
<event>
10    2  0.2421970E-006  0.2392701E+03  0.7546771E-02  0.1120389E+00
         21   -1    0    0  501  502  0.00000000000E+00  0.00000000000E+00  0.72273086133E+03  0.72273086133E+03  0.00000000000E+00 0.  1.
          1   -1    0    0  503    0 -0.00000000000E+00 -0.00000000000E+00 -0.47370821494E+03  0.47370821494E+03  0.00000000000E+00 0. -1.
         23    2    1    2    0    0  0.20356274144E+03  0.78112011775E+02 -0.22782918935E+03  0.32844312560E+03  0.91812151416E+02 0.  0.
         23    2    1    2    0    0 -0.23946451265E+03  0.14445626626E+02 -0.85510355176E+02  0.27015510923E+03  0.90110117369E+02 0.  0.
        -13    1    4    4    0    0 -0.13855064803E+03  0.18464618931E+02 -0.31086638727E+01  0.13981018565E+03  0.00000000000E+00 0.  1.
         13    1    4    4    0    0 -0.10091386463E+03 -0.40189923058E+01 -0.82401691303E+02  0.13034492358E+03  0.00000000000E+00 0. -1.
        -13    1    3    3    0    0  0.18815614039E+03  0.96336312347E+02 -0.19310423198E+03  0.28630868420E+03  0.00000000000E+00 0.  1.
         13    1    3    3    0    0  0.15406601051E+02 -0.18224300572E+02 -0.34724957372E+02  0.42134441396E+02  0.00000000000E+00 0. -1.
         21    1    1    2  503  502  0.74978242339E+02 -0.12485165104E+03  0.47512236564E+03  0.49694157999E+03  0.00000000000E+00 0.  1.
          1    1    1    2  501    0 -0.39076471122E+02  0.32294012639E+02  0.87239825277E+02  0.10089926145E+03  0.00000000000E+00 0. -1.
<scales pt_clust_5="13000.00000" pt_clust_6="13000.00000" pt_clust_7="13000.00000" pt_clust_8="13000.00000" pt_clust_9="109.45783" pt_clust_10="50.69392"></scales>
<clustering>
<clus scale="   50.694">  1 10  2 -1</clus>
<clus scale="   90.110">  5  6 -1 -1</clus>
<clus scale="   91.812">  7  8 -1 -1</clus>
<clus scale="  109.458">  1  9  2 -1</clus>
<clus scale="  238.622">  1  5  2 -1</clus>
<clus scale="   50.694">  1  5  2 -1</clus>
</clustering>
</event>
<event>
10    2  0.2421970E-006  0.2205162E+03  0.7546771E-02  0.1133612E+00
         21   -1    0    0  501  502  0.00000000000E+00  0.00000000000E+00  0.11253005282E+03  0.11253005282E+03  0.00000000000E+00 0. -1.
          1   -1    0    0  503    0 -0.00000000000E+00 -0.00000000000E+00 -0.10928738126E+04  0.10928738126E+04  0.00000000000E+00 0. -1.
         23    2    1    2    0    0  0.16133124343E+03 -0.12709747923E+03 -0.55949609146E+03  0.60312164814E+03  0.92402958612E+02 0.  0.
         23    2    1    2    0    0 -0.95686278570E+02  0.19235824695E+03 -0.82094974093E+02  0.24731945780E+03  0.90938277728E+02 0.  0.
        -11    1    4    4    0    0 -0.92196839542E+02  0.12784478968E+03 -0.91151472898E+02  0.18208003317E+03  0.00000000000E+00 0. -1.
         11    1    4    4    0    0 -0.34894390279E+01  0.64513457279E+02  0.90564988051E+01  0.65239424625E+02  0.00000000000E+00 0.  1.
        -13    1    3    3    0    0  0.12472728895E+03 -0.82922903181E+02 -0.49324247116E+03  0.51548156110E+03  0.00000000000E+00 0. -1.
         13    1    3    3    0    0  0.36603954478E+02 -0.44174576050E+02 -0.66253620298E+02  0.87640087033E+02  0.00000000000E+00 0.  1.
         21    1    1    2  503  502 -0.57365010092E+02 -0.40039766815E+02 -0.29960372554E+03  0.30766267188E+03  0.00000000000E+00 0. -1.
          1    1    1    2  501    0 -0.82799547669E+01 -0.25221000909E+02 -0.39148968642E+02  0.47300087563E+02  0.00000000000E+00 0. -1.
<scales pt_clust_5="13000.00000" pt_clust_6="13000.00000" pt_clust_7="13000.00000" pt_clust_8="13000.00000" pt_clust_9="70.74767" pt_clust_10="26.54538"></scales>
<clustering>
<clus scale="   26.545">  1 10  2 -1</clus>
<clus scale="   70.748">  2  9  1 -1</clus>
<clus scale="   90.938">  5  6 -1 -1</clus>
<clus scale="   92.403">  7  8 -1 -1</clus>
<clus scale="  219.907">  1  5  2 -1</clus>
<clus scale="   26.545">  1  5  2 -1</clus>
</clustering>
</event>
<event>
10    2  0.2421970E-006  0.1349236E+03  0.7546771E-02  0.1221685E+00
          3   -1    0    0  502    0 -0.00000000000E+00  0.00000000000E+00  0.38742490984E+03  0.38742490984E+03  0.00000000000E+00 0. -1.
         21   -1    0    0  503  502  0.00000000000E+00 -0.00000000000E+00 -0.47217702299E+03  0.47217702299E+03  0.00000000000E+00 0. -1.
         23    2    1    2    0    0  0.85465545498E+02  0.69905489603E+02  0.34245678527E+03  0.37095826441E+03  0.90234401500E+02 0.  0.
         23    2    1    2    0    0 -0.39429459044E+02 -0.16243754313E+02 -0.57056648867E+02  0.11049463728E+03  0.84469295563E+02 0.  0.
        -11    1    3    3    0    0  0.93750025177E+02  0.41760590789E+02  0.31294593891E+03  0.32934506956E+03  0.00000000000E+00 0. -1.
         11    1    3    3    0    0 -0.82844796787E+01  0.28144898814E+02  0.29510846358E+02  0.41613194849E+02  0.00000000000E+00 0.  1.
        -11    1    4    4    0    0  0.21516809035E+02 -0.23726892420E+02 -0.11483388210E+02  0.34026558740E+02  0.00000000000E+00 0. -1.
         11    1    4    4    0    0 -0.60946268079E+02  0.74831381062E+01 -0.45573260657E+02  0.76468078540E+02  0.00000000000E+00 0.  1.
         21    1    1    2  503  501 -0.36114748224E+01 -0.24687339526E+02 -0.15162050500E+03  0.15365964018E+03  0.00000000000E+00 0. -1.
          3    1    1    2  501    0 -0.42424611632E+02 -0.28974395764E+02 -0.21853174455E+03  0.22448939097E+03  0.00000000000E+00 0. -1.
<scales pt_clust_5="13000.00000" pt_clust_6="13000.00000" pt_clust_7="13000.00000" pt_clust_8="13000.00000" pt_clust_9="21.87264" pt_clust_10="77.35633"></scales>
<clustering>
<clus scale="   21.873">  9 10 -1 -1</clus>
<clus scale="   77.356">  2  9  1 -1</clus>
<clus scale="   84.469">  7  8 -1 -1</clus>
<clus scale="   90.234">  5  6 -1 -1</clus>
<clus scale="  131.138">  2  7  1 -1</clus>
<clus scale="   77.356">  2  5  1 -1</clus>
</clustering>
</event>
<event>
10    2  0.2421970E-006  0.1071527E+03  0.7546771E-02  0.1266004E+00
          1   -1    0    0  503    0 -0.00000000000E+00  0.00000000000E+00  0.76194537711E+03  0.76194537711E+03  0.00000000000E+00 0. -1.
         21   -1    0    0  501  502  0.00000000000E+00 -0.00000000000E+00 -0.82855310171E+02  0.82855310171E+02  0.00000000000E+00 0.  1.
         23    2    1    2    0    0  0.41029643213E+02 -0.47711047908E+02  0.46946826977E+03  0.48228121619E+03  0.90746567184E+02 0.  0.
         23    2    1    2    0    0 -0.27573409632E+02  0.39137443715E+02  0.25320094728E+03  0.27314296891E+03  0.90577753027E+02 0.  0.
        -11    1    4    4    0    0  0.36095993161E+01  0.62605906361E+02  0.13999755370E+03  0.15340092490E+03  0.00000000000E+00 0.  1.
         11    1    4    4    0    0 -0.31183008948E+02 -0.23468462646E+02  0.11320339358E+03  0.11974204401E+03  0.00000000000E+00 0. -1.
        -11    1    3    3    0    0 -0.19938298499E+02 -0.42895479265E+02  0.25078422050E+03  0.25520635404E+03  0.00000000000E+00 0.  1.
         11    1    3    3    0    0  0.60967941712E+02 -0.48155686428E+01  0.21868404927E+03  0.22707486215E+03  0.00000000000E+00 0. -1.
         21    1    1    2  503  502 -0.37510961559E+02 -0.18488286910E+02 -0.22850497859E+02  0.47655369501E+02  0.00000000000E+00 0.  1.
          1    1    1    2  501    0  0.24054727978E+02  0.27061891103E+02 -0.20728652247E+02  0.41721132681E+02  0.00000000000E+00 0. -1.
<scales pt_clust_5="13000.00000" pt_clust_6="13000.00000" pt_clust_7="13000.00000" pt_clust_8="13000.00000" pt_clust_9="21.08654" pt_clust_10="36.20740"></scales>
<clustering>
<clus scale="   36.207">  2 10  1 -1</clus>
<clus scale="   21.087">  2  9  1 -1</clus>
<clus scale="   90.578">  5  6 -1 -1</clus>
<clus scale="   90.747">  7  8 -1 -1</clus>
<clus scale="  107.010">  2  5  1 -1</clus>
<clus scale="   36.207">  2  5  1 -1</clus>
</clustering>
</event>
<event>
10    2  0.2421970E-006  0.1182952E+03  0.7546771E-02  0.1248389E+00
         21   -1    0    0  501  502  0.00000000000E+00  0.00000000000E+00  0.28838417182E+03  0.28838417182E+03  0.00000000000E+00 0.  1.
          3   -1    0    0  503    0 -0.00000000000E+00 -0.00000000000E+00 -0.22276119088E+03  0.22276119088E+03  0.00000000000E+00 0. -1.
         23    2    1    2    0    0  0.25445926529E+02  0.76147001552E+02 -0.13727838826E+03  0.18627796655E+03  0.96996205675E+02 0.  0.
         23    2    1    2    0    0  0.43329273691E+02 -0.14227842414E+02  0.10768090290E+03  0.14755030604E+03  0.89978100142E+02 0.  0.
        -13    1    3    3    0    0 -0.36936830771E+02  0.20583632446E+02 -0.42867997214E+02  0.60213624514E+02  0.00000000000E+00 0. -1.
         13    1    3    3    0    0  0.62382757299E+02  0.55563369106E+02 -0.94410391045E+02  0.12606434203E+03  0.00000000000E+00 0.  1.
        -13    1    4    4    0    0  0.16952662950E+02  0.34292167046E+02  0.18113139642E+02  0.42325303655E+02  0.00000000000E+00 0.  1.
         13    1    4    4    0    0  0.26376610741E+02 -0.48520009461E+02  0.89567763255E+02  0.10522500238E+03  0.00000000000E+00 0. -1.
         21    1    1    2  503  502  0.16774555683E+02 -0.61078061598E+02  0.32177473434E+02  0.71044388403E+02  0.00000000000E+00 0. -1.
          3    1    1    2  501    0 -0.85549755902E+02 -0.84109753981E+00  0.63042992861E+02  0.10627270171E+03  0.00000000000E+00 0. -1.
<scales pt_clust_5="13000.00000" pt_clust_6="13000.00000" pt_clust_7="13000.00000" pt_clust_8="13000.00000" pt_clust_9="63.33968" pt_clust_10="82.72173"></scales>
<clustering>
<clus scale="   63.340">  1  9  2 -1</clus>
<clus scale="   82.722">  1 10  2 -1</clus>
<clus scale="   89.978">  7  8 -1 -1</clus>
<clus scale="   96.996">  5  6 -1 -1</clus>
<clus scale="  112.612">  1  7  2 -1</clus>
<clus scale="   63.340">  1  5  2 -1</clus>
</clustering>
</event>
<event>
10    2  0.2421970E-006  0.1004821E+03  0.7546771E-02  0.1284088E+00
         21   -1    0    0  501  502  0.00000000000E+00  0.00000000000E+00  0.28401477601E+03  0.28401477601E+03  0.00000000000E+00 0.  1.
          2   -1    0    0  503    0 -0.00000000000E+00 -0.00000000000E+00 -0.24619451591E+03  0.24619451591E+03  0.00000000000E+00 0. -1.
         23    2    1    2    0    0  0.18414995494E+01 -0.51887286668E+02 -0.17362282555E+03  0.20007447173E+03  0.84789309754E+02 0.  0.
         23    2    1    2    0    0 -0.23667123325E+00 -0.30525776568E+02  0.32985202293E+01  0.99068663596E+02  0.94190449742E+02 0.  0.
        -11    1    3    3    0    0 -0.35186290712E+02 -0.29436971460E+02 -0.44614056944E+02  0.63992377826E+02  0.00000000000E+00 0.  1.
         11    1    3    3    0    0  0.37027790261E+02 -0.22450315207E+02 -0.12900876861E+03  0.13608209391E+03  0.00000000000E+00 0. -1.
        -11    1    4    4    0    0  0.30053216660E+02 -0.55087246648E-01 -0.31679261650E+02  0.43666628962E+02  0.00000000000E+00 0.  1.
         11    1    4    4    0    0 -0.30289887893E+02 -0.30470689322E+02  0.34977781880E+02  0.55402034633E+02  0.00000000000E+00 0. -1.
         21    1    1    2  503  502 -0.17402345891E+02  0.31688583894E+02  0.36443409462E+02  0.51333518143E+02  0.00000000000E+00 0.  1.
          2    1    1    2  501    0  0.15797517575E+02  0.50724479342E+02  0.17170115596E+03  0.17973263845E+03  0.00000000000E+00 0. -1.
<scales pt_clust_5="13000.00000" pt_clust_6="13000.00000" pt_clust_7="13000.00000" pt_clust_8="13000.00000" pt_clust_9="36.15257" pt_clust_10="73.97663"></scales>
<clustering>
<clus scale="   36.153">  1  9  2 -1</clus>
<clus scale="   73.977">  1 10  2 -1</clus>
<clus scale="   84.789">  5  6 -1 -1</clus>
<clus scale="   91.728">  2  5  1 -1</clus>
<clus scale="   94.190">  7  8 -1 -1</clus>
<clus scale="   36.153">  1  5  2 -1</clus>
</clustering>
</event>
<event>
10    2  0.2421970E-006  0.2130444E+03  0.7546771E-02  0.1140222E+00
          1   -1    0    0  503    0 -0.00000000000E+00  0.00000000000E+00  0.42086389731E+03  0.42086389731E+03  0.00000000000E+00 0. -1.
         21   -1    0    0  501  502  0.00000000000E+00 -0.00000000000E+00 -0.34393694563E+03  0.34393694563E+03  0.00000000000E+00 0. -1.
         23    2    1    2    0    0  0.17539570411E+03 -0.99272308975E+02  0.27036842900E+03  0.34957001315E+03  0.92094855133E+02 0.  0.
         23    2    1    2    0    0 -0.17874369734E+03 -0.39679522195E+02 -0.16191295473E+03  0.25688583210E+03  0.79061697449E+02 0.  0.
        -11    1    3    3    0    0  0.28293435086E+02 -0.63249710296E+02  0.71071449104E+02  0.99258224844E+02  0.00000000000E+00 0.  1.
         11    1    3    3    0    0  0.14710226902E+03 -0.36022598679E+02  0.19929697990E+03  0.25031178830E+03  0.00000000000E+00 0. -1.
        -13    1    4    4    0    0 -0.13367340373E+03 -0.62396690463E+02 -0.10658462519E+03  0.18199507733E+03  0.00000000000E+00 0. -1.
         13    1    4    4    0    0 -0.45070293612E+02  0.22717168267E+02 -0.55328329545E+02  0.74890754774E+02  0.00000000000E+00 0.  1.
         21    1    1    2  503  502 -0.19661309788E+02  0.11694347388E+03 -0.81897239210E+01  0.11886721484E+03  0.00000000000E+00 0. -1.
          1    1    1    2  501    0  0.23009303020E+02  0.22008357294E+02 -0.23338798661E+02  0.39477782855E+02  0.00000000000E+00 0. -1.
<scales pt_clust_5="13000.00000" pt_clust_6="13000.00000" pt_clust_7="13000.00000" pt_clust_8="13000.00000" pt_clust_9="122.33827" pt_clust_10="31.84016"></scales>
<clustering>
<clus scale="   31.840">  2 10  1 -1</clus>
<clus scale="   79.062">  7  8 -1 -1</clus>
<clus scale="   92.095">  5  6 -1 -1</clus>
<clus scale="  122.338">  2  9  1 -1</clus>
<clus scale="  207.743">  2  7  1 -1</clus>
<clus scale="   31.840">  2  5  1 -1</clus>
</clustering>
</event>
<event>
10    2  0.2421970E-006  0.1011993E+03  0.7546771E-02  0.1279531E+00
         -1   -1    0    0    0  501 -0.00000000000E+00  0.00000000000E+00  0.16910862466E+03  0.16910862466E+03  0.00000000000E+00 0.  1.
         21   -1    0    0  503  502  0.00000000000E+00 -0.00000000000E+00 -0.19939978712E+03  0.19939978712E+03  0.00000000000E+00 0. -1.
         23    2    1    2    0    0 -0.11757921186E+02  0.29745211746E+02  0.45245657102E+02  0.10512256072E+03  0.89333963041E+02 0.  0.
         23    2    1    2    0    0 -0.54074239880E+02 -0.47313653988E+02  0.38089662325E+02  0.12349243963E+03  0.92935219356E+02 0.  0.
        -13    1    3    3    0    0 -0.28822978966E+02  0.42391309226E+02  0.60258061058E+02  0.79112711601E+02  0.00000000000E+00 0. -1.
         13    1    3    3    0    0  0.17065057780E+02 -0.12646097480E+02 -0.15012403955E+02  0.26009849116E+02  0.00000000000E+00 0.  1.
        -13    1    4    4    0    0 -0.53844992295E+02 -0.49452854100E+01  0.55682371835E+02  0.77616142498E+02  0.00000000000E+00 0. -1.
         13    1    4    4    0    0 -0.22924758568E+00 -0.42368368578E+02 -0.17592709511E+02  0.45876297130E+02  0.00000000000E+00 0.  1.
         21    1    1    2  503  501  0.20508369243E+02 -0.11276901368E+02 -0.15651948270E+02  0.28155731177E+02  0.00000000000E+00 0. -1.
         -1    1    1    2    0  502  0.45323791823E+02  0.28845343611E+02 -0.97974533617E+02  0.11173768026E+03  0.00000000000E+00 0.  1.
<scales pt_clust_5="13000.00000" pt_clust_6="13000.00000" pt_clust_7="13000.00000" pt_clust_8="13000.00000" pt_clust_9="23.40431" pt_clust_10="61.57405"></scales>
<clustering>
<clus scale="   23.404">  2  9  1 -1</clus>
<clus scale="   61.574">  2 10  1 -1</clus>
<clus scale="   89.334">  5  6 -1 -1</clus>
<clus scale="   92.935">  7  8 -1 -1</clus>
<clus scale="   97.903">  1  5  2 -1</clus>
<clus scale="   23.404">  2  5  1 -1</clus>
</clustering>
</event>
<event>
10    2  0.2421970E-006  0.3537949E+03  0.7546771E-02  0.1107065E+00
          3   -1    0    0  502    0 -0.00000000000E+00  0.00000000000E+00  0.15879525470E+04  0.15879525470E+04  0.00000000000E+00 0. -1.
         21   -1    0    0  503  502  0.00000000000E+00 -0.00000000000E+00 -0.25271435327E+03  0.25271435327E+03  0.00000000000E+00 0. -1.
         23    2    1    2    0    0 -0.34770525901E+02 -0.29888703031E+02  0.39555854988E+03  0.40884924109E+03  0.92675841068E+02 0.  0.
         23    2    1    2    0    0 -0.19129990844E+02 -0.30751830460E+03  0.10244719644E+04  0.10749949826E+04  0.10553645098E+03 0.  0.
        -11    1    4    4    0    0 -0.41165335814E+02 -0.28528501424E+03  0.84487012893E+03  0.89268564399E+03  0.00000000000E+00 0. -1.
         11    1    4    4    0    0  0.22035344970E+02 -0.22233290357E+02  0.17960183548E+03  0.18230933859E+03  0.00000000000E+00 0.  1.
        -13    1    3    3    0    0 -0.53539156671E+02 -0.49727984951E+02  0.32671436953E+03  0.33478589134E+03  0.00000000000E+00 0. -1.
         13    1    3    3    0    0  0.18768630770E+02  0.19839281920E+02  0.68844180354E+02  0.74063349753E+02  0.00000000000E+00 0.  1.
         21    1    1    2  503  501  0.45093312900E+02  0.21415892779E+03 -0.80485555067E+02  0.23318528641E+03  0.00000000000E+00 0. -1.
          3    1    1    2  501    0  0.88072038450E+01  0.12324807984E+03 -0.43067655004E+01  0.12363739019E+03  0.00000000000E+00 0. -1.
<scales pt_clust_5="13000.00000" pt_clust_6="13000.00000" pt_clust_7="13000.00000" pt_clust_8="13000.00000" pt_clust_9="43.70949" pt_clust_10="342.66135"></scales>
<clustering>
<clus scale="   43.709">  9 10 -1 -1</clus>
<clus scale="   92.676">  7  8 -1 -1</clus>
<clus scale="  103.398">  1  7  2 -1</clus>
<clus scale="  105.536">  5  6 -1 -1</clus>
<clus scale="  342.661">  2  9  1 -1</clus>
<clus scale="  342.661">  2  5  1 -1</clus>
</clustering>
</event>
<event>
10    2  0.2421970E-006  0.2685118E+03  0.7546771E-02  0.1119042E+00
          2   -1    0    0  502    0 -0.00000000000E+00  0.00000000000E+00  0.13640227705E+03  0.13640227705E+03  0.00000000000E+00 0. -1.
         21   -1    0    0  503  502  0.00000000000E+00 -0.00000000000E+00 -0.15583074798E+04  0.15583074798E+04  0.00000000000E+00 0. -1.
         23    2    1    2    0    0 -0.10158865173E+03  0.10282994340E+03 -0.14640803978E+02  0.17524129544E+03  0.97984218458E+02 0.  0.
         23    2    1    2    0    0 -0.20830627009E+03 -0.91980298147E+02 -0.72740437494E+03  0.76810009681E+03  0.94914470021E+02 0.  0.
        -11    1    3    3    0    0 -0.85470019241E+02  0.11572298285E+03 -0.33018492629E+02  0.14760472149E+03  0.00000000000E+00 0. -1.
         11    1    3    3    0    0 -0.16118632485E+02 -0.12893039457E+02  0.18377688650E+02  0.27636573951E+02  0.00000000000E+00 0.  1.
        -13    1    4    4    0    0 -0.14322265023E+03 -0.69394051793E+02 -0.35033911682E+03  0.38479313760E+03  0.00000000000E+00 0. -1.
         13    1    4    4    0    0 -0.65083619861E+02 -0.22586246354E+02 -0.37706525812E+03  0.38330695921E+03  0.00000000000E+00 0.  1.
         21    1    1    2  503  501  0.20694886524E+02  0.73564681183E+01 -0.16471568200E+02  0.27453752209E+02  0.00000000000E+00 0. -1.
          2    1    1    2  501    0  0.28920003529E+03 -0.18206113367E+02 -0.66338845568E+03  0.72391461244E+03  0.00000000000E+00 0. -1.
<scales pt_clust_5="13000.00000" pt_clust_6="13000.00000" pt_clust_7="13000.00000" pt_clust_8="13000.00000" pt_clust_9="21.66429" pt_clust_10="263.21490"></scales>
<clustering>
<clus scale="   21.664">  9 10 -1 -1</clus>
<clus scale="   94.914">  7  8 -1 -1</clus>
<clus scale="   97.984">  5  6 -1 -1</clus>
<clus scale="  174.629">  1  5  2 -1</clus>
<clus scale="  263.215">  2  9  1 -1</clus>
<clus scale="  263.215">  2  5  1 -1</clus>
</clustering>
</event>
<event>
10    2  0.2421970E-006  0.3199902E+03  0.7546771E-02  0.1120733E+00
         21   -1    0    0  501  502  0.00000000000E+00  0.00000000000E+00  0.67600154071E+03  0.67600154071E+03  0.00000000000E+00 0. -1.
          1   -1    0    0  503    0 -0.00000000000E+00 -0.00000000000E+00 -0.40360004569E+03  0.40360004569E+03  0.00000000000E+00 0. -1.
         23    2    1    2    0    0  0.27663222001E+02 -0.26511242898E+02  0.85725697629E+02  0.12967571921E+03  0.89435994242E+02 0.  0.
         23    2    1    2    0    0 -0.34432679682E+03 -0.96453649989E+02 -0.18356610148E+03  0.41041311465E+03  0.82934681896E+02 0.  0.
        -11    1    4    4    0    0 -0.11491959193E+03 -0.68587456703E+02 -0.88981901587E+02  0.16071257149E+03  0.00000000000E+00 0.  1.
         11    1    4    4    0    0 -0.22940720489E+03 -0.27866193286E+02 -0.94584199896E+02  0.24970054316E+03  0.00000000000E+00 0. -1.
        -13    1    3    3    0    0  0.52502849669E+02  0.55031511391E+01  0.29823263744E+02  0.60632177564E+02  0.00000000000E+00 0.  1.
         13    1    3    3    0    0 -0.24839627668E+02 -0.32014394037E+02  0.55902433884E+02  0.69043541641E+02  0.00000000000E+00 0. -1.
         21    1    1    2  503  502  0.58914309321E+02 -0.34684108643E+02  0.96044037258E+01  0.69037148015E+02  0.00000000000E+00 0.  1.
          1    1    1    2  501    0  0.25774926550E+03  0.15764900153E+03  0.36063749515E+03  0.47047560453E+03  0.00000000000E+00 0. -1.
<scales pt_clust_5="13000.00000" pt_clust_6="13000.00000" pt_clust_7="13000.00000" pt_clust_8="13000.00000" pt_clust_9="68.36580" pt_clust_10="309.05594"></scales>
<clustering>
<clus scale="   68.366">  2  9  1 -1</clus>
<clus scale="   82.935">  5  6 -1 -1</clus>
<clus scale="   89.436">  7  8 -1 -1</clus>
<clus scale="   98.908">  2  7  1 -1</clus>
<clus scale="  309.056">  1 10  2 -1</clus>
<clus scale="  309.056">  1  5  2 -1</clus>
</clustering>
</event>
<event>
10    2  0.2421970E-006  0.1726072E+03  0.7546771E-02  0.1176081E+00
         -2   -1    0    0    0  501 -0.00000000000E+00  0.00000000000E+00  0.82314842885E+03  0.82314842885E+03  0.00000000000E+00 0.  1.
         21   -1    0    0  503  502  0.00000000000E+00 -0.00000000000E+00 -0.80941784312E+02  0.80941784312E+02  0.00000000000E+00 0. -1.
         23    2    1    2    0    0  0.14209121302E+03 -0.15084975350E+03  0.27412881926E+03  0.35510765913E+03  0.89494575656E+02 0.  0.
         23    2    1    2    0    0 -0.66040952392E+02  0.64546903938E+02  0.21800656771E+03  0.25551192381E+03  0.96082097409E+02 0.  0.
        -11    1    3    3    0    0  0.58160804720E+02 -0.84804604746E+01  0.53773671827E+02  0.79663072984E+02  0.00000000000E+00 0.  1.
         11    1    3    3    0    0  0.83930408301E+02 -0.14236929303E+03  0.22035514744E+03  0.27544458614E+03  0.00000000000E+00 0. -1.
        -13    1    4    4    0    0 -0.77324691526E+01  0.45599800425E+02  0.17400440343E+03  0.18004628653E+03  0.00000000000E+00 0.  1.
         13    1    4    4    0    0 -0.58308483239E+02  0.18947103513E+02  0.44002164276E+02  0.75465637281E+02  0.00000000000E+00 0. -1.
         21    1    1    2  503  501 -0.93778082099E+02  0.51844520165E+02  0.21896786064E+03  0.24378085845E+03  0.00000000000E+00 0.  1.
         -2    1    1    2    0  502  0.17727821470E+02  0.34458329397E+02  0.31103396925E+02  0.49689771776E+02  0.00000000000E+00 0.  1.
<scales pt_clust_5="13000.00000" pt_clust_6="13000.00000" pt_clust_7="13000.00000" pt_clust_8="13000.00000" pt_clust_9="107.56463" pt_clust_10="38.75116"></scales>
<clustering>
<clus scale="   38.751">  2 10  1 -1</clus>
<clus scale="   89.495">  5  6 -1 -1</clus>
<clus scale="   96.082">  7  8 -1 -1</clus>
<clus scale="  107.565">  1  9  2 -1</clus>
<clus scale="  169.029">  1  5  2 -1</clus>
<clus scale="   38.751">  2  5  1 -1</clus>
</clustering>
</event>
<event>
10    2  0.2421970E-006  0.1873920E+03  0.7546771E-02  0.1185608E+00
          3   -1    0    0  502    0 -0.00000000000E+00  0.00000000000E+00  0.15982805846E+03  0.15982805846E+03  0.00000000000E+00 0. -1.
         21   -1    0    0  503  502  0.00000000000E+00 -0.00000000000E+00 -0.52990400064E+03  0.52990400064E+03  0.00000000000E+00 0. -1.
         23    2    1    2    0    0 -0.16306265345E+02  0.52195372997E+02 -0.45743786394E+02  0.11605800069E+03  0.91579005671E+02 0.  0.
         23    2    1    2    0    0  0.10771812126E+03 -0.17208709147E+03 -0.16265493815E+02  0.22665747180E+03  0.99457943563E+02 0.  0.
        -13    1    4    4    0    0  0.12698219845E+03 -0.14597839601E+03 -0.16795521288E+02  0.19420674643E+03  0.00000000000E+00 0. -1.
         13    1    4    4    0    0 -0.19264077183E+02 -0.26108695456E+02  0.53002747291E+00  0.32450725373E+02  0.00000000000E+00 0.  1.
        -13    1    3    3    0    0 -0.50057044737E+02  0.45293330937E+02 -0.13439589670E+02  0.68831795891E+02  0.00000000000E+00 0. -1.
         13    1    3    3    0    0  0.33750779392E+02  0.69020420603E+01 -0.32304196724E+02  0.47226204803E+02  0.00000000000E+00 0.  1.
         21    1    1    2  503  501 -0.78705422264E+02  0.77954182695E+02 -0.25615846304E+03  0.27908521330E+03  0.00000000000E+00 0. -1.
          3    1    1    2  501    0 -0.12706433653E+02  0.41937535773E+02 -0.51908198928E+02  0.67931373304E+02  0.00000000000E+00 0. -1.
<scales pt_clust_5="13000.00000" pt_clust_6="13000.00000" pt_clust_7="13000.00000" pt_clust_8="13000.00000" pt_clust_9="33.19319" pt_clust_10="167.35941"></scales>
<clustering>
<clus scale="   33.193">  9 10 -1 -1</clus>
<clus scale="   91.579">  7  8 -1 -1</clus>
<clus scale="   99.458">  5  6 -1 -1</clus>
<clus scale="  106.663">  1  7  2 -1</clus>
<clus scale="  167.359">  2  9  1 -1</clus>
<clus scale="  167.359">  2  5  1 -1</clus>
</clustering>
</event>
<event>
10    2  0.2421970E-006  0.1413006E+03  0.7546771E-02  0.1230416E+00
         21   -1    0    0  501  502  0.00000000000E+00  0.00000000000E+00  0.24034729056E+03  0.24034729056E+03  0.00000000000E+00 0.  1.
         -1   -1    0    0    0  501 -0.00000000000E+00 -0.00000000000E+00 -0.16439555253E+03  0.16439555253E+03  0.00000000000E+00 0.  1.
         23    2    1    2    0    0 -0.11707637889E+02  0.19393671954E+02 -0.18700421811E+02  0.97042439984E+02  0.92489707997E+02 0.  0.
         23    2    1    2    0    0 -0.99460272967E+02 -0.18856976046E+02 -0.28910188969E+02  0.13866387883E+03  0.90243785509E+02 0.  0.
        -11    1    4    4    0    0 -0.90369322541E+02 -0.49893177694E+02 -0.20423178254E+02  0.10522856003E+03  0.00000000000E+00 0.  1.
         11    1    4    4    0    0 -0.90909504259E+01  0.31036201648E+02 -0.84870107144E+01  0.33435318800E+02  0.00000000000E+00 0. -1.
        -11    1    3    3    0    0  0.16281715272E+02  0.47349567422E+02 -0.26606597180E+02  0.56700853615E+02  0.00000000000E+00 0. -1.
         11    1    3    3    0    0 -0.27989353161E+02 -0.27955895468E+02  0.79061753683E+01  0.40341586369E+02  0.00000000000E+00 0.  1.
         21    1    1    2  503  502  0.41422239416E+02  0.24797266715E+01  0.25645721351E+02  0.48781697246E+02  0.00000000000E+00 0. -1.
         -1    1    1    2    0  503  0.69745671440E+02 -0.30164225796E+01  0.97916627462E+02  0.12025482703E+03  0.00000000000E+00 0.  1.
<scales pt_clust_5="13000.00000" pt_clust_6="13000.00000" pt_clust_7="13000.00000" pt_clust_8="13000.00000" pt_clust_9="23.72693" pt_clust_10="113.00011"></scales>
<clustering>
<clus scale="   23.727">  9 10 -1 -1</clus>
<clus scale="   90.244">  5  6 -1 -1</clus>
<clus scale="   92.490">  7  8 -1 -1</clus>
<clus scale="   95.224">  2  7  1 -1</clus>
<clus scale="  113.000">  1  9  2 -1</clus>
<clus scale="  113.000">  1  5  2 -1</clus>
</clustering>
</event>
<event>
10    2  0.2421970E-006  0.1066368E+03  0.7546771E-02  0.1267419E+00
         21   -1    0    0  501  502  0.00000000000E+00  0.00000000000E+00  0.16107580241E+03  0.16107580241E+03  0.00000000000E+00 0.  1.
          2   -1    0    0  503    0 -0.00000000000E+00 -0.00000000000E+00 -0.19858510599E+03  0.19858510599E+03  0.00000000000E+00 0. -1.
         23    2    1    2    0    0  0.24218522432E+02  0.79397349923E+00 -0.34006043858E+02  0.99753926010E+02  0.90593970620E+02 0.  0.
         23    2    1    2    0    0 -0.85448521028E+02 -0.45673036687E+02 -0.57877448248E+02  0.14546351364E+03  0.91773409866E+02 0.  0.
        -11    1    4    4    0    0 -0.24301833275E+02 -0.60226227685E+02 -0.84284786157E+01  0.65489059036E+02  0.00000000000E+00 0.  1.
         11    1    4    4    0    0 -0.61146687753E+02  0.14553190998E+02 -0.49448969632E+02  0.79974454603E+02  0.00000000000E+00 0. -1.
        -13    1    3    3    0    0  0.23626921900E+02  0.43667071153E+02 -0.10111963333E+02  0.50668494589E+02  0.00000000000E+00 0.  1.
         13    1    3    3    0    0  0.59160053201E+00 -0.42873097653E+02 -0.23894080525E+02  0.49085431420E+02  0.00000000000E+00 0. -1.
         21    1    1    2  503  502  0.38944565068E+02  0.57297335671E+02  0.55704628793E+02  0.88896959972E+02  0.00000000000E+00 0.  1.
          2    1    1    2  501    0  0.22285433528E+02 -0.12418272483E+02 -0.13304402668E+01  0.25546508769E+02  0.00000000000E+00 0. -1.
<scales pt_clust_5="13000.00000" pt_clust_6="13000.00000" pt_clust_7="13000.00000" pt_clust_8="13000.00000" pt_clust_9="71.44759" pt_clust_10="25.51184"></scales>
<clustering>
<clus scale="   25.512">  1 10  2 -1</clus>
<clus scale="   71.448">  1  9  2 -1</clus>
<clus scale="   90.594">  7  8 -1 -1</clus>
<clus scale="   91.773">  5  6 -1 -1</clus>
<clus scale="  105.623">  2  7  1 -1</clus>
<clus scale="   25.512">  1  5  2 -1</clus>
</clustering>
</event>
<event>
10    2  0.2421970E-006  0.2965701E+03  0.7546771E-02  0.1122754E+00
         21   -1    0    0  501  502  0.00000000000E+00  0.00000000000E+00  0.73132331265E+03  0.73132331265E+03  0.00000000000E+00 0.  1.
         -1   -1    0    0    0  501 -0.00000000000E+00 -0.00000000000E+00 -0.48339295085E+03  0.48339295085E+03  0.00000000000E+00 0.  1.
         23    2    1    2    0    0  0.39341934793E+02  0.62950922660E+02 -0.35212483519E+03  0.37141306619E+03  0.91897549918E+02 0.  0.
         23    2    1    2    0    0  0.24438389407E+03  0.58821592153E+02  0.19866978256E+03  0.33318141205E+03  0.91415006723E+02 0.  0.
        -11    1    3    3    0    0  0.59720165895E+02  0.71605249007E+02 -0.31139432162E+03  0.32505420077E+03  0.00000000000E+00 0.  1.
         11    1    3    3    0    0 -0.20378231103E+02 -0.86543263462E+01 -0.40730513568E+02  0.46358865419E+02  0.00000000000E+00 0. -1.
        -11    1    4    4    0    0  0.13160465268E+03  0.70344850353E+02  0.81023738882E+02  0.16980291176E+03  0.00000000000E+00 0.  1.
         11    1    4    4    0    0  0.11277924139E+03 -0.11523258200E+02  0.11764604367E+03  0.16337850030E+03  0.00000000000E+00 0. -1.
         21    1    1    2  503  502 -0.49781081951E+02 -0.41029546639E+01  0.92877770186E+02  0.10545743479E+03  0.00000000000E+00 0.  1.
         -1    1    1    2    0  503 -0.23394474691E+03 -0.11766956015E+03  0.30850764425E+03  0.40466435048E+03  0.00000000000E+00 0.  1.
<scales pt_clust_5="13000.00000" pt_clust_6="13000.00000" pt_clust_7="13000.00000" pt_clust_8="13000.00000" pt_clust_9="26.86965" pt_clust_10="288.75976"></scales>
<clustering>
<clus scale="   26.870">  9 10 -1 -1</clus>
<clus scale="   91.415">  7  8 -1 -1</clus>
<clus scale="   91.898">  5  6 -1 -1</clus>
<clus scale="  118.135">  2  5  1 -1</clus>
<clus scale="  288.760">  1  9  2 -1</clus>
<clus scale="  288.760">  1  5  2 -1</clus>
</clustering>
</event>
<event>
10    2  0.2421970E-006  0.1018645E+03  0.7546771E-02  0.1277462E+00
          2   -1    0    0  502    0 -0.00000000000E+00  0.00000000000E+00  0.60504015546E+03  0.60504015546E+03  0.00000000000E+00 0. -1.
         21   -1    0    0  503  502  0.00000000000E+00 -0.00000000000E+00 -0.66232490428E+02  0.66232490428E+02  0.00000000000E+00 0. -1.
         23    2    1    2    0    0 -0.31140842162E+02 -0.25549901087E+02  0.38125312143E+03  0.39448853228E+03  0.92976932649E+02 0.  0.
         23    2    1    2    0    0  0.76910601959E+02 -0.20925210059E+02  0.19161640933E+02  0.12231446542E+03  0.90777501933E+02 0.  0.
        -11    1    3    3    0    0  0.23559506704E+02  0.19403480251E+02  0.11649296592E+03  0.12042489988E+03  0.00000000000E+00 0.  1.
         11    1    3    3    0    0 -0.54700348865E+02 -0.44953381338E+02  0.26476015551E+03  0.27406363240E+03  0.00000000000E+00 0. -1.
        -11    1    4    4    0    0  0.32364132670E+02  0.98133652677E+01  0.49742193534E+02  0.60150021105E+02  0.00000000000E+00 0.  1.
         11    1    4    4    0    0  0.44546469289E+02 -0.30738575327E+02 -0.30580552601E+02  0.62164444312E+02  0.00000000000E+00 0. -1.
         21    1    1    2  503  501 -0.22854948693E+02  0.25762130152E+02  0.49010448011E+02  0.59900417728E+02  0.00000000000E+00 0. -1.
          2    1    1    2  501    0 -0.22914811104E+02  0.20712980994E+02  0.89382454652E+02  0.94569230456E+02  0.00000000000E+00 0. -1.
<scales pt_clust_5="13000.00000" pt_clust_6="13000.00000" pt_clust_7="13000.00000" pt_clust_8="13000.00000" pt_clust_9="20.16741" pt_clust_10="68.61692"></scales>
<clustering>
<clus scale="   20.167">  9 10 -1 -1</clus>
<clus scale="   68.617">  2  9  1 -1</clus>
<clus scale="   90.778">  7  8 -1 -1</clus>
<clus scale="   92.977">  5  6 -1 -1</clus>
<clus scale="   99.861">  2  7  1 -1</clus>
<clus scale="   68.617">  2  5  1 -1</clus>
</clustering>
</event>
<event>
10    2  0.2421970E-006  0.1042675E+03  0.7546771E-02  0.1271773E+00
         21   -1    0    0  501  502  0.00000000000E+00  0.00000000000E+00  0.58444972252E+03  0.58444972252E+03  0.00000000000E+00 0. -1.
          1   -1    0    0  503    0 -0.00000000000E+00 -0.00000000000E+00 -0.14792094142E+03  0.14792094142E+03  0.00000000000E+00 0. -1.
         23    2    1    2    0    0  0.13734585351E+02  0.28075859599E+02 -0.95079759663E+02  0.13579388448E+03  0.91776498282E+02 0.  0.
         23    2    1    2    0    0  0.42176056680E+02 -0.97834950950E+02  0.19401168731E+03  0.23943446000E+03  0.91311710296E+02 0.  0.
        -13    1    3    3    0    0  0.14816656983E+02  0.58062558448E+02 -0.37013605792E+02  0.70432954158E+02  0.00000000000E+00 0. -1.
         13    1    3    3    0    0 -0.10820716324E+01 -0.29986698849E+02 -0.58066153870E+02  0.65360930319E+02  0.00000000000E+00 0.  1.
        -13    1    4    4    0    0  0.50539515390E+02 -0.67755996839E+02  0.64812015650E+02  0.10651626681E+03  0.00000000000E+00 0. -1.
         13    1    4    4    0    0 -0.83634587101E+01 -0.30078954112E+02  0.12919967166E+03  0.13291819319E+03  0.00000000000E+00 0.  1.
         21    1    1    2  503  502 -0.21326358253E+02  0.13179930942E+02  0.18317024562E+02  0.31048953683E+02  0.00000000000E+00 0. -1.
          1    1    1    2  501    0 -0.34584283778E+02  0.56579160409E+02  0.31927982888E+03  0.32609336579E+03  0.00000000000E+00 0. -1.
<scales pt_clust_5="13000.00000" pt_clust_6="13000.00000" pt_clust_7="13000.00000" pt_clust_8="13000.00000" pt_clust_9="25.07038" pt_clust_10="66.85083"></scales>
<clustering>
<clus scale="   25.070">  2  9  1 -1</clus>
<clus scale="   66.851">  1 10  2 -1</clus>
<clus scale="   91.312">  7  8 -1 -1</clus>
<clus scale="   91.776">  5  6 -1 -1</clus>
<clus scale="  103.859">  1  7  2 -1</clus>
<clus scale="   66.851">  1  5  2 -1</clus>
</clustering>
</event>
<event>
10    2  0.2421970E-006  0.1167780E+03  0.7546771E-02  0.1248564E+00
         21   -1    0    0  501  502  0.00000000000E+00  0.00000000000E+00  0.14470955293E+03  0.14470955293E+03  0.00000000000E+00 0.  1.
          2   -1    0    0  503    0 -0.00000000000E+00 -0.00000000000E+00 -0.16852161474E+03  0.16852161474E+03  0.00000000000E+00 0. -1.
         23    2    1    2    0    0  0.55491558553E+02 -0.58767589769E+02 -0.49264770237E+02  0.13170505199E+03  0.91576527858E+02 0.  0.
         23    2    1    2    0    0 -0.69452239786E+02  0.11209796133E+02 -0.59928416018E+01  0.11550528967E+03  0.91412716023E+02 0.  0.
        -11    1    4    4    0    0  0.60893515991E+00  0.36633189747E+02  0.12503718151E+02  0.38713103217E+02  0.00000000000E+00 0.  1.
         11    1    4    4    0    0 -0.70061174946E+02 -0.25423393613E+02 -0.18496559753E+02  0.76792186454E+02  0.00000000000E+00 0. -1.
        -13    1    3    3    0    0  0.18727514743E+02 -0.54546607938E+02 -0.68868869461E+02  0.89827464769E+02  0.00000000000E+00 0. -1.
         13    1    3    3    0    0  0.36764043809E+02 -0.42209818307E+01  0.19604099224E+02  0.41877587218E+02  0.00000000000E+00 0.  1.
         21    1    1    2  503  502  0.54098655100E+01  0.28306675832E+02  0.79529795506E+00  0.28829967747E+02  0.00000000000E+00 0. -1.
          2    1    1    2  501    0  0.85508157235E+01  0.19251117804E+02  0.30650252070E+02  0.37190858261E+02  0.00000000000E+00 0. -1.
<scales pt_clust_5="13000.00000" pt_clust_6="13000.00000" pt_clust_7="13000.00000" pt_clust_8="13000.00000" pt_clust_9="31.56823" pt_clust_10="21.06471"></scales>
<clustering>
<clus scale="   21.065">  1 10  2 -1</clus>
<clus scale="   31.568">  1  9  2 -1</clus>
<clus scale="   91.413">  5  6 -1 -1</clus>
<clus scale="   91.577">  7  8 -1 -1</clus>
<clus scale="  116.650">  1  5  2 -1</clus>
<clus scale="   21.065">  1  5  2 -1</clus>
</clustering>
</event>
<event>
10    2  0.2421970E-006  0.1170539E+03  0.7546771E-02  0.1249484E+00
          1   -1    0    0  503    0 -0.00000000000E+00  0.00000000000E+00  0.53510046018E+03  0.53510046018E+03  0.00000000000E+00 0. -1.
         21   -1    0    0  501  502  0.00000000000E+00 -0.00000000000E+00 -0.44704770264E+02  0.44704770264E+02  0.00000000000E+00 0. -1.
         23    2    1    2    0    0  0.59014069906E+02  0.25345754056E+02  0.26333706026E+03  0.28502200264E+03  0.88125291415E+02 0.  0.
         23    2    1    2    0    0 -0.76133333184E+02  0.13862626118E+02  0.10114259514E+03  0.15733814225E+03  0.92395939479E+02 0.  0.
        -13    1    4    4    0    0 -0.94651673528E+02 -0.28497719514E+01  0.71874810552E+02  0.11888250037E+03  0.00000000000E+00 0. -1.
         13    1    4    4    0    0  0.18518340344E+02  0.16712398069E+02  0.29267784585E+02  0.38455641885E+02  0.00000000000E+00 0.  1.
        -13    1    3    3    0    0  0.47575541933E+02 -0.22621249012E+02  0.18587421391E+03  0.19319517721E+03  0.00000000000E+00 0. -1.
         13    1    3    3    0    0  0.11438527973E+02  0.47967003067E+02  0.77462846347E+02  0.91826825435E+02  0.00000000000E+00 0.  1.
         21    1    1    2  503  502  0.21502454906E+02 -0.10130477694E+02  0.74662797187E+02  0.78355060009E+02  0.00000000000E+00 0. -1.
          1    1    1    2  501    0 -0.43831916276E+01 -0.29077902479E+02  0.51253237333E+02  0.59090025542E+02  0.00000000000E+00 0. -1.
<scales pt_clust_5="13000.00000" pt_clust_6="13000.00000" pt_clust_7="13000.00000" pt_clust_8="13000.00000" pt_clust_9="23.76935" pt_clust_10="30.34989"></scales>
<clustering>
<clus scale="   23.769">  1  9  2 -1</clus>
<clus scale="   30.350">  2 10  1 -1</clus>
<clus scale="   88.125">  7  8 -1 -1</clus>
<clus scale="   92.396">  5  6 -1 -1</clus>
<clus scale="  113.713">  1  7  2 -1</clus>
<clus scale="   30.350">  2  5  1 -1</clus>
</clustering>
</event>
<event>
10    2  0.2421970E-006  0.1026326E+03  0.7546771E-02  0.1274960E+00
         -1   -1    0    0    0  501 -0.00000000000E+00  0.00000000000E+00  0.35324764871E+03  0.35324764871E+03  0.00000000000E+00 0.  1.
         21   -1    0    0  501  502  0.00000000000E+00 -0.00000000000E+00 -0.11429689268E+03  0.11429689268E+03  0.00000000000E+00 0.  1.
         23    2    1    2    0    0 -0.23336123931E+02  0.39533304717E+02  0.20667585827E+03  0.23048343916E+03  0.91105699461E+02 0.  0.
         23    2    1    2    0    0 -0.55297130313E+02 -0.75135065216E+02  0.40927878758E+02  0.13651465357E+03  0.90874136772E+02 0.  0.
        -11    1    3    3    0    0  0.23875802306E+02 -0.15799453070E+02  0.47223905863E+02  0.55224758379E+02  0.00000000000E+00 0. -1.
         11    1    3    3    0    0 -0.47211926237E+02  0.55332757787E+02  0.15945195241E+03  0.17525868078E+03  0.00000000000E+00 0.  1.
        -11    1    4    4    0    0 -0.65444158459E+02 -0.46233228489E+02 -0.61340468505E+01  0.80362154176E+02  0.00000000000E+00 0.  1.
         11    1    4    4    0    0  0.10147028146E+02 -0.28901836727E+02  0.47061925608E+02  0.56152499395E+02  0.00000000000E+00 0. -1.
         21    1    1    2  503  502  0.10159401202E+02  0.23473677951E+02  0.11646451226E+02  0.28104569299E+02  0.00000000000E+00 0. -1.
         -1    1    1    2    0  503  0.68473853042E+02  0.12128082549E+02 -0.20299432218E+02  0.72441879360E+02  0.00000000000E+00 0.  1.
<scales pt_clust_5="13000.00000" pt_clust_6="13000.00000" pt_clust_7="13000.00000" pt_clust_8="13000.00000" pt_clust_9="25.57786" pt_clust_10="76.27562"></scales>
<clustering>
<clus scale="   25.578">  2  9  1 -1</clus>
<clus scale="   76.276">  2 10  1 -1</clus>
<clus scale="   90.874">  7  8 -1 -1</clus>
<clus scale="   91.106">  5  6 -1 -1</clus>
<clus scale="  102.427">  2  7  1 -1</clus>
<clus scale="   25.578">  2  5  1 -1</clus>
</clustering>
</event>
<event>
10    2  0.2421970E-006  0.1289248E+03  0.7546771E-02  0.1229075E+00
         21   -1    0    0  503  502  0.00000000000E+00  0.00000000000E+00  0.58566678887E+03  0.58566678887E+03  0.00000000000E+00 0.  1.
         -2   -1    0    0    0  501 -0.00000000000E+00 -0.00000000000E+00 -0.64905197307E+02  0.64905197307E+02  0.00000000000E+00 0.  1.
         23    2    1    2    0    0 -0.11573222827E+03 -0.38623629161E+01  0.75940187836E+02  0.16592638143E+03  0.91409985342E+02 0.  0.
         23    2    1    2    0    0  0.51031368700E+02 -0.58155400042E+01  0.17943832671E+03  0.20785164298E+03  0.91466777036E+02 0.  0.
        -11    1    4    4    0    0 -0.22934032283E+02  0.12309303532E+02  0.68608462867E+02  0.73379901657E+02  0.00000000000E+00 0. -1.
         11    1    4    4    0    0  0.73965400983E+02 -0.18124843537E+02  0.11082986384E+03  0.13447174132E+03  0.00000000000E+00 0.  1.
        -13    1    3    3    0    0 -0.51789023149E+02  0.58409961717E+01  0.85914594278E+02  0.10048650489E+03  0.00000000000E+00 0.  1.
         13    1    3    3    0    0 -0.63943205117E+02 -0.97033590878E+01 -0.99744064413E+01  0.65439876544E+02  0.00000000000E+00 0. -1.
         21    1    1    2  503  501  0.27761158350E+02  0.14869665392E+02  0.57210915315E+02  0.65306031061E+02  0.00000000000E+00 0. -1.
         -2    1    1    2    0  502  0.36939701217E+02 -0.51917624713E+01  0.20817216171E+03  0.21148793071E+03  0.00000000000E+00 0.  1.
<scales pt_clust_5="13000.00000" pt_clust_6="13000.00000" pt_clust_7="13000.00000" pt_clust_8="13000.00000" pt_clust_9="31.49268" pt_clust_10="48.05368"></scales>
<clustering>
<clus scale="   31.493">  1  9  2 -1</clus>
<clus scale="   48.054">  1 10  2 -1</clus>
<clus scale="   91.410">  7  8 -1 -1</clus>
<clus scale="   91.467">  5  6 -1 -1</clus>
<clus scale="  128.885">  2  7  1 -1</clus>
<clus scale="   31.493">  1  5  2 -1</clus>
</clustering>
</event>
<event>
10    2  0.2421970E-006  0.1037669E+03  0.7546771E-02  0.1277281E+00
          1   -1    0    0  503    0 -0.00000000000E+00  0.00000000000E+00  0.25358181063E+03  0.25358181063E+03  0.00000000000E+00 0. -1.
         21   -1    0    0  501  502  0.00000000000E+00 -0.00000000000E+00 -0.10042519576E+03  0.10042519576E+03  0.00000000000E+00 0.  1.
         23    2    1    2    0    0 -0.29391606370E+02 -0.51254576814E+01  0.10282532103E+03  0.14014787703E+03  0.90433643896E+02 0.  0.
         23    2    1    2    0    0 -0.42293494979E+01  0.51454061255E+02  0.81759025764E+02  0.13895812162E+03  0.99796860945E+02 0.  0.
        -13    1    3    3    0    0 -0.69670136485E+01  0.24598044990E+02 -0.50218601804E+01  0.26054216093E+02  0.00000000000E+00 0.  1.
         13    1    3    3    0    0 -0.22424592722E+02 -0.29723502672E+02  0.10784718122E+03  0.11409366094E+03  0.00000000000E+00 0. -1.
        -13    1    4    4    0    0  0.43508634862E+02  0.45266945446E+02  0.35159728806E+02  0.71960434874E+02  0.00000000000E+00 0.  1.
         13    1    4    4    0    0 -0.47737984360E+02  0.61871158092E+01  0.46599296958E+02  0.66997686750E+02  0.00000000000E+00 0. -1.
         21    1    1    2  503  502  0.21594104851E+02 -0.82120147783E+01 -0.25643468661E+02  0.34515649146E+02  0.00000000000E+00 0.  1.
          1    1    1    2  501    0  0.12026851018E+02 -0.38116588796E+02 -0.57842632767E+01  0.40385358590E+02  0.00000000000E+00 0. -1.
<scales pt_clust_5="13000.00000" pt_clust_6="13000.00000" pt_clust_7="13000.00000" pt_clust_8="13000.00000" pt_clust_9="23.10287" pt_clust_10="45.06541"></scales>
<clustering>
<clus scale="   23.103">  2  9  1 -1</clus>
<clus scale="   45.065">  2 10  1 -1</clus>
<clus scale="   90.434">  5  6 -1 -1</clus>
<clus scale="   94.797">  1  5  2 -1</clus>
<clus scale="   99.797">  7  8 -1 -1</clus>
<clus scale="   23.103">  2  5  1 -1</clus>
</clustering>
</event>
<event>
10    2  0.2421970E-006  0.4970897E+03  0.7546771E-02  0.1044475E+00
         21   -1    0    0  501  502  0.00000000000E+00  0.00000000000E+00  0.14773522671E+04  0.14773522671E+04  0.00000000000E+00 0. -1.
          2   -1    0    0  503    0 -0.00000000000E+00 -0.00000000000E+00 -0.40565820715E+03  0.40565820715E+03  0.00000000000E+00 0. -1.
         23    2    1    2    0    0  0.11643511714E+03 -0.14115670277E+03 -0.11374220709E+03  0.23385173509E+03  0.90923006408E+02 0.  0.
         23    2    1    2    0    0  0.26589933310E+03 -0.25846500570E+03  0.90711217493E+02  0.39257646567E+03  0.91548576744E+02 0.  0.
        -11    1    3    3    0    0  0.10446407497E+03 -0.10832729750E+03 -0.12655699259E+03  0.19663219146E+03  0.00000000000E+00 0. -1.
         11    1    3    3    0    0  0.11971042164E+02 -0.32829405269E+02  0.12814785507E+02  0.37219543635E+02  0.00000000000E+00 0.  1.
        -13    1    4    4    0    0  0.24667259077E+03 -0.23375042470E+03  0.53623313162E+02  0.34403791623E+03  0.00000000000E+00 0. -1.
         13    1    4    4    0    0  0.19226742328E+02 -0.24714581005E+02  0.37087904332E+02  0.48538549448E+02  0.00000000000E+00 0.  1.
         21    1    1    2  503  502 -0.34210191388E+03  0.43092857851E+03  0.89624232150E+03  0.10516574814E+04  0.00000000000E+00 0. -1.
          2    1    1    2  501    0 -0.40232536356E+02 -0.31306870036E+02  0.19848272801E+03  0.20492479209E+03  0.00000000000E+00 0. -1.
<scales pt_clust_5="13000.00000" pt_clust_6="13000.00000" pt_clust_7="13000.00000" pt_clust_8="13000.00000" pt_clust_9="488.58679" pt_clust_10="50.97820"></scales>
<clustering>
<clus scale="   50.978">  1 10  2 -1</clus>
<clus scale="   90.923">  5  6 -1 -1</clus>
<clus scale="   91.549">  7  8 -1 -1</clus>
<clus scale="  204.280">  2  5  1 -1</clus>
<clus scale="  488.587">  1  9  2 -1</clus>
<clus scale="   50.978">  1  5  2 -1</clus>
</clustering>
</event>
<event>
10    2  0.2421970E-006  0.1245691E+03  0.7546771E-02  0.1236263E+00
         21   -1    0    0  503  502  0.00000000000E+00  0.00000000000E+00  0.40787753627E+03  0.40787753627E+03  0.00000000000E+00 0. -1.
         -1   -1    0    0    0  501 -0.00000000000E+00 -0.00000000000E+00 -0.14915219571E+03  0.14915219571E+03  0.00000000000E+00 0.  1.
         23    2    1    2    0    0 -0.82728732288E+02 -0.29823738871E+02 -0.79957322660E+02  0.14914371006E+03  0.90095362012E+02 0.  0.
         23    2    1    2    0    0  0.59825912653E+02  0.39044426178E+02  0.10240951982E+03  0.15502940195E+03  0.91884703185E+02 0.  0.
        -13    1    4    4    0    0  0.36468095812E+02  0.52184534015E+02  0.17550794730E+02  0.66039215608E+02  0.00000000000E+00 0.  1.
         13    1    4    4    0    0  0.23357816840E+02 -0.13140107837E+02  0.84858725089E+02  0.88990186342E+02  0.00000000000E+00 0. -1.
        -13    1    3    3    0    0 -0.32632598046E+02  0.14649251682E+01 -0.83812990485E+02  0.89953598232E+02  0.00000000000E+00 0.  1.
         13    1    3    3    0    0 -0.50096134242E+02 -0.31288664039E+02  0.38556678243E+01  0.59190111824E+02  0.00000000000E+00 0. -1.
         21    1    1    2  503  501  0.54806154905E+02  0.21850813988E+01  0.12415738368E+03  0.13573336037E+03  0.00000000000E+00 0. -1.
         -1    1    1    2    0  502 -0.31903335270E+02 -0.11405768706E+02  0.11211575973E+03  0.11712325960E+03  0.00000000000E+00 0.  1.
<scales pt_clust_5="13000.00000" pt_clust_6="13000.00000" pt_clust_7="13000.00000" pt_clust_8="13000.00000" pt_clust_9="40.77055" pt_clust_10="33.88088"></scales>
<clustering>
<clus scale="   33.881">  1 10  2 -1</clus>
<clus scale="   40.771">  1  9  2 -1</clus>
<clus scale="   90.095">  7  8 -1 -1</clus>
<clus scale="   91.885">  5  6 -1 -1</clus>
<clus scale="  123.255">  2  7  1 -1</clus>
<clus scale="   33.881">  1  5  2 -1</clus>
</clustering>
</event>
<event>
10    2  0.2421970E-006  0.1156501E+03  0.7546771E-02  0.1250543E+00
         -1   -1    0    0    0  501 -0.00000000000E+00  0.00000000000E+00  0.19218881735E+03  0.19218881735E+03  0.00000000000E+00 0.  1.
         21   -1    0    0  503  502  0.00000000000E+00 -0.00000000000E+00 -0.63118113866E+03  0.63118113866E+03  0.00000000000E+00 0.  1.
         23    2    1    2    0    0  0.26211994115E+02  0.49995508540E+02  0.49133103549E+02  0.11831014536E+03  0.91633013267E+02 0.  0.
         23    2    1    2    0    0  0.74110048723E+02 -0.10589632944E+03  0.37717887349E+02  0.16271552449E+03  0.91363947900E+02 0.  0.
        -11    1    4    4    0    0  0.48012207734E+02 -0.91649665755E+02  0.65144410510E+02  0.12226458009E+03  0.00000000000E+00 0.  1.
         11    1    4    4    0    0  0.26097840989E+02 -0.14246663681E+02 -0.27426523161E+02  0.40450944402E+02  0.00000000000E+00 0. -1.
        -13    1    3    3    0    0 -0.25149783717E+02  0.22044855744E+02 -0.10240508664E+02  0.34976496445E+02  0.00000000000E+00 0. -1.
         13    1    3    3    0    0  0.51361777832E+02  0.27950652795E+02  0.59373612213E+02  0.83333648912E+02  0.00000000000E+00 0.  1.
         21    1    1    2  503  501 -0.62357353236E+02 -0.30131705709E+01 -0.26427345557E+03  0.27154737712E+03  0.00000000000E+00 0.  1.
         -1    1    1    2    0  502 -0.37964689601E+02  0.58913991467E+02 -0.26156985664E+03  0.27079690905E+03  0.00000000000E+00 0.  1.
<scales pt_clust_5="13000.00000" pt_clust_6="13000.00000" pt_clust_7="13000.00000" pt_clust_8="13000.00000" pt_clust_9="62.43011" pt_clust_10="101.06429"></scales>
<clustering>
<clus scale="   62.430">  2  9  1 -1</clus>
<clus scale="   91.364">  5  6 -1 -1</clus>
<clus scale="   91.633">  7  8 -1 -1</clus>
<clus scale="  101.064">  2 10  1 -1</clus>
<clus scale="  115.437">  2  5  1 -1</clus>
<clus scale="   62.430">  2  5  1 -1</clus>
</clustering>
</event>
<event>
10    2  0.2421970E-006  0.1566936E+03  0.7546771E-02  0.1211857E+00
          2   -1    0    0  502    0 -0.00000000000E+00  0.00000000000E+00  0.81779605651E+03  0.81779605651E+03  0.00000000000E+00 0. -1.
         21   -1    0    0  503  502  0.00000000000E+00 -0.00000000000E+00 -0.63627034118E+02  0.63627034118E+02  0.00000000000E+00 0. -1.
         23    2    1    2    0    0 -0.86860066575E+01  0.47273422689E+02  0.15129488824E+03  0.18304295103E+03  0.91128236630E+02 0.  0.
         23    2    1    2    0    0 -0.55902588408E+02 -0.14837140124E+03  0.50774604017E+03  0.53978963172E+03  0.91802141068E+02 0.  0.
        -13    1    4    4    0    0 -0.16261771590E+02 -0.14133035493E+03  0.37526686816E+03  0.40132771744E+03  0.00000000000E+00 0. -1.
         13    1    4    4    0    0 -0.39640816818E+02 -0.70410463065E+01  0.13247917201E+03  0.13846191428E+03  0.00000000000E+00 0.  1.
        -13    1    3    3    0    0  0.38216301334E+02  0.40280631226E+02  0.85220301624E+02  0.10171290355E+03  0.00000000000E+00 0.  1.
         13    1    3    3    0    0 -0.46902307991E+02  0.69927914632E+01  0.66074586611E+02  0.81330047481E+02  0.00000000000E+00 0. -1.
         21    1    1    2  503  501  0.29269816843E+02  0.22391000666E+02  0.11917002034E+02  0.38731047318E+02  0.00000000000E+00 0. -1.
          2    1    1    2  501    0  0.35318778222E+02  0.78706977882E+02  0.83211091953E+02  0.11985946056E+03  0.00000000000E+00 0. -1.
<scales pt_clust_5="13000.00000" pt_clust_6="13000.00000" pt_clust_7="13000.00000" pt_clust_8="13000.00000" pt_clust_9="27.02032" pt_clust_10="133.54537"></scales>
<clustering>
<clus scale="   27.020">  9 10 -1 -1</clus>
<clus scale="   91.128">  7  8 -1 -1</clus>
<clus scale="   91.802">  5  6 -1 -1</clus>
<clus scale="  103.027">  1  7  2 -1</clus>
<clus scale="  133.545">  2  9  1 -1</clus>
<clus scale="  133.545">  2  5  1 -1</clus>
</clustering>
</event>
<event>
10    2  0.2421970E-006  0.9598022E+02  0.7546771E-02  0.1290214E+00
         21   -1    0    0  503  502  0.00000000000E+00  0.00000000000E+00  0.10500248200E+03  0.10500248200E+03  0.00000000000E+00 0.  1.
          3   -1    0    0  502    0 -0.00000000000E+00 -0.00000000000E+00 -0.35475971582E+03  0.35475971582E+03  0.00000000000E+00 0. -1.
         23    2    1    2    0    0  0.24942742594E+02  0.26526597116E+02 -0.21207310059E+03  0.23350613784E+03  0.90688012716E+02 0.  0.
         23    2    1    2    0    0  0.31893971822E+02  0.41932345393E+02  0.21857312509E+02  0.10905437837E+03  0.92949278120E+02 0.  0.
        -11    1    3    3    0    0 -0.60730904319E+01  0.43117415429E+02 -0.18228381541E+03  0.18741233498E+03  0.00000000000E+00 0. -1.
         11    1    3    3    0    0  0.31015833026E+02 -0.16590818313E+02 -0.29789285182E+02  0.46093802861E+02  0.00000000000E+00 0.  1.
        -13    1    4    4    0    0  0.27266922384E+02  0.63272536032E+02 -0.10830688423E+02  0.69743836172E+02  0.00000000000E+00 0. -1.
         13    1    4    4    0    0  0.46270494382E+01 -0.21340190639E+02  0.32688000933E+02  0.39310542199E+02  0.00000000000E+00 0.  1.
         21    1    1    2  503  501 -0.22757538584E+02 -0.11193900763E+02  0.33378632367E+01  0.25580271846E+02  0.00000000000E+00 0.  1.
          3    1    1    2  501    0 -0.34079175831E+02 -0.57265041746E+02 -0.62879308969E+02  0.91621409768E+02  0.00000000000E+00 0. -1.
<scales pt_clust_5="13000.00000" pt_clust_6="13000.00000" pt_clust_7="13000.00000" pt_clust_8="13000.00000" pt_clust_9="25.36156" pt_clust_10="70.04686"></scales>
<clustering>
<clus scale="   25.362">  1  9  2 -1</clus>
<clus scale="   70.047">  1 10  2 -1</clus>
<clus scale="   90.688">  5  6 -1 -1</clus>
<clus scale="   92.949">  7  8 -1 -1</clus>
<clus scale="   93.792">  2  5  1 -1</clus>
<clus scale="   25.362">  1  5  2 -1</clus>
</clustering>
</event>
<event>
10    2  0.2421970E-006  0.1125823E+03  0.7546771E-02  0.1260172E+00
         -1   -1    0    0    0  501 -0.00000000000E+00  0.00000000000E+00  0.32503079779E+03  0.32503079779E+03  0.00000000000E+00 0.  1.
         21   -1    0    0  503  502  0.00000000000E+00 -0.00000000000E+00 -0.92720629794E+02  0.92720629794E+02  0.00000000000E+00 0. -1.
         23    2    1    2    0    0 -0.90889568898E+02 -0.48176348808E+01  0.10513078697E+03  0.16573474849E+03  0.90174282068E+02 0.  0.
         23    2    1    2    0    0  0.42997124326E+01 -0.23565119241E+02  0.36725474700E+02  0.10970612893E+03  0.10056277573E+03 0.  0.
        -13    1    3    3    0    0 -0.61624487400E+02 -0.32226708658E+02  0.10463336271E+03  0.12563549973E+03  0.00000000000E+00 0. -1.
         13    1    3    3    0    0 -0.29265081498E+02  0.27409073778E+02  0.49742425842E+00  0.40099248763E+02  0.00000000000E+00 0.  1.
        -13    1    4    4    0    0  0.47745192306E+02 -0.61027474314E+01 -0.31044409860E+01  0.48233644568E+02  0.00000000000E+00 0.  1.
         13    1    4    4    0    0 -0.43445479873E+02 -0.17462371810E+02  0.39829915686E+02  0.61472484366E+02  0.00000000000E+00 0. -1.
         21    1    1    2  503  501  0.22817767140E+02 -0.44548347814E+01  0.60067888583E+02  0.64409993704E+02  0.00000000000E+00 0.  1.
         -1    1    1    2    0  502  0.63772089325E+02  0.32837588903E+02  0.30386017737E+02  0.77900556454E+02  0.00000000000E+00 0.  1.
<scales pt_clust_5="13000.00000" pt_clust_6="13000.00000" pt_clust_7="13000.00000" pt_clust_8="13000.00000" pt_clust_9="23.24857" pt_clust_10="75.54772"></scales>
<clustering>
<clus scale="   23.249">  1  9  2 -1</clus>
<clus scale="   75.548">  2 10  1 -1</clus>
<clus scale="   90.174">  5  6 -1 -1</clus>
<clus scale="  100.563">  7  8 -1 -1</clus>
<clus scale="  103.408">  1  5  2 -1</clus>
<clus scale="   75.548">  2  5  1 -1</clus>
</clustering>
</event>
<event>
10    2  0.2421970E-006  0.1246461E+03  0.7546771E-02  0.1236401E+00
         21   -1    0    0  501  502  0.00000000000E+00  0.00000000000E+00  0.26757180669E+03  0.26757180669E+03  0.00000000000E+00 0.  1.
          4   -1    0    0  503    0 -0.00000000000E+00 -0.00000000000E+00 -0.17312913182E+03  0.17312913182E+03  0.00000000000E+00 0. -1.
         23    2    1    2    0    0  0.82047437316E+02  0.18932952227E+02 -0.29028469242E+01  0.12307203439E+03  0.89710983044E+02 0.  0.
         23    2    1    2    0    0 -0.98346234802E+02  0.31914540304E+02  0.16601628969E+03  0.21404105871E+03  0.86957728754E+02 0.  0.
        -13    1    3    3    0    0  0.34819569102E+02  0.47834132280E+02 -0.23961950098E+02  0.63833233162E+02  0.00000000000E+00 0. -1.
         13    1    3    3    0    0  0.47227868215E+02 -0.28901180053E+02  0.21059103174E+02  0.59238801229E+02  0.00000000000E+00 0.  1.
        -13    1    4    4    0    0 -0.32313445330E+02  0.22964330074E+02  0.52208283935E+01  0.39984700248E+02  0.00000000000E+00 0. -1.
         13    1    4    4    0    0 -0.66032789472E+02  0.89502102305E+01  0.16079546129E+03  0.17405635846E+03  0.00000000000E+00 0.  1.
         21    1    1    2  503  502  0.12299803916E+01 -0.23395556714E+02  0.46271927346E+01  0.23880448872E+02  0.00000000000E+00 0. -1.
          4    1    1    2  501    0  0.15068817094E+02 -0.27451935818E+02 -0.73297960628E+02  0.79707396526E+02  0.00000000000E+00 0. -1.
<scales pt_clust_5="13000.00000" pt_clust_6="13000.00000" pt_clust_7="13000.00000" pt_clust_8="13000.00000" pt_clust_9="23.42787" pt_clust_10="41.46331"></scales>
<clustering>
<clus scale="   23.428">  2  9  1 -1</clus>
<clus scale="   41.463">  1 10  2 -1</clus>
<clus scale="   86.958">  7  8 -1 -1</clus>
<clus scale="   89.711">  5  6 -1 -1</clus>
<clus scale="  122.679">  1  7  2 -1</clus>
<clus scale="   41.463">  1  5  2 -1</clus>
</clustering>
</event>
<event>
10    2  0.2421970E-006  0.1048250E+03  0.7546771E-02  0.1271839E+00
          1   -1    0    0  503    0 -0.00000000000E+00  0.00000000000E+00  0.76244245490E+03  0.76244245490E+03  0.00000000000E+00 0. -1.
         21   -1    0    0  501  502  0.00000000000E+00 -0.00000000000E+00 -0.32922951960E+02  0.32922951960E+02  0.00000000000E+00 0. -1.
         23    2    1    2    0    0 -0.39663184080E+02 -0.14222983670E+02  0.36515962474E+03  0.37861300913E+03  0.90723743918E+02 0.  0.
         23    2    1    2    0    0  0.68806481521E+02  0.51803353670E+01  0.30307204228E+03  0.32291949933E+03  0.87539547993E+02 0.  0.
        -11    1    4    4    0    0  0.44233986226E+02 -0.38788140293E+02  0.13052502202E+03  0.14317104015E+03  0.00000000000E+00 0. -1.
         11    1    4    4    0    0  0.24572495296E+02  0.43968475660E+02  0.17254702026E+03  0.17974845918E+03  0.00000000000E+00 0.  1.
        -11    1    3    3    0    0 -0.37684050937E+02 -0.45531509253E+02  0.30594638017E+03  0.31160294217E+03  0.00000000000E+00 0. -1.
         11    1    3    3    0    0 -0.19791331427E+01  0.31308525583E+02  0.59213244566E+02  0.67010066962E+02  0.00000000000E+00 0.  1.
         21    1    1    2  503  502 -0.23485699696E+02  0.34177018623E+02  0.51854764704E+02  0.66397012845E+02  0.00000000000E+00 0. -1.
          1    1    1    2  501    0 -0.56575977456E+01 -0.25134370320E+02  0.94330712242E+01  0.27435885558E+02  0.00000000000E+00 0. -1.
<scales pt_clust_5="13000.00000" pt_clust_6="13000.00000" pt_clust_7="13000.00000" pt_clust_8="13000.00000" pt_clust_9="36.59967" pt_clust_10="25.76325"></scales>
<clustering>
<clus scale="   25.763">  2 10  1 -1</clus>
<clus scale="   36.600">  2  9  1 -1</clus>
<clus scale="   87.540">  5  6 -1 -1</clus>
<clus scale="   90.724">  7  8 -1 -1</clus>
<clus scale="  102.082">  2  5  1 -1</clus>
<clus scale="   25.763">  2  5  1 -1</clus>
</clustering>
</event>
<event>
10    2  0.2421970E-006  0.1154585E+03  0.7546771E-02  0.1251590E+00
         21   -1    0    0  501  502  0.00000000000E+00  0.00000000000E+00  0.82465525585E+02  0.82465525585E+02  0.00000000000E+00 0. -1.
          2   -1    0    0  503    0 -0.00000000000E+00 -0.00000000000E+00 -0.45455026715E+03  0.45455026715E+03  0.00000000000E+00 0. -1.
         23    2    1    2    0    0 -0.57217665559E+01 -0.64074174624E+02 -0.21535777281E+03  0.24187053071E+03  0.89354042160E+02 0.  0.
         23    2    1    2    0    0  0.58037508030E+01  0.90200661873E+02 -0.44706325299E+02  0.13628886187E+03  0.91685088339E+02 0.  0.
        -11    1    4    4    0    0  0.34423309912E+02  0.31517985501E+02  0.13747800529E+02  0.48655417938E+02  0.00000000000E+00 0.  1.
         11    1    4    4    0    0 -0.28619559109E+02  0.58682676372E+02 -0.58454125828E+02  0.87633443937E+02  0.00000000000E+00 0. -1.
        -13    1    3    3    0    0 -0.29988836993E+01 -0.86135555053E+02 -0.18642970293E+03  0.20538831827E+03  0.00000000000E+00 0. -1.
         13    1    3    3    0    0 -0.27228828566E+01  0.22061380429E+02 -0.28928069880E+02  0.36482212440E+02  0.00000000000E+00 0.  1.
         21    1    1    2  503  502 -0.46559641414E+02  0.13068026737E+02 -0.30547951226E+02  0.57199220759E+02  0.00000000000E+00 0.  1.
          2    1    1    2  501    0  0.46477657166E+02 -0.39194513986E+02 -0.81472692231E+02  0.10165717939E+03  0.00000000000E+00 0. -1.
<scales pt_clust_5="13000.00000" pt_clust_6="13000.00000" pt_clust_7="13000.00000" pt_clust_8="13000.00000" pt_clust_9="48.35880" pt_clust_10="54.45124"></scales>
<clustering>
<clus scale="   48.359">  1  9  2 -1</clus>
<clus scale="   54.451">  1 10  2 -1</clus>
<clus scale="   89.354">  7  8 -1 -1</clus>
<clus scale="   91.685">  5  6 -1 -1</clus>
<clus scale="  113.616">  2  7  1 -1</clus>
<clus scale="   48.359">  1  5  2 -1</clus>
</clustering>
</event>
<event>
10    2  0.2421970E-006  0.1109953E+03  0.7546771E-02  0.1260130E+00
         21   -1    0    0  503  502  0.00000000000E+00  0.00000000000E+00  0.21220665803E+03  0.21220665803E+03  0.00000000000E+00 0. -1.
         -1   -1    0    0    0  501 -0.00000000000E+00 -0.00000000000E+00 -0.42940805912E+03  0.42940805912E+03  0.00000000000E+00 0.  1.
         23    2    1    2    0    0  0.35212367658E+02 -0.41798347608E+02 -0.37278149107E+03  0.38776371130E+03  0.91693200489E+02 0.  0.
         23    2    1    2    0    0 -0.78132662112E+02  0.67081934451E+02  0.10385322998E+03  0.17451171658E+03  0.95205814042E+02 0.  0.
        -11    1    4    4    0    0 -0.56084052115E+02 -0.90494909585E+01  0.64724212787E+02  0.86119323669E+02  0.00000000000E+00 0.  1.
         11    1    4    4    0    0 -0.22048609997E+02  0.76131425409E+02  0.39129017191E+02  0.88392392908E+02  0.00000000000E+00 0. -1.
        -13    1    3    3    0    0  0.55985019354E+02 -0.25886999865E+02 -0.34129526112E+03  0.34682403956E+03  0.00000000000E+00 0.  1.
         13    1    3    3    0    0 -0.20772651696E+02 -0.15911347743E+02 -0.31486229952E+02  0.40939671739E+02  0.00000000000E+00 0. -1.
         21    1    1    2  503  501  0.19493418556E+02 -0.62733942100E+01  0.12282097517E+01  0.20514807850E+02  0.00000000000E+00 0. -1.
         -1    1    1    2    0  502  0.23426875898E+02 -0.19010192633E+02  0.50498650253E+02  0.58824481431E+02  0.00000000000E+00 0.  1.
<scales pt_clust_5="13000.00000" pt_clust_6="13000.00000" pt_clust_7="13000.00000" pt_clust_8="13000.00000" pt_clust_9="20.47801" pt_clust_10="35.40960"></scales>
<clustering>
<clus scale="   20.478">  1  9  2 -1</clus>
<clus scale="   35.410">  1 10  2 -1</clus>
<clus scale="   91.693">  7  8 -1 -1</clus>
<clus scale="   95.206">  5  6 -1 -1</clus>
<clus scale="  107.997">  2  7  1 -1</clus>
<clus scale="   20.478">  1  5  2 -1</clus>
</clustering>
</event>
<event>
10    2  0.2421970E-006  0.1697571E+03  0.7546771E-02  0.1178203E+00
         -3   -1    0    0    0  501 -0.00000000000E+00  0.00000000000E+00  0.36545700161E+03  0.36545700161E+03  0.00000000000E+00 0.  1.
         21   -1    0    0  501  502  0.00000000000E+00 -0.00000000000E+00 -0.17308047544E+03  0.17308047544E+03  0.00000000000E+00 0.  1.
         23    2    1    2    0    0 -0.18733772580E+02 -0.11934767307E+03  0.14266129711E+03  0.20835421344E+03  0.92002235094E+02 0.  0.
         23    2    1    2    0    0 -0.79081303486E+01  0.18747767915E+03  0.10419515898E+03  0.23323814129E+03  0.91285161403E+02 0.  0.
        -11    1    3    3    0    0 -0.44210381166E+02 -0.49712078214E+02  0.28836759391E+02  0.72507980356E+02  0.00000000000E+00 0.  1.
         11    1    3    3    0    0  0.25476608585E+02 -0.69635594855E+02  0.11382453772E+03  0.13584623308E+03  0.00000000000E+00 0. -1.
        -13    1    4    4    0    0 -0.27464836844E+02  0.18154055813E+03  0.10715388653E+03  0.21258703373E+03  0.00000000000E+00 0.  1.
         13    1    4    4    0    0  0.19556706495E+02  0.59371210119E+01 -0.29587275442E+01  0.20651107562E+02  0.00000000000E+00 0. -1.
         21    1    1    2  503  502  0.15760447182E+02 -0.40788957719E+02 -0.51206552474E+02  0.67336778832E+02  0.00000000000E+00 0.  1.
         -3    1    1    2    0  503  0.10881455747E+02 -0.27341048357E+02 -0.32733774464E+01  0.29608343491E+02  0.00000000000E+00 0.  1.
<scales pt_clust_5="13000.00000" pt_clust_6="13000.00000" pt_clust_7="13000.00000" pt_clust_8="13000.00000" pt_clust_9="26.94412" pt_clust_10="80.18911"></scales>
<clustering>
<clus scale="   26.944">  9 10 -1 -1</clus>
<clus scale="   80.189">  2  9  1 -1</clus>
<clus scale="   91.285">  7  8 -1 -1</clus>
<clus scale="   92.002">  5  6 -1 -1</clus>
<clus scale="  169.370">  2  7  1 -1</clus>
<clus scale="   80.189">  2  5  1 -1</clus>
</clustering>
</event>
<event>
10    2  0.2421970E-006  0.1135272E+03  0.7546771E-02  0.1254515E+00
         -1   -1    0    0    0  501 -0.00000000000E+00  0.00000000000E+00  0.21089048985E+03  0.21089048985E+03  0.00000000000E+00 0.  1.
         21   -1    0    0  503  502  0.00000000000E+00 -0.00000000000E+00 -0.14295390820E+03  0.14295390820E+03  0.00000000000E+00 0. -1.
         23    2    1    2    0    0  0.57778970530E+02 -0.11750101188E+02  0.67702111319E+02  0.12785736474E+03  0.91035463022E+02 0.  0.
         23    2    1    2    0    0 -0.72980028456E+02  0.19319142295E+02  0.65028696339E+02  0.13560537425E+03  0.91982456835E+02 0.  0.
        -11    1    3    3    0    0  0.46476278202E+02  0.27898228876E+02  0.72562182135E+01  0.54690111654E+02  0.00000000000E+00 0. -1.
         11    1    3    3    0    0  0.11302692328E+02 -0.39648330065E+02  0.60445893106E+02  0.73167253086E+02  0.00000000000E+00 0.  1.
        -11    1    4    4    0    0 -0.15228653792E+02  0.50677611687E+02  0.23759062807E+02  0.58005390165E+02  0.00000000000E+00 0.  1.
         11    1    4    4    0    0 -0.57751374663E+02 -0.31358469393E+02  0.41269633532E+02  0.77599984085E+02  0.00000000000E+00 0. -1.
         21    1    1    2  503  501  0.14225389114E+02 -0.32301321599E+02 -0.24054945415E+02  0.42712731959E+02  0.00000000000E+00 0. -1.
         -1    1    1    2    0  502  0.97566881223E+00  0.24732280492E+02 -0.40739280592E+02  0.47668927103E+02  0.00000000000E+00 0.  1.
<scales pt_clust_5="13000.00000" pt_clust_6="13000.00000" pt_clust_7="13000.00000" pt_clust_8="13000.00000" pt_clust_9="28.01764" pt_clust_10="24.75152"></scales>
<clustering>
<clus scale="   24.752">  2 10  1 -1</clus>
<clus scale="   28.018">  2  9  1 -1</clus>
<clus scale="   91.035">  5  6 -1 -1</clus>
<clus scale="   91.982">  7  8 -1 -1</clus>
<clus scale="  112.761">  1  5  2 -1</clus>
<clus scale="   24.752">  2  5  1 -1</clus>
</clustering>
</event>
<event>
10    2  0.2421970E-006  0.2766699E+03  0.7546771E-02  0.1098255E+00
         21   -1    0    0  503  502  0.00000000000E+00  0.00000000000E+00  0.11433055739E+03  0.11433055739E+03  0.00000000000E+00 0. -1.
          1   -1    0    0  502    0 -0.00000000000E+00 -0.00000000000E+00 -0.11755877903E+04  0.11755877903E+04  0.00000000000E+00 0. -1.
         23    2    1    2    0    0 -0.19957508634E+03 -0.11385709514E+03 -0.61693177998E+03  0.66755568878E+03  0.11059892982E+03 0.  0.
         23    2    1    2    0    0  0.25189675009E+03  0.19495010544E+03 -0.34816390185E+03  0.48170499013E+03  0.96768169614E+02 0.  0.
        -11    1    3    3    0    0 -0.66191156049E+02 -0.78342503086E+02 -0.37751964386E+03  0.39120314215E+03  0.00000000000E+00 0.  1.
         11    1    3    3    0    0 -0.13338393029E+03 -0.35514592049E+02 -0.23941213612E+03  0.27635254663E+03  0.00000000000E+00 0. -1.
        -11    1    4    4    0    0  0.57938563228E+02  0.34332697417E+02 -0.13855830317E+03  0.15405847786E+03  0.00000000000E+00 0.  1.
         11    1    4    4    0    0  0.19395818686E+03  0.16061740802E+03 -0.20960559868E+03  0.32764651227E+03  0.00000000000E+00 0. -1.
         21    1    1    2  503  501 -0.24743750661E+02 -0.20273439807E+02 -0.14373045308E+02  0.35069217126E+02  0.00000000000E+00 0. -1.
          1    1    1    2  501    0 -0.27577913088E+02 -0.60819570496E+02 -0.81788505748E+02  0.10558845163E+03  0.00000000000E+00 0. -1.
<scales pt_clust_5="13000.00000" pt_clust_6="13000.00000" pt_clust_7="13000.00000" pt_clust_8="13000.00000" pt_clust_9="24.21294" pt_clust_10="102.65250"></scales>
<clustering>
<clus scale="   24.213">  9 10 -1 -1</clus>
<clus scale="   96.768">  7  8 -1 -1</clus>
<clus scale="  102.653">  1  9  2 -1</clus>
<clus scale="  110.599">  5  6 -1 -1</clus>
<clus scale="  271.437">  1  7  2 -1</clus>
<clus scale="  102.653">  1  5  2 -1</clus>
</clustering>
</event>
<event>
10    2  0.2421970E-006  0.1523680E+03  0.7546771E-02  0.1198273E+00
         21   -1    0    0  501  502  0.00000000000E+00  0.00000000000E+00  0.10987828368E+03  0.10987828368E+03  0.00000000000E+00 0.  1.
          1   -1    0    0  503    0 -0.00000000000E+00 -0.00000000000E+00 -0.57007389484E+03  0.57007389484E+03  0.00000000000E+00 0. -1.
         23    2    1    2    0    0  0.47455672736E+02  0.86894143447E+02 -0.33450719860E+03  0.36053425521E+03  0.91034335399E+02 0.  0.
         23    2    1    2    0    0 -0.23269574139E+02 -0.15498557414E+03 -0.73147654466E+02  0.19717378650E+03  0.94683269164E+02 0.  0.
        -11    1    4    4    0    0  0.32902892976E+02 -0.25840589299E+02 -0.22554700141E+02  0.47529474224E+02  0.00000000000E+00 0. -1.
         11    1    4    4    0    0 -0.56172467115E+02 -0.12914498484E+03 -0.50592954325E+02  0.14964431228E+03  0.00000000000E+00 0.  1.
        -13    1    3    3    0    0  0.20620003354E+02  0.96032164661E+02 -0.30112452097E+03  0.31673859619E+03  0.00000000000E+00 0. -1.
         13    1    3    3    0    0  0.26835669383E+02 -0.91380212136E+01 -0.33382677636E+02  0.43795659021E+02  0.00000000000E+00 0.  1.
         21    1    1    2  503  502 -0.87900658014E+01  0.23409877448E+02 -0.68054607837E+02  0.72503222458E+02  0.00000000000E+00 0. -1.
          1    1    1    2  501    0 -0.15396032796E+02  0.44681553242E+02  0.15513849742E+02  0.49740914344E+02  0.00000000000E+00 0. -1.
<scales pt_clust_5="13000.00000" pt_clust_6="13000.00000" pt_clust_7="13000.00000" pt_clust_8="13000.00000" pt_clust_9="25.00575" pt_clust_10="48.11561"></scales>
<clustering>
<clus scale="   25.006">  2  9  1 -1</clus>
<clus scale="   48.116">  1 10  2 -1</clus>
<clus scale="   91.034">  7  8 -1 -1</clus>
<clus scale="   94.683">  5  6 -1 -1</clus>
<clus scale="  150.128">  2  7  1 -1</clus>
<clus scale="   48.116">  1  5  2 -1</clus>
</clustering>
</event>
<event>
10    2  0.2421970E-006  0.1529552E+03  0.7546771E-02  0.1214040E+00
         -1   -1    0    0    0  501 -0.00000000000E+00  0.00000000000E+00  0.12871544385E+03  0.12871544385E+03  0.00000000000E+00 0.  1.
         21   -1    0    0  501  502  0.00000000000E+00 -0.00000000000E+00 -0.52720976199E+03  0.52720976199E+03  0.00000000000E+00 0.  1.
         23    2    1    2    0    0  0.12295290371E+02  0.42256311176E+02  0.49888484601E+02  0.11692480618E+03  0.96154975973E+02 0.  0.
         23    2    1    2    0    0  0.83706670496E+02  0.67195924379E+02 -0.24688269885E+03  0.28429227569E+03  0.91372490859E+02 0.  0.
        -13    1    3    3    0    0  0.45051488688E+02  0.33580268701E+02  0.59363628246E+02  0.81739289437E+02  0.00000000000E+00 0.  1.
         13    1    3    3    0    0 -0.32756198317E+02  0.86760424749E+01 -0.94751436455E+01  0.35185516741E+02  0.00000000000E+00 0. -1.
        -13    1    4    4    0    0  0.72088049057E+02  0.34196482381E+02 -0.77135526436E+02  0.11097736554E+03  0.00000000000E+00 0.  1.
         13    1    4    4    0    0  0.11618621439E+02  0.32999441998E+02 -0.16974717241E+03  0.17331491015E+03  0.00000000000E+00 0. -1.
         21    1    1    2  503  502 -0.28512225828E+02 -0.43189364411E+02 -0.11677102563E+03  0.12772525454E+03  0.00000000000E+00 0. -1.
         -1    1    1    2    0  503 -0.67489735039E+02 -0.66262871145E+02 -0.84729078264E+02  0.12698286944E+03  0.00000000000E+00 0.  1.
<scales pt_clust_5="13000.00000" pt_clust_6="13000.00000" pt_clust_7="13000.00000" pt_clust_8="13000.00000" pt_clust_9="41.03729" pt_clust_10="134.62595"></scales>
<clustering>
<clus scale="   41.037">  9 10 -1 -1</clus>
<clus scale="   91.372">  7  8 -1 -1</clus>
<clus scale="   96.155">  5  6 -1 -1</clus>
<clus scale="  105.748">  1  5  2 -1</clus>
<clus scale="  134.626">  2  9  1 -1</clus>
<clus scale="  134.626">  2  5  1 -1</clus>
</clustering>
</event>
<event>
10    2  0.2421970E-006  0.1914324E+03  0.7546771E-02  0.1157367E+00
          2   -1    0    0  503    0 -0.00000000000E+00  0.00000000000E+00  0.10942798126E+04  0.10942798126E+04  0.00000000000E+00 0. -1.
         21   -1    0    0  501  502  0.00000000000E+00 -0.00000000000E+00 -0.60185502121E+03  0.60185502121E+03  0.00000000000E+00 0. -1.
         23    2    1    2    0    0 -0.15247114555E+03 -0.73736468258E+02  0.81313348801E+03  0.83552419042E+03  0.90719824103E+02 0.  0.
         23    2    1    2    0    0  0.21109442777E+03 -0.11272888728E+03  0.17932746784E+03  0.31302222392E+03  0.92498175548E+02 0.  0.
        -11    1    3    3    0    0 -0.40579514310E+01 -0.30576925202E+02  0.70109389228E+02  0.76594658968E+02  0.00000000000E+00 0.  1.
         11    1    3    3    0    0 -0.14841319412E+03 -0.43159543056E+02  0.74302409878E+03  0.75892953145E+03  0.00000000000E+00 0. -1.
        -11    1    4    4    0    0  0.75067526379E+02  0.69409675908E+01  0.52341036298E+02  0.91776329348E+02  0.00000000000E+00 0.  1.
         11    1    4    4    0    0  0.13602690139E+03 -0.11966985487E+03  0.12698643155E+03  0.22124589457E+03  0.00000000000E+00 0. -1.
         21    1    1    2  503  502  0.27098098516E+02  0.80164870369E+02 -0.15663599053E+03  0.17803243219E+03  0.00000000000E+00 0. -1.
          2    1    1    2  501    0 -0.85721380736E+02  0.10630048517E+03 -0.34340017395E+03  0.36955598727E+03  0.00000000000E+00 0. -1.
<scales pt_clust_5="13000.00000" pt_clust_6="13000.00000" pt_clust_7="13000.00000" pt_clust_8="13000.00000" pt_clust_9="84.62100" pt_clust_10="183.40705"></scales>
<clustering>
<clus scale="   84.621">  2  9  1 -1</clus>
<clus scale="   90.720">  5  6 -1 -1</clus>
<clus scale="   92.498">  7  8 -1 -1</clus>
<clus scale="  183.407">  2 10  1 -1</clus>
<clus scale="  190.580">  1  5  2 -1</clus>
<clus scale="   84.621">  2  5  1 -1</clus>
</clustering>
</event>
<event>
10    2  0.2421970E-006  0.9768784E+02  0.7546771E-02  0.1285628E+00
          2   -1    0    0  503    0 -0.00000000000E+00  0.00000000000E+00  0.20749758518E+03  0.20749758518E+03  0.00000000000E+00 0. -1.
         21   -1    0    0  501  502  0.00000000000E+00 -0.00000000000E+00 -0.23841853780E+03  0.23841853780E+03  0.00000000000E+00 0.  1.
         23    2    1    2    0    0 -0.10913326325E+02  0.29636807754E+02  0.16128738373E+03  0.18847693469E+03  0.92263176255E+02 0.  0.
         23    2    1    2    0    0  0.27054245360E+02 -0.28920197587E+02 -0.10477180193E+03  0.14462776286E+03  0.91497263826E+02 0.  0.
        -11    1    3    3    0    0 -0.46398094032E+02  0.37568102262E+02  0.83892834063E+02  0.10296675699E+03  0.00000000000E+00 0. -1.
         11    1    3    3    0    0  0.35484767708E+02 -0.79312945073E+01  0.77394549669E+02  0.85510177700E+02  0.00000000000E+00 0.  1.
        -11    1    4    4    0    0 -0.23895877743E+02 -0.15044109263E+02 -0.82712269013E+02  0.87399414425E+02  0.00000000000E+00 0.  1.
         11    1    4    4    0    0  0.50950123103E+02 -0.13876088324E+02 -0.22059532922E+02  0.57228348431E+02  0.00000000000E+00 0. -1.
         21    1    1    2  503  502 -0.58610632661E+01 -0.27276332737E+02 -0.89213956156E+01  0.29290641678E+02  0.00000000000E+00 0.  1.
          2    1    1    2  501    0 -0.10279855769E+02  0.26559722570E+02 -0.78515138800E+02  0.83520783751E+02  0.00000000000E+00 0. -1.
<scales pt_clust_5="13000.00000" pt_clust_6="13000.00000" pt_clust_7="13000.00000" pt_clust_8="13000.00000" pt_clust_9="27.89893" pt_clust_10="20.65381"></scales>
<clustering>
<clus scale="   27.899">  2  9  1 -1</clus>
<clus scale="   20.654">  2 10  1 -1</clus>
<clus scale="   91.497">  7  8 -1 -1</clus>
<clus scale="   92.263">  5  6 -1 -1</clus>
<clus scale="   96.965">  2  7  1 -1</clus>
<clus scale="   27.899">  2  5  1 -1</clus>
</clustering>
</event>
<event>
10    2  0.2421970E-006  0.1212015E+03  0.7546771E-02  0.1249383E+00
          1   -1    0    0  502    0 -0.00000000000E+00  0.00000000000E+00  0.37644774547E+03  0.37644774547E+03  0.00000000000E+00 0. -1.
         21   -1    0    0  503  502  0.00000000000E+00 -0.00000000000E+00 -0.13233269879E+03  0.13233269879E+03  0.00000000000E+00 0. -1.
         23    2    1    2    0    0 -0.31661108312E+02  0.10818544741E+01  0.20578583768E+03  0.22737778628E+03  0.91374233320E+02 0.  0.
         23    2    1    2    0    0  0.10907228975E+03  0.62985320513E+01  0.92487077248E+02  0.18164272775E+03  0.11182032548E+03 0.  0.
        -11    1    4    4    0    0  0.11619145443E+03 -0.27523163060E+02  0.84176784529E+02  0.14609486521E+03  0.00000000000E+00 0. -1.
         11    1    4    4    0    0 -0.71191646871E+01  0.33821695111E+02  0.83102927189E+01  0.35547862539E+02  0.00000000000E+00 0.  1.
        -13    1    3    3    0    0  0.22177514001E+02  0.28633580586E+02  0.75245121017E+02  0.83507797847E+02  0.00000000000E+00 0. -1.
         13    1    3    3    0    0 -0.53838622314E+02 -0.27551726112E+02  0.13054071666E+03  0.14386998843E+03  0.00000000000E+00 0.  1.
         21    1    1    2  503  501 -0.29488356880E+02  0.59421331235E+00 -0.37164047669E+01  0.29727562048E+02  0.00000000000E+00 0.  1.
          1    1    1    2  501    0 -0.47922824555E+02 -0.79745998378E+01 -0.50441463473E+02  0.70032368183E+02  0.00000000000E+00 0. -1.
<scales pt_clust_5="13000.00000" pt_clust_6="13000.00000" pt_clust_7="13000.00000" pt_clust_8="13000.00000" pt_clust_9="24.29223" pt_clust_10="83.77929"></scales>
<clustering>
<clus scale="   24.292">  9 10 -1 -1</clus>
<clus scale="   83.779">  2  9  1 -1</clus>
<clus scale="   91.374">  7  8 -1 -1</clus>
<clus scale="  102.642">  1  7  2 -1</clus>
<clus scale="  111.820">  5  6 -1 -1</clus>
<clus scale="   83.779">  2  5  1 -1</clus>
</clustering>
</event>
<event>
10    2  0.2421970E-006  0.9511488E+02  0.7546771E-02  0.1292464E+00
          3   -1    0    0  503    0 -0.00000000000E+00  0.00000000000E+00  0.19789168077E+03  0.19789168077E+03  0.00000000000E+00 0. -1.
         21   -1    0    0  501  502  0.00000000000E+00 -0.00000000000E+00 -0.18658607386E+03  0.18658607386E+03  0.00000000000E+00 0. -1.
         23    2    1    2    0    0 -0.70811964588E+01 -0.12698474211E+02  0.10926777377E+03  0.14321140514E+03  0.91425738099E+02 0.  0.
         23    2    1    2    0    0 -0.52097946519E+02  0.13211222324E+02 -0.32907178090E+02  0.11330571635E+03  0.94162468967E+02 0.  0.
        -11    1    3    3    0    0  0.24209192867E+02  0.44164541310E+01 -0.35745495590E+01  0.24866996017E+02  0.00000000000E+00 0.  1.
         11    1    3    3    0    0 -0.31290389326E+02 -0.17114928342E+02  0.11284232333E+03  0.11834440912E+03  0.00000000000E+00 0. -1.
        -11    1    4    4    0    0 -0.45599741653E+02  0.44727428028E+02 -0.45844639136E+02  0.78623216636E+02  0.00000000000E+00 0. -1.
         11    1    4    4    0    0 -0.64982048665E+01 -0.31516205703E+02  0.12937461045E+02  0.34682499719E+02  0.00000000000E+00 0.  1.
         21    1    1    2  503  502  0.65099003443E+02  0.31216889801E+02 -0.62657350079E+02  0.95594549933E+02  0.00000000000E+00 0. -1.
          3    1    1    2  501    0 -0.59198604648E+01 -0.31729637914E+02 -0.23976386913E+01  0.32366083195E+02  0.00000000000E+00 0. -1.
<scales pt_clust_5="13000.00000" pt_clust_6="13000.00000" pt_clust_7="13000.00000" pt_clust_8="13000.00000" pt_clust_9="64.44674" pt_clust_10="32.27715"></scales>
<clustering>
<clus scale="   32.277">  2 10  1 -1</clus>
<clus scale="   64.447">  2  9  1 -1</clus>
<clus scale="   91.426">  5  6 -1 -1</clus>
<clus scale="   92.406">  1  5  2 -1</clus>
<clus scale="   94.162">  7  8 -1 -1</clus>
<clus scale="   32.277">  2  5  1 -1</clus>
</clustering>
</event>
<event>
10    2  0.2421970E-006  0.2007073E+03  0.7546771E-02  0.1149296E+00
         -2   -1    0    0    0  501 -0.00000000000E+00  0.00000000000E+00  0.38312186895E+02  0.38312186895E+02  0.00000000000E+00 0.  1.
         21   -1    0    0  501  502  0.00000000000E+00 -0.00000000000E+00 -0.15411156435E+04  0.15411156435E+04  0.00000000000E+00 0.  1.
         23    2    1    2    0    0 -0.18158643998E+03 -0.43379151924E+02 -0.57659260158E+03  0.61268076374E+03  0.89795902200E+02 0.  0.
         23    2    1    2    0    0  0.17378113085E+03 -0.11774796071E+02 -0.82169963424E+03  0.84457210839E+03  0.88165923696E+02 0.  0.
        -11    1    4    4    0    0  0.59664236755E+02  0.37365717609E+02 -0.26670689350E+03  0.27584159411E+03  0.00000000000E+00 0. -1.
         11    1    4    4    0    0  0.11411689409E+03 -0.49140513680E+02 -0.55499274074E+03  0.56873051428E+03  0.00000000000E+00 0.  1.
        -11    1    3    3    0    0 -0.88484212371E+02 -0.33994308610E+02 -0.16230895461E+03  0.18796080869E+03  0.00000000000E+00 0.  1.
         11    1    3    3    0    0 -0.93102227614E+02 -0.93848433142E+01 -0.41428364697E+03  0.42471995505E+03  0.00000000000E+00 0. -1.
         21    1    1    2  503  502 -0.10034179301E+02  0.31894291292E+02 -0.47761523142E+02  0.58301746664E+02  0.00000000000E+00 0.  1.
         -2    1    1    2    0  503  0.17839488437E+02  0.23259656704E+02 -0.56749697646E+02  0.63873211604E+02  0.00000000000E+00 0.  1.
<scales pt_clust_5="13000.00000" pt_clust_6="13000.00000" pt_clust_7="13000.00000" pt_clust_8="13000.00000" pt_clust_9="28.10921" pt_clust_10="63.27819"></scales>
<clustering>
<clus scale="   28.109">  9 10 -1 -1</clus>
<clus scale="   63.278">  2  9  1 -1</clus>
<clus scale="   88.166">  5  6 -1 -1</clus>
<clus scale="   89.796">  7  8 -1 -1</clus>
<clus scale="  199.983">  2  5  1 -1</clus>
<clus scale="   63.278">  2  5  1 -1</clus>
</clustering>
</event>
<event>
10    2  0.2421970E-006  0.1351488E+03  0.7546771E-02  0.1220329E+00
         21   -1    0    0  501  502  0.00000000000E+00  0.00000000000E+00  0.63047246421E+03  0.63047246421E+03  0.00000000000E+00 0.  1.
          2   -1    0    0  503    0 -0.00000000000E+00 -0.00000000000E+00 -0.85335832678E+02  0.85335832678E+02  0.00000000000E+00 0. -1.
         23    2    1    2    0    0  0.18463699509E+02 -0.90749306200E+02  0.33438069357E+02  0.13353900030E+03  0.90212057633E+02 0.  0.
         23    2    1    2    0    0 -0.10863358032E+03  0.58863268940E+02  0.40265198191E+03  0.43101735398E+03  0.91548903283E+02 0.  0.
        -11    1    4    4    0    0 -0.46163278031E+02  0.72168968743E+02  0.27880027508E+03  0.29166590763E+03  0.00000000000E+00 0.  1.
         11    1    4    4    0    0 -0.62470302291E+02 -0.13305699803E+02  0.12385170682E+03  0.13935144635E+03  0.00000000000E+00 0. -1.
        -11    1    3    3    0    0  0.26792459692E+02  0.82010475199E+01  0.17316309613E+02  0.32938543614E+02  0.00000000000E+00 0.  1.
         11    1    3    3    0    0 -0.83287601834E+01 -0.98950353720E+02  0.16121759744E+02  0.10060045668E+03  0.00000000000E+00 0. -1.
         21    1    1    2  503  502  0.20422398012E+02 -0.77464922255E+01  0.10657233281E+02  0.24303479248E+02  0.00000000000E+00 0. -1.
          2    1    1    2  501    0  0.69747482802E+02  0.39632529485E+02  0.98389346985E+02  0.12694846336E+03  0.00000000000E+00 0. -1.
<scales pt_clust_5="13000.00000" pt_clust_6="13000.00000" pt_clust_7="13000.00000" pt_clust_8="13000.00000" pt_clust_9="21.84222" pt_clust_10="82.81114"></scales>
<clustering>
<clus scale="   21.842">  2  9  1 -1</clus>
<clus scale="   82.811">  1 10  2 -1</clus>
<clus scale="   90.212">  7  8 -1 -1</clus>
<clus scale="   91.549">  5  6 -1 -1</clus>
<clus scale="  134.247">  2  7  1 -1</clus>
<clus scale="   82.811">  1  5  2 -1</clus>
</clustering>
</event>
<event>
10    2  0.2421970E-006  0.2311719E+03  0.7546771E-02  0.1126170E+00
          2   -1    0    0  502    0 -0.00000000000E+00  0.00000000000E+00  0.14235127397E+04  0.14235127397E+04  0.00000000000E+00 0. -1.
         21   -1    0    0  503  502  0.00000000000E+00 -0.00000000000E+00 -0.15168898020E+03  0.15168898020E+03  0.00000000000E+00 0. -1.
         23    2    1    2    0    0 -0.19986117464E+03  0.34820609395E+02  0.87762666138E+03  0.90505922116E+03  0.88015186669E+02 0.  0.
         23    2    1    2    0    0  0.29546238939E+03  0.12284220336E+03  0.16066658473E+03  0.36996349559E+03  0.93118237473E+02 0.  0.
        -11    1    3    3    0    0 -0.15478641174E+03  0.59797407431E+02  0.73235198405E+03  0.75091543581E+03  0.00000000000E+00 0. -1.
         11    1    3    3    0    0 -0.45074762894E+02 -0.24976798036E+02  0.14527467733E+03  0.15414378535E+03  0.00000000000E+00 0.  1.
        -13    1    4    4    0    0  0.80635817521E+02  0.23125131135E+02  0.21074818337E+00  0.83886537490E+02  0.00000000000E+00 0.  1.
         13    1    4    4    0    0  0.21482657187E+03  0.99717072221E+02  0.16045583654E+03  0.28607695810E+03  0.00000000000E+00 0. -1.
         21    1    1    2  503  501 -0.46637021555E+02 -0.47709293327E+02  0.65575902560E+02  0.93548850585E+02  0.00000000000E+00 0.  1.
          2    1    1    2  501    0 -0.48964193200E+02 -0.10995351942E+03  0.16795461082E+03  0.20663015255E+03  0.00000000000E+00 0. -1.
<scales pt_clust_5="13000.00000" pt_clust_6="13000.00000" pt_clust_7="13000.00000" pt_clust_8="13000.00000" pt_clust_9="29.53549" pt_clust_10="188.60258"></scales>
<clustering>
<clus scale="   29.535">  9 10 -1 -1</clus>
<clus scale="   88.015">  5  6 -1 -1</clus>
<clus scale="   93.118">  7  8 -1 -1</clus>
<clus scale="  188.603">  2  9  1 -1</clus>
<clus scale="  229.164">  1  5  2 -1</clus>
<clus scale="  188.603">  2  5  1 -1</clus>
</clustering>
</event>
<event>
10    2  0.2421970E-006  0.9674870E+02  0.7546771E-02  0.1287925E+00
         21   -1    0    0  503  502  0.00000000000E+00  0.00000000000E+00  0.72755946934E+02  0.72755946934E+02  0.00000000000E+00 0. -1.
         -1   -1    0    0    0  501 -0.00000000000E+00 -0.00000000000E+00 -0.23697486273E+03  0.23697486273E+03  0.00000000000E+00 0.  1.
         23    2    1    2    0    0 -0.35777878370E+00  0.25919523566E+02 -0.11890298546E+03  0.15207488897E+03  0.91197051456E+02 0.  0.
         23    2    1    2    0    0  0.35321500952E+02 -0.26601050707E+02 -0.41900037493E+02  0.11068016404E+03  0.92408123241E+02 0.  0.
        -11    1    4    4    0    0 -0.29508175018E+01  0.24562573977E+02 -0.39663927840E+02  0.46746706152E+02  0.00000000000E+00 0.  1.
         11    1    4    4    0    0  0.38272318454E+02 -0.51163624684E+02 -0.22361096526E+01  0.63933457884E+02  0.00000000000E+00 0. -1.
        -13    1    3    3    0    0 -0.23082799315E+02  0.24375604706E+02 -0.27204375760E+01  0.33680654827E+02  0.00000000000E+00 0. -1.
         13    1    3    3    0    0  0.22725020531E+02  0.15439188596E+01 -0.11618254789E+03  0.11839423414E+03  0.00000000000E+00 0.  1.
         21    1    1    2  503  501 -0.16726481495E+02  0.12817960750E+02 -0.11028281482E+02  0.23784412826E+02  0.00000000000E+00 0. -1.
         -1    1    1    2    0  502 -0.18237240673E+02 -0.12136433609E+02  0.76123886419E+01  0.23191343836E+02  0.00000000000E+00 0.  1.
<scales pt_clust_5="13000.00000" pt_clust_6="13000.00000" pt_clust_7="13000.00000" pt_clust_8="13000.00000" pt_clust_9="21.07309" pt_clust_10="23.94092"></scales>
<clustering>
<clus scale="   21.073">  1  9  2 -1</clus>
<clus scale="   23.941">  1 10  2 -1</clus>
<clus scale="   91.197">  7  8 -1 -1</clus>
<clus scale="   92.408">  5  6 -1 -1</clus>
<clus scale="   95.593">  2  7  1 -1</clus>
<clus scale="   21.073">  1  5  2 -1</clus>
</clustering>
</event>
<event>
10    2  0.2421970E-006  0.9794885E+02  0.7546771E-02  0.1285827E+00
          3   -1    0    0  503    0 -0.00000000000E+00  0.00000000000E+00  0.45535085330E+03  0.45535085330E+03  0.00000000000E+00 0. -1.
         21   -1    0    0  501  502  0.00000000000E+00 -0.00000000000E+00 -0.37072799232E+03  0.37072799232E+03  0.00000000000E+00 0. -1.
         23    2    1    2    0    0  0.17816056121E+02  0.19089522729E+02  0.36798343536E+03  0.38004630184E+03  0.91332147181E+02 0.  0.
         23    2    1    2    0    0 -0.64744358841E+02 -0.24029578677E+00  0.35470576578E+02  0.11917064107E+03  0.93549933976E+02 0.  0.
        -11    1    4    4    0    0  0.73695638488E+01 -0.19232210680E+02 -0.18045020459E+02  0.27382679970E+02  0.00000000000E+00 0.  1.
         11    1    4    4    0    0 -0.72113922690E+02  0.18991914893E+02  0.53515597038E+02  0.91787961102E+02  0.00000000000E+00 0. -1.
        -13    1    3    3    0    0  0.35705108333E+01  0.55520367398E+02  0.20262831819E+03  0.21012733063E+03  0.00000000000E+00 0. -1.
         13    1    3    3    0    0  0.14245545288E+02 -0.36430844669E+02  0.16535511717E+03  0.16991897122E+03  0.00000000000E+00 0.  1.
         21    1    1    2  503  502  0.25821307576E+02  0.16635551339E+02 -0.13807911578E+03  0.14145431669E+03  0.00000000000E+00 0.  1.
          3    1    1    2  501    0  0.21106995144E+02 -0.35484778281E+02 -0.18075203518E+03  0.18540758602E+03  0.00000000000E+00 0. -1.
<scales pt_clust_5="13000.00000" pt_clust_6="13000.00000" pt_clust_7="13000.00000" pt_clust_8="13000.00000" pt_clust_9="30.71614" pt_clust_10="47.17730"></scales>
<clustering>
<clus scale="   30.716">  2  9  1 -1</clus>
<clus scale="   47.177">  2 10  1 -1</clus>
<clus scale="   91.332">  7  8 -1 -1</clus>
<clus scale="   93.550">  5  6 -1 -1</clus>
<clus scale="   95.833">  1  7  2 -1</clus>
<clus scale="   30.716">  2  5  1 -1</clus>
</clustering>
</event>
<event>
10    2  0.2421970E-006  0.2295404E+03  0.7546771E-02  0.1127022E+00
          1   -1    0    0  503    0 -0.00000000000E+00  0.00000000000E+00  0.14377017178E+04  0.14377017178E+04  0.00000000000E+00 0. -1.
         21   -1    0    0  501  502  0.00000000000E+00 -0.00000000000E+00 -0.84994304187E+02  0.84994304187E+02  0.00000000000E+00 0. -1.
         23    2    1    2    0    0  0.13436817230E+03 -0.17028831506E+03  0.78302659038E+03  0.81777090743E+03  0.92551066040E+02 0.  0.
         23    2    1    2    0    0 -0.19611441127E+03  0.97314889321E+02  0.51858522518E+03  0.57059502420E+03  0.93364853552E+02 0.  0.
        -11    1    3    3    0    0  0.13829010374E+03 -0.13194706776E+03  0.70899229187E+03  0.73430528489E+03  0.00000000000E+00 0.  1.
         11    1    3    3    0    0 -0.39219314372E+01 -0.38341247300E+02  0.74034298506E+02  0.83465622540E+02  0.00000000000E+00 0. -1.
        -13    1    4    4    0    0 -0.26721832574E+02  0.35203535158E+00  0.16106233859E+03  0.16326437817E+03  0.00000000000E+00 0.  1.
         13    1    4    4    0    0 -0.16939257869E+03  0.96962853969E+02  0.35752288658E+03  0.40733064603E+03  0.00000000000E+00 0. -1.
         21    1    1    2  503  502 -0.42336251230E+00  0.21705216543E+02  0.49142635090E+02  0.53724242615E+02  0.00000000000E+00 0.  1.
          1    1    1    2  501    0  0.62169601478E+02  0.51268209198E+02  0.19529629465E+01  0.80605847720E+02  0.00000000000E+00 0. -1.
<scales pt_clust_5="13000.00000" pt_clust_6="13000.00000" pt_clust_7="13000.00000" pt_clust_8="13000.00000" pt_clust_9="21.70935" pt_clust_10="80.98525"></scales>
<clustering>
<clus scale="   21.709">  1  9  2 -1</clus>
<clus scale="   80.985">  2 10  1 -1</clus>
<clus scale="   92.551">  5  6 -1 -1</clus>
<clus scale="   93.365">  7  8 -1 -1</clus>
<clus scale="  229.211">  1  5  2 -1</clus>
<clus scale="   80.985">  2  5  1 -1</clus>
</clustering>
</event>
<event>
10    2  0.2421970E-006  0.1316821E+03  0.7546771E-02  0.1237704E+00
         21   -1    0    0  503  502  0.00000000000E+00  0.00000000000E+00  0.11430592800E+03  0.11430592800E+03  0.00000000000E+00 0. -1.
         -3   -1    0    0    0  501 -0.00000000000E+00 -0.00000000000E+00 -0.61390006643E+03  0.61390006643E+03  0.00000000000E+00 0.  1.
         23    2    1    2    0    0 -0.29907369517E+02  0.40630961563E+02 -0.54194269266E+03  0.55815470728E+03  0.12365059376E+03 0.  0.
         23    2    1    2    0    0 -0.77251227834E+01 -0.24074851623E+02 -0.62172724243E+00  0.94096307814E+02  0.90633617366E+02 0.  0.
        -11    1    4    4    0    0 -0.25223786559E+02  0.28790612305E+02  0.21841308617E+01  0.38339394790E+02  0.00000000000E+00 0.  1.
         11    1    4    4    0    0  0.17498663775E+02 -0.52865463928E+02 -0.28058581042E+01  0.55756913024E+02  0.00000000000E+00 0. -1.
        -13    1    3    3    0    0 -0.34425005108E+01 -0.44341051250E+02 -0.17189136105E+03  0.17755173793E+03  0.00000000000E+00 0. -1.
         13    1    3    3    0    0 -0.26464869006E+02  0.84972012813E+02 -0.37005133161E+03  0.38060296935E+03  0.00000000000E+00 0.  1.
         21    1    1    2  503  501  0.22420074954E+02  0.61468151081E+01 -0.19987267563E+01  0.23333195357E+02  0.00000000000E+00 0. -1.
         -3    1    1    2    0  502  0.15212417347E+02 -0.22702925048E+02  0.44969008240E+02  0.52621783981E+02  0.00000000000E+00 0.  1.
<scales pt_clust_5="13000.00000" pt_clust_6="13000.00000" pt_clust_7="13000.00000" pt_clust_8="13000.00000" pt_clust_9="23.24743" pt_clust_10="32.50224"></scales>
<clustering>
<clus scale="   23.247">  1  9  2 -1</clus>
<clus scale="   32.502">  1 10  2 -1</clus>
<clus scale="   90.634">  5  6 -1 -1</clus>
<clus scale="  101.317">  1  5  2 -1</clus>
<clus scale="  123.651">  7  8 -1 -1</clus>
<clus scale="   23.247">  1  5  2 -1</clus>
</clustering>
</event>
<event>
10    2  0.2421970E-006  0.3022166E+03  0.7546771E-02  0.1099779E+00
         21   -1    0    0  503  502  0.00000000000E+00  0.00000000000E+00  0.33382442451E+03  0.33382442451E+03  0.00000000000E+00 0. -1.
          1   -1    0    0  502    0 -0.00000000000E+00 -0.00000000000E+00 -0.63127368360E+03  0.63127368360E+03  0.00000000000E+00 0. -1.
         23    2    1    2    0    0 -0.15336623611E+03  0.90511336973E+02 -0.10229137136E+02  0.20043004397E+03  0.91400562245E+02 0.  0.
         23    2    1    2    0    0  0.25043681114E+03 -0.32244054443E+03 -0.28365286340E+03  0.50532106173E+03  0.90575534458E+02 0.  0.
        -13    1    4    4    0    0  0.18110036084E+02 -0.57967175556E+02 -0.15169129299E+02  0.62596080809E+02  0.00000000000E+00 0.  1.
         13    1    4    4    0    0  0.23232677505E+03 -0.26447336888E+03 -0.26848373410E+03  0.44272498092E+03  0.00000000000E+00 0. -1.
        -13    1    3    3    0    0 -0.75423131756E+02  0.83500375551E+02 -0.35835382446E+02  0.11808952602E+03  0.00000000000E+00 0.  1.
         13    1    3    3    0    0 -0.77943104358E+02  0.70109614224E+01  0.25606245310E+02  0.82340517947E+02  0.00000000000E+00 0. -1.
         21    1    1    2  503  501  0.86089004725E+01  0.32136726233E+02 -0.18272194073E+01  0.33319980059E+02  0.00000000000E+00 0.  1.
          1    1    1    2  501    0 -0.10567947550E+03  0.19979248123E+03 -0.17400391481E+01  0.22602702235E+03  0.00000000000E+00 0. -1.
<scales pt_clust_5="13000.00000" pt_clust_6="13000.00000" pt_clust_7="13000.00000" pt_clust_8="13000.00000" pt_clust_9="24.36885" pt_clust_10="295.23755"></scales>
<clustering>
<clus scale="   24.369">  9 10 -1 -1</clus>
<clus scale="   90.576">  5  6 -1 -1</clus>
<clus scale="   91.401">  7  8 -1 -1</clus>
<clus scale="  200.169">  2  7  1 -1</clus>
<clus scale="  295.238">  1  9  2 -1</clus>
<clus scale="  295.238">  1  5  2 -1</clus>
</clustering>
</event>
<event>
10    2  0.2421970E-006  0.1853947E+03  0.7546771E-02  0.1175535E+00
         21   -1    0    0  503  502  0.00000000000E+00  0.00000000000E+00  0.53121658657E+03  0.53121658657E+03  0.00000000000E+00 0. -1.
          1   -1    0    0  502    0 -0.00000000000E+00 -0.00000000000E+00 -0.61833542160E+03  0.61833542160E+03  0.00000000000E+00 0. -1.
         23    2    1    2    0    0  0.86716940950E+02  0.50223102873E+02 -0.29271739127E+02  0.14117433370E+03  0.95032467476E+02 0.  0.
         23    2    1    2    0    0 -0.23491818334E+03 -0.10723075808E+03 -0.48082402424E+03  0.55324261091E+03  0.90557472910E+02 0.  0.
        -13    1    3    3    0    0  0.29212093961E+02  0.63664143674E+02 -0.40717049870E+02  0.81020662633E+02  0.00000000000E+00 0. -1.
         13    1    3    3    0    0  0.57504846989E+02 -0.13441040801E+02  0.11445310744E+02  0.60153671069E+02  0.00000000000E+00 0.  1.
        -13    1    4    4    0    0 -0.46858188769E+02  0.15162801270E+02 -0.89213929650E+02  0.10190547405E+03  0.00000000000E+00 0.  1.
         13    1    4    4    0    0 -0.18805999457E+03 -0.12239355935E+03 -0.39161009459E+03  0.45133713687E+03  0.00000000000E+00 0. -1.
         21    1    1    2  503  501  0.32841406624E+02 -0.32166651322E+01  0.48249211962E+02  0.58454181875E+02  0.00000000000E+00 0.  1.
          1    1    1    2  501    0  0.11535983576E+03  0.60224320344E+02  0.37472771637E+03  0.39668088168E+03  0.00000000000E+00 0. -1.
<scales pt_clust_5="13000.00000" pt_clust_6="13000.00000" pt_clust_7="13000.00000" pt_clust_8="13000.00000" pt_clust_9="27.69569" pt_clust_10="170.86694"></scales>
<clustering>
<clus scale="   27.696">  9 10 -1 -1</clus>
<clus scale="   90.557">  7  8 -1 -1</clus>
<clus scale="   95.032">  5  6 -1 -1</clus>
<clus scale="  138.106">  2  5  1 -1</clus>
<clus scale="  170.867">  1  9  2 -1</clus>
<clus scale="  170.867">  1  5  2 -1</clus>
</clustering>
</event>
<event>
10    2  0.2421970E-006  0.1959054E+03  0.7546771E-02  0.1181575E+00
         21   -1    0    0  501  502  0.00000000000E+00  0.00000000000E+00  0.25113257599E+03  0.25113257599E+03  0.00000000000E+00 0. -1.
          1   -1    0    0  503    0 -0.00000000000E+00 -0.00000000000E+00 -0.52354859819E+03  0.52354859819E+03  0.00000000000E+00 0. -1.
         23    2    1    2    0    0 -0.43438649904E+02 -0.83176016973E+01 -0.56380312700E+01  0.10230940743E+03  0.92083270193E+02 0.  0.
         23    2    1    2    0    0  0.10927831604E+03  0.17974092172E+03 -0.31850341352E+03  0.39242725915E+03  0.91138246627E+02 0.  0.
        -11    1    4    4    0    0  0.54572159967E+02  0.13311566245E+03 -0.14332913188E+03  0.20307914782E+03  0.00000000000E+00 0. -1.
         11    1    4    4    0    0  0.54706156073E+02  0.46625259269E+02 -0.17517428165E+03  0.18934811133E+03  0.00000000000E+00 0.  1.
        -13    1    3    3    0    0 -0.62665418903E+02 -0.30571452408E+02 -0.15242528202E+02  0.71371584645E+02  0.00000000000E+00 0.  1.
         13    1    3    3    0    0  0.19226768999E+02  0.22253850711E+02  0.96044969322E+01  0.30937822789E+02  0.00000000000E+00 0. -1.
         21    1    1    2  503  502 -0.10578050428E+03 -0.10235839823E+02  0.89979396681E+00  0.10627839447E+03  0.00000000000E+00 0. -1.
          1    1    1    2  501    0  0.39940838146E+02 -0.16118748020E+03  0.50825628623E+02  0.17366611313E+03  0.00000000000E+00 0. -1.
<scales pt_clust_5="13000.00000" pt_clust_6="13000.00000" pt_clust_7="13000.00000" pt_clust_8="13000.00000" pt_clust_9="111.21686" pt_clust_10="173.41500"></scales>
<clustering>
<clus scale="   91.138">  5  6 -1 -1</clus>
<clus scale="   92.083">  7  8 -1 -1</clus>
<clus scale="  102.154">  2  7  1 -1</clus>
<clus scale="  111.217">  1  9  2 -1</clus>
<clus scale="  173.415">  1 10  2 -1</clus>
<clus scale="  111.217">  1  5  2 -1</clus>
</clustering>
</event>
<event>
10    2  0.2421970E-006  0.2892824E+03  0.7546771E-02  0.1135100E+00
         21   -1    0    0  503  502  0.00000000000E+00  0.00000000000E+00  0.40670980080E+03  0.40670980080E+03  0.00000000000E+00 0. -1.
          1   -1    0    0  502    0 -0.00000000000E+00 -0.00000000000E+00 -0.67618407070E+03  0.67618407070E+03  0.00000000000E+00 0. -1.
         23    2    1    2    0    0  0.43750398631E+02  0.17079345473E+02 -0.45023147929E+03  0.45992706737E+03  0.81355521850E+02 0.  0.
         23    2    1    2    0    0 -0.55998181695E+02  0.26534885708E+03  0.17511333647E+03  0.33548290864E+03  0.91314232577E+02 0.  0.
        -11    1    4    4    0    0 -0.56814750348E+02  0.77402544374E+02  0.40028134862E+02  0.10402558009E+03  0.00000000000E+00 0.  1.
         11    1    4    4    0    0  0.81656865294E+00  0.18794631271E+03  0.13508520161E+03  0.23145732855E+03  0.00000000000E+00 0. -1.
        -13    1    3    3    0    0  0.21913746147E+02 -0.32695292483E+02 -0.17356162155E+03  0.17796862335E+03  0.00000000000E+00 0.  1.
         13    1    3    3    0    0  0.21836652484E+02  0.49774637956E+02 -0.27666985774E+03  0.28195844403E+03  0.00000000000E+00 0. -1.
         21    1    1    2  503  501  0.24833429954E+02 -0.65840348166E+02  0.47616465679E+01  0.70528887472E+02  0.00000000000E+00 0.  1.
          1    1    1    2  501    0 -0.12585646889E+02 -0.21658785439E+03  0.88222634472E+00  0.21695500801E+03  0.00000000000E+00 0. -1.
<scales pt_clust_5="13000.00000" pt_clust_6="13000.00000" pt_clust_7="13000.00000" pt_clust_8="13000.00000" pt_clust_9="29.58974" pt_clust_10="279.36635"></scales>
<clustering>
<clus scale="   29.590">  9 10 -1 -1</clus>
<clus scale="   81.356">  7  8 -1 -1</clus>
<clus scale="   91.314">  5  6 -1 -1</clus>
<clus scale="   93.939">  2  7  1 -1</clus>
<clus scale="  279.366">  1  9  2 -1</clus>
<clus scale="  279.366">  1  5  2 -1</clus>
</clustering>
</event>
<event>
10    2  0.4281531E-006  0.1092722E+03  0.7546771E-02  0.1262593E+00
         21   -1    0    0  501  502  0.00000000000E+00  0.00000000000E+00  0.64252972865E+03  0.64252972865E+03  0.00000000000E+00 0. -1.
          2   -1    0    0  503    0 -0.00000000000E+00 -0.00000000000E+00 -0.27706728661E+03  0.27706728661E+03  0.00000000000E+00 0. -1.
         23    2    1    2    0    0  0.60169789923E+02  0.34826390697E+02 -0.20709198394E+03  0.23826771653E+03  0.95137447001E+02 0.  0.
         23    2    1    2    0    0 -0.89205889079E+01  0.56043386339E+02  0.24715040081E+02  0.11213193072E+03  0.93500260012E+02 0.  0.
        -13    1    3    3    0    0  0.49367905682E+02 -0.20157258205E+02 -0.56988092585E+02  0.78045806205E+02  0.00000000000E+00 0.  1.
         13    1    3    3    0    0  0.10801884242E+02  0.54983648902E+02 -0.15010389135E+03  0.16022191033E+03  0.00000000000E+00 0. -1.
        -13    1    4    4    0    0  0.28571944895E+02  0.64668985857E+02  0.12731312484E+02  0.71836759980E+02  0.00000000000E+00 0. -1.
         13    1    4    4    0    0 -0.37492533803E+02 -0.86255995179E+01  0.11983727597E+02  0.40295170742E+02  0.00000000000E+00 0.  1.
         21    1    1    2  503  502 -0.32535556801E+02  0.21127953164E+02  0.18423411096E+03  0.18827416313E+03  0.00000000000E+00 0. -1.
          2    1    1    2  501    0 -0.18713644215E+02 -0.11199773020E+03  0.36360527493E+03  0.38092320487E+03  0.00000000000E+00 0. -1.
<scales pt_clust_5="13000.00000" pt_clust_6="13000.00000" pt_clust_7="13000.00000" pt_clust_8="13000.00000" pt_clust_9="38.79372" pt_clust_10="105.01328"></scales>
<clustering>
<clus scale="   38.794">  1  9  2 -1</clus>
<clus scale="   93.500">  7  8 -1 -1</clus>
<clus scale="   95.137">  5  6 -1 -1</clus>
<clus scale="  105.013">  1 10  2 -1</clus>
<clus scale="  107.850">  1  7  2 -1</clus>
<clus scale="   38.794">  1  5  2 -1</clus>
</clustering>
</event>
<event>
10    2  0.2421970E-006  0.1247764E+03  0.7546771E-02  0.1247555E+00
         21   -1    0    0  501  502  0.00000000000E+00  0.00000000000E+00  0.34416231217E+03  0.34416231217E+03  0.00000000000E+00 0. -1.
         -4   -1    0    0    0  501 -0.00000000000E+00 -0.00000000000E+00 -0.88936549023E+02  0.88936549023E+02  0.00000000000E+00 0.  1.
         23    2    1    2    0    0  0.27360715307E+02 -0.12614638851E+02  0.16910473118E+03  0.19523773962E+03  0.92809627785E+02 0.  0.
         23    2    1    2    0    0  0.70054809407E+02  0.22699803218E+02  0.41992093753E+02  0.12374263960E+03  0.90144037682E+02 0.  0.
        -13    1    3    3    0    0 -0.31825486399E+02  0.13048708908E+01  0.31492926844E+02  0.44792507339E+02  0.00000000000E+00 0.  1.
         13    1    3    3    0    0  0.59186201705E+02 -0.13919509742E+02  0.13761180433E+03  0.15044523228E+03  0.00000000000E+00 0. -1.
        -13    1    4    4    0    0 -0.26636970486E+01 -0.25417846151E+02 -0.28070712685E+01  0.25710733829E+02  0.00000000000E+00 0.  1.
         13    1    4    4    0    0  0.72718506455E+02  0.48117649369E+02  0.44799165022E+02  0.98031905768E+02  0.00000000000E+00 0. -1.
         21    1    1    2  503  502 -0.72881998609E+02 -0.88619061396E+01  0.13157456228E+02  0.74588455917E+02  0.00000000000E+00 0.  1.
         -4    1    1    2    0  503 -0.24533526104E+02 -0.12232582270E+01  0.30971481992E+02  0.39530026063E+02  0.00000000000E+00 0.  1.
<scales pt_clust_5="13000.00000" pt_clust_6="13000.00000" pt_clust_7="13000.00000" pt_clust_8="13000.00000" pt_clust_9="22.28372" pt_clust_10="94.48481"></scales>
<clustering>
<clus scale="   22.284">  9 10 -1 -1</clus>
<clus scale="   90.144">  7  8 -1 -1</clus>
<clus scale="   92.810">  5  6 -1 -1</clus>
<clus scale="   97.578">  2  5  1 -1</clus>
<clus scale="   94.485">  1  9  2 -1</clus>
<clus scale="   94.485">  1  5  2 -1</clus>
</clustering>
</event>
<event>
10    2  0.2421970E-006  0.1336966E+03  0.7546771E-02  0.1224007E+00
         21   -1    0    0  503  502  0.00000000000E+00  0.00000000000E+00  0.72607420488E+03  0.72607420488E+03  0.00000000000E+00 0.  1.
         -2   -1    0    0    0  501 -0.00000000000E+00 -0.00000000000E+00 -0.15713984458E+03  0.15713984458E+03  0.00000000000E+00 0.  1.
         23    2    1    2    0    0  0.40373264320E+02 -0.76196442037E+02 -0.91032114414E+02  0.16004006264E+03  0.99448868996E+02 0.  0.
         23    2    1    2    0    0 -0.95775055020E+02  0.68769172031E+02  0.17655537722E+03  0.23146354605E+03  0.92203642766E+02 0.  0.
        -11    1    3    3    0    0 -0.31984700072E+02 -0.21101526570E+02 -0.41483304735E+02  0.56472648548E+02  0.00000000000E+00 0.  1.
         11    1    3    3    0    0  0.72357964392E+02 -0.55094915467E+02 -0.49548809678E+02  0.10356741409E+03  0.00000000000E+00 0. -1.
        -11    1    4    4    0    0 -0.89857256384E+01  0.53226945586E+02  0.10441020737E+03  0.11753868472E+03  0.00000000000E+00 0. -1.
         11    1    4    4    0    0 -0.86789329382E+02  0.15542226445E+02  0.72145169848E+02  0.11392486133E+03  0.00000000000E+00 0.  1.
         21    1    1    2  503  501  0.20159068115E+01 -0.21183181802E+02  0.53876322826E+02  0.57926239588E+02  0.00000000000E+00 0.  1.
         -2    1    1    2    0  502  0.53385883889E+02  0.28610451808E+02  0.42953477466E+03  0.43378420118E+03  0.00000000000E+00 0.  1.
<scales pt_clust_5="13000.00000" pt_clust_6="13000.00000" pt_clust_7="13000.00000" pt_clust_8="13000.00000" pt_clust_9="21.27889" pt_clust_10="56.69539"></scales>
<clustering>
<clus scale="   21.279">  1  9  2 -1</clus>
<clus scale="   56.695">  1 10  2 -1</clus>
<clus scale="   92.204">  7  8 -1 -1</clus>
<clus scale="   99.449">  5  6 -1 -1</clus>
<clus scale="  128.399">  1  7  2 -1</clus>
<clus scale="   21.279">  1  5  2 -1</clus>
</clustering>
</event>
<event>
10    2  0.2421970E-006  0.1137098E+03  0.7546771E-02  0.1256983E+00
         21   -1    0    0  501  502  0.00000000000E+00  0.00000000000E+00  0.20929172877E+03  0.20929172877E+03  0.00000000000E+00 0.  1.
         -3   -1    0    0    0  501 -0.00000000000E+00 -0.00000000000E+00 -0.23837776611E+03  0.23837776611E+03  0.00000000000E+00 0.  1.
         23    2    1    2    0    0  0.57117378361E+02  0.35755969251E+02 -0.11438989037E+03  0.16405310099E+03  0.96371617592E+02 0.  0.
         23    2    1    2    0    0  0.25013836897E+02 -0.86046721644E+02 -0.29362299124E+02  0.12911578813E+03  0.88198706298E+02 0.  0.
        -13    1    4    4    0    0  0.54393491808E+02 -0.76919222221E+02 -0.28161766037E+02  0.98327533095E+02  0.00000000000E+00 0.  1.
         13    1    4    4    0    0 -0.29379654911E+02 -0.91274994230E+01 -0.12005330868E+01  0.30788255035E+02  0.00000000000E+00 0. -1.
        -13    1    3    3    0    0  0.75733167063E+02  0.39513110442E+01 -0.97484082167E+02  0.12350818486E+03  0.00000000000E+00 0.  1.
         13    1    3    3    0    0 -0.18615788702E+02  0.31804658207E+02 -0.16905808204E+02  0.40544916126E+02  0.00000000000E+00 0. -1.
         21    1    1    2  503  502 -0.22469137228E+02  0.22599159471E+02  0.15334850942E+02  0.35365827998E+02  0.00000000000E+00 0. -1.
         -3    1    1    2    0  503 -0.59662078030E+02  0.27691592922E+02  0.99331301206E+02  0.11913477776E+03  0.00000000000E+00 0.  1.
<scales pt_clust_5="13000.00000" pt_clust_6="13000.00000" pt_clust_7="13000.00000" pt_clust_8="13000.00000" pt_clust_9="26.48159" pt_clust_10="103.54763"></scales>
<clustering>
<clus scale="   26.482">  9 10 -1 -1</clus>
<clus scale="   88.199">  5  6 -1 -1</clus>
<clus scale="   96.372">  7  8 -1 -1</clus>
<clus scale="  103.548">  1  9  2 -1</clus>
<clus scale="  106.871">  1  5  2 -1</clus>
<clus scale="  103.548">  1  5  2 -1</clus>
</clustering>
</event>
<event>
10    2  0.2421970E-006  0.9276881E+02  0.7546771E-02  0.1296285E+00
          1   -1    0    0  503    0 -0.00000000000E+00  0.00000000000E+00  0.13375137907E+03  0.13375137907E+03  0.00000000000E+00 0. -1.
         21   -1    0    0  501  502  0.00000000000E+00 -0.00000000000E+00 -0.25084834436E+03  0.25084834436E+03  0.00000000000E+00 0. -1.
         23    2    1    2    0    0 -0.34308172639E+02  0.54712657144E+01  0.54447104840E+02  0.11183837477E+03  0.91303611033E+02 0.  0.
         23    2    1    2    0    0 -0.18220060795E+02 -0.80501617707E+01 -0.58153276595E+01  0.93636884572E+02  0.91308665506E+02 0.  0.
        -11    1    4    4    0    0  0.28160183272E+02  0.17706313889E+02 -0.19880040823E+02  0.38752103124E+02  0.00000000000E+00 0.  1.
         11    1    4    4    0    0 -0.46380244067E+02 -0.25756475660E+02  0.14064713164E+02  0.54884781447E+02  0.00000000000E+00 0. -1.
        -11    1    3    3    0    0  0.19190222825E+02 -0.27815607693E+02  0.26335196266E+02  0.42842913601E+02  0.00000000000E+00 0.  1.
         11    1    3    3    0    0 -0.53498395464E+02  0.33286873408E+02  0.28111908574E+02  0.68995461171E+02  0.00000000000E+00 0. -1.
         21    1    1    2  503  502  0.10836938070E+02 -0.17341051162E+02 -0.68280220418E+02  0.71276502316E+02  0.00000000000E+00 0. -1.
          1    1    1    2  501    0  0.41691295365E+02  0.19919947219E+02 -0.97448522055E+02  0.10784796177E+03  0.00000000000E+00 0. -1.
<scales pt_clust_5="13000.00000" pt_clust_6="13000.00000" pt_clust_7="13000.00000" pt_clust_8="13000.00000" pt_clust_9="20.44875" pt_clust_10="48.88718"></scales>
<clustering>
<clus scale="   20.449">  2  9  1 -1</clus>
<clus scale="   48.887">  2 10  1 -1</clus>
<clus scale="   91.304">  7  8 -1 -1</clus>
<clus scale="   91.309">  5  6 -1 -1</clus>
<clus scale="   92.764">  1  7  2 -1</clus>
<clus scale="   20.449">  2  5  1 -1</clus>
</clustering>
</event>
<event>
10    2  0.2421970E-006  0.1909532E+03  0.7546771E-02  0.1171624E+00
          2   -1    0    0  502    0 -0.00000000000E+00  0.00000000000E+00  0.40267040628E+03  0.40267040628E+03  0.00000000000E+00 0. -1.
         21   -1    0    0  503  502  0.00000000000E+00 -0.00000000000E+00 -0.23723746644E+03  0.23723746644E+03  0.00000000000E+00 0.  1.
         23    2    1    2    0    0  0.85845245759E+02  0.54609510144E+02  0.13324772220E+03  0.19193359966E+03  0.93444884228E+02 0.  0.
         23    2    1    2    0    0 -0.13400376871E+03  0.11064807955E+03 -0.10497014666E+03  0.22256670414E+03  0.91198676329E+02 0.  0.
        -11    1    4    4    0    0 -0.10505311673E+03  0.57420471453E+02 -0.25117330404E+02  0.12232803506E+03  0.00000000000E+00 0.  1.
         11    1    4    4    0    0 -0.28950651986E+02  0.53227608100E+02 -0.79852816253E+02  0.10023866908E+03  0.00000000000E+00 0. -1.
        -13    1    3    3    0    0  0.20731288181E+02 -0.15229647228E+02 -0.26331252271E+01  0.25858495950E+02  0.00000000000E+00 0. -1.
         13    1    3    3    0    0  0.65113957578E+02  0.69839157373E+02  0.13588084743E+03  0.16607510371E+03  0.00000000000E+00 0.  1.
         21    1    1    2  503  501  0.21606131919E+02 -0.16411873544E+02  0.14804512986E+02  0.30908706451E+02  0.00000000000E+00 0. -1.
          2    1    1    2  501    0  0.26552391035E+02 -0.14884571615E+03  0.12235085132E+03  0.19449886248E+03  0.00000000000E+00 0. -1.
<scales pt_clust_5="13000.00000" pt_clust_6="13000.00000" pt_clust_7="13000.00000" pt_clust_8="13000.00000" pt_clust_9="20.61274" pt_clust_10="174.68146"></scales>
<clustering>
<clus scale="   20.613">  9 10 -1 -1</clus>
<clus scale="   91.199">  5  6 -1 -1</clus>
<clus scale="   93.445">  7  8 -1 -1</clus>
<clus scale="  138.143">  1  7  2 -1</clus>
<clus scale="  174.681">  2  9  1 -1</clus>
<clus scale="  174.681">  2  5  1 -1</clus>
</clustering>
</event>
<event>
10    2  0.2421970E-006  0.2226700E+03  0.7546771E-02  0.1170018E+00
         21   -1    0    0  503  502  0.00000000000E+00  0.00000000000E+00  0.45069444825E+03  0.45069444825E+03  0.00000000000E+00 0.  1.
         -4   -1    0    0    0  501 -0.00000000000E+00 -0.00000000000E+00 -0.18179781930E+03  0.18179781930E+03  0.00000000000E+00 0.  1.
         23    2    1    2    0    0 -0.25539696306E+01  0.11792882026E+02  0.20713921589E+02  0.92840962615E+02  0.89692714109E+02 0.  0.
         23    2    1    2    0    0 -0.41891322428E+01 -0.20663089794E+03  0.37607528420E+02  0.22813122025E+03  0.88969942368E+02 0.  0.
        -13    1    4    4    0    0  0.26976736532E+02 -0.18366415498E+03  0.24427509381E+02  0.18723506443E+03  0.00000000000E+00 0.  1.
         13    1    4    4    0    0 -0.31165868775E+02 -0.22966742965E+02  0.13180019039E+02  0.40896155819E+02  0.00000000000E+00 0. -1.
        -13    1    3    3    0    0  0.81638189801E+01  0.49517902498E+02  0.44462844202E+01  0.50382934147E+02  0.00000000000E+00 0. -1.
         13    1    3    3    0    0 -0.10717788611E+02 -0.37725020472E+02  0.16267637169E+02  0.42458028468E+02  0.00000000000E+00 0.  1.
         21    1    1    2  503  501 -0.15899977883E+02 -0.12914854674E+02  0.21547195099E+02  0.29730193147E+02  0.00000000000E+00 0.  1.
         -4    1    1    2    0  502  0.22643079757E+02  0.20775287059E+03  0.18902798384E+03  0.28178989154E+03  0.00000000000E+00 0.  1.
<scales pt_clust_5="13000.00000" pt_clust_6="13000.00000" pt_clust_7="13000.00000" pt_clust_8="13000.00000" pt_clust_9="20.48421" pt_clust_10="204.12317"></scales>
<clustering>
<clus scale="   20.484">  1  9  2 -1</clus>
<clus scale="   88.970">  5  6 -1 -1</clus>
<clus scale="   89.693">  7  8 -1 -1</clus>
<clus scale="   90.377">  2  7  1 -1</clus>
<clus scale="  204.123">  1 10  2 -1</clus>
<clus scale="   20.484">  1  5  2 -1</clus>
</clustering>
</event>
<event>
10    2  0.2421970E-006  0.3916695E+03  0.7546771E-02  0.1046845E+00
         21   -1    0    0  503  502  0.00000000000E+00  0.00000000000E+00  0.97402721188E+03  0.97402721188E+03  0.00000000000E+00 0. -1.
          4   -1    0    0  502    0 -0.00000000000E+00 -0.00000000000E+00 -0.26658712076E+03  0.26658712076E+03  0.00000000000E+00 0. -1.
         23    2    1    2    0    0 -0.32419465650E+03  0.20245822488E+03 -0.53523360348E+01  0.39242941841E+03  0.88773266294E+02 0.  0.
         23    2    1    2    0    0  0.28428384952E+03 -0.24450981599E+03  0.61429826256E+03  0.72601144428E+03  0.95540068166E+02 0.  0.
        -11    1    4    4    0    0  0.32018502275E+02 -0.30911308466E+02  0.26923788606E+02  0.52015227308E+02  0.00000000000E+00 0.  1.
         11    1    4    4    0    0  0.25226534725E+03 -0.21359850753E+03  0.58737447395E+03  0.67399621697E+03  0.00000000000E+00 0. -1.
        -13    1    3    3    0    0 -0.27260649867E+03  0.19732265773E+03 -0.23884066190E+02  0.33737365485E+03  0.00000000000E+00 0. -1.
         13    1    3    3    0    0 -0.51588157835E+02  0.51355671476E+01  0.18531730155E+02  0.55055763561E+02  0.00000000000E+00 0.  1.
         21    1    1    2  503  501  0.27770912790E+02 -0.68558067229E+00  0.40688559362E+02  0.49267154180E+02  0.00000000000E+00 0. -1.
          4    1    1    2  501    0  0.12139894189E+02  0.42737171784E+02  0.57805605230E+02  0.72906315769E+02  0.00000000000E+00 0. -1.
<scales pt_clust_5="13000.00000" pt_clust_6="13000.00000" pt_clust_7="13000.00000" pt_clust_8="13000.00000" pt_clust_9="27.77937" pt_clust_10="44.95523"></scales>
<clustering>
<clus scale="   27.779">  1  9  2 -1</clus>
<clus scale="   44.955">  1 10  2 -1</clus>
<clus scale="   88.773">  7  8 -1 -1</clus>
<clus scale="   95.540">  5  6 -1 -1</clus>
<clus scale="  390.074">  2  7  1 -1</clus>
<clus scale="   27.779">  1  5  2 -1</clus>
</clustering>
</event>
<event>
10    2  0.2421970E-006  0.1763541E+03  0.7546771E-02  0.1198890E+00
         21   -1    0    0  501  502  0.00000000000E+00  0.00000000000E+00  0.52241591621E+03  0.52241591621E+03  0.00000000000E+00 0. -1.
          1   -1    0    0  503    0 -0.00000000000E+00 -0.00000000000E+00 -0.83868049917E+03  0.83868049917E+03  0.00000000000E+00 0. -1.
         23    2    1    2    0    0  0.66315815806E+01  0.33731735260E+02  0.61971387811E+02  0.11325267511E+03  0.88339728737E+02 0.  0.
         23    2    1    2    0    0  0.17618045687E+03 -0.54973245182E+02 -0.72576453067E+03  0.75759321920E+03  0.11468095192E+03 0.  0.
        -11    1    4    4    0    0  0.17711297769E+03 -0.16538765108E+02 -0.56749073792E+03  0.59471697071E+03  0.00000000000E+00 0. -1.
         11    1    4    4    0    0 -0.93252082134E+00 -0.38434480074E+02 -0.15827379275E+03  0.16287624850E+03  0.00000000000E+00 0.  1.
        -13    1    3    3    0    0 -0.29354878455E+02  0.20615931117E+02  0.65612572950E+02  0.74777906056E+02  0.00000000000E+00 0.  1.
         13    1    3    3    0    0  0.35986460036E+02  0.13115804143E+02 -0.36411851389E+01  0.38474769050E+02  0.00000000000E+00 0. -1.
         21    1    1    2  503  502 -0.58475122231E+02  0.70703224203E+02 -0.24435101330E+02  0.94949249653E+02  0.00000000000E+00 0.  1.
          1    1    1    2  501    0 -0.12433691622E+03 -0.49461714281E+02  0.37196366123E+03  0.39530127142E+03  0.00000000000E+00 0. -1.
<scales pt_clust_5="13000.00000" pt_clust_6="13000.00000" pt_clust_7="13000.00000" pt_clust_8="13000.00000" pt_clust_9="91.75122" pt_clust_10="133.97410"></scales>
<clustering>
<clus scale="   88.340">  7  8 -1 -1</clus>
<clus scale="   91.751">  2  9  1 -1</clus>
<clus scale="   95.532">  2  7  1 -1</clus>
<clus scale="  114.681">  5  6 -1 -1</clus>
<clus scale="  133.974">  1 10  2 -1</clus>
<clus scale="  133.974">  1  5  2 -1</clus>
</clustering>
</event>
<event>
10    2  0.2421970E-006  0.1744980E+03  0.7546771E-02  0.1173260E+00
         21   -1    0    0  503  502  0.00000000000E+00  0.00000000000E+00  0.70745383829E+02  0.70745383829E+02  0.00000000000E+00 0.  1.
          2   -1    0    0  502    0 -0.00000000000E+00 -0.00000000000E+00 -0.85130978379E+03  0.85130978379E+03  0.00000000000E+00 0. -1.
         23    2    1    2    0    0 -0.66037893528E+02  0.13132282413E+03 -0.44879263718E+03  0.48118858475E+03  0.92308912826E+02 0.  0.
         23    2    1    2    0    0  0.13745179936E+02 -0.15542051198E+03 -0.32985010738E+03  0.37634228743E+03  0.92130116967E+02 0.  0.
        -11    1    3    3    0    0 -0.62442449536E+02  0.25115106683E+02 -0.17461287003E+03  0.18713493118E+03  0.00000000000E+00 0.  1.
         11    1    3    3    0    0 -0.35954439919E+01  0.10620771745E+03 -0.27417976715E+03  0.29405365357E+03  0.00000000000E+00 0. -1.
        -13    1    4    4    0    0  0.48162771989E+02 -0.47503074944E+02 -0.11339945075E+03  0.13204404631E+03  0.00000000000E+00 0. -1.
         13    1    4    4    0    0 -0.34417592053E+02 -0.10791743704E+03 -0.21645065663E+03  0.24429824112E+03  0.00000000000E+00 0.  1.
         21    1    1    2  503  501  0.20935129876E+02  0.17155035809E+02  0.11891079974E+02  0.29563029268E+02  0.00000000000E+00 0.  1.
          2    1    1    2  501    0  0.31357583717E+02  0.69426520424E+01 -0.13812735375E+02  0.34961266174E+02  0.00000000000E+00 0. -1.
<scales pt_clust_5="13000.00000" pt_clust_6="13000.00000" pt_clust_7="13000.00000" pt_clust_8="13000.00000" pt_clust_9="26.67699" pt_clust_10="64.49567"></scales>
<clustering>
<clus scale="   26.677">  9 10 -1 -1</clus>
<clus scale="   64.496">  1  9  2 -1</clus>
<clus scale="   92.130">  7  8 -1 -1</clus>
<clus scale="   92.309">  5  6 -1 -1</clus>
<clus scale="  174.404">  1  7  2 -1</clus>
<clus scale="   64.496">  1  5  2 -1</clus>
</clustering>
</event>
<event>
10    2  0.2421970E-006  0.1074157E+03  0.7546771E-02  0.1265717E+00
         21   -1    0    0  501  502  0.00000000000E+00  0.00000000000E+00  0.12669961485E+03  0.12669961485E+03  0.00000000000E+00 0.  1.
          2   -1    0    0  503    0 -0.00000000000E+00 -0.00000000000E+00 -0.32621012275E+03  0.32621012275E+03  0.00000000000E+00 0. -1.
         23    2    1    2    0    0 -0.31011781956E+02 -0.61903598183E+02 -0.18048503263E+03  0.21301755655E+03  0.89486570539E+02 0.  0.
         23    2    1    2    0    0  0.14552845829E+02  0.44212057903E+02 -0.92991063901E+02  0.13672688207E+03  0.88771678645E+02 0.  0.
        -11    1    4    4    0    0 -0.16382844630E+02 -0.21321168144E+02 -0.17497865463E+02  0.32080603251E+02  0.00000000000E+00 0.  1.
         11    1    4    4    0    0  0.30935690459E+02  0.65533226047E+02 -0.75493198438E+02  0.10464627882E+03  0.00000000000E+00 0. -1.
        -11    1    3    3    0    0 -0.30085954673E+02 -0.14979600789E+02 -0.15696123305E+03  0.16051910101E+03  0.00000000000E+00 0. -1.
         11    1    3    3    0    0 -0.92582728216E+00 -0.46923997393E+02 -0.23523799584E+02  0.52498455543E+02  0.00000000000E+00 0.  1.
         21    1    1    2  503  502  0.39419808585E+02  0.29608255063E+01  0.61647477767E+02  0.73233184497E+02  0.00000000000E+00 0.  1.
          2    1    1    2  501    0 -0.22960872458E+02  0.14730714773E+02  0.12318110866E+02  0.29932114478E+02  0.00000000000E+00 0. -1.
<scales pt_clust_5="13000.00000" pt_clust_6="13000.00000" pt_clust_7="13000.00000" pt_clust_8="13000.00000" pt_clust_9="27.67170" pt_clust_10="27.27995"></scales>
<clustering>
<clus scale="   27.280">  1 10  2 -1</clus>
<clus scale="   27.672">  1  9  2 -1</clus>
<clus scale="   88.772">  5  6 -1 -1</clus>
<clus scale="   89.487">  7  8 -1 -1</clus>
<clus scale="  106.821">  1  5  2 -1</clus>
<clus scale="   27.280">  1  5  2 -1</clus>
</clustering>
</event>
<event>
10    2  0.2421970E-006  0.1183659E+03  0.7546771E-02  0.1246335E+00
          3   -1    0    0  503    0 -0.00000000000E+00  0.00000000000E+00  0.45865775702E+03  0.45865775702E+03  0.00000000000E+00 0. -1.
         21   -1    0    0  501  502  0.00000000000E+00 -0.00000000000E+00 -0.53072041414E+02  0.53072041414E+02  0.00000000000E+00 0.  1.
         23    2    1    2    0    0  0.70086607498E+02 -0.48310456988E+02  0.24633324850E+03  0.27605871383E+03  0.91007204997E+02 0.  0.
         23    2    1    2    0    0 -0.24349592657E+02  0.59989137101E+02  0.73472863817E+02  0.13260405088E+03  0.89409022810E+02 0.  0.
        -13    1    3    3    0    0  0.87185997286E+02 -0.36295432556E+02  0.23262860799E+03  0.25106737304E+03  0.00000000000E+00 0.  1.
         13    1    3    3    0    0 -0.17099389788E+02 -0.12015024432E+02  0.13704640503E+02  0.24991340791E+02  0.00000000000E+00 0. -1.
        -13    1    4    4    0    0  0.21234055163E+02  0.35887482420E+02 -0.13664485087E+01  0.41721261661E+02  0.00000000000E+00 0.  1.
         13    1    4    4    0    0 -0.45583647819E+02  0.24101654681E+02  0.74839312326E+02  0.90882789220E+02  0.00000000000E+00 0. -1.
         21    1    1    2  503  502 -0.23468102303E+02  0.92024285847E+01  0.27698055700E+02  0.37451552800E+02  0.00000000000E+00 0.  1.
          3    1    1    2  501    0 -0.22268912538E+02 -0.20881108698E+02  0.58081547589E+02  0.65615480920E+02  0.00000000000E+00 0. -1.
<scales pt_clust_5="13000.00000" pt_clust_6="13000.00000" pt_clust_7="13000.00000" pt_clust_8="13000.00000" pt_clust_9="25.20787" pt_clust_10="31.42395"></scales>
<clustering>
<clus scale="   25.208">  2  9  1 -1</clus>
<clus scale="   31.424">  2 10  1 -1</clus>
<clus scale="   89.409">  7  8 -1 -1</clus>
<clus scale="   91.007">  5  6 -1 -1</clus>
<clus scale="  117.142">  2  7  1 -1</clus>
<clus scale="   25.208">  2  5  1 -1</clus>
</clustering>
</event>
<event>
10    2  0.2421970E-006  0.1496160E+03  0.7546771E-02  0.1201082E+00
          2   -1    0    0  503    0 -0.00000000000E+00  0.00000000000E+00  0.63884728933E+03  0.63884728933E+03  0.00000000000E+00 0. -1.
         21   -1    0    0  501  502  0.00000000000E+00 -0.00000000000E+00 -0.24828872116E+03  0.24828872116E+03  0.00000000000E+00 0. -1.
         23    2    1    2    0    0 -0.12096294636E+03 -0.33176227538E+02  0.42867997407E+03  0.45572577704E+03  0.90480756100E+02 0.  0.
         23    2    1    2    0    0  0.81709983627E+02  0.79222598333E+02  0.15164452163E+03  0.21039868689E+03  0.91207483221E+02 0.  0.
        -11    1    3    3    0    0 -0.68862178026E+02 -0.61719079743E+02  0.21733250828E+03  0.23618777175E+03  0.00000000000E+00 0.  1.
         11    1    3    3    0    0 -0.52100768336E+02  0.28542852205E+02  0.21134746579E+03  0.21953800529E+03  0.00000000000E+00 0. -1.
        -11    1    4    4    0    0  0.25297910948E+02 -0.39099374146E+01 -0.32208782380E+01  0.25800115611E+02  0.00000000000E+00 0. -1.
         11    1    4    4    0    0  0.56412072679E+02  0.83132535748E+02  0.15486539986E+03  0.18459857128E+03  0.00000000000E+00 0.  1.
         21    1    1    2  503  502  0.17862912256E+00 -0.56390172415E+02 -0.16313683850E+03  0.17260797064E+03  0.00000000000E+00 0. -1.
          2    1    1    2  501    0  0.39074333612E+02  0.10343801621E+02 -0.26629089030E+02  0.48403575919E+02  0.00000000000E+00 0. -1.
<scales pt_clust_5="13000.00000" pt_clust_6="13000.00000" pt_clust_7="13000.00000" pt_clust_8="13000.00000" pt_clust_9="57.43058" pt_clust_10="40.42026"></scales>
<clustering>
<clus scale="   40.420">  2 10  1 -1</clus>
<clus scale="   57.431">  2  9  1 -1</clus>
<clus scale="   90.481">  5  6 -1 -1</clus>
<clus scale="   91.207">  7  8 -1 -1</clus>
<clus scale="  149.174">  1  5  2 -1</clus>
<clus scale="   40.420">  2  5  1 -1</clus>
</clustering>
</event>
<event>
10    2  0.2421970E-006  0.1370109E+03  0.7546771E-02  0.1226713E+00
          1   -1    0    0  503    0 -0.00000000000E+00  0.00000000000E+00  0.63344136186E+03  0.63344136186E+03  0.00000000000E+00 0. -1.
         21   -1    0    0  501  502  0.00000000000E+00 -0.00000000000E+00 -0.11293475183E+03  0.11293475183E+03  0.00000000000E+00 0.  1.
         23    2    1    2    0    0  0.73922544838E+02  0.24314907716E+02  0.40217716260E+03  0.42805245040E+03  0.12420415774E+03 0.  0.
         23    2    1    2    0    0 -0.26507137846E+02 -0.13357569802E+02  0.12091134068E+03  0.15771138918E+03  0.96810520837E+02 0.  0.
        -11    1    3    3    0    0  0.23196819384E+02  0.67092673391E+02  0.28173581843E+03  0.29054189136E+03  0.00000000000E+00 0. -1.
         11    1    3    3    0    0  0.50725725454E+02 -0.42777765676E+02  0.12044134417E+03  0.13751055903E+03  0.00000000000E+00 0.  1.
        -11    1    4    4    0    0 -0.31236938015E+02  0.36075410714E+02  0.37726363969E+02  0.60831407127E+02  0.00000000000E+00 0. -1.
         11    1    4    4    0    0  0.47298001697E+01 -0.49432980516E+02  0.83184976713E+02  0.96879982055E+02  0.00000000000E+00 0.  1.
         21    1    1    2  503  502 -0.60429746037E+02  0.35151576157E+02  0.52633859129E+02  0.87508346112E+02  0.00000000000E+00 0.  1.
          1    1    1    2  501    0  0.13014339045E+02 -0.46108914071E+02 -0.55215752381E+02  0.73103927997E+02  0.00000000000E+00 0. -1.
<scales pt_clust_5="13000.00000" pt_clust_6="13000.00000" pt_clust_7="13000.00000" pt_clust_8="13000.00000" pt_clust_9="58.81797" pt_clust_10="47.91038"></scales>
<clustering>
<clus scale="   47.910">  2 10  1 -1</clus>
<clus scale="   58.818">  2  9  1 -1</clus>
<clus scale="   96.811">  7  8 -1 -1</clus>
<clus scale="  112.772">  2  7  1 -1</clus>
<clus scale="  124.204">  5  6 -1 -1</clus>
<clus scale="   47.910">  2  5  1 -1</clus>
</clustering>
</event>
<event>
10    2  0.2421970E-006  0.2043856E+03  0.7546771E-02  0.1146169E+00
         21   -1    0    0  503  502  0.00000000000E+00  0.00000000000E+00  0.39539247307E+03  0.39539247307E+03  0.00000000000E+00 0.  1.
         -1   -1    0    0    0  501 -0.00000000000E+00 -0.00000000000E+00 -0.41194415552E+03  0.41194415552E+03  0.00000000000E+00 0.  1.
         23    2    1    2    0    0 -0.13372237931E+03  0.63293841678E+02 -0.10356786962E+03  0.20254256471E+03  0.91702790468E+02 0.  0.
         23    2    1    2    0    0  0.18544963970E+03 -0.13419719091E+03 -0.17563627441E+03  0.30249363789E+03  0.90850675075E+02 0.  0.
        -13    1    3    3    0    0  0.83662515552E+01  0.24893748940E+02 -0.98282862217E+01  0.28040829365E+02  0.00000000000E+00 0.  1.
         13    1    3    3    0    0 -0.14208863086E+03  0.38400092737E+02 -0.93739583396E+02  0.17450173534E+03  0.00000000000E+00 0. -1.
        -13    1    4    4    0    0  0.12001122480E+03 -0.13233818742E+03 -0.14559638016E+03  0.23046560664E+03  0.00000000000E+00 0.  1.
         13    1    4    4    0    0  0.65438414906E+02 -0.18590034885E+01 -0.30039894242E+02  0.72028031248E+02  0.00000000000E+00 0. -1.
         21    1    1    2  503  501  0.35663461387E+02  0.23674575857E+02  0.40406604348E+02  0.58864774654E+02  0.00000000000E+00 0. -1.
         -1    1    1    2    0  502 -0.87390721782E+02  0.47228773372E+02  0.22224585723E+03  0.24343565134E+03  0.00000000000E+00 0.  1.
<scales pt_clust_5="13000.00000" pt_clust_6="13000.00000" pt_clust_7="13000.00000" pt_clust_8="13000.00000" pt_clust_9="42.80617" pt_clust_10="89.48158"></scales>
<clustering>
<clus scale="   42.806">  1  9  2 -1</clus>
<clus scale="   89.482">  1 10  2 -1</clus>
<clus scale="   90.851">  7  8 -1 -1</clus>
<clus scale="   91.703">  5  6 -1 -1</clus>
<clus scale="  204.005">  1  7  2 -1</clus>
<clus scale="   42.806">  1  5  2 -1</clus>
</clustering>
</event>
<event>
10    2  0.2421970E-006  0.2776073E+03  0.7546771E-02  0.1097073E+00
         21   -1    0    0  501  502  0.00000000000E+00  0.00000000000E+00  0.48671548781E+03  0.48671548781E+03  0.00000000000E+00 0.  1.
          1   -1    0    0  503    0 -0.00000000000E+00 -0.00000000000E+00 -0.56830427130E+03  0.56830427130E+03  0.00000000000E+00 0. -1.
         23    2    1    2    0    0  0.14516359166E+03  0.22420522923E+03 -0.45807718396E+03  0.53807824492E+03  0.91394956329E+02 0.  0.
         23    2    1    2    0    0 -0.18105220693E+03 -0.14274890824E+03  0.30048890384E+03  0.38926136849E+03  0.89853654512E+02 0.  0.
        -11    1    3    3    0    0  0.26722482604E+02  0.12397858744E+03 -0.21877295518E+03  0.25287622889E+03  0.00000000000E+00 0.  1.
         11    1    3    3    0    0  0.11844110905E+03  0.10022664178E+03 -0.23930422877E+03  0.28520201603E+03  0.00000000000E+00 0. -1.
        -11    1    4    4    0    0 -0.12065173756E+03 -0.38311092300E+02  0.16194608146E+03  0.20555075984E+03  0.00000000000E+00 0.  1.
         11    1    4    4    0    0 -0.60400469372E+02 -0.10443781594E+03  0.13854282238E+03  0.18371060865E+03  0.00000000000E+00 0. -1.
         21    1    1    2  503  502 -0.12311523608E+02 -0.28151695701E+02  0.22117577030E+02  0.37858668731E+02  0.00000000000E+00 0.  1.
          1    1    1    2  501    0  0.48200138878E+02 -0.53304625285E+02  0.53881919601E+02  0.89821476967E+02  0.00000000000E+00 0. -1.
<scales pt_clust_5="13000.00000" pt_clust_6="13000.00000" pt_clust_7="13000.00000" pt_clust_8="13000.00000" pt_clust_9="30.72607" pt_clust_10="73.98270"></scales>
<clustering>
<clus scale="   30.726">  1  9  2 -1</clus>
<clus scale="   73.983">  1 10  2 -1</clus>
<clus scale="   89.854">  7  8 -1 -1</clus>
<clus scale="   91.395">  5  6 -1 -1</clus>
<clus scale="  277.104">  1  7  2 -1</clus>
<clus scale="   30.726">  1  5  2 -1</clus>
</clustering>
</event>
<event>
10    2  0.2421970E-006  0.1005966E+03  0.7546771E-02  0.1287371E+00
          1   -1    0    0  503    0 -0.00000000000E+00  0.00000000000E+00  0.33948570208E+03  0.33948570208E+03  0.00000000000E+00 0. -1.
         21   -1    0    0  501  502  0.00000000000E+00 -0.00000000000E+00 -0.19668359273E+03  0.19668359273E+03  0.00000000000E+00 0. -1.
         23    2    1    2    0    0  0.19607258488E+02 -0.17003267669E+02  0.19799021704E+03  0.22326977220E+03  0.99878473348E+02 0.  0.
         23    2    1    2    0    0  0.10935218192E+02 -0.36285653309E+02  0.85513033916E+02  0.12644431447E+03  0.85085004909E+02 0.  0.
        -11    1    3    3    0    0 -0.23886359182E+02 -0.44811668159E+02  0.11198979209E+03  0.12296486201E+03  0.00000000000E+00 0.  1.
         11    1    3    3    0    0  0.43493617670E+02  0.27808400490E+02  0.86000424952E+02  0.10030491019E+03  0.00000000000E+00 0. -1.
        -11    1    4    4    0    0 -0.18715975779E+02 -0.54274719462E+02  0.62256424780E+02  0.84687043568E+02  0.00000000000E+00 0.  1.
         11    1    4    4    0    0  0.29651193971E+02  0.17989066153E+02  0.23256609136E+02  0.41757270906E+02  0.00000000000E+00 0. -1.
         21    1    1    2  503  502  0.20191652659E+02 -0.36215072732E+01  0.57868226783E+01  0.21314442726E+02  0.00000000000E+00 0. -1.
          1    1    1    2  501    0 -0.50734129339E+02  0.56910428251E+02 -0.14648796428E+03  0.16514076542E+03  0.00000000000E+00 0. -1.
<scales pt_clust_5="13000.00000" pt_clust_6="13000.00000" pt_clust_7="13000.00000" pt_clust_8="13000.00000" pt_clust_9="20.51385" pt_clust_10="75.78043"></scales>
<clustering>
<clus scale="   20.514">  1  9  2 -1</clus>
<clus scale="   75.780">  2 10  1 -1</clus>
<clus scale="   85.085">  7  8 -1 -1</clus>
<clus scale="   85.927">  2  7  1 -1</clus>
<clus scale="   99.878">  5  6 -1 -1</clus>
<clus scale="   75.780">  2  5  1 -1</clus>
</clustering>
</event>
<event>
10    2  0.2421970E-006  0.1331836E+03  0.7546771E-02  0.1241251E+00
         21   -1    0    0  501  502  0.00000000000E+00  0.00000000000E+00  0.55186083006E+03  0.55186083006E+03  0.00000000000E+00 0.  1.
         -1   -1    0    0    0  501 -0.00000000000E+00 -0.00000000000E+00 -0.96620887773E+02  0.96620887773E+02  0.00000000000E+00 0.  1.
         23    2    1    2    0    0  0.52138572194E+01  0.93992862563E+01 -0.15070156915E+02  0.92353573486E+02  0.90479511587E+02 0.  0.
         23    2    1    2    0    0  0.94363469468E+02  0.13284146541E+02  0.40891858162E+03  0.42970533360E+03  0.91385635704E+02 0.  0.
        -11    1    3    3    0    0 -0.37798364196E+02  0.14236059741E+02 -0.25584370373E+02  0.47811523090E+02  0.00000000000E+00 0.  1.
         11    1    3    3    0    0  0.43012221415E+02 -0.48367734844E+01  0.10514213458E+02  0.44542050396E+02  0.00000000000E+00 0. -1.
        -13    1    4    4    0    0  0.10958080039E+03 -0.18285786810E+01  0.35947928593E+03  0.37581465183E+03  0.00000000000E+00 0.  1.
         13    1    4    4    0    0 -0.15217330922E+02  0.15112725222E+02  0.49439295685E+02  0.53890681772E+02  0.00000000000E+00 0. -1.
         21    1    1    2  503  502 -0.27339137443E+02 -0.17754357515E+02  0.18006214044E+01  0.32647938439E+02  0.00000000000E+00 0.  1.
         -1    1    1    2    0  503 -0.72238189244E+02 -0.49290752825E+01  0.59590896180E+02  0.93774872306E+02  0.00000000000E+00 0.  1.
<scales pt_clust_5="13000.00000" pt_clust_6="13000.00000" pt_clust_7="13000.00000" pt_clust_8="13000.00000" pt_clust_9="28.33749" pt_clust_10="105.68907"></scales>
<clustering>
<clus scale="   28.337">  9 10 -1 -1</clus>
<clus scale="   90.480">  5  6 -1 -1</clus>
<clus scale="   91.116">  2  5  1 -1</clus>
<clus scale="   91.386">  7  8 -1 -1</clus>
<clus scale="  105.689">  1  9  2 -1</clus>
<clus scale="  105.689">  1  5  2 -1</clus>
</clustering>
</event>
<event>
10    2  0.2421970E-006  0.1886303E+03  0.7546771E-02  0.1182580E+00
         21   -1    0    0  501  502  0.00000000000E+00  0.00000000000E+00  0.28993708721E+03  0.28993708721E+03  0.00000000000E+00 0.  1.
         -1   -1    0    0    0  501 -0.00000000000E+00 -0.00000000000E+00 -0.28276803121E+03  0.28276803121E+03  0.00000000000E+00 0.  1.
         23    2    1    2    0    0  0.57427323679E+02 -0.29384052484E+02 -0.61742423902E+02  0.12779166062E+03  0.91418059314E+02 0.  0.
         23    2    1    2    0    0  0.14382954970E+03 -0.43021554577E+02  0.12586311420E+03  0.21592121670E+03  0.90789067517E+02 0.  0.
        -13    1    4    4    0    0  0.57844839232E+02 -0.30595954887E+02  0.30803126094E+01  0.65510504555E+02  0.00000000000E+00 0.  1.
         13    1    4    4    0    0  0.85984710467E+02 -0.12425599691E+02  0.12278280159E+03  0.15041071215E+03  0.00000000000E+00 0. -1.
        -13    1    3    3    0    0 -0.21049107289E+02  0.88981079147E+01 -0.42412809223E+01  0.23242842038E+02  0.00000000000E+00 0. -1.
         13    1    3    3    0    0  0.78476430968E+02 -0.38282160399E+02 -0.57501142980E+02  0.10454881858E+03  0.00000000000E+00 0.  1.
         21    1    1    2  503  502 -0.21298883181E+02 -0.86202910016E+01 -0.14346073802E+02  0.27088035648E+02  0.00000000000E+00 0.  1.
         -1    1    1    2    0  503 -0.17995799020E+03  0.81025898063E+02 -0.42605560496E+02  0.20190420545E+03  0.00000000000E+00 0.  1.
<scales pt_clust_5="13000.00000" pt_clust_6="13000.00000" pt_clust_7="13000.00000" pt_clust_8="13000.00000" pt_clust_9="20.03299" pt_clust_10="175.45893"></scales>
<clustering>
<clus scale="   20.033">  9 10 -1 -1</clus>
<clus scale="   90.789">  5  6 -1 -1</clus>
<clus scale="   91.418">  7  8 -1 -1</clus>
<clus scale="  111.886">  2  7  1 -1</clus>
<clus scale="  175.459">  1  9  2 -1</clus>
<clus scale="  175.459">  1  5  2 -1</clus>
</clustering>
</event>
<event>
10    2  0.2421970E-006  0.3649895E+03  0.7546771E-02  0.1073350E+00
         -3   -1    0    0    0  501 -0.00000000000E+00  0.00000000000E+00  0.41163893391E+03  0.41163893391E+03  0.00000000000E+00 0.  1.
         21   -1    0    0  503  502  0.00000000000E+00 -0.00000000000E+00 -0.14224516420E+04  0.14224516420E+04  0.00000000000E+00 0.  1.
         23    2    1    2    0    0  0.63532188785E+02 -0.44762961265E+03 -0.73681121951E+02  0.46633431695E+03  0.87350891798E+02 0.  0.
         23    2    1    2    0    0  0.21064034934E+03  0.12301769052E+03 -0.19708206140E+03  0.32725676636E+03  0.93557165711E+02 0.  0.
        -13    1    3    3    0    0  0.43624286078E+02 -0.74160215053E+02 -0.21753327376E+02  0.88746960987E+02  0.00000000000E+00 0. -1.
         13    1    3    3    0    0  0.19907902707E+02 -0.37346939760E+03 -0.51927794575E+02  0.37758735596E+03  0.00000000000E+00 0.  1.
        -13    1    4    4    0    0  0.11384034270E+03  0.12866030795E+02 -0.89671850502E+02  0.14548607888E+03  0.00000000000E+00 0.  1.
         13    1    4    4    0    0  0.96800006639E+02  0.11015165972E+03 -0.10741021089E+03  0.18177068749E+03  0.00000000000E+00 0. -1.
         21    1    1    2  503  501 -0.47055768074E+02  0.29106496800E+03 -0.32493465462E+02  0.29662920659E+03  0.00000000000E+00 0. -1.
         -3    1    1    2    0  502 -0.22711677005E+03  0.33546954132E+02 -0.70755605931E+03  0.74387028603E+03  0.00000000000E+00 0.  1.
<scales pt_clust_5="13000.00000" pt_clust_6="13000.00000" pt_clust_7="13000.00000" pt_clust_8="13000.00000" pt_clust_9="354.38280" pt_clust_10="229.58098"></scales>
<clustering>
<clus scale="   87.351">  5  6 -1 -1</clus>
<clus scale="   93.557">  7  8 -1 -1</clus>
<clus scale="  229.581">  2 10  1 -1</clus>
<clus scale="  229.581">  2  7  1 -1</clus>
<clus scale="  354.383">  1  9  2 -1</clus>
<clus scale="  229.581">  2  5  1 -1</clus>
</clustering>
</event>
<event>
10    2  0.2421970E-006  0.1320973E+03  0.7546771E-02  0.1234018E+00
         21   -1    0    0  501  502  0.00000000000E+00  0.00000000000E+00  0.10165521095E+04  0.10165521095E+04  0.00000000000E+00 0. -1.
          1   -1    0    0  503    0 -0.00000000000E+00 -0.00000000000E+00 -0.10265797502E+03  0.10265797502E+03  0.00000000000E+00 0. -1.
         23    2    1    2    0    0  0.25984490044E+02  0.57522824586E+02 -0.49164101583E+02  0.11940043081E+03  0.88630045256E+02 0.  0.
         23    2    1    2    0    0  0.66774942627E+02  0.17653643161E+02  0.27076842020E+03  0.29474415477E+03  0.93744521503E+02 0.  0.
        -13    1    4    4    0    0  0.33137414873E+02 -0.26331287154E+02  0.20233310714E+03  0.20671262949E+03  0.00000000000E+00 0.  1.
         13    1    4    4    0    0  0.33637527754E+02  0.43984930315E+02  0.68435313063E+02  0.88031525275E+02  0.00000000000E+00 0. -1.
        -13    1    3    3    0    0  0.41347444166E+02  0.93116902298E+01  0.79220212727E+01  0.43117016768E+02  0.00000000000E+00 0.  1.
         13    1    3    3    0    0 -0.15362954121E+02  0.48211134356E+02 -0.57086122855E+02  0.76283414042E+02  0.00000000000E+00 0. -1.
         21    1    1    2  503  502 -0.12742149975E+02 -0.24440302925E+02  0.64154993807E+02  0.69825167550E+02  0.00000000000E+00 0. -1.
          1    1    1    2  501    0 -0.80017282696E+02 -0.50736164821E+02  0.62813482201E+03  0.63524033135E+03  0.00000000000E+00 0. -1.
<scales pt_clust_5="13000.00000" pt_clust_6="13000.00000" pt_clust_7="13000.00000" pt_clust_8="13000.00000" pt_clust_9="27.56249" pt_clust_10="93.06798"></scales>
<clustering>
<clus scale="   27.562">  1  9  2 -1</clus>
<clus scale="   88.630">  7  8 -1 -1</clus>
<clus scale="   93.745">  5  6 -1 -1</clus>
<clus scale="  108.222">  2  7  1 -1</clus>
<clus scale="   93.068">  1 10  2 -1</clus>
<clus scale="   27.562">  1  5  2 -1</clus>
</clustering>
</event>
<event>
10    2  0.2421970E-006  0.1014331E+03  0.7546771E-02  0.1277325E+00
         21   -1    0    0  503  502  0.00000000000E+00  0.00000000000E+00  0.50692493139E+03  0.50692493139E+03  0.00000000000E+00 0. -1.
         -1   -1    0    0    0  501 -0.00000000000E+00 -0.00000000000E+00 -0.70707272250E+02  0.70707272250E+02  0.00000000000E+00 0.  1.
         23    2    1    2    0    0  0.43134925219E+02 -0.37449353069E+02  0.75677189710E+01  0.10823136827E+03  0.91617044742E+02 0.  0.
         23    2    1    2    0    0 -0.17187191296E+02 -0.15720510902E+02  0.15274671278E+03  0.17964774253E+03  0.91647253764E+02 0.  0.
        -11    1    4    4    0    0  0.32094301004E+02  0.14859489833E+02  0.44503608368E+02  0.56845578129E+02  0.00000000000E+00 0.  1.
         11    1    4    4    0    0 -0.49281492300E+02 -0.30580000735E+02  0.10824310442E+03  0.12280216440E+03  0.00000000000E+00 0. -1.
        -13    1    3    3    0    0 -0.26700381832E+02  0.26458292158E+01 -0.30642230872E+01  0.27005559896E+02  0.00000000000E+00 0. -1.
         13    1    3    3    0    0  0.69835307051E+02 -0.40095182285E+02  0.10631942058E+02  0.81225808370E+02  0.00000000000E+00 0.  1.
         21    1    1    2  503  501 -0.44304452173E+02  0.42015922420E+02  0.24227101899E+03  0.24984689084E+03  0.00000000000E+00 0. -1.
         -1    1    1    2    0  502  0.18356718249E+02  0.11153941552E+02  0.33632208399E+02  0.39906202009E+02  0.00000000000E+00 0.  1.
<scales pt_clust_5="13000.00000" pt_clust_6="13000.00000" pt_clust_7="13000.00000" pt_clust_8="13000.00000" pt_clust_9="59.10884" pt_clust_10="21.47975"></scales>
<clustering>
<clus scale="   21.480">  1 10  2 -1</clus>
<clus scale="   59.109">  1  9  2 -1</clus>
<clus scale="   91.617">  7  8 -1 -1</clus>
<clus scale="   91.647">  5  6 -1 -1</clus>
<clus scale="  101.406">  2  7  1 -1</clus>
<clus scale="   21.480">  1  5  2 -1</clus>
</clustering>
</event>
<event>
10    2  0.2421970E-006  0.1147095E+03  0.7546771E-02  0.1258547E+00
          2   -1    0    0  502    0 -0.00000000000E+00  0.00000000000E+00  0.11783626406E+04  0.11783626406E+04  0.00000000000E+00 0. -1.
         21   -1    0    0  503  502  0.00000000000E+00 -0.00000000000E+00 -0.25176381477E+02  0.25176381477E+02  0.00000000000E+00 0. -1.
         23    2    1    2    0    0 -0.26215281965E+02 -0.65782998941E+02  0.58352178396E+03  0.59431528151E+03  0.87740170513E+02 0.  0.
         23    2    1    2    0    0  0.83159972230E+02  0.47963617687E+02  0.23065771516E+03  0.25912860918E+03  0.68764561580E+02 0.  0.
        -13    1    3    3    0    0  0.12068719827E+02 -0.71933942478E+02  0.41768162635E+03  0.42400246116E+03  0.00000000000E+00 0.  1.
         13    1    3    3    0    0 -0.38284001792E+02  0.61509435362E+01  0.16584015761E+03  0.17031282035E+03  0.00000000000E+00 0. -1.
        -13    1    4    4    0    0  0.56513067469E+02  0.61815224292E+02  0.19674050324E+03  0.21382627145E+03  0.00000000000E+00 0.  1.
         13    1    4    4    0    0  0.26646904761E+02 -0.13851606605E+02  0.33917211920E+02  0.45302337724E+02  0.00000000000E+00 0. -1.
         21    1    1    2  503  501 -0.15850850854E+02 -0.23291101593E+02  0.86004558172E+02  0.90501430445E+02  0.00000000000E+00 0. -1.
          2    1    1    2  501    0 -0.41093839411E+02  0.41110482847E+02  0.25300220179E+03  0.25959370090E+03  0.00000000000E+00 0. -1.
<scales pt_clust_5="13000.00000" pt_clust_6="13000.00000" pt_clust_7="13000.00000" pt_clust_8="13000.00000" pt_clust_9="28.17312" pt_clust_10="57.50799"></scales>
<clustering>
<clus scale="   28.173">  2  9  1 -1</clus>
<clus scale="   57.508">  2 10  1 -1</clus>
<clus scale="   68.765">  7  8 -1 -1</clus>
<clus scale="   87.740">  5  6 -1 -1</clus>
<clus scale="  100.938">  2  7  1 -1</clus>
<clus scale="   28.173">  2  5  1 -1</clus>
</clustering>
</event>
<event>
10    2  0.2421970E-006  0.1204622E+03  0.7546771E-02  0.1243331E+00
          2   -1    0    0  503    0 -0.00000000000E+00  0.00000000000E+00  0.17604635651E+03  0.17604635651E+03  0.00000000000E+00 0. -1.
         21   -1    0    0  501  502  0.00000000000E+00 -0.00000000000E+00 -0.15824968496E+03  0.15824968496E+03  0.00000000000E+00 0.  1.
         23    2    1    2    0    0  0.39704597892E+02 -0.51266975047E+02  0.29612541833E+02  0.11319525736E+03  0.87928981744E+02 0.  0.
         23    2    1    2    0    0 -0.32357499856E+02  0.10445443847E+03 -0.20698442127E+02  0.14383887788E+03  0.91123321760E+02 0.  0.
        -11    1    3    3    0    0  0.36096938401E+01 -0.68794166495E+02  0.22305779382E+02  0.72410047833E+02  0.00000000000E+00 0.  1.
         11    1    3    3    0    0  0.36094904052E+02  0.17527191448E+02  0.73067624509E+01  0.40785209526E+02  0.00000000000E+00 0. -1.
        -11    1    4    4    0    0 -0.32520607825E+02  0.13887233534E+02 -0.37700790046E+02  0.51689406639E+02  0.00000000000E+00 0.  1.
         11    1    4    4    0    0  0.16310796897E+00  0.90567204938E+02  0.17002347920E+02  0.92149471238E+02  0.00000000000E+00 0. -1.
         21    1    1    2  503  502 -0.21462239365E+02 -0.91860121893E+01  0.18830431636E+02  0.29993260811E+02  0.00000000000E+00 0. -1.
          2    1    1    2  501    0  0.14115141328E+02 -0.44001451237E+02 -0.99478597972E+01  0.47268645424E+02  0.00000000000E+00 0. -1.
<scales pt_clust_5="13000.00000" pt_clust_6="13000.00000" pt_clust_7="13000.00000" pt_clust_8="13000.00000" pt_clust_9="23.34546" pt_clust_10="46.56758"></scales>
<clustering>
<clus scale="   23.345">  1  9  2 -1</clus>
<clus scale="   46.568">  2 10  1 -1</clus>
<clus scale="   87.929">  5  6 -1 -1</clus>
<clus scale="   91.123">  7  8 -1 -1</clus>
<clus scale="  118.064">  1  5  2 -1</clus>
<clus scale="   46.568">  2  5  1 -1</clus>
</clustering>
</event>
<event>
10    2  0.2421970E-006  0.1362991E+03  0.7546771E-02  0.1234298E+00
          2   -1    0    0  502    0 -0.00000000000E+00  0.00000000000E+00  0.73816252374E+03  0.73816252374E+03  0.00000000000E+00 0. -1.
         21   -1    0    0  503  502  0.00000000000E+00 -0.00000000000E+00 -0.18329722442E+03  0.18329722442E+03  0.00000000000E+00 0. -1.
         23    2    1    2    0    0 -0.90105368762E+01  0.35276302159E+02  0.36314500541E+03  0.37626855962E+03  0.91532107642E+02 0.  0.
         23    2    1    2    0    0  0.69004738476E+02  0.56571546096E+02  0.33135986645E+03  0.35451943623E+03  0.89009414176E+02 0.  0.
        -11    1    4    4    0    0  0.66598051457E+02  0.78728209691E+02  0.25783837556E+03  0.27769418318E+03  0.00000000000E+00 0. -1.
         11    1    4    4    0    0  0.24066870192E+01 -0.22156663595E+02  0.73521490887E+02  0.76825253051E+02  0.00000000000E+00 0.  1.
        -13    1    3    3    0    0 -0.26498618802E+02 -0.24542170538E+02  0.14000842077E+03  0.14459202197E+03  0.00000000000E+00 0.  1.
         13    1    3    3    0    0  0.17488081926E+02  0.59818472697E+02  0.22313658465E+03  0.23167653764E+03  0.00000000000E+00 0. -1.
         21    1    1    2  503  501 -0.43615365989E+01 -0.24783162898E+02 -0.83035242840E+02  0.86764507249E+02  0.00000000000E+00 0. -1.
          2    1    1    2  501    0 -0.55632665001E+02 -0.67064685357E+02 -0.56604329703E+02  0.10390724507E+03  0.00000000000E+00 0. -1.
<scales pt_clust_5="13000.00000" pt_clust_6="13000.00000" pt_clust_7="13000.00000" pt_clust_8="13000.00000" pt_clust_9="25.16403" pt_clust_10="103.22190"></scales>
<clustering>
<clus scale="   25.164">  2  9  1 -1</clus>
<clus scale="   89.009">  5  6 -1 -1</clus>
<clus scale="   91.532">  7  8 -1 -1</clus>
<clus scale="   97.955">  1  7  2 -1</clus>
<clus scale="  103.222">  2 10  1 -1</clus>
<clus scale="   25.164">  2  5  1 -1</clus>
</clustering>
</event>
<event>
10    2  0.2421970E-006  0.2233746E+03  0.7546771E-02  0.1134127E+00
         -3   -1    0    0    0  501 -0.00000000000E+00  0.00000000000E+00  0.99501393328E+03  0.99501393328E+03  0.00000000000E+00 0.  1.
         21   -1    0    0  501  502  0.00000000000E+00 -0.00000000000E+00 -0.67924121807E+03  0.67924121807E+03  0.00000000000E+00 0.  1.
         23    2    1    2    0    0 -0.15020506757E+03  0.89697151670E+02  0.65829484339E+03  0.68714001928E+03  0.90565798859E+02 0.  0.
         23    2    1    2    0    0  0.28596406795E+03 -0.22683943915E+02  0.21524916870E+03  0.37824392524E+03  0.12019256582E+03 0.  0.
        -11    1    4    4    0    0  0.23348233360E+03  0.30451060886E+02  0.17527808097E+03  0.29353649327E+03  0.00000000000E+00 0.  1.
         11    1    4    4    0    0  0.52481734356E+02 -0.53135004801E+02  0.39971087726E+02  0.84707431965E+02  0.00000000000E+00 0. -1.
        -13    1    3    3    0    0 -0.13081038709E+03  0.10231678107E+03  0.62434478550E+03  0.64605455825E+03  0.00000000000E+00 0. -1.
         13    1    3    3    0    0 -0.19394680478E+02 -0.12619629403E+02  0.33950057892E+02  0.41085461029E+02  0.00000000000E+00 0.  1.
         21    1    1    2  503  502  0.12332792059E+02  0.48062577183E+02 -0.66152352561E+02  0.82693668650E+02  0.00000000000E+00 0.  1.
         -3    1    1    2    0  503 -0.14809179244E+03 -0.11507578494E+03 -0.49161894433E+03  0.52617753818E+03  0.00000000000E+00 0.  1.
<scales pt_clust_5="13000.00000" pt_clust_6="13000.00000" pt_clust_7="13000.00000" pt_clust_8="13000.00000" pt_clust_9="49.61964" pt_clust_10="156.63928"></scales>
<clustering>
<clus scale="   49.620">  2  9  1 -1</clus>
<clus scale="   90.566">  7  8 -1 -1</clus>
<clus scale="  120.193">  5  6 -1 -1</clus>
<clus scale="  156.639">  2 10  1 -1</clus>
<clus scale="  208.931">  1  7  2 -1</clus>
<clus scale="   49.620">  2  5  1 -1</clus>
</clustering>
</event>
<event>
10    2  0.2421970E-006  0.1143968E+03  0.7546771E-02  0.1253195E+00
         21   -1    0    0  503  502  0.00000000000E+00  0.00000000000E+00  0.64466282156E+03  0.64466282156E+03  0.00000000000E+00 0.  1.
         -2   -1    0    0    0  501 -0.00000000000E+00 -0.00000000000E+00 -0.93640662989E+02  0.93640662989E+02  0.00000000000E+00 0.  1.
         23    2    1    2    0    0  0.15915191884E+02 -0.81356094096E+02 -0.17284241921E+01  0.12400118125E+03  0.92201942074E+02 0.  0.
         23    2    1    2    0    0  0.63859724640E+02  0.71750229701E+01  0.25968915040E+03  0.28245763683E+03  0.90632865904E+02 0.  0.
        -13    1    4    4    0    0  0.22470730611E+02 -0.41159228848E+02  0.12457495802E+03  0.13310873758E+03  0.00000000000E+00 0.  1.
         13    1    4    4    0    0  0.41388994028E+02  0.48334251818E+02  0.13511419238E+03  0.14934889925E+03  0.00000000000E+00 0. -1.
        -13    1    3    3    0    0  0.37896234877E+02 -0.87486645569E+01  0.21785506019E+02  0.44578829301E+02  0.00000000000E+00 0. -1.
         13    1    3    3    0    0 -0.21981042992E+02 -0.72607429539E+02 -0.23513930211E+02  0.79422351950E+02  0.00000000000E+00 0.  1.
         21    1    1    2  503  501 -0.48389879721E+02 -0.17719874843E+02  0.58416729182E+02  0.77897937535E+02  0.00000000000E+00 0.  1.
         -2    1    1    2    0  502 -0.31385036803E+02  0.91900945969E+02  0.23464470318E+03  0.25394672893E+03  0.00000000000E+00 0.  1.
<scales pt_clust_5="13000.00000" pt_clust_6="13000.00000" pt_clust_7="13000.00000" pt_clust_8="13000.00000" pt_clust_9="51.53227" pt_clust_10="99.06885"></scales>
<clustering>
<clus scale="   51.532">  1  9  2 -1</clus>
<clus scale="   90.633">  5  6 -1 -1</clus>
<clus scale="   92.202">  7  8 -1 -1</clus>
<clus scale="   99.069">  1 10  2 -1</clus>
<clus scale="  113.136">  1  5  2 -1</clus>
<clus scale="   51.532">  1  5  2 -1</clus>
</clustering>
</event>
<event>
10    2  0.2421970E-006  0.1029722E+03  0.7546771E-02  0.1274684E+00
          1   -1    0    0  503    0 -0.00000000000E+00  0.00000000000E+00  0.23244183823E+03  0.23244183823E+03  0.00000000000E+00 0. -1.
         21   -1    0    0  501  502  0.00000000000E+00 -0.00000000000E+00 -0.10595695259E+03  0.10595695259E+03  0.00000000000E+00 0.  1.
         23    2    1    2    0    0  0.44648376132E+02 -0.36042712255E+02  0.14119165900E+03  0.17743712769E+03  0.90864157466E+02 0.  0.
         23    2    1    2    0    0  0.27586112060E+01  0.26094322743E+02 -0.38429936016E+01  0.95748984743E+02  0.92003129644E+02 0.  0.
        -13    1    3    3    0    0  0.58464785022E+02 -0.51405740589E+02  0.75018252618E+02  0.10811299403E+03  0.00000000000E+00 0. -1.
         13    1    3    3    0    0 -0.13816408889E+02  0.15363028334E+02  0.66173406386E+02  0.69324133655E+02  0.00000000000E+00 0.  1.
        -13    1    4    4    0    0 -0.27644078872E+02 -0.23396158509E+02 -0.93568302645E+01  0.37404887412E+02  0.00000000000E+00 0.  1.
         13    1    4    4    0    0  0.30402690078E+02  0.49490481252E+02  0.55138366629E+01  0.58344097331E+02  0.00000000000E+00 0. -1.
         21    1    1    2  503  502 -0.20982729524E+02  0.65909551899E+00 -0.25966318525E+02  0.33391002425E+02  0.00000000000E+00 0. -1.
          1    1    1    2  501    0 -0.26424257815E+02  0.92892939926E+01  0.15102538764E+02  0.31821675962E+02  0.00000000000E+00 0. -1.
<scales pt_clust_5="13000.00000" pt_clust_6="13000.00000" pt_clust_7="13000.00000" pt_clust_8="13000.00000" pt_clust_9="20.99308" pt_clust_10="30.21087"></scales>
<clustering>
<clus scale="   20.993">  2  9  1 -1</clus>
<clus scale="   30.211">  2 10  1 -1</clus>
<clus scale="   90.864">  5  6 -1 -1</clus>
<clus scale="   92.003">  7  8 -1 -1</clus>
<clus scale="  101.956">  1  5  2 -1</clus>
<clus scale="   20.993">  2  5  1 -1</clus>
</clustering>
</event>
<event>
10    2  0.2421970E-006  0.9471730E+02  0.7546771E-02  0.1292221E+00
         -3   -1    0    0    0  501 -0.00000000000E+00  0.00000000000E+00  0.11114659067E+03  0.11114659067E+03  0.00000000000E+00 0.  1.
         21   -1    0    0  503  502  0.00000000000E+00 -0.00000000000E+00 -0.28584356717E+03  0.28584356717E+03  0.00000000000E+00 0. -1.
         23    2    1    2    0    0 -0.92980663491E+01  0.23822697299E+02  0.22638402464E+02  0.98331308245E+02  0.92209402832E+02 0.  0.
         23    2    1    2    0    0  0.43014376589E+02  0.28342448310E+02 -0.35512614268E+02  0.11082380122E+03  0.91472608885E+02 0.  0.
        -11    1    3    3    0    0  0.40191594053E+02  0.18476218629E+00  0.39322021035E+01  0.40383914904E+02  0.00000000000E+00 0.  1.
         11    1    3    3    0    0 -0.49489660402E+02  0.23637935113E+02  0.18706200360E+02  0.57947393341E+02  0.00000000000E+00 0. -1.
        -11    1    4    4    0    0  0.55605057297E+02 -0.43489793301E+00 -0.51311165821E+02  0.75663381309E+02  0.00000000000E+00 0.  1.
         11    1    4    4    0    0 -0.12590680708E+02  0.28777346243E+02  0.15798551553E+02  0.35160419916E+02  0.00000000000E+00 0. -1.
         21    1    1    2  503  501 -0.46485907468E+02 -0.14936794059E+02 -0.12392724062E+03  0.13319913055E+03  0.00000000000E+00 0.  1.
         -3    1    1    2    0  502  0.12769597228E+02 -0.37228351550E+02 -0.37895524063E+02  0.54635917825E+02  0.00000000000E+00 0.  1.
<scales pt_clust_5="13000.00000" pt_clust_6="13000.00000" pt_clust_7="13000.00000" pt_clust_8="13000.00000" pt_clust_9="52.81880" pt_clust_10="39.35750"></scales>
<clustering>
<clus scale="   39.357">  2 10  1 -1</clus>
<clus scale="   52.819">  2  9  1 -1</clus>
<clus scale="   91.473">  7  8 -1 -1</clus>
<clus scale="   92.209">  5  6 -1 -1</clus>
<clus scale="   94.000">  2  7  1 -1</clus>
<clus scale="   39.357">  2  5  1 -1</clus>
</clustering>
</event>
<event>
10    2  0.2421970E-006  0.1734255E+03  0.7546771E-02  0.1193866E+00
         21   -1    0    0  501  502  0.00000000000E+00  0.00000000000E+00  0.33449127496E+03  0.33449127496E+03  0.00000000000E+00 0. -1.
          2   -1    0    0  503    0 -0.00000000000E+00 -0.00000000000E+00 -0.31465704077E+03  0.31465704077E+03  0.00000000000E+00 0. -1.
         23    2    1    2    0    0  0.50408314992E+02  0.38207529043E+02  0.68493007999E+01  0.11495011500E+03  0.95738197818E+02 0.  0.
         23    2    1    2    0    0  0.79322301695E+02 -0.90109751059E+02 -0.20553404599E+03  0.26560501182E+03  0.11785577397E+03 0.  0.
        -13    1    4    4    0    0  0.78071423006E+02 -0.43941039392E+02 -0.48404027634E+02  0.10182785436E+03  0.00000000000E+00 0.  1.
         13    1    4    4    0    0  0.12508786885E+01 -0.46168711667E+02 -0.15713001836E+03  0.16377715745E+03  0.00000000000E+00 0. -1.
        -13    1    3    3    0    0  0.12947627267E+02 -0.32289068217E+02 -0.39535344147E+00  0.34790534381E+02  0.00000000000E+00 0.  1.
         13    1    3    3    0    0  0.37460687724E+02  0.70496597260E+02  0.72446542413E+01  0.80159580619E+02  0.00000000000E+00 0. -1.
         21    1    1    2  503  502 -0.35092652664E+02  0.34278209615E+01  0.13717374508E+02  0.37833987246E+02  0.00000000000E+00 0.  1.
          2    1    1    2  501    0 -0.94637964023E+02  0.48474401055E+02  0.20480160488E+03  0.23075920166E+03  0.00000000000E+00 0. -1.
<scales pt_clust_5="13000.00000" pt_clust_6="13000.00000" pt_clust_7="13000.00000" pt_clust_8="13000.00000" pt_clust_9="35.25967" pt_clust_10="127.22592"></scales>
<clustering>
<clus scale="   35.260">  1  9  2 -1</clus>
<clus scale="   95.738">  7  8 -1 -1</clus>
<clus scale="  112.110">  2  7  1 -1</clus>
<clus scale="  117.856">  5  6 -1 -1</clus>
<clus scale="  127.226">  1 10  2 -1</clus>
<clus scale="   35.260">  1  5  2 -1</clus>
</clustering>
</event>
<event>
10    2  0.2421970E-006  0.2617252E+03  0.7546771E-02  0.1136902E+00
          3   -1    0    0  502    0 -0.00000000000E+00  0.00000000000E+00  0.20928947349E+03  0.20928947349E+03  0.00000000000E+00 0. -1.
         21   -1    0    0  503  502  0.00000000000E+00 -0.00000000000E+00 -0.67261149570E+03  0.67261149570E+03  0.00000000000E+00 0. -1.
         23    2    1    2    0    0 -0.60489100865E+02 -0.55055848432E+02 -0.13628978661E+02  0.12217500881E+03  0.89726840740E+02 0.  0.
         23    2    1    2    0    0  0.27711906063E+03 -0.38640559245E+02 -0.61111687645E+02  0.30151076754E+03  0.94265783797E+02 0.  0.
        -11    1    4    4    0    0  0.30265597488E+02 -0.12776778487E+02 -0.40934924404E+02  0.52487336528E+02  0.00000000000E+00 0.  1.
         11    1    4    4    0    0  0.24685346314E+03 -0.25863780759E+02 -0.20176763241E+02  0.24902343102E+03  0.00000000000E+00 0. -1.
        -11    1    3    3    0    0 -0.74751725778E+02 -0.11597908221E+02 -0.97597291626E+01  0.76273090243E+02  0.00000000000E+00 0.  1.
         11    1    3    3    0    0  0.14262624913E+02 -0.43457940211E+02 -0.38692494983E+01  0.45901918570E+02  0.00000000000E+00 0. -1.
         21    1    1    2  503  501 -0.11837484260E+03  0.20999874776E+02 -0.17986640563E+03  0.21634583883E+03  0.00000000000E+00 0.  1.
          3    1    1    2  501    0 -0.98255117161E+02  0.72696532901E+02 -0.20871495027E+03  0.24186935401E+03  0.00000000000E+00 0. -1.
<scales pt_clust_5="13000.00000" pt_clust_6="13000.00000" pt_clust_7="13000.00000" pt_clust_8="13000.00000" pt_clust_9="56.61080" pt_clust_10="250.74328"></scales>
<clustering>
<clus scale="   56.611">  9 10 -1 -1</clus>
<clus scale="   89.727">  7  8 -1 -1</clus>
<clus scale="   94.266">  5  6 -1 -1</clus>
<clus scale="  121.412">  1  7  2 -1</clus>
<clus scale="  250.743">  2  9  1 -1</clus>
<clus scale="  250.743">  2  5  1 -1</clus>
</clustering>
</event>
<event>
10    2  0.2421970E-006  0.1471414E+03  0.7546771E-02  0.1216822E+00
         21   -1    0    0  501  502  0.00000000000E+00  0.00000000000E+00  0.32803174129E+03  0.32803174129E+03  0.00000000000E+00 0. -1.
          1   -1    0    0  503    0 -0.00000000000E+00 -0.00000000000E+00 -0.30723400110E+03  0.30723400110E+03  0.00000000000E+00 0. -1.
         23    2    1    2    0    0  0.60113734452E+02  0.24413293195E+02 -0.14547390596E+03  0.18206743211E+03  0.88182892716E+02 0.  0.
         23    2    1    2    0    0 -0.32934081724E+02  0.11429938073E+03 -0.36011237233E+02  0.15430448746E+03  0.91455253917E+02 0.  0.
        -13    1    3    3    0    0  0.56112211914E+02  0.51309045569E+02 -0.13047573188E+03  0.15101362552E+03  0.00000000000E+00 0.  1.
         13    1    3    3    0    0  0.40015225377E+01 -0.26895752374E+02 -0.14998174080E+02  0.31053806596E+02  0.00000000000E+00 0. -1.
        -13    1    4    4    0    0  0.30072374163E+02  0.18284345500E+02 -0.78254029037E+01  0.36054152448E+02  0.00000000000E+00 0.  1.
         13    1    4    4    0    0 -0.63006455887E+02  0.96015035229E+02 -0.28185834329E+02  0.11825033501E+03  0.00000000000E+00 0. -1.
         21    1    1    2  503  502  0.71395630974E+02 -0.56934551146E+02  0.95566778156E+02  0.13218127070E+03  0.00000000000E+00 0. -1.
          1    1    1    2  501    0 -0.98575283702E+02 -0.81778122778E+02  0.10671610523E+03  0.16671255213E+03  0.00000000000E+00 0. -1.
<scales pt_clust_5="13000.00000" pt_clust_6="13000.00000" pt_clust_7="13000.00000" pt_clust_8="13000.00000" pt_clust_9="91.31746" pt_clust_10="115.26721"></scales>
<clustering>
<clus scale="   88.183">  5  6 -1 -1</clus>
<clus scale="   91.317">  1  9  2 -1</clus>
<clus scale="   91.455">  7  8 -1 -1</clus>
<clus scale="  111.994">  2  5  1 -1</clus>
<clus scale="  115.267">  1 10  2 -1</clus>
<clus scale="   91.317">  1  5  2 -1</clus>
</clustering>
</event>
<event>
10    2  0.2421970E-006  0.1550069E+03  0.7546771E-02  0.1196121E+00
         21   -1    0    0  501  502  0.00000000000E+00  0.00000000000E+00  0.35221988537E+03  0.35221988537E+03  0.00000000000E+00 0.  1.
          2   -1    0    0  503    0 -0.00000000000E+00 -0.00000000000E+00 -0.13887268540E+03  0.13887268540E+03  0.00000000000E+00 0. -1.
         23    2    1    2    0    0 -0.67406823160E+02 -0.88007176284E+02  0.84274931883E+02  0.17081837087E+03  0.98932849942E+02 0.  0.
         23    2    1    2    0    0  0.11926021580E+03  0.61025953623E+02  0.11538863216E+03  0.19838324561E+03  0.89967825481E+02 0.  0.
        -13    1    4    4    0    0  0.33713412989E+02  0.45577879250E+02  0.92499245040E+02  0.10848985033E+03  0.00000000000E+00 0.  1.
         13    1    4    4    0    0  0.85546802808E+02  0.15448074373E+02  0.22889387115E+02  0.89893395280E+02  0.00000000000E+00 0. -1.
        -13    1    3    3    0    0 -0.36447256462E+01 -0.83660805266E+02  0.57191372301E+02  0.10140644668E+03  0.00000000000E+00 0. -1.
         13    1    3    3    0    0 -0.63762097514E+02 -0.43463710181E+01  0.27083559582E+02  0.69411924192E+02  0.00000000000E+00 0.  1.
         21    1    1    2  503  502  0.61883902033E+01 -0.33693905065E+02 -0.79810292706E+01  0.35174880811E+02  0.00000000000E+00 0. -1.
          2    1    1    2  501    0 -0.58041782840E+02  0.60675127726E+02  0.21664665202E+02  0.86716073470E+02  0.00000000000E+00 0. -1.
<scales pt_clust_5="13000.00000" pt_clust_6="13000.00000" pt_clust_7="13000.00000" pt_clust_8="13000.00000" pt_clust_9="34.25749" pt_clust_10="76.20731"></scales>
<clustering>
<clus scale="   34.257">  2  9  1 -1</clus>
<clus scale="   76.207">  1 10  2 -1</clus>
<clus scale="   89.968">  5  6 -1 -1</clus>
<clus scale="   98.933">  7  8 -1 -1</clus>
<clus scale="  149.444">  1  5  2 -1</clus>
<clus scale="   76.207">  1  5  2 -1</clus>
</clustering>
</event>
<event>
10    2  0.2421970E-006  0.1207045E+03  0.7546771E-02  0.1243516E+00
         -2   -1    0    0    0  501 -0.00000000000E+00  0.00000000000E+00  0.89508032251E+03  0.89508032251E+03  0.00000000000E+00 0.  1.
         21   -1    0    0  503  502  0.00000000000E+00 -0.00000000000E+00 -0.48559982347E+03  0.48559982347E+03  0.00000000000E+00 0.  1.
         23    2    1    2    0    0 -0.60688825982E+02  0.56011278101E+01  0.49353754631E+03  0.50573951843E+03  0.92079556076E+02 0.  0.
         23    2    1    2    0    0  0.12227587775E+03  0.59451900942E+02  0.37285934560E+03  0.40631085127E+03  0.87054565949E+02 0.  0.
        -11    1    4    4    0    0  0.41570875479E+02  0.64285026258E+01  0.34382483061E+02  0.54328799688E+02  0.00000000000E+00 0. -1.
         11    1    4    4    0    0  0.80705002267E+02  0.53023398316E+02  0.33847686254E+03  0.35198205158E+03  0.00000000000E+00 0.  1.
        -13    1    3    3    0    0 -0.74937763229E+02 -0.20175369834E+02  0.40684164720E+03  0.41417730479E+03  0.00000000000E+00 0. -1.
         13    1    3    3    0    0  0.14248937247E+02  0.25776497644E+02  0.86695899113E+02  0.91562213639E+02  0.00000000000E+00 0.  1.
         21    1    1    2  503  501 -0.30540065643E+02  0.75397786825E+00 -0.10990667729E+03  0.11407340534E+03  0.00000000000E+00 0. -1.
         -2    1    1    2    0  502 -0.31046986121E+02 -0.65807006620E+02 -0.34700971558E+03  0.35455637094E+03  0.00000000000E+00 0.  1.
<scales pt_clust_5="13000.00000" pt_clust_6="13000.00000" pt_clust_7="13000.00000" pt_clust_8="13000.00000" pt_clust_9="30.54937" pt_clust_10="88.34311"></scales>
<clustering>
<clus scale="   30.549">  2  9  1 -1</clus>
<clus scale="   87.055">  5  6 -1 -1</clus>
<clus scale="   88.343">  2 10  1 -1</clus>
<clus scale="   92.080">  7  8 -1 -1</clus>
<clus scale="  116.916">  2  5  1 -1</clus>
<clus scale="   30.549">  2  5  1 -1</clus>
</clustering>
</event>
<event>
10    2  0.2421970E-006  0.9086554E+02  0.7546771E-02  0.1308360E+00
          3   -1    0    0  503    0 -0.00000000000E+00  0.00000000000E+00  0.63681982529E+03  0.63681982529E+03  0.00000000000E+00 0. -1.
         21   -1    0    0  501  502  0.00000000000E+00 -0.00000000000E+00 -0.10318868136E+03  0.10318868136E+03  0.00000000000E+00 0.  1.
         23    2    1    2    0    0 -0.29047290013E+01  0.82710315943E+01  0.32400053671E+03  0.33652467927E+03  0.90529909703E+02 0.  0.
         23    2    1    2    0    0  0.60830554375E+00  0.22765167305E+02  0.27472789682E+03  0.28668190538E+03  0.78692278525E+02 0.  0.
        -13    1    3    3    0    0  0.28489047389E+02  0.37418110166E+02  0.19527100881E+03  0.20085444400E+03  0.00000000000E+00 0.  1.
         13    1    3    3    0    0 -0.31393776390E+02 -0.29147078572E+02  0.12872952790E+03  0.13567023527E+03  0.00000000000E+00 0. -1.
        -13    1    4    4    0    0 -0.10960221131E+02  0.49978623572E+02  0.14962193159E+03  0.15812878193E+03  0.00000000000E+00 0. -1.
         13    1    4    4    0    0  0.11568526675E+02 -0.27213456267E+02  0.12510596523E+03  0.12855312345E+03  0.00000000000E+00 0.  1.
         21    1    1    2  503  502 -0.35564490698E+02 -0.42067036563E+02 -0.50563334621E+02  0.74773788000E+02  0.00000000000E+00 0.  1.
          3    1    1    2  501    0  0.37860914156E+02  0.11030837664E+02 -0.14533954982E+02  0.42028134002E+02  0.00000000000E+00 0. -1.
<scales pt_clust_5="13000.00000" pt_clust_6="13000.00000" pt_clust_7="13000.00000" pt_clust_8="13000.00000" pt_clust_9="33.06807" pt_clust_10="39.43511"></scales>
<clustering>
<clus scale="   39.435">  2 10  1 -1</clus>
<clus scale="   33.068">  2  9  1 -1</clus>
<clus scale="   78.692">  7  8 -1 -1</clus>
<clus scale="   79.078">  2  7  1 -1</clus>
<clus scale="   90.530">  5  6 -1 -1</clus>
<clus scale="   39.435">  2  5  1 -1</clus>
</clustering>
</event>
<event>
10    2  0.2421970E-006  0.1638535E+03  0.7546771E-02  0.1184682E+00
         21   -1    0    0  501  502  0.00000000000E+00  0.00000000000E+00  0.36817846281E+03  0.36817846281E+03  0.00000000000E+00 0.  1.
          4   -1    0    0  503    0 -0.00000000000E+00 -0.00000000000E+00 -0.26878461649E+03  0.26878461649E+03  0.00000000000E+00 0. -1.
         23    2    1    2    0    0  0.97896475269E+02  0.61707366761E+02 -0.53610041024E+02  0.15701219459E+03  0.91582060295E+02 0.  0.
         23    2    1    2    0    0 -0.12307950989E+03 -0.93937636079E+02 -0.96722874921E+02  0.20502284984E+03  0.93307069389E+02 0.  0.
        -11    1    3    3    0    0  0.10928834243E+03  0.31115102351E+02 -0.50079097103E+02  0.12417732221E+03  0.00000000000E+00 0.  1.
         11    1    3    3    0    0 -0.11391867157E+02  0.30592264410E+02 -0.35309439208E+01  0.32834872378E+02  0.00000000000E+00 0. -1.
        -13    1    4    4    0    0 -0.66000608557E+02 -0.37492145717E+02 -0.98957066923E+02  0.12471664851E+03  0.00000000000E+00 0. -1.
         13    1    4    4    0    0 -0.57078901329E+02 -0.56445490362E+02  0.22341920012E+01  0.80306201336E+02  0.00000000000E+00 0.  1.
         21    1    1    2  503  502  0.13305481165E+02 -0.33674867950E+02  0.36419342168E+02  0.51355633035E+02  0.00000000000E+00 0.  1.
          4    1    1    2  501    0  0.11877553453E+02  0.65905137269E+02  0.21330742010E+03  0.22357240184E+03  0.00000000000E+00 0. -1.
<scales pt_clust_5="13000.00000" pt_clust_6="13000.00000" pt_clust_7="13000.00000" pt_clust_8="13000.00000" pt_clust_9="36.20818" pt_clust_10="47.98383"></scales>
<clustering>
<clus scale="   36.208">  1  9  2 -1</clus>
<clus scale="   47.984">  1 10  2 -1</clus>
<clus scale="   91.582">  5  6 -1 -1</clus>
<clus scale="   93.307">  7  8 -1 -1</clus>
<clus scale="  162.877">  2  5  1 -1</clus>
<clus scale="   36.208">  1  5  2 -1</clus>
</clustering>
</event>
<event>
10    2  0.2421970E-006  0.1189205E+03  0.7546771E-02  0.1246063E+00
          1   -1    0    0  503    0 -0.00000000000E+00  0.00000000000E+00  0.24130109150E+03  0.24130109150E+03  0.00000000000E+00 0. -1.
         21   -1    0    0  501  502  0.00000000000E+00 -0.00000000000E+00 -0.16102523653E+03  0.16102523653E+03  0.00000000000E+00 0.  1.
         23    2    1    2    0    0  0.36645045057E+02  0.71706614649E+02  0.10777256019E+03  0.16190433849E+03  0.90074370280E+02 0.  0.
         23    2    1    2    0    0 -0.59805717722E+02 -0.36796622936E+02  0.62741969101E+02  0.13279167124E+03  0.93628830668E+02 0.  0.
        -13    1    4    4    0    0 -0.52336944756E+02 -0.67306622562E+02  0.50401273460E+02  0.99043554023E+02  0.00000000000E+00 0. -1.
         13    1    4    4    0    0 -0.74687729662E+01  0.30509999626E+02  0.12340695641E+02  0.33748117217E+02  0.00000000000E+00 0.  1.
        -13    1    3    3    0    0  0.25819605929E+02  0.92735328651E+02  0.78107944721E+02  0.12396509290E+03  0.00000000000E+00 0.  1.
         13    1    3    3    0    0  0.10825439129E+02 -0.21028714002E+02  0.29664615465E+02  0.37939245586E+02  0.00000000000E+00 0. -1.
         21    1    1    2  503  502 -0.33737214538E+00 -0.22460705064E+02 -0.13026093300E+02  0.25966828813E+02  0.00000000000E+00 0. -1.
          1    1    1    2  501    0  0.23498044810E+02 -0.12449286649E+02 -0.77212581014E+02  0.81663489485E+02  0.00000000000E+00 0. -1.
<scales pt_clust_5="13000.00000" pt_clust_6="13000.00000" pt_clust_7="13000.00000" pt_clust_8="13000.00000" pt_clust_9="22.46324" pt_clust_10="34.22142"></scales>
<clustering>
<clus scale="   22.463">  2  9  1 -1</clus>
<clus scale="   34.221">  2 10  1 -1</clus>
<clus scale="   90.074">  7  8 -1 -1</clus>
<clus scale="   93.629">  5  6 -1 -1</clus>
<clus scale="  116.143">  1  7  2 -1</clus>
<clus scale="   22.463">  2  5  1 -1</clus>
</clustering>
</event>
<event>
10    2  0.2421970E-006  0.1171478E+03  0.7546771E-02  0.1248183E+00
         21   -1    0    0  501  502  0.00000000000E+00  0.00000000000E+00  0.74863998275E+02  0.74863998275E+02  0.00000000000E+00 0. -1.
          2   -1    0    0  503    0 -0.00000000000E+00 -0.00000000000E+00 -0.80150828003E+03  0.80150828003E+03  0.00000000000E+00 0. -1.
         23    2    1    2    0    0  0.40969820763E+02  0.61154984696E+02 -0.48651294219E+03  0.50060687231E+03  0.92162570067E+02 0.  0.
         23    2    1    2    0    0 -0.21486786935E+02 -0.68794165660E+02 -0.28426146456E+03  0.30712516091E+03  0.91252205381E+02 0.  0.
        -13    1    4    4    0    0  0.13997452401E+02  0.16765548163E+02 -0.78397062051E+02  0.81382501910E+02  0.00000000000E+00 0.  1.
         13    1    4    4    0    0 -0.35484239336E+02 -0.85559713823E+02 -0.20586440251E+03  0.22574265900E+03  0.00000000000E+00 0. -1.
        -13    1    3    3    0    0 -0.18124537261E+02  0.54647708538E+02 -0.20814542072E+03  0.21596154071E+03  0.00000000000E+00 0.  1.
         13    1    3    3    0    0  0.59094358024E+02  0.65072761574E+01 -0.27836752146E+03  0.28464533160E+03  0.00000000000E+00 0. -1.
         21    1    1    2  503  502 -0.27514072557E+02 -0.11791264792E+02  0.17370553565E+02  0.34609164180E+02  0.00000000000E+00 0. -1.
          2    1    1    2  501    0  0.80310387298E+01  0.19430445757E+02  0.26759571422E+02  0.34031080913E+02  0.00000000000E+00 0. -1.
<scales pt_clust_5="13000.00000" pt_clust_6="13000.00000" pt_clust_7="13000.00000" pt_clust_8="13000.00000" pt_clust_9="22.82445" pt_clust_10="21.02474"></scales>
<clustering>
<clus scale="   21.025">  1 10  2 -1</clus>
<clus scale="   22.824">  1  9  2 -1</clus>
<clus scale="   91.252">  5  6 -1 -1</clus>
<clus scale="   92.163">  7  8 -1 -1</clus>
<clus scale="  116.433">  1  5  2 -1</clus>
<clus scale="   21.025">  1  5  2 -1</clus>
</clustering>
</event>
<event>
10    2  0.2421970E-006  0.1792065E+03  0.7546771E-02  0.1191077E+00
          2   -1    0    0  503    0 -0.00000000000E+00  0.00000000000E+00  0.87292483992E+03  0.87292483992E+03  0.00000000000E+00 0. -1.
         21   -1    0    0  501  502  0.00000000000E+00 -0.00000000000E+00 -0.80397690700E+02  0.80397690700E+02  0.00000000000E+00 0. -1.
         23    2    1    2    0    0  0.55018825652E+02 -0.26045829456E+02  0.27244207894E+03  0.29356323889E+03  0.90825285257E+02 0.  0.
         23    2    1    2    0    0 -0.78205272271E+02  0.17433196973E+03  0.22647491034E+03  0.30996404439E+03  0.90989689077E+02 0.  0.
        -11    1    4    4    0    0 -0.34365405233E+02  0.13987438624E+03  0.11138686977E+03  0.18207926780E+03  0.00000000000E+00 0. -1.
         11    1    4    4    0    0 -0.43839867037E+02  0.34457583487E+02  0.11508804057E+03  0.12788477659E+03  0.00000000000E+00 0.  1.
        -13    1    3    3    0    0  0.38837439151E+02 -0.60126034205E+02  0.18177865124E+03  0.19536367297E+03  0.00000000000E+00 0.  1.
         13    1    3    3    0    0  0.16181386501E+02  0.34080204749E+02  0.90663427698E+02  0.98199565919E+02  0.00000000000E+00 0. -1.
         21    1    1    2  503  502 -0.41435673734E+02 -0.42349304572E+02  0.54976852681E+02  0.80825942532E+02  0.00000000000E+00 0. -1.
          2    1    1    2  501    0  0.64622120353E+02 -0.10593683570E+03  0.23863330726E+03  0.26896930481E+03  0.00000000000E+00 0. -1.
<scales pt_clust_5="13000.00000" pt_clust_6="13000.00000" pt_clust_7="13000.00000" pt_clust_8="13000.00000" pt_clust_9="59.24845" pt_clust_10="154.38865"></scales>
<clustering>
<clus scale="   59.248">  2  9  1 -1</clus>
<clus scale="   90.825">  7  8 -1 -1</clus>
<clus scale="   90.990">  5  6 -1 -1</clus>
<clus scale="  108.039">  1  7  2 -1</clus>
<clus scale="  154.389">  2 10  1 -1</clus>
<clus scale="   59.248">  2  5  1 -1</clus>
</clustering>
</event>
<event>
10    2  0.2421970E-006  0.1902461E+03  0.7546771E-02  0.1158290E+00
         21   -1    0    0  501  502  0.00000000000E+00  0.00000000000E+00  0.24293875912E+03  0.24293875912E+03  0.00000000000E+00 0. -1.
          2   -1    0    0  503    0 -0.00000000000E+00 -0.00000000000E+00 -0.50511611820E+03  0.50511611820E+03  0.00000000000E+00 0. -1.
         23    2    1    2    0    0 -0.35789764259E+02 -0.13503888251E+03 -0.22542582037E+03  0.28032758115E+03  0.90831411155E+02 0.  0.
         23    2    1    2    0    0  0.59953983890E+02  0.24114456738E+03 -0.13064001955E+03  0.29520610258E+03  0.91294280924E+02 0.  0.
        -13    1    4    4    0    0 -0.23005502186E+02  0.70055064546E+02 -0.47294209512E+02  0.87599700073E+02  0.00000000000E+00 0.  1.
         13    1    4    4    0    0  0.82959486076E+02  0.17108950283E+03 -0.83345810040E+02  0.20760640250E+03  0.00000000000E+00 0. -1.
        -13    1    3    3    0    0 -0.10236538919E+02 -0.13817784997E+03 -0.20514905945E+03  0.24755613817E+03  0.00000000000E+00 0.  1.
         13    1    3    3    0    0 -0.25553225340E+02  0.31389674646E+01 -0.20276760922E+02  0.32771442988E+02  0.00000000000E+00 0. -1.
         21    1    1    2  503  502  0.15549385895E+01 -0.62612780104E+02 -0.35797385525E+01  0.62734301578E+02  0.00000000000E+00 0. -1.
          2    1    1    2  501    0 -0.25719158220E+02 -0.43492904768E+02  0.97468219395E+02  0.10978689201E+03  0.00000000000E+00 0. -1.
<scales pt_clust_5="13000.00000" pt_clust_6="13000.00000" pt_clust_7="13000.00000" pt_clust_8="13000.00000" pt_clust_9="71.95287" pt_clust_10="50.52829"></scales>
<clustering>
<clus scale="   50.528">  1 10  2 -1</clus>
<clus scale="   71.953">  1  9  2 -1</clus>
<clus scale="   90.831">  7  8 -1 -1</clus>
<clus scale="   91.294">  5  6 -1 -1</clus>
<clus scale="  190.024">  2  7  1 -1</clus>
<clus scale="   50.528">  1  5  2 -1</clus>
</clustering>
</event>
<event>
10    2  0.2421970E-006  0.1545647E+03  0.7546771E-02  0.1215641E+00
          2   -1    0    0  503    0 -0.00000000000E+00  0.00000000000E+00  0.37660895046E+03  0.37660895046E+03  0.00000000000E+00 0. -1.
         21   -1    0    0  501  502  0.00000000000E+00 -0.00000000000E+00 -0.14058601975E+03  0.14058601975E+03  0.00000000000E+00 0. -1.
         23    2    1    2    0    0 -0.10766372378E+03 -0.83566676871E+02  0.21754849928E+03  0.27262329208E+03  0.91767330470E+02 0.  0.
         23    2    1    2    0    0  0.30207507019E+02 -0.17083359538E+02  0.35155880785E+02  0.10267685788E+03  0.90012590994E+02 0.  0.
        -11    1    3    3    0    0 -0.52234631722E+02  0.11975380576E+02  0.78356938450E+02  0.94929849333E+02  0.00000000000E+00 0.  1.
         11    1    3    3    0    0 -0.55429092059E+02 -0.95542057447E+02  0.13919156083E+03  0.17769344275E+03  0.00000000000E+00 0. -1.
        -11    1    4    4    0    0  0.15504189338E+02 -0.45164334512E+02 -0.87280396298E+01  0.48542514095E+02  0.00000000000E+00 0.  1.
         11    1    4    4    0    0  0.14703317681E+02  0.28080974974E+02  0.43883920415E+02  0.54134343788E+02  0.00000000000E+00 0. -1.
         21    1    1    2  503  502  0.45551538782E+02  0.92529502861E+02 -0.28360917185E+02  0.10696257854E+03  0.00000000000E+00 0. -1.
          2    1    1    2  501    0  0.31904677980E+02  0.81205335477E+01  0.11679467824E+02  0.34932241708E+02  0.00000000000E+00 0. -1.
<scales pt_clust_5="13000.00000" pt_clust_6="13000.00000" pt_clust_7="13000.00000" pt_clust_8="13000.00000" pt_clust_9="124.37439" pt_clust_10="32.92190"></scales>
<clustering>
<clus scale="   32.922">  2 10  1 -1</clus>
<clus scale="   90.013">  7  8 -1 -1</clus>
<clus scale="   91.767">  5  6 -1 -1</clus>
<clus scale="   99.060">  2  7  1 -1</clus>
<clus scale="  124.374">  2  9  1 -1</clus>
<clus scale="   32.922">  2  5  1 -1</clus>
</clustering>
</event>
<event>
10    2  0.2421970E-006  0.2017044E+03  0.7546771E-02  0.1165042E+00
         21   -1    0    0  503  502  0.00000000000E+00  0.00000000000E+00  0.30574054955E+03  0.30574054955E+03  0.00000000000E+00 0. -1.
         -1   -1    0    0    0  501 -0.00000000000E+00 -0.00000000000E+00 -0.37580462334E+03  0.37580462334E+03  0.00000000000E+00 0.  1.
         23    2    1    2    0    0  0.96615074422E+02 -0.31854584015E+02 -0.16074459279E+03  0.21093134580E+03  0.91126403443E+02 0.  0.
         23    2    1    2    0    0  0.11719900380E+03 -0.58795286215E+02 -0.25868550522E+02  0.16085495973E+03  0.89513373250E+02 0.  0.
        -11    1    4    4    0    0  0.39049017461E+02  0.14184522539E+02  0.18001624783E+02  0.45277863677E+02  0.00000000000E+00 0.  1.
         11    1    4    4    0    0  0.78149986341E+02 -0.72979808754E+02 -0.43870175305E+02  0.11557709605E+03  0.00000000000E+00 0. -1.
        -11    1    3    3    0    0  0.98349070192E+01 -0.35557671113E+02 -0.95255284303E+02  0.10215009818E+03  0.00000000000E+00 0.  1.
         11    1    3    3    0    0  0.86780167403E+02  0.37030870978E+01 -0.65489308482E+02  0.10878124762E+03  0.00000000000E+00 0. -1.
         21    1    1    2  503  501 -0.22570971690E+03  0.39011421378E+02  0.70791629504E+02  0.23974616183E+03  0.00000000000E+00 0.  1.
         -1    1    1    2    0  502  0.11895638680E+02  0.51638448852E+02  0.45757440006E+02  0.70012705528E+02  0.00000000000E+00 0.  1.
<scales pt_clust_5="13000.00000" pt_clust_6="13000.00000" pt_clust_7="13000.00000" pt_clust_8="13000.00000" pt_clust_9="180.75407" pt_clust_10="52.99090"></scales>
<clustering>
<clus scale="   52.991">  1 10  2 -1</clus>
<clus scale="   89.513">  5  6 -1 -1</clus>
<clus scale="   91.126">  7  8 -1 -1</clus>
<clus scale="  136.314">  2  7  1 -1</clus>
<clus scale="  180.754">  1  9  2 -1</clus>
<clus scale="   52.991">  1  5  2 -1</clus>
</clustering>
</event>
<event>
10    2  0.2474404E-006  0.2008756E+03  0.7546771E-02  0.1170134E+00
         21   -1    0    0  501  502  0.00000000000E+00  0.00000000000E+00  0.41906911527E+03  0.41906911527E+03  0.00000000000E+00 0. -1.
          1   -1    0    0  503    0 -0.00000000000E+00 -0.00000000000E+00 -0.13638102313E+04  0.13638102313E+04  0.00000000000E+00 0. -1.
         23    2    1    2    0    0 -0.15067142465E+02 -0.62887662930E+02 -0.10903977187E+03  0.16378119924E+03  0.10369538294E+03 0.  0.
         23    2    1    2    0    0  0.17312848436E+03  0.14847465128E+03 -0.11871137976E+04  0.12123255735E+04  0.92064833909E+02 0.  0.
        -11    1    3    3    0    0 -0.48859062417E+02  0.15840006444E+00 -0.30731893495E+02  0.57720727202E+02  0.00000000000E+00 0.  1.
         11    1    3    3    0    0  0.33791919952E+02 -0.63046062995E+02 -0.78307878378E+02  0.10606047204E+03  0.00000000000E+00 0. -1.
        -13    1    4    4    0    0  0.87059737856E+02  0.17143795154E+02 -0.40524979360E+03  0.41485021740E+03  0.00000000000E+00 0.  1.
         13    1    4    4    0    0  0.86068746501E+02  0.13133085613E+03 -0.78186400397E+03  0.79747535611E+03  0.00000000000E+00 0. -1.
         21    1    1    2  503  502 -0.21613137140E+02 -0.10924151570E+02  0.19937854632E+01  0.24298970452E+02  0.00000000000E+00 0. -1.
          1    1    1    2  501    0 -0.13644820475E+03 -0.74662836782E+02  0.34941866793E+03  0.38247360337E+03  0.00000000000E+00 0. -1.
<scales pt_clust_5="13000.00000" pt_clust_6="13000.00000" pt_clust_7="13000.00000" pt_clust_8="13000.00000" pt_clust_9="24.21704" pt_clust_10="178.53588"></scales>
<clustering>
<clus scale="   24.217">  1  9  2 -1</clus>
<clus scale="   92.065">  7  8 -1 -1</clus>
<clus scale="  103.695">  5  6 -1 -1</clus>
<clus scale="  122.776">  2  5  1 -1</clus>
<clus scale="  178.536">  1 10  2 -1</clus>
<clus scale="   24.217">  1  5  2 -1</clus>
</clustering>
</event>
<event>
10    2  0.2421970E-006  0.9328786E+02  0.7546771E-02  0.1295589E+00
          1   -1    0    0  503    0 -0.00000000000E+00  0.00000000000E+00  0.10055138796E+03  0.10055138796E+03  0.00000000000E+00 0. -1.
         21   -1    0    0  501  502  0.00000000000E+00 -0.00000000000E+00 -0.41942243316E+03  0.41942243316E+03  0.00000000000E+00 0. -1.
         23    2    1    2    0    0  0.15688172720E+02 -0.16152563797E+02  0.17531462419E+02  0.95361587370E+02  0.90991516586E+02 0.  0.
         23    2    1    2    0    0  0.61458444951E+02  0.85921959689E+01 -0.50229102190E+02  0.12172295732E+03  0.91883346399E+02 0.  0.
        -13    1    3    3    0    0  0.51681774643E+02 -0.59883158442E+00  0.21442392837E+02  0.55956596038E+02  0.00000000000E+00 0. -1.
         13    1    3    3    0    0 -0.35993601923E+02 -0.15553732212E+02 -0.39109304180E+01  0.39404991332E+02  0.00000000000E+00 0.  1.
        -13    1    4    4    0    0 -0.61029047898E+01 -0.27773379459E+02  0.26198426591E+01  0.28556428856E+02  0.00000000000E+00 0.  1.
         13    1    4    4    0    0  0.67561349740E+02  0.36365575428E+02 -0.52848944849E+02  0.93166528467E+02  0.00000000000E+00 0. -1.
         21    1    1    2  503  502 -0.44437118337E+02  0.15138864820E+02 -0.71030132155E+02  0.85141778159E+02  0.00000000000E+00 0. -1.
          1    1    1    2  501    0 -0.32709499333E+02 -0.75784969928E+01 -0.21514327328E+03  0.21774749827E+03  0.00000000000E+00 0. -1.
<scales pt_clust_5="13000.00000" pt_clust_6="13000.00000" pt_clust_7="13000.00000" pt_clust_8="13000.00000" pt_clust_9="58.31601" pt_clust_10="33.57596"></scales>
<clustering>
<clus scale="   33.576">  2 10  1 -1</clus>
<clus scale="   58.316">  2  9  1 -1</clus>
<clus scale="   90.992">  5  6 -1 -1</clus>
<clus scale="   91.883">  7  8 -1 -1</clus>
<clus scale="   92.410">  1  5  2 -1</clus>
<clus scale="   33.576">  2  5  1 -1</clus>
</clustering>
</event>
<event>
10    2  0.2421970E-006  0.1023684E+03  0.7546771E-02  0.1275795E+00
         -1   -1    0    0    0  501 -0.00000000000E+00  0.00000000000E+00  0.17100265093E+03  0.17100265093E+03  0.00000000000E+00 0.  1.
         21   -1    0    0  503  502  0.00000000000E+00 -0.00000000000E+00 -0.22252288109E+03  0.22252288109E+03  0.00000000000E+00 0. -1.
         23    2    1    2    0    0 -0.37461061529E+02 -0.41598266127E+02  0.99521312025E+02  0.14693189301E+03  0.92470226345E+02 0.  0.
         23    2    1    2    0    0 -0.20011150989E+02  0.16037723971E+02 -0.59699990526E+02  0.11230344459E+03  0.91598690189E+02 0.  0.
        -11    1    4    4    0    0  0.41798831535E+01  0.44578856203E+02 -0.36625407003E+01  0.44923936247E+02  0.00000000000E+00 0.  1.
         11    1    4    4    0    0 -0.24191034142E+02 -0.28541132232E+02 -0.56037449826E+02  0.67379508345E+02  0.00000000000E+00 0. -1.
        -11    1    3    3    0    0 -0.59443876081E+02 -0.12947780656E+02  0.28341066081E+02  0.67115091105E+02  0.00000000000E+00 0. -1.
         11    1    3    3    0    0  0.21982814552E+02 -0.28650485471E+02  0.71180245944E+02  0.79816801903E+02  0.00000000000E+00 0.  1.
         21    1    1    2  503  501  0.29546122985E+02 -0.25895803541E+02 -0.29492686145E+02  0.49126210525E+02  0.00000000000E+00 0. -1.
         -1    1    1    2    0  502  0.27926089533E+02  0.51456345697E+02 -0.61848865514E+02  0.85163983905E+02  0.00000000000E+00 0.  1.
<scales pt_clust_5="13000.00000" pt_clust_6="13000.00000" pt_clust_7="13000.00000" pt_clust_8="13000.00000" pt_clust_9="39.28824" pt_clust_10="57.17468"></scales>
<clustering>
<clus scale="   39.288">  2  9  1 -1</clus>
<clus scale="   57.175">  2 10  1 -1</clus>
<clus scale="   91.599">  5  6 -1 -1</clus>
<clus scale="   92.470">  7  8 -1 -1</clus>
<clus scale="  101.582">  2  5  1 -1</clus>
<clus scale="   39.288">  2  5  1 -1</clus>
</clustering>
</event>
<event>
10    2  0.2421970E-006  0.9219842E+02  0.7546771E-02  0.1298594E+00
         21   -1    0    0  501  502  0.00000000000E+00  0.00000000000E+00  0.35483750504E+03  0.35483750504E+03  0.00000000000E+00 0. -1.
         -1   -1    0    0    0  501 -0.00000000000E+00 -0.00000000000E+00 -0.57014838307E+02  0.57014838307E+02  0.00000000000E+00 0.  1.
         23    2    1    2    0    0  0.81116660065E+01 -0.20390469926E+00  0.35240282521E+02  0.98250457280E+02  0.91353347728E+02 0.  0.
         23    2    1    2    0    0 -0.47653568920E+01 -0.29232189703E+02  0.10050969567E+03  0.13792112826E+03  0.89681710267E+02 0.  0.
        -11    1    3    3    0    0  0.45009654035E+02 -0.16800969320E+02  0.61852851478E+01  0.48439645734E+02  0.00000000000E+00 0.  1.
         11    1    3    3    0    0 -0.36897988029E+02  0.16597064621E+02  0.29054997373E+02  0.49810811547E+02  0.00000000000E+00 0. -1.
        -13    1    4    4    0    0 -0.43979530740E+02  0.16847315665E+01  0.40059764445E+02  0.59513210062E+02  0.00000000000E+00 0. -1.
         13    1    4    4    0    0  0.39214173848E+02 -0.30916921270E+02  0.60449931228E+02  0.78407918202E+02  0.00000000000E+00 0.  1.
         21    1    1    2  503  502  0.21678114539E+02 -0.70782527154E+01  0.43510363502E+02  0.49124271430E+02  0.00000000000E+00 0.  1.
         -1    1    1    2    0  503 -0.25024423654E+02  0.36514347118E+02  0.11856232503E+03  0.12655648637E+03  0.00000000000E+00 0.  1.
<scales pt_clust_5="13000.00000" pt_clust_6="13000.00000" pt_clust_7="13000.00000" pt_clust_8="13000.00000" pt_clust_9="22.80444" pt_clust_10="37.48653"></scales>
<clustering>
<clus scale="   22.804">  1  9  2 -1</clus>
<clus scale="   37.487">  1 10  2 -1</clus>
<clus scale="   89.682">  7  8 -1 -1</clus>
<clus scale="   90.542">  1  7  2 -1</clus>
<clus scale="   91.353">  5  6 -1 -1</clus>
<clus scale="   22.804">  1  5  2 -1</clus>
</clustering>
</event>
<event>
10    2  0.2421970E-006  0.2582695E+03  0.7546771E-02  0.1108309E+00
         21   -1    0    0  501  502  0.00000000000E+00  0.00000000000E+00  0.22682117805E+03  0.22682117805E+03  0.00000000000E+00 0. -1.
          1   -1    0    0  503    0 -0.00000000000E+00 -0.00000000000E+00 -0.80676321482E+03  0.80676321482E+03  0.00000000000E+00 0. -1.
         23    2    1    2    0    0 -0.24290550549E+03 -0.43566506471E+02 -0.43920593311E+03  0.51190030398E+03  0.90768631427E+02 0.  0.
         23    2    1    2    0    0  0.23641278321E+03 -0.20107334615E+02 -0.24997376432E+03  0.35697924801E+03  0.93016082981E+02 0.  0.
        -11    1    3    3    0    0 -0.12639101270E+03 -0.47250404385E+02 -0.15978500059E+03  0.20913759877E+03  0.00000000000E+00 0. -1.
         11    1    3    3    0    0 -0.11651449278E+03  0.36838979136E+01 -0.27942093253E+03  0.30276270521E+03  0.00000000000E+00 0.  1.
        -13    1    4    4    0    0  0.11689990488E+03 -0.56340725655E+02 -0.13434936316E+03  0.18678762408E+03  0.00000000000E+00 0.  1.
         13    1    4    4    0    0  0.11951287833E+03  0.36233391039E+02 -0.11562440116E+03  0.17019162393E+03  0.00000000000E+00 0. -1.
         21    1    1    2  503  502  0.10473055861E+02 -0.21325490485E+02 -0.29024725236E+01  0.23935032698E+02  0.00000000000E+00 0. -1.
          1    1    1    2  501    0 -0.39803335813E+01  0.84999331571E+02  0.11214013319E+03  0.14076980818E+03  0.00000000000E+00 0. -1.
<scales pt_clust_5="13000.00000" pt_clust_6="13000.00000" pt_clust_7="13000.00000" pt_clust_8="13000.00000" pt_clust_9="23.75840" pt_clust_10="72.56377"></scales>
<clustering>
<clus scale="   23.758">  1  9  2 -1</clus>
<clus scale="   72.564">  1 10  2 -1</clus>
<clus scale="   90.769">  5  6 -1 -1</clus>
<clus scale="   93.016">  7  8 -1 -1</clus>
<clus scale="  257.469">  2  5  1 -1</clus>
<clus scale="   23.758">  1  5  2 -1</clus>
</clustering>
</event>
<event>
10    2  0.2421970E-006  0.2759494E+03  0.7546771E-02  0.1123364E+00
          1   -1    0    0  502    0 -0.00000000000E+00  0.00000000000E+00  0.10960553810E+04  0.10960553810E+04  0.00000000000E+00 0. -1.
         21   -1    0    0  503  502  0.00000000000E+00 -0.00000000000E+00 -0.15966354401E+03  0.15966354401E+03  0.00000000000E+00 0.  1.
         23    2    1    2    0    0 -0.59669392373E+02 -0.96455451448E+02  0.52905885661E+03  0.54842094556E+03  0.89432484480E+02 0.  0.
         23    2    1    2    0    0 -0.11637236076E+02 -0.22359772589E+03  0.13443794601E+03  0.27584454962E+03  0.88799132537E+02 0.  0.
        -11    1    3    3    0    0 -0.25692667076E+02 -0.10263227279E+03  0.33488232739E+03  0.35119747972E+03  0.00000000000E+00 0.  1.
         11    1    3    3    0    0 -0.33976725298E+02  0.61768213404E+01  0.19417652921E+03  0.19722346585E+03  0.00000000000E+00 0. -1.
        -11    1    4    4    0    0 -0.13202498123E+02 -0.75455185953E+02  0.95948079151E+02  0.12277550626E+03  0.00000000000E+00 0. -1.
         11    1    4    4    0    0  0.15652620463E+01 -0.14814253994E+03  0.38489866861E+02  0.15306904336E+03  0.00000000000E+00 0.  1.
         21    1    1    2  503  501  0.24531856831E+01  0.15865352085E+03  0.12621412300E+03  0.20274852069E+03  0.00000000000E+00 0. -1.
          1    1    1    2  501    0  0.68853442766E+02  0.16139965649E+03  0.14668091136E+03  0.22870490912E+03  0.00000000000E+00 0. -1.
<scales pt_clust_5="13000.00000" pt_clust_6="13000.00000" pt_clust_7="13000.00000" pt_clust_8="13000.00000" pt_clust_9="61.34526" pt_clust_10="269.11808"></scales>
<clustering>
<clus scale="   61.345">  9 10 -1 -1</clus>
<clus scale="   88.799">  7  8 -1 -1</clus>
<clus scale="   89.432">  5  6 -1 -1</clus>
<clus scale="  144.438">  1  5  2 -1</clus>
<clus scale="  269.118">  2  9  1 -1</clus>
<clus scale="  269.118">  2  5  1 -1</clus>
</clustering>
</event>
<event>
10    2  0.2421970E-006  0.1144550E+03  0.7546771E-02  0.1255516E+00
         21   -1    0    0  501  502  0.00000000000E+00  0.00000000000E+00  0.17311079948E+03  0.17311079948E+03  0.00000000000E+00 0.  1.
          2   -1    0    0  503    0 -0.00000000000E+00 -0.00000000000E+00 -0.15910519060E+03  0.15910519060E+03  0.00000000000E+00 0. -1.
         23    2    1    2    0    0  0.31918599771E+02 -0.54342940640E+02 -0.64755955403E+02  0.13043862349E+03  0.94068849936E+02 0.  0.
         23    2    1    2    0    0 -0.10878910408E+02  0.44386880113E+02  0.73526072196E+02  0.12199154610E+03  0.85949451481E+02 0.  0.
        -11    1    4    4    0    0 -0.29754554117E+02  0.20122003511E+02  0.82488332607E+02  0.89969736758E+02  0.00000000000E+00 0.  1.
         11    1    4    4    0    0  0.18875643709E+02  0.24264876602E+02 -0.89622604111E+01  0.32021809344E+02  0.00000000000E+00 0. -1.
        -13    1    3    3    0    0  0.63915940414E+02 -0.26781546165E+02 -0.50929443074E+02  0.86001783852E+02  0.00000000000E+00 0. -1.
         13    1    3    3    0    0 -0.31997340642E+02 -0.27561394474E+02 -0.13826512329E+02  0.44436839635E+02  0.00000000000E+00 0.  1.
         21    1    1    2  503  502 -0.22725016146E+02 -0.29640929622E+02 -0.76218733929E+01  0.38119601542E+02  0.00000000000E+00 0. -1.
          2    1    1    2  501    0  0.16853267822E+01  0.39596990148E+02  0.12857365480E+02  0.41666218958E+02  0.00000000000E+00 0. -1.
<scales pt_clust_5="13000.00000" pt_clust_6="13000.00000" pt_clust_7="13000.00000" pt_clust_8="13000.00000" pt_clust_9="37.34985" pt_clust_10="36.47003"></scales>
<clustering>
<clus scale="   37.350">  2  9  1 -1</clus>
<clus scale="   36.470">  1 10  2 -1</clus>
<clus scale="   85.949">  5  6 -1 -1</clus>
<clus scale="   94.069">  7  8 -1 -1</clus>
<clus scale="  107.881">  1  5  2 -1</clus>
<clus scale="   36.470">  1  5  2 -1</clus>
</clustering>
</event>
<event>
10    2  0.2421970E-006  0.1411633E+03  0.7546771E-02  0.1225942E+00
         21   -1    0    0  501  502  0.00000000000E+00  0.00000000000E+00  0.33143645869E+03  0.33143645869E+03  0.00000000000E+00 0. -1.
          2   -1    0    0  503    0 -0.00000000000E+00 -0.00000000000E+00 -0.41195229647E+03  0.41195229647E+03  0.00000000000E+00 0. -1.
         23    2    1    2    0    0 -0.59004475310E+01  0.42908673199E+02 -0.75769231327E+02  0.12568964179E+03  0.90448549577E+02 0.  0.
         23    2    1    2    0    0  0.13678722246E+03 -0.47474729395E+02 -0.26125766659E+03  0.31013159301E+03  0.83435259188E+02 0.  0.
        -11    1    3    3    0    0  0.31700806060E+02  0.52552744839E+02 -0.49021520566E+02  0.78548339089E+02  0.00000000000E+00 0. -1.
         11    1    3    3    0    0 -0.37601253591E+02 -0.96440716399E+01 -0.26747710761E+02  0.47141302701E+02  0.00000000000E+00 0.  1.
        -11    1    4    4    0    0  0.35185599358E+02 -0.46456241703E+02 -0.54656841762E+02  0.79897303751E+02  0.00000000000E+00 0.  1.
         11    1    4    4    0    0  0.10160162310E+03 -0.10184876927E+01 -0.20660082483E+03  0.23023428926E+03  0.00000000000E+00 0. -1.
         21    1    1    2  503  502 -0.74447530125E+02 -0.39279609206E+02  0.75941168341E+02  0.11336835312E+03  0.00000000000E+00 0. -1.
          2    1    1    2  501    0 -0.56439244800E+02  0.43845665403E+02  0.18056989180E+03  0.19419916723E+03  0.00000000000E+00 0. -1.
<scales pt_clust_5="13000.00000" pt_clust_6="13000.00000" pt_clust_7="13000.00000" pt_clust_8="13000.00000" pt_clust_9="113.86671" pt_clust_10="71.46909"></scales>
<clustering>
<clus scale="   71.469">  1 10  2 -1</clus>
<clus scale="   83.435">  7  8 -1 -1</clus>
<clus scale="   90.449">  5  6 -1 -1</clus>
<clus scale="  104.774">  2  5  1 -1</clus>
<clus scale="  113.867">  1  9  2 -1</clus>
<clus scale="   71.469">  1  5  2 -1</clus>
</clustering>
</event>
<event>
10    2  0.2421970E-006  0.1921472E+03  0.7546771E-02  0.1171290E+00
         21   -1    0    0  501  502  0.00000000000E+00  0.00000000000E+00  0.15397423599E+03  0.15397423599E+03  0.00000000000E+00 0. -1.
          2   -1    0    0  503    0 -0.00000000000E+00 -0.00000000000E+00 -0.84868843786E+03  0.84868843786E+03  0.00000000000E+00 0. -1.
         23    2    1    2    0    0  0.10009196580E+03  0.21908097686E+02 -0.14984430470E+03  0.20277839372E+03  0.90373640786E+02 0.  0.
         23    2    1    2    0    0 -0.12330247864E+03 -0.46499331240E+02 -0.15224151585E+03  0.22361196029E+03  0.97258113237E+02 0.  0.
        -13    1    4    4    0    0 -0.21859687806E+02 -0.57696010722E+02 -0.59287888732E+02  0.85567104395E+02  0.00000000000E+00 0.  1.
         13    1    4    4    0    0 -0.10144279084E+03  0.11196679482E+02 -0.92953627121E+02  0.13804485590E+03  0.00000000000E+00 0. -1.
        -13    1    3    3    0    0  0.66838807023E+02  0.56609552051E+02 -0.10799116650E+03  0.13904732845E+03  0.00000000000E+00 0.  1.
         13    1    3    3    0    0  0.33253158772E+02 -0.34701454365E+02 -0.41853138202E+02  0.63731065272E+02  0.00000000000E+00 0. -1.
         21    1    1    2  503  502  0.11132049329E+03  0.18430070353E+03 -0.30647475862E+03  0.37454743254E+03  0.00000000000E+00 0. -1.
          2    1    1    2  501    0 -0.88109980445E+02 -0.15970946997E+03 -0.86153622688E+02  0.20172488730E+03  0.00000000000E+00 0. -1.
<scales pt_clust_5="13000.00000" pt_clust_6="13000.00000" pt_clust_7="13000.00000" pt_clust_8="13000.00000" pt_clust_9="192.14715" pt_clust_10="13000.00000"></scales>
<clustering>
<clus scale="   90.374">  7  8 -1 -1</clus>
<clus scale="   97.258">  5  6 -1 -1</clus>
<clus scale="  136.623">  2  7  1 -1</clus>
<clus scale="  142.044">  2  5  1 -1</clus>
<clus scale="  192.147">  2  9  1 -1</clus>
<clus scale="  192.147">  1  5  2 -1</clus>
</clustering>
</event>
<event>
10    2  0.2421970E-006  0.1507712E+03  0.7546771E-02  0.1205118E+00
         21   -1    0    0  501  502  0.00000000000E+00  0.00000000000E+00  0.11902428927E+03  0.11902428927E+03  0.00000000000E+00 0. -1.
          2   -1    0    0  503    0 -0.00000000000E+00 -0.00000000000E+00 -0.42508994198E+03  0.42508994198E+03  0.00000000000E+00 0. -1.
         23    2    1    2    0    0  0.10124249885E+03 -0.82198017001E+01 -0.24336033083E+03  0.28737333463E+03  0.11419971156E+03 0.  0.
         23    2    1    2    0    0 -0.97651819972E+02  0.21257609193E+02 -0.11097197874E+02  0.13516480022E+03  0.90325032660E+02 0.  0.
        -11    1    3    3    0    0  0.42721232697E+02  0.52914952189E+02 -0.10117233794E+03  0.12190544636E+03  0.00000000000E+00 0. -1.
         11    1    3    3    0    0  0.58521266157E+02 -0.61134753889E+02 -0.14218799290E+03  0.16546788827E+03  0.00000000000E+00 0.  1.
        -13    1    4    4    0    0  0.89691657980E+01  0.25166825952E+02  0.52466561950E+01  0.27227604831E+02  0.00000000000E+00 0.  1.
         13    1    4    4    0    0 -0.10662098577E+03 -0.39092167593E+01 -0.16343854069E+02  0.10793719539E+03  0.00000000000E+00 0. -1.
         21    1    1    2  503  502 -0.37660478850E+01  0.28749098608E+02 -0.70115289191E+02  0.75873892517E+02  0.00000000000E+00 0. -1.
          2    1    1    2  501    0  0.17536900377E+00 -0.41786906101E+02  0.18507165197E+02  0.45702203879E+02  0.00000000000E+00 0. -1.
<scales pt_clust_5="13000.00000" pt_clust_6="13000.00000" pt_clust_7="13000.00000" pt_clust_8="13000.00000" pt_clust_9="28.99472" pt_clust_10="40.67666"></scales>
<clustering>
<clus scale="   28.995">  2  9  1 -1</clus>
<clus scale="   40.677">  1 10  2 -1</clus>
<clus scale="   90.325">  7  8 -1 -1</clus>
<clus scale="  114.200">  5  6 -1 -1</clus>
<clus scale="  133.600">  1  7  2 -1</clus>
<clus scale="   40.677">  1  5  2 -1</clus>
</clustering>
</event>
<event>
10    2  0.2421970E-006  0.3303527E+03  0.7546771E-02  0.1116323E+00
         21   -1    0    0  503  502  0.00000000000E+00  0.00000000000E+00  0.10567918364E+04  0.10567918364E+04  0.00000000000E+00 0. -1.
          1   -1    0    0  502    0 -0.00000000000E+00 -0.00000000000E+00 -0.15106325743E+03  0.15106325743E+03  0.00000000000E+00 0. -1.
         23    2    1    2    0    0  0.16919213995E+02  0.36657921077E+02  0.26227426055E+02  0.10376968128E+03  0.91925001469E+02 0.  0.
         23    2    1    2    0    0  0.57734208821E+02 -0.33278862274E+03  0.36882446818E+03  0.50841454966E+03  0.91500599378E+02 0.  0.
        -11    1    3    3    0    0  0.51288112129E+02  0.28563086463E+02 -0.17322323237E+01  0.58730920160E+02  0.00000000000E+00 0.  1.
         11    1    3    3    0    0 -0.34368898134E+02  0.80948346148E+01  0.27959658379E+02  0.45038761118E+02  0.00000000000E+00 0. -1.
        -13    1    4    4    0    0 -0.16123096210E+02 -0.14735887001E+03  0.18500544206E+03  0.23706877567E+03  0.00000000000E+00 0.  1.
         13    1    4    4    0    0  0.73857305031E+02 -0.18542975273E+03  0.18381902611E+03  0.27134577400E+03  0.00000000000E+00 0. -1.
         21    1    1    2  503  501 -0.52936372011E+02  0.15349180231E+03  0.27139663070E+03  0.31625642130E+03  0.00000000000E+00 0. -1.
          1    1    1    2  501    0 -0.21717050805E+02  0.14263889936E+03  0.23928005407E+03  0.27941444161E+03  0.00000000000E+00 0. -1.
<scales pt_clust_5="13000.00000" pt_clust_6="13000.00000" pt_clust_7="13000.00000" pt_clust_8="13000.00000" pt_clust_9="26.09995" pt_clust_10="318.63321"></scales>
<clustering>
<clus scale="   26.100">  9 10 -1 -1</clus>
<clus scale="   91.501">  7  8 -1 -1</clus>
<clus scale="   91.925">  5  6 -1 -1</clus>
<clus scale="  100.401">  2  5  1 -1</clus>
<clus scale="  318.633">  1  9  2 -1</clus>
<clus scale="  318.633">  1  5  2 -1</clus>
</clustering>
</event>
<event>
10    2  0.2421970E-006  0.1418240E+03  0.7546771E-02  0.1211429E+00
         21   -1    0    0  501  502  0.00000000000E+00  0.00000000000E+00  0.27211012130E+03  0.27211012130E+03  0.00000000000E+00 0. -1.
          4   -1    0    0  503    0 -0.00000000000E+00 -0.00000000000E+00 -0.12274225019E+03  0.12274225019E+03  0.00000000000E+00 0.  1.
         23    2    1    2    0    0 -0.70636647791E+02 -0.98376366976E+02  0.90638199849E+02  0.17673712576E+03  0.91396295104E+02 0.  0.
         23    2    1    2    0    0  0.77677737469E+02  0.56078610165E+02  0.86454252086E+02  0.15955604893E+03  0.93835780115E+02 0.  0.
        -11    1    4    4    0    0  0.90208926928E+02  0.31620258621E+02  0.36079278320E+02  0.10217243061E+03  0.00000000000E+00 0. -1.
         11    1    4    4    0    0 -0.12531189458E+02  0.24458351544E+02  0.50374973766E+02  0.57383618319E+02  0.00000000000E+00 0.  1.
        -11    1    3    3    0    0 -0.29715236412E+02  0.85387551370E+01  0.31981577642E+00  0.30919377362E+02  0.00000000000E+00 0.  1.
         11    1    3    3    0    0 -0.40921411379E+02 -0.10691512211E+03  0.90318384073E+02  0.14581774840E+03  0.00000000000E+00 0. -1.
         21    1    1    2  503  502  0.81377054495E+01  0.26659659703E+02 -0.23280969391E+02  0.36317533524E+02  0.00000000000E+00 0. -1.
          4    1    1    2  501    0 -0.15178795128E+02  0.15638097108E+02 -0.44436114347E+01  0.22241663276E+02  0.00000000000E+00 0.  1.
<scales pt_clust_5="13000.00000" pt_clust_6="13000.00000" pt_clust_7="13000.00000" pt_clust_8="13000.00000" pt_clust_9="28.13862" pt_clust_10="21.79326"></scales>
<clustering>
<clus scale="   21.793">  1 10  2 -1</clus>
<clus scale="   28.139">  2  9  1 -1</clus>
<clus scale="   91.396">  7  8 -1 -1</clus>
<clus scale="   93.836">  5  6 -1 -1</clus>
<clus scale="  140.222">  2  7  1 -1</clus>
<clus scale="   21.793">  1  5  2 -1</clus>
</clustering>
</event>
<event>
10    2  0.2421970E-006  0.1045604E+03  0.7546771E-02  0.1271736E+00
          2   -1    0    0  503    0 -0.00000000000E+00  0.00000000000E+00  0.79496899779E+03  0.79496899779E+03  0.00000000000E+00 0. -1.
         21   -1    0    0  501  502  0.00000000000E+00 -0.00000000000E+00 -0.52043253980E+02  0.52043253980E+02  0.00000000000E+00 0. -1.
         23    2    1    2    0    0 -0.35668135323E+02 -0.31908224842E+02  0.21404043313E+03  0.23677459826E+03  0.89210720641E+02 0.  0.
         23    2    1    2    0    0 -0.34799366671E+02  0.88091528152E+02  0.12064879311E+03  0.17831639819E+03  0.90936754577E+02 0.  0.
        -11    1    3    3    0    0  0.27659257196E+02 -0.25357136609E+01  0.35515934443E+02  0.45087092962E+02  0.00000000000E+00 0. -1.
         11    1    3    3    0    0 -0.63327392519E+02 -0.29372511181E+02  0.17852449869E+03  0.19168750530E+03  0.00000000000E+00 0.  1.
        -13    1    4    4    0    0  0.26295866990E+02  0.33028487491E+02  0.69938185725E+02  0.81692737922E+02  0.00000000000E+00 0.  1.
         13    1    4    4    0    0 -0.61095233661E+02  0.55063040662E+02  0.50710607386E+02  0.96623660273E+02  0.00000000000E+00 0. -1.
         21    1    1    2  503  502 -0.22736032428E+02  0.23595942947E+01  0.14204583840E+03  0.14387326041E+03  0.00000000000E+00 0. -1.
          2    1    1    2  501    0  0.93203534422E+02 -0.58542897605E+02  0.26619067917E+03  0.28804799490E+03  0.00000000000E+00 0. -1.
<scales pt_clust_5="13000.00000" pt_clust_6="13000.00000" pt_clust_7="13000.00000" pt_clust_8="13000.00000" pt_clust_9="22.85815" pt_clust_10="101.43878"></scales>
<clustering>
<clus scale="   22.858">  1  9  2 -1</clus>
<clus scale="   89.211">  5  6 -1 -1</clus>
<clus scale="   90.937">  7  8 -1 -1</clus>
<clus scale="  101.439">  2 10  1 -1</clus>
<clus scale="  103.063">  1  5  2 -1</clus>
<clus scale="  101.439">  2  5  1 -1</clus>
</clustering>
</event>
<event>
10    2  0.2421970E-006  0.2091528E+03  0.7546771E-02  0.1142845E+00
          2   -1    0    0  503    0 -0.00000000000E+00  0.00000000000E+00  0.81185498205E+03  0.81185498205E+03  0.00000000000E+00 0. -1.
         21   -1    0    0  501  502  0.00000000000E+00 -0.00000000000E+00 -0.11644532909E+03  0.11644532909E+03  0.00000000000E+00 0.  1.
         23    2    1    2    0    0  0.18556826708E+03 -0.17709371433E+02  0.46163323873E+03  0.50603086457E+03  0.90624418445E+02 0.  0.
         23    2    1    2    0    0 -0.16687098478E+03  0.10298936589E+03  0.20725602830E+03  0.30145752141E+03  0.97307969355E+02 0.  0.
        -13    1    3    3    0    0  0.34071025355E+02 -0.36654764790E+01  0.21771652572E+02  0.40598957404E+02  0.00000000000E+00 0.  1.
         13    1    3    3    0    0  0.15149724172E+03 -0.14043894954E+02  0.43986158615E+03  0.46543190717E+03  0.00000000000E+00 0. -1.
        -13    1    4    4    0    0 -0.12571271047E+03  0.70379235083E+02  0.82314199198E+02  0.16592935152E+03  0.00000000000E+00 0.  1.
         13    1    4    4    0    0 -0.41158274307E+02  0.32610130809E+02  0.12494182910E+03  0.13552816989E+03  0.00000000000E+00 0. -1.
         21    1    1    2  503  502 -0.39389791849E+02 -0.74063850223E+02 -0.19029048321E+01  0.83908465953E+02  0.00000000000E+00 0.  1.
          2    1    1    2  501    0  0.20692509549E+02 -0.11216144236E+02  0.28423290768E+02  0.36903459201E+02  0.00000000000E+00 0. -1.
<scales pt_clust_5="13000.00000" pt_clust_6="13000.00000" pt_clust_7="13000.00000" pt_clust_8="13000.00000" pt_clust_9="84.43916" pt_clust_10="23.53683"></scales>
<clustering>
<clus scale="   23.537">  2 10  1 -1</clus>
<clus scale="   84.439">  2  9  1 -1</clus>
<clus scale="   90.624">  5  6 -1 -1</clus>
<clus scale="   97.308">  7  8 -1 -1</clus>
<clus scale="  206.128">  1  5  2 -1</clus>
<clus scale="   23.537">  2  5  1 -1</clus>
</clustering>
</event>
<event>
10    2  0.2421970E-006  0.9702202E+02  0.7546771E-02  0.1286760E+00
          1   -1    0    0  503    0 -0.00000000000E+00  0.00000000000E+00  0.26818477849E+03  0.26818477849E+03  0.00000000000E+00 0. -1.
         21   -1    0    0  501  502  0.00000000000E+00 -0.00000000000E+00 -0.85869470538E+02  0.85869470538E+02  0.00000000000E+00 0.  1.
         23    2    1    2    0    0  0.51511092637E+02  0.10201956082E+02  0.93135460792E+02  0.14053107701E+03  0.91199215878E+02 0.  0.
         23    2    1    2    0    0 -0.10696052747E+02  0.19840943341E+02  0.53562652968E+02  0.10826217028E+03  0.91343697886E+02 0.  0.
        -11    1    4    4    0    0  0.33772008067E+02  0.24246306564E+01 -0.32835730817E+01  0.34017777924E+02  0.00000000000E+00 0. -1.
         11    1    4    4    0    0 -0.44468060814E+02  0.17416312685E+02  0.56846226050E+02  0.74244392355E+02  0.00000000000E+00 0.  1.
        -13    1    3    3    0    0  0.59389989856E+02  0.28854948983E+02  0.99402988388E+02  0.11933454268E+03  0.00000000000E+00 0.  1.
         13    1    3    3    0    0 -0.78788972197E+01 -0.18652992901E+02 -0.62675275962E+01  0.21196534333E+02  0.00000000000E+00 0. -1.
         21    1    1    2  503  502  0.32864358949E+01  0.21386415147E+02  0.30396535499E+02  0.37311242060E+02  0.00000000000E+00 0. -1.
          1    1    1    2  501    0 -0.44101475784E+02 -0.51429314570E+02  0.52206586960E+01  0.67949759681E+02  0.00000000000E+00 0. -1.
<scales pt_clust_5="13000.00000" pt_clust_6="13000.00000" pt_clust_7="13000.00000" pt_clust_8="13000.00000" pt_clust_9="21.63745" pt_clust_10="64.90475"></scales>
<clustering>
<clus scale="   21.637">  1  9  2 -1</clus>
<clus scale="   64.905">  2 10  1 -1</clus>
<clus scale="   91.199">  7  8 -1 -1</clus>
<clus scale="   91.344">  5  6 -1 -1</clus>
<clus scale="   96.886">  1  7  2 -1</clus>
<clus scale="   64.905">  2  5  1 -1</clus>
</clustering>
</event>
<event>
10    2  0.2421970E-006  0.1410279E+03  0.7546771E-02  0.1212518E+00
          2   -1    0    0  503    0 -0.00000000000E+00  0.00000000000E+00  0.15163529436E+04  0.15163529436E+04  0.00000000000E+00 0. -1.
         21   -1    0    0  501  502  0.00000000000E+00 -0.00000000000E+00 -0.27651344428E+02  0.27651344428E+02  0.00000000000E+00 0. -1.
         23    2    1    2    0    0 -0.65581578873E+02  0.11927620828E+03  0.95689309256E+03  0.97084100630E+03  0.91433645765E+02 0.  0.
         23    2    1    2    0    0  0.60521684940E+01 -0.70449570624E+02  0.38746894003E+03  0.40492564232E+03  0.93983113257E+02 0.  0.
        -13    1    4    4    0    0  0.27637012342E+02 -0.86371732351E+02  0.29167652094E+03  0.30544897032E+03  0.00000000000E+00 0. -1.
         13    1    4    4    0    0 -0.21584843848E+02  0.15922161727E+02  0.95792419092E+02  0.99476672007E+02  0.00000000000E+00 0.  1.
        -13    1    3    3    0    0 -0.37232084266E+02 -0.38831858031E+01  0.20110427498E+03  0.20455863865E+03  0.00000000000E+00 0.  1.
         13    1    3    3    0    0 -0.28349494606E+02  0.12315939408E+03  0.75578881758E+03  0.76628236765E+03  0.00000000000E+00 0. -1.
         21    1    1    2  503  502  0.33447044496E+02 -0.19947708681E+02  0.10871519026E+03  0.11547990501E+03  0.00000000000E+00 0. -1.
          2    1    1    2  501    0  0.26082365883E+02 -0.28878928974E+02  0.35624376269E+02  0.52757734346E+02  0.00000000000E+00 0. -1.
<scales pt_clust_5="13000.00000" pt_clust_6="13000.00000" pt_clust_7="13000.00000" pt_clust_8="13000.00000" pt_clust_9="45.58062" pt_clust_10="38.91378"></scales>
<clustering>
<clus scale="   38.914">  2 10  1 -1</clus>
<clus scale="   45.581">  2  9  1 -1</clus>
<clus scale="   91.434">  7  8 -1 -1</clus>
<clus scale="   93.983">  5  6 -1 -1</clus>
<clus scale="  139.342">  1  7  2 -1</clus>
<clus scale="   38.914">  2  5  1 -1</clus>
</clustering>
</event>
<event>
10    2  0.2421970E-006  0.1298782E+03  0.7546771E-02  0.1227872E+00
         21   -1    0    0  501  502  0.00000000000E+00  0.00000000000E+00  0.95365120934E+02  0.95365120934E+02  0.00000000000E+00 0. -1.
          1   -1    0    0  503    0 -0.00000000000E+00 -0.00000000000E+00 -0.52500982052E+03  0.52500982052E+03  0.00000000000E+00 0. -1.
         23    2    1    2    0    0 -0.13740964074E+03  0.39086804787E+02 -0.19633281317E+03  0.25961965478E+03  0.91905407586E+02 0.  0.
         23    2    1    2    0    0  0.65589041274E+02 -0.44316330188E+01 -0.98205614699E+02  0.15025346557E+03  0.92791160415E+02 0.  0.
        -11    1    3    3    0    0 -0.11920951305E+03  0.62279997902E+02 -0.18338561756E+03  0.22742029564E+03  0.00000000000E+00 0. -1.
         11    1    3    3    0    0 -0.18200127689E+02 -0.23193193115E+02 -0.12947195606E+02  0.32199359137E+02  0.00000000000E+00 0.  1.
        -11    1    4    4    0    0  0.97450000058E+01  0.33010926517E+02 -0.41942409178E+01  0.34673879960E+02  0.00000000000E+00 0.  1.
         11    1    4    4    0    0  0.55844041268E+02 -0.37442559535E+02 -0.94011373781E+02  0.11557958561E+03  0.00000000000E+00 0. -1.
         21    1    1    2  503  502  0.92677032991E+02  0.33439570632E+01 -0.13887421143E+03  0.16699179948E+03  0.00000000000E+00 0.  1.
          1    1    1    2  501    0 -0.20856433528E+02 -0.37999128831E+02  0.37679397218E+01  0.43510021618E+02  0.00000000000E+00 0. -1.
<scales pt_clust_5="13000.00000" pt_clust_6="13000.00000" pt_clust_7="13000.00000" pt_clust_8="13000.00000" pt_clust_9="88.68405" pt_clust_10="43.34656"></scales>
<clustering>
<clus scale="   43.347">  1 10  2 -1</clus>
<clus scale="   88.684">  2  9  1 -1</clus>
<clus scale="   91.905">  5  6 -1 -1</clus>
<clus scale="   92.791">  7  8 -1 -1</clus>
<clus scale="  129.247">  2  5  1 -1</clus>
<clus scale="   43.347">  1  5  2 -1</clus>
</clustering>
</event>
<event>
10    2  0.2421970E-006  0.1472785E+03  0.7546771E-02  0.1216149E+00
          1   -1    0    0  502    0 -0.00000000000E+00  0.00000000000E+00  0.77494749291E+03  0.77494749291E+03  0.00000000000E+00 0. -1.
         21   -1    0    0  503  502  0.00000000000E+00 -0.00000000000E+00 -0.95031757700E+02  0.95031757700E+02  0.00000000000E+00 0. -1.
         23    2    1    2    0    0  0.53414810819E+02  0.40101242491E+02  0.45508723855E+03  0.46897393273E+03  0.91492640261E+02 0.  0.
         23    2    1    2    0    0 -0.11982946469E+03  0.51134854671E+02  0.23531835673E+03  0.28498290184E+03  0.94162897977E+02 0.  0.
        -11    1    3    3    0    0  0.23078047090E+02  0.68007609378E+02  0.30363654095E+03  0.31201407050E+03  0.00000000000E+00 0. -1.
         11    1    3    3    0    0  0.30336763728E+02 -0.27906366886E+02  0.15145069760E+03  0.15695986222E+03  0.00000000000E+00 0.  1.
        -13    1    4    4    0    0 -0.10381387685E+03 -0.26511997714E+01  0.13901560882E+03  0.17352143782E+03  0.00000000000E+00 0.  1.
         13    1    4    4    0    0 -0.16015587840E+02  0.53786054442E+02  0.96302747910E+02  0.11146146402E+03  0.00000000000E+00 0. -1.
         21    1    1    2  503  501  0.29719133612E+02 -0.45346250599E+02  0.71201477068E+01  0.54682774704E+02  0.00000000000E+00 0. -1.
          1    1    1    2  501    0  0.36695520259E+02 -0.45889846564E+02 -0.17610007786E+02  0.61339641334E+02  0.00000000000E+00 0. -1.
<scales pt_clust_5="13000.00000" pt_clust_6="13000.00000" pt_clust_7="13000.00000" pt_clust_8="13000.00000" pt_clust_9="23.84566" pt_clust_10="115.93331"></scales>
<clustering>
<clus scale="   23.846">  9 10 -1 -1</clus>
<clus scale="   91.493">  5  6 -1 -1</clus>
<clus scale="   94.163">  7  8 -1 -1</clus>
<clus scale="  113.279">  1  5  2 -1</clus>
<clus scale="  115.933">  2  9  1 -1</clus>
<clus scale="  115.933">  2  5  1 -1</clus>
</clustering>
</event>
<event>
10    2  0.2421970E-006  0.1484100E+03  0.7546771E-02  0.1204090E+00
          1   -1    0    0  503    0 -0.00000000000E+00  0.00000000000E+00  0.10915133513E+03  0.10915133513E+03  0.00000000000E+00 0. -1.
         21   -1    0    0  501  502  0.00000000000E+00 -0.00000000000E+00 -0.88604399741E+03  0.88604399741E+03  0.00000000000E+00 0. -1.
         23    2    1    2    0    0 -0.73817792852E+02  0.91360740443E+02  0.38634629861E+02  0.15720984447E+03  0.97089902352E+02 0.  0.
         23    2    1    2    0    0  0.57267880611E+02 -0.43817854864E+02 -0.47141043517E+03  0.48511719702E+03  0.88945387150E+02 0.  0.
        -13    1    3    3    0    0 -0.37023665477E+02  0.98397648454E+02  0.52187188867E+02  0.11737270427E+03  0.00000000000E+00 0. -1.
         13    1    3    3    0    0 -0.36794127376E+02 -0.70369080104E+01 -0.13552559006E+02  0.39837140200E+02  0.00000000000E+00 0.  1.
        -13    1    4    4    0    0  0.18799676157E+02 -0.65309892010E+02 -0.33289967443E+03  0.33976610050E+03  0.00000000000E+00 0.  1.
         13    1    4    4    0    0  0.38468204454E+02  0.21492037146E+02 -0.13851076075E+03  0.14535109651E+03  0.00000000000E+00 0. -1.
         21    1    1    2  503  502  0.24772549535E+02  0.25282168903E+01 -0.75486945179E+02  0.79488049313E+02  0.00000000000E+00 0.  1.
          1    1    1    2  501    0 -0.82226372936E+01 -0.50071102470E+02 -0.26862991179E+03  0.27338024174E+03  0.00000000000E+00 0. -1.
<scales pt_clust_5="13000.00000" pt_clust_6="13000.00000" pt_clust_7="13000.00000" pt_clust_8="13000.00000" pt_clust_9="24.90123" pt_clust_10="49.22378"></scales>
<clustering>
<clus scale="   24.901">  2  9  1 -1</clus>
<clus scale="   49.224">  2 10  1 -1</clus>
<clus scale="   88.945">  7  8 -1 -1</clus>
<clus scale="   97.090">  5  6 -1 -1</clus>
<clus scale="  143.214">  2  7  1 -1</clus>
<clus scale="   24.901">  2  5  1 -1</clus>
</clustering>
</event>
<event>
10    2  0.2421970E-006  0.1026344E+03  0.7546771E-02  0.1275870E+00
          2   -1    0    0  503    0 -0.00000000000E+00  0.00000000000E+00  0.32751551691E+03  0.32751551691E+03  0.00000000000E+00 0. -1.
         21   -1    0    0  501  502  0.00000000000E+00 -0.00000000000E+00 -0.17329051331E+03  0.17329051331E+03  0.00000000000E+00 0. -1.
         23    2    1    2    0    0 -0.16019865909E+02 -0.38394826625E+02  0.19159947482E+03  0.21824975422E+03  0.95873863242E+02 0.  0.
         23    2    1    2    0    0 -0.38192428422E+02  0.14761779438E+02  0.77648749958E+02  0.13153416427E+03  0.97955787373E+02 0.  0.
        -13    1    3    3    0    0  0.31917275374E+02  0.10115133821E+02  0.41047780349E+02  0.52971206057E+02  0.00000000000E+00 0.  1.
         13    1    3    3    0    0 -0.47937141283E+02 -0.48509960446E+02  0.15055169447E+03  0.16527854817E+03  0.00000000000E+00 0. -1.
        -13    1    4    4    0    0  0.22917842589E+02  0.22493202601E+02  0.59005042294E+02  0.67177129206E+02  0.00000000000E+00 0.  1.
         13    1    4    4    0    0 -0.61110271011E+02 -0.77314231627E+01  0.18643707664E+02  0.64357035067E+02  0.00000000000E+00 0. -1.
         21    1    1    2  503  502  0.24567554404E+02 -0.13054739473E+02 -0.12383430313E+01  0.27848239542E+02  0.00000000000E+00 0.  1.
          2    1    1    2  501    0  0.29644739927E+02  0.36687786661E+02 -0.11378487814E+03  0.12317387218E+03  0.00000000000E+00 0. -1.
<scales pt_clust_5="13000.00000" pt_clust_6="13000.00000" pt_clust_7="13000.00000" pt_clust_8="13000.00000" pt_clust_9="27.82069" pt_clust_10="55.02848"></scales>
<clustering>
<clus scale="   27.821">  2  9  1 -1</clus>
<clus scale="   55.028">  2 10  1 -1</clus>
<clus scale="   95.874">  5  6 -1 -1</clus>
<clus scale="   97.956">  7  8 -1 -1</clus>
<clus scale="  100.649">  1  5  2 -1</clus>
<clus scale="   27.821">  2  5  1 -1</clus>
</clustering>
</event>
<event>
10    2  0.2421970E-006  0.3707711E+03  0.7546771E-02  0.1054568E+00
         -3   -1    0    0    0  501 -0.00000000000E+00  0.00000000000E+00  0.11054175416E+03  0.11054175416E+03  0.00000000000E+00 0.  1.
         21   -1    0    0  503  502  0.00000000000E+00 -0.00000000000E+00 -0.16525370011E+04  0.16525370011E+04  0.00000000000E+00 0.  1.
         23    2    1    2    0    0 -0.36045011162E+03 -0.11090828004E+03 -0.44331548243E+03  0.59023521493E+03  0.98102305953E+02 0.  0.
         23    2    1    2    0    0  0.31156757961E+03  0.91197719944E+02 -0.83706703709E+03  0.90243334961E+03  0.91177547200E+02 0.  0.
        -11    1    4    4    0    0  0.18853212050E+03  0.10062240530E+03 -0.51990730074E+03  0.56211460600E+03  0.00000000000E+00 0.  1.
         11    1    4    4    0    0  0.12303545911E+03 -0.94246853601E+01 -0.31715973634E+03  0.34031874361E+03  0.00000000000E+00 0. -1.
        -13    1    3    3    0    0 -0.17585474837E+03 -0.77807383751E+02 -0.15840166580E+03  0.24913845392E+03  0.00000000000E+00 0. -1.
         13    1    3    3    0    0 -0.18459536325E+03 -0.33100896285E+02 -0.28491381663E+03  0.34109676102E+03  0.00000000000E+00 0.  1.
         21    1    1    2  503  501  0.11118769755E+02  0.25600072340E+02 -0.77509639155E+02  0.82381641805E+02  0.00000000000E+00 0.  1.
         -3    1    1    2    0  502  0.37763762258E+02 -0.58895122468E+01 -0.18410308825E+03  0.18802854889E+03  0.00000000000E+00 0.  1.
<scales pt_clust_5="13000.00000" pt_clust_6="13000.00000" pt_clust_7="13000.00000" pt_clust_8="13000.00000" pt_clust_9="27.91041" pt_clust_10="39.18387"></scales>
<clustering>
<clus scale="   27.910">  2  9  1 -1</clus>
<clus scale="   39.184">  2 10  1 -1</clus>
<clus scale="   91.178">  5  6 -1 -1</clus>
<clus scale="   98.102">  7  8 -1 -1</clus>
<clus scale="  368.999">  2  5  1 -1</clus>
<clus scale="   27.910">  2  5  1 -1</clus>
</clustering>
</event>
<event>
10    2  0.2421970E-006  0.1818802E+03  0.7546771E-02  0.1194215E+00
         21   -1    0    0  501  502  0.00000000000E+00  0.00000000000E+00  0.16141591743E+03  0.16141591743E+03  0.00000000000E+00 0. -1.
          1   -1    0    0  503    0 -0.00000000000E+00 -0.00000000000E+00 -0.62016946321E+03  0.62016946321E+03  0.00000000000E+00 0. -1.
         23    2    1    2    0    0 -0.76960011420E+01  0.18993324909E+02 -0.18050474133E+03  0.20445629831E+03  0.93810668111E+02 0.  0.
         23    2    1    2    0    0 -0.16433395908E+03 -0.13206739778E+02 -0.32535358762E+03  0.37573490005E+03  0.90231314158E+02 0.  0.
        -11    1    3    3    0    0 -0.45134644055E+02 -0.65672549103E+01 -0.12331295645E+03  0.13147756523E+03  0.00000000000E+00 0.  1.
         11    1    3    3    0    0  0.37438642913E+02  0.25560579819E+02 -0.57191784879E+02  0.72978733077E+02  0.00000000000E+00 0. -1.
        -13    1    4    4    0    0 -0.48156229052E+02  0.37499537936E+02 -0.11274078756E+03  0.12820188345E+03  0.00000000000E+00 0.  1.
         13    1    4    4    0    0 -0.11617773003E+03 -0.50706277715E+02 -0.21261280006E+03  0.24753301659E+03  0.00000000000E+00 0. -1.
         21    1    1    2  503  502  0.12246690408E+03 -0.41370612570E+02  0.53798316022E+02  0.14001403139E+03  0.00000000000E+00 0. -1.
          1    1    1    2  501    0  0.49563056149E+02  0.35584027440E+02 -0.66935328625E+01  0.61380150911E+02  0.00000000000E+00 0. -1.
<scales pt_clust_5="13000.00000" pt_clust_6="13000.00000" pt_clust_7="13000.00000" pt_clust_8="13000.00000" pt_clust_9="157.91992" pt_clust_10="61.01409"></scales>
<clustering>
<clus scale="   61.014">  1 10  2 -1</clus>
<clus scale="   90.231">  7  8 -1 -1</clus>
<clus scale="   93.811">  5  6 -1 -1</clus>
<clus scale="   96.451">  2  5  1 -1</clus>
<clus scale="  157.920">  1  9  2 -1</clus>
<clus scale="   61.014">  1  5  2 -1</clus>
</clustering>
</event>
<event>
10    2  0.2421970E-006  0.1336822E+03  0.7546771E-02  0.1222665E+00
         -3   -1    0    0    0  501 -0.00000000000E+00  0.00000000000E+00  0.11178071880E+03  0.11178071880E+03  0.00000000000E+00 0.  1.
         21   -1    0    0  503  502  0.00000000000E+00 -0.00000000000E+00 -0.67277572117E+03  0.67277572117E+03  0.00000000000E+00 0.  1.
         23    2    1    2    0    0 -0.12004498060E+03  0.51491612183E+02 -0.60260608430E+01  0.16111600588E+03  0.94126884843E+02 0.  0.
         23    2    1    2    0    0  0.54583868356E+02  0.36819042707E+02 -0.97400809512E+02  0.14919291371E+03  0.91850787788E+02 0.  0.
        -11    1    3    3    0    0 -0.65592082349E+02  0.76372340373E+02  0.21269330429E+01  0.10069547897E+03  0.00000000000E+00 0.  1.
         11    1    3    3    0    0 -0.54452898250E+02 -0.24880728190E+02 -0.81529938859E+01  0.60420526913E+02  0.00000000000E+00 0. -1.
        -11    1    4    4    0    0  0.11865178266E+02 -0.29968922202E+02 -0.17687579755E+02  0.36766414441E+02  0.00000000000E+00 0.  1.
         11    1    4    4    0    0  0.42718690089E+02  0.66787964909E+02 -0.79713229757E+02  0.11242649927E+03  0.00000000000E+00 0. -1.
         21    1    1    2  503  501  0.17750177429E+02 -0.55985283266E+02 -0.14557033059E+03  0.15697178692E+03  0.00000000000E+00 0.  1.
         -3    1    1    2    0  502  0.47710934815E+02 -0.32325371624E+02 -0.31199780142E+03  0.31727573346E+03  0.00000000000E+00 0.  1.
<scales pt_clust_5="13000.00000" pt_clust_6="13000.00000" pt_clust_7="13000.00000" pt_clust_8="13000.00000" pt_clust_9="79.28535" pt_clust_10="57.63040"></scales>
<clustering>
<clus scale="   57.630">  2 10  1 -1</clus>
<clus scale="   79.285">  2  9  1 -1</clus>
<clus scale="   91.851">  7  8 -1 -1</clus>
<clus scale="   94.127">  5  6 -1 -1</clus>
<clus scale="  132.089">  2  7  1 -1</clus>
<clus scale="   57.630">  2  5  1 -1</clus>
</clustering>
</event>
<event>
10    2  0.2421970E-006  0.9786206E+02  0.7546771E-02  0.1285052E+00
         21   -1    0    0  501  502  0.00000000000E+00  0.00000000000E+00  0.26621410797E+03  0.26621410797E+03  0.00000000000E+00 0. -1.
          1   -1    0    0  503    0 -0.00000000000E+00 -0.00000000000E+00 -0.25624585962E+03  0.25624585962E+03  0.00000000000E+00 0. -1.
         23    2    1    2    0    0  0.46415482812E+02  0.15232480376E+02 -0.17174445797E+03  0.20127438777E+03  0.92891306521E+02 0.  0.
         23    2    1    2    0    0  0.16226641757E+02  0.22575590110E+02 -0.12125731022E+02  0.97358044091E+02  0.92512670619E+02 0.  0.
        -11    1    4    4    0    0 -0.28909377874E+02 -0.17399415518E+02 -0.15155302784E+02  0.36988849562E+02  0.00000000000E+00 0.  1.
         11    1    4    4    0    0  0.45136019631E+02  0.39975005628E+02  0.30295717624E+01  0.60369194530E+02  0.00000000000E+00 0. -1.
        -13    1    3    3    0    0 -0.26083113706E+02 -0.10127339467E+02 -0.51013033879E+02  0.58182655927E+02  0.00000000000E+00 0.  1.
         13    1    3    3    0    0  0.72498596518E+02  0.25359819843E+02 -0.12073142409E+03  0.14309173184E+03  0.00000000000E+00 0. -1.
         21    1    1    2  503  502 -0.25804515864E+02 -0.22798737326E+01  0.28039287090E+01  0.26056340484E+02  0.00000000000E+00 0.  1.
          1    1    1    2  501    0 -0.36837608706E+02 -0.35528196754E+02  0.19103450863E+03  0.19777119524E+03  0.00000000000E+00 0. -1.
<scales pt_clust_5="13000.00000" pt_clust_6="13000.00000" pt_clust_7="13000.00000" pt_clust_8="13000.00000" pt_clust_9="25.90504" pt_clust_10="67.91376"></scales>
<clustering>
<clus scale="   25.905">  1  9  2 -1</clus>
<clus scale="   67.914">  1 10  2 -1</clus>
<clus scale="   92.513">  5  6 -1 -1</clus>
<clus scale="   92.891">  7  8 -1 -1</clus>
<clus scale="   97.503">  1  5  2 -1</clus>
<clus scale="   25.905">  1  5  2 -1</clus>
</clustering>
</event>
<event>
10    2  0.2421970E-006  0.2013181E+03  0.7546771E-02  0.1149165E+00
         21   -1    0    0  503  502  0.00000000000E+00  0.00000000000E+00  0.21209106602E+03  0.21209106602E+03  0.00000000000E+00 0. -1.
          2   -1    0    0  502    0 -0.00000000000E+00 -0.00000000000E+00 -0.39346091937E+03  0.39346091937E+03  0.00000000000E+00 0. -1.
         23    2    1    2    0    0 -0.13208230676E+03  0.70183644874E+02 -0.80310411854E+02  0.19032608476E+03  0.86039389351E+02 0.  0.
         23    2    1    2    0    0  0.13685502390E+03 -0.19919201264E+03 -0.95429571017E+02  0.27555467635E+03  0.91743234999E+02 0.  0.
        -11    1    3    3    0    0 -0.10230774655E+03  0.85804201283E+01 -0.60180542181E+02  0.11900502624E+03  0.00000000000E+00 0. -1.
         11    1    3    3    0    0 -0.29774560212E+02  0.61603224745E+02 -0.20129869672E+02  0.71321058516E+02  0.00000000000E+00 0.  1.
        -11    1    4    4    0    0  0.96242969018E+02 -0.86131973912E+02 -0.12888147405E+02  0.12979803681E+03  0.00000000000E+00 0. -1.
         11    1    4    4    0    0  0.40612054878E+02 -0.11306003873E+03 -0.82541423612E+02  0.14575663954E+03  0.00000000000E+00 0.  1.
         21    1    1    2  503  501  0.16747275066E+02  0.12480543685E+02  0.16372182444E+01  0.20950314470E+02  0.00000000000E+00 0. -1.
          2    1    1    2  501    0 -0.21519992202E+02  0.11652782408E+03 -0.72670887262E+01  0.11872090982E+03  0.00000000000E+00 0. -1.
<scales pt_clust_5="13000.00000" pt_clust_6="13000.00000" pt_clust_7="13000.00000" pt_clust_8="13000.00000" pt_clust_9="20.88624" pt_clust_10="121.17193"></scales>
<clustering>
<clus scale="   20.886">  1  9  2 -1</clus>
<clus scale="   86.039">  5  6 -1 -1</clus>
<clus scale="   91.743">  7  8 -1 -1</clus>
<clus scale="  121.172">  1 10  2 -1</clus>
<clus scale="  198.784">  2  5  1 -1</clus>
<clus scale="   20.886">  1  5  2 -1</clus>
</clustering>
</event>
<event>
10    2  0.2421970E-006  0.1138632E+03  0.7546771E-02  0.1254058E+00
          1   -1    0    0  503    0 -0.00000000000E+00  0.00000000000E+00  0.50505191924E+03  0.50505191924E+03  0.00000000000E+00 0. -1.
         21   -1    0    0  501  502  0.00000000000E+00 -0.00000000000E+00 -0.84432721613E+02  0.84432721613E+02  0.00000000000E+00 0.  1.
         23    2    1    2    0    0  0.20093443415E+02 -0.22074957985E+02  0.12736337669E+03  0.15923876057E+03  0.90799245087E+02 0.  0.
         23    2    1    2    0    0 -0.10822505077E+03  0.36015237159E+02  0.26725069321E+03  0.30483068150E+03  0.92136053963E+02 0.  0.
        -11    1    4    4    0    0 -0.55174176088E+02  0.48878496267E+02  0.75721479560E+02  0.10567421431E+03  0.00000000000E+00 0.  1.
         11    1    4    4    0    0 -0.53050874678E+02 -0.12863259107E+02  0.19152921365E+03  0.19915646719E+03  0.00000000000E+00 0. -1.
        -11    1    3    3    0    0 -0.29281486478E+02  0.14028816514E+02  0.60192279921E+02  0.68390962161E+02  0.00000000000E+00 0.  1.
         11    1    3    3    0    0  0.49374929894E+02 -0.36103774499E+02  0.67171096771E+02  0.90847798413E+02  0.00000000000E+00 0. -1.
         21    1    1    2  503  502  0.60194485211E+02 -0.38630195094E+02  0.44043608581E+02  0.83997068280E+02  0.00000000000E+00 0.  1.
          1    1    1    2  501    0  0.27937122140E+02  0.24689915920E+02 -0.18038480866E+02  0.41418130493E+02  0.00000000000E+00 0. -1.
<scales pt_clust_5="13000.00000" pt_clust_6="13000.00000" pt_clust_7="13000.00000" pt_clust_8="13000.00000" pt_clust_9="76.37179" pt_clust_10="37.28371"></scales>
<clustering>
<clus scale="   37.284">  2 10  1 -1</clus>
<clus scale="   76.372">  2  9  1 -1</clus>
<clus scale="   90.799">  7  8 -1 -1</clus>
<clus scale="   92.136">  5  6 -1 -1</clus>
<clus scale="  112.784">  1  7  2 -1</clus>
<clus scale="   37.284">  2  5  1 -1</clus>
</clustering>
</event>
<event>
10    2  0.2421970E-006  0.4095642E+03  0.7546771E-02  0.1086189E+00
          1   -1    0    0  502    0 -0.00000000000E+00  0.00000000000E+00  0.64265052603E+03  0.64265052603E+03  0.00000000000E+00 0. -1.
         21   -1    0    0  503  502  0.00000000000E+00 -0.00000000000E+00 -0.34697881049E+03  0.34697881049E+03  0.00000000000E+00 0. -1.
         23    2    1    2    0    0  0.66841443364E+02  0.18223283701E+02  0.79123386058E+02  0.13955690194E+03  0.91737408058E+02 0.  0.
         23    2    1    2    0    0  0.28169436310E+03 -0.25291167753E+03  0.15712021088E+03  0.41912284249E+03  0.87528084619E+02 0.  0.
        -11    1    3    3    0    0  0.88780329728E+02  0.46136590481E+01  0.65005932448E+02  0.11013175768E+03  0.00000000000E+00 0.  1.
         11    1    3    3    0    0 -0.21938886364E+02  0.13609624653E+02  0.14117453609E+02  0.29425144256E+02  0.00000000000E+00 0. -1.
        -13    1    4    4    0    0  0.23396659893E+03 -0.23364996697E+03  0.16048827590E+03  0.36754477711E+03  0.00000000000E+00 0. -1.
         13    1    4    4    0    0  0.47727764169E+02 -0.19261710559E+02 -0.33680650202E+01  0.51578065379E+02  0.00000000000E+00 0.  1.
         21    1    1    2  503  501 -0.26353702616E+03  0.16250588821E+03  0.74427065828E+02  0.31843259254E+03  0.00000000000E+00 0. -1.
          1    1    1    2  501    0 -0.84998780303E+02  0.72182505613E+02 -0.14998947226E+02  0.11251699955E+03  0.00000000000E+00 0. -1.
<scales pt_clust_5="13000.00000" pt_clust_6="13000.00000" pt_clust_7="13000.00000" pt_clust_8="13000.00000" pt_clust_9="45.03055" pt_clust_10="407.07701"></scales>
<clustering>
<clus scale="   45.031">  9 10 -1 -1</clus>
<clus scale="   87.528">  7  8 -1 -1</clus>
<clus scale="   91.737">  5  6 -1 -1</clus>
<clus scale="  114.959">  1  5  2 -1</clus>
<clus scale="  407.077">  2  9  1 -1</clus>
<clus scale="  407.077">  2  5  1 -1</clus>
</clustering>
</event>
<event>
10    2  0.2421970E-006  0.1589904E+03  0.7546771E-02  0.1189985E+00
         21   -1    0    0  503  502  0.00000000000E+00  0.00000000000E+00  0.11453936713E+03  0.11453936713E+03  0.00000000000E+00 0. -1.
          1   -1    0    0  502    0 -0.00000000000E+00 -0.00000000000E+00 -0.67436232739E+03  0.67436232739E+03  0.00000000000E+00 0. -1.
         23    2    1    2    0    0  0.10188786638E+03  0.76760332452E+02 -0.51011248666E+03  0.53375975427E+03  0.91713904471E+02 0.  0.
         23    2    1    2    0    0 -0.75564709569E+02 -0.13518853128E+03 -0.40856439311E+02  0.18413823684E+03  0.90838743460E+02 0.  0.
        -11    1    4    4    0    0 -0.52558362095E+02 -0.26246581066E+02  0.13432539245E+02  0.60263567388E+02  0.00000000000E+00 0.  1.
         11    1    4    4    0    0 -0.23006347474E+02 -0.10894195021E+03 -0.54288978556E+02  0.12387466946E+03  0.00000000000E+00 0. -1.
        -11    1    3    3    0    0  0.20876089052E+02 -0.52024264599E+01 -0.17171600147E+02  0.27527080971E+02  0.00000000000E+00 0.  1.
         11    1    3    3    0    0  0.81011777324E+02  0.81962758912E+02 -0.49294088652E+03  0.50623267330E+03  0.00000000000E+00 0. -1.
         21    1    1    2  503  501 -0.40562787165E+01  0.40719112583E+02  0.89174046635E+00  0.40930364373E+02  0.00000000000E+00 0. -1.
          1    1    1    2  501    0 -0.22266878090E+02  0.17709086243E+02 -0.97457747550E+01  0.30073339040E+02  0.00000000000E+00 0. -1.
<scales pt_clust_5="13000.00000" pt_clust_6="13000.00000" pt_clust_7="13000.00000" pt_clust_8="13000.00000" pt_clust_9="24.40076" pt_clust_10="70.44950"></scales>
<clustering>
<clus scale="   24.401">  9 10 -1 -1</clus>
<clus scale="   70.449">  1  9  2 -1</clus>
<clus scale="   90.839">  5  6 -1 -1</clus>
<clus scale="   91.714">  7  8 -1 -1</clus>
<clus scale="  158.487">  1  5  2 -1</clus>
<clus scale="   70.449">  1  5  2 -1</clus>
</clustering>
</event>
<event>
10    2  0.2421970E-006  0.1441224E+03  0.7546771E-02  0.1207985E+00
         21   -1    0    0  501  502  0.00000000000E+00  0.00000000000E+00  0.72819369307E+02  0.72819369307E+02  0.00000000000E+00 0.  1.
          3   -1    0    0  503    0 -0.00000000000E+00 -0.00000000000E+00 -0.79333521909E+03  0.79333521909E+03  0.00000000000E+00 0. -1.
         23    2    1    2    0    0 -0.36265333945E+01  0.93567241259E+02 -0.31263951432E+03  0.33938471297E+03  0.93115718907E+02 0.  0.
         23    2    1    2    0    0 -0.51150548355E+02 -0.13132316645E+03 -0.75292065427E+02  0.18517138474E+03  0.93580948724E+02 0.  0.
        -11    1    4    4    0    0 -0.59698722065E+02 -0.45466613073E+02 -0.63077162037E+02  0.98029988734E+02  0.00000000000E+00 0. -1.
         11    1    4    4    0    0  0.85481737102E+01 -0.85856553381E+02 -0.12214903390E+02  0.87141396002E+02  0.00000000000E+00 0.  1.
        -11    1    3    3    0    0  0.38892612578E+02  0.13882110868E+02 -0.11132882219E+03  0.11874112583E+03  0.00000000000E+00 0.  1.
         11    1    3    3    0    0 -0.42519145973E+02  0.79685130391E+02 -0.20131069213E+03  0.22064358714E+03  0.00000000000E+00 0. -1.
         21    1    1    2  503  502  0.13452885004E+02  0.21458016088E+02 -0.55883796206E+02  0.61354912173E+02  0.00000000000E+00 0.  1.
          3    1    1    2  501    0  0.41324196746E+02  0.16297909108E+02 -0.27670047384E+03  0.28024357852E+03  0.00000000000E+00 0. -1.
<scales pt_clust_5="13000.00000" pt_clust_6="13000.00000" pt_clust_7="13000.00000" pt_clust_8="13000.00000" pt_clust_9="25.32640" pt_clust_10="52.45930"></scales>
<clustering>
<clus scale="   25.326">  2  9  1 -1</clus>
<clus scale="   52.459">  1 10  2 -1</clus>
<clus scale="   93.116">  7  8 -1 -1</clus>
<clus scale="   93.581">  5  6 -1 -1</clus>
<clus scale="  143.821">  2  7  1 -1</clus>
<clus scale="   52.459">  1  5  2 -1</clus>
</clustering>
</event>
<event>
10    2  0.2421970E-006  0.1843784E+03  0.7546771E-02  0.1164122E+00
          1   -1    0    0  503    0 -0.00000000000E+00  0.00000000000E+00  0.40652257201E+03  0.40652257201E+03  0.00000000000E+00 0. -1.
         21   -1    0    0  501  502  0.00000000000E+00 -0.00000000000E+00 -0.31036232564E+03  0.31036232564E+03  0.00000000000E+00 0. -1.
         23    2    1    2    0    0 -0.14503735772E+03  0.28402245519E+02  0.15944244769E+03  0.23740902540E+03  0.95386731416E+02 0.  0.
         23    2    1    2    0    0  0.17617926936E+03  0.64226631795E+02  0.12906922691E+03  0.24527286266E+03  0.91300145876E+02 0.  0.
        -11    1    3    3    0    0 -0.38801901358E+02  0.21962777611E+01 -0.57269227298E+01  0.39283696732E+02  0.00000000000E+00 0.  1.
         11    1    3    3    0    0 -0.10623545636E+03  0.26205967757E+02  0.16516937042E+03  0.19812532866E+03  0.00000000000E+00 0. -1.
        -13    1    4    4    0    0  0.74163620066E+02 -0.14331786601E+02  0.24525636986E+02  0.79417564292E+02  0.00000000000E+00 0. -1.
         13    1    4    4    0    0  0.10201564930E+03  0.78558418396E+02  0.10454358992E+03  0.16585529837E+03  0.00000000000E+00 0.  1.
         21    1    1    2  503  502 -0.26548534201E+02 -0.12297808709E+02 -0.41866004020E+01  0.29556528724E+02  0.00000000000E+00 0.  1.
          1    1    1    2  501    0 -0.45933774415E+01 -0.80331068604E+02 -0.18816482783E+03  0.20464648087E+03  0.00000000000E+00 0. -1.
<scales pt_clust_5="13000.00000" pt_clust_6="13000.00000" pt_clust_7="13000.00000" pt_clust_8="13000.00000" pt_clust_9="29.25852" pt_clust_10="91.33992"></scales>
<clustering>
<clus scale="   29.259">  2  9  1 -1</clus>
<clus scale="   91.300">  7  8 -1 -1</clus>
<clus scale="   91.340">  2 10  1 -1</clus>
<clus scale="   95.387">  5  6 -1 -1</clus>
<clus scale="  182.298">  2  7  1 -1</clus>
<clus scale="   29.259">  2  5  1 -1</clus>
</clustering>
</event>
<event>
10    2  0.2421970E-006  0.2993280E+03  0.7546771E-02  0.1118517E+00
         21   -1    0    0  503  502  0.00000000000E+00  0.00000000000E+00  0.11380830491E+04  0.11380830491E+04  0.00000000000E+00 0. -1.
          2   -1    0    0  502    0 -0.00000000000E+00 -0.00000000000E+00 -0.33208757021E+03  0.33208757021E+03  0.00000000000E+00 0. -1.
         23    2    1    2    0    0 -0.40555501973E+02  0.79267326059E+02  0.33269443276E+03  0.35637056496E+03  0.91576941771E+02 0.  0.
         23    2    1    2    0    0  0.93321125080E+02 -0.35123129921E+03 -0.16999122829E+03  0.41156956443E+03  0.91761815251E+02 0.  0.
        -11    1    3    3    0    0 -0.15829502872E+02  0.95945945105E+02  0.23833633904E+03  0.25741097112E+03  0.00000000000E+00 0.  1.
         11    1    3    3    0    0 -0.24725999101E+02 -0.16678619046E+02  0.94358093714E+02  0.98959593846E+02  0.00000000000E+00 0. -1.
        -11    1    4    4    0    0 -0.52585543366E+01 -0.15470756103E+03 -0.64256196605E+02  0.16760352214E+03  0.00000000000E+00 0.  1.
         11    1    4    4    0    0  0.98579679417E+02 -0.19652373818E+03 -0.10573503169E+03  0.24396604228E+03  0.00000000000E+00 0. -1.
         21    1    1    2  503  501 -0.35377837975E+02  0.14210598699E+03  0.39895109905E+03  0.42497962585E+03  0.00000000000E+00 0. -1.
          2    1    1    2  501    0 -0.17387785132E+02  0.12985798615E+03  0.24434117537E+03  0.27725086406E+03  0.00000000000E+00 0. -1.
<scales pt_clust_5="13000.00000" pt_clust_6="13000.00000" pt_clust_7="13000.00000" pt_clust_8="13000.00000" pt_clust_9="47.80214" pt_clust_10="289.36335"></scales>
<clustering>
<clus scale="   47.802">  9 10 -1 -1</clus>
<clus scale="   91.577">  5  6 -1 -1</clus>
<clus scale="   91.762">  7  8 -1 -1</clus>
<clus scale="  127.728">  2  5  1 -1</clus>
<clus scale="  289.363">  1  9  2 -1</clus>
<clus scale="  289.363">  1  5  2 -1</clus>
</clustering>
</event>
<event>
10    2  0.2421970E-006  0.2518134E+03  0.7546771E-02  0.1112248E+00
          1   -1    0    0  503    0 -0.00000000000E+00  0.00000000000E+00  0.12211195766E+04  0.12211195766E+04  0.00000000000E+00 0. -1.
         21   -1    0    0  501  502  0.00000000000E+00 -0.00000000000E+00 -0.89269671405E+02  0.89269671405E+02  0.00000000000E+00 0. -1.
         23    2    1    2    0    0  0.24372409460E+03  0.51528794121E+02  0.70869407025E+03  0.75666028138E+03  0.90724006217E+02 0.  0.
         23    2    1    2    0    0 -0.21750717770E+03  0.48199199839E+00  0.40371873808E+03  0.46775829232E+03  0.92192168298E+02 0.  0.
        -11    1    3    3    0    0  0.50882014553E+02 -0.11734942042E+02  0.24488456678E+03  0.25038997447E+03  0.00000000000E+00 0.  1.
         11    1    3    3    0    0  0.19284208005E+03  0.63263736163E+02  0.46380950347E+03  0.50627030691E+03  0.00000000000E+00 0. -1.
        -13    1    4    4    0    0 -0.32729643377E+02 -0.35166748097E+02  0.84125236334E+02  0.96876132848E+02  0.00000000000E+00 0. -1.
         13    1    4    4    0    0 -0.18477753432E+03  0.35648740095E+02  0.31959350174E+03  0.37088215948E+03  0.00000000000E+00 0.  1.
         21    1    1    2  503  502  0.16097324602E+02 -0.24305100649E+02  0.20063130539E+02  0.35389136525E+02  0.00000000000E+00 0. -1.
          1    1    1    2  501    0 -0.42314241501E+02 -0.27705685470E+02 -0.62603371280E+00  0.50581537732E+02  0.00000000000E+00 0. -1.
<scales pt_clust_5="13000.00000" pt_clust_6="13000.00000" pt_clust_7="13000.00000" pt_clust_8="13000.00000" pt_clust_9="29.15239" pt_clust_10="51.35066"></scales>
<clustering>
<clus scale="   29.152">  2  9  1 -1</clus>
<clus scale="   51.351">  2 10  1 -1</clus>
<clus scale="   90.724">  5  6 -1 -1</clus>
<clus scale="   92.192">  7  8 -1 -1</clus>
<clus scale="  251.280">  1  5  2 -1</clus>
<clus scale="   29.152">  2  5  1 -1</clus>
</clustering>
</event>
<event>
10    2  0.2421970E-006  0.9802797E+02  0.7546771E-02  0.1284599E+00
         21   -1    0    0  501  502  0.00000000000E+00  0.00000000000E+00  0.50224017560E+03  0.50224017560E+03  0.00000000000E+00 0.  1.
         -3   -1    0    0    0  501 -0.00000000000E+00 -0.00000000000E+00 -0.13955828830E+03  0.13955828830E+03  0.00000000000E+00 0.  1.
         23    2    1    2    0    0 -0.17870091371E+02 -0.42821503069E+02 -0.54575492843E+02  0.11719367751E+03  0.92751562464E+02 0.  0.
         23    2    1    2    0    0 -0.54176107548E+01  0.12532187513E+02 -0.12534863476E+01  0.93563990877E+02  0.92554000079E+02 0.  0.
        -13    1    3    3    0    0 -0.44347582277E+02 -0.56254993366E+02 -0.49500898023E+02  0.87072792751E+02  0.00000000000E+00 0.  1.
         13    1    3    3    0    0  0.26477490907E+02  0.13433490297E+02 -0.50745948199E+01  0.30120884762E+02  0.00000000000E+00 0. -1.
        -13    1    4    4    0    0 -0.36689761296E+02  0.27479890254E+02  0.22974437465E+02  0.51274825491E+02  0.00000000000E+00 0.  1.
         13    1    4    4    0    0  0.31272150541E+02 -0.14947702741E+02 -0.24227923812E+02  0.42289165385E+02  0.00000000000E+00 0. -1.
         21    1    1    2  503  502  0.48346593424E+02 -0.14454360864E+02  0.24336464226E+03  0.24854108462E+03  0.00000000000E+00 0.  1.
         -3    1    1    2    0  503 -0.25058891299E+02  0.44743676420E+02  0.17514622422E+03  0.18249971088E+03  0.00000000000E+00 0.  1.
<scales pt_clust_5="13000.00000" pt_clust_6="13000.00000" pt_clust_7="13000.00000" pt_clust_8="13000.00000" pt_clust_9="50.46109" pt_clust_10="35.72734"></scales>
<clustering>
<clus scale="   50.461">  1  9  2 -1</clus>
<clus scale="   35.727">  1 10  2 -1</clus>
<clus scale="   92.554">  7  8 -1 -1</clus>
<clus scale="   92.752">  5  6 -1 -1</clus>
<clus scale="   97.841">  1  7  2 -1</clus>
<clus scale="   50.461">  1  5  2 -1</clus>
</clustering>
</event>
<event>
10    2  0.2421970E-006  0.1342860E+03  0.7546771E-02  0.1231270E+00
         -1   -1    0    0    0  501 -0.00000000000E+00  0.00000000000E+00  0.33358928800E+02  0.33358928800E+02  0.00000000000E+00 0.  1.
         21   -1    0    0  501  502  0.00000000000E+00 -0.00000000000E+00 -0.11246287488E+04  0.11246287488E+04  0.00000000000E+00 0.  1.
         23    2    1    2    0    0 -0.42191465533E+02 -0.42119106331E+02 -0.32634829159E+03  0.34407123692E+03  0.91256067017E+02 0.  0.
         23    2    1    2    0    0 -0.71756122225E+02  0.57521371225E+02 -0.18502588899E+03  0.22208035224E+03  0.81409176570E+02 0.  0.
        -11    1    4    4    0    0 -0.29594725385E+02  0.33913324738E+02 -0.18463535270E+02  0.48650421376E+02  0.00000000000E+00 0.  1.
         11    1    4    4    0    0 -0.42161396840E+02  0.23608046488E+02 -0.16656235372E+03  0.17342993086E+03  0.00000000000E+00 0. -1.
        -11    1    3    3    0    0  0.83962167020E+01 -0.50256215215E+02 -0.10290707159E+03  0.11483052297E+03  0.00000000000E+00 0. -1.
         11    1    3    3    0    0 -0.50587682235E+02  0.81371088842E+01 -0.22344122000E+03  0.22924071395E+03  0.00000000000E+00 0.  1.
         21    1    1    2  503  502  0.71312080243E+02 -0.32757662156E+01 -0.29511947537E+03  0.30363077607E+03  0.00000000000E+00 0.  1.
         -1    1    1    2    0  503  0.42635507515E+02 -0.12126498679E+02 -0.28477616407E+03  0.28820531239E+03  0.00000000000E+00 0.  1.
<scales pt_clust_5="13000.00000" pt_clust_6="13000.00000" pt_clust_7="13000.00000" pt_clust_8="13000.00000" pt_clust_9="21.86190" pt_clust_10="110.34033"></scales>
<clustering>
<clus scale="   21.862">  9 10 -1 -1</clus>
<clus scale="   81.409">  5  6 -1 -1</clus>
<clus scale="   91.256">  7  8 -1 -1</clus>
<clus scale="  109.004">  1  7  2 -1</clus>
<clus scale="  110.340">  2  9  1 -1</clus>
<clus scale="  110.340">  2  5  1 -1</clus>
</clustering>
</event>
<event>
10    2  0.2421970E-006  0.2593238E+03  0.7546771E-02  0.1149495E+00
         21   -1    0    0  501  502  0.00000000000E+00  0.00000000000E+00  0.84484594018E+02  0.84484594018E+02  0.00000000000E+00 0. -1.
         -1   -1    0    0    0  501 -0.00000000000E+00 -0.00000000000E+00 -0.11546525622E+04  0.11546525622E+04  0.00000000000E+00 0.  1.
         23    2    1    2    0    0  0.65208599889E+01 -0.14125865652E+02 -0.16443435729E+03  0.18855849955E+03  0.90959266708E+02 0.  0.
         23    2    1    2    0    0  0.15094356490E+03 -0.17266064889E+03 -0.64431978298E+03  0.69109368169E+03  0.99331941856E+02 0.  0.
        -11    1    3    3    0    0  0.47348165054E+02 -0.14505285008E+02 -0.70697874799E+02  0.86315940175E+02  0.00000000000E+00 0. -1.
         11    1    3    3    0    0 -0.40827305065E+02  0.37941935619E+00 -0.93736482491E+02  0.10224255938E+03  0.00000000000E+00 0.  1.
        -13    1    4    4    0    0  0.62664921809E+02 -0.31595814581E+02 -0.30751144886E+03  0.31541794354E+03  0.00000000000E+00 0.  1.
         13    1    4    4    0    0  0.88278643094E+02 -0.14106483431E+03 -0.33680833412E+03  0.37567573815E+03  0.00000000000E+00 0. -1.
         21    1    1    2  503  502 -0.37447720217E+02  0.57068998015E+02 -0.54296019361E+02  0.87219607901E+02  0.00000000000E+00 0. -1.
         -1    1    1    2    0  503 -0.12001670467E+03  0.12971751653E+03 -0.20711780860E+03  0.27226536712E+03  0.00000000000E+00 0.  1.
<scales pt_clust_5="13000.00000" pt_clust_6="13000.00000" pt_clust_7="13000.00000" pt_clust_8="13000.00000" pt_clust_9="21.60071" pt_clust_10="242.05376"></scales>
<clustering>
<clus scale="   21.601">  9 10 -1 -1</clus>
<clus scale="   90.959">  5  6 -1 -1</clus>
<clus scale="   92.280">  2  5  1 -1</clus>
<clus scale="   99.332">  7  8 -1 -1</clus>
<clus scale="  242.054">  1  9  2 -1</clus>
<clus scale="  242.054">  1  5  2 -1</clus>
</clustering>
</event>
<event>
10    2  0.2421970E-006  0.9811501E+02  0.7546771E-02  0.1285238E+00
         21   -1    0    0  501  502  0.00000000000E+00  0.00000000000E+00  0.13710792802E+03  0.13710792802E+03  0.00000000000E+00 0.  1.
          3   -1    0    0  503    0 -0.00000000000E+00 -0.00000000000E+00 -0.15929722829E+03  0.15929722829E+03  0.00000000000E+00 0. -1.
         23    2    1    2    0    0 -0.14193398961E+02 -0.35687187168E+02 -0.92716991881E+02  0.13616305292E+03  0.92026672742E+02 0.  0.
         23    2    1    2    0    0  0.20390520058E+02  0.14573607581E+02  0.24500970210E+02  0.96778246043E+02  0.90208469778E+02 0.  0.
        -11    1    3    3    0    0  0.28772825648E+02 -0.40100309651E+02 -0.74321654078E+02  0.89216694597E+02  0.00000000000E+00 0. -1.
         11    1    3    3    0    0 -0.42966224610E+02  0.44131224827E+01 -0.18395337803E+02  0.46946358327E+02  0.00000000000E+00 0.  1.
        -13    1    4    4    0    0  0.42279712784E+02 -0.18031739794E+01 -0.18208249435E+02  0.46069142569E+02  0.00000000000E+00 0. -1.
         13    1    4    4    0    0 -0.21889192726E+02  0.16376781560E+02  0.42709219645E+02  0.50709103474E+02  0.00000000000E+00 0.  1.
         21    1    1    2  503  502 -0.20714852181E+02  0.39852954203E+01  0.24895923747E+02  0.32631192127E+02  0.00000000000E+00 0.  1.
          3    1    1    2  501    0  0.14517731084E+02  0.17128284167E+02  0.21130797655E+02  0.30832665209E+02  0.00000000000E+00 0. -1.
<scales pt_clust_5="13000.00000" pt_clust_6="13000.00000" pt_clust_7="13000.00000" pt_clust_8="13000.00000" pt_clust_9="21.09473" pt_clust_10="20.45082"></scales>
<clustering>
<clus scale="   21.095">  1  9  2 -1</clus>
<clus scale="   20.451">  1 10  2 -1</clus>
<clus scale="   90.208">  7  8 -1 -1</clus>
<clus scale="   92.027">  5  6 -1 -1</clus>
<clus scale="   96.412">  1  7  2 -1</clus>
<clus scale="   21.095">  1  5  2 -1</clus>
</clustering>
</event>
<event>
10    2  0.2421970E-006  0.3313364E+03  0.7546771E-02  0.1103438E+00
         21   -1    0    0  501  502  0.00000000000E+00  0.00000000000E+00  0.14905266465E+04  0.14905266465E+04  0.00000000000E+00 0.  1.
         -1   -1    0    0    0  501 -0.00000000000E+00 -0.00000000000E+00 -0.32450052789E+03  0.32450052789E+03  0.00000000000E+00 0.  1.
         23    2    1    2    0    0 -0.75238604960E+01 -0.10544446109E+03 -0.15342463126E+03  0.20647325717E+03  0.88977219544E+02 0.  0.
         23    2    1    2    0    0 -0.17123526799E+03  0.35236908700E+03  0.20584416682E+03  0.45314494738E+03  0.97380859768E+02 0.  0.
        -11    1    3    3    0    0  0.40507817533E+02 -0.41759113391E+02 -0.58886548014E+02  0.82778815947E+02  0.00000000000E+00 0. -1.
         11    1    3    3    0    0 -0.48031678029E+02 -0.63685347700E+02 -0.94538083241E+02  0.12369444122E+03  0.00000000000E+00 0.  1.
        -11    1    4    4    0    0 -0.14964242499E+03  0.22354935884E+03  0.16798023762E+03  0.31715064469E+03  0.00000000000E+00 0.  1.
         11    1    4    4    0    0 -0.21592843001E+02  0.12881972816E+03  0.37863929203E+02  0.13599430270E+03  0.00000000000E+00 0. -1.
         21    1    1    2  503  502  0.14858266398E+03 -0.20365589644E+03  0.85092794507E+03  0.88748571813E+03  0.00000000000E+00 0.  1.
         -1    1    1    2    0  503  0.30176464506E+02 -0.43268729474E+02  0.26267863800E+03  0.26792325174E+03  0.00000000000E+00 0.  1.
<scales pt_clust_5="13000.00000" pt_clust_6="13000.00000" pt_clust_7="13000.00000" pt_clust_8="13000.00000" pt_clust_9="20.06331" pt_clust_10="319.72561"></scales>
<clustering>
<clus scale="   20.063">  9 10 -1 -1</clus>
<clus scale="   88.977">  5  6 -1 -1</clus>
<clus scale="   97.381">  7  8 -1 -1</clus>
<clus scale="  138.174">  2  5  1 -1</clus>
<clus scale="  319.726">  1  9  2 -1</clus>
<clus scale="  319.726">  1  5  2 -1</clus>
</clustering>
</event>
<event>
10    2  0.2421970E-006  0.1852084E+03  0.7546771E-02  0.1163047E+00
         21   -1    0    0  501  502  0.00000000000E+00  0.00000000000E+00  0.24692201431E+03  0.24692201431E+03  0.00000000000E+00 0. -1.
          1   -1    0    0  503    0 -0.00000000000E+00 -0.00000000000E+00 -0.38190443478E+03  0.38190443478E+03  0.00000000000E+00 0. -1.
         23    2    1    2    0    0 -0.18769497973E+03 -0.95877051857E+00 -0.25985005554E+03  0.33358613035E+03  0.92343545207E+02 0.  0.
         23    2    1    2    0    0  0.88235795531E+02 -0.44882733095E+02  0.49186829742E+02  0.14298130117E+03  0.90687887402E+02 0.  0.
        -11    1    3    3    0    0 -0.86485682805E+02 -0.70458570567E+01 -0.19444747248E+03  0.21293012230E+03  0.00000000000E+00 0.  1.
         11    1    3    3    0    0 -0.10120929692E+03  0.60870865381E+01 -0.65402583068E+02  0.12065600805E+03  0.00000000000E+00 0. -1.
        -11    1    4    4    0    0  0.31775600756E+02  0.26837304094E+02  0.60703931870E+01  0.42033074690E+02  0.00000000000E+00 0.  1.
         11    1    4    4    0    0  0.56460194775E+02 -0.71720037189E+02  0.43116436555E+02  0.10094822648E+03  0.00000000000E+00 0. -1.
         21    1    1    2  503  502  0.34504279420E+02  0.24590115170E+02 -0.91261240137E+01  0.43341725876E+02  0.00000000000E+00 0. -1.
          1    1    1    2  501    0  0.64954904778E+02  0.21251388444E+02  0.84806929347E+02  0.10891729170E+03  0.00000000000E+00 0. -1.
<scales pt_clust_5="13000.00000" pt_clust_6="13000.00000" pt_clust_7="13000.00000" pt_clust_8="13000.00000" pt_clust_9="42.37003" pt_clust_10="85.55375"></scales>
<clustering>
<clus scale="   42.370">  1  9  2 -1</clus>
<clus scale="   85.554">  1 10  2 -1</clus>
<clus scale="   90.688">  7  8 -1 -1</clus>
<clus scale="   92.344">  5  6 -1 -1</clus>
<clus scale="  184.389">  1  7  2 -1</clus>
<clus scale="   42.370">  1  5  2 -1</clus>
</clustering>
</event>
<event>
10    2  0.2421970E-006  0.1210805E+03  0.7546771E-02  0.1242760E+00
         21   -1    0    0  503  502  0.00000000000E+00  0.00000000000E+00  0.14839185285E+03  0.14839185285E+03  0.00000000000E+00 0. -1.
          2   -1    0    0  502    0 -0.00000000000E+00 -0.00000000000E+00 -0.41916642555E+03  0.41916642555E+03  0.00000000000E+00 0. -1.
         23    2    1    2    0    0 -0.56937565734E+02  0.14174270877E+02 -0.22785050471E+03  0.25370738367E+03  0.94914633673E+02 0.  0.
         23    2    1    2    0    0  0.14476633557E+03  0.21237457924E+02 -0.96211965127E+02  0.19709569493E+03  0.90452469237E+02 0.  0.
        -11    1    4    4    0    0  0.53456495992E+02 -0.25562239253E+02 -0.68986644252E+02  0.90940541699E+02  0.00000000000E+00 0.  1.
         11    1    4    4    0    0  0.91309839581E+02  0.46799697177E+02 -0.27225320875E+02  0.10615515323E+03  0.00000000000E+00 0. -1.
        -13    1    3    3    0    0 -0.35048103336E+02  0.38577466086E+02 -0.21001820149E+03  0.21638908335E+03  0.00000000000E+00 0. -1.
         13    1    3    3    0    0 -0.21889462398E+02 -0.24403195209E+02 -0.17832303222E+02  0.37318300319E+02  0.00000000000E+00 0.  1.
         21    1    1    2  503  501 -0.37772395845E+02  0.65533010996E+01  0.23477463273E+02  0.44954320425E+02  0.00000000000E+00 0. -1.
          2    1    1    2  501    0 -0.50056373993E+02 -0.41965029901E+02  0.29810433866E+02  0.71800879377E+02  0.00000000000E+00 0. -1.
<scales pt_clust_5="13000.00000" pt_clust_6="13000.00000" pt_clust_7="13000.00000" pt_clust_8="13000.00000" pt_clust_9="32.72136" pt_clust_10="103.88540"></scales>
<clustering>
<clus scale="   32.721">  9 10 -1 -1</clus>
<clus scale="   90.452">  5  6 -1 -1</clus>
<clus scale="   94.915">  7  8 -1 -1</clus>
<clus scale="  103.885">  1  9  2 -1</clus>
<clus scale="  117.615">  1  5  2 -1</clus>
<clus scale="  103.885">  1  5  2 -1</clus>
</clustering>
</event>
<event>
10    2  0.2421970E-006  0.1108381E+03  0.7546771E-02  0.1259043E+00
         21   -1    0    0  501  502  0.00000000000E+00  0.00000000000E+00  0.54616418941E+02  0.54616418941E+02  0.00000000000E+00 0.  1.
          3   -1    0    0  503    0 -0.00000000000E+00 -0.00000000000E+00 -0.65130403930E+03  0.65130403930E+03  0.00000000000E+00 0. -1.
         23    2    1    2    0    0  0.44114467962E+02 -0.24425184310E+02 -0.31177991928E+03  0.32886383864E+03  0.91662589891E+02 0.  0.
         23    2    1    2    0    0 -0.54514492954E+02  0.60967857057E+02 -0.28844592116E+03  0.31352895926E+03  0.91708501907E+02 0.  0.
        -11    1    3    3    0    0  0.31182942705E+02  0.21968126478E+02 -0.51069543326E+02  0.63742236800E+02  0.00000000000E+00 0.  1.
         11    1    3    3    0    0  0.12931525257E+02 -0.46393310789E+02 -0.26071037595E+03  0.26512160184E+03  0.00000000000E+00 0. -1.
        -13    1    4    4    0    0  0.42172027194E+01  0.63534550194E+02 -0.13703993572E+03  0.15111044917E+03  0.00000000000E+00 0.  1.
         13    1    4    4    0    0 -0.58731695673E+02 -0.25666931376E+01 -0.15140598545E+03  0.16241851009E+03  0.00000000000E+00 0. -1.
         21    1    1    2  503  502  0.26066420826E+02 -0.56002902337E+01 -0.64603949154E+01  0.27432795116E+02  0.00000000000E+00 0.  1.
          3    1    1    2  501    0 -0.15666395834E+02 -0.30942382513E+02  0.99986149981E+01  0.36094865229E+02  0.00000000000E+00 0. -1.
<scales pt_clust_5="13000.00000" pt_clust_6="13000.00000" pt_clust_7="13000.00000" pt_clust_8="13000.00000" pt_clust_9="26.66124" pt_clust_10="33.92929"></scales>
<clustering>
<clus scale="   26.661">  1  9  2 -1</clus>
<clus scale="   33.929">  1 10  2 -1</clus>
<clus scale="   91.663">  5  6 -1 -1</clus>
<clus scale="   91.709">  7  8 -1 -1</clus>
<clus scale="  110.800">  2  5  1 -1</clus>
<clus scale="   26.661">  1  5  2 -1</clus>
</clustering>
</event>
<event>
10    2  0.2421970E-006  0.1327414E+03  0.7546771E-02  0.1230995E+00
         21   -1    0    0  503  502  0.00000000000E+00  0.00000000000E+00  0.46578821737E+03  0.46578821737E+03  0.00000000000E+00 0. -1.
         -3   -1    0    0    0  501 -0.00000000000E+00 -0.00000000000E+00 -0.97885666359E+02  0.97885666359E+02  0.00000000000E+00 0.  1.
         23    2    1    2    0    0 -0.62870103310E+02 -0.30575424594E+01  0.19937214697E+02  0.13157238229E+03  0.11380597874E+03 0.  0.
         23    2    1    2    0    0  0.70371236123E+02  0.64066127676E+02  0.16018509946E+03  0.20719190767E+03  0.90623622333E+02 0.  0.
        -13    1    4    4    0    0  0.46164644426E+02 -0.12622462999E+02  0.38930208925E+02  0.61693290835E+02  0.00000000000E+00 0.  1.
         13    1    4    4    0    0  0.24206591697E+02  0.76688590674E+02  0.12125489054E+03  0.14549861683E+03  0.00000000000E+00 0. -1.
        -13    1    3    3    0    0 -0.26718170081E+02  0.19052536522E+02 -0.43985947405E+02  0.54878259170E+02  0.00000000000E+00 0.  1.
         13    1    3    3    0    0 -0.36151933229E+02 -0.22110078981E+02  0.63923162102E+02  0.76694123125E+02  0.00000000000E+00 0. -1.
         21    1    1    2  503  501 -0.57138987620E+02 -0.35940970078E+02  0.91193010035E+02  0.11345828447E+03  0.00000000000E+00 0.  1.
         -3    1    1    2    0  502  0.49637854807E+02 -0.25067615139E+02  0.96587226816E+02  0.11145130929E+03  0.00000000000E+00 0.  1.
<scales pt_clust_5="13000.00000" pt_clust_6="13000.00000" pt_clust_7="13000.00000" pt_clust_8="13000.00000" pt_clust_9="60.90335" pt_clust_10="55.60847"></scales>
<clustering>
<clus scale="   55.608">  1 10  2 -1</clus>
<clus scale="   60.903">  1  9  2 -1</clus>
<clus scale="   90.624">  5  6 -1 -1</clus>
<clus scale="  113.495">  1  5  2 -1</clus>
<clus scale="  113.806">  7  8 -1 -1</clus>
<clus scale="   55.608">  1  5  2 -1</clus>
</clustering>
</event>
<event>
10    2  0.2421970E-006  0.1287135E+03  0.7546771E-02  0.1241891E+00
         21   -1    0    0  503  502  0.00000000000E+00  0.00000000000E+00  0.11001724773E+03  0.11001724773E+03  0.00000000000E+00 0.  1.
          1   -1    0    0  502    0 -0.00000000000E+00 -0.00000000000E+00 -0.56410220675E+03  0.56410220675E+03  0.00000000000E+00 0. -1.
         23    2    1    2    0    0  0.38178470340E+02  0.17456219116E+02 -0.15140524944E+03  0.18125160154E+03  0.90367462739E+02 0.  0.
         23    2    1    2    0    0  0.69496114043E+02 -0.52269959985E+02  0.38282689956E+02  0.13264598911E+03  0.92560982558E+02 0.  0.
        -11    1    4    4    0    0  0.82859990304E+02 -0.19976578467E+02  0.46000011791E+02  0.96854750866E+02  0.00000000000E+00 0.  1.
         11    1    4    4    0    0 -0.13363876261E+02 -0.32293381517E+02 -0.77173218347E+01  0.35791238241E+02  0.00000000000E+00 0. -1.
        -13    1    3    3    0    0  0.52238523278E+02 -0.19890613296E+02 -0.11197521969E+03  0.12515170648E+03  0.00000000000E+00 0.  1.
         13    1    3    3    0    0 -0.14060052939E+02  0.37346832411E+02 -0.39430029749E+02  0.56099895061E+02  0.00000000000E+00 0. -1.
         21    1    1    2  503  501 -0.45475942934E+02  0.18175939421E+01 -0.12168202649E+03  0.12991489755E+03  0.00000000000E+00 0. -1.
          1    1    1    2  501    0 -0.62198641448E+02  0.32996146927E+02 -0.21928037305E+03  0.23030696627E+03  0.00000000000E+00 0. -1.
<scales pt_clust_5="13000.00000" pt_clust_6="13000.00000" pt_clust_7="13000.00000" pt_clust_8="13000.00000" pt_clust_9="21.25059" pt_clust_10="93.26443"></scales>
<clustering>
<clus scale="   21.251">  9 10 -1 -1</clus>
<clus scale="   90.367">  7  8 -1 -1</clus>
<clus scale="   92.561">  5  6 -1 -1</clus>
<clus scale="   99.642">  2  7  1 -1</clus>
<clus scale="   93.264">  1  9  2 -1</clus>
<clus scale="   93.264">  1  5  2 -1</clus>
</clustering>
</event>
<event>
10    2  0.2421970E-006  0.2957362E+03  0.7546771E-02  0.1118929E+00
          1   -1    0    0  502    0 -0.00000000000E+00  0.00000000000E+00  0.15760336056E+03  0.15760336056E+03  0.00000000000E+00 0. -1.
         21   -1    0    0  503  502  0.00000000000E+00 -0.00000000000E+00 -0.90478723717E+03  0.90478723717E+03  0.00000000000E+00 0. -1.
         23    2    1    2    0    0  0.85758746317E+02  0.34207817614E+02 -0.96169943882E+02  0.16257226433E+03  0.93039484445E+02 0.  0.
         23    2    1    2    0    0 -0.33068070282E+03 -0.57339716647E+02 -0.29842263439E+03  0.45814032518E+03  0.90547879693E+02 0.  0.
        -13    1    4    4    0    0 -0.11159640587E+03 -0.58764733754E+02 -0.83671890357E+02  0.15135401208E+03  0.00000000000E+00 0.  1.
         13    1    4    4    0    0 -0.21908429695E+03  0.14250171065E+01 -0.21475074403E+03  0.30678631310E+03  0.00000000000E+00 0. -1.
        -13    1    3    3    0    0  0.12698163234E+02  0.44861898966E+02 -0.70264154522E+02  0.84326062039E+02  0.00000000000E+00 0.  1.
         13    1    3    3    0    0  0.73060583084E+02 -0.10654081351E+02 -0.25905789361E+02  0.78246202287E+02  0.00000000000E+00 0. -1.
         21    1    1    2  503  501  0.15264637570E+03  0.47714790040E+02 -0.27713245320E+03  0.31996877006E+03  0.00000000000E+00 0. -1.
          1    1    1    2  501    0  0.92275580808E+02 -0.24582891007E+02 -0.75458845138E+02  0.12170923816E+03  0.00000000000E+00 0. -1.
<scales pt_clust_5="13000.00000" pt_clust_6="13000.00000" pt_clust_7="13000.00000" pt_clust_8="13000.00000" pt_clust_9="78.18242" pt_clust_10="78.18242"></scales>
<clustering>
<clus scale="   78.182">  9 10 -1 -1</clus>
<clus scale="   90.548">  5  6 -1 -1</clus>
<clus scale="   93.039">  7  8 -1 -1</clus>
<clus scale="  131.077">  1  7  2 -1</clus>
<clus scale="  292.270">  1  5  2 -1</clus>
<clus scale="  295.736">  2  5  1 -1</clus>
</clustering>
</event>
<event>
10    2  0.2421970E-006  0.1957780E+03  0.7546771E-02  0.1181933E+00
         21   -1    0    0  503  502  0.00000000000E+00  0.00000000000E+00  0.36525196751E+03  0.36525196751E+03  0.00000000000E+00 0. -1.
          1   -1    0    0  502    0 -0.00000000000E+00 -0.00000000000E+00 -0.36249573766E+03  0.36249573766E+03  0.00000000000E+00 0. -1.
         23    2    1    2    0    0  0.42657115965E+02  0.94224934923E+01  0.35181667632E+02  0.10745649763E+03  0.91655530217E+02 0.  0.
         23    2    1    2    0    0  0.13450244203E+03 -0.36625378457E+02 -0.26975083406E+03  0.31603570621E+03  0.87639773285E+02 0.  0.
        -11    1    4    4    0    0  0.10589814770E+03  0.13689193718E+02 -0.17387507756E+03  0.20404498109E+03  0.00000000000E+00 0. -1.
         11    1    4    4    0    0  0.28604294322E+02 -0.50314572175E+02 -0.95875756504E+02  0.11199072512E+03  0.00000000000E+00 0.  1.
        -13    1    3    3    0    0 -0.26219128126E+02 -0.12741730000E+02  0.89633247372E+01  0.30498123769E+02  0.00000000000E+00 0.  1.
         13    1    3    3    0    0  0.68876244091E+02  0.22164223493E+02  0.26218342895E+02  0.76958373860E+02  0.00000000000E+00 0. -1.
         21    1    1    2  503  501 -0.65192934126E+02  0.31010370623E+01  0.13799428602E+03  0.15265044404E+03  0.00000000000E+00 0.  1.
          1    1    1    2  501    0 -0.11196662387E+03  0.24101847902E+02  0.99331110258E+02  0.15160505729E+03  0.00000000000E+00 0. -1.
<scales pt_clust_5="13000.00000" pt_clust_6="13000.00000" pt_clust_7="13000.00000" pt_clust_8="13000.00000" pt_clust_9="48.46933" pt_clust_10="186.46950"></scales>
<clustering>
<clus scale="   48.469">  9 10 -1 -1</clus>
<clus scale="   87.640">  5  6 -1 -1</clus>
<clus scale="   91.656">  7  8 -1 -1</clus>
<clus scale="  101.534">  2  7  1 -1</clus>
<clus scale="  186.469">  1  9  2 -1</clus>
<clus scale="  186.469">  1  5  2 -1</clus>
</clustering>
</event>
<event>
10    2  0.2421970E-006  0.1000329E+03  0.7546771E-02  0.1281162E+00
          1   -1    0    0  503    0 -0.00000000000E+00  0.00000000000E+00  0.73516120313E+03  0.73516120313E+03  0.00000000000E+00 0. -1.
         21   -1    0    0  501  502  0.00000000000E+00 -0.00000000000E+00 -0.50390690941E+02  0.50390690941E+02  0.00000000000E+00 0. -1.
         23    2    1    2    0    0 -0.52762537962E+00 -0.45916176643E+02  0.23256159606E+03  0.25376896067E+03  0.90582646101E+02 0.  0.
         23    2    1    2    0    0 -0.93225512226E+02  0.23086183267E+02  0.11048085132E+03  0.17113020565E+03  0.88631601535E+02 0.  0.
        -11    1    3    3    0    0 -0.45209932603E+02 -0.19865066958E+02  0.10164493250E+03  0.11300553612E+03  0.00000000000E+00 0. -1.
         11    1    3    3    0    0  0.44682307223E+02 -0.26051109684E+02  0.13091666356E+03  0.14076342455E+03  0.00000000000E+00 0.  1.
        -11    1    4    4    0    0 -0.90076248497E+02  0.48798049681E+02  0.10007864244E+03  0.14321562369E+03  0.00000000000E+00 0. -1.
         11    1    4    4    0    0 -0.31492637296E+01 -0.25711866414E+02  0.10402208873E+02  0.27914581959E+02  0.00000000000E+00 0.  1.
         21    1    1    2  503  502  0.13297806108E+01  0.22820613876E+02  0.65918632848E+02  0.69769727609E+02  0.00000000000E+00 0. -1.
          1    1    1    2  501    0  0.92423356995E+02  0.93794988648E-02  0.27580943197E+03  0.29088300014E+03  0.00000000000E+00 0. -1.
<scales pt_clust_5="13000.00000" pt_clust_6="13000.00000" pt_clust_7="13000.00000" pt_clust_8="13000.00000" pt_clust_9="22.85932" pt_clust_10="93.49250"></scales>
<clustering>
<clus scale="   22.859">  1  9  2 -1</clus>
<clus scale="   88.632">  7  8 -1 -1</clus>
<clus scale="   90.583">  5  6 -1 -1</clus>
<clus scale="   93.493">  2 10  1 -1</clus>
<clus scale="   98.270">  2  7  1 -1</clus>
<clus scale="   93.493">  2  5  1 -1</clus>
</clustering>
</event>
<event>
10    2  0.2421970E-006  0.1266915E+03  0.7546771E-02  0.1232712E+00
          2   -1    0    0  502    0 -0.00000000000E+00  0.00000000000E+00  0.54354320884E+03  0.54354320884E+03  0.00000000000E+00 0. -1.
         21   -1    0    0  503  502  0.00000000000E+00 -0.00000000000E+00 -0.99096471557E+02  0.99096471557E+02  0.00000000000E+00 0.  1.
         23    2    1    2    0    0  0.42081359908E+02  0.74861274220E+02  0.28110290914E+03  0.30648844134E+03  0.86840473974E+02 0.  0.
         23    2    1    2    0    0  0.37586155828E+02 -0.12358501026E+03  0.17637835287E+03  0.23560336112E+03  0.87827367837E+02 0.  0.
        -13    1    4    4    0    0  0.27987344909E+02 -0.17317314978E+02  0.43870099969E+01  0.33202812077E+02  0.00000000000E+00 0.  1.
         13    1    4    4    0    0  0.95988109195E+01 -0.10626769528E+03  0.17199134287E+03  0.20240054905E+03  0.00000000000E+00 0. -1.
        -13    1    3    3    0    0  0.20500441657E+02  0.89824077714E+02  0.24572027159E+03  0.26242538924E+03  0.00000000000E+00 0.  1.
         13    1    3    3    0    0  0.21580918251E+02 -0.14962803494E+02  0.35382637550E+02  0.44063052106E+02  0.00000000000E+00 0. -1.
         21    1    1    2  503  501 -0.30406724847E+02  0.38984618312E+02 -0.49636861183E+01  0.49689109076E+02  0.00000000000E+00 0.  1.
          2    1    1    2  501    0 -0.49260790889E+02  0.97391177268E+01 -0.80708386113E+01  0.50858768851E+02  0.00000000000E+00 0. -1.
<scales pt_clust_5="13000.00000" pt_clust_6="13000.00000" pt_clust_7="13000.00000" pt_clust_8="13000.00000" pt_clust_9="34.64502" pt_clust_10="99.69943"></scales>
<clustering>
<clus scale="   34.645">  9 10 -1 -1</clus>
<clus scale="   86.840">  7  8 -1 -1</clus>
<clus scale="   87.827">  5  6 -1 -1</clus>
<clus scale="   99.699">  2  9  1 -1</clus>
<clus scale="  126.009">  1  7  2 -1</clus>
<clus scale="   99.699">  2  5  1 -1</clus>
</clustering>
</event>
<event>
10    2  0.2421970E-006  0.1517247E+03  0.7546771E-02  0.1200309E+00
          1   -1    0    0  502    0 -0.00000000000E+00  0.00000000000E+00  0.52464580585E+03  0.52464580585E+03  0.00000000000E+00 0. -1.
         21   -1    0    0  503  502  0.00000000000E+00 -0.00000000000E+00 -0.21986582418E+03  0.21986582418E+03  0.00000000000E+00 0.  1.
         23    2    1    2    0    0  0.91443541390E+01 -0.11474805836E+03  0.30228511357E+03  0.33593062166E+03  0.90677210870E+02 0.  0.
         23    2    1    2    0    0  0.57824471744E+02  0.19437142514E+03 -0.11221620167E+03  0.24510646251E+03  0.79754508356E+02 0.  0.
        -11    1    4    4    0    0  0.33505692499E+02  0.11824262379E+03 -0.22472130082E+02  0.12493576806E+03  0.00000000000E+00 0. -1.
         11    1    4    4    0    0  0.24318779245E+02  0.76128801353E+02 -0.89744071591E+02  0.12017069445E+03  0.00000000000E+00 0.  1.
        -13    1    3    3    0    0  0.41714463307E+02 -0.32467164134E+02  0.72738515914E+02  0.89917211330E+02  0.00000000000E+00 0.  1.
         13    1    3    3    0    0 -0.32570109168E+02 -0.82280894229E+02  0.22954659765E+03  0.24601341033E+03  0.00000000000E+00 0. -1.
         21    1    1    2  503  501 -0.30341466775E+02 -0.60729428252E+02  0.41807001107E+02  0.79727620079E+02  0.00000000000E+00 0. -1.
          1    1    1    2  501    0 -0.36627359108E+02 -0.18893938528E+02  0.72904068675E+02  0.83746925781E+02  0.00000000000E+00 0. -1.
<scales pt_clust_5="13000.00000" pt_clust_6="13000.00000" pt_clust_7="13000.00000" pt_clust_8="13000.00000" pt_clust_9="40.78943" pt_clust_10="116.47022"></scales>
<clustering>
<clus scale="   40.789">  9 10 -1 -1</clus>
<clus scale="   79.755">  5  6 -1 -1</clus>
<clus scale="   90.677">  7  8 -1 -1</clus>
<clus scale="  116.470">  2  9  1 -1</clus>
<clus scale="  145.461">  2  5  1 -1</clus>
<clus scale="  116.470">  2  5  1 -1</clus>
</clustering>
</event>
<event>
10    2  0.2421970E-006  0.2283612E+03  0.7546771E-02  0.1140416E+00
         21   -1    0    0  501  502  0.00000000000E+00  0.00000000000E+00  0.21234727132E+03  0.21234727132E+03  0.00000000000E+00 0. -1.
          1   -1    0    0  503    0 -0.00000000000E+00 -0.00000000000E+00 -0.62139991534E+03  0.62139991534E+03  0.00000000000E+00 0. -1.
         23    2    1    2    0    0  0.33155360549E+02 -0.13351281110E+03 -0.29498817321E+03  0.33776798008E+03  0.90245428510E+02 0.  0.
         23    2    1    2    0    0 -0.13752254432E+02 -0.14109349117E+03 -0.79675112653E+02  0.19073002064E+03  0.99666039580E+02 0.  0.
        -11    1    3    3    0    0 -0.24430672843E+02 -0.87173127936E+02 -0.16761269662E+03  0.19049941752E+03  0.00000000000E+00 0.  1.
         11    1    3    3    0    0  0.57586033393E+02 -0.46339683165E+02 -0.12737547660E+03  0.14726856255E+03  0.00000000000E+00 0. -1.
        -11    1    4    4    0    0 -0.25667701109E+02 -0.11336829850E+03 -0.10083010189E+03  0.15387628612E+03  0.00000000000E+00 0. -1.
         11    1    4    4    0    0  0.11915446677E+02 -0.27725192671E+02  0.21154989238E+02  0.36853734516E+02  0.00000000000E+00 0.  1.
         21    1    1    2  503  502  0.21136176151E+02 -0.18466536658E+01 -0.13309189585E+02  0.25045610383E+02  0.00000000000E+00 0.  1.
          1    1    1    2  501    0 -0.40539282269E+02  0.27645295593E+03 -0.21080168571E+02  0.28020357556E+03  0.00000000000E+00 0. -1.
<scales pt_clust_5="13000.00000" pt_clust_6="13000.00000" pt_clust_7="13000.00000" pt_clust_8="13000.00000" pt_clust_9="21.21669" pt_clust_10="205.46423"></scales>
<clustering>
<clus scale="   21.217">  2  9  1 -1</clus>
<clus scale="   90.245">  5  6 -1 -1</clus>
<clus scale="   99.666">  7  8 -1 -1</clus>
<clus scale="  167.895">  2  5  1 -1</clus>
<clus scale="  205.464">  1 10  2 -1</clus>
<clus scale="  205.464">  1  5  2 -1</clus>
</clustering>
</event>
<event>
10    2  0.2421970E-006  0.9640944E+02  0.7546771E-02  0.1289936E+00
         21   -1    0    0  501  502  0.00000000000E+00  0.00000000000E+00  0.32561144241E+02  0.32561144241E+02  0.00000000000E+00 0.  1.
          1   -1    0    0  503    0 -0.00000000000E+00 -0.00000000000E+00 -0.71205807689E+03  0.71205807689E+03  0.00000000000E+00 0. -1.
         23    2    1    2    0    0  0.24655523689E+02  0.23755763249E+02 -0.35736202745E+03  0.37005276707E+03  0.89773050605E+02 0.  0.
         23    2    1    2    0    0 -0.20492903331E+02  0.20435826179E+02 -0.20306950394E+03  0.22533192745E+03  0.93272032357E+02 0.  0.
        -11    1    4    4    0    0  0.27362363995E+02  0.31121579147E+02 -0.13650847398E+03  0.14265978803E+03  0.00000000000E+00 0. -1.
         11    1    4    4    0    0 -0.47855267326E+02 -0.10685752968E+02 -0.66561029951E+02  0.82672139415E+02  0.00000000000E+00 0.  1.
        -13    1    3    3    0    0  0.13338806242E+02 -0.31824228303E+02 -0.82967137027E+02  0.89856836610E+02  0.00000000000E+00 0.  1.
         13    1    3    3    0    0  0.11316717447E+02  0.55579991552E+02 -0.27439489042E+03  0.28019593046E+03  0.00000000000E+00 0. -1.
         21    1    1    2  503  502 -0.20686751921E+02 -0.60245214073E+02 -0.67788793384E+02  0.93020148528E+02  0.00000000000E+00 0.  1.
          1    1    1    2  501    0  0.16524131563E+02  0.16053624645E+02 -0.51276607881E+02  0.56214378089E+02  0.00000000000E+00 0. -1.
<scales pt_clust_5="13000.00000" pt_clust_6="13000.00000" pt_clust_7="13000.00000" pt_clust_8="13000.00000" pt_clust_9="55.25553" pt_clust_10="23.03835"></scales>
<clustering>
<clus scale="   23.038">  1 10  2 -1</clus>
<clus scale="   55.256">  1  9  2 -1</clus>
<clus scale="   89.773">  7  8 -1 -1</clus>
<clus scale="   93.029">  2  7  1 -1</clus>
<clus scale="   93.272">  5  6 -1 -1</clus>
<clus scale="   23.038">  1  5  2 -1</clus>
</clustering>
</event>
<event>
10    2  0.2421970E-006  0.1724341E+03  0.7546771E-02  0.1183996E+00
         21   -1    0    0  503  502  0.00000000000E+00  0.00000000000E+00  0.52598281658E+03  0.52598281658E+03  0.00000000000E+00 0. -1.
          2   -1    0    0  502    0 -0.00000000000E+00 -0.00000000000E+00 -0.38706310822E+03  0.38706310822E+03  0.00000000000E+00 0. -1.
         23    2    1    2    0    0  0.87180584399E+02 -0.60312506385E+02  0.25790288449E+03  0.29436603548E+03  0.94336696422E+02 0.  0.
         23    2    1    2    0    0 -0.16485645615E+03 -0.63378485476E+02 -0.31454230622E+03  0.37225441702E+03  0.91880384373E+02 0.  0.
        -11    1    3    3    0    0  0.50307261173E+02 -0.78234317753E+02  0.21862874883E+03  0.23759200074E+03  0.00000000000E+00 0. -1.
         11    1    3    3    0    0  0.36873323226E+02  0.17921811367E+02  0.39274135659E+02  0.56774034736E+02  0.00000000000E+00 0.  1.
        -11    1    4    4    0    0 -0.65489618443E+02 -0.23487898022E+02 -0.21529513741E+03  0.22625774610E+03  0.00000000000E+00 0. -1.
         11    1    4    4    0    0 -0.99366837705E+02 -0.39890587454E+02 -0.99247168811E+02  0.14599667092E+03  0.00000000000E+00 0.  1.
         21    1    1    2  503  501  0.40513951165E+02  0.79907464621E+02  0.94706524853E+02  0.13036835886E+03  0.00000000000E+00 0. -1.
          2    1    1    2  501    0  0.37161920585E+02  0.43783527240E+02  0.10085260523E+03  0.11605711344E+03  0.00000000000E+00 0. -1.
<scales pt_clust_5="13000.00000" pt_clust_6="13000.00000" pt_clust_7="13000.00000" pt_clust_8="13000.00000" pt_clust_9="27.14040" pt_clust_10="149.80205"></scales>
<clustering>
<clus scale="   27.140">  9 10 -1 -1</clus>
<clus scale="   91.880">  7  8 -1 -1</clus>
<clus scale="   94.337">  5  6 -1 -1</clus>
<clus scale="  141.907">  2  5  1 -1</clus>
<clus scale="  149.802">  1  9  2 -1</clus>
<clus scale="  149.802">  1  5  2 -1</clus>
</clustering>
</event>
<event>
10    2  0.2421970E-006  0.9536390E+02  0.7546771E-02  0.1291473E+00
         21   -1    0    0  501  502  0.00000000000E+00  0.00000000000E+00  0.40546344775E+03  0.40546344775E+03  0.00000000000E+00 0.  1.
          3   -1    0    0  503    0 -0.00000000000E+00 -0.00000000000E+00 -0.10789469412E+03  0.10789469412E+03  0.00000000000E+00 0. -1.
         23    2    1    2    0    0 -0.36560399873E+02  0.89479047535E+01 -0.30894462807E+02  0.10184408211E+03  0.89448428668E+02 0.  0.
         23    2    1    2    0    0  0.20766694881E+01 -0.56207131125E+02  0.32711581297E+03  0.34429706511E+03  0.91499507123E+02 0.  0.
        -11    1    3    3    0    0  0.12578776397E+02 -0.30945438195E+02 -0.14798303055E+02  0.36535401107E+02  0.00000000000E+00 0. -1.
         11    1    3    3    0    0 -0.49139176270E+02  0.39893342949E+02 -0.16096159753E+02  0.65308681007E+02  0.00000000000E+00 0.  1.
        -13    1    4    4    0    0 -0.34304401001E+02 -0.27994924891E+02  0.25445769837E+03  0.25828129628E+03  0.00000000000E+00 0.  1.
         13    1    4    4    0    0  0.36381070489E+02 -0.28212206235E+02  0.72658114596E+02  0.86015768828E+02  0.00000000000E+00 0. -1.
         21    1    1    2  503  502  0.23058198131E+02  0.75606300788E+01  0.76178582455E+01  0.25433745152E+02  0.00000000000E+00 0. -1.
          3    1    1    2  501    0  0.11425532254E+02  0.39698596293E+02 -0.62704547764E+01  0.41783249491E+02  0.00000000000E+00 0. -1.
<scales pt_clust_5="13000.00000" pt_clust_6="13000.00000" pt_clust_7="13000.00000" pt_clust_8="13000.00000" pt_clust_9="24.26610" pt_clust_10="44.88673"></scales>
<clustering>
<clus scale="   24.266">  2  9  1 -1</clus>
<clus scale="   44.887">  1 10  2 -1</clus>
<clus scale="   89.448">  5  6 -1 -1</clus>
<clus scale="   91.500">  7  8 -1 -1</clus>
<clus scale="   93.398">  2  5  1 -1</clus>
<clus scale="   44.887">  1  5  2 -1</clus>
</clustering>
</event>
<event>
10    2  0.2421970E-006  0.1012043E+03  0.7546771E-02  0.1283946E+00
         21   -1    0    0  501  502  0.00000000000E+00  0.00000000000E+00  0.49820871605E+02  0.49820871605E+02  0.00000000000E+00 0. -1.
          1   -1    0    0  503    0 -0.00000000000E+00 -0.00000000000E+00 -0.51763175615E+03  0.51763175615E+03  0.00000000000E+00 0. -1.
         23    2    1    2    0    0  0.84433723524E+02 -0.31271751415E+02 -0.21578559960E+03  0.25130487946E+03  0.92107227395E+02 0.  0.
         23    2    1    2    0    0  0.43557055089E+01  0.20168202160E+02 -0.10408128699E+03  0.13267808289E+03  0.79654446392E+02 0.  0.
        -13    1    4    4    0    0  0.53780346676E+01  0.50883853938E+02 -0.71101197452E+02  0.87598345461E+02  0.00000000000E+00 0. -1.
         13    1    4    4    0    0 -0.10223291587E+01 -0.30715651777E+02 -0.32980089539E+02  0.45079737433E+02  0.00000000000E+00 0.  1.
        -13    1    3    3    0    0  0.47076797813E+02 -0.59930533665E+02 -0.95823958815E+02  0.12243416533E+03  0.00000000000E+00 0.  1.
         13    1    3    3    0    0  0.37356925711E+02  0.28658782250E+02 -0.11996164078E+03  0.12887071412E+03  0.00000000000E+00 0. -1.
         21    1    1    2  503  502 -0.36621500210E+02  0.19888439368E+02 -0.11202597873E+03  0.11952616537E+03  0.00000000000E+00 0. -1.
          1    1    1    2  501    0 -0.52167928823E+02 -0.87848901134E+01 -0.35918019231E+02  0.63943500041E+02  0.00000000000E+00 0. -1.
<scales pt_clust_5="13000.00000" pt_clust_6="13000.00000" pt_clust_7="13000.00000" pt_clust_8="13000.00000" pt_clust_9="41.67354" pt_clust_10="57.06850"></scales>
<clustering>
<clus scale="   41.674">  2  9  1 -1</clus>
<clus scale="   57.069">  1 10  2 -1</clus>
<clus scale="   79.654">  5  6 -1 -1</clus>
<clus scale="   90.019">  1  5  2 -1</clus>
<clus scale="   92.107">  7  8 -1 -1</clus>
<clus scale="   57.069">  1  5  2 -1</clus>
</clustering>
</event>
<event>
10    2  0.2421970E-006  0.1227728E+03  0.7546771E-02  0.1240368E+00
          2   -1    0    0  503    0 -0.00000000000E+00  0.00000000000E+00  0.56969656601E+03  0.56969656601E+03  0.00000000000E+00 0. -1.
         21   -1    0    0  501  502  0.00000000000E+00 -0.00000000000E+00 -0.37140150860E+03  0.37140150860E+03  0.00000000000E+00 0. -1.
         23    2    1    2    0    0 -0.59582523407E+02  0.50039479790E+02  0.54023258463E+03  0.55421216932E+03  0.96155376811E+02 0.  0.
         23    2    1    2    0    0  0.49302188716E+02  0.87746871337E+01 -0.19585726924E+03  0.22150231286E+03  0.90529021538E+02 0.  0.
        -13    1    4    4    0    0  0.34238889926E+02  0.47942449530E+02 -0.13781233889E+03  0.14987668532E+03  0.00000000000E+00 0. -1.
         13    1    4    4    0    0  0.15063298790E+02 -0.39167762397E+02 -0.58044930343E+02  0.71625627538E+02  0.00000000000E+00 0.  1.
        -13    1    3    3    0    0 -0.75266712755E+02  0.70376496998E+01  0.28212117699E+03  0.29207356106E+03  0.00000000000E+00 0.  1.
         13    1    3    3    0    0  0.15684189347E+02  0.43001830090E+02  0.25811140764E+03  0.26213860826E+03  0.00000000000E+00 0. -1.
         21    1    1    2  503  502  0.25086017481E+02 -0.11203278426E+02 -0.46254429501E+02  0.53798642818E+02  0.00000000000E+00 0.  1.
          2    1    1    2  501    0 -0.14805682790E+02 -0.47610888497E+02 -0.99825828486E+02  0.11158494961E+03  0.00000000000E+00 0. -1.
<scales pt_clust_5="13000.00000" pt_clust_6="13000.00000" pt_clust_7="13000.00000" pt_clust_8="13000.00000" pt_clust_9="27.47402" pt_clust_10="51.71289"></scales>
<clustering>
<clus scale="   27.474">  2  9  1 -1</clus>
<clus scale="   51.713">  2 10  1 -1</clus>
<clus scale="   90.529">  5  6 -1 -1</clus>
<clus scale="   96.155">  7  8 -1 -1</clus>
<clus scale="  118.418">  2  5  1 -1</clus>
<clus scale="   27.474">  2  5  1 -1</clus>
</clustering>
</event>
<event>
10    2  0.2421970E-006  0.1077169E+03  0.7546771E-02  0.1270386E+00
         21   -1    0    0  503  502  0.00000000000E+00  0.00000000000E+00  0.18359196660E+03  0.18359196660E+03  0.00000000000E+00 0. -1.
         -2   -1    0    0    0  501 -0.00000000000E+00 -0.00000000000E+00 -0.22617715711E+03  0.22617715711E+03  0.00000000000E+00 0.  1.
         23    2    1    2    0    0 -0.40285635052E+02 -0.33402784939E+02 -0.11499935831E+03  0.15416449172E+03  0.88335494925E+02 0.  0.
         23    2    1    2    0    0 -0.16106348511E+02  0.34526218011E+02 -0.44059682601E+02  0.11591988466E+03  0.10022320009E+03 0.  0.
        -13    1    3    3    0    0 -0.84878599452E+00  0.28248468414E+02 -0.43323099818E+02  0.51726080300E+02  0.00000000000E+00 0. -1.
         13    1    3    3    0    0 -0.39436849058E+02 -0.61651253353E+02 -0.71676258491E+02  0.10243841142E+03  0.00000000000E+00 0.  1.
        -13    1    4    4    0    0  0.35030064055E+02 -0.13029581305E+02 -0.14484589303E+02  0.40083396861E+02  0.00000000000E+00 0.  1.
         13    1    4    4    0    0 -0.51136412566E+02  0.47555799316E+02 -0.29575093297E+02  0.75836487802E+02  0.00000000000E+00 0. -1.
         21    1    1    2  503  501  0.16672829843E+02  0.14857217938E+02  0.91452082642E+01  0.24132032945E+02  0.00000000000E+00 0.  1.
         -2    1    1    2    0  502  0.39719153720E+02 -0.15980651010E+02  0.10732864213E+03  0.11555271438E+03  0.00000000000E+00 0.  1.
<scales pt_clust_5="13000.00000" pt_clust_6="13000.00000" pt_clust_7="13000.00000" pt_clust_8="13000.00000" pt_clust_9="22.33204" pt_clust_10="51.20845"></scales>
<clustering>
<clus scale="   22.332">  1  9  2 -1</clus>
<clus scale="   51.208">  1 10  2 -1</clus>
<clus scale="   88.335">  5  6 -1 -1</clus>
<clus scale="   96.754">  2  5  1 -1</clus>
<clus scale="  100.223">  7  8 -1 -1</clus>
<clus scale="   22.332">  1  5  2 -1</clus>
</clustering>
</event>
<event>
10    2  0.2421970E-006  0.1940707E+03  0.7546771E-02  0.1177420E+00
          1   -1    0    0  502    0 -0.00000000000E+00  0.00000000000E+00  0.90266613664E+03  0.90266613664E+03  0.00000000000E+00 0. -1.
         21   -1    0    0  503  502  0.00000000000E+00 -0.00000000000E+00 -0.95458538271E+02  0.95458538271E+02  0.00000000000E+00 0.  1.
         23    2    1    2    0    0  0.62239008191E+02 -0.34968896302E+02  0.39676518930E+03  0.41319955100E+03  0.90635178887E+02 0.  0.
         23    2    1    2    0    0 -0.42765762673E+02  0.19771726711E+03  0.32287572640E+03  0.39118814287E+03  0.88647618427E+02 0.  0.
        -11    1    3    3    0    0  0.78626239150E+02 -0.49925561193E+02  0.31552906260E+03  0.32898820113E+03  0.00000000000E+00 0. -1.
         11    1    3    3    0    0 -0.16387230958E+02  0.14956664891E+02  0.81236126707E+02  0.84211349861E+02  0.00000000000E+00 0.  1.
        -13    1    4    4    0    0 -0.26084956017E+02  0.50015987240E+01  0.51261228184E+02  0.57733477595E+02  0.00000000000E+00 0.  1.
         13    1    4    4    0    0 -0.16680806655E+02  0.19271566839E+03  0.27161449822E+03  0.33345466528E+03  0.00000000000E+00 0. -1.
         21    1    1    2  503  501  0.18755372415E+02 -0.48247732138E+02  0.20785680147E+02  0.55782184881E+02  0.00000000000E+00 0.  1.
          1    1    1    2  501    0 -0.38228617934E+02 -0.11450063867E+03  0.66781002512E+02  0.13795479616E+03  0.00000000000E+00 0. -1.
<scales pt_clust_5="13000.00000" pt_clust_6="13000.00000" pt_clust_7="13000.00000" pt_clust_8="13000.00000" pt_clust_9="35.86653" pt_clust_10="181.12116"></scales>
<clustering>
<clus scale="   35.867">  9 10 -1 -1</clus>
<clus scale="   88.648">  7  8 -1 -1</clus>
<clus scale="   90.635">  5  6 -1 -1</clus>
<clus scale="  115.374">  1  5  2 -1</clus>
<clus scale="  181.121">  2  9  1 -1</clus>
<clus scale="  181.121">  2  5  1 -1</clus>
</clustering>
</event>
<event>
10    2  0.2421970E-006  0.1438978E+03  0.7546771E-02  0.1219906E+00
          1   -1    0    0  502    0 -0.00000000000E+00  0.00000000000E+00  0.30919333559E+03  0.30919333559E+03  0.00000000000E+00 0. -1.
         21   -1    0    0  503  502  0.00000000000E+00 -0.00000000000E+00 -0.18653535676E+03  0.18653535676E+03  0.00000000000E+00 0. -1.
         23    2    1    2    0    0 -0.41973641603E+02 -0.58553784271E+02  0.32029836693E+02  0.12030714141E+03  0.90871148298E+02 0.  0.
         23    2    1    2    0    0 -0.79879700969E+02  0.46496162193E+02  0.17485495163E+03  0.21846819899E+03  0.92797845519E+02 0.  0.
        -11    1    3    3    0    0 -0.21567984888E+02 -0.34559794584E+02 -0.30098546878E+02  0.50650566611E+02  0.00000000000E+00 0.  1.
         11    1    3    3    0    0 -0.20405656715E+02 -0.23993989686E+02  0.62128383571E+02  0.69656574795E+02  0.00000000000E+00 0. -1.
        -13    1    4    4    0    0 -0.89038298733E+02  0.64360447481E+02  0.13691408877E+03  0.17554359442E+03  0.00000000000E+00 0. -1.
         13    1    4    4    0    0  0.91585977637E+01 -0.17864285287E+02  0.37940862865E+02  0.42924604561E+02  0.00000000000E+00 0.  1.
         21    1    1    2  503  501  0.13380999429E+02  0.17804747253E+02 -0.24029669316E+02  0.32764083657E+02  0.00000000000E+00 0.  1.
          1    1    1    2  501    0  0.10847234314E+03 -0.57471251755E+01 -0.60197140183E+02  0.12418926830E+03  0.00000000000E+00 0. -1.
<scales pt_clust_5="13000.00000" pt_clust_6="13000.00000" pt_clust_7="13000.00000" pt_clust_8="13000.00000" pt_clust_9="22.27241" pt_clust_10="109.97783"></scales>
<clustering>
<clus scale="   22.272">  2  9  1 -1</clus>
<clus scale="   90.871">  5  6 -1 -1</clus>
<clus scale="   92.798">  7  8 -1 -1</clus>
<clus scale="  112.210">  1  5  2 -1</clus>
<clus scale="  109.978">  2 10  1 -1</clus>
<clus scale="   22.272">  2  5  1 -1</clus>
</clustering>
</event>
<event>
10    2  0.2421970E-006  0.2293990E+03  0.7546771E-02  0.1127139E+00
         21   -1    0    0  501  502  0.00000000000E+00  0.00000000000E+00  0.35675900296E+03  0.35675900296E+03  0.00000000000E+00 0.  1.
          1   -1    0    0  503    0 -0.00000000000E+00 -0.00000000000E+00 -0.26360192075E+03  0.26360192075E+03  0.00000000000E+00 0. -1.
         23    2    1    2    0    0  0.17947367303E+03 -0.13219562919E+03 -0.88836148940E+02  0.25526589561E+03  0.87076589359E+02 0.  0.
         23    2    1    2    0    0 -0.18473065296E+03  0.58287585763E+02  0.13271276658E+03  0.25082362419E+03  0.88187046916E+02 0.  0.
        -11    1    3    3    0    0  0.12075397019E+03 -0.81488210361E+02 -0.10026171445E+03  0.17684530282E+03  0.00000000000E+00 0.  1.
         11    1    3    3    0    0  0.58719702833E+02 -0.50707418831E+02  0.11425565514E+02  0.78420592784E+02  0.00000000000E+00 0. -1.
        -13    1    4    4    0    0 -0.77966162992E+02  0.66003984886E+02  0.41764520549E+02  0.11036087970E+03  0.00000000000E+00 0. -1.
         13    1    4    4    0    0 -0.10676448996E+03 -0.77163991230E+01  0.90948246030E+02  0.14046274449E+03  0.00000000000E+00 0.  1.
         21    1    1    2  503  502  0.30860829351E+02  0.69792526975E+02  0.30172804511E+02  0.82059647463E+02  0.00000000000E+00 0. -1.
          1    1    1    2  501    0 -0.25603849422E+02  0.41155164534E+01  0.19107660057E+02  0.32211756453E+02  0.00000000000E+00 0. -1.
<scales pt_clust_5="13000.00000" pt_clust_6="13000.00000" pt_clust_7="13000.00000" pt_clust_8="13000.00000" pt_clust_9="75.31420" pt_clust_10="25.93250"></scales>
<clustering>
<clus scale="   25.933">  1 10  2 -1</clus>
<clus scale="   75.314">  1  9  2 -1</clus>
<clus scale="   87.077">  5  6 -1 -1</clus>
<clus scale="   88.187">  7  8 -1 -1</clus>
<clus scale="  228.974">  2  5  1 -1</clus>
<clus scale="   25.933">  1  5  2 -1</clus>
</clustering>
</event>
<event>
10    2  0.2421970E-006  0.1113927E+03  0.7546771E-02  0.1265258E+00
         21   -1    0    0  501  502  0.00000000000E+00  0.00000000000E+00  0.95604220058E+02  0.95604220058E+02  0.00000000000E+00 0.  1.
          1   -1    0    0  503    0 -0.00000000000E+00 -0.00000000000E+00 -0.34630510222E+03  0.34630510222E+03  0.00000000000E+00 0.  1.
         23    2    1    2    0    0 -0.93547524449E+02  0.58866861267E+02 -0.11282685388E+03  0.18243651729E+03  0.91305734754E+02 0.  0.
         23    2    1    2    0    0  0.14869450790E+02 -0.23025155799E+02 -0.21277900016E+02  0.80451298030E+02  0.72583772010E+02 0.  0.
        -11    1    4    4    0    0  0.41629803101E+02 -0.57098513735E+01 -0.24121585650E+02  0.48450942233E+02  0.00000000000E+00 0. -1.
         11    1    4    4    0    0 -0.26760352311E+02 -0.17315304425E+02  0.28436856338E+01  0.32000355797E+02  0.00000000000E+00 0.  1.
        -13    1    3    3    0    0 -0.81561170660E+02  0.82992401010E+02 -0.89465476458E+02  0.14677886313E+03  0.00000000000E+00 0.  1.
         13    1    3    3    0    0 -0.11986353789E+02 -0.24125539743E+02 -0.23361377419E+02  0.35657654157E+02  0.00000000000E+00 0. -1.
         21    1    1    2  503  502  0.13611519552E+02 -0.18214181214E+02 -0.10881096341E+03  0.11116139447E+03  0.00000000000E+00 0.  1.
          1    1    1    2  501    0  0.65066554107E+02 -0.17627524255E+02 -0.77851648534E+01  0.67860112485E+02  0.00000000000E+00 0.  1.
<scales pt_clust_5="13000.00000" pt_clust_6="13000.00000" pt_clust_7="13000.00000" pt_clust_8="13000.00000" pt_clust_9="22.73829" pt_clust_10="70.31288"></scales>
<clustering>
<clus scale="   22.738">  2  9  1 -1</clus>
<clus scale="   70.313">  1 10  2 -1</clus>
<clus scale="   72.584">  5  6 -1 -1</clus>
<clus scale="   91.306">  7  8 -1 -1</clus>
<clus scale="   96.644">  1  5  2 -1</clus>
<clus scale="   70.313">  1  5  2 -1</clus>
</clustering>
</event>
<event>
10    2  0.2421970E-006  0.1022018E+03  0.7546771E-02  0.1276011E+00
          1   -1    0    0  503    0 -0.00000000000E+00  0.00000000000E+00  0.52812423498E+03  0.52812423498E+03  0.00000000000E+00 0. -1.
         21   -1    0    0  501  502  0.00000000000E+00 -0.00000000000E+00 -0.40582749179E+02  0.40582749179E+02  0.00000000000E+00 0. -1.
         23    2    1    2    0    0  0.98930137948E+01 -0.55534734883E+02  0.25003842230E+03  0.27167445943E+03  0.90032331863E+02 0.  0.
         23    2    1    2    0    0 -0.18193786777E+02  0.33114836524E+02  0.17921572732E+03  0.20435905061E+03  0.90646226477E+02 0.  0.
        -11    1    4    4    0    0  0.30846059493E+02  0.29071062711E+02  0.47031713245E+02  0.63313411882E+02  0.00000000000E+00 0. -1.
         11    1    4    4    0    0 -0.49039846270E+02  0.40437738123E+01  0.13218401407E+03  0.14104563873E+03  0.00000000000E+00 0.  1.
        -13    1    3    3    0    0  0.49844829663E+02 -0.33947922875E+02  0.12909468109E+03  0.14248650883E+03  0.00000000000E+00 0.  1.
         13    1    3    3    0    0 -0.39951815868E+02 -0.21586812008E+02  0.12094374121E+03  0.12918795060E+03  0.00000000000E+00 0. -1.
         21    1    1    2  503  502  0.32633277390E+02  0.31932344172E+02  0.40837320796E+02  0.61255956178E+02  0.00000000000E+00 0. -1.
          1    1    1    2  501    0 -0.24332504408E+02 -0.95124458127E+01  0.17450015384E+02  0.31417517932E+02  0.00000000000E+00 0. -1.
<scales pt_clust_5="13000.00000" pt_clust_6="13000.00000" pt_clust_7="13000.00000" pt_clust_8="13000.00000" pt_clust_9="38.47691" pt_clust_10="26.12580"></scales>
<clustering>
<clus scale="   26.126">  2 10  1 -1</clus>
<clus scale="   38.477">  2  9  1 -1</clus>
<clus scale="   90.032">  7  8 -1 -1</clus>
<clus scale="   90.646">  5  6 -1 -1</clus>
<clus scale="  101.658">  1  7  2 -1</clus>
<clus scale="   26.126">  2  5  1 -1</clus>
</clustering>
</event>
<event>
10    2  0.2421970E-006  0.1524231E+03  0.7546771E-02  0.1214567E+00
          1   -1    0    0  502    0 -0.00000000000E+00  0.00000000000E+00  0.98728894124E+02  0.98728894124E+02  0.00000000000E+00 0. -1.
         21   -1    0    0  503  502  0.00000000000E+00 -0.00000000000E+00 -0.74601169989E+03  0.74601169989E+03  0.00000000000E+00 0. -1.
         23    2    1    2    0    0  0.56540717986E+02 -0.46534618829E+01  0.24447470562E+02  0.10846265603E+03  0.89151340085E+02 0.  0.
         23    2    1    2    0    0  0.44987182259E+02  0.89289617958E+02 -0.19773007321E+03  0.24091781185E+03  0.94592429791E+02 0.  0.
        -11    1    4    4    0    0  0.87740060006E+01  0.99567726046E+02 -0.14622701368E+03  0.17712440482E+03  0.00000000000E+00 0. -1.
         11    1    4    4    0    0  0.36213176259E+02 -0.10278108088E+02 -0.51503059523E+02  0.63793407033E+02  0.00000000000E+00 0.  1.
        -13    1    3    3    0    0  0.75543980542E+02  0.16393113161E+02  0.17131384279E+02  0.79177720873E+02  0.00000000000E+00 0. -1.
         13    1    3    3    0    0 -0.19003262556E+02 -0.21046575044E+02  0.73160862830E+01  0.29284935160E+02  0.00000000000E+00 0.  1.
         21    1    1    2  503  501 -0.18102693494E+02 -0.30751498304E+02 -0.61781310976E+02  0.71346286137E+02  0.00000000000E+00 0.  1.
          1    1    1    2  501    0 -0.83425206751E+02 -0.53884657772E+02 -0.41221889215E+03  0.42401383999E+03  0.00000000000E+00 0. -1.
<scales pt_clust_5="13000.00000" pt_clust_6="13000.00000" pt_clust_7="13000.00000" pt_clust_8="13000.00000" pt_clust_9="34.08947" pt_clust_10="132.36064"></scales>
<clustering>
<clus scale="   34.089">  9 10 -1 -1</clus>
<clus scale="   89.151">  7  8 -1 -1</clus>
<clus scale="   94.592">  5  6 -1 -1</clus>
<clus scale="  105.672">  1  7  2 -1</clus>
<clus scale="  132.361">  2  9  1 -1</clus>
<clus scale="  132.361">  2  5  1 -1</clus>
</clustering>
</event>
<event>
10    2  0.2421970E-006  0.2525389E+03  0.7546771E-02  0.1135833E+00
          2   -1    0    0  502    0 -0.00000000000E+00  0.00000000000E+00  0.30083166375E+03  0.30083166375E+03  0.00000000000E+00 0. -1.
         21   -1    0    0  503  502  0.00000000000E+00 -0.00000000000E+00 -0.62965907938E+03  0.62965907938E+03  0.00000000000E+00 0.  1.
         23    2    1    2    0    0  0.56380773374E+02  0.91277578858E+02  0.69440947895E+02  0.15511645535E+03  0.87912919794E+02 0.  0.
         23    2    1    2    0    0 -0.35068297996E+02 -0.31116900143E+03 -0.10704491660E+02  0.32668000109E+03  0.92462446413E+02 0.  0.
        -13    1    3    3    0    0 -0.49958697614E+01  0.22075088654E+02 -0.17161480917E+02  0.28403955376E+02  0.00000000000E+00 0.  1.
         13    1    3    3    0    0  0.61376643135E+02  0.69202490205E+02  0.86602428812E+02  0.12671249997E+03  0.00000000000E+00 0. -1.
        -13    1    4    4    0    0  0.83349199613E+01 -0.22673356899E+03 -0.32690456795E+02  0.22922968430E+03  0.00000000000E+00 0.  1.
         13    1    4    4    0    0 -0.43403217958E+02 -0.84435432436E+02  0.21985965134E+02  0.97450316790E+02  0.00000000000E+00 0. -1.
         21    1    1    2  503  501 -0.23167355723E+02  0.44538242031E+02 -0.99582753422E+02  0.11152177435E+03  0.00000000000E+00 0. -1.
          2    1    1    2  501    0  0.18548803457E+01  0.17535318054E+03 -0.28798111844E+03  0.33717251235E+03  0.00000000000E+00 0. -1.
<scales pt_clust_5="13000.00000" pt_clust_6="13000.00000" pt_clust_7="13000.00000" pt_clust_8="13000.00000" pt_clust_9="25.74021" pt_clust_10="239.87692"></scales>
<clustering>
<clus scale="   25.740">  9 10 -1 -1</clus>
<clus scale="   87.913">  5  6 -1 -1</clus>
<clus scale="   92.462">  7  8 -1 -1</clus>
<clus scale="  138.705">  1  5  2 -1</clus>
<clus scale="  239.877">  2  9  1 -1</clus>
<clus scale="  239.877">  2  5  1 -1</clus>
</clustering>
</event>
<event>
10    2  0.2421970E-006  0.1407184E+03  0.7546771E-02  0.1212699E+00
          1   -1    0    0  502    0 -0.00000000000E+00  0.00000000000E+00  0.40252760214E+03  0.40252760214E+03  0.00000000000E+00 0. -1.
         21   -1    0    0  503  502  0.00000000000E+00 -0.00000000000E+00 -0.98335382629E+02  0.98335382629E+02  0.00000000000E+00 0.  1.
         23    2    1    2    0    0  0.30429692683E+02 -0.10014341355E+03  0.20944811109E+03  0.25180358080E+03  0.92638342994E+02 0.  0.
         23    2    1    2    0    0  0.31356060797E+02  0.11818582310E+03  0.45311248550E+02  0.15908277585E+03  0.91121506770E+02 0.  0.
        -13    1    4    4    0    0  0.27302205645E+02  0.91173262383E+02 -0.11676435696E+02  0.95886982209E+02  0.00000000000E+00 0.  1.
         13    1    4    4    0    0  0.40538551520E+01  0.27012560721E+02  0.56987684247E+02  0.63195793642E+02  0.00000000000E+00 0. -1.
        -13    1    3    3    0    0  0.62031940185E+02 -0.58019035465E+02  0.10699836449E+03  0.13661193243E+03  0.00000000000E+00 0. -1.
         13    1    3    3    0    0 -0.31602247502E+02 -0.42124378083E+02  0.10244974660E+03  0.11519164837E+03  0.00000000000E+00 0.  1.
         21    1    1    2  503  501 -0.23761763871E+02  0.24981846447E+01 -0.55213114159E+00  0.23899104535E+02  0.00000000000E+00 0. -1.
          1    1    1    2  501    0 -0.38023989609E+02 -0.20540594201E+02  0.49984991015E+02  0.66077523582E+02  0.00000000000E+00 0. -1.
<scales pt_clust_5="13000.00000" pt_clust_6="13000.00000" pt_clust_7="13000.00000" pt_clust_8="13000.00000" pt_clust_9="23.89273" pt_clust_10="45.07759"></scales>
<clustering>
<clus scale="   23.893">  2  9  1 -1</clus>
<clus scale="   45.078">  2 10  1 -1</clus>
<clus scale="   91.122">  5  6 -1 -1</clus>
<clus scale="   92.638">  7  8 -1 -1</clus>
<clus scale="  139.725">  2  5  1 -1</clus>
<clus scale="   23.893">  2  5  1 -1</clus>
</clustering>
</event>
<event>
10    2  0.2421970E-006  0.1682179E+03  0.7546771E-02  0.1180086E+00
          3   -1    0    0  502    0 -0.00000000000E+00  0.00000000000E+00  0.47298916828E+02  0.47298916828E+02  0.00000000000E+00 0. -1.
         21   -1    0    0  503  502  0.00000000000E+00 -0.00000000000E+00 -0.15283690146E+04  0.15283690146E+04  0.00000000000E+00 0. -1.
         23    2    1    2    0    0  0.65308030571E+00  0.14433042116E+03 -0.36194772139E+03  0.40002742568E+03  0.90465967558E+02 0.  0.
         23    2    1    2    0    0 -0.12180978444E+03 -0.10804498327E+03 -0.36427169363E+03  0.40969715900E+03  0.92986844880E+02 0.  0.
        -13    1    3    3    0    0 -0.30498114283E+02  0.16299760158E+02 -0.11550418396E+03  0.12056962166E+03  0.00000000000E+00 0.  1.
         13    1    3    3    0    0  0.31151194589E+02  0.12803066101E+03 -0.24644353744E+03  0.27945780402E+03  0.00000000000E+00 0. -1.
        -13    1    4    4    0    0 -0.51928315492E+01 -0.54173992679E+02 -0.70456122545E+02  0.89027255301E+02  0.00000000000E+00 0.  1.
         13    1    4    4    0    0 -0.11661695290E+03 -0.53870990588E+02 -0.29381557108E+03  0.32066990370E+03  0.00000000000E+00 0. -1.
         21    1    1    2  503  501  0.51878288739E+02 -0.76271982674E+00 -0.31974239246E+03  0.32392458400E+03  0.00000000000E+00 0. -1.
          3    1    1    2  501    0  0.69278415400E+02 -0.35522718070E+02 -0.43510829024E+03  0.44201876270E+03  0.00000000000E+00 0. -1.
<scales pt_clust_5="13000.00000" pt_clust_6="13000.00000" pt_clust_7="13000.00000" pt_clust_8="13000.00000" pt_clust_9="24.13507" pt_clust_10="129.88324"></scales>
<clustering>
<clus scale="   24.135">  9 10 -1 -1</clus>
<clus scale="   90.466">  5  6 -1 -1</clus>
<clus scale="   92.987">  7  8 -1 -1</clus>
<clus scale="  129.883">  2  9  1 -1</clus>
<clus scale="  166.838">  1  5  2 -1</clus>
<clus scale="  129.883">  2  5  1 -1</clus>
</clustering>
</event>
<event>
10    2  0.2421970E-006  0.1137461E+03  0.7546771E-02  0.1256537E+00
          2   -1    0    0  503    0 -0.00000000000E+00  0.00000000000E+00  0.54554103040E+03  0.54554103040E+03  0.00000000000E+00 0. -1.
         21   -1    0    0  501  502  0.00000000000E+00 -0.00000000000E+00 -0.84001181509E+02  0.84001181509E+02  0.00000000000E+00 0. -1.
         23    2    1    2    0    0  0.18994020885E+01  0.72037289072E+02  0.22756473726E+03  0.25329380552E+03  0.84729354580E+02 0.  0.
         23    2    1    2    0    0 -0.84513369713E+02 -0.31818992140E+02  0.24208573521E+03  0.27436403675E+03  0.92277643814E+02 0.  0.
        -11    1    4    4    0    0 -0.21767608466E+02  0.21780017134E+02  0.18235287160E+02  0.35787199143E+02  0.00000000000E+00 0.  1.
         11    1    4    4    0    0 -0.62745761247E+02 -0.53599009275E+02  0.22385044805E+03  0.23857683761E+03  0.00000000000E+00 0. -1.
        -13    1    3    3    0    0  0.37940603889E+02  0.28001840217E+02  0.14901634226E+03  0.15629927300E+03  0.00000000000E+00 0.  1.
         13    1    3    3    0    0 -0.36041201800E+02  0.44035448855E+02  0.78548395002E+02  0.96994532529E+02  0.00000000000E+00 0. -1.
         21    1    1    2  503  502  0.59654370813E+02 -0.43241792297E+02 -0.19301128534E+02  0.76164493833E+02  0.00000000000E+00 0. -1.
          2    1    1    2  501    0  0.22959596811E+02  0.30234953649E+01  0.11190504947E+02  0.25719875795E+02  0.00000000000E+00 0. -1.
<scales pt_clust_5="13000.00000" pt_clust_6="13000.00000" pt_clust_7="13000.00000" pt_clust_8="13000.00000" pt_clust_9="84.71882" pt_clust_10="23.15782"></scales>
<clustering>
<clus scale="   23.158">  2 10  1 -1</clus>
<clus scale="   84.719">  2  9  1 -1</clus>
<clus scale="   84.729">  7  8 -1 -1</clus>
<clus scale="   92.278">  5  6 -1 -1</clus>
<clus scale="  107.713">  1  7  2 -1</clus>
<clus scale="   23.158">  2  5  1 -1</clus>
</clustering>
</event>
<event>
10    2  0.2421970E-006  0.1824104E+03  0.7546771E-02  0.1189336E+00
          3   -1    0    0  503    0 -0.00000000000E+00  0.00000000000E+00  0.92957674271E+03  0.92957674271E+03  0.00000000000E+00 0. -1.
         21   -1    0    0  501  502  0.00000000000E+00 -0.00000000000E+00 -0.92133906656E+02  0.92133906656E+02  0.00000000000E+00 0.  1.
         23    2    1    2    0    0  0.19341344675E+02 -0.32937675860E+02  0.16334510946E+03  0.18979265933E+03  0.88773028820E+02 0.  0.
         23    2    1    2    0    0  0.15434376301E+03  0.62836300674E+02  0.24369775744E+03  0.30911576762E+03  0.91616390154E+02 0.  0.
        -13    1    4    4    0    0  0.29370872490E+02 -0.13931666635E+02  0.11512402171E+02  0.34485865072E+02  0.00000000000E+00 0. -1.
         13    1    4    4    0    0  0.12497289052E+03  0.76767967309E+02  0.23218535527E+03  0.27462990255E+03  0.00000000000E+00 0.  1.
        -13    1    3    3    0    0 -0.32350840464E+02 -0.30042868334E+02  0.63756213004E+02  0.77550019426E+02  0.00000000000E+00 0. -1.
         13    1    3    3    0    0  0.51692185138E+02 -0.28948075259E+01  0.99588896461E+02  0.11224263991E+03  0.00000000000E+00 0.  1.
         21    1    1    2  503  502 -0.14179099815E+02 -0.84976720519E+02  0.29235211822E+03  0.30478164467E+03  0.00000000000E+00 0. -1.
          3    1    1    2  501    0 -0.15950600787E+03  0.55078095705E+02  0.13804785093E+03  0.21802057774E+03  0.00000000000E+00 0. -1.
<scales pt_clust_5="13000.00000" pt_clust_6="13000.00000" pt_clust_7="13000.00000" pt_clust_8="13000.00000" pt_clust_9="86.15155" pt_clust_10="157.73397"></scales>
<clustering>
<clus scale="   86.152">  1  9  2 -1</clus>
<clus scale="   88.773">  7  8 -1 -1</clus>
<clus scale="   91.616">  5  6 -1 -1</clus>
<clus scale="  106.460">  1  7  2 -1</clus>
<clus scale="  157.734">  2 10  1 -1</clus>
<clus scale="  157.734">  2  5  1 -1</clus>
</clustering>
</event>
<event>
10    2  0.2421970E-006  0.1083504E+03  0.7546771E-02  0.1264276E+00
          1   -1    0    0  503    0 -0.00000000000E+00  0.00000000000E+00  0.51286513433E+03  0.51286513433E+03  0.00000000000E+00 0. -1.
         21   -1    0    0  501  502  0.00000000000E+00 -0.00000000000E+00 -0.51748983234E+02  0.51748983234E+02  0.00000000000E+00 0.  1.
         23    2    1    2    0    0  0.17266377146E+02 -0.35167835923E+02  0.23065257848E+03  0.25152291981E+03  0.92348593745E+02 0.  0.
         23    2    1    2    0    0 -0.41584037218E+02  0.71508327832E+02  0.22805708133E+03  0.25903604550E+03  0.90812815301E+02 0.  0.
        -11    1    3    3    0    0  0.41776587637E+02  0.12914946704E+02  0.75461401188E+02  0.87215263527E+02  0.00000000000E+00 0.  1.
         11    1    3    3    0    0 -0.24510210491E+02 -0.48082782627E+02  0.15519117730E+03  0.16430765629E+03  0.00000000000E+00 0. -1.
        -13    1    4    4    0    0 -0.42897945536E+02  0.92372437463E+02  0.18544488123E+03  0.21157198517E+03  0.00000000000E+00 0.  1.
         13    1    4    4    0    0  0.13139083174E+01 -0.20864109631E+02  0.42612200099E+02  0.47464060330E+02  0.00000000000E+00 0. -1.
         21    1    1    2  503  502  0.10961569057E+02 -0.20663124477E+02 -0.14404284556E+02  0.27470058663E+02  0.00000000000E+00 0.  1.
          1    1    1    2  501    0  0.13356091015E+02 -0.15677367432E+02  0.16810775838E+02  0.26585093588E+02  0.00000000000E+00 0. -1.
<scales pt_clust_5="13000.00000" pt_clust_6="13000.00000" pt_clust_7="13000.00000" pt_clust_8="13000.00000" pt_clust_9="32.43578" pt_clust_10="20.59527"></scales>
<clustering>
<clus scale="   20.595">  2 10  1 -1</clus>
<clus scale="   32.436">  2  9  1 -1</clus>
<clus scale="   90.813">  7  8 -1 -1</clus>
<clus scale="   92.349">  5  6 -1 -1</clus>
<clus scale="  107.044">  2  7  1 -1</clus>
<clus scale="   20.595">  2  5  1 -1</clus>
</clustering>
</event>
<event>
10    2  0.2421970E-006  0.1167254E+03  0.7546771E-02  0.1253969E+00
         21   -1    0    0  503  502  0.00000000000E+00  0.00000000000E+00  0.26021383250E+03  0.26021383250E+03  0.00000000000E+00 0. -1.
         -4   -1    0    0    0  501 -0.00000000000E+00 -0.00000000000E+00 -0.15969664547E+03  0.15969664547E+03  0.00000000000E+00 0.  1.
         23    2    1    2    0    0  0.15756874086E+02 -0.38017902286E+02 -0.88716929976E+02  0.14311482719E+03  0.10448693757E+03 0.  0.
         23    2    1    2    0    0  0.19362390849E+02  0.56724494883E+02  0.19829166178E+03  0.22628193679E+03  0.91056912342E+02 0.  0.
        -11    1    3    3    0    0 -0.92659703197E+01 -0.63866699515E+02 -0.85320396710E+02  0.10697842590E+03  0.00000000000E+00 0.  1.
         11    1    3    3    0    0  0.25022844406E+02  0.25848797229E+02 -0.33965332661E+01  0.36136401295E+02  0.00000000000E+00 0. -1.
        -11    1    4    4    0    0  0.13638060535E+02 -0.23981349890E+02  0.60479056250E+02  0.66474191101E+02  0.00000000000E+00 0.  1.
         11    1    4    4    0    0  0.57243303146E+01  0.80705844773E+02  0.13781260553E+03  0.15980774568E+03  0.00000000000E+00 0. -1.
         21    1    1    2  503  501 -0.14763531481E+02 -0.15927131895E+02 -0.17903577307E+02  0.28145576430E+02  0.00000000000E+00 0.  1.
         -4    1    1    2    0  502 -0.20355733455E+02 -0.27794607028E+01  0.88460325315E+01  0.22368137558E+02  0.00000000000E+00 0.  1.
<scales pt_clust_5="13000.00000" pt_clust_6="13000.00000" pt_clust_7="13000.00000" pt_clust_8="13000.00000" pt_clust_9="22.05124" pt_clust_10="20.54462"></scales>
<clustering>
<clus scale="   20.545">  1 10  2 -1</clus>
<clus scale="   22.051">  2  9  1 -1</clus>
<clus scale="   91.057">  7  8 -1 -1</clus>
<clus scale="  104.487">  5  6 -1 -1</clus>
<clus scale="  104.874">  1  7  2 -1</clus>
<clus scale="   20.545">  1  5  2 -1</clus>
</clustering>
</event>
<event>
10    2  0.2421970E-006  0.1455745E+03  0.7546771E-02  0.1217053E+00
         21   -1    0    0  503  502  0.00000000000E+00  0.00000000000E+00  0.61983898565E+03  0.61983898565E+03  0.00000000000E+00 0. -1.
          2   -1    0    0  502    0 -0.00000000000E+00 -0.00000000000E+00 -0.76963980520E+03  0.76963980520E+03  0.00000000000E+00 0. -1.
         23    2    1    2    0    0 -0.70835617826E+02  0.92739442074E+01  0.65045112098E+01  0.11526928956E+03  0.90227543770E+02 0.  0.
         23    2    1    2    0    0  0.74919594432E+02 -0.12128343263E+03 -0.69864921010E+03  0.71905373422E+03  0.92762801113E+02 0.  0.
        -11    1    4    4    0    0  0.11085553592E+02 -0.10280828385E+03 -0.44307905954E+03  0.45498514891E+03  0.00000000000E+00 0. -1.
         11    1    4    4    0    0  0.63834040839E+02 -0.18475148771E+02 -0.25557015056E+03  0.26406858531E+03  0.00000000000E+00 0.  1.
        -11    1    3    3    0    0 -0.74252374831E+02 -0.19229008772E+02  0.25519631270E+02  0.80835768856E+02  0.00000000000E+00 0. -1.
         11    1    3    3    0    0  0.34167570045E+01  0.28502952979E+02 -0.19015120060E+02  0.34433520701E+02  0.00000000000E+00 0.  1.
         21    1    1    2  503  501  0.98331501081E+01  0.30617829493E+02  0.22310914168E+03  0.22541479860E+03  0.00000000000E+00 0. -1.
          2    1    1    2  501    0 -0.13917126714E+02  0.81391658925E+02  0.31923473766E+03  0.32974096847E+03  0.00000000000E+00 0. -1.
<scales pt_clust_5="13000.00000" pt_clust_6="13000.00000" pt_clust_7="13000.00000" pt_clust_8="13000.00000" pt_clust_9="24.15553" pt_clust_10="118.68125"></scales>
<clustering>
<clus scale="   24.156">  9 10 -1 -1</clus>
<clus scale="   90.228">  7  8 -1 -1</clus>
<clus scale="   92.763">  5  6 -1 -1</clus>
<clus scale="  115.086">  2  7  1 -1</clus>
<clus scale="  118.681">  1  9  2 -1</clus>
<clus scale="  118.681">  1  5  2 -1</clus>
</clustering>
</event>
<event>
10    2  0.2421970E-006  0.3726887E+03  0.7546771E-02  0.1097868E+00
          1   -1    0    0  503    0 -0.00000000000E+00  0.00000000000E+00  0.74492561397E+03  0.74492561397E+03  0.00000000000E+00 0. -1.
         21   -1    0    0  501  502  0.00000000000E+00 -0.00000000000E+00 -0.42389453550E+03  0.42389453550E+03  0.00000000000E+00 0. -1.
         23    2    1    2    0    0  0.15179499787E+02 -0.64411180565E+02 -0.70457694545E+02  0.13246465352E+03  0.90572514131E+02 0.  0.
         23    2    1    2    0    0  0.10583093329E+03 -0.33680346562E+03  0.15037339902E+03  0.39438124532E+03  0.91036512659E+02 0.  0.
        -13    1    4    4    0    0  0.96299939950E+02 -0.20302201363E+03  0.12740198027E+03  0.25830772545E+03  0.00000000000E+00 0. -1.
         13    1    4    4    0    0  0.95309933399E+01 -0.13378145199E+03  0.22971418751E+02  0.13607351987E+03  0.00000000000E+00 0.  1.
        -13    1    3    3    0    0  0.39836313773E+02  0.33996968283E+01 -0.26747322887E+02  0.48103109205E+02  0.00000000000E+00 0.  1.
         13    1    3    3    0    0 -0.24656813986E+02 -0.67810877393E+02 -0.43710371658E+02  0.84361544315E+02  0.00000000000E+00 0. -1.
         21    1    1    2  503  502 -0.19646662216E+03  0.11990065354E+02  0.57573591684E+02  0.20507953030E+03  0.00000000000E+00 0. -1.
          1    1    1    2  501    0  0.75456189081E+02  0.38922458083E+03  0.18354178231E+03  0.43689472032E+03  0.00000000000E+00 0. -1.
<scales pt_clust_5="13000.00000" pt_clust_6="13000.00000" pt_clust_7="13000.00000" pt_clust_8="13000.00000" pt_clust_9="193.67439" pt_clust_10="361.39918"></scales>
<clustering>
<clus scale="   90.573">  7  8 -1 -1</clus>
<clus scale="   91.037">  5  6 -1 -1</clus>
<clus scale="  112.172">  1  7  2 -1</clus>
<clus scale="  193.674">  2  9  1 -1</clus>
<clus scale="  361.399">  2 10  1 -1</clus>
<clus scale="  193.674">  2  5  1 -1</clus>
</clustering>
</event>
<event>
10    2  0.2421970E-006  0.1418854E+03  0.7546771E-02  0.1211132E+00
          1   -1    0    0  503    0 -0.00000000000E+00  0.00000000000E+00  0.16061448026E+03  0.16061448026E+03  0.00000000000E+00 0. -1.
         21   -1    0    0  501  502  0.00000000000E+00 -0.00000000000E+00 -0.22568611301E+03  0.22568611301E+03  0.00000000000E+00 0. -1.
         23    2    1    2    0    0  0.62156856818E+02  0.69019031448E+02 -0.20703306056E+02  0.13101810091E+03  0.90055617995E+02 0.  0.
         23    2    1    2    0    0 -0.90032412787E+02 -0.98295486412E+02 -0.85363660112E+02  0.18136600677E+03  0.88537200890E+02 0.  0.
        -11    1    3    3    0    0  0.41618735325E+02 -0.11839298040E+02 -0.19805761473E+02  0.47587354367E+02  0.00000000000E+00 0. -1.
         11    1    3    3    0    0  0.20538121493E+02  0.80858329488E+02 -0.89754458330E+00  0.83430746541E+02  0.00000000000E+00 0.  1.
        -13    1    4    4    0    0 -0.13969730449E+02 -0.69422105725E+02 -0.67997888964E+02  0.98174818745E+02  0.00000000000E+00 0.  1.
         13    1    4    4    0    0 -0.76062682338E+02 -0.28873380687E+02 -0.17365771148E+02  0.83191188021E+02  0.00000000000E+00 0. -1.
         21    1    1    2  503  502 -0.81843026321E+01  0.21089702186E+02  0.69830033975E+01  0.23675318040E+02  0.00000000000E+00 0.  1.
          1    1    1    2  501    0  0.36059858601E+02  0.81867527781E+01  0.34012330026E+02  0.50241167554E+02  0.00000000000E+00 0. -1.
<scales pt_clust_5="13000.00000" pt_clust_6="13000.00000" pt_clust_7="13000.00000" pt_clust_8="13000.00000" pt_clust_9="22.62208" pt_clust_10="36.59703"></scales>
<clustering>
<clus scale="   22.622">  1  9  2 -1</clus>
<clus scale="   36.597">  2 10  1 -1</clus>
<clus scale="   88.537">  7  8 -1 -1</clus>
<clus scale="   90.056">  5  6 -1 -1</clus>
<clus scale="  140.927">  2  7  1 -1</clus>
<clus scale="   36.597">  2  5  1 -1</clus>
</clustering>
</event>
<event>
10    2  0.2421970E-006  0.2604141E+03  0.7546771E-02  0.1133012E+00
         21   -1    0    0  501  502  0.00000000000E+00  0.00000000000E+00  0.24665112263E+03  0.24665112263E+03  0.00000000000E+00 0. -1.
          2   -1    0    0  503    0 -0.00000000000E+00 -0.00000000000E+00 -0.47976598155E+03  0.47976598155E+03  0.00000000000E+00 0. -1.
         23    2    1    2    0    0  0.94924369199E+02 -0.33106761632E+02 -0.34003173036E+02  0.13932032000E+03  0.90262075396E+02 0.  0.
         23    2    1    2    0    0  0.17767114243E+03  0.99659198103E+02 -0.18943414699E+03  0.29277538803E+03  0.91286040412E+02 0.  0.
        -11    1    3    3    0    0  0.75552454580E+02  0.27033012169E+01  0.13457417018E+02  0.76789213457E+02  0.00000000000E+00 0.  1.
         11    1    3    3    0    0  0.19371914619E+02 -0.35810062849E+02 -0.47460590054E+02  0.62531106543E+02  0.00000000000E+00 0. -1.
        -13    1    4    4    0    0  0.80491142393E+02  0.91492889759E+02 -0.77960023154E+02  0.14466353407E+03  0.00000000000E+00 0.  1.
         13    1    4    4    0    0  0.97180000038E+02  0.81663083447E+01 -0.11147412383E+03  0.14811185396E+03  0.00000000000E+00 0. -1.
         21    1    1    2  503  502 -0.65488719475E+01 -0.23820518979E+02 -0.10604190768E+01  0.24727097218E+02  0.00000000000E+00 0. -1.
          2    1    1    2  501    0 -0.26604663968E+03 -0.42731917493E+02 -0.86171198161E+01  0.26959429892E+03  0.00000000000E+00 0. -1.
<scales pt_clust_5="13000.00000" pt_clust_6="13000.00000" pt_clust_7="13000.00000" pt_clust_8="13000.00000" pt_clust_9="24.70435" pt_clust_10="243.89003"></scales>
<clustering>
<clus scale="   24.704">  1  9  2 -1</clus>
<clus scale="   90.262">  5  6 -1 -1</clus>
<clus scale="   91.286">  7  8 -1 -1</clus>
<clus scale="  135.497">  2  5  1 -1</clus>
<clus scale="  243.890">  1 10  2 -1</clus>
<clus scale="   24.704">  1  5  2 -1</clus>
</clustering>
</event>
<event>
10    2  0.2421970E-006  0.2325930E+03  0.7546771E-02  0.1125461E+00
          2   -1    0    0  502    0 -0.00000000000E+00  0.00000000000E+00  0.15625922842E+04  0.15625922842E+04  0.00000000000E+00 0. -1.
         21   -1    0    0  503  502  0.00000000000E+00 -0.00000000000E+00 -0.60438116712E+02  0.60438116712E+02  0.00000000000E+00 0. -1.
         23    2    1    2    0    0  0.17978438623E+03  0.12634293928E+03  0.96052895456E+03  0.98978112560E+03  0.93626065875E+02 0.  0.
         23    2    1    2    0    0 -0.20913628111E+03 -0.36184870100E+02  0.37542901112E+03  0.43941818810E+03  0.84226318617E+02 0.  0.
        -11    1    4    4    0    0 -0.72358332900E+02 -0.50803567191E+02  0.11686505498E+03  0.14654068327E+03  0.00000000000E+00 0.  1.
         11    1    4    4    0    0 -0.13677794821E+03  0.14618697092E+02  0.25856395614E+03  0.29287750483E+03  0.00000000000E+00 0. -1.
        -13    1    3    3    0    0  0.14338748201E+03  0.13888879105E+03  0.77471629806E+03  0.80002213017E+03  0.00000000000E+00 0.  1.
         13    1    3    3    0    0  0.36396904216E+02 -0.12545851764E+02  0.18581265650E+03  0.18975899544E+03  0.00000000000E+00 0. -1.
         21    1    1    2  503  501  0.22043645322E+02 -0.24704086119E+02  0.67424725574E+02  0.75115296637E+02  0.00000000000E+00 0. -1.
          2    1    1    2  501    0  0.73082495618E+01 -0.65453983066E+02  0.98771476199E+02  0.11871579053E+03  0.00000000000E+00 0. -1.
<scales pt_clust_5="13000.00000" pt_clust_6="13000.00000" pt_clust_7="13000.00000" pt_clust_8="13000.00000" pt_clust_9="21.96030" pt_clust_10="99.74624"></scales>
<clustering>
<clus scale="   21.960">  9 10 -1 -1</clus>
<clus scale="   84.226">  5  6 -1 -1</clus>
<clus scale="   93.626">  7  8 -1 -1</clus>
<clus scale="   99.746">  2  9  1 -1</clus>
<clus scale="  228.971">  2  5  1 -1</clus>
<clus scale="   99.746">  2  5  1 -1</clus>
</clustering>
</event>
<event>
10    2  0.2421970E-006  0.1315216E+03  0.7546771E-02  0.1252117E+00
          1   -1    0    0  503    0 -0.00000000000E+00  0.00000000000E+00  0.29781869882E+03  0.29781869882E+03  0.00000000000E+00 0. -1.
         21   -1    0    0  501  502  0.00000000000E+00 -0.00000000000E+00 -0.24227554201E+03  0.24227554201E+03  0.00000000000E+00 0. -1.
         23    2    1    2    0    0  0.12974004072E+02  0.10950567326E+03  0.19341414988E+03  0.24030664373E+03  0.90434685784E+02 0.  0.
         23    2    1    2    0    0 -0.19600481950E+02  0.14136004282E+02  0.67870164745E+01  0.79508702409E+02  0.75442459242E+02 0.  0.
        -13    1    4    4    0    0 -0.31751985132E+02 -0.20681281752E+02 -0.96984142027E+01  0.39114744186E+02  0.00000000000E+00 0.  1.
         13    1    4    4    0    0  0.12151503182E+02  0.34817286033E+02  0.16485430677E+02  0.40393958223E+02  0.00000000000E+00 0. -1.
        -13    1    3    3    0    0  0.34520736057E+02  0.70108037474E+02  0.17521935932E+03  0.19185578443E+03  0.00000000000E+00 0. -1.
         13    1    3    3    0    0 -0.21546731985E+02  0.39397635781E+02  0.18194790557E+02  0.48450859309E+02  0.00000000000E+00 0.  1.
         21    1    1    2  503  502 -0.29119823159E+02 -0.64638430889E+02 -0.13621110069E+02  0.72191588763E+02  0.00000000000E+00 0. -1.
          1    1    1    2  501    0  0.35746301037E+02 -0.59003246648E+02 -0.13103689947E+03  0.14808730592E+03  0.00000000000E+00 0. -1.
<scales pt_clust_5="13000.00000" pt_clust_6="13000.00000" pt_clust_7="13000.00000" pt_clust_8="13000.00000" pt_clust_9="95.49613" pt_clust_10="68.98682"></scales>
<clustering>
<clus scale="   68.987">  2 10  1 -1</clus>
<clus scale="   75.442">  5  6 -1 -1</clus>
<clus scale="   76.062">  2  5  1 -1</clus>
<clus scale="   90.435">  7  8 -1 -1</clus>
<clus scale="   95.496">  2  9  1 -1</clus>
<clus scale="   68.987">  2  5  1 -1</clus>
</clustering>
</event>
<event>
10    2  0.2421970E-006  0.3001218E+03  0.7546771E-02  0.1085293E+00
         21   -1    0    0  503  502  0.00000000000E+00  0.00000000000E+00  0.44190954311E+03  0.44190954311E+03  0.00000000000E+00 0.  1.
         -3   -1    0    0    0  501 -0.00000000000E+00 -0.00000000000E+00 -0.47315189262E+03  0.47315189262E+03  0.00000000000E+00 0.  1.
         23    2    1    2    0    0  0.86714159646E+02 -0.25293218318E+03 -0.26795246005E+03  0.38887027602E+03  0.89036711285E+02 0.  0.
         23    2    1    2    0    0 -0.16869954161E+03  0.19800952742E+03  0.25580413040E+03  0.37626079608E+03  0.92027850390E+02 0.  0.
        -13    1    4    4    0    0 -0.65470269323E+02  0.89153680493E+02  0.49509236104E+02  0.12118539256E+03  0.00000000000E+00 0.  1.
         13    1    4    4    0    0 -0.10322927229E+03  0.10885584693E+03  0.20629489429E+03  0.25507540352E+03  0.00000000000E+00 0. -1.
        -13    1    3    3    0    0  0.10037855929E+03 -0.16730114752E+03 -0.18557093756E+03  0.26926214363E+03  0.00000000000E+00 0.  1.
         13    1    3    3    0    0 -0.13664399647E+02 -0.85631035663E+02 -0.82381522488E+02  0.11960813239E+03  0.00000000000E+00 0. -1.
         21    1    1    2  503  501  0.66221212620E+02 -0.10886604214E+02 -0.41190927767E+02  0.78742997673E+02  0.00000000000E+00 0. -1.
         -3    1    1    2    0  502  0.15764169348E+02  0.65809259971E+02  0.22096907903E+02  0.71187365958E+02  0.00000000000E+00 0.  1.
<scales pt_clust_5="13000.00000" pt_clust_6="13000.00000" pt_clust_7="13000.00000" pt_clust_8="13000.00000" pt_clust_9="67.11011" pt_clust_10="68.07473"></scales>
<clustering>
<clus scale="   67.110">  2  9  1 -1</clus>
<clus scale="   68.075">  1 10  2 -1</clus>
<clus scale="   89.037">  7  8 -1 -1</clus>
<clus scale="   92.028">  5  6 -1 -1</clus>
<clus scale="  299.218">  2  7  1 -1</clus>
<clus scale="   68.075">  1  5  2 -1</clus>
</clustering>
</event>
<event>
10    2  0.2421970E-006  0.2729976E+03  0.7546771E-02  0.1099610E+00
         -1   -1    0    0    0  501 -0.00000000000E+00  0.00000000000E+00  0.28705938921E+03  0.28705938921E+03  0.00000000000E+00 0.  1.
         21   -1    0    0  503  502  0.00000000000E+00 -0.00000000000E+00 -0.43842679993E+03  0.43842679993E+03  0.00000000000E+00 0. -1.
         23    2    1    2    0    0 -0.14603672680E+03  0.18773063384E+03  0.68024145642E+02  0.26390127864E+03  0.91908019342E+02 0.  0.
         23    2    1    2    0    0  0.16790844276E+03 -0.25666076859E+03 -0.15322740055E+03  0.35514093567E+03  0.92619936413E+02 0.  0.
        -11    1    3    3    0    0 -0.14742334435E+03  0.15078932487E+03  0.79227955139E+02  0.22527346011E+03  0.00000000000E+00 0.  1.
         11    1    3    3    0    0  0.13866175523E+01  0.36941308977E+02 -0.11203809498E+02  0.38627818530E+02  0.00000000000E+00 0. -1.
        -13    1    4    4    0    0  0.11823504041E+03 -0.17832994383E+03 -0.56867283896E+02  0.22139327366E+03  0.00000000000E+00 0. -1.
         13    1    4    4    0    0  0.49673402355E+02 -0.78330824767E+02 -0.96360116652E+02  0.13374766200E+03  0.00000000000E+00 0.  1.
         21    1    1    2  503  501 -0.38363373722E+01  0.40245316132E+02 -0.59462517817E+02  0.71904060943E+02  0.00000000000E+00 0.  1.
         -1    1    1    2    0  502 -0.18035378591E+02  0.28684818619E+02 -0.67016379956E+01  0.34539913896E+02  0.00000000000E+00 0.  1.
<scales pt_clust_5="13000.00000" pt_clust_6="13000.00000" pt_clust_7="13000.00000" pt_clust_8="13000.00000" pt_clust_9="45.24940" pt_clust_10="33.88355"></scales>
<clustering>
<clus scale="   33.884">  2 10  1 -1</clus>
<clus scale="   45.249">  2  9  1 -1</clus>
<clus scale="   91.908">  5  6 -1 -1</clus>
<clus scale="   92.620">  7  8 -1 -1</clus>
<clus scale="  272.757">  1  5  2 -1</clus>
<clus scale="   33.884">  2  5  1 -1</clus>
</clustering>
</event>
<event>
10    2  0.2421970E-006  0.1258507E+03  0.7546771E-02  0.1242878E+00
         -2   -1    0    0    0  501 -0.00000000000E+00  0.00000000000E+00  0.55360343174E+02  0.55360343174E+02  0.00000000000E+00 0.  1.
         21   -1    0    0  501  502  0.00000000000E+00 -0.00000000000E+00 -0.77901280276E+03  0.77901280276E+03  0.00000000000E+00 0.  1.
         23    2    1    2    0    0  0.50178021378E+02 -0.14661319193E+02 -0.37841597550E+02  0.11113293857E+03  0.90475164656E+02 0.  0.
         23    2    1    2    0    0  0.26169094142E+02 -0.60973703539E+02 -0.29652973108E+03  0.31705744249E+03  0.90514785611E+02 0.  0.
        -11    1    4    4    0    0  0.52347477903E+02 -0.56517749307E+02 -0.15534587150E+03  0.17339796487E+03  0.00000000000E+00 0.  1.
         11    1    4    4    0    0 -0.26178383762E+02 -0.44559542323E+01 -0.14118385958E+03  0.14365947762E+03  0.00000000000E+00 0. -1.
        -13    1    3    3    0    0  0.93608441418E+01 -0.49644512080E+02 -0.14774394893E+02  0.52635403743E+02  0.00000000000E+00 0. -1.
         13    1    3    3    0    0  0.40817177236E+02  0.34983192887E+02 -0.23067202657E+02  0.58497534824E+02  0.00000000000E+00 0.  1.
         21    1    1    2  503  502 -0.37232779627E+02  0.29546422784E+02 -0.10091207470E+03  0.11154603444E+03  0.00000000000E+00 0.  1.
         -2    1    1    2    0  503 -0.39114335893E+02  0.46088599948E+02 -0.28836905625E+03  0.29463673044E+03  0.00000000000E+00 0.  1.
<scales pt_clust_5="13000.00000" pt_clust_6="13000.00000" pt_clust_7="13000.00000" pt_clust_8="13000.00000" pt_clust_9="38.60232" pt_clust_10="97.67595"></scales>
<clustering>
<clus scale="   38.602">  9 10 -1 -1</clus>
<clus scale="   90.475">  7  8 -1 -1</clus>
<clus scale="   90.515">  5  6 -1 -1</clus>
<clus scale="  104.492">  1  7  2 -1</clus>
<clus scale="   97.676">  2  9  1 -1</clus>
<clus scale="   97.676">  2  5  1 -1</clus>
</clustering>
</event>
<event>
10    2  0.2421970E-006  0.1225255E+03  0.7546771E-02  0.1239859E+00
          3   -1    0    0  503    0 -0.00000000000E+00  0.00000000000E+00  0.42666806908E+03  0.42666806908E+03  0.00000000000E+00 0. -1.
         21   -1    0    0  501  502  0.00000000000E+00 -0.00000000000E+00 -0.18655228090E+03  0.18655228090E+03  0.00000000000E+00 0.  1.
         23    2    1    2    0    0 -0.80960766922E+02  0.18921291032E+02  0.33284054780E+03  0.35578539369E+03  0.94274890963E+02 0.  0.
         23    2    1    2    0    0  0.45452717375E+02 -0.54707926936E+02  0.29557972536E+02  0.11957328340E+03  0.91461410317E+02 0.  0.
        -11    1    4    4    0    0  0.23378971999E+02  0.62447381706E+01  0.46631272613E+02  0.52536165372E+02  0.00000000000E+00 0. -1.
         11    1    4    4    0    0  0.22073745376E+02 -0.60952665106E+02 -0.17073300076E+02  0.67037118032E+02  0.00000000000E+00 0.  1.
        -13    1    3    3    0    0 -0.10167455355E+03  0.74550185183E+01  0.26512781692E+03  0.28405290255E+03  0.00000000000E+00 0.  1.
         13    1    3    3    0    0  0.20713786628E+02  0.11466272513E+02  0.67712730879E+02  0.71732491138E+02  0.00000000000E+00 0. -1.
         21    1    1    2  503  502  0.31998449655E+02  0.51720097592E+01 -0.54647228559E+02  0.63537154913E+02  0.00000000000E+00 0.  1.
          3    1    1    2  501    0  0.35095998927E+01  0.30614626145E+02 -0.67635503599E+02  0.74324517977E+02  0.00000000000E+00 0. -1.
<scales pt_clust_5="13000.00000" pt_clust_6="13000.00000" pt_clust_7="13000.00000" pt_clust_8="13000.00000" pt_clust_9="39.69450" pt_clust_10="30.81514"></scales>
<clustering>
<clus scale="   30.815">  2 10  1 -1</clus>
<clus scale="   39.695">  2  9  1 -1</clus>
<clus scale="   91.461">  5  6 -1 -1</clus>
<clus scale="   94.275">  7  8 -1 -1</clus>
<clus scale="  120.374">  2  5  1 -1</clus>
<clus scale="   30.815">  2  5  1 -1</clus>
</clustering>
</event>
<event>
10    2  0.2421970E-006  0.2005971E+03  0.7546771E-02  0.1149290E+00
         -1   -1    0    0    0  501 -0.00000000000E+00  0.00000000000E+00  0.36087504163E+03  0.36087504163E+03  0.00000000000E+00 0.  1.
         21   -1    0    0  501  502  0.00000000000E+00 -0.00000000000E+00 -0.39441837708E+03  0.39441837708E+03  0.00000000000E+00 0.  1.
         23    2    1    2    0    0  0.14871394553E+03  0.10216272694E+03  0.22392476573E+03  0.30167118722E+03  0.91159991870E+02 0.  0.
         23    2    1    2    0    0 -0.17571204435E+03 -0.46191147865E+02 -0.17984767728E+02  0.20381058424E+03  0.90592260750E+02 0.  0.
        -13    1    4    4    0    0 -0.15048808953E+03 -0.20505473858E+02  0.17961213705E+02  0.15293706139E+03  0.00000000000E+00 0. -1.
         13    1    4    4    0    0 -0.25223954813E+02 -0.25685674007E+02 -0.35945981433E+02  0.50873522846E+02  0.00000000000E+00 0.  1.
        -13    1    3    3    0    0  0.13276923716E+03  0.54832817217E+02  0.20013797453E+03  0.24635242444E+03  0.00000000000E+00 0.  1.
         13    1    3    3    0    0  0.15944708376E+02  0.47329909722E+02  0.23786791203E+02  0.55318762777E+02  0.00000000000E+00 0. -1.
         21    1    1    2  503  502  0.18988627678E+02 -0.85627879922E+01 -0.46909451556E+02  0.51326269732E+02  0.00000000000E+00 0.  1.
         -1    1    1    2    0  503  0.80094711346E+01 -0.47408791082E+02 -0.19257388190E+03  0.19848537752E+03  0.00000000000E+00 0.  1.
<scales pt_clust_5="13000.00000" pt_clust_6="13000.00000" pt_clust_7="13000.00000" pt_clust_8="13000.00000" pt_clust_9="20.83001" pt_clust_10="55.52353"></scales>
<clustering>
<clus scale="   20.830">  2  9  1 -1</clus>
<clus scale="   55.524">  2 10  1 -1</clus>
<clus scale="   90.592">  5  6 -1 -1</clus>
<clus scale="   91.160">  7  8 -1 -1</clus>
<clus scale="  200.340">  2  5  1 -1</clus>
<clus scale="   20.830">  2  5  1 -1</clus>
</clustering>
</event>
<event>
10    2  0.2421970E-006  0.2885381E+03  0.7546771E-02  0.1124329E+00
         -1   -1    0    0    0  501 -0.00000000000E+00  0.00000000000E+00  0.15678303999E+03  0.15678303999E+03  0.00000000000E+00 0.  1.
         21   -1    0    0  501  502  0.00000000000E+00 -0.00000000000E+00 -0.85923508228E+03  0.85923508228E+03  0.00000000000E+00 0.  1.
         23    2    1    2    0    0  0.65670593357E+02  0.52465896180E+02 -0.89132380310E+02  0.15218664191E+03  0.90282310898E+02 0.  0.
         23    2    1    2    0    0 -0.25152898060E+03 -0.21087940006E+03 -0.27687721803E+03  0.43890698985E+03  0.90782170189E+02 0.  0.
        -11    1    4    4    0    0 -0.75436844436E+02 -0.16946238291E+02 -0.47645957102E+02  0.90818663934E+02  0.00000000000E+00 0. -1.
         11    1    4    4    0    0 -0.17609213617E+03 -0.19393316176E+03 -0.22923126093E+03  0.34808832592E+03  0.00000000000E+00 0.  1.
        -13    1    3    3    0    0 -0.16308400821E+02  0.36300227234E+02 -0.29028093144E+02  0.49257493096E+02  0.00000000000E+00 0. -1.
         13    1    3    3    0    0  0.81978994178E+02  0.16165668946E+02 -0.60104287166E+02  0.10292914881E+03  0.00000000000E+00 0.  1.
         21    1    1    2  503  502  0.11730691570E+03  0.58279287660E+02 -0.22400276720E+03  0.25948916654E+03  0.00000000000E+00 0.  1.
         -1    1    1    2    0  503  0.68551471547E+02  0.10013421622E+03 -0.11243967675E+03  0.16543532396E+03  0.00000000000E+00 0.  1.
<scales pt_clust_5="13000.00000" pt_clust_6="13000.00000" pt_clust_7="13000.00000" pt_clust_8="13000.00000" pt_clust_9="84.62035" pt_clust_10="287.64902"></scales>
<clustering>
<clus scale="   84.620">  9 10 -1 -1</clus>
<clus scale="   90.282">  7  8 -1 -1</clus>
<clus scale="   90.782">  5  6 -1 -1</clus>
<clus scale="  123.354">  1  7  2 -1</clus>
<clus scale="  287.649">  2  9  1 -1</clus>
<clus scale="  287.649">  2  5  1 -1</clus>
</clustering>
</event>
<event>
10    2  0.2421970E-006  0.1506429E+03  0.7546771E-02  0.1205187E+00
         21   -1    0    0  501  502  0.00000000000E+00  0.00000000000E+00  0.91077772683E+02  0.91077772683E+02  0.00000000000E+00 0. -1.
          1   -1    0    0  503    0 -0.00000000000E+00 -0.00000000000E+00 -0.55231749701E+03  0.55231749701E+03  0.00000000000E+00 0. -1.
         23    2    1    2    0    0 -0.43699054492E+02 -0.59835570436E+02 -0.20198681100E+03  0.24337865426E+03  0.11377431468E+03 0.  0.
         23    2    1    2    0    0  0.75062828706E+02  0.98576877087E+02 -0.25680168295E+03  0.29906040206E+03  0.90211921408E+02 0.  0.
        -11    1    4    4    0    0 -0.12975251342E+02  0.49243634658E+02 -0.10611642774E+03  0.11770296912E+03  0.00000000000E+00 0.  1.
         11    1    4    4    0    0  0.88038080048E+02  0.49333242430E+02 -0.15068525521E+03  0.18135743295E+03  0.00000000000E+00 0. -1.
        -13    1    3    3    0    0 -0.21905432052E+02 -0.84159768871E+02 -0.18933985507E+03  0.20835617430E+03  0.00000000000E+00 0.  1.
         13    1    3    3    0    0 -0.21793622440E+02  0.24324198435E+02 -0.12646955923E+02  0.35022479962E+02  0.00000000000E+00 0. -1.
         21    1    1    2  503  502 -0.32171944479E+02  0.13632280381E+02 -0.25973410181E+02  0.43537238273E+02  0.00000000000E+00 0.  1.
          1    1    1    2  501    0  0.80817026565E+00 -0.52373587032E+02  0.23522179808E+02  0.57418975093E+02  0.00000000000E+00 0. -1.
<scales pt_clust_5="13000.00000" pt_clust_6="13000.00000" pt_clust_7="13000.00000" pt_clust_8="13000.00000" pt_clust_9="34.94099" pt_clust_10="48.07398"></scales>
<clustering>
<clus scale="   34.941">  1  9  2 -1</clus>
<clus scale="   48.074">  1 10  2 -1</clus>
<clus scale="   90.212">  5  6 -1 -1</clus>
<clus scale="  113.774">  7  8 -1 -1</clus>
<clus scale="  133.742">  1  5  2 -1</clus>
<clus scale="   34.941">  1  5  2 -1</clus>
</clustering>
</event>
<event>
10    2  0.2421970E-006  0.1189076E+03  0.7546771E-02  0.1245363E+00
         -4   -1    0    0    0  501 -0.00000000000E+00  0.00000000000E+00  0.29790241948E+03  0.29790241948E+03  0.00000000000E+00 0.  1.
         21   -1    0    0  503  502  0.00000000000E+00 -0.00000000000E+00 -0.25450141940E+03  0.25450141940E+03  0.00000000000E+00 0. -1.
         23    2    1    2    0    0  0.77928396730E+02  0.83239395403E+01  0.25804286317E+03  0.28441434571E+03  0.90350859575E+02 0.  0.
         23    2    1    2    0    0 -0.40555126362E+02 -0.21477555487E+02 -0.14166794316E+03  0.17491280868E+03  0.91753369731E+02 0.  0.
        -11    1    3    3    0    0  0.39433903554E+02  0.11208622853E+02  0.23686043706E+03  0.24038205553E+03  0.00000000000E+00 0.  1.
         11    1    3    3    0    0  0.38494493177E+02 -0.28846833129E+01  0.21182426112E+02  0.44032290183E+02  0.00000000000E+00 0. -1.
        -11    1    4    4    0    0  0.10849587579E+02  0.17178592936E+02 -0.11215957972E+01  0.20348847216E+02  0.00000000000E+00 0.  1.
         11    1    4    4    0    0 -0.51404713941E+02 -0.38656148423E+02 -0.14054634737E+03  0.15456396147E+03  0.00000000000E+00 0. -1.
         21    1    1    2  503  501 -0.31014416908E+02 -0.66718348631E+01 -0.23745330772E+02  0.39626357012E+02  0.00000000000E+00 0. -1.
         -4    1    1    2    0  502 -0.63588534599E+01  0.19825450810E+02 -0.49228589160E+02  0.53450327481E+02  0.00000000000E+00 0.  1.
<scales pt_clust_5="13000.00000" pt_clust_6="13000.00000" pt_clust_7="13000.00000" pt_clust_8="13000.00000" pt_clust_9="32.20574" pt_clust_10="20.82027"></scales>
<clustering>
<clus scale="   20.820">  2 10  1 -1</clus>
<clus scale="   32.206">  2  9  1 -1</clus>
<clus scale="   90.351">  5  6 -1 -1</clus>
<clus scale="   91.753">  7  8 -1 -1</clus>
<clus scale="  117.829">  1  5  2 -1</clus>
<clus scale="   20.820">  2  5  1 -1</clus>
</clustering>
</event>
<event>
10    2  0.2421970E-006  0.1188355E+03  0.7546771E-02  0.1249814E+00
         21   -1    0    0  501  502  0.00000000000E+00  0.00000000000E+00  0.46018318741E+03  0.46018318741E+03  0.00000000000E+00 0. -1.
          4   -1    0    0  503    0 -0.00000000000E+00 -0.00000000000E+00 -0.21696106291E+03  0.21696106291E+03  0.00000000000E+00 0. -1.
         23    2    1    2    0    0  0.30042833016E+02  0.68972249155E+02 -0.16278779435E+03  0.20732646733E+03  0.10404160272E+03 0.  0.
         23    2    1    2    0    0 -0.24499310011E+01  0.27892220247E+02  0.79837701325E+02  0.12456446087E+03  0.91423565056E+02 0.  0.
        -11    1    3    3    0    0  0.65965669220E+02  0.64347518636E+02 -0.11520735567E+03  0.14752900552E+03  0.00000000000E+00 0. -1.
         11    1    3    3    0    0 -0.35922836204E+02  0.46247305191E+01 -0.47580438686E+02  0.59797461809E+02  0.00000000000E+00 0.  1.
        -11    1    4    4    0    0 -0.24768197755E+01 -0.31246294207E+02  0.96761563383E+01  0.32803864702E+02  0.00000000000E+00 0.  1.
         11    1    4    4    0    0  0.26888774356E-01  0.59138514454E+02  0.70161544986E+02  0.91760596171E+02  0.00000000000E+00 0. -1.
         21    1    1    2  503  502 -0.17112230846E+02 -0.12351470096E+02  0.12544932442E+03  0.12721210734E+03  0.00000000000E+00 0. -1.
          4    1    1    2  501    0 -0.10480671169E+02 -0.84512999306E+02  0.20072289311E+03  0.21804121477E+03  0.00000000000E+00 0. -1.
<scales pt_clust_5="13000.00000" pt_clust_6="13000.00000" pt_clust_7="13000.00000" pt_clust_8="13000.00000" pt_clust_9="21.10420" pt_clust_10="94.66677"></scales>
<clustering>
<clus scale="   21.104">  1  9  2 -1</clus>
<clus scale="   91.424">  7  8 -1 -1</clus>
<clus scale="   94.667">  1 10  2 -1</clus>
<clus scale="  104.042">  5  6 -1 -1</clus>
<clus scale="  107.961">  1  7  2 -1</clus>
<clus scale="   21.104">  1  5  2 -1</clus>
</clustering>
</event>
<event>
10    2  0.2421970E-006  0.9566677E+02  0.7546771E-02  0.1290602E+00
          1   -1    0    0  503    0 -0.00000000000E+00  0.00000000000E+00  0.22671896606E+03  0.22671896606E+03  0.00000000000E+00 0. -1.
         21   -1    0    0  501  502  0.00000000000E+00 -0.00000000000E+00 -0.42196968195E+03  0.42196968195E+03  0.00000000000E+00 0. -1.
         23    2    1    2    0    0  0.12101330699E+02 -0.10407945482E+02  0.15744936765E+03  0.18314379580E+03  0.92176889900E+02 0.  0.
         23    2    1    2    0    0 -0.47793754908E+02  0.61205990138E+02 -0.16261708589E+02  0.12033833788E+03  0.90479037130E+02 0.  0.
        -11    1    3    3    0    0  0.19174494962E+02  0.37412276877E+02  0.97178610192E+02  0.10588211368E+03  0.00000000000E+00 0.  1.
         11    1    3    3    0    0 -0.70731642635E+01 -0.47820222359E+02  0.60270757459E+02  0.77261682119E+02  0.00000000000E+00 0. -1.
        -11    1    4    4    0    0 -0.43423151928E+02  0.84778687930E+02 -0.12439372251E+02  0.96061095311E+02  0.00000000000E+00 0. -1.
         11    1    4    4    0    0 -0.43706029806E+01 -0.23572697791E+02 -0.38223363377E+01  0.24277242567E+02  0.00000000000E+00 0.  1.
         21    1    1    2  503  502  0.56306815084E+01 -0.31466962324E+02 -0.77814828947E+02  0.84125037273E+02  0.00000000000E+00 0.  1.
          1    1    1    2  501    0  0.30061742701E+02 -0.19331082333E+02 -0.25862354600E+03  0.26108147706E+03  0.00000000000E+00 0. -1.
<scales pt_clust_5="13000.00000" pt_clust_6="13000.00000" pt_clust_7="13000.00000" pt_clust_8="13000.00000" pt_clust_9="31.96677" pt_clust_10="55.27966"></scales>
<clustering>
<clus scale="   31.967">  2  9  1 -1</clus>
<clus scale="   55.280">  2 10  1 -1</clus>
<clus scale="   90.479">  7  8 -1 -1</clus>
<clus scale="   92.177">  5  6 -1 -1</clus>
<clus scale="   94.032">  2  7  1 -1</clus>
<clus scale="   31.967">  2  5  1 -1</clus>
</clustering>
</event>
<event>
10    2  0.2421970E-006  0.1108945E+03  0.7546771E-02  0.1259607E+00
         21   -1    0    0  503  502  0.00000000000E+00  0.00000000000E+00  0.10264929935E+04  0.10264929935E+04  0.00000000000E+00 0.  1.
         -1   -1    0    0    0  501 -0.00000000000E+00 -0.00000000000E+00 -0.51502215773E+02  0.51502215773E+02  0.00000000000E+00 0.  1.
         23    2    1    2    0    0 -0.58181674153E+01 -0.38006156143E+02  0.10355298417E+03  0.14390936484E+03  0.92240803237E+02 0.  0.
         23    2    1    2    0    0 -0.76738483475E+02  0.87915632230E+02  0.18600494191E+03  0.23748068517E+03  0.90450451505E+02 0.  0.
        -11    1    3    3    0    0  0.40439593462E+02 -0.12019638318E+02  0.68060061624E+02  0.80074992431E+02  0.00000000000E+00 0.  1.
         11    1    3    3    0    0 -0.46257760877E+02 -0.25986517825E+02  0.35492922541E+02  0.63834372407E+02  0.00000000000E+00 0. -1.
        -13    1    4    4    0    0 -0.31321836127E+02  0.93019686705E+02  0.10019901817E+03  0.14026247814E+03  0.00000000000E+00 0.  1.
         13    1    4    4    0    0 -0.45416647348E+02 -0.51040544751E+01  0.85805923737E+02  0.97218207023E+02  0.00000000000E+00 0. -1.
         21    1    1    2  503  501  0.61404630915E+02  0.86302175786E+01  0.34601368098E+03  0.35152592619E+03  0.00000000000E+00 0.  1.
         -1    1    1    2    0  502  0.21152019975E+02 -0.58539693665E+02  0.33941917067E+03  0.34507923308E+03  0.00000000000E+00 0.  1.
<scales pt_clust_5="13000.00000" pt_clust_6="13000.00000" pt_clust_7="13000.00000" pt_clust_8="13000.00000" pt_clust_9="62.00814" pt_clust_10="75.20922"></scales>
<clustering>
<clus scale="   62.008">  1  9  2 -1</clus>
<clus scale="   75.209">  1 10  2 -1</clus>
<clus scale="   90.450">  7  8 -1 -1</clus>
<clus scale="   92.241">  5  6 -1 -1</clus>
<clus scale="  109.410">  1  7  2 -1</clus>
<clus scale="   62.008">  1  5  2 -1</clus>
</clustering>
</event>
<event>
10    2  0.2421970E-006  0.1252731E+03  0.7546771E-02  0.1234897E+00
         21   -1    0    0  501  502  0.00000000000E+00  0.00000000000E+00  0.66981389832E+03  0.66981389832E+03  0.00000000000E+00 0. -1.
          1   -1    0    0  503    0 -0.00000000000E+00 -0.00000000000E+00 -0.89628436800E+02  0.89628436800E+02  0.00000000000E+00 0. -1.
         23    2    1    2    0    0  0.67382639909E+02  0.54805931214E+02  0.73862361583E+02  0.14573621984E+03  0.90770518659E+02 0.  0.
         23    2    1    2    0    0 -0.10657081529E+03  0.32167014586E+02  0.99553932684E+02  0.17429814842E+03  0.89871038339E+02 0.  0.
        -11    1    4    4    0    0 -0.57505380217E+02 -0.22772426918E+02  0.73743303401E+02  0.96247218028E+02  0.00000000000E+00 0.  1.
         11    1    4    4    0    0 -0.49065435070E+02  0.54939441504E+02  0.25810629283E+02  0.78050930394E+02  0.00000000000E+00 0. -1.
        -13    1    3    3    0    0  0.10801879867E+02  0.65143873124E+02  0.26214986798E+02  0.71046677241E+02  0.00000000000E+00 0.  1.
         13    1    3    3    0    0  0.56580760042E+02 -0.10337941910E+02  0.47647374785E+02  0.74689542600E+02  0.00000000000E+00 0. -1.
         21    1    1    2  503  502  0.26204778550E+02  0.34884811085E+02  0.10882905704E+03  0.11724932460E+03  0.00000000000E+00 0. -1.
          1    1    1    2  501    0  0.12983396828E+02 -0.12185775688E+03  0.29794011021E+03  0.32215864226E+03  0.00000000000E+00 0. -1.
<scales pt_clust_5="13000.00000" pt_clust_6="13000.00000" pt_clust_7="13000.00000" pt_clust_8="13000.00000" pt_clust_9="43.63073" pt_clust_10="106.07855"></scales>
<clustering>
<clus scale="   43.631">  1  9  2 -1</clus>
<clus scale="   89.871">  5  6 -1 -1</clus>
<clus scale="   90.771">  7  8 -1 -1</clus>
<clus scale="  106.079">  1 10  2 -1</clus>
<clus scale="  124.623">  1  5  2 -1</clus>
<clus scale="   43.631">  1  5  2 -1</clus>
</clustering>
</event>
<event>
10    2  0.2421970E-006  0.2596519E+03  0.7546771E-02  0.1134975E+00
         21   -1    0    0  503  502  0.00000000000E+00  0.00000000000E+00  0.26258244436E+03  0.26258244436E+03  0.00000000000E+00 0. -1.
          1   -1    0    0  502    0 -0.00000000000E+00 -0.00000000000E+00 -0.43604153949E+03  0.43604153949E+03  0.00000000000E+00 0. -1.
         23    2    1    2    0    0 -0.79960534606E+02  0.53583427000E+02 -0.11227678370E+03  0.17200394891E+03  0.87831722853E+02 0.  0.
         23    2    1    2    0    0 -0.90652507335E+02 -0.23224414601E+03 -0.63227662577E+02  0.27263465617E+03  0.90425096020E+02 0.  0.
        -13    1    3    3    0    0 -0.11985319327E+02  0.60564462551E+02 -0.58435146598E+02  0.85008048804E+02  0.00000000000E+00 0. -1.
         13    1    3    3    0    0 -0.67975215279E+02 -0.69810355508E+01 -0.53841637098E+02  0.86995900105E+02  0.00000000000E+00 0.  1.
        -13    1    4    4    0    0 -0.33546751743E+02 -0.20375028842E+02  0.11382917627E+02  0.40866822320E+02  0.00000000000E+00 0.  1.
         13    1    4    4    0    0 -0.57105755592E+02 -0.21186911717E+03 -0.74610580203E+02  0.23176783385E+03  0.00000000000E+00 0. -1.
         21    1    1    2  503  501  0.15576157549E+03  0.14734259054E+03  0.19282101873E+02  0.21527495636E+03  0.00000000000E+00 0. -1.
          1    1    1    2  501    0  0.14851466450E+02  0.31318128472E+02 -0.17236750727E+02  0.38710422399E+02  0.00000000000E+00 0. -1.
<scales pt_clust_5="13000.00000" pt_clust_6="13000.00000" pt_clust_7="13000.00000" pt_clust_8="13000.00000" pt_clust_9="23.70469" pt_clust_10="250.43628"></scales>
<clustering>
<clus scale="   23.705">  9 10 -1 -1</clus>
<clus scale="   87.832">  5  6 -1 -1</clus>
<clus scale="   90.425">  7  8 -1 -1</clus>
<clus scale="  130.305">  2  5  1 -1</clus>
<clus scale="  250.436">  1  9  2 -1</clus>
<clus scale="  250.436">  1  5  2 -1</clus>
</clustering>
</event>
<event>
10    2  0.2421970E-006  0.1425801E+03  0.7546771E-02  0.1211317E+00
         21   -1    0    0  503  502  0.00000000000E+00  0.00000000000E+00  0.44626644031E+03  0.44626644031E+03  0.00000000000E+00 0.  1.
         -3   -1    0    0    0  501 -0.00000000000E+00 -0.00000000000E+00 -0.17606054840E+03  0.17606054840E+03  0.00000000000E+00 0.  1.
         23    2    1    2    0    0  0.39442715090E+02  0.14380434716E+03 -0.76125605828E+02  0.19407424232E+03  0.98154396908E+02 0.  0.
         23    2    1    2    0    0 -0.50925028557E+02 -0.24747168259E+02  0.10165198650E+03  0.14825440379E+03  0.91871981644E+02 0.  0.
        -11    1    3    3    0    0  0.52317478473E+02  0.42967557009E+02 -0.10626324552E+01  0.67708630889E+02  0.00000000000E+00 0. -1.
         11    1    3    3    0    0 -0.12874763382E+02  0.10083679015E+03 -0.75062973373E+02  0.12636561143E+03  0.00000000000E+00 0.  1.
        -11    1    4    4    0    0  0.20105654718E+01  0.20852987479E+02  0.67129781471E+02  0.70322805836E+02  0.00000000000E+00 0.  1.
         11    1    4    4    0    0 -0.52935594029E+02 -0.45600155738E+02  0.34522205033E+02  0.77931597949E+02  0.00000000000E+00 0. -1.
         21    1    1    2  503  501 -0.60517093291E+00 -0.23425440332E+02  0.85370182497E+01  0.24939891082E+02  0.00000000000E+00 0.  1.
         -3    1    1    2    0  502  0.12087484400E+02 -0.95631738572E+02  0.23614249298E+03  0.25505845153E+03  0.00000000000E+00 0.  1.
<scales pt_clust_5="13000.00000" pt_clust_6="13000.00000" pt_clust_7="13000.00000" pt_clust_8="13000.00000" pt_clust_9="23.43326" pt_clust_10="97.69803"></scales>
<clustering>
<clus scale="   23.433">  2  9  1 -1</clus>
<clus scale="   91.872">  7  8 -1 -1</clus>
<clus scale="   97.698">  1 10  2 -1</clus>
<clus scale="   98.154">  5  6 -1 -1</clus>
<clus scale="  138.330">  1  7  2 -1</clus>
<clus scale="   97.698">  1  5  2 -1</clus>
</clustering>
</event>
<event>
10    2  0.2421970E-006  0.1009837E+03  0.7546771E-02  0.1278842E+00
         21   -1    0    0  503  502  0.00000000000E+00  0.00000000000E+00  0.78162690773E+02  0.78162690773E+02  0.00000000000E+00 0. -1.
         -2   -1    0    0    0  501 -0.00000000000E+00 -0.00000000000E+00 -0.37836826229E+03  0.37836826229E+03  0.00000000000E+00 0. -1.
         23    2    1    2    0    0 -0.83293265422E+01  0.47861686574E+02 -0.17844021354E+03  0.20679011074E+03  0.92526327991E+02 0.  0.
         23    2    1    2    0    0 -0.17544080915E+02 -0.31324671156E+02 -0.12597306744E+03  0.15965060500E+03  0.91269228971E+02 0.  0.
        -11    1    4    4    0    0  0.36214988764E+02 -0.24715056450E+02 -0.53399130237E+02  0.69092883401E+02  0.00000000000E+00 0.  1.
         11    1    4    4    0    0 -0.53759069679E+02 -0.66096147067E+01 -0.72573937206E+02  0.90557721598E+02  0.00000000000E+00 0. -1.
        -11    1    3    3    0    0  0.22119637332E+01  0.73010865113E+02 -0.10067349777E+03  0.12438099678E+03  0.00000000000E+00 0. -1.
         11    1    3    3    0    0 -0.10541290275E+02 -0.25149178539E+02 -0.77766715773E+02  0.82409113962E+02  0.00000000000E+00 0.  1.
         21    1    1    2  503  501 -0.22211554855E+02 -0.32433588873E+02  0.31244468319E+01  0.39434160625E+02  0.00000000000E+00 0.  1.
         -2    1    1    2    0  502  0.48084962312E+02  0.15896573455E+02  0.10832626337E+01  0.50656076694E+02  0.00000000000E+00 0. -1.
<scales pt_clust_5="13000.00000" pt_clust_6="13000.00000" pt_clust_7="13000.00000" pt_clust_8="13000.00000" pt_clust_9="39.31019" pt_clust_10="38.00079"></scales>
<clustering>
<clus scale="   39.310">  1  9  2 -1</clus>
<clus scale="   38.001">  1 10  2 -1</clus>
<clus scale="   91.269">  5  6 -1 -1</clus>
<clus scale="   92.526">  7  8 -1 -1</clus>
<clus scale="   99.833">  1  5  2 -1</clus>
<clus scale="   39.310">  1  5  2 -1</clus>
</clustering>
</event>
<event>
10    2  0.2421970E-006  0.1693290E+03  0.7546771E-02  0.1195485E+00
         21   -1    0    0  501  502  0.00000000000E+00  0.00000000000E+00  0.96656856266E+02  0.96656856266E+02  0.00000000000E+00 0. -1.
         -2   -1    0    0    0  501 -0.00000000000E+00 -0.00000000000E+00 -0.56832141915E+03  0.56832141915E+03  0.00000000000E+00 0.  1.
         23    2    1    2    0    0  0.47553798057E+02 -0.54494109985E+02 -0.22224779878E+03  0.25081363123E+03  0.91007811826E+02 0.  0.
         23    2    1    2    0    0 -0.12131175558E+02 -0.10902250409E+03 -0.17686952571E+03  0.22691443901E+03  0.90411623631E+02 0.  0.
        -11    1    4    4    0    0  0.34408542568E+02 -0.47036858799E+02 -0.11025691593E+03  0.12471167307E+03  0.00000000000E+00 0.  1.
         11    1    4    4    0    0 -0.46539718126E+02 -0.61985645294E+02 -0.66612609774E+02  0.10220276594E+03  0.00000000000E+00 0. -1.
        -11    1    3    3    0    0  0.68818327447E+02 -0.13604798971E+02 -0.13261634389E+03  0.15002715559E+03  0.00000000000E+00 0.  1.
         11    1    3    3    0    0 -0.21264529390E+02 -0.40889311014E+02 -0.89631454889E+02  0.10078647563E+03  0.00000000000E+00 0. -1.
         21    1    1    2  503  502 -0.13561904989E+02  0.10905624314E+03 -0.27540488219E+02  0.11329460678E+03  0.00000000000E+00 0.  1.
         -2    1    1    2    0  503 -0.21860717511E+02  0.54460370937E+02 -0.45006750173E+02  0.73955598395E+02  0.00000000000E+00 0.  1.
<scales pt_clust_5="13000.00000" pt_clust_6="13000.00000" pt_clust_7="13000.00000" pt_clust_8="13000.00000" pt_clust_9="31.06411" pt_clust_10="149.34906"></scales>
<clustering>
<clus scale="   31.064">  9 10 -1 -1</clus>
<clus scale="   90.412">  5  6 -1 -1</clus>
<clus scale="   91.008">  7  8 -1 -1</clus>
<clus scale="  116.247">  2  7  1 -1</clus>
<clus scale="  149.349">  1  9  2 -1</clus>
<clus scale="  149.349">  1  5  2 -1</clus>
</clustering>
</event>
<event>
10    2  0.2421970E-006  0.1322338E+03  0.7546771E-02  0.1224627E+00
         21   -1    0    0  503  502  0.00000000000E+00  0.00000000000E+00  0.11119568739E+03  0.11119568739E+03  0.00000000000E+00 0. -1.
         -1   -1    0    0    0  501 -0.00000000000E+00 -0.00000000000E+00 -0.45117041136E+03  0.45117041136E+03  0.00000000000E+00 0.  1.
         23    2    1    2    0    0  0.12097580645E+03  0.29001322113E+02 -0.30958954953E+03  0.34582649893E+03  0.90961836762E+02 0.  0.
         23    2    1    2    0    0 -0.46852988863E+02 -0.57686074063E+02 -0.27426047622E+02  0.11926890459E+03  0.89162760207E+02 0.  0.
        -13    1    4    4    0    0 -0.39970009547E+02  0.14554222660E+02 -0.27711394892E+01  0.42627529538E+02  0.00000000000E+00 0.  1.
         13    1    4    4    0    0 -0.68829793153E+01 -0.72240296723E+02 -0.24654908133E+02  0.76641375052E+02  0.00000000000E+00 0. -1.
        -13    1    3    3    0    0  0.32963001743E+02  0.44872740252E+02 -0.66059380596E+02  0.86394236302E+02  0.00000000000E+00 0.  1.
         13    1    3    3    0    0  0.88012804712E+02 -0.15871418139E+02 -0.24353016894E+03  0.25943226262E+03  0.00000000000E+00 0. -1.
         21    1    1    2  503  501 -0.29638852328E+02  0.19540145597E+02 -0.28178043838E+02  0.45324176902E+02  0.00000000000E+00 0.  1.
         -1    1    1    2    0  502 -0.44483965264E+02  0.91446063532E+01  0.25218917020E+02  0.51946518330E+02  0.00000000000E+00 0.  1.
<scales pt_clust_5="13000.00000" pt_clust_6="13000.00000" pt_clust_7="13000.00000" pt_clust_8="13000.00000" pt_clust_9="35.50041" pt_clust_10="46.47918"></scales>
<clustering>
<clus scale="   35.500">  2  9  1 -1</clus>
<clus scale="   46.479">  1 10  2 -1</clus>
<clus scale="   89.163">  5  6 -1 -1</clus>
<clus scale="   90.962">  7  8 -1 -1</clus>
<clus scale="  131.003">  1  5  2 -1</clus>
<clus scale="   46.479">  1  5  2 -1</clus>
</clustering>
</event>
<event>
10    2  0.2421970E-006  0.1157670E+03  0.7546771E-02  0.1251922E+00
         -2   -1    0    0    0  501 -0.00000000000E+00  0.00000000000E+00  0.21230239117E+03  0.21230239117E+03  0.00000000000E+00 0.  1.
         21   -1    0    0  503  502  0.00000000000E+00 -0.00000000000E+00 -0.13838550759E+03  0.13838550759E+03  0.00000000000E+00 0.  1.
         23    2    1    2    0    0 -0.18388249786E+01 -0.70490534224E+02  0.55698362497E+02  0.12971970594E+03  0.93555319635E+02 0.  0.
         23    2    1    2    0    0 -0.26574785544E+02  0.63624698377E+02  0.49057231922E+02  0.12266972626E+03  0.88808379485E+02 0.  0.
        -11    1    4    4    0    0  0.26421417141E+02  0.51602154149E+02  0.28121416705E+02  0.64433591193E+02  0.00000000000E+00 0.  1.
         11    1    4    4    0    0 -0.52996202686E+02  0.12022544229E+02  0.20935815217E+02  0.58236135068E+02  0.00000000000E+00 0. -1.
        -11    1    3    3    0    0  0.34417384650E+02 -0.66803192521E+02  0.55251852999E+02  0.93273737766E+02  0.00000000000E+00 0.  1.
         11    1    3    3    0    0 -0.36256209628E+02 -0.36873417031E+01  0.44650949794E+00  0.36445968174E+02  0.00000000000E+00 0. -1.
         21    1    1    2  503  501  0.49059497059E+02 -0.18296983874E+00  0.11749975923E+02  0.50447295902E+02  0.00000000000E+00 0.  1.
         -2    1    1    2    0  502 -0.20645886536E+02  0.70488056850E+01 -0.42588686765E+02  0.47851170652E+02  0.00000000000E+00 0.  1.
<scales pt_clust_5="13000.00000" pt_clust_6="13000.00000" pt_clust_7="13000.00000" pt_clust_8="13000.00000" pt_clust_9="44.79007" pt_clust_10="21.81601"></scales>
<clustering>
<clus scale="   21.816">  2 10  1 -1</clus>
<clus scale="   44.790">  2  9  1 -1</clus>
<clus scale="   88.808">  5  6 -1 -1</clus>
<clus scale="   93.555">  7  8 -1 -1</clus>
<clus scale="  111.966">  2  5  1 -1</clus>
<clus scale="   21.816">  2  5  1 -1</clus>
</clustering>
</event>
<event>
10    2  0.2421970E-006  0.1155792E+03  0.7546771E-02  0.1251278E+00
         21   -1    0    0  503  502  0.00000000000E+00  0.00000000000E+00  0.11821897261E+03  0.11821897261E+03  0.00000000000E+00 0.  1.
          2   -1    0    0  502    0 -0.00000000000E+00 -0.00000000000E+00 -0.39716139733E+03  0.39716139733E+03  0.00000000000E+00 0. -1.
         23    2    1    2    0    0  0.64314640311E+02 -0.69673342706E+01 -0.32840558732E+03  0.34916825033E+03  0.99414891015E+02 0.  0.
         23    2    1    2    0    0 -0.25891842687E+02  0.12093071756E+02  0.12602239958E+02  0.10241398995E+03  0.97535526778E+02 0.  0.
        -13    1    3    3    0    0  0.49104303039E+02 -0.32454549609E+02 -0.30695512164E+03  0.31254755969E+03  0.00000000000E+00 0. -1.
         13    1    3    3    0    0  0.15210337272E+02  0.25487215338E+02 -0.21450465680E+02  0.36620690648E+02  0.00000000000E+00 0.  1.
        -13    1    4    4    0    0 -0.23420081882E+02 -0.38573081589E+02  0.22974457449E+02  0.50638014907E+02  0.00000000000E+00 0.  1.
         13    1    4    4    0    0 -0.24717608046E+01  0.50666153345E+02 -0.10372217491E+02  0.51775975045E+02  0.00000000000E+00 0. -1.
         21    1    1    2  503  501 -0.18429215739E+02  0.13868188920E+02  0.94802972288E+01  0.24936693691E+02  0.00000000000E+00 0.  1.
          2    1    1    2  501    0 -0.19993581885E+02 -0.18993926405E+02  0.27380625418E+02  0.38861435964E+02  0.00000000000E+00 0. -1.
<scales pt_clust_5="13000.00000" pt_clust_6="13000.00000" pt_clust_7="13000.00000" pt_clust_8="13000.00000" pt_clust_9="23.06432" pt_clust_10="29.77585"></scales>
<clustering>
<clus scale="   23.064">  1  9  2 -1</clus>
<clus scale="   29.776">  1 10  2 -1</clus>
<clus scale="   97.536">  7  8 -1 -1</clus>
<clus scale="   99.415">  5  6 -1 -1</clus>
<clus scale="  113.967">  1  7  2 -1</clus>
<clus scale="   23.064">  1  5  2 -1</clus>
</clustering>
</event>
<event>
10    2  0.2421970E-006  0.2495229E+03  0.7546771E-02  0.1113701E+00
         21   -1    0    0  503  502  0.00000000000E+00  0.00000000000E+00  0.26970252920E+03  0.26970252920E+03  0.00000000000E+00 0.  1.
         -3   -1    0    0    0  501 -0.00000000000E+00 -0.00000000000E+00 -0.81107635583E+03  0.81107635583E+03  0.00000000000E+00 0.  1.
         23    2    1    2    0    0  0.62614515941E+02 -0.18899314530E+03 -0.26139366082E+03  0.34095047291E+03  0.91003255349E+02 0.  0.
         23    2    1    2    0    0  0.10176035996E+03  0.30066380388E+03 -0.36120288245E+03  0.48969394785E+03  0.92621522591E+02 0.  0.
        -11    1    4    4    0    0  0.42339687912E+02  0.16750532120E+03 -0.26011145406E+03  0.31226375123E+03  0.00000000000E+00 0.  1.
         11    1    4    4    0    0  0.59420672046E+02  0.13315848269E+03 -0.10109142840E+03  0.17743019662E+03  0.00000000000E+00 0. -1.
        -11    1    3    3    0    0  0.56530480091E+01 -0.10624760445E+03 -0.78281185517E+02  0.13209259786E+03  0.00000000000E+00 0. -1.
         11    1    3    3    0    0  0.56961467932E+02 -0.82745540853E+02 -0.18311247531E+03  0.20885787506E+03  0.00000000000E+00 0.  1.
         21    1    1    2  503  501 -0.12503754086E+03 -0.75902842945E+01  0.45482099194E+02  0.13326897759E+03  0.00000000000E+00 0. -1.
         -3    1    1    2    0  502 -0.39337335034E+02 -0.10408037429E+03  0.35740617454E+02  0.11686548667E+03  0.00000000000E+00 0.  1.
<scales pt_clust_5="13000.00000" pt_clust_6="13000.00000" pt_clust_7="13000.00000" pt_clust_8="13000.00000" pt_clust_9="153.66264" pt_clust_10="111.26612"></scales>
<clustering>
<clus scale="   91.003">  7  8 -1 -1</clus>
<clus scale="   92.622">  5  6 -1 -1</clus>
<clus scale="  111.266">  1 10  2 -1</clus>
<clus scale="  153.663">  1  9  2 -1</clus>
<clus scale="  248.927">  2  7  1 -1</clus>
<clus scale="  111.266">  1  5  2 -1</clus>
</clustering>
</event>
<event>
10    2  0.2421970E-006  0.1765413E+03  0.7546771E-02  0.1171399E+00
         -1   -1    0    0    0  501 -0.00000000000E+00  0.00000000000E+00  0.22350621354E+03  0.22350621354E+03  0.00000000000E+00 0.  1.
         21   -1    0    0  503  502  0.00000000000E+00 -0.00000000000E+00 -0.35606197520E+03  0.35606197520E+03  0.00000000000E+00 0. -1.
         23    2    1    2    0    0  0.12757169415E+03  0.14859068427E+01  0.52104539557E+02  0.16564829387E+03  0.91911528949E+02 0.  0.
         23    2    1    2    0    0 -0.23011964121E+03  0.12474523042E+01 -0.11617961068E+03  0.27314855461E+03  0.90309609330E+02 0.  0.
        -11    1    4    4    0    0 -0.31804758210E+02  0.24864967981E+00 -0.58543886396E+02  0.66625754073E+02  0.00000000000E+00 0.  1.
         11    1    4    4    0    0 -0.19831488300E+03  0.99880262436E+00 -0.57635724287E+02  0.20652280053E+03  0.00000000000E+00 0. -1.
        -13    1    3    3    0    0  0.57467405177E+02  0.16377222706E+02  0.69743083616E+02  0.91841242335E+02  0.00000000000E+00 0.  1.
         13    1    3    3    0    0  0.70104288970E+02 -0.14891315864E+02 -0.17638544059E+02  0.73807051538E+02  0.00000000000E+00 0. -1.
         21    1    1    2  503  501  0.78997392336E+01 -0.22983814642E+02 -0.24322483746E+02  0.34383787328E+02  0.00000000000E+00 0. -1.
         -1    1    1    2    0  502  0.94648207830E+02  0.20250455495E+02 -0.44158206783E+02  0.10638755294E+03  0.00000000000E+00 0.  1.
<scales pt_clust_5="13000.00000" pt_clust_6="13000.00000" pt_clust_7="13000.00000" pt_clust_8="13000.00000" pt_clust_9="24.30353" pt_clust_10="97.62061"></scales>
<clustering>
<clus scale="   24.304">  2  9  1 -1</clus>
<clus scale="   90.310">  5  6 -1 -1</clus>
<clus scale="   91.912">  7  8 -1 -1</clus>
<clus scale="   97.621">  2 10  1 -1</clus>
<clus scale="  175.713">  2  5  1 -1</clus>
<clus scale="   24.304">  2  5  1 -1</clus>
</clustering>
</event>
<event>
10    2  0.2421970E-006  0.2020911E+03  0.7546771E-02  0.1148046E+00
          1   -1    0    0  502    0 -0.00000000000E+00  0.00000000000E+00  0.10424565897E+03  0.10424565897E+03  0.00000000000E+00 0. -1.
         21   -1    0    0  503  502  0.00000000000E+00 -0.00000000000E+00 -0.77502039023E+03  0.77502039023E+03  0.00000000000E+00 0. -1.
         23    2    1    2    0    0 -0.33900045314E+02 -0.12865219767E+03 -0.19354929468E+03  0.25125287308E+03  0.89252875160E+02 0.  0.
         23    2    1    2    0    0  0.72466941591E+02  0.25004261469E+03 -0.31620208358E+03  0.41932925275E+03  0.89891588962E+02 0.  0.
        -13    1    3    3    0    0 -0.23357192816E+02  0.58162237350E+01 -0.41705710874E+02  0.48153434294E+02  0.00000000000E+00 0. -1.
         13    1    3    3    0    0 -0.10542852498E+02 -0.13446842140E+03 -0.15184358380E+03  0.20309943879E+03  0.00000000000E+00 0.  1.
        -13    1    4    4    0    0  0.88318655629E+02  0.17596744479E+03 -0.25359932838E+03  0.32105660858E+03  0.00000000000E+00 0. -1.
         13    1    4    4    0    0 -0.15851714038E+02  0.74075169892E+02 -0.62602755200E+02  0.98272644164E+02  0.00000000000E+00 0.  1.
         21    1    1    2  503  501 -0.19623716862E+02 -0.77892577882E+02 -0.12711669411E+03  0.15036953772E+03  0.00000000000E+00 0. -1.
          1    1    1    2  501    0 -0.18943179415E+02 -0.43497839134E+02 -0.33906658887E+02  0.58314385640E+02  0.00000000000E+00 0. -1.
<scales pt_clust_5="13000.00000" pt_clust_6="13000.00000" pt_clust_7="13000.00000" pt_clust_8="13000.00000" pt_clust_9="28.72920" pt_clust_10="132.74208"></scales>
<clustering>
<clus scale="   28.729">  9 10 -1 -1</clus>
<clus scale="   89.253">  5  6 -1 -1</clus>
<clus scale="   89.892">  7  8 -1 -1</clus>
<clus scale="  132.742">  2  9  1 -1</clus>
<clus scale="  201.808">  1  5  2 -1</clus>
<clus scale="  132.742">  2  5  1 -1</clus>
</clustering>
</event>
<event>
10    2  0.2421970E-006  0.1905264E+03  0.7546771E-02  0.1158485E+00
         21   -1    0    0  503  502  0.00000000000E+00  0.00000000000E+00  0.18524058670E+03  0.18524058670E+03  0.00000000000E+00 0.  1.
         -3   -1    0    0    0  501 -0.00000000000E+00 -0.00000000000E+00 -0.31783936982E+03  0.31783936982E+03  0.00000000000E+00 0.  1.
         23    2    1    2    0    0  0.12079058035E+03 -0.13237812243E+03 -0.15227401423E+03  0.25164337221E+03  0.89569413129E+02 0.  0.
         23    2    1    2    0    0 -0.12485245717E+03  0.88041549949E+02 -0.15913460110E+02  0.17544569458E+03  0.84785039702E+02 0.  0.
        -11    1    4    4    0    0 -0.13256550840E+03  0.61163308297E+02 -0.72647335225E+01  0.14617571841E+03  0.00000000000E+00 0.  1.
         11    1    4    4    0    0  0.77130512341E+01  0.26878241652E+02 -0.86487265879E+01  0.29269976174E+02  0.00000000000E+00 0. -1.
        -13    1    3    3    0    0  0.30083875966E+02 -0.97444610538E+02 -0.91450316538E+02  0.13698048077E+03  0.00000000000E+00 0.  1.
         13    1    3    3    0    0  0.90706704383E+02 -0.34933511889E+02 -0.60823697693E+02  0.11466289144E+03  0.00000000000E+00 0. -1.
         21    1    1    2  503  501 -0.88763358714E+01  0.27446793173E+02  0.44412085584E+02  0.52957994108E+02  0.00000000000E+00 0.  1.
         -3    1    1    2    0  502  0.12938212687E+02  0.16889779306E+02 -0.88233943605E+01  0.23032895619E+02  0.00000000000E+00 0.  1.
<scales pt_clust_5="13000.00000" pt_clust_6="13000.00000" pt_clust_7="13000.00000" pt_clust_8="13000.00000" pt_clust_9="32.50451" pt_clust_10="21.27587"></scales>
<clustering>
<clus scale="   21.276">  1 10  2 -1</clus>
<clus scale="   32.505">  1  9  2 -1</clus>
<clus scale="   84.785">  5  6 -1 -1</clus>
<clus scale="   89.569">  7  8 -1 -1</clus>
<clus scale="  188.325">  1  5  2 -1</clus>
<clus scale="   21.276">  1  5  2 -1</clus>
</clustering>
</event>
<event>
10    2  0.2421970E-006  0.1570072E+03  0.7546771E-02  0.1208515E+00
         -1   -1    0    0    0  501 -0.00000000000E+00  0.00000000000E+00  0.30174812476E+03  0.30174812476E+03  0.00000000000E+00 0.  1.
         21   -1    0    0  503  502  0.00000000000E+00 -0.00000000000E+00 -0.24251655140E+03  0.24251655140E+03  0.00000000000E+00 0.  1.
         23    2    1    2    0    0 -0.37708139297E+02 -0.54057127687E+02  0.12798708888E+03  0.17009095025E+03  0.90587855780E+02 0.  0.
         23    2    1    2    0    0  0.24729067846E+02 -0.95297455742E+02 -0.51333556686E+02  0.14426334920E+03  0.92106720778E+02 0.  0.
        -11    1    3    3    0    0 -0.24196859225E+02 -0.10260073404E+02  0.12088630980E+03  0.12371037548E+03  0.00000000000E+00 0. -1.
         11    1    3    3    0    0 -0.13511280073E+02 -0.43797054283E+02  0.71007790758E+01  0.46380574776E+02  0.00000000000E+00 0.  1.
        -11    1    4    4    0    0 -0.35842255706E+01 -0.93773261236E+02 -0.63606476125E+02  0.11336690435E+03  0.00000000000E+00 0.  1.
         11    1    4    4    0    0  0.28313293417E+02 -0.15241945061E+01  0.12272919439E+02  0.30896444853E+02  0.00000000000E+00 0. -1.
         21    1    1    2  503  501  0.46729718861E+02 -0.12779414441E+02  0.30818994010E+02  0.57417684123E+02  0.00000000000E+00 0.  1.
         -1    1    1    2    0  502 -0.33750647410E+02  0.16213399787E+03 -0.48240952845E+02  0.17249269259E+03  0.00000000000E+00 0.  1.
<scales pt_clust_5="13000.00000" pt_clust_6="13000.00000" pt_clust_7="13000.00000" pt_clust_8="13000.00000" pt_clust_9="48.44564" pt_clust_10="127.15195"></scales>
<clustering>
<clus scale="   48.446">  1  9  2 -1</clus>
<clus scale="   90.588">  5  6 -1 -1</clus>
<clus scale="   92.107">  7  8 -1 -1</clus>
<clus scale="  109.983">  1  5  2 -1</clus>
<clus scale="  127.152">  2 10  1 -1</clus>
<clus scale="  127.152">  2  5  1 -1</clus>
</clustering>
</event>
<event>
10    2  0.2421970E-006  0.3342824E+03  0.7546771E-02  0.1069309E+00
         21   -1    0    0  501  502  0.00000000000E+00  0.00000000000E+00  0.12539908963E+03  0.12539908963E+03  0.00000000000E+00 0. -1.
          1   -1    0    0  503    0 -0.00000000000E+00 -0.00000000000E+00 -0.12960115056E+04  0.12960115056E+04  0.00000000000E+00 0. -1.
         23    2    1    2    0    0 -0.14856264550E+03 -0.25848171188E+03 -0.52769035786E+03  0.61309882034E+03  0.92462936967E+02 0.  0.
         23    2    1    2    0    0  0.18206023976E+03  0.29732661993E+03 -0.59184776370E+03  0.69286962876E+03  0.90749640473E+02 0.  0.
        -13    1    3    3    0    0 -0.34628367593E+02 -0.13053346983E+02 -0.34689340344E+02  0.50723407251E+02  0.00000000000E+00 0.  1.
         13    1    3    3    0    0 -0.11393427790E+03 -0.24542836490E+03 -0.49300101751E+03  0.56237541309E+03  0.00000000000E+00 0. -1.
        -13    1    4    4    0    0  0.42235595497E+02  0.11142766176E+03 -0.13401070654E+03  0.17932885657E+03  0.00000000000E+00 0. -1.
         13    1    4    4    0    0  0.13982464427E+03  0.18589895816E+03 -0.45783705716E+03  0.51354077219E+03  0.00000000000E+00 0.  1.
         21    1    1    2  503  502  0.22766096201E+02 -0.41300888359E+02 -0.25102514884E+02  0.53424664425E+02  0.00000000000E+00 0. -1.
          1    1    1    2  501    0 -0.56263690465E+02  0.24559803171E+01 -0.25971779532E+02  0.62017481698E+02  0.00000000000E+00 0. -1.
<scales pt_clust_5="13000.00000" pt_clust_6="13000.00000" pt_clust_7="13000.00000" pt_clust_8="13000.00000" pt_clust_9="47.15992" pt_clust_10="52.74545"></scales>
<clustering>
<clus scale="   47.160">  1  9  2 -1</clus>
<clus scale="   52.745">  1 10  2 -1</clus>
<clus scale="   90.750">  7  8 -1 -1</clus>
<clus scale="   92.463">  5  6 -1 -1</clus>
<clus scale="  333.813">  1  7  2 -1</clus>
<clus scale="   47.160">  1  5  2 -1</clus>
</clustering>
</event>
<event>
10    2  0.2421970E-006  0.9275999E+02  0.7546771E-02  0.1298167E+00
          3   -1    0    0  502    0 -0.00000000000E+00  0.00000000000E+00  0.75805009300E+03  0.75805009300E+03  0.00000000000E+00 0. -1.
         21   -1    0    0  503  502  0.00000000000E+00 -0.00000000000E+00 -0.26952762484E+02  0.26952762484E+02  0.00000000000E+00 0. -1.
         23    2    1    2    0    0 -0.11494897436E+02 -0.14924620405E+02  0.35180419047E+03  0.36336043260E+03  0.88936711123E+02 0.  0.
         23    2    1    2    0    0  0.71692323752E+01 -0.48076142781E+01  0.32572443538E+03  0.33860707287E+03  0.92107713830E+02 0.  0.
        -11    1    4    4    0    0 -0.21540508493E+02  0.32891632840E+02  0.90732868282E+02  0.98885319454E+02  0.00000000000E+00 0.  1.
         11    1    4    4    0    0  0.28709740868E+02 -0.37699247118E+02  0.23499156710E+03  0.23972175342E+03  0.00000000000E+00 0. -1.
        -13    1    3    3    0    0 -0.48737020637E+02  0.13030696166E+01  0.22444259520E+03  0.22967688981E+03  0.00000000000E+00 0.  1.
         13    1    3    3    0    0  0.37242123201E+02 -0.16227690022E+02  0.12736159527E+03  0.13368354279E+03  0.00000000000E+00 0. -1.
         21    1    1    2  503  501  0.18061944335E+02 -0.14076141236E+02  0.35675302059E+02  0.42392201668E+02  0.00000000000E+00 0.  1.
          3    1    1    2  501    0 -0.13736279274E+02  0.33808375919E+02  0.17893402608E+02  0.40643148346E+02  0.00000000000E+00 0. -1.
<scales pt_clust_5="13000.00000" pt_clust_6="13000.00000" pt_clust_7="13000.00000" pt_clust_8="13000.00000" pt_clust_9="22.89916" pt_clust_10="27.48614"></scales>
<clustering>
<clus scale="   22.899">  2  9  1 -1</clus>
<clus scale="   27.486">  2 10  1 -1</clus>
<clus scale="   88.937">  7  8 -1 -1</clus>
<clus scale="   89.612">  1  7  2 -1</clus>
<clus scale="   92.108">  5  6 -1 -1</clus>
<clus scale="   22.899">  2  5  1 -1</clus>
</clustering>
</event>
<event>
10    2  0.2421970E-006  0.3532954E+03  0.7546771E-02  0.1061275E+00
         -1   -1    0    0    0  501 -0.00000000000E+00  0.00000000000E+00  0.27430425504E+03  0.27430425504E+03  0.00000000000E+00 0.  1.
         21   -1    0    0  503  502  0.00000000000E+00 -0.00000000000E+00 -0.10108905302E+04  0.10108905302E+04  0.00000000000E+00 0.  1.
         23    2    1    2    0    0 -0.14310892063E+03 -0.25785792811E+03 -0.33550451716E+03  0.45592718488E+03  0.91298645223E+02 0.  0.
         23    2    1    2    0    0  0.93905685974E+02  0.39204420136E+03 -0.48746731216E+03  0.63909761455E+03  0.91128737605E+02 0.  0.
        -13    1    3    3    0    0 -0.13498943925E+03 -0.19343614364E+03 -0.21558348853E+03  0.31955583378E+03  0.00000000000E+00 0.  1.
         13    1    3    3    0    0 -0.81194813797E+01 -0.64421784475E+02 -0.11992102863E+03  0.13637135110E+03  0.00000000000E+00 0. -1.
        -13    1    4    4    0    0  0.28532168555E+02  0.60958531464E+02 -0.38839610531E+02  0.77708059729E+02  0.00000000000E+00 0. -1.
         13    1    4    4    0    0  0.65373517419E+02  0.33108566990E+03 -0.44862770163E+03  0.56138955482E+03  0.00000000000E+00 0.  1.
         21    1    1    2  503  501 -0.11527856974E+02 -0.57932513508E+02  0.69542685441E+02  0.91242822765E+02  0.00000000000E+00 0. -1.
         -1    1    1    2    0  502  0.60731091630E+02 -0.76253759744E+02  0.16842868706E+02  0.98927163064E+02  0.00000000000E+00 0.  1.
<scales pt_clust_5="13000.00000" pt_clust_6="13000.00000" pt_clust_7="13000.00000" pt_clust_8="13000.00000" pt_clust_9="59.06833" pt_clust_10="109.69616"></scales>
<clustering>
<clus scale="   59.068">  1  9  2 -1</clus>
<clus scale="   91.129">  7  8 -1 -1</clus>
<clus scale="   91.299">  5  6 -1 -1</clus>
<clus scale="  109.696">  2 10  1 -1</clus>
<clus scale="  353.252">  2  7  1 -1</clus>
<clus scale="  109.696">  2  5  1 -1</clus>
</clustering>
</event>
<event>
10    2  0.2421970E-006  0.2667833E+03  0.7546771E-02  0.1103249E+00
         21   -1    0    0  501  502  0.00000000000E+00  0.00000000000E+00  0.23954796787E+03  0.23954796787E+03  0.00000000000E+00 0. -1.
          2   -1    0    0  503    0 -0.00000000000E+00 -0.00000000000E+00 -0.19552062148E+04  0.19552062148E+04  0.00000000000E+00 0. -1.
         23    2    1    2    0    0  0.22035942408E+03  0.13907460749E+03 -0.10288696661E+04  0.10651072556E+04  0.89334506449E+02 0.  0.
         23    2    1    2    0    0 -0.27859945449E+03  0.59993027718E+02 -0.60610990660E+03  0.67600726392E+03  0.91650327723E+02 0.  0.
        -11    1    3    3    0    0  0.16601543106E+03  0.60922548187E+02 -0.74508314248E+03  0.76578167217E+03  0.00000000000E+00 0. -1.
         11    1    3    3    0    0  0.54343993028E+02  0.78152059306E+02 -0.28378652360E+03  0.29932558348E+03  0.00000000000E+00 0.  1.
        -13    1    4    4    0    0 -0.11069877818E+03  0.53891804553E+02 -0.18104372430E+03  0.21894149035E+03  0.00000000000E+00 0.  1.
         13    1    4    4    0    0 -0.16790067631E+03  0.61012231655E+01 -0.42506618231E+03  0.45706577357E+03  0.00000000000E+00 0. -1.
         21    1    1    2  503  502 -0.16266473263E+03 -0.23776813243E+02 -0.28153947164E+02  0.16678668061E+03  0.00000000000E+00 0. -1.
          2    1    1    2  501    0  0.22090476304E+03 -0.17529082197E+03 -0.52524727073E+02  0.28685298247E+03  0.00000000000E+00 0. -1.
<scales pt_clust_5="13000.00000" pt_clust_6="13000.00000" pt_clust_7="13000.00000" pt_clust_8="13000.00000" pt_clust_9="164.39328" pt_clust_10="220.45781"></scales>
<clustering>
<clus scale="   89.335">  5  6 -1 -1</clus>
<clus scale="   91.650">  7  8 -1 -1</clus>
<clus scale="  164.393">  1  9  2 -1</clus>
<clus scale="  220.458">  1 10  2 -1</clus>
<clus scale="  265.997">  2  5  1 -1</clus>
<clus scale="  164.393">  1  5  2 -1</clus>
</clustering>
</event>
<event>
10    2  0.2421970E-006  0.1054694E+03  0.7546771E-02  0.1269835E+00
         21   -1    0    0  501  502  0.00000000000E+00  0.00000000000E+00  0.24750585274E+03  0.24750585274E+03  0.00000000000E+00 0. -1.
          4   -1    0    0  503    0 -0.00000000000E+00 -0.00000000000E+00 -0.13128416261E+03  0.13128416261E+03  0.00000000000E+00 0. -1.
         23    2    1    2    0    0 -0.70174591074E+01 -0.42836869768E+02 -0.73046908521E+01  0.99446883221E+02  0.89174446620E+02 0.  0.
         23    2    1    2    0    0  0.73003053326E+02  0.34339695507E+02 -0.12701140968E+02  0.12203750464E+03  0.90681713008E+02 0.  0.
        -11    1    3    3    0    0  0.23639999059E+02 -0.27218589749E+02 -0.38684975181E+02  0.52879376776E+02  0.00000000000E+00 0. -1.
         11    1    3    3    0    0 -0.30657458166E+02 -0.15618280018E+02  0.31380284329E+02  0.46567506445E+02  0.00000000000E+00 0.  1.
        -13    1    4    4    0    0  0.83090196803E+02  0.11942000400E+02 -0.32973912106E+02  0.90187976238E+02  0.00000000000E+00 0. -1.
         13    1    4    4    0    0 -0.10087143478E+02  0.22397695108E+02  0.20272771139E+02  0.31849528400E+02  0.00000000000E+00 0.  1.
         21    1    1    2  503  502 -0.17722929520E+02  0.17715376587E+02  0.73315533598E+02  0.77479702278E+02  0.00000000000E+00 0. -1.
          4    1    1    2  501    0 -0.48262664698E+02 -0.92182023264E+01  0.62911988355E+02  0.79825925217E+02  0.00000000000E+00 0. -1.
<scales pt_clust_5="13000.00000" pt_clust_6="13000.00000" pt_clust_7="13000.00000" pt_clust_8="13000.00000" pt_clust_9="25.05867" pt_clust_10="55.64342"></scales>
<clustering>
<clus scale="   25.059">  1  9  2 -1</clus>
<clus scale="   55.643">  1 10  2 -1</clus>
<clus scale="   89.174">  5  6 -1 -1</clus>
<clus scale="   90.682">  7  8 -1 -1</clus>
<clus scale="  104.176">  2  5  1 -1</clus>
<clus scale="   25.059">  1  5  2 -1</clus>
</clustering>
</event>
<event>
10    2  0.2421970E-006  0.2115489E+03  0.7546771E-02  0.1154146E+00
          2   -1    0    0  502    0 -0.00000000000E+00  0.00000000000E+00  0.18790357715E+03  0.18790357715E+03  0.00000000000E+00 0. -1.
         21   -1    0    0  503  502  0.00000000000E+00 -0.00000000000E+00 -0.48814082291E+03  0.48814082291E+03  0.00000000000E+00 0. -1.
         23    2    1    2    0    0  0.10319203907E+03  0.56155359820E+02 -0.89214564116E+02  0.17650355878E+03  0.96913603004E+02 0.  0.
         23    2    1    2    0    0 -0.96746270003E+01  0.14072036926E+03  0.32869272308E+02  0.17087838266E+03  0.90681926896E+02 0.  0.
        -11    1    3    3    0    0  0.45955981047E+02 -0.25129620358E+02 -0.24050731505E+02  0.57635819585E+02  0.00000000000E+00 0.  1.
         11    1    3    3    0    0  0.57236058027E+02  0.81284980178E+02 -0.65163832611E+02  0.11886773920E+03  0.00000000000E+00 0. -1.
        -13    1    4    4    0    0 -0.12146638396E+02  0.62419730695E+02  0.60535487294E+02  0.87796975041E+02  0.00000000000E+00 0. -1.
         13    1    4    4    0    0  0.24720113962E+01  0.78300638569E+02 -0.27666214986E+02  0.83081407621E+02  0.00000000000E+00 0.  1.
         21    1    1    2  503  501 -0.24457701394E+02 -0.83259938633E+02 -0.10802731111E+03  0.13856513444E+03  0.00000000000E+00 0. -1.
          2    1    1    2  501    0 -0.69059710681E+02 -0.11361579045E+03 -0.13586464285E+03  0.19009732416E+03  0.00000000000E+00 0. -1.
<scales pt_clust_5="13000.00000" pt_clust_6="13000.00000" pt_clust_7="13000.00000" pt_clust_8="13000.00000" pt_clust_9="25.92993" pt_clust_10="193.80370"></scales>
<clustering>
<clus scale="   25.930">  9 10 -1 -1</clus>
<clus scale="   90.682">  7  8 -1 -1</clus>
<clus scale="   96.914">  5  6 -1 -1</clus>
<clus scale="  152.297">  1  5  2 -1</clus>
<clus scale="  193.804">  2  9  1 -1</clus>
<clus scale="  193.804">  2  5  1 -1</clus>
</clustering>
</event>
<event>
10    2  0.2421970E-006  0.1683535E+03  0.7546771E-02  0.1179798E+00
          3   -1    0    0  503    0 -0.00000000000E+00  0.00000000000E+00  0.94706072609E+03  0.94706072609E+03  0.00000000000E+00 0. -1.
         21   -1    0    0  501  502  0.00000000000E+00 -0.00000000000E+00 -0.17282427254E+03  0.17282427254E+03  0.00000000000E+00 0. -1.
         23    2    1    2    0    0  0.12264333729E+03 -0.71063543243E+02  0.65688267233E+03  0.67894063200E+03  0.96820045544E+02 0.  0.
         23    2    1    2    0    0 -0.13944787626E+03 -0.17118257005E+01  0.15167175523E+03  0.22703707061E+03  0.95356539139E+02 0.  0.
        -11    1    4    4    0    0 -0.50316961808E+02  0.44061934416E+02  0.44566915092E+02  0.80370769754E+02  0.00000000000E+00 0.  1.
         11    1    4    4    0    0 -0.89130914456E+02 -0.45773760116E+02  0.10710484014E+03  0.14666630086E+03  0.00000000000E+00 0. -1.
        -11    1    3    3    0    0  0.51623334619E+02  0.12102922844E+02  0.12251872214E+03  0.13350013743E+03  0.00000000000E+00 0. -1.
         11    1    3    3    0    0  0.71020002672E+02 -0.83166466087E+02  0.53436395019E+03  0.54544049457E+03  0.00000000000E+00 0.  1.
         21    1    1    2  503  502 -0.20659038465E+02  0.72291153529E+02  0.70208376701E+02  0.10286895988E+03  0.00000000000E+00 0.  1.
          3    1    1    2  501    0  0.37463577439E+02  0.48421541465E+00 -0.10452635071E+03  0.11103833614E+03  0.00000000000E+00 0. -1.
<scales pt_clust_5="13000.00000" pt_clust_6="13000.00000" pt_clust_7="13000.00000" pt_clust_8="13000.00000" pt_clust_9="73.28186" pt_clust_10="37.46671"></scales>
<clustering>
<clus scale="   37.467">  2 10  1 -1</clus>
<clus scale="   73.282">  2  9  1 -1</clus>
<clus scale="   95.357">  5  6 -1 -1</clus>
<clus scale="   96.820">  7  8 -1 -1</clus>
<clus scale="  167.516">  2  5  1 -1</clus>
<clus scale="   37.467">  2  5  1 -1</clus>
</clustering>
</event>
<event>
10    2  0.2421970E-006  0.1496762E+03  0.7546771E-02  0.1221565E+00
         21   -1    0    0  503  502  0.00000000000E+00  0.00000000000E+00  0.33672011433E+03  0.33672011433E+03  0.00000000000E+00 0.  1.
          1   -1    0    0  502    0 -0.00000000000E+00 -0.00000000000E+00 -0.10434081256E+03  0.10434081256E+03  0.00000000000E+00 0. -1.
         23    2    1    2    0    0  0.23432460591E+02 -0.22560967128E+02  0.34441359436E+02  0.10227408053E+03  0.90640514459E+02 0.  0.
         23    2    1    2    0    0 -0.10970576865E+03 -0.53302977876E+02  0.12369663516E+03  0.19708436293E+03  0.93085044109E+02 0.  0.
        -11    1    4    4    0    0 -0.10028762398E+03 -0.77187485782E+02  0.92904432419E+02  0.15699283120E+03  0.00000000000E+00 0.  1.
         11    1    4    4    0    0 -0.94181446675E+01  0.23884507905E+02  0.30792202744E+02  0.40091531733E+02  0.00000000000E+00 0. -1.
        -13    1    3    3    0    0  0.11027068107E+01 -0.25847201092E+02  0.61688071077E+02  0.66893287255E+02  0.00000000000E+00 0.  1.
         13    1    3    3    0    0  0.22329753781E+02  0.32862339640E+01 -0.27246711641E+02  0.35380793276E+02  0.00000000000E+00 0. -1.
         21    1    1    2  503  501  0.39253266073E+02  0.33253462018E+02  0.55190638299E+02  0.75449441280E+02  0.00000000000E+00 0. -1.
          1    1    1    2  501    0  0.47020041987E+02  0.42610482986E+02  0.19050668875E+02  0.66253042144E+02  0.00000000000E+00 0. -1.
<scales pt_clust_5="13000.00000" pt_clust_6="13000.00000" pt_clust_7="13000.00000" pt_clust_8="13000.00000" pt_clust_9="33.31999" pt_clust_10="122.91278"></scales>
<clustering>
<clus scale="   33.320">  9 10 -1 -1</clus>
<clus scale="   90.641">  7  8 -1 -1</clus>
<clus scale="   93.085">  5  6 -1 -1</clus>
<clus scale="   96.300">  2  7  1 -1</clus>
<clus scale="  122.913">  1  9  2 -1</clus>
<clus scale="  122.913">  1  5  2 -1</clus>
</clustering>
</event>
<event>
10    2  0.2421970E-006  0.1140371E+03  0.7546771E-02  0.1255453E+00
         21   -1    0    0  501  502  0.00000000000E+00  0.00000000000E+00  0.16751028260E+03  0.16751028260E+03  0.00000000000E+00 0.  1.
          4   -1    0    0  503    0 -0.00000000000E+00 -0.00000000000E+00 -0.23809764773E+03  0.23809764773E+03  0.00000000000E+00 0. -1.
         23    2    1    2    0    0  0.31367934347E+02 -0.82163586349E+02 -0.82216527355E+02  0.15395211219E+03  0.95952557285E+02 0.  0.
         23    2    1    2    0    0  0.63100847687E+02  0.37990986817E+02  0.27457420443E+02  0.11961476867E+03  0.90159585671E+02 0.  0.
        -13    1    4    4    0    0  0.85189081450E+02  0.20847210946E+02  0.26573006446E+02  0.91640113892E+02  0.00000000000E+00 0.  1.
         13    1    4    4    0    0 -0.22088233763E+02  0.17143775871E+02  0.88441399697E+00  0.27974654778E+02  0.00000000000E+00 0. -1.
        -13    1    3    3    0    0  0.48741513946E+02 -0.34276965956E+01 -0.38682328464E+02  0.62320195933E+02  0.00000000000E+00 0.  1.
         13    1    3    3    0    0 -0.17373579598E+02 -0.78735889753E+02 -0.43534198891E+02  0.91631916254E+02  0.00000000000E+00 0. -1.
         21    1    1    2  503  502 -0.35316650320E+02  0.20614430983E+02 -0.46029566937E+02  0.61570622760E+02  0.00000000000E+00 0.  1.
          4    1    1    2  501    0 -0.59152131715E+02  0.23558168549E+02  0.30201308720E+02  0.70470426706E+02  0.00000000000E+00 0. -1.
<scales pt_clust_5="13000.00000" pt_clust_6="13000.00000" pt_clust_7="13000.00000" pt_clust_8="13000.00000" pt_clust_9="40.89279" pt_clust_10="68.09180"></scales>
<clustering>
<clus scale="   40.893">  2  9  1 -1</clus>
<clus scale="   68.092">  1 10  2 -1</clus>
<clus scale="   90.160">  5  6 -1 -1</clus>
<clus scale="   95.953">  7  8 -1 -1</clus>
<clus scale="  109.208">  1  5  2 -1</clus>
<clus scale="   68.092">  1  5  2 -1</clus>
</clustering>
</event>
<event>
10    2  0.2421970E-006  0.1025776E+03  0.7546771E-02  0.1275979E+00
          1   -1    0    0  503    0 -0.00000000000E+00  0.00000000000E+00  0.64749805372E+03  0.64749805372E+03  0.00000000000E+00 0. -1.
         21   -1    0    0  501  502  0.00000000000E+00 -0.00000000000E+00 -0.79245821867E+02  0.79245821867E+02  0.00000000000E+00 0. -1.
         23    2    1    2    0    0  0.47201441172E+02 -0.80012517281E+01  0.44392111630E+03  0.45531291676E+03  0.89173418679E+02 0.  0.
         23    2    1    2    0    0 -0.43025736889E+02  0.64565953886E+02  0.15356453301E+03  0.19275248700E+03  0.86899246323E+02 0.  0.
        -13    1    4    4    0    0  0.23038459491E+02  0.37590555871E+02  0.46427309651E+02  0.64025897791E+02  0.00000000000E+00 0.  1.
         13    1    4    4    0    0 -0.66064196380E+02  0.26975398014E+02  0.10713722336E+03  0.12872658921E+03  0.00000000000E+00 0. -1.
        -13    1    3    3    0    0  0.61943024216E+02 -0.32839043937E+02  0.35369221207E+03  0.36057387860E+03  0.00000000000E+00 0.  1.
         13    1    3    3    0    0 -0.14741583044E+02  0.24837792209E+02  0.90228904234E+02  0.94739038161E+02  0.00000000000E+00 0. -1.
         21    1    1    2  503  502 -0.22071049050E+01 -0.27171640016E+02  0.10501974703E+02  0.29214051514E+02  0.00000000000E+00 0. -1.
          1    1    1    2  501    0 -0.19685993779E+01 -0.29393062141E+02 -0.39735392161E+02  0.49464420302E+02  0.00000000000E+00 0. -1.
<scales pt_clust_5="13000.00000" pt_clust_6="13000.00000" pt_clust_7="13000.00000" pt_clust_8="13000.00000" pt_clust_9="27.26113" pt_clust_10="46.85440"></scales>
<clustering>
<clus scale="   27.261">  2  9  1 -1</clus>
<clus scale="   46.854">  2 10  1 -1</clus>
<clus scale="   86.899">  5  6 -1 -1</clus>
<clus scale="   89.173">  7  8 -1 -1</clus>
<clus scale="  100.607">  2  5  1 -1</clus>
<clus scale="   27.261">  2  5  1 -1</clus>
</clustering>
</event>
<event>
10    2  0.2421970E-006  0.1360090E+03  0.7546771E-02  0.1219361E+00
         21   -1    0    0  503  502  0.00000000000E+00  0.00000000000E+00  0.20502810624E+03  0.20502810624E+03  0.00000000000E+00 0.  1.
         -4   -1    0    0    0  501 -0.00000000000E+00 -0.00000000000E+00 -0.24379741452E+03  0.24379741452E+03  0.00000000000E+00 0.  1.
         23    2    1    2    0    0  0.37940353355E+02  0.91336160142E+02 -0.96177069635E+02  0.16621218747E+03  0.92707593962E+02 0.  0.
         23    2    1    2    0    0 -0.10259188172E+03 -0.54616850052E+02 -0.39943193266E+02  0.15254192630E+03  0.90363079229E+02 0.  0.
        -11    1    4    4    0    0 -0.33807957855E+02 -0.39887106695E+02  0.23951286200E+02  0.57511941416E+02  0.00000000000E+00 0.  1.
         11    1    4    4    0    0 -0.68783923865E+02 -0.14729743357E+02 -0.63894479465E+02  0.95029984888E+02  0.00000000000E+00 0. -1.
        -11    1    3    3    0    0  0.68771799317E+02  0.64912563650E+02 -0.61427207395E+02  0.11276747363E+03  0.00000000000E+00 0. -1.
         11    1    3    3    0    0 -0.30831445962E+02  0.26423596492E+02 -0.34749862240E+02  0.53444713840E+02  0.00000000000E+00 0.  1.
         21    1    1    2  503  501  0.38381483605E+02 -0.32009972386E+02  0.31649885761E+02  0.59156503316E+02  0.00000000000E+00 0.  1.
         -4    1    1    2    0  502  0.26270044760E+02 -0.47093377038E+01  0.65701068863E+02  0.70914903673E+02  0.00000000000E+00 0.  1.
<scales pt_clust_5="13000.00000" pt_clust_6="13000.00000" pt_clust_7="13000.00000" pt_clust_8="13000.00000" pt_clust_9="57.84575" pt_clust_10="26.68882"></scales>
<clustering>
<clus scale="   26.689">  1 10  2 -1</clus>
<clus scale="   57.846">  1  9  2 -1</clus>
<clus scale="   90.363">  5  6 -1 -1</clus>
<clus scale="   92.708">  7  8 -1 -1</clus>
<clus scale="  134.422">  1  5  2 -1</clus>
<clus scale="   26.689">  1  5  2 -1</clus>
</clustering>
</event>
<event>
10    2  0.2421970E-006  0.1219337E+03  0.7546771E-02  0.1240998E+00
         21   -1    0    0  501  502  0.00000000000E+00  0.00000000000E+00  0.66321440441E+02  0.66321440441E+02  0.00000000000E+00 0.  1.
          1   -1    0    0  503    0 -0.00000000000E+00 -0.00000000000E+00 -0.94019104750E+03  0.94019104750E+03  0.00000000000E+00 0. -1.
         23    2    1    2    0    0  0.68856203718E+02 -0.52152828597E+02 -0.55183851752E+03  0.56554764164E+03  0.88641362981E+02 0.  0.
         23    2    1    2    0    0 -0.79321754679E+02  0.23865919188E+01 -0.33910962090E+03  0.36024253816E+03  0.92096225377E+02 0.  0.
        -11    1    4    4    0    0 -0.75283082686E+02  0.38851359753E+02 -0.24508429121E+03  0.25931309356E+03  0.00000000000E+00 0.  1.
         11    1    4    4    0    0 -0.40386719930E+01 -0.36464767834E+02 -0.94025329692E+02  0.10092944461E+03  0.00000000000E+00 0. -1.
        -13    1    3    3    0    0  0.60217260242E+01  0.23108397039E+02 -0.74111936209E+02  0.77864229828E+02  0.00000000000E+00 0.  1.
         13    1    3    3    0    0  0.62834477694E+02 -0.75261225636E+02 -0.47772658131E+03  0.48768341181E+03  0.00000000000E+00 0. -1.
         21    1    1    2  503  502 -0.97371539734E+01  0.41776625956E+02 -0.11888748758E+02  0.44513379907E+02  0.00000000000E+00 0.  1.
          1    1    1    2  501    0  0.20202704934E+02  0.79896107222E+01  0.28967280116E+02  0.36208928229E+02  0.00000000000E+00 0. -1.
<scales pt_clust_5="13000.00000" pt_clust_6="13000.00000" pt_clust_7="13000.00000" pt_clust_8="13000.00000" pt_clust_9="45.64015" pt_clust_10="21.72517"></scales>
<clustering>
<clus scale="   21.725">  1 10  2 -1</clus>
<clus scale="   45.640">  1  9  2 -1</clus>
<clus scale="   88.641">  7  8 -1 -1</clus>
<clus scale="   92.096">  5  6 -1 -1</clus>
<clus scale="  119.346">  2  7  1 -1</clus>
<clus scale="   21.725">  1  5  2 -1</clus>
</clustering>
</event>
<event>
10    2  0.2421970E-006  0.1978278E+03  0.7546771E-02  0.1154755E+00
          1   -1    0    0  502    0 -0.00000000000E+00  0.00000000000E+00  0.80694842509E+03  0.80694842509E+03  0.00000000000E+00 0. -1.
         21   -1    0    0  503  502  0.00000000000E+00 -0.00000000000E+00 -0.10059529238E+03  0.10059529238E+03  0.00000000000E+00 0. -1.
         23    2    1    2    0    0 -0.10076743311E+03  0.11954583386E+03  0.33954676324E+03  0.38605751286E+03  0.96452666306E+02 0.  0.
         23    2    1    2    0    0  0.18923966956E+03 -0.20340375327E+02  0.21637963777E+03  0.31269815581E+03  0.12138618374E+03 0.  0.
        -11    1    3    3    0    0 -0.26247188554E+01  0.65637186809E+02  0.17592859771E+03  0.18779244110E+03  0.00000000000E+00 0.  1.
         11    1    3    3    0    0 -0.98142714255E+02  0.53908647049E+02  0.16361816553E+03  0.19826507176E+03  0.00000000000E+00 0. -1.
        -13    1    4    4    0    0  0.10500647270E+03 -0.70063040678E+02  0.10273947661E+03  0.16275929784E+03  0.00000000000E+00 0.  1.
         13    1    4    4    0    0  0.84233196858E+02  0.49722665351E+02  0.11364016116E+03  0.14993885798E+03  0.00000000000E+00 0. -1.
         21    1    1    2  503  501 -0.36005282139E+02 -0.55569492050E+01  0.49389491268E+02  0.61372484666E+02  0.00000000000E+00 0.  1.
          1    1    1    2  501    0 -0.52466954310E+02 -0.93648509327E+02  0.10103724043E+03  0.14741556413E+03  0.00000000000E+00 0. -1.
<scales pt_clust_5="13000.00000" pt_clust_6="13000.00000" pt_clust_7="13000.00000" pt_clust_8="13000.00000" pt_clust_9="33.44178" pt_clust_10="144.79036"></scales>
<clustering>
<clus scale="   33.442">  9 10 -1 -1</clus>
<clus scale="   96.453">  5  6 -1 -1</clus>
<clus scale="  121.386">  7  8 -1 -1</clus>
<clus scale="  144.790">  2  9  1 -1</clus>
<clus scale="  183.587">  1  5  2 -1</clus>
<clus scale="  144.790">  2  5  1 -1</clus>
</clustering>
</event>
<event>
10    2  0.2421970E-006  0.1249319E+03  0.7546771E-02  0.1239450E+00
         21   -1    0    0  501  502  0.00000000000E+00  0.00000000000E+00  0.61329363353E+02  0.61329363353E+02  0.00000000000E+00 0.  1.
          2   -1    0    0  503    0 -0.00000000000E+00 -0.00000000000E+00 -0.85463038714E+03  0.85463038714E+03  0.00000000000E+00 0. -1.
         23    2    1    2    0    0 -0.36641364838E+02  0.77073323720E+02 -0.63086096084E+03  0.64498046459E+03  0.10359228228E+03 0.  0.
         23    2    1    2    0    0  0.22612179163E+02 -0.16912982902E+02 -0.91097262095E+02  0.13164153930E+03  0.90738217253E+02 0.  0.
        -13    1    3    3    0    0  0.33614541753E+02  0.31355674758E+02 -0.15059422374E+03  0.15745391701E+03  0.00000000000E+00 0.  1.
         13    1    3    3    0    0 -0.70255906591E+02  0.45717648962E+02 -0.48026673710E+03  0.48752654759E+03  0.00000000000E+00 0. -1.
        -13    1    4    4    0    0 -0.18501638542E+02 -0.39225086471E+02 -0.23184887987E+02  0.49177810732E+02  0.00000000000E+00 0.  1.
         13    1    4    4    0    0  0.41113817705E+02  0.22312103569E+02 -0.67912374109E+02  0.82463728566E+02  0.00000000000E+00 0. -1.
         21    1    1    2  503  502  0.25003786760E+02 -0.86762261381E+02 -0.59975635916E+02  0.10839721517E+03  0.00000000000E+00 0.  1.
          2    1    1    2  501    0 -0.10974601086E+02  0.26601920564E+02 -0.11367164933E+02  0.30940531432E+02  0.00000000000E+00 0. -1.
<scales pt_clust_5="13000.00000" pt_clust_6="13000.00000" pt_clust_7="13000.00000" pt_clust_8="13000.00000" pt_clust_9="76.87340" pt_clust_10="28.77680"></scales>
<clustering>
<clus scale="   28.777">  1 10  2 -1</clus>
<clus scale="   76.873">  1  9  2 -1</clus>
<clus scale="   90.738">  7  8 -1 -1</clus>
<clus scale="  103.592">  5  6 -1 -1</clus>
<clus scale="  114.499">  1  7  2 -1</clus>
<clus scale="   28.777">  1  5  2 -1</clus>
</clustering>
</event>
<event>
10    2  0.2421970E-006  0.9226752E+02  0.7546771E-02  0.1298219E+00
          1   -1    0    0  503    0 -0.00000000000E+00  0.00000000000E+00  0.58844536030E+03  0.58844536030E+03  0.00000000000E+00 0. -1.
         21   -1    0    0  501  502  0.00000000000E+00 -0.00000000000E+00 -0.34649169506E+02  0.34649169506E+02  0.00000000000E+00 0.  1.
         23    2    1    2    0    0  0.16214084294E+02  0.19835756305E+02  0.27691097281E+03  0.29272386206E+03  0.91385003145E+02 0.  0.
         23    2    1    2    0    0  0.19407107503E+02  0.96546321289E+01  0.10546560309E+03  0.14037769270E+03  0.90072500959E+02 0.  0.
        -11    1    4    4    0    0  0.43095814827E+02 -0.23313375722E+02  0.75146220199E+02  0.89709069516E+02  0.00000000000E+00 0.  1.
         11    1    4    4    0    0 -0.23688707324E+02  0.32968007851E+02  0.30319382888E+02  0.50668623180E+02  0.00000000000E+00 0. -1.
        -13    1    3    3    0    0 -0.30916532859E+02  0.33716684794E+02  0.12980520095E+03  0.13763007313E+03  0.00000000000E+00 0. -1.
         13    1    3    3    0    0  0.47130617153E+02 -0.13880928489E+02  0.14710577186E+03  0.15509378892E+03  0.00000000000E+00 0.  1.
         21    1    1    2  503  502 -0.42497085178E+02 -0.41323617166E+01  0.15040733755E+03  0.15635039447E+03  0.00000000000E+00 0. -1.
          1    1    1    2  501    0  0.68758933804E+01 -0.25358026717E+02  0.21012277351E+02  0.33642580582E+02  0.00000000000E+00 0. -1.
<scales pt_clust_5="13000.00000" pt_clust_6="13000.00000" pt_clust_7="13000.00000" pt_clust_8="13000.00000" pt_clust_9="42.32447" pt_clust_10="26.27370"></scales>
<clustering>
<clus scale="   26.274">  2 10  1 -1</clus>
<clus scale="   42.324">  1  9  2 -1</clus>
<clus scale="   90.073">  5  6 -1 -1</clus>
<clus scale="   90.968">  2  5  1 -1</clus>
<clus scale="   91.385">  7  8 -1 -1</clus>
<clus scale="   26.274">  2  5  1 -1</clus>
</clustering>
</event>
<event>
10    2  0.2421970E-006  0.1685974E+03  0.7546771E-02  0.1180315E+00
          1   -1    0    0  503    0 -0.00000000000E+00  0.00000000000E+00  0.22177253714E+03  0.22177253714E+03  0.00000000000E+00 0. -1.
         21   -1    0    0  501  502  0.00000000000E+00 -0.00000000000E+00 -0.37226706717E+03  0.37226706717E+03  0.00000000000E+00 0. -1.
         23    2    1    2    0    0  0.76358855618E+02 -0.12589308516E+03  0.15071000929E+03  0.22924252121E+03  0.90326534902E+02 0.  0.
         23    2    1    2    0    0 -0.36203524154E+02  0.72526354476E+02 -0.22383773931E+03  0.25705775058E+03  0.96977246498E+02 0.  0.
        -13    1    4    4    0    0 -0.58415920189E+02  0.67409725646E+02 -0.11332488199E+03  0.14421865247E+03  0.00000000000E+00 0.  1.
         13    1    4    4    0    0  0.22212396035E+02  0.51166288300E+01 -0.11051285732E+03  0.11283909811E+03  0.00000000000E+00 0. -1.
        -13    1    3    3    0    0  0.54689609197E+02 -0.18086044543E+02  0.26667025959E+02  0.63475890185E+02  0.00000000000E+00 0.  1.
         13    1    3    3    0    0  0.21669246421E+02 -0.10780704062E+03  0.12404298333E+03  0.16576663102E+03  0.00000000000E+00 0. -1.
         21    1    1    2  503  502 -0.19037263350E+02  0.70373363803E+01 -0.82863634817E+01  0.21922712399E+02  0.00000000000E+00 0.  1.
          1    1    1    2  501    0 -0.21118068114E+02  0.46329394309E+02 -0.69080436530E+02  0.85816620121E+02  0.00000000000E+00 0. -1.
<scales pt_clust_5="13000.00000" pt_clust_6="13000.00000" pt_clust_7="13000.00000" pt_clust_8="13000.00000" pt_clust_9="20.29634" pt_clust_10="54.10646"></scales>
<clustering>
<clus scale="   20.296">  2  9  1 -1</clus>
<clus scale="   54.106">  2 10  1 -1</clus>
<clus scale="   90.327">  7  8 -1 -1</clus>
<clus scale="   96.977">  5  6 -1 -1</clus>
<clus scale="  164.862">  1  7  2 -1</clus>
<clus scale="   20.296">  2  5  1 -1</clus>
</clustering>
</event>
<event>
10    2  0.2421970E-006  0.2237393E+03  0.7546771E-02  0.1132207E+00
         21   -1    0    0  501  502  0.00000000000E+00  0.00000000000E+00  0.92084945941E+02  0.92084945941E+02  0.00000000000E+00 0. -1.
          2   -1    0    0  503    0 -0.00000000000E+00 -0.00000000000E+00 -0.12356642756E+04  0.12356642756E+04  0.00000000000E+00 0. -1.
         23    2    1    2    0    0  0.11284510733E+02 -0.15313298493E+03 -0.24416746782E+03  0.30287781976E+03  0.92413040748E+02 0.  0.
         23    2    1    2    0    0 -0.16128190615E+03  0.20368904856E+03 -0.61893005479E+03  0.67948311034E+03  0.10545995811E+03 0.  0.
        -11    1    3    3    0    0 -0.20217164034E+02 -0.15989926159E+02 -0.92340191854E+02  0.95870342086E+02  0.00000000000E+00 0.  1.
         11    1    3    3    0    0  0.31501674766E+02 -0.13714305878E+03 -0.15182727597E+03  0.20700747767E+03  0.00000000000E+00 0. -1.
        -11    1    4    4    0    0 -0.32362685023E+02  0.14312658035E+02 -0.18940216063E+03  0.19267945924E+03  0.00000000000E+00 0.  1.
         11    1    4    4    0    0 -0.12891922112E+03  0.18937639053E+03 -0.42952789415E+03  0.48680365110E+03  0.00000000000E+00 0. -1.
         21    1    1    2  503  502  0.13773757466E+03  0.11366270922E+02 -0.18491447616E+03  0.23085535533E+03  0.00000000000E+00 0. -1.
          2    1    1    2  501    0  0.12259820748E+02 -0.61922334551E+02 -0.95567330847E+02  0.11453293608E+03  0.00000000000E+00 0. -1.
<scales pt_clust_5="13000.00000" pt_clust_6="13000.00000" pt_clust_7="13000.00000" pt_clust_8="13000.00000" pt_clust_9="141.26817" pt_clust_10="63.12431"></scales>
<clustering>
<clus scale="   63.124">  1 10  2 -1</clus>
<clus scale="   92.413">  5  6 -1 -1</clus>
<clus scale="  105.460">  7  8 -1 -1</clus>
<clus scale="  141.268">  1  9  2 -1</clus>
<clus scale="  217.894">  2  5  1 -1</clus>
<clus scale="   63.124">  1  5  2 -1</clus>
</clustering>
</event>
<event>
10    2  0.2421970E-006  0.1143404E+03  0.7546771E-02  0.1254516E+00
         21   -1    0    0  501  502  0.00000000000E+00  0.00000000000E+00  0.78466936173E+02  0.78466936173E+02  0.00000000000E+00 0. -1.
          2   -1    0    0  503    0 -0.00000000000E+00 -0.00000000000E+00 -0.67897316162E+03  0.67897316162E+03  0.00000000000E+00 0. -1.
         23    2    1    2    0    0  0.22275183046E+02  0.31183619546E+02 -0.23371142071E+03  0.25326985896E+03  0.89755174670E+02 0.  0.
         23    2    1    2    0    0  0.12740849967E+02 -0.10926815222E+03 -0.37182565103E+03  0.39912932183E+03  0.94594092986E+02 0.  0.
        -11    1    4    4    0    0 -0.39821619226E+02 -0.29891073884E+02 -0.13448341659E+03  0.14340511495E+03  0.00000000000E+00 0.  1.
         11    1    4    4    0    0  0.52562469193E+02 -0.79377078332E+02 -0.23734223444E+03  0.25572420687E+03  0.00000000000E+00 0. -1.
        -13    1    3    3    0    0  0.31515845275E+02 -0.17006737323E+02 -0.16497011135E+03  0.16881236701E+03  0.00000000000E+00 0. -1.
         13    1    3    3    0    0 -0.92406622295E+01  0.48190356870E+02 -0.68741309366E+02  0.84457491953E+02  0.00000000000E+00 0.  1.
         21    1    1    2  503  502 -0.64192839254E+01  0.25071293837E+02 -0.26510181636E+02  0.37048167447E+02  0.00000000000E+00 0.  1.
          2    1    1    2  501    0 -0.28596749088E+02  0.53013238832E+02  0.31541027931E+02  0.67992749561E+02  0.00000000000E+00 0. -1.
<scales pt_clust_5="13000.00000" pt_clust_6="13000.00000" pt_clust_7="13000.00000" pt_clust_8="13000.00000" pt_clust_9="25.88005" pt_clust_10="77.42554"></scales>
<clustering>
<clus scale="   25.880">  1  9  2 -1</clus>
<clus scale="   77.426">  1 10  2 -1</clus>
<clus scale="   89.755">  7  8 -1 -1</clus>
<clus scale="   94.594">  5  6 -1 -1</clus>
<clus scale="  110.371">  2  7  1 -1</clus>
<clus scale="   25.880">  1  5  2 -1</clus>
</clustering>
</event>
<event>
10    2  0.2421970E-006  0.9107751E+02  0.7546771E-02  0.1300664E+00
         21   -1    0    0  501  502  0.00000000000E+00  0.00000000000E+00  0.18038814235E+03  0.18038814235E+03  0.00000000000E+00 0.  1.
          4   -1    0    0  503    0 -0.00000000000E+00 -0.00000000000E+00 -0.19298827804E+03  0.19298827804E+03  0.00000000000E+00 0. -1.
         23    2    1    2    0    0  0.13090852001E+02  0.14433868281E+01 -0.10678808771E+03  0.14090020667E+03  0.90970977737E+02 0.  0.
         23    2    1    2    0    0  0.14718922888E+02 -0.35107877009E+01 -0.26807171101E+02  0.95403357538E+02  0.90300630594E+02 0.  0.
        -13    1    3    3    0    0  0.41467236757E+02  0.33158378363E+01 -0.14063184997E+02  0.43912409147E+02  0.00000000000E+00 0.  1.
         13    1    3    3    0    0 -0.28376384757E+02 -0.18724510083E+01 -0.92724902713E+02  0.96987797520E+02  0.00000000000E+00 0. -1.
        -13    1    4    4    0    0 -0.29635529222E+02  0.30385048072E+01 -0.38870381602E+02  0.48973499667E+02  0.00000000000E+00 0. -1.
         13    1    4    4    0    0  0.44354452110E+02 -0.65492925081E+01  0.12063210501E+02  0.46429857871E+02  0.00000000000E+00 0.  1.
         21    1    1    2  503  502 -0.83282362646E+01  0.27420546135E+02  0.34455354010E+02  0.44815368900E+02  0.00000000000E+00 0. -1.
          4    1    1    2  501    0 -0.19481538624E+02 -0.25353145262E+02  0.86539769116E+02  0.92257487287E+02  0.00000000000E+00 0. -1.
<scales pt_clust_5="13000.00000" pt_clust_6="13000.00000" pt_clust_7="13000.00000" pt_clust_8="13000.00000" pt_clust_9="28.65739" pt_clust_10="26.01171"></scales>
<clustering>
<clus scale="   28.657">  1  9  2 -1</clus>
<clus scale="   26.012">  1 10  2 -1</clus>
<clus scale="   90.301">  7  8 -1 -1</clus>
<clus scale="   90.408">  1  7  2 -1</clus>
<clus scale="   90.971">  5  6 -1 -1</clus>
<clus scale="   28.657">  1  5  2 -1</clus>
</clustering>
</event>
<event>
10    2  0.2421970E-006  0.3058095E+03  0.7546771E-02  0.1114003E+00
         21   -1    0    0  503  502  0.00000000000E+00  0.00000000000E+00  0.18895130537E+03  0.18895130537E+03  0.00000000000E+00 0.  1.
          1   -1    0    0  502    0 -0.00000000000E+00 -0.00000000000E+00 -0.75575233198E+03  0.75575233198E+03  0.00000000000E+00 0. -1.
         23    2    1    2    0    0  0.96679842965E+02  0.23640254449E+02 -0.15339180904E+03  0.20380647176E+03  0.90012094657E+02 0.  0.
         23    2    1    2    0    0 -0.33270911815E+03 -0.26175103037E+02 -0.17146460300E+03  0.38626823027E+03  0.91774409921E+02 0.  0.
        -13    1    3    3    0    0  0.46474059394E+02  0.56810220002E+02 -0.74462245296E+02  0.10455556067E+03  0.00000000000E+00 0. -1.
         13    1    3    3    0    0  0.50205783572E+02 -0.33169965553E+02 -0.78929563740E+02  0.99250911084E+02  0.00000000000E+00 0.  1.
        -13    1    4    4    0    0 -0.19544038003E+03 -0.59799365416E+02 -0.92040019799E+02  0.22415233993E+03  0.00000000000E+00 0.  1.
         13    1    4    4    0    0 -0.13726873812E+03  0.33624262379E+02 -0.79424583197E+02  0.16211589034E+03  0.00000000000E+00 0. -1.
         21    1    1    2  503  501  0.11018657736E+03 -0.30963479814E+02 -0.55480544493E+02  0.12719241223E+03  0.00000000000E+00 0. -1.
          1    1    1    2  501    0  0.12584269783E+03  0.33498328402E+02 -0.18646407009E+03  0.22743652309E+03  0.00000000000E+00 0. -1.
<scales pt_clust_5="13000.00000" pt_clust_6="13000.00000" pt_clust_7="13000.00000" pt_clust_8="13000.00000" pt_clust_9="100.57124" pt_clust_10="100.57124"></scales>
<clustering>
<clus scale="   90.012">  5  6 -1 -1</clus>
<clus scale="   91.774">  7  8 -1 -1</clus>
<clus scale="  100.571">  9 10 -1 -1</clus>
<clus scale="  134.194">  2  5  1 -1</clus>
<clus scale="  300.722">  2  7  1 -1</clus>
<clus scale="  305.810">  1  5  2 -1</clus>
</clustering>
</event>
<event>
10    2  0.2421970E-006  0.4382728E+03  0.7546771E-02  0.1079492E+00
         21   -1    0    0  501  502  0.00000000000E+00  0.00000000000E+00  0.53096468551E+03  0.53096468551E+03  0.00000000000E+00 0.  1.
          1   -1    0    0  503    0 -0.00000000000E+00 -0.00000000000E+00 -0.16388675712E+04  0.16388675712E+04  0.00000000000E+00 0. -1.
         23    2    1    2    0    0  0.42299353846E+02  0.49700856093E+02 -0.35371396634E+03  0.37109895153E+03  0.91331546653E+02 0.  0.
         23    2    1    2    0    0 -0.70840946860E+02  0.38616313275E+03 -0.90003623927E+03  0.98596811912E+03  0.89036481791E+02 0.  0.
        -13    1    3    3    0    0  0.64282353662E+02  0.12613321650E+02 -0.16512079624E+03  0.17764063225E+03  0.00000000000E+00 0.  1.
         13    1    3    3    0    0 -0.21982999816E+02  0.37087534443E+02 -0.18859317010E+03  0.19345831928E+03  0.00000000000E+00 0. -1.
        -13    1    4    4    0    0 -0.62195066148E+02  0.31528670009E+03 -0.80742534998E+03  0.86902797728E+03  0.00000000000E+00 0. -1.
         13    1    4    4    0    0 -0.86458807116E+01  0.70876432660E+02 -0.92610889286E+02  0.11694014184E+03  0.00000000000E+00 0.  1.
         21    1    1    2  503  502  0.28206407372E+03 -0.41806860833E+03 -0.27593236922E+02  0.50507711261E+03  0.00000000000E+00 0.  1.
          1    1    1    2  501    0 -0.25352248071E+03 -0.17795380510E+02  0.17344055682E+03  0.30768807345E+03  0.00000000000E+00 0. -1.
<scales pt_clust_5="13000.00000" pt_clust_6="13000.00000" pt_clust_7="13000.00000" pt_clust_8="13000.00000" pt_clust_9="429.13345" pt_clust_10="251.75631"></scales>
<clustering>
<clus scale="   89.036">  7  8 -1 -1</clus>
<clus scale="   91.332">  5  6 -1 -1</clus>
<clus scale="  112.254">  2  5  1 -1</clus>
<clus scale="  251.756">  1 10  2 -1</clus>
<clus scale="  429.133">  1  9  2 -1</clus>
<clus scale="  251.756">  1  5  2 -1</clus>
</clustering>
</event>
<event>
10    2  0.2421970E-006  0.1885941E+03  0.7546771E-02  0.1159830E+00
         21   -1    0    0  503  502  0.00000000000E+00  0.00000000000E+00  0.50755058570E+03  0.50755058570E+03  0.00000000000E+00 0. -1.
          1   -1    0    0  502    0 -0.00000000000E+00 -0.00000000000E+00 -0.15344903157E+03  0.15344903157E+03  0.00000000000E+00 0. -1.
         23    2    1    2    0    0 -0.17514028654E+03  0.58935302039E+02 -0.29060386051E+02  0.20756119464E+03  0.89942502113E+02 0.  0.
         23    2    1    2    0    0  0.95103683955E+02 -0.71524357736E+02  0.21032378336E+03  0.25815231947E+03  0.90807938796E+02 0.  0.
        -11    1    4    4    0    0  0.92020592516E+02 -0.31282851429E+02  0.94752725881E+02  0.13573682368E+03  0.00000000000E+00 0.  1.
         11    1    4    4    0    0  0.30830914395E+01 -0.40241506306E+02  0.11557105748E+03  0.12241549579E+03  0.00000000000E+00 0. -1.
        -11    1    3    3    0    0 -0.12674645705E+03  0.31917762476E+02 -0.60295599303E+02  0.14394084629E+03  0.00000000000E+00 0. -1.
         11    1    3    3    0    0 -0.48393829498E+02  0.27017539563E+02  0.31235213252E+02  0.63620348352E+02  0.00000000000E+00 0.  1.
         21    1    1    2  503  501  0.27881194136E+02 -0.14441070216E+02  0.72671722601E+02  0.79164921279E+02  0.00000000000E+00 0.  1.
          1    1    1    2  501    0  0.52155408453E+02  0.27030125912E+02  0.10016643423E+03  0.11612118189E+03  0.00000000000E+00 0. -1.
<scales pt_clust_5="13000.00000" pt_clust_6="13000.00000" pt_clust_7="13000.00000" pt_clust_8="13000.00000" pt_clust_9="30.13786" pt_clust_10="90.90453"></scales>
<clustering>
<clus scale="   30.138">  9 10 -1 -1</clus>
<clus scale="   89.943">  7  8 -1 -1</clus>
<clus scale="   90.808">  5  6 -1 -1</clus>
<clus scale="   90.905">  1  9  2 -1</clus>
<clus scale="  188.179">  2  7  1 -1</clus>
<clus scale="   90.905">  1  5  2 -1</clus>
</clustering>
</event>
<event>
10    2  0.2421970E-006  0.1305929E+03  0.7546771E-02  0.1231423E+00
         21   -1    0    0  501  502  0.00000000000E+00  0.00000000000E+00  0.12497811050E+03  0.12497811050E+03  0.00000000000E+00 0.  1.
          2   -1    0    0  503    0 -0.00000000000E+00 -0.00000000000E+00 -0.44430427803E+03  0.44430427803E+03  0.00000000000E+00 0. -1.
         23    2    1    2    0    0 -0.74539860591E+02  0.40444563788E+02 -0.11627399168E+03  0.17042993650E+03  0.91294953621E+02 0.  0.
         23    2    1    2    0    0 -0.25763570838E+02 -0.10382060230E+03 -0.14034215160E+03  0.20632527225E+03  0.10691921909E+03 0.  0.
        -11    1    4    4    0    0 -0.24137792594E+02 -0.12553486827E+03 -0.12962518617E+03  0.18205582955E+03  0.00000000000E+00 0.  1.
         11    1    4    4    0    0 -0.16257782435E+01  0.21714265965E+02 -0.10716965429E+02  0.24269442707E+02  0.00000000000E+00 0. -1.
        -11    1    3    3    0    0  0.15643021685E+02  0.27713937146E+02 -0.43229475676E+02  0.53680108111E+02  0.00000000000E+00 0.  1.
         11    1    3    3    0    0 -0.90182882276E+02  0.12730626641E+02 -0.73044516004E+02  0.11674982839E+03  0.00000000000E+00 0. -1.
         21    1    1    2  503  502  0.82696223858E+02 -0.29173401745E+02 -0.33830062498E+02  0.93990563028E+02  0.00000000000E+00 0.  1.
          2    1    1    2  501    0  0.17607207570E+02  0.92549440260E+02 -0.28879961753E+02  0.98536616756E+02  0.00000000000E+00 0. -1.
<scales pt_clust_5="13000.00000" pt_clust_6="13000.00000" pt_clust_7="13000.00000" pt_clust_8="13000.00000" pt_clust_9="87.69124" pt_clust_10="94.85841"></scales>
<clustering>
<clus scale="   87.691">  1  9  2 -1</clus>
<clus scale="   91.295">  7  8 -1 -1</clus>
<clus scale="   94.858">  1 10  2 -1</clus>
<clus scale="  106.919">  5  6 -1 -1</clus>
<clus scale="  118.142">  2  7  1 -1</clus>
<clus scale="   87.691">  1  5  2 -1</clus>
</clustering>
</event>
<event>
10    2  0.2421970E-006  0.1406076E+03  0.7546771E-02  0.1213029E+00
          2   -1    0    0  503    0 -0.00000000000E+00  0.00000000000E+00  0.81452249869E+03  0.81452249869E+03  0.00000000000E+00 0. -1.
         21   -1    0    0  501  502  0.00000000000E+00 -0.00000000000E+00 -0.39694585348E+02  0.39694585348E+02  0.00000000000E+00 0. -1.
         23    2    1    2    0    0  0.96153755138E+02  0.67041907484E+01  0.31733138528E+03  0.34383033354E+03  0.90717139399E+02 0.  0.
         23    2    1    2    0    0 -0.11930687440E+03 -0.17888986719E+02  0.34185914920E+03  0.37312659777E+03  0.88326858560E+02 0.  0.
        -13    1    4    4    0    0 -0.10293183991E+03  0.17053168945E+02  0.19356092874E+03  0.21988998926E+03  0.00000000000E+00 0. -1.
         13    1    4    4    0    0 -0.16375034488E+02 -0.34942155663E+02  0.14829822046E+03  0.15323660851E+03  0.00000000000E+00 0.  1.
        -13    1    3    3    0    0 -0.33917660141E+01  0.27829978675E+02  0.99973476302E+02  0.10383018710E+03  0.00000000000E+00 0.  1.
         13    1    3    3    0    0  0.99545521152E+02 -0.21125787927E+02  0.21735790897E+03  0.24000014644E+03  0.00000000000E+00 0. -1.
         21    1    1    2  503  502  0.32582132085E+02  0.30767663961E+02  0.10248842055E+03  0.11185759171E+03  0.00000000000E+00 0. -1.
          2    1    1    2  501    0 -0.94290128234E+01 -0.19582867990E+02  0.13148958315E+02  0.25402561019E+02  0.00000000000E+00 0. -1.
<scales pt_clust_5="13000.00000" pt_clust_6="13000.00000" pt_clust_7="13000.00000" pt_clust_8="13000.00000" pt_clust_9="41.99436" pt_clust_10="21.73465"></scales>
<clustering>
<clus scale="   21.735">  2 10  1 -1</clus>
<clus scale="   41.994">  2  9  1 -1</clus>
<clus scale="   88.327">  5  6 -1 -1</clus>
<clus scale="   90.717">  7  8 -1 -1</clus>
<clus scale="  139.077">  2  5  1 -1</clus>
<clus scale="   21.735">  2  5  1 -1</clus>
</clustering>
</event>
<event>
10    2  0.2421970E-006  0.1801003E+03  0.7546771E-02  0.1167882E+00
         21   -1    0    0  501  502  0.00000000000E+00  0.00000000000E+00  0.52920510901E+02  0.52920510901E+02  0.00000000000E+00 0.  1.
          1   -1    0    0  503    0 -0.00000000000E+00 -0.00000000000E+00 -0.12149700122E+04  0.12149700122E+04  0.00000000000E+00 0. -1.
         23    2    1    2    0    0  0.15025402031E+03 -0.92163501744E+02 -0.67278814726E+03  0.70150100478E+03  0.91593596673E+02 0.  0.
         23    2    1    2    0    0 -0.13563905990E+03 -0.64968611219E+01 -0.24993095926E+03  0.29838519431E+03  0.90155842903E+02 0.  0.
        -11    1    3    3    0    0 -0.17328524917E+01 -0.27349200238E+02 -0.48389508318E+02  0.55610485043E+02  0.00000000000E+00 0.  1.
         11    1    3    3    0    0  0.15198687281E+03 -0.64814301505E+02 -0.62439863894E+03  0.64589051974E+03  0.00000000000E+00 0. -1.
        -13    1    4    4    0    0 -0.10339899570E+03  0.12865565446E+02 -0.10223172239E+03  0.14597328574E+03  0.00000000000E+00 0.  1.
         13    1    4    4    0    0 -0.32240064205E+02 -0.19362426568E+02 -0.14769923687E+03  0.15241190857E+03  0.00000000000E+00 0. -1.
         21    1    1    2  503  502 -0.15367886664E+02  0.14325864056E+02 -0.92539657559E+01  0.22957312640E+02  0.00000000000E+00 0. -1.
          1    1    1    2  501    0  0.75292625249E+00  0.84334498809E+02 -0.23007642903E+03  0.24504701137E+03  0.00000000000E+00 0. -1.
<scales pt_clust_5="13000.00000" pt_clust_6="13000.00000" pt_clust_7="13000.00000" pt_clust_8="13000.00000" pt_clust_9="21.00958" pt_clust_10="86.67976"></scales>
<clustering>
<clus scale="   21.010">  1  9  2 -1</clus>
<clus scale="   86.680">  1 10  2 -1</clus>
<clus scale="   90.156">  7  8 -1 -1</clus>
<clus scale="   91.594">  5  6 -1 -1</clus>
<clus scale="  179.373">  1  7  2 -1</clus>
<clus scale="   21.010">  1  5  2 -1</clus>
</clustering>
</event>
<event>
10    2  0.2421970E-006  0.2110662E+03  0.7546771E-02  0.1141983E+00
          1   -1    0    0  502    0 -0.00000000000E+00  0.00000000000E+00  0.22996196021E+04  0.22996196021E+04  0.00000000000E+00 0. -1.
         21   -1    0    0  503  502  0.00000000000E+00 -0.00000000000E+00 -0.51774649895E+02  0.51774649895E+02  0.00000000000E+00 0. -1.
         23    2    1    2    0    0  0.98128688179E+02 -0.15548607192E+03  0.94480300963E+03  0.96673834283E+03  0.90139550031E+02 0.  0.
         23    2    1    2    0    0  0.14151081247E+03  0.12589461206E+03  0.45771455847E+03  0.50378100929E+03  0.91749250120E+02 0.  0.
        -11    1    3    3    0    0  0.10144626957E+03 -0.83114587285E+02  0.65658048493E+03  0.66955008283E+03  0.00000000000E+00 0.  1.
         11    1    3    3    0    0 -0.33175813861E+01 -0.72371484635E+02  0.28822252470E+03  0.29718826000E+03  0.00000000000E+00 0. -1.
        -13    1    4    4    0    0  0.54955152401E+02  0.24270462924E+02  0.24810229298E+03  0.25527215267E+03  0.00000000000E+00 0.  1.
         13    1    4    4    0    0  0.86555660067E+02  0.10162414914E+03  0.20961226549E+03  0.24850885663E+03  0.00000000000E+00 0. -1.
         21    1    1    2  503  501 -0.56094900162E+02 -0.45618478237E+01  0.13150604702E+03  0.14304296097E+03  0.00000000000E+00 0. -1.
          1    1    1    2  501    0 -0.18354460049E+03  0.34153307685E+02  0.71382133704E+03  0.73783193886E+03  0.00000000000E+00 0. -1.
<scales pt_clust_5="13000.00000" pt_clust_6="13000.00000" pt_clust_7="13000.00000" pt_clust_8="13000.00000" pt_clust_9="30.36919" pt_clust_10="197.96590"></scales>
<clustering>
<clus scale="   30.369">  9 10 -1 -1</clus>
<clus scale="   90.140">  5  6 -1 -1</clus>
<clus scale="   91.749">  7  8 -1 -1</clus>
<clus scale="  204.769">  1  5  2 -1</clus>
<clus scale="  197.966">  2  9  1 -1</clus>
<clus scale="  197.966">  2  5  1 -1</clus>
</clustering>
</event>
<event>
10    2  0.2421970E-006  0.1161529E+03  0.7546771E-02  0.1252725E+00
         21   -1    0    0  503  502  0.00000000000E+00  0.00000000000E+00  0.45226792058E+03  0.45226792058E+03  0.00000000000E+00 0. -1.
          1   -1    0    0  502    0 -0.00000000000E+00 -0.00000000000E+00 -0.15198179529E+03  0.15198179529E+03  0.00000000000E+00 0. -1.
         23    2    1    2    0    0  0.22209197698E+02  0.60764559055E+02 -0.94232756447E+02  0.14614618768E+03  0.91067643459E+02 0.  0.
         23    2    1    2    0    0 -0.20185004830E+02 -0.37391294218E+02  0.71850195155E+02  0.12981051671E+03  0.99412154189E+02 0.  0.
        -11    1    4    4    0    0  0.22454886422E+02  0.13598741734E+01 -0.13941891532E+02  0.26465969120E+02  0.00000000000E+00 0. -1.
         11    1    4    4    0    0 -0.42639891252E+02 -0.38751168392E+02  0.85792086686E+02  0.10334454759E+03  0.00000000000E+00 0.  1.
        -13    1    3    3    0    0  0.46249010280E+02  0.18226427341E+02 -0.13052740458E+02  0.51395988549E+02  0.00000000000E+00 0.  1.
         13    1    3    3    0    0 -0.24039812582E+02  0.42538131714E+02 -0.81180015989E+02  0.94750199127E+02  0.00000000000E+00 0. -1.
         21    1    1    2  503  501  0.23316576003E+02  0.10702947292E+01  0.90097538667E+02  0.93071879326E+02  0.00000000000E+00 0.  1.
          1    1    1    2  501    0 -0.25340768872E+02 -0.24443559566E+02  0.23257114791E+03  0.23522113216E+03  0.00000000000E+00 0. -1.
<scales pt_clust_5="13000.00000" pt_clust_6="13000.00000" pt_clust_7="13000.00000" pt_clust_8="13000.00000" pt_clust_9="23.34113" pt_clust_10="25.85528"></scales>
<clustering>
<clus scale="   23.341">  1  9  2 -1</clus>
<clus scale="   25.855">  1 10  2 -1</clus>
<clus scale="   91.068">  7  8 -1 -1</clus>
<clus scale="   99.412">  5  6 -1 -1</clus>
<clus scale="  109.096">  2  7  1 -1</clus>
<clus scale="   23.341">  1  5  2 -1</clus>
</clustering>
</event>
<event>
10    2  0.2421970E-006  0.2417219E+03  0.7546771E-02  0.1131832E+00
          2   -1    0    0  503    0 -0.00000000000E+00  0.00000000000E+00  0.82130532834E+03  0.82130532834E+03  0.00000000000E+00 0. -1.
         21   -1    0    0  501  502  0.00000000000E+00 -0.00000000000E+00 -0.38909403897E+03  0.38909403897E+03  0.00000000000E+00 0.  1.
         23    2    1    2    0    0  0.13762552323E+03 -0.38510853628E+02  0.77120951557E+02  0.18525424448E+03  0.89149444399E+02 0.  0.
         23    2    1    2    0    0 -0.36007471695E+03  0.68259940464E+02  0.57017795817E+03  0.68355504982E+03  0.88495089693E+02 0.  0.
        -11    1    4    4    0    0 -0.89258004610E+02  0.32480563808E+02  0.21845737429E+03  0.23821335561E+03  0.00000000000E+00 0.  1.
         11    1    4    4    0    0 -0.27081671234E+03  0.35779376656E+02  0.35172058388E+03  0.44534169421E+03  0.00000000000E+00 0. -1.
        -13    1    3    3    0    0  0.10945272552E+03 -0.66684225267E+02  0.64354502961E+02  0.14341613254E+03  0.00000000000E+00 0.  1.
         13    1    3    3    0    0  0.28172797710E+02  0.28173371638E+02  0.12766448596E+02  0.41838111932E+02  0.00000000000E+00 0. -1.
         21    1    1    2  503  502  0.16848296881E+03 -0.84499272967E+02 -0.15401375517E+03  0.24340680905E+03  0.00000000000E+00 0.  1.
          2    1    1    2  501    0  0.53966224912E+02  0.54750186131E+02 -0.61073865185E+02  0.98183263957E+02  0.00000000000E+00 0. -1.
<scales pt_clust_5="13000.00000" pt_clust_6="13000.00000" pt_clust_7="13000.00000" pt_clust_8="13000.00000" pt_clust_9="224.94025" pt_clust_10="76.87611"></scales>
<clustering>
<clus scale="   76.876">  2 10  1 -1</clus>
<clus scale="   88.495">  5  6 -1 -1</clus>
<clus scale="   89.149">  7  8 -1 -1</clus>
<clus scale="  174.386">  1  7  2 -1</clus>
<clus scale="  224.940">  2  9  1 -1</clus>
<clus scale="   76.876">  2  5  1 -1</clus>
</clustering>
</event>
<event>
10    2  0.2421970E-006  0.1006836E+03  0.7546771E-02  0.1280081E+00
         21   -1    0    0  501  502  0.00000000000E+00  0.00000000000E+00  0.75528183361E+02  0.75528183361E+02  0.00000000000E+00 0.  1.
          1   -1    0    0  503    0 -0.00000000000E+00 -0.00000000000E+00 -0.37642440759E+03  0.37642440759E+03  0.00000000000E+00 0. -1.
         23    2    1    2    0    0  0.25465109821E+02 -0.35595438579E+02 -0.14448894486E+03  0.17516820838E+03  0.88833208735E+02 0.  0.
         23    2    1    2    0    0 -0.57627732099E+02 -0.68942403593E+01 -0.82666936442E+02  0.13620696520E+03  0.91378492722E+02 0.  0.
        -13    1    4    4    0    0 -0.42437410837E+02 -0.47221348562E+02 -0.37296381037E+02  0.73632938533E+02  0.00000000000E+00 0.  1.
         13    1    4    4    0    0 -0.15190321262E+02  0.40327108202E+02 -0.45370555405E+02  0.62574026671E+02  0.00000000000E+00 0. -1.
        -13    1    3    3    0    0  0.78298879425E+01  0.21112774161E+02 -0.43076466321E+01  0.22926233826E+02  0.00000000000E+00 0. -1.
         13    1    3    3    0    0  0.17635221878E+02 -0.56708212740E+02 -0.14018129823E+03  0.15224197455E+03  0.00000000000E+00 0.  1.
         21    1    1    2  503  502  0.55151762469E+01  0.74648524990E+02 -0.61998192533E+02  0.97193597163E+02  0.00000000000E+00 0. -1.
          1    1    1    2  501    0  0.26647446032E+02 -0.32158846052E+02 -0.11742150390E+02  0.43383820201E+02  0.00000000000E+00 0. -1.
<scales pt_clust_5="13000.00000" pt_clust_6="13000.00000" pt_clust_7="13000.00000" pt_clust_8="13000.00000" pt_clust_9="66.52740" pt_clust_10="41.76455"></scales>
<clustering>
<clus scale="   41.765">  1 10  2 -1</clus>
<clus scale="   66.527">  1  9  2 -1</clus>
<clus scale="   88.833">  7  8 -1 -1</clus>
<clus scale="   91.378">  5  6 -1 -1</clus>
<clus scale="   98.379">  2  7  1 -1</clus>
<clus scale="   41.765">  1  5  2 -1</clus>
</clustering>
</event>
<event>
10    2  0.2421970E-006  0.9922222E+02  0.7546771E-02  0.1283825E+00
         21   -1    0    0  501  502  0.00000000000E+00  0.00000000000E+00  0.15026662862E+03  0.15026662862E+03  0.00000000000E+00 0. -1.
          2   -1    0    0  503    0 -0.00000000000E+00 -0.00000000000E+00 -0.15381690048E+03  0.15381690048E+03  0.00000000000E+00 0. -1.
         23    2    1    2    0    0  0.21865009692E+02 -0.11860433759E+02 -0.84986364990E+02  0.13049011854E+03  0.95844876049E+02 0.  0.
         23    2    1    2    0    0 -0.17725977912E+01  0.42022053890E+02  0.32043398548E+02  0.10631775245E+03  0.92237139919E+02 0.  0.
        -11    1    3    3    0    0  0.47152362595E+02 -0.39507810292E+02 -0.51090967817E+02  0.79965613640E+02  0.00000000000E+00 0. -1.
         11    1    3    3    0    0 -0.25287352903E+02  0.27647376533E+02 -0.33895397173E+02  0.50524504901E+02  0.00000000000E+00 0.  1.
        -13    1    4    4    0    0 -0.28045065846E+02 -0.19279429051E+02  0.16569831538E+02  0.37852099281E+02  0.00000000000E+00 0.  1.
         13    1    4    4    0    0  0.26272468055E+02  0.61301482941E+02  0.15473567010E+02  0.68465653173E+02  0.00000000000E+00 0. -1.
         21    1    1    2  503  502 -0.22736105633E+02 -0.95224521025E+01  0.23482488353E+02  0.34044600932E+02  0.00000000000E+00 0.  1.
          2    1    1    2  501    0  0.26436937324E+01 -0.20639168029E+02  0.25910206234E+02  0.33231057169E+02  0.00000000000E+00 0. -1.
<scales pt_clust_5="13000.00000" pt_clust_6="13000.00000" pt_clust_7="13000.00000" pt_clust_8="13000.00000" pt_clust_9="26.40497" pt_clust_10="20.80780"></scales>
<clustering>
<clus scale="   20.808">  1 10  2 -1</clus>
<clus scale="   26.405">  1  9  2 -1</clus>
<clus scale="   92.237">  7  8 -1 -1</clus>
<clus scale="   95.742">  1  7  2 -1</clus>
<clus scale="   95.845">  5  6 -1 -1</clus>
<clus scale="   20.808">  1  5  2 -1</clus>
</clustering>
</event>
<event>
10    2  0.2421970E-006  0.1792946E+03  0.7546771E-02  0.1187709E+00
         21   -1    0    0  501  502  0.00000000000E+00  0.00000000000E+00  0.14671126965E+03  0.14671126965E+03  0.00000000000E+00 0. -1.
          1   -1    0    0  503    0 -0.00000000000E+00 -0.00000000000E+00 -0.42546326970E+03  0.42546326970E+03  0.00000000000E+00 0. -1.
         23    2    1    2    0    0  0.11307594349E+03  0.98468542254E+02 -0.18446358987E+03  0.25490894490E+03  0.92030057005E+02 0.  0.
         23    2    1    2    0    0  0.28219015783E+01  0.18543520346E+02 -0.45710926144E+02  0.12429231745E+03  0.11404940216E+03 0.  0.
        -11    1    4    4    0    0 -0.19722537932E+02  0.41863343158E+02  0.20461228758E+02  0.50598220177E+02  0.00000000000E+00 0.  1.
         11    1    4    4    0    0  0.22544439510E+02 -0.23319822812E+02 -0.66172154902E+02  0.73694097275E+02  0.00000000000E+00 0. -1.
        -11    1    3    3    0    0  0.63182874465E+02  0.10229546754E+03 -0.15724546051E+03  0.19794588441E+03  0.00000000000E+00 0. -1.
         11    1    3    3    0    0  0.49893069024E+02 -0.38269252896E+01 -0.27218129356E+02  0.56963060482E+02  0.00000000000E+00 0.  1.
         21    1    1    2  503  502 -0.98639944314E+02 -0.13035700820E+03 -0.34686638599E+02  0.16711059541E+03  0.00000000000E+00 0. -1.
          1    1    1    2  501    0 -0.17257900755E+02  0.13344945604E+02 -0.13890845450E+02  0.25862681588E+02  0.00000000000E+00 0. -1.
<scales pt_clust_5="13000.00000" pt_clust_6="13000.00000" pt_clust_7="13000.00000" pt_clust_8="13000.00000" pt_clust_9="153.87336" pt_clust_10="21.81566"></scales>
<clustering>
<clus scale="   21.816">  1 10  2 -1</clus>
<clus scale="   92.030">  7  8 -1 -1</clus>
<clus scale="  114.049">  5  6 -1 -1</clus>
<clus scale="  116.220">  1  5  2 -1</clus>
<clus scale="  153.873">  1  9  2 -1</clus>
<clus scale="   21.816">  1  5  2 -1</clus>
</clustering>
</event>
<event>
10    2  0.2421970E-006  0.1383289E+03  0.7546771E-02  0.1224410E+00
         -4   -1    0    0    0  501 -0.00000000000E+00  0.00000000000E+00  0.54231028992E+03  0.54231028992E+03  0.00000000000E+00 0.  1.
         21   -1    0    0  501  502  0.00000000000E+00 -0.00000000000E+00 -0.66508463860E+02  0.66508463860E+02  0.00000000000E+00 0.  1.
         23    2    1    2    0    0  0.51257054535E+02 -0.20649385639E+02  0.17124788098E+03  0.19825315348E+03  0.83215343288E+02 0.  0.
         23    2    1    2    0    0 -0.11147582439E+03  0.85272478610E+02  0.21469968747E+03  0.28042592682E+03  0.11333353255E+03 0.  0.
        -11    1    4    4    0    0 -0.51798923963E+02 -0.21863079311E+02  0.51184446442E+02  0.76032692430E+02  0.00000000000E+00 0. -1.
         11    1    4    4    0    0 -0.59676900427E+02  0.10713555792E+03  0.16351524102E+03  0.20439323439E+03  0.00000000000E+00 0.  1.
        -11    1    3    3    0    0  0.58745900572E+02 -0.16677146030E+01  0.16749395533E+03  0.17750517507E+03  0.00000000000E+00 0.  1.
         11    1    3    3    0    0 -0.74888460366E+01 -0.18981671036E+02  0.37539256510E+01  0.20747978409E+02  0.00000000000E+00 0. -1.
         21    1    1    2  503  502  0.41987044625E+02 -0.23560651011E+02  0.56210458776E+02  0.74011025315E+02  0.00000000000E+00 0.  1.
         -4    1    1    2    0  503  0.18231725229E+02 -0.41062441961E+02  0.33643798840E+02  0.56128648166E+02  0.00000000000E+00 0.  1.
<scales pt_clust_5="13000.00000" pt_clust_6="13000.00000" pt_clust_7="13000.00000" pt_clust_8="13000.00000" pt_clust_9="31.45235" pt_clust_10="94.14110"></scales>
<clustering>
<clus scale="   31.452">  9 10 -1 -1</clus>
<clus scale="   83.215">  7  8 -1 -1</clus>
<clus scale="   94.141">  2  9  1 -1</clus>
<clus scale="  113.334">  5  6 -1 -1</clus>
<clus scale="  114.957">  1  7  2 -1</clus>
<clus scale="   94.141">  2  5  1 -1</clus>
</clustering>
</event>
<event>
10    2  0.2421970E-006  0.2967002E+03  0.7546771E-02  0.1086949E+00
         21   -1    0    0  501  502  0.00000000000E+00  0.00000000000E+00  0.19923900165E+03  0.19923900165E+03  0.00000000000E+00 0. -1.
          1   -1    0    0  503    0 -0.00000000000E+00 -0.00000000000E+00 -0.16164057167E+04  0.16164057167E+04  0.00000000000E+00 0. -1.
         23    2    1    2    0    0 -0.77244938160E+02 -0.27686529095E+03 -0.12480008371E+04  0.12839627865E+04  0.91832335288E+02 0.  0.
         23    2    1    2    0    0 -0.34642373624E+02  0.27642109401E+03 -0.22967849136E+03  0.37225402717E+03  0.90620836931E+02 0.  0.
        -13    1    3    3    0    0 -0.94553525175E+02 -0.25562019683E+03 -0.11687562979E+04  0.12001138854E+04  0.00000000000E+00 0. -1.
         13    1    3    3    0    0  0.17308587015E+02 -0.21245094121E+02 -0.79244539192E+02  0.83848901009E+02  0.00000000000E+00 0.  1.
        -13    1    4    4    0    0  0.11958065500E+02  0.61230389509E+02 -0.96563752315E+02  0.11496396910E+03  0.00000000000E+00 0.  1.
         13    1    4    4    0    0 -0.46600439124E+02  0.21519070450E+03 -0.13311473904E+03  0.25729005807E+03  0.00000000000E+00 0. -1.
         21    1    1    2  503  502 -0.21459141106E+01  0.28454468269E+02  0.21378806948E+02  0.35655505863E+02  0.00000000000E+00 0. -1.
          1    1    1    2  501    0  0.11403322589E+03 -0.28010271336E+02  0.39133806467E+02  0.12377239885E+03  0.00000000000E+00 0. -1.
<scales pt_clust_5="13000.00000" pt_clust_6="13000.00000" pt_clust_7="13000.00000" pt_clust_8="13000.00000" pt_clust_9="28.53527" pt_clust_10="113.92749"></scales>
<clustering>
<clus scale="   28.535">  1  9  2 -1</clus>
<clus scale="   90.621">  7  8 -1 -1</clus>
<clus scale="   91.832">  5  6 -1 -1</clus>
<clus scale="  113.927">  1 10  2 -1</clus>
<clus scale="  296.327">  1  7  2 -1</clus>
<clus scale="   28.535">  1  5  2 -1</clus>
</clustering>
</event>
<event>
10    2  0.2421970E-006  0.2976256E+03  0.7546771E-02  0.1086489E+00
         21   -1    0    0  501  502  0.00000000000E+00  0.00000000000E+00  0.20210253142E+03  0.20210253142E+03  0.00000000000E+00 0. -1.
          1   -1    0    0  503    0 -0.00000000000E+00 -0.00000000000E+00 -0.28124809405E+04  0.28124809405E+04  0.00000000000E+00 0. -1.
         23    2    1    2    0    0  0.27505698802E+03  0.11493284135E+03 -0.15158868347E+04  0.15476220254E+04  0.91406418311E+02 0.  0.
         23    2    1    2    0    0 -0.16976242150E+03 -0.23351105875E+03 -0.11202023629E+04  0.11603002769E+04  0.89981688695E+02 0.  0.
        -11    1    4    4    0    0 -0.58717972589E+01 -0.36783628628E+02 -0.69544219389E+02  0.78891772629E+02  0.00000000000E+00 0.  1.
         11    1    4    4    0    0 -0.16389062424E+03 -0.19672743012E+03 -0.10506581435E+04  0.10814085042E+04  0.00000000000E+00 0. -1.
        -11    1    3    3    0    0  0.24163952647E+03  0.12977654679E+03 -0.12949072232E+04  0.13236375371E+04  0.00000000000E+00 0.  1.
         11    1    3    3    0    0  0.33417461545E+02 -0.14843705441E+02 -0.22097961149E+03  0.22398448835E+03  0.00000000000E+00 0. -1.
         21    1    1    2  503  502  0.52229947771E+02  0.24193892720E+02 -0.77089488068E+02  0.96208632979E+02  0.00000000000E+00 0. -1.
          1    1    1    2  501    0 -0.15752451429E+03  0.94384324681E+02  0.10280027654E+03  0.21045253670E+03  0.00000000000E+00 0. -1.
<scales pt_clust_5="13000.00000" pt_clust_6="13000.00000" pt_clust_7="13000.00000" pt_clust_8="13000.00000" pt_clust_9="57.56137" pt_clust_10="162.00144"></scales>
<clustering>
<clus scale="   57.561">  1  9  2 -1</clus>
<clus scale="   89.982">  5  6 -1 -1</clus>
<clus scale="   91.406">  7  8 -1 -1</clus>
<clus scale="  162.001">  1 10  2 -1</clus>
<clus scale="  297.191">  1  5  2 -1</clus>
<clus scale="   57.561">  1  5  2 -1</clus>
</clustering>
</event>
<event>
10    2  0.2421970E-006  0.1274489E+03  0.7546771E-02  0.1247892E+00
         -3   -1    0    0    0  501 -0.00000000000E+00  0.00000000000E+00  0.12664325920E+03  0.12664325920E+03  0.00000000000E+00 0.  1.
         21   -1    0    0  503  502  0.00000000000E+00 -0.00000000000E+00 -0.41915147051E+03  0.41915147051E+03  0.00000000000E+00 0.  1.
         23    2    1    2    0    0 -0.66105371345E+02  0.30867702190E+02  0.37286348093E+02  0.99530240681E+02  0.56508954129E+02 0.  0.
         23    2    1    2    0    0 -0.36491944944E+02 -0.42053212174E+02 -0.11863778578E+02  0.10804233314E+03  0.91827347828E+02 0.  0.
        -11    1    3    3    0    0 -0.38151108764E+02  0.44406900703E+02  0.12674884059E+02  0.59901023496E+02  0.00000000000E+00 0.  1.
         11    1    3    3    0    0 -0.27954262580E+02 -0.13539198513E+02  0.24611464034E+02  0.39629217185E+02  0.00000000000E+00 0. -1.
        -13    1    4    4    0    0 -0.50218771583E+02  0.11792244168E+02 -0.92945146856E+01  0.52415360774E+02  0.00000000000E+00 0.  1.
         13    1    4    4    0    0  0.13726826638E+02 -0.53845456342E+02 -0.25692638927E+01  0.55626972371E+02  0.00000000000E+00 0. -1.
         21    1    1    2  503  501  0.83654927731E+02  0.20821211632E+02 -0.29321781691E+03  0.30562780950E+03  0.00000000000E+00 0.  1.
         -3    1    1    2    0  502  0.18942388558E+02 -0.96357016481E+01 -0.24712963915E+02  0.32594346381E+02  0.00000000000E+00 0.  1.
<scales pt_clust_5="13000.00000" pt_clust_6="13000.00000" pt_clust_7="13000.00000" pt_clust_8="13000.00000" pt_clust_9="88.37968" pt_clust_10="21.25231"></scales>
<clustering>
<clus scale="   21.252">  2 10  1 -1</clus>
<clus scale="   56.509">  5  6 -1 -1</clus>
<clus scale="   90.950">  1  5  2 -1</clus>
<clus scale="   88.380">  2  9  1 -1</clus>
<clus scale="   91.827">  7  8 -1 -1</clus>
<clus scale="   21.252">  2  5  1 -1</clus>
</clustering>
</event>
<event>
10    2  0.2421970E-006  0.1718986E+03  0.7546771E-02  0.1200132E+00
         21   -1    0    0  501  502  0.00000000000E+00  0.00000000000E+00  0.34417940324E+03  0.34417940324E+03  0.00000000000E+00 0.  1.
         -3   -1    0    0    0  501 -0.00000000000E+00 -0.00000000000E+00 -0.18470179025E+03  0.18470179025E+03  0.00000000000E+00 0.  1.
         23    2    1    2    0    0 -0.40601820353E+02 -0.16789895254E+02 -0.28120534180E+02  0.10427071184E+03  0.90284043474E+02 0.  0.
         23    2    1    2    0    0  0.94725085927E+02  0.14470272358E+03  0.14777800268E+02  0.19548612867E+03  0.89915087754E+02 0.  0.
        -13    1    4    4    0    0  0.58279745811E+02  0.24036825717E+02  0.27534103884E+02  0.68792620528E+02  0.00000000000E+00 0. -1.
         13    1    4    4    0    0  0.36445340115E+02  0.12066589786E+03 -0.12756303616E+02  0.12669350814E+03  0.00000000000E+00 0.  1.
        -13    1    3    3    0    0 -0.15712335264E+02  0.29297987253E+02  0.14955081290E+02  0.36454135471E+02  0.00000000000E+00 0.  1.
         13    1    3    3    0    0 -0.24889485088E+02 -0.46087882507E+02 -0.43075615470E+02  0.67816576367E+02  0.00000000000E+00 0. -1.
         21    1    1    2  503  502 -0.31988667642E+02 -0.21826078822E+02  0.68571808511E+02  0.78751161875E+02  0.00000000000E+00 0.  1.
         -3    1    1    2    0  503 -0.22134597933E+02 -0.10608674950E+03  0.10424853839E+03  0.15037319110E+03  0.00000000000E+00 0.  1.
<scales pt_clust_5="13000.00000" pt_clust_6="13000.00000" pt_clust_7="13000.00000" pt_clust_8="13000.00000" pt_clust_9="34.54767" pt_clust_10="157.49438"></scales>
<clustering>
<clus scale="   34.548">  9 10 -1 -1</clus>
<clus scale="   89.915">  5  6 -1 -1</clus>
<clus scale="   90.284">  7  8 -1 -1</clus>
<clus scale="  100.407">  2  7  1 -1</clus>
<clus scale="  157.494">  1  9  2 -1</clus>
<clus scale="  157.494">  1  5  2 -1</clus>
</clustering>
</event>
<event>
10    2  0.2421970E-006  0.9968510E+02  0.7546771E-02  0.1283930E+00
          2   -1    0    0  503    0 -0.00000000000E+00  0.00000000000E+00  0.30966106008E+03  0.30966106008E+03  0.00000000000E+00 0. -1.
         21   -1    0    0  501  502  0.00000000000E+00 -0.00000000000E+00 -0.79023008530E+02  0.79023008530E+02  0.00000000000E+00 0.  1.
         23    2    1    2    0    0 -0.38801376307E+02  0.20431484651E+01  0.18227099135E+03  0.20722812736E+03  0.90614906184E+02 0.  0.
         23    2    1    2    0    0  0.36882679129E+02 -0.51400739764E+02  0.59044908322E+02  0.12100113686E+03  0.84573079959E+02 0.  0.
        -13    1    4    4    0    0  0.60437885042E+02 -0.30120269132E+02  0.58356369873E+02  0.89249282718E+02  0.00000000000E+00 0. -1.
         13    1    4    4    0    0 -0.23555205914E+02 -0.21280470632E+02  0.68853844847E+00  0.31751854137E+02  0.00000000000E+00 0.  1.
        -13    1    3    3    0    0  0.29468544570E+02 -0.18721831684E+01  0.44272210139E+02  0.53215869621E+02  0.00000000000E+00 0.  1.
         13    1    3    3    0    0 -0.68269920877E+02  0.39153316336E+01  0.13799878121E+03  0.15401225774E+03  0.00000000000E+00 0. -1.
         21    1    1    2  503  502 -0.14420823953E+02  0.15544152546E+02  0.69953386708E+00  0.21214857753E+02  0.00000000000E+00 0.  1.
          2    1    1    2  501    0  0.16339521131E+02  0.33813438753E+02 -0.11377381992E+02  0.39239946637E+02  0.00000000000E+00 0. -1.
<scales pt_clust_5="13000.00000" pt_clust_6="13000.00000" pt_clust_7="13000.00000" pt_clust_8="13000.00000" pt_clust_9="21.20332" pt_clust_10="41.04475"></scales>
<clustering>
<clus scale="   21.203">  2  9  1 -1</clus>
<clus scale="   41.045">  2 10  1 -1</clus>
<clus scale="   84.573">  5  6 -1 -1</clus>
<clus scale="   90.615">  7  8 -1 -1</clus>
<clus scale="   94.227">  2  5  1 -1</clus>
<clus scale="   21.203">  2  5  1 -1</clus>
</clustering>
</event>
<event>
10    2  0.2421970E-006  0.1630741E+03  0.7546771E-02  0.1185350E+00
         21   -1    0    0  501  502  0.00000000000E+00  0.00000000000E+00  0.23769637591E+03  0.23769637591E+03  0.00000000000E+00 0.  1.
         -1   -1    0    0    0  501 -0.00000000000E+00 -0.00000000000E+00 -0.26618826876E+03  0.26618826876E+03  0.00000000000E+00 0.  1.
         23    2    1    2    0    0 -0.14124366078E+03  0.39922476160E+02 -0.13094962041E+03  0.21679618781E+03  0.91154858080E+02 0.  0.
         23    2    1    2    0    0  0.12210899490E+03  0.24646159142E+02 -0.56147605988E+01  0.15415362761E+03  0.90629882324E+02 0.  0.
        -13    1    4    4    0    0  0.44240243194E+02  0.50501867172E+02  0.16579431272E+02  0.69155731845E+02  0.00000000000E+00 0.  1.
         13    1    4    4    0    0  0.77868751711E+02 -0.25855708030E+02 -0.22194191871E+02  0.84997895760E+02  0.00000000000E+00 0. -1.
        -13    1    3    3    0    0  0.51393215296E-01  0.30090900174E+02 -0.14341040927E+02  0.33333622207E+02  0.00000000000E+00 0.  1.
         13    1    3    3    0    0 -0.14129505399E+03  0.98315759855E+01 -0.11660857949E+03  0.18346256561E+03  0.00000000000E+00 0. -1.
         21    1    1    2  503  502  0.26530995898E+02 -0.23869633191E+02  0.56424894515E+02  0.66763926286E+02  0.00000000000E+00 0.  1.
         -1    1    1    2    0  503 -0.73963300241E+01 -0.40699002111E+02  0.51647593639E+02  0.66170902966E+02  0.00000000000E+00 0.  1.
<scales pt_clust_5="13000.00000" pt_clust_6="13000.00000" pt_clust_7="13000.00000" pt_clust_8="13000.00000" pt_clust_9="35.45172" pt_clust_10="77.40805"></scales>
<clustering>
<clus scale="   35.452">  9 10 -1 -1</clus>
<clus scale="   77.408">  1  9  2 -1</clus>
<clus scale="   90.630">  5  6 -1 -1</clus>
<clus scale="   91.155">  7  8 -1 -1</clus>
<clus scale="  162.781">  1  5  2 -1</clus>
<clus scale="   77.408">  1  5  2 -1</clus>
</clustering>
</event>
<event>
10    2  0.2421970E-006  0.2462050E+03  0.7546771E-02  0.1134287E+00
         21   -1    0    0  501  502  0.00000000000E+00  0.00000000000E+00  0.77332849574E+03  0.77332849574E+03  0.00000000000E+00 0. -1.
          1   -1    0    0  503    0 -0.00000000000E+00 -0.00000000000E+00 -0.37804943765E+03  0.37804943765E+03  0.00000000000E+00 0. -1.
         23    2    1    2    0    0  0.16983978245E+03  0.16150589636E+03 -0.22740360939E+03  0.33861462549E+03  0.89541927423E+02 0.  0.
         23    2    1    2    0    0 -0.44978565479E+02  0.98941719110E+02  0.17862467633E+03  0.22987138135E+03  0.95506763308E+02 0.  0.
        -13    1    4    4    0    0 -0.46935029132E+02  0.23435638550E+02  0.12962472173E+03  0.13983810138E+03  0.00000000000E+00 0.  1.
         13    1    4    4    0    0  0.19564636529E+01  0.75506080560E+02  0.48999954596E+02  0.90033279969E+02  0.00000000000E+00 0. -1.
        -13    1    3    3    0    0  0.67608292723E+02  0.80074090082E+02 -0.16076621502E+03  0.19190757421E+03  0.00000000000E+00 0.  1.
         13    1    3    3    0    0  0.10223148973E+03  0.81431806276E+02 -0.66637394377E+02  0.14670705128E+03  0.00000000000E+00 0. -1.
         21    1    1    2  503  502 -0.38426506862E+02 -0.24627454431E+03  0.18781716648E+03  0.31209459404E+03  0.00000000000E+00 0. -1.
          1    1    1    2  501    0 -0.86434710113E+02 -0.14173071153E+02  0.25624082468E+03  0.27079733251E+03  0.00000000000E+00 0. -1.
<scales pt_clust_5="13000.00000" pt_clust_6="13000.00000" pt_clust_7="13000.00000" pt_clust_8="13000.00000" pt_clust_9="229.34503" pt_clust_10="87.58901"></scales>
<clustering>
<clus scale="   87.589">  1 10  2 -1</clus>
<clus scale="   89.542">  7  8 -1 -1</clus>
<clus scale="   95.507">  5  6 -1 -1</clus>
<clus scale="  155.425">  1  5  2 -1</clus>
<clus scale="  229.345">  1  9  2 -1</clus>
<clus scale="   87.589">  1  5  2 -1</clus>
</clustering>
</event>
<event>
10    2  0.2421970E-006  0.1401091E+03  0.7546771E-02  0.1232344E+00
         21   -1    0    0  503  502  0.00000000000E+00  0.00000000000E+00  0.16538042123E+03  0.16538042123E+03  0.00000000000E+00 0. -1.
          3   -1    0    0  502    0 -0.00000000000E+00 -0.00000000000E+00 -0.40438862075E+03  0.40438862075E+03  0.00000000000E+00 0. -1.
         23    2    1    2    0    0  0.11702217721E+02  0.97444531760E+01 -0.20377145710E+03  0.22435391484E+03  0.92628160462E+02 0.  0.
         23    2    1    2    0    0  0.93210525042E+02 -0.36471973312E+02 -0.13817732440E+03  0.19304969513E+03  0.90315031941E+02 0.  0.
        -11    1    4    4    0    0  0.10132003830E+03 -0.41900928448E+01 -0.10039594761E+03  0.14269776921E+03  0.00000000000E+00 0. -1.
         11    1    4    4    0    0 -0.81095132613E+01 -0.32281880468E+02 -0.37781376790E+02  0.50351925922E+02  0.00000000000E+00 0.  1.
        -13    1    3    3    0    0  0.10102810839E+02 -0.32303605376E+02 -0.28946662523E+02  0.44536490413E+02  0.00000000000E+00 0.  1.
         13    1    3    3    0    0  0.15994068829E+01  0.42048058552E+02 -0.17482479457E+03  0.17981742443E+03  0.00000000000E+00 0. -1.
         21    1    1    2  503  501 -0.49433943196E+02  0.27935659211E+02  0.49598914584E+02  0.75393422282E+02  0.00000000000E+00 0.  1.
          3    1    1    2  501    0 -0.55478799567E+02 -0.12081390748E+01  0.53341667396E+02  0.76972009731E+02  0.00000000000E+00 0. -1.
<scales pt_clust_5="13000.00000" pt_clust_6="13000.00000" pt_clust_7="13000.00000" pt_clust_8="13000.00000" pt_clust_9="29.61486" pt_clust_10="111.22583"></scales>
<clustering>
<clus scale="   29.615">  9 10 -1 -1</clus>
<clus scale="   90.315">  5  6 -1 -1</clus>
<clus scale="   92.628">  7  8 -1 -1</clus>
<clus scale="   93.872">  2  7  1 -1</clus>
<clus scale="  111.226">  1  9  2 -1</clus>
<clus scale="  111.226">  1  5  2 -1</clus>
</clustering>
</event>
<event>
10    2  0.2421970E-006  0.1789384E+03  0.7546771E-02  0.1183983E+00
         21   -1    0    0  501  502  0.00000000000E+00  0.00000000000E+00  0.58555968915E+03  0.58555968915E+03  0.00000000000E+00 0.  1.
         -2   -1    0    0    0  501 -0.00000000000E+00 -0.00000000000E+00 -0.41491929371E+03  0.41491929371E+03  0.00000000000E+00 0.  1.
         23    2    1    2    0    0 -0.75947768121E+02  0.33396127557E+02 -0.21271363273E+03  0.24775390162E+03  0.96184933327E+02 0.  0.
         23    2    1    2    0    0  0.22307655974E+03 -0.47684015584E+02 -0.81895202249E+02  0.25898514243E+03  0.91266439599E+02 0.  0.
        -11    1    3    3    0    0 -0.59273170438E+02 -0.25347101538E+02 -0.90235307598E+02  0.11089722732E+03  0.00000000000E+00 0.  1.
         11    1    3    3    0    0 -0.16674597682E+02  0.58743229094E+02 -0.12247832514E+03  0.13685667430E+03  0.00000000000E+00 0. -1.
        -11    1    4    4    0    0  0.49507027729E+02  0.13070923377E+02  0.11874767767E+02  0.52562390946E+02  0.00000000000E+00 0. -1.
         11    1    4    4    0    0  0.17356953201E+03 -0.60754938961E+02 -0.93769970016E+02  0.20642275148E+03  0.00000000000E+00 0.  1.
         21    1    1    2  503  502 -0.69080993339E+02 -0.16491003199E+02  0.30146418488E+03  0.30971727687E+03  0.00000000000E+00 0.  1.
         -2    1    1    2    0  503 -0.78047798284E+02  0.30778891226E+02  0.16378504555E+03  0.18402266194E+03  0.00000000000E+00 0.  1.
<scales pt_clust_5="13000.00000" pt_clust_6="13000.00000" pt_clust_7="13000.00000" pt_clust_8="13000.00000" pt_clust_9="68.05587" pt_clust_10="170.76483"></scales>
<clustering>
<clus scale="   68.056">  9 10 -1 -1</clus>
<clus scale="   91.266">  7  8 -1 -1</clus>
<clus scale="   96.185">  5  6 -1 -1</clus>
<clus scale="  127.023">  2  5  1 -1</clus>
<clus scale="  170.765">  1  9  2 -1</clus>
<clus scale="  170.765">  1  5  2 -1</clus>
</clustering>
</event>
<event>
10    2  0.2421970E-006  0.1014451E+03  0.7546771E-02  0.1279937E+00
         -3   -1    0    0    0  501 -0.00000000000E+00  0.00000000000E+00  0.25424286389E+03  0.25424286389E+03  0.00000000000E+00 0.  1.
         21   -1    0    0  503  502  0.00000000000E+00 -0.00000000000E+00 -0.23511360873E+03  0.23511360873E+03  0.00000000000E+00 0. -1.
         23    2    1    2    0    0  0.28971632443E+02  0.50612076314E+02  0.17005127157E+03  0.20182935228E+03  0.91742654877E+02 0.  0.
         23    2    1    2    0    0  0.39132325399E+02  0.38484835770E+02 -0.58729848342E+02  0.12269156746E+03  0.92690906590E+02 0.  0.
        -11    1    4    4    0    0 -0.10750961799E+02 -0.21745393275E+02 -0.31765288240E+02  0.39968473141E+02  0.00000000000E+00 0.  1.
         11    1    4    4    0    0  0.49883287198E+02  0.60230229044E+02 -0.26964560102E+02  0.82723094320E+02  0.00000000000E+00 0. -1.
        -13    1    3    3    0    0  0.55543305188E+02  0.22829445894E+02  0.58486448629E+02  0.83826648653E+02  0.00000000000E+00 0. -1.
         13    1    3    3    0    0 -0.26571672745E+02  0.27782630420E+02  0.11156482294E+03  0.11800270363E+03  0.00000000000E+00 0.  1.
         21    1    1    2  503  501  0.54138878273E+01 -0.20490577909E+02  0.82171099537E+01  0.22730923000E+02  0.00000000000E+00 0.  1.
         -3    1    1    2    0  502 -0.73517845669E+02 -0.68606334174E+02 -0.10040927802E+03  0.14210462988E+03  0.00000000000E+00 0.  1.
<scales pt_clust_5="13000.00000" pt_clust_6="13000.00000" pt_clust_7="13000.00000" pt_clust_8="13000.00000" pt_clust_9="21.19372" pt_clust_10="101.44511"></scales>
<clustering>
<clus scale="   21.194">  1  9  2 -1</clus>
<clus scale="   91.743">  7  8 -1 -1</clus>
<clus scale="   92.691">  5  6 -1 -1</clus>
<clus scale="  101.445">  2 10  1 -1</clus>
<clus scale="   96.444">  1  7  2 -1</clus>
<clus scale="  101.445">  2  5  1 -1</clus>
</clustering>
</event>
<event>
10    2  0.2421970E-006  0.1555605E+03  0.7546771E-02  0.1193990E+00
         21   -1    0    0  501  502  0.00000000000E+00  0.00000000000E+00  0.13827876098E+03  0.13827876098E+03  0.00000000000E+00 0. -1.
          2   -1    0    0  503    0 -0.00000000000E+00 -0.00000000000E+00 -0.11428076090E+04  0.11428076090E+04  0.00000000000E+00 0. -1.
         23    2    1    2    0    0  0.94623290373E+02  0.93961203288E+02 -0.88852068407E+03  0.90315515783E+03  0.91858359990E+02 0.  0.
         23    2    1    2    0    0 -0.64127467307E+02 -0.82707283291E+02 -0.21712583919E+03  0.25755798175E+03  0.90772557212E+02 0.  0.
        -11    1    4    4    0    0 -0.83996244285E+02 -0.68239717218E+02 -0.14215962123E+03  0.17866557019E+03  0.00000000000E+00 0.  1.
         11    1    4    4    0    0  0.19868776978E+02 -0.14467566072E+02 -0.74966217960E+02  0.78892411561E+02  0.00000000000E+00 0. -1.
        -13    1    3    3    0    0  0.13341391315E+02  0.77197338661E+02 -0.47012016678E+03  0.47660297212E+03  0.00000000000E+00 0. -1.
         13    1    3    3    0    0  0.81281899057E+02  0.16763864627E+02 -0.41840051729E+03  0.42655218572E+03  0.00000000000E+00 0.  1.
         21    1    1    2  503  502 -0.36590111095E+02  0.11191015610E+02  0.41848971991E+02  0.56704598729E+02  0.00000000000E+00 0. -1.
          2    1    1    2  501    0  0.60942880292E+01 -0.22444935607E+02  0.59268703225E+02  0.63668631704E+02  0.00000000000E+00 0. -1.
<scales pt_clust_5="13000.00000" pt_clust_6="13000.00000" pt_clust_7="13000.00000" pt_clust_8="13000.00000" pt_clust_9="32.83749" pt_clust_10="23.25759"></scales>
<clustering>
<clus scale="   23.258">  1 10  2 -1</clus>
<clus scale="   32.837">  1  9  2 -1</clus>
<clus scale="   90.773">  5  6 -1 -1</clus>
<clus scale="   91.858">  7  8 -1 -1</clus>
<clus scale="  154.922">  1  5  2 -1</clus>
<clus scale="   23.258">  1  5  2 -1</clus>
</clustering>
</event>
<event>
10    2  0.2421970E-006  0.1656140E+03  0.7546771E-02  0.1182739E+00
         21   -1    0    0  503  502  0.00000000000E+00  0.00000000000E+00  0.11462645598E+03  0.11462645598E+03  0.00000000000E+00 0. -1.
         -1   -1    0    0    0  501 -0.00000000000E+00 -0.00000000000E+00 -0.60502061476E+03  0.60502061476E+03  0.00000000000E+00 0.  1.
         23    2    1    2    0    0 -0.63871757195E+02  0.63044906294E+02 -0.11650704445E+03  0.17065583368E+03  0.86575173034E+02 0.  0.
         23    2    1    2    0    0  0.19135453307E+03 -0.11175017225E+03 -0.17101366807E+03  0.29249669557E+03  0.84876286021E+02 0.  0.
        -13    1    4    4    0    0  0.19233110323E+03 -0.85745619737E+02 -0.14479836253E+03  0.25555846760E+03  0.00000000000E+00 0. -1.
         13    1    4    4    0    0 -0.97657015992E+00 -0.26004552509E+02 -0.26215305543E+02  0.36938227965E+02  0.00000000000E+00 0.  1.
        -13    1    3    3    0    0 -0.23199862562E+02 -0.14621315293E+02 -0.35255440434E+01  0.27648615601E+02  0.00000000000E+00 0.  1.
         13    1    3    3    0    0 -0.40671894633E+02  0.77666221587E+02 -0.11298150041E+03  0.14300721808E+03  0.00000000000E+00 0. -1.
         21    1    1    2  503  501 -0.45920043845E+02  0.20900867075E+02 -0.14279756837E+03  0.15144848036E+03  0.00000000000E+00 0.  1.
         -1    1    1    2    0  502 -0.81562732031E+02  0.27804398877E+02 -0.60075877892E+02  0.10504606112E+03  0.00000000000E+00 0.  1.
<scales pt_clust_5="13000.00000" pt_clust_6="13000.00000" pt_clust_7="13000.00000" pt_clust_8="13000.00000" pt_clust_9="50.45292" pt_clust_10="95.22863"></scales>
<clustering>
<clus scale="   50.453">  2  9  1 -1</clus>
<clus scale="   84.876">  5  6 -1 -1</clus>
<clus scale="   86.575">  7  8 -1 -1</clus>
<clus scale="   95.229">  1 10  2 -1</clus>
<clus scale="  164.732">  1  5  2 -1</clus>
<clus scale="   95.229">  1  5  2 -1</clus>
</clustering>
</event>
<event>
10    2  0.2421970E-006  0.1029369E+03  0.7546771E-02  0.1274538E+00
          4   -1    0    0  503    0 -0.00000000000E+00  0.00000000000E+00  0.38742810583E+03  0.38742810583E+03  0.00000000000E+00 0. -1.
         21   -1    0    0  501  502  0.00000000000E+00 -0.00000000000E+00 -0.89690802287E+02  0.89690802287E+02  0.00000000000E+00 0. -1.
         23    2    1    2    0    0 -0.70742402277E+01 -0.29861440225E+02  0.17546486675E+03  0.19976131608E+03  0.90415227987E+02 0.  0.
         23    2    1    2    0    0  0.18009534389E+02  0.77449735526E+02  0.16084901858E+03  0.20062175413E+03  0.89743393006E+02 0.  0.
        -11    1    3    3    0    0 -0.26332984720E+02 -0.53473331771E+02  0.81437605284E+02  0.10092029949E+03  0.00000000000E+00 0. -1.
         11    1    3    3    0    0  0.19258744493E+02  0.23611891547E+02  0.94027261464E+02  0.98841016588E+02  0.00000000000E+00 0.  1.
        -13    1    4    4    0    0 -0.22672313680E+02 -0.49587515645E+01  0.59198519111E+02  0.63585278875E+02  0.00000000000E+00 0.  1.
         13    1    4    4    0    0  0.40681848069E+02  0.82408487090E+02  0.10165049947E+03  0.13703647525E+03  0.00000000000E+00 0. -1.
         21    1    1    2  503  502 -0.27317819867E+02 -0.32080300920E+02 -0.32941676270E+02  0.53484231554E+02  0.00000000000E+00 0. -1.
          4    1    1    2  501    0  0.16382525706E+02 -0.15507994380E+02 -0.56349055132E+01  0.23251606361E+02  0.00000000000E+00 0. -1.
<scales pt_clust_5="13000.00000" pt_clust_6="13000.00000" pt_clust_7="13000.00000" pt_clust_8="13000.00000" pt_clust_9="44.72835" pt_clust_10="22.55848"></scales>
<clustering>
<clus scale="   22.558">  2 10  1 -1</clus>
<clus scale="   44.728">  2  9  1 -1</clus>
<clus scale="   89.743">  7  8 -1 -1</clus>
<clus scale="   90.415">  5  6 -1 -1</clus>
<clus scale="  102.347">  2  7  1 -1</clus>
<clus scale="   22.558">  2  5  1 -1</clus>
</clustering>
</event>
<event>
10    2  0.2985628E-006  0.4594187E+03  0.7546771E-02  0.1066080E+00
         21   -1    0    0  501  502  0.00000000000E+00  0.00000000000E+00  0.76698093437E+03  0.76698093437E+03  0.00000000000E+00 0.  1.
          2   -1    0    0  503    0 -0.00000000000E+00 -0.00000000000E+00 -0.72454119886E+03  0.72454119886E+03  0.00000000000E+00 0. -1.
         23    2    1    2    0    0 -0.29440022361E+02 -0.10022961237E+03 -0.18565390756E+03  0.23289162686E+03  0.94119319779E+02 0.  0.
         23    2    1    2    0    0  0.27356711345E+03 -0.28685923749E+03 -0.26080346741E+03  0.48291612565E+03  0.89790579145E+02 0.  0.
        -13    1    4    4    0    0  0.15240483162E+03 -0.21608861017E+03 -0.19101190312E+03  0.32620096150E+03  0.00000000000E+00 0. -1.
         13    1    4    4    0    0  0.12116228183E+03 -0.70770627316E+02 -0.69791564292E+02  0.15671516415E+03  0.00000000000E+00 0.  1.
        -13    1    3    3    0    0 -0.57759913959E+02 -0.32889642883E+02 -0.74060270312E+02  0.99513114253E+02  0.00000000000E+00 0.  1.
         13    1    3    3    0    0  0.28319891598E+02 -0.67339969485E+02 -0.11159363725E+03  0.13337851260E+03  0.00000000000E+00 0. -1.
         21    1    1    2  503  502 -0.30743423758E+03  0.40306667501E+03  0.49700047613E+03  0.70992114225E+03  0.00000000000E+00 0.  1.
          2    1    1    2  501    0  0.63307146492E+02 -0.15977825154E+02 -0.81033656475E+01  0.65793238470E+02  0.00000000000E+00 0. -1.
<scales pt_clust_5="13000.00000" pt_clust_6="13000.00000" pt_clust_7="13000.00000" pt_clust_8="13000.00000" pt_clust_9="450.55876" pt_clust_10="65.29234"></scales>
<clustering>
<clus scale="   65.292">  1 10  2 -1</clus>
<clus scale="   89.791">  5  6 -1 -1</clus>
<clus scale="   94.119">  7  8 -1 -1</clus>
<clus scale="  140.566">  2  7  1 -1</clus>
<clus scale="  450.559">  1  9  2 -1</clus>
<clus scale="   65.292">  1  5  2 -1</clus>
</clustering>
</event>
<event>
10    2  0.2421970E-006  0.1281120E+03  0.7546771E-02  0.1235210E+00
         -1   -1    0    0    0  501 -0.00000000000E+00  0.00000000000E+00  0.16390409086E+03  0.16390409086E+03  0.00000000000E+00 0.  1.
         21   -1    0    0  503  502  0.00000000000E+00 -0.00000000000E+00 -0.30615419436E+03  0.30615419436E+03  0.00000000000E+00 0. -1.
         23    2    1    2    0    0  0.96449856929E+02 -0.43568474644E+02  0.36077636301E+02  0.15527143519E+03  0.10773502615E+03 0.  0.
         23    2    1    2    0    0 -0.17201172394E+02  0.89045303358E+01 -0.54086303683E+02  0.10908224844E+03  0.92727761140E+02 0.  0.
        -11    1    3    3    0    0  0.51221224528E+02 -0.76568198540E+02  0.37006071467E+02  0.99276141118E+02  0.00000000000E+00 0. -1.
         11    1    3    3    0    0  0.45228632401E+02  0.32999723897E+02 -0.92843516609E+00  0.55995294070E+02  0.00000000000E+00 0.  1.
        -11    1    4    4    0    0 -0.45868666800E+02  0.16981678006E+02 -0.61315248792E+02  0.78433868426E+02  0.00000000000E+00 0.  1.
         11    1    4    4    0    0  0.28667494406E+02 -0.80771476706E+01  0.72289451082E+01  0.30648380012E+02  0.00000000000E+00 0. -1.
         21    1    1    2  503  501 -0.62561339489E+02 -0.32227564214E+02 -0.83641568655E+01  0.70869571848E+02  0.00000000000E+00 0.  1.
         -1    1    1    2    0  502 -0.16687345046E+02  0.66891508522E+02 -0.11587727926E+03  0.13483502974E+03  0.00000000000E+00 0.  1.
<scales pt_clust_5="13000.00000" pt_clust_6="13000.00000" pt_clust_7="13000.00000" pt_clust_8="13000.00000" pt_clust_9="68.50928" pt_clust_10="68.94158"></scales>
<clustering>
<clus scale="   68.942">  2 10  1 -1</clus>
<clus scale="   68.509">  2  9  1 -1</clus>
<clus scale="   92.728">  7  8 -1 -1</clus>
<clus scale="  107.735">  5  6 -1 -1</clus>
<clus scale="  115.777">  2  7  1 -1</clus>
<clus scale="   68.942">  2  5  1 -1</clus>
</clustering>
</event>
<event>
10    2  0.2421970E-006  0.1235248E+03  0.7546771E-02  0.1240544E+00
         21   -1    0    0  503  502  0.00000000000E+00  0.00000000000E+00  0.21824172000E+03  0.21824172000E+03  0.00000000000E+00 0.  1.
         -2   -1    0    0    0  501 -0.00000000000E+00 -0.00000000000E+00 -0.18507582358E+03  0.18507582358E+03  0.00000000000E+00 0.  1.
         23    2    1    2    0    0 -0.89632732746E+02 -0.77661644602E+02 -0.61691312959E+02  0.16750976788E+03  0.10093733907E+03 0.  0.
         23    2    1    2    0    0  0.42678240666E+02  0.10974767791E+02  0.62620037605E+02  0.11922864711E+03  0.91391046765E+02 0.  0.
        -11    1    3    3    0    0 -0.80477303811E+02 -0.10124165387E+03 -0.43876116606E+02  0.13657079671E+03  0.00000000000E+00 0.  1.
         11    1    3    3    0    0 -0.91554289352E+01  0.23580009264E+02 -0.17815196353E+02  0.30938971169E+02  0.00000000000E+00 0. -1.
        -11    1    4    4    0    0  0.18802294563E+02 -0.84894758008E+01  0.80845663159E+02  0.83436315426E+02  0.00000000000E+00 0.  1.
         11    1    4    4    0    0  0.23875946103E+02  0.19464243592E+02 -0.18225625554E+02  0.35792331689E+02  0.00000000000E+00 0. -1.
         21    1    1    2  503  501  0.51506303486E+02  0.13309816200E+02 -0.15903050440E+01  0.53221983956E+02  0.00000000000E+00 0.  1.
         -2    1    1    2    0  502 -0.45518114052E+01  0.53377060611E+02  0.33827476820E+02  0.63357144621E+02  0.00000000000E+00 0.  1.
<scales pt_clust_5="13000.00000" pt_clust_6="13000.00000" pt_clust_7="13000.00000" pt_clust_8="13000.00000" pt_clust_9="53.19822" pt_clust_10="54.62412"></scales>
<clustering>
<clus scale="   53.198">  2  9  1 -1</clus>
<clus scale="   54.624">  1 10  2 -1</clus>
<clus scale="   91.391">  7  8 -1 -1</clus>
<clus scale="  100.937">  5  6 -1 -1</clus>
<clus scale="  115.855">  1  7  2 -1</clus>
<clus scale="   54.624">  1  5  2 -1</clus>
</clustering>
</event>
<event>
10    2  0.2421970E-006  0.1943843E+03  0.7546771E-02  0.1174901E+00
         21   -1    0    0  501  502  0.00000000000E+00  0.00000000000E+00  0.14884432064E+03  0.14884432064E+03  0.00000000000E+00 0. -1.
          2   -1    0    0  503    0 -0.00000000000E+00 -0.00000000000E+00 -0.62337645545E+03  0.62337645545E+03  0.00000000000E+00 0. -1.
         23    2    1    2    0    0 -0.65798993634E+01 -0.10146990137E+03 -0.52543909640E+02  0.14688753843E+03  0.92063296414E+02 0.  0.
         23    2    1    2    0    0  0.19007619672E+03  0.34820583369E+02 -0.20876886602E+03  0.29883115490E+03  0.91510579359E+02 0.  0.
        -11    1    3    3    0    0 -0.29445086443E+02  0.34595297688E+01 -0.87753944824E+01  0.30919071949E+02  0.00000000000E+00 0.  1.
         11    1    3    3    0    0  0.22865187080E+02 -0.10492943114E+03 -0.43768515158E+02  0.11596846648E+03  0.00000000000E+00 0. -1.
        -13    1    4    4    0    0  0.20803386275E+02 -0.34347036128E+01  0.67389097723E+01  0.22135739751E+02  0.00000000000E+00 0.  1.
         13    1    4    4    0    0  0.16927281044E+03  0.38255286982E+02 -0.21550777579E+03  0.27669541515E+03  0.00000000000E+00 0. -1.
         21    1    1    2  503  502 -0.28521560084E+02  0.60420175530E+02 -0.51864103090E+01  0.67014743547E+02  0.00000000000E+00 0. -1.
          2    1    1    2  501    0 -0.15497473727E+03  0.62291424685E+01 -0.20803294884E+03  0.25948733921E+03  0.00000000000E+00 0. -1.
<scales pt_clust_5="13000.00000" pt_clust_6="13000.00000" pt_clust_7="13000.00000" pt_clust_8="13000.00000" pt_clust_9="66.81375" pt_clust_10="171.49669"></scales>
<clustering>
<clus scale="   66.814">  1  9  2 -1</clus>
<clus scale="   91.511">  7  8 -1 -1</clus>
<clus scale="   92.063">  5  6 -1 -1</clus>
<clus scale="  121.552">  2  5  1 -1</clus>
<clus scale="  171.497">  1 10  2 -1</clus>
<clus scale="   66.814">  1  5  2 -1</clus>
</clustering>
</event>
<event>
10    2  0.2421970E-006  0.1438022E+03  0.7546771E-02  0.1226252E+00
          1   -1    0    0  502    0 -0.00000000000E+00  0.00000000000E+00  0.13146972103E+04  0.13146972103E+04  0.00000000000E+00 0. -1.
         21   -1    0    0  503  502  0.00000000000E+00 -0.00000000000E+00 -0.36129208367E+02  0.36129208367E+02  0.00000000000E+00 0. -1.
         23    2    1    2    0    0  0.40453207989E+02 -0.46717925536E-02  0.12168820457E+03  0.15654259006E+03  0.89783636100E+02 0.  0.
         23    2    1    2    0    0 -0.11805300537E+03 -0.67906336294E+02  0.88197191020E+03  0.89713063258E+03  0.91766763830E+02 0.  0.
        -11    1    4    4    0    0 -0.12852942503E+03 -0.46633688925E+02  0.80691902719E+03  0.81842093722E+03  0.00000000000E+00 0. -1.
         11    1    4    4    0    0  0.10476419665E+02 -0.21272647369E+02  0.75052883017E+02  0.78709695363E+02  0.00000000000E+00 0.  1.
        -13    1    3    3    0    0  0.32605051640E+02 -0.26266599262E+02  0.12215279969E+03  0.12912912181E+03  0.00000000000E+00 0.  1.
         13    1    3    3    0    0  0.78481563498E+01  0.26261927469E+02 -0.46459511462E+00  0.27413468243E+02  0.00000000000E+00 0. -1.
         21    1    1    2  503  501  0.67394006478E+02  0.40490480728E+02  0.15592054377E+03  0.17462143943E+03  0.00000000000E+00 0. -1.
          1    1    1    2  501    0  0.10205790899E+02  0.27420527358E+02  0.11898734335E+03  0.12253175656E+03  0.00000000000E+00 0. -1.
<scales pt_clust_5="13000.00000" pt_clust_6="13000.00000" pt_clust_7="13000.00000" pt_clust_8="13000.00000" pt_clust_9="27.90210" pt_clust_10="119.79139"></scales>
<clustering>
<clus scale="   27.902">  9 10 -1 -1</clus>
<clus scale="   89.784">  7  8 -1 -1</clus>
<clus scale="   91.767">  5  6 -1 -1</clus>
<clus scale="   98.476">  1  7  2 -1</clus>
<clus scale="  119.791">  2  9  1 -1</clus>
<clus scale="  119.791">  2  5  1 -1</clus>
</clustering>
</event>
<event>
10    2  0.2421970E-006  0.9755427E+02  0.7546771E-02  0.1285607E+00
         21   -1    0    0  501  502  0.00000000000E+00  0.00000000000E+00  0.42954689190E+03  0.42954689190E+03  0.00000000000E+00 0. -1.
          3   -1    0    0  503    0 -0.00000000000E+00 -0.00000000000E+00 -0.72849239689E+02  0.72849239689E+02  0.00000000000E+00 0. -1.
         23    2    1    2    0    0 -0.24018077601E+02 -0.29904254603E+01  0.25277073338E+02  0.97485921972E+02  0.90987712633E+02 0.  0.
         23    2    1    2    0    0  0.41042853522E+02 -0.61832664602E+02  0.92825748767E+02  0.14957851130E+03  0.90825751703E+02 0.  0.
        -11    1    4    4    0    0  0.69190484616E+02 -0.32995226374E+02  0.55363306348E+02  0.94557410152E+02  0.00000000000E+00 0. -1.
         11    1    4    4    0    0 -0.28147631095E+02 -0.28837438228E+02  0.37462442419E+02  0.55021101150E+02  0.00000000000E+00 0.  1.
        -13    1    3    3    0    0  0.34280869712E+02 -0.34674604867E+01  0.13975327621E+01  0.34484118203E+02  0.00000000000E+00 0. -1.
         13    1    3    3    0    0 -0.58298947312E+02  0.47703502640E+00  0.23879540575E+02  0.63001803770E+02  0.00000000000E+00 0.  1.
         21    1    1    2  503  502 -0.72949140660E+01  0.39955416629E+02  0.48012134238E+02  0.62887328798E+02  0.00000000000E+00 0.  1.
          3    1    1    2  501    0 -0.97298618551E+01  0.24867673433E+02  0.19058269586E+03  0.19244436951E+03  0.00000000000E+00 0. -1.
<scales pt_clust_5="13000.00000" pt_clust_6="13000.00000" pt_clust_7="13000.00000" pt_clust_8="13000.00000" pt_clust_9="46.73683" pt_clust_10="26.70340"></scales>
<clustering>
<clus scale="   26.703">  1 10  2 -1</clus>
<clus scale="   46.737">  1  9  2 -1</clus>
<clus scale="   90.826">  5  6 -1 -1</clus>
<clus scale="   90.988">  7  8 -1 -1</clus>
<clus scale="   97.403">  1  5  2 -1</clus>
<clus scale="   26.703">  1  5  2 -1</clus>
</clustering>
</event>
<event>
10    2  0.2421970E-006  0.5424334E+03  0.7546771E-02  0.1043379E+00
          1   -1    0    0  502    0 -0.00000000000E+00  0.00000000000E+00  0.79914170736E+03  0.79914170736E+03  0.00000000000E+00 0. -1.
         21   -1    0    0  503  502  0.00000000000E+00 -0.00000000000E+00 -0.89872090028E+03  0.89872090028E+03  0.00000000000E+00 0. -1.
         23    2    1    2    0    0 -0.12976161272E+03  0.31753821944E+02  0.15069956630E+03  0.22145019848E+03  0.92105644664E+02 0.  0.
         23    2    1    2    0    0 -0.19151368903E+03  0.93133451861E+02  0.94935027639E+02  0.25038904642E+03  0.91272570641E+02 0.  0.
        -11    1    3    3    0    0 -0.38043102807E+01  0.34709302720E+02  0.45231777233E+02  0.57141247306E+02  0.00000000000E+00 0. -1.
         11    1    3    3    0    0 -0.12595730244E+03 -0.29554807757E+01  0.10546778907E+03  0.16430895118E+03  0.00000000000E+00 0.  1.
        -13    1    4    4    0    0 -0.64781909852E+02  0.80182314272E+02  0.55273088218E+02  0.11696586531E+03  0.00000000000E+00 0.  1.
         13    1    4    4    0    0 -0.12673177918E+03  0.12951137589E+02  0.39661939421E+02  0.13342318111E+03  0.00000000000E+00 0. -1.
         21    1    1    2  503  501  0.48446096313E+03 -0.44608319826E+03 -0.50698316659E+03  0.83109841521E+03  0.00000000000E+00 0. -1.
          1    1    1    2  501    0 -0.16318566137E+03  0.32119592445E+03  0.16176937973E+03  0.39492494753E+03  0.00000000000E+00 0. -1.
<scales pt_clust_5="13000.00000" pt_clust_6="13000.00000" pt_clust_7="13000.00000" pt_clust_8="13000.00000" pt_clust_9="542.43342" pt_clust_10="13000.00000"></scales>
<clustering>
<clus scale="   91.273">  7  8 -1 -1</clus>
<clus scale="   92.106">  5  6 -1 -1</clus>
<clus scale="  162.265">  1  5  2 -1</clus>
<clus scale="  266.010">  1  7  2 -1</clus>
<clus scale="  542.433">  2  9  1 -1</clus>
<clus scale="  542.433">  2  5  1 -1</clus>
</clustering>
</event>
<event>
10    2  0.2421970E-006  0.1867988E+03  0.7546771E-02  0.1162138E+00
         21   -1    0    0  501  502  0.00000000000E+00  0.00000000000E+00  0.79215885972E+03  0.79215885972E+03  0.00000000000E+00 0.  1.
          1   -1    0    0  503    0 -0.00000000000E+00 -0.00000000000E+00 -0.95693436720E+02  0.95693436720E+02  0.00000000000E+00 0. -1.
         23    2    1    2    0    0 -0.26188896899E+02  0.16279940893E+03  0.60387400183E+02  0.19716266035E+03  0.89649153194E+02 0.  0.
         23    2    1    2    0    0  0.87079130752E+02 -0.12644185851E+03  0.49463879728E+03  0.52676354684E+03  0.96135196001E+02 0.  0.
        -11    1    4    4    0    0 -0.17543124860E+02 -0.34446405899E+02  0.15307032370E+03  0.15787602766E+03  0.00000000000E+00 0.  1.
         11    1    4    4    0    0  0.10462225561E+03 -0.91995452614E+02  0.34156847358E+03  0.36888751919E+03  0.00000000000E+00 0. -1.
        -11    1    3    3    0    0  0.20229706333E+02  0.75504759451E+02  0.59588895451E+02  0.98290621013E+02  0.00000000000E+00 0.  1.
         11    1    3    3    0    0 -0.46418603232E+02  0.87294649475E+02  0.79850473172E+00  0.98872039338E+02  0.00000000000E+00 0. -1.
         21    1    1    2  503  502 -0.41066890927E+02 -0.54863114293E+00  0.82652449251E+02  0.92294192091E+02  0.00000000000E+00 0. -1.
          1    1    1    2  501    0 -0.19823342926E+02 -0.35808919269E+02  0.58786776285E+02  0.71631897155E+02  0.00000000000E+00 0. -1.
<scales pt_clust_5="13000.00000" pt_clust_6="13000.00000" pt_clust_7="13000.00000" pt_clust_8="13000.00000" pt_clust_9="43.72288" pt_clust_10="40.92974"></scales>
<clustering>
<clus scale="   40.930">  1 10  2 -1</clus>
<clus scale="   43.723">  1  9  2 -1</clus>
<clus scale="   89.649">  7  8 -1 -1</clus>
<clus scale="   96.135">  5  6 -1 -1</clus>
<clus scale="  183.545">  2  7  1 -1</clus>
<clus scale="   40.930">  1  5  2 -1</clus>
</clustering>
</event>
<event>
10    2  0.2627530E-006  0.1914818E+03  0.7546771E-02  0.1186876E+00
         21   -1    0    0  503  502  0.00000000000E+00  0.00000000000E+00  0.11338021769E+03  0.11338021769E+03  0.00000000000E+00 0. -1.
          1   -1    0    0  502    0 -0.00000000000E+00 -0.00000000000E+00 -0.72644974969E+03  0.72644974969E+03  0.00000000000E+00 0. -1.
         23    2    1    2    0    0  0.23939809523E+02 -0.22147409587E+02 -0.12082383267E+03  0.15506445433E+03  0.91558528953E+02 0.  0.
         23    2    1    2    0    0 -0.18736078263E+03  0.35145890800E+02 -0.45870273210E+03  0.50495519382E+03  0.90731774028E+02 0.  0.
        -13    1    4    4    0    0 -0.12738890485E+03 -0.18165186462E+02 -0.31681169879E+03  0.34194672037E+03  0.00000000000E+00 0.  1.
         13    1    4    4    0    0 -0.59971877779E+02  0.53311077261E+02 -0.14189103331E+03  0.16300847345E+03  0.00000000000E+00 0. -1.
        -13    1    3    3    0    0  0.56407752457E+02 -0.20674929942E+01 -0.54063611351E+02  0.78159984243E+02  0.00000000000E+00 0.  1.
         13    1    3    3    0    0 -0.32467942934E+02 -0.20079916593E+02 -0.66760221315E+02  0.76904470084E+02  0.00000000000E+00 0. -1.
         21    1    1    2  503  501  0.25232694861E+02 -0.27580395596E+02 -0.27401849963E+01  0.37481671855E+02  0.00000000000E+00 0. -1.
          1    1    1    2  501    0  0.13818827824E+03  0.14581914384E+02 -0.30802782230E+02  0.14232864738E+03  0.00000000000E+00 0. -1.
<scales pt_clust_5="13000.00000" pt_clust_6="13000.00000" pt_clust_7="13000.00000" pt_clust_8="13000.00000" pt_clust_9="34.13470" pt_clust_10="181.00902"></scales>
<clustering>
<clus scale="   34.135">  9 10 -1 -1</clus>
<clus scale="   90.732">  5  6 -1 -1</clus>
<clus scale="   91.559">  7  8 -1 -1</clus>
<clus scale="   97.194">  2  7  1 -1</clus>
<clus scale="  181.009">  1  9  2 -1</clus>
<clus scale="  181.009">  1  5  2 -1</clus>
</clustering>
</event>
<event>
10    2  0.4614337E-006  0.2441755E+03  0.7546771E-02  0.1134309E+00
          1   -1    0    0  503    0 -0.00000000000E+00  0.00000000000E+00  0.11945061508E+04  0.11945061508E+04  0.00000000000E+00 0. -1.
         21   -1    0    0  501  502  0.00000000000E+00 -0.00000000000E+00 -0.48572044182E+03  0.48572044182E+03  0.00000000000E+00 0. -1.
         23    2    1    2    0    0  0.28234088904E+02 -0.12347114838E+03  0.71553025027E+03  0.73295358946E+03  0.95891276937E+02 0.  0.
         23    2    1    2    0    0 -0.20814099331E+03  0.22375822450E+03  0.34597778734E+03  0.47396460852E+03  0.10747746122E+03 0.  0.
        -11    1    3    3    0    0  0.28915552895E+02  0.20804682714E+01  0.78818300567E+02  0.83980724286E+02  0.00000000000E+00 0.  1.
         11    1    3    3    0    0 -0.68146399047E+00 -0.12555161665E+03  0.63671194970E+03  0.64897286517E+03  0.00000000000E+00 0. -1.
        -13    1    4    4    0    0  0.54936271168E+00  0.21566628950E+02 -0.73971388047E+00  0.21586302608E+02  0.00000000000E+00 0.  1.
         13    1    4    4    0    0 -0.20869035602E+03  0.20219159555E+03  0.34671750122E+03  0.45237830591E+03  0.00000000000E+00 0. -1.
         21    1    1    2  503  502 -0.48060258626E+02 -0.36077901701E+02 -0.16998536744E+02  0.62452811801E+02  0.00000000000E+00 0. -1.
          1    1    1    2  501    0  0.22796716303E+03 -0.64209174412E+02 -0.33572379189E+03  0.41085558283E+03  0.00000000000E+00 0. -1.
<scales pt_clust_5="13000.00000" pt_clust_6="13000.00000" pt_clust_7="13000.00000" pt_clust_8="13000.00000" pt_clust_9="60.09495" pt_clust_10="219.24929"></scales>
<clustering>
<clus scale="   60.095">  2  9  1 -1</clus>
<clus scale="   95.891">  5  6 -1 -1</clus>
<clus scale="  107.477">  7  8 -1 -1</clus>
<clus scale="  159.248">  1  5  2 -1</clus>
<clus scale="  219.249">  2 10  1 -1</clus>
<clus scale="   60.095">  2  5  1 -1</clus>
</clustering>
</event>
<event>
10    2  0.2421970E-006  0.9939748E+02  0.7546771E-02  0.1283609E+00
          2   -1    0    0  502    0 -0.00000000000E+00  0.00000000000E+00  0.31453000649E+03  0.31453000649E+03  0.00000000000E+00 0. -1.
         21   -1    0    0  503  502  0.00000000000E+00 -0.00000000000E+00 -0.75978378374E+02  0.75978378374E+02  0.00000000000E+00 0.  1.
         23    2    1    2    0    0 -0.40337986156E+02  0.15891116217E+02  0.12622509726E+03  0.16200938512E+03  0.91839996668E+02 0.  0.
         23    2    1    2    0    0 -0.11858848006E+02 -0.27982475657E+02  0.10769750102E+03  0.14728319089E+03  0.95759779516E+02 0.  0.
        -13    1    3    3    0    0 -0.28143603986E+02  0.53887921161E+02  0.65695023790E+02  0.89508695908E+02  0.00000000000E+00 0.  1.
         13    1    3    3    0    0 -0.12194382169E+02 -0.37996804944E+02  0.60530073465E+02  0.72500689212E+02  0.00000000000E+00 0. -1.
        -13    1    4    4    0    0 -0.44819800980E+02 -0.31203145427E+02  0.28852161114E+02  0.61764860927E+02  0.00000000000E+00 0. -1.
         13    1    4    4    0    0  0.32960952974E+02  0.32206697707E+01  0.78845339907E+02  0.85518329963E+02  0.00000000000E+00 0.  1.
         21    1    1    2  503  501  0.85626670895E+01 -0.19236807580E+02 -0.12922039924E+02  0.24705326336E+02  0.00000000000E+00 0.  1.
          2    1    1    2  501    0  0.43634167072E+02  0.31328167019E+02  0.17551069769E+02  0.56510482522E+02  0.00000000000E+00 0. -1.
<scales pt_clust_5="13000.00000" pt_clust_6="13000.00000" pt_clust_7="13000.00000" pt_clust_8="13000.00000" pt_clust_9="21.05645" pt_clust_10="52.73319"></scales>
<clustering>
<clus scale="   21.056">  2  9  1 -1</clus>
<clus scale="   52.733">  2 10  1 -1</clus>
<clus scale="   91.840">  5  6 -1 -1</clus>
<clus scale="   95.627">  1  5  2 -1</clus>
<clus scale="   95.760">  7  8 -1 -1</clus>
<clus scale="   21.056">  2  5  1 -1</clus>
</clustering>
</event>
<event>
10    2  0.2421970E-006  0.2287963E+03  0.7546771E-02  0.1127746E+00
          2   -1    0    0  502    0 -0.00000000000E+00  0.00000000000E+00  0.13483851797E+04  0.13483851797E+04  0.00000000000E+00 0. -1.
         21   -1    0    0  503  502  0.00000000000E+00 -0.00000000000E+00 -0.12946618331E+03  0.12946618331E+03  0.00000000000E+00 0. -1.
         23    2    1    2    0    0  0.18925342145E+03  0.10793827713E+03  0.85224824635E+03  0.88457310461E+03  0.93139544658E+02 0.  0.
         23    2    1    2    0    0 -0.22552165951E+03  0.76997124623E+02  0.18208832007E+03  0.31298994592E+03  0.89543139499E+02 0.  0.
        -11    1    4    4    0    0 -0.18609633145E+02 -0.18772569152E+02  0.15860305668E+02  0.30826564749E+02  0.00000000000E+00 0.  1.
         11    1    4    4    0    0 -0.20691202636E+03  0.95769693775E+02  0.16622801440E+03  0.28216338117E+03  0.00000000000E+00 0. -1.
        -11    1    3    3    0    0  0.72947092400E+02  0.63052639851E+02  0.53666782160E+03  0.54526073068E+03  0.00000000000E+00 0. -1.
         11    1    3    3    0    0  0.11630632905E+03  0.44885637283E+02  0.31558042476E+03  0.33931237393E+03  0.00000000000E+00 0.  1.
         21    1    1    2  503  501 -0.29328915458E+02 -0.89397028188E+02  0.96029921347E+02  0.13443868389E+03  0.00000000000E+00 0.  1.
          2    1    1    2  501    0  0.65597153516E+02 -0.95538373569E+02  0.88552508579E+02  0.14584962855E+03  0.00000000000E+00 0. -1.
<scales pt_clust_5="13000.00000" pt_clust_6="13000.00000" pt_clust_7="13000.00000" pt_clust_8="13000.00000" pt_clust_9="85.35699" pt_clust_10="210.92858"></scales>
<clustering>
<clus scale="   85.357">  9 10 -1 -1</clus>
<clus scale="   89.543">  5  6 -1 -1</clus>
<clus scale="   93.140">  7  8 -1 -1</clus>
<clus scale="  210.929">  2  9  1 -1</clus>
<clus scale="  227.356">  2  5  1 -1</clus>
<clus scale="  210.929">  2  5  1 -1</clus>
</clustering>
</event>
<event>
10    2  0.2421970E-006  0.1035501E+03  0.7546771E-02  0.1273538E+00
         -3   -1    0    0    0  501 -0.00000000000E+00  0.00000000000E+00  0.90127437951E+03  0.90127437951E+03  0.00000000000E+00 0.  1.
         21   -1    0    0  503  502  0.00000000000E+00 -0.00000000000E+00 -0.30036395042E+02  0.30036395042E+02  0.00000000000E+00 0. -1.
         23    2    1    2    0    0 -0.23016466844E+02  0.19672255275E+02  0.34417363496E+03  0.35729996184E+03  0.91055018296E+02 0.  0.
         23    2    1    2    0    0  0.30606884510E+02 -0.71213330060E+02  0.32854949246E+03  0.34994646351E+03  0.92247702254E+02 0.  0.
        -11    1    4    4    0    0  0.14045486728E+02  0.17355930572E+02  0.13006384164E+03  0.13196630981E+03  0.00000000000E+00 0.  1.
         11    1    4    4    0    0  0.16561397782E+02 -0.88569260632E+02  0.19848565082E+03  0.21798015370E+03  0.00000000000E+00 0. -1.
        -11    1    3    3    0    0  0.34707336731E+02  0.27201881415E+01  0.15167936134E+03  0.15562335076E+03  0.00000000000E+00 0.  1.
         11    1    3    3    0    0 -0.57723803575E+02  0.16952067134E+02  0.19249427362E+03  0.20167661108E+03  0.00000000000E+00 0. -1.
         21    1    1    2  503  501 -0.34938563977E+02  0.61816927648E+02  0.16483711761E+03  0.17948067065E+03  0.00000000000E+00 0.  1.
         -3    1    1    2    0  502  0.27348146311E+02 -0.10275852863E+02  0.33677739436E+02  0.44583678541E+02  0.00000000000E+00 0.  1.
<scales pt_clust_5="13000.00000" pt_clust_6="13000.00000" pt_clust_7="13000.00000" pt_clust_8="13000.00000" pt_clust_9="64.57710" pt_clust_10="29.21497"></scales>
<clustering>
<clus scale="   29.215">  2 10  1 -1</clus>
<clus scale="   64.577">  2  9  1 -1</clus>
<clus scale="   91.055">  7  8 -1 -1</clus>
<clus scale="   92.248">  5  6 -1 -1</clus>
<clus scale="  102.489">  1  7  2 -1</clus>
<clus scale="   29.215">  2  5  1 -1</clus>
</clustering>
</event>
<event>
10    2  0.2421970E-006  0.3565553E+03  0.7546771E-02  0.1088012E+00
          1   -1    0    0  502    0 -0.00000000000E+00  0.00000000000E+00  0.15071194432E+04  0.15071194432E+04  0.00000000000E+00 0. -1.
         21   -1    0    0  503  502  0.00000000000E+00 -0.00000000000E+00 -0.23401508084E+03  0.23401508084E+03  0.00000000000E+00 0. -1.
         23    2    1    2    0    0 -0.12927250765E+03 -0.66243423673E+02  0.16839784255E+03  0.23645595729E+03  0.80336877875E+02 0.  0.
         23    2    1    2    0    0  0.15549207809E+03  0.14838448950E+03  0.40636750774E+03  0.46895676255E+03  0.92683065987E+02 0.  0.
        -11    1    4    4    0    0  0.40157102870E+02  0.94938938498E+02  0.22487581064E+03  0.24737648466E+03  0.00000000000E+00 0.  1.
         11    1    4    4    0    0  0.11533497522E+03  0.53445551001E+02  0.18149169710E+03  0.22158027788E+03  0.00000000000E+00 0. -1.
        -13    1    3    3    0    0 -0.44941951730E+02 -0.14460656431E+02  0.78500244382E+01  0.47859298923E+02  0.00000000000E+00 0.  1.
         13    1    3    3    0    0 -0.84330555917E+02 -0.51782767242E+02  0.16054781812E+03  0.18859665837E+03  0.00000000000E+00 0. -1.
         21    1    1    2  503  501 -0.19233846773E+02 -0.38326307213E+03  0.15377565546E+03  0.41340957359E+03  0.00000000000E+00 0. -1.
          1    1    1    2  501    0 -0.69857236709E+01  0.30112200631E+03  0.54456335660E+03  0.62231223061E+03  0.00000000000E+00 0. -1.
<scales pt_clust_5="13000.00000" pt_clust_6="13000.00000" pt_clust_7="13000.00000" pt_clust_8="13000.00000" pt_clust_9="13000.00000" pt_clust_10="356.55529"></scales>
<clustering>
<clus scale="   80.337">  7  8 -1 -1</clus>
<clus scale="   92.683">  5  6 -1 -1</clus>
<clus scale="  165.993">  1  7  2 -1</clus>
<clus scale="  192.561">  1  5  2 -1</clus>
<clus scale="  356.555">  1 10  2 -1</clus>
<clus scale="  356.555">  2  5  1 -1</clus>
</clustering>
</event>
<event>
10    2  0.2421970E-006  0.1943606E+03  0.7546771E-02  0.1155482E+00
          2   -1    0    0  502    0 -0.00000000000E+00  0.00000000000E+00  0.19877875702E+03  0.19877875702E+03  0.00000000000E+00 0. -1.
         21   -1    0    0  503  502  0.00000000000E+00 -0.00000000000E+00 -0.32907613891E+03  0.32907613891E+03  0.00000000000E+00 0. -1.
         23    2    1    2    0    0  0.12880189339E+03  0.15904943855E+03 -0.27174564055E+02  0.22497390604E+03  0.89376450065E+02 0.  0.
         23    2    1    2    0    0 -0.12605701526E+03 -0.63158713394E+02 -0.11426111327E+03  0.19841175329E+03  0.80201169962E+02 0.  0.
        -11    1    3    3    0    0  0.58972491901E+02  0.11822733644E+03  0.16339865969E+02  0.13312568911E+03  0.00000000000E+00 0. -1.
         11    1    3    3    0    0  0.69829401487E+02  0.40822102109E+02 -0.43514430024E+02  0.91848216929E+02  0.00000000000E+00 0.  1.
        -11    1    4    4    0    0  0.21216290624E+01 -0.22042509222E+02 -0.47134245227E+00  0.22149394718E+02  0.00000000000E+00 0. -1.
         11    1    4    4    0    0 -0.12817864432E+03 -0.41116204172E+02 -0.11378977082E+03  0.17626235857E+03  0.00000000000E+00 0.  1.
         21    1    1    2  503  501 -0.17707395848E+02 -0.27874581668E+02 -0.38041854218E+01  0.33241780903E+02  0.00000000000E+00 0.  1.
          2    1    1    2  501    0  0.14962517717E+02 -0.68016143486E+02  0.14942480851E+02  0.71227455697E+02  0.00000000000E+00 0. -1.
<scales pt_clust_5="13000.00000" pt_clust_6="13000.00000" pt_clust_7="13000.00000" pt_clust_8="13000.00000" pt_clust_9="27.43398" pt_clust_10="103.87382"></scales>
<clustering>
<clus scale="   27.434">  9 10 -1 -1</clus>
<clus scale="   80.201">  7  8 -1 -1</clus>
<clus scale="   89.376">  5  6 -1 -1</clus>
<clus scale="  103.874">  2  9  1 -1</clus>
<clus scale="  190.316">  2  7  1 -1</clus>
<clus scale="  103.874">  2  5  1 -1</clus>
</clustering>
</event>
<event>
10    2  0.2421970E-006  0.1430155E+03  0.7546771E-02  0.1211781E+00
          1   -1    0    0  503    0 -0.00000000000E+00  0.00000000000E+00  0.57216291406E+03  0.57216291406E+03  0.00000000000E+00 0. -1.
         21   -1    0    0  501  502  0.00000000000E+00 -0.00000000000E+00 -0.30941037420E+03  0.30941037420E+03  0.00000000000E+00 0. -1.
         23    2    1    2    0    0  0.79792681100E+02  0.10971709758E+03  0.43194750461E+03  0.45972676900E+03  0.79783093082E+02 0.  0.
         23    2    1    2    0    0 -0.53944358413E+02 -0.34819213242E+02  0.92441981881E+02  0.14513992849E+03  0.91639005957E+02 0.  0.
        -13    1    4    4    0    0  0.22181384301E+02 -0.24327591372E+02  0.41370953829E+02  0.52871555038E+02  0.00000000000E+00 0.  1.
         13    1    4    4    0    0 -0.76125742714E+02 -0.10491621870E+02  0.51071028052E+02  0.92268373453E+02  0.00000000000E+00 0. -1.
        -13    1    3    3    0    0  0.26106139919E+02 -0.81951703818E+01  0.62735847379E+02  0.68443245871E+02  0.00000000000E+00 0.  1.
         13    1    3    3    0    0  0.53686541181E+02  0.11791226796E+03  0.36921165723E+03  0.39128352313E+03  0.00000000000E+00 0. -1.
         21    1    1    2  503  502  0.46091586319E+00 -0.29418534611E+02 -0.44819557318E+02  0.53613947255E+02  0.00000000000E+00 0.  1.
          1    1    1    2  501    0 -0.26309238549E+02 -0.45479349729E+02 -0.21681738931E+03  0.22309264351E+03  0.00000000000E+00 0. -1.
<scales pt_clust_5="13000.00000" pt_clust_6="13000.00000" pt_clust_7="13000.00000" pt_clust_8="13000.00000" pt_clust_9="29.42215" pt_clust_10="74.97143"></scales>
<clustering>
<clus scale="   29.422">  2  9  1 -1</clus>
<clus scale="   74.971">  2 10  1 -1</clus>
<clus scale="   79.783">  7  8 -1 -1</clus>
<clus scale="   91.639">  5  6 -1 -1</clus>
<clus scale="  135.724">  1  7  2 -1</clus>
<clus scale="   29.422">  2  5  1 -1</clus>
</clustering>
</event>
<event>
10    2  0.2421970E-006  0.1968152E+03  0.7546771E-02  0.1152578E+00
         -3   -1    0    0    0  501 -0.00000000000E+00  0.00000000000E+00  0.90855449005E+02  0.90855449005E+02  0.00000000000E+00 0.  1.
         21   -1    0    0  501  502  0.00000000000E+00 -0.00000000000E+00 -0.81781272802E+03  0.81781272802E+03  0.00000000000E+00 0. -1.
         23    2    1    2    0    0  0.16712601060E+03 -0.94737859820E+02 -0.20357794547E+03  0.29373772252E+03  0.89058993098E+02 0.  0.
         23    2    1    2    0    0 -0.76843786154E+02  0.13872406211E+03 -0.45562432277E+03  0.49081558414E+03  0.90316561402E+02 0.  0.
        -11    1    4    4    0    0 -0.27588988269E+02  0.69467634641E+02 -0.33514111312E+03  0.34337511593E+03  0.00000000000E+00 0.  1.
         11    1    4    4    0    0 -0.49254797886E+02  0.69256427469E+02 -0.12048320964E+03  0.14744046821E+03  0.00000000000E+00 0. -1.
        -13    1    3    3    0    0  0.11842471101E+03 -0.41559015145E+02 -0.17679811962E+03  0.21681591044E+03  0.00000000000E+00 0. -1.
         13    1    3    3    0    0  0.48701299582E+02 -0.53178844675E+02 -0.26779825848E+02  0.76921812085E+02  0.00000000000E+00 0.  1.
         21    1    1    2  503  502 -0.46534908046E+02 -0.90361427165E+01 -0.24510428389E+02  0.53365819041E+02  0.00000000000E+00 0.  1.
         -3    1    1    2    0  503 -0.43747316395E+02 -0.34950059574E+02 -0.43244582393E+02  0.70749051318E+02  0.00000000000E+00 0.  1.
<scales pt_clust_5="13000.00000" pt_clust_6="13000.00000" pt_clust_7="13000.00000" pt_clust_8="13000.00000" pt_clust_9="24.82736" pt_clust_10="103.98928"></scales>
<clustering>
<clus scale="   24.827">  9 10 -1 -1</clus>
<clus scale="   89.059">  7  8 -1 -1</clus>
<clus scale="   90.317">  5  6 -1 -1</clus>
<clus scale="  103.989">  2  9  1 -1</clus>
<clus scale="  196.241">  1  7  2 -1</clus>
<clus scale="  103.989">  2  5  1 -1</clus>
</clustering>
</event>
<event>
10    2  0.2421970E-006  0.1067979E+03  0.7546771E-02  0.1267107E+00
         21   -1    0    0  503  502  0.00000000000E+00  0.00000000000E+00  0.71376960770E+03  0.71376960770E+03  0.00000000000E+00 0.  1.
          3   -1    0    0  502    0 -0.00000000000E+00 -0.00000000000E+00 -0.64014188976E+02  0.64014188976E+02  0.00000000000E+00 0. -1.
         23    2    1    2    0    0 -0.16038231127E+02  0.43704131411E+02  0.20625847710E+02  0.10328618649E+03  0.89862866443E+02 0.  0.
         23    2    1    2    0    0  0.46449903238E+02 -0.11673974944E+03  0.45397013067E+03  0.47975516569E+03  0.91051506625E+02 0.  0.
        -11    1    4    4    0    0  0.12561776771E+02 -0.11473258928E+03  0.39700264102E+03  0.41343979278E+03  0.00000000000E+00 0.  1.
         11    1    4    4    0    0  0.33888126467E+02 -0.20071601615E+01  0.56967489647E+02  0.66315372909E+02  0.00000000000E+00 0. -1.
        -11    1    3    3    0    0 -0.29964061954E+02  0.61209679799E+02 -0.61135975477E+01  0.68424016140E+02  0.00000000000E+00 0. -1.
         11    1    3    3    0    0  0.13925830827E+02 -0.17505548388E+02  0.26739445258E+02  0.34862170347E+02  0.00000000000E+00 0.  1.
         21    1    1    2  503  501 -0.19308314519E+02  0.32740000576E+02  0.11772631997E+03  0.12371016555E+03  0.00000000000E+00 0. -1.
          3    1    1    2  501    0 -0.11103357593E+02  0.40295617456E+02  0.57433120379E+02  0.71032278947E+02  0.00000000000E+00 0. -1.
<scales pt_clust_5="13000.00000" pt_clust_6="13000.00000" pt_clust_7="13000.00000" pt_clust_8="13000.00000" pt_clust_9="29.92453" pt_clust_10="85.11046"></scales>
<clustering>
<clus scale="   29.925">  9 10 -1 -1</clus>
<clus scale="   85.110">  1  9  2 -1</clus>
<clus scale="   89.863">  7  8 -1 -1</clus>
<clus scale="   91.052">  5  6 -1 -1</clus>
<clus scale="  105.786">  2  7  1 -1</clus>
<clus scale="   85.110">  1  5  2 -1</clus>
</clustering>
</event>
<event>
10    2  0.2421970E-006  0.1049264E+03  0.7546771E-02  0.1270668E+00
         21   -1    0    0  501  502  0.00000000000E+00  0.00000000000E+00  0.66802857031E+03  0.66802857031E+03  0.00000000000E+00 0. -1.
          2   -1    0    0  503    0 -0.00000000000E+00 -0.00000000000E+00 -0.27113564911E+03  0.27113564911E+03  0.00000000000E+00 0. -1.
         23    2    1    2    0    0 -0.40956838954E+01  0.30968732963E+02 -0.10234769732E+03  0.14137621277E+03  0.92392344608E+02 0.  0.
         23    2    1    2    0    0  0.45864964979E+02 -0.61656050062E+02 -0.11739768575E+03  0.16749181405E+03  0.91467084973E+02 0.  0.
        -11    1    3    3    0    0  0.29882248351E+02 -0.15263021464E+02 -0.14731996334E+02  0.36646149957E+02  0.00000000000E+00 0. -1.
         11    1    3    3    0    0 -0.33977932247E+02  0.46231754427E+02 -0.87615700987E+02  0.10473006281E+03  0.00000000000E+00 0.  1.
        -11    1    4    4    0    0  0.12841962483E+02 -0.75586933856E+02 -0.10404832889E+03  0.12924532996E+03  0.00000000000E+00 0. -1.
         11    1    4    4    0    0  0.33023002496E+02  0.13930883794E+02 -0.13349356854E+02  0.38246484094E+02  0.00000000000E+00 0.  1.
         21    1    1    2  503  502  0.22227375283E+02 -0.20217072754E+02  0.54433065880E+02  0.62175114827E+02  0.00000000000E+00 0. -1.
          2    1    1    2  501    0 -0.63996656367E+02  0.50904389853E+02  0.56220523839E+03  0.56812107777E+03  0.00000000000E+00 0. -1.
<scales pt_clust_5="13000.00000" pt_clust_6="13000.00000" pt_clust_7="13000.00000" pt_clust_8="13000.00000" pt_clust_9="30.04640" pt_clust_10="54.01478"></scales>
<clustering>
<clus scale="   30.046">  1  9  2 -1</clus>
<clus scale="   54.015">  1 10  2 -1</clus>
<clus scale="   91.467">  7  8 -1 -1</clus>
<clus scale="   92.392">  5  6 -1 -1</clus>
<clus scale="  104.113">  1  7  2 -1</clus>
<clus scale="   30.046">  1  5  2 -1</clus>
</clustering>
</event>
<event>
10    2  0.2421970E-006  0.2970564E+03  0.7546771E-02  0.1115881E+00
         21   -1    0    0  501  502  0.00000000000E+00  0.00000000000E+00  0.18379416340E+03  0.18379416340E+03  0.00000000000E+00 0.  1.
         -2   -1    0    0    0  501 -0.00000000000E+00 -0.00000000000E+00 -0.95371774635E+03  0.95371774635E+03  0.00000000000E+00 0.  1.
         23    2    1    2    0    0  0.79462726804E+02 -0.69481028195E+02 -0.10293204260E+03  0.17347094111E+03  0.91406913223E+02 0.  0.
         23    2    1    2    0    0 -0.26574607697E+03  0.24737655575E+03 -0.56298561664E+03  0.67598878178E+03  0.90509064688E+02 0.  0.
        -11    1    4    4    0    0 -0.17562663774E+03  0.13995196554E+03 -0.41665612595E+03  0.47332187340E+03  0.00000000000E+00 0. -1.
         11    1    4    4    0    0 -0.90119439227E+02  0.10742459021E+03 -0.14632949068E+03  0.20266690838E+03  0.00000000000E+00 0.  1.
        -13    1    3    3    0    0  0.63802363310E+02  0.45157997069E+01 -0.49083959553E+02  0.80624866489E+02  0.00000000000E+00 0.  1.
         13    1    3    3    0    0  0.15660363493E+02 -0.73996827902E+02 -0.53848083047E+02  0.92846074619E+02  0.00000000000E+00 0. -1.
         21    1    1    2  503  502  0.78739544197E+02 -0.45072352718E+02 -0.57299733521E+01  0.90908005118E+02  0.00000000000E+00 0. -1.
         -2    1    1    2    0  503  0.10754380597E+03 -0.13282317484E+03 -0.98275950362E+02  0.19714418174E+03  0.00000000000E+00 0.  1.
<scales pt_clust_5="13000.00000" pt_clust_6="13000.00000" pt_clust_7="13000.00000" pt_clust_8="13000.00000" pt_clust_9="55.52999" pt_clust_10="293.01732"></scales>
<clustering>
<clus scale="   55.530">  9 10 -1 -1</clus>
<clus scale="   90.509">  5  6 -1 -1</clus>
<clus scale="   91.407">  7  8 -1 -1</clus>
<clus scale="  139.632">  2  7  1 -1</clus>
<clus scale="  293.017">  1  9  2 -1</clus>
<clus scale="  293.017">  1  5  2 -1</clus>
</clustering>
</event>
<event>
10    2  0.2421970E-006  0.1421784E+03  0.7546771E-02  0.1210833E+00
         21   -1    0    0  501  502  0.00000000000E+00  0.00000000000E+00  0.91125931302E+02  0.91125931302E+02  0.00000000000E+00 0. -1.
          2   -1    0    0  503    0 -0.00000000000E+00 -0.00000000000E+00 -0.72991225688E+03  0.72991225688E+03  0.00000000000E+00 0. -1.
         23    2    1    2    0    0 -0.64115223724E+01 -0.10054725926E+03 -0.34125584068E+03  0.36782469140E+03  0.93212637805E+02 0.  0.
         23    2    1    2    0    0  0.36497433507E+02  0.95839195524E+02  0.71672821922E-01  0.13732881799E+03  0.91334468094E+02 0.  0.
        -11    1    3    3    0    0  0.17847336715E+02 -0.42611887833E+02 -0.26516561601E+03  0.26915999763E+03  0.00000000000E+00 0.  1.
         11    1    3    3    0    0 -0.24258859088E+02 -0.57935371430E+02 -0.76090224666E+02  0.98664693770E+02  0.00000000000E+00 0. -1.
        -13    1    4    4    0    0 -0.23958494285E+02  0.51295208051E+02  0.19297221341E+02  0.59812963218E+02  0.00000000000E+00 0. -1.
         13    1    4    4    0    0  0.60455927791E+02  0.44543987473E+02 -0.19225548519E+02  0.77515854771E+02  0.00000000000E+00 0.  1.
         21    1    1    2  503  502  0.31611836290E+02 -0.18842524351E+02 -0.72653603568E+02  0.81442587318E+02  0.00000000000E+00 0. -1.
          2    1    1    2  501    0 -0.61697747425E+02  0.23550588089E+02 -0.22494855416E+03  0.23444209148E+03  0.00000000000E+00 0. -1.
<scales pt_clust_5="13000.00000" pt_clust_6="13000.00000" pt_clust_7="13000.00000" pt_clust_8="13000.00000" pt_clust_9="36.80148" pt_clust_10="53.33150"></scales>
<clustering>
<clus scale="   36.801">  2  9  1 -1</clus>
<clus scale="   53.331">  1 10  2 -1</clus>
<clus scale="   91.334">  7  8 -1 -1</clus>
<clus scale="   93.213">  5  6 -1 -1</clus>
<clus scale="  140.954">  1  7  2 -1</clus>
<clus scale="   53.331">  1  5  2 -1</clus>
</clustering>
</event>
<event>
10    2  0.2421970E-006  0.1389610E+03  0.7546771E-02  0.1215103E+00
         21   -1    0    0  501  502  0.00000000000E+00  0.00000000000E+00  0.23110998695E+03  0.23110998695E+03  0.00000000000E+00 0. -1.
          2   -1    0    0  503    0 -0.00000000000E+00 -0.00000000000E+00 -0.61036095378E+03  0.61036095378E+03  0.00000000000E+00 0. -1.
         23    2    1    2    0    0 -0.74318235142E+02  0.80667072563E+02 -0.48750875007E+03  0.50824959239E+03  0.92857364240E+02 0.  0.
         23    2    1    2    0    0  0.27089233805E+02 -0.78100941802E+02 -0.42902967266E+02  0.13037193513E+03  0.91228247657E+02 0.  0.
        -11    1    3    3    0    0 -0.38768435375E+02  0.97054910482E+02 -0.34835936566E+03  0.36369890689E+03  0.00000000000E+00 0. -1.
         11    1    3    3    0    0 -0.35549799767E+02 -0.16387837919E+02 -0.13914938442E+03  0.14455068550E+03  0.00000000000E+00 0.  1.
        -13    1    4    4    0    0  0.60987178729E+02 -0.52961478344E+02 -0.25274177295E+02  0.84635324751E+02  0.00000000000E+00 0.  1.
         13    1    4    4    0    0 -0.33897944924E+02 -0.25139463458E+02 -0.17628789971E+02  0.45736610378E+02  0.00000000000E+00 0. -1.
         21    1    1    2  503  502  0.21007754475E+02  0.47798059768E+02  0.13485077620E+02  0.53924276389E+02  0.00000000000E+00 0.  1.
          2    1    1    2  501    0  0.26221246862E+02 -0.50364190528E+02  0.13767567289E+03  0.14892513683E+03  0.00000000000E+00 0. -1.
<scales pt_clust_5="13000.00000" pt_clust_6="13000.00000" pt_clust_7="13000.00000" pt_clust_8="13000.00000" pt_clust_9="52.21092" pt_clust_10="44.33174"></scales>
<clustering>
<clus scale="   52.211">  1  9  2 -1</clus>
<clus scale="   44.332">  1 10  2 -1</clus>
<clus scale="   91.228">  7  8 -1 -1</clus>
<clus scale="   92.857">  5  6 -1 -1</clus>
<clus scale="  137.878">  1  7  2 -1</clus>
<clus scale="   52.211">  1  5  2 -1</clus>
</clustering>
</event>
<event>
10    2  0.2421970E-006  0.1690701E+03  0.7546771E-02  0.1200178E+00
         21   -1    0    0  501  502  0.00000000000E+00  0.00000000000E+00  0.66366230167E+02  0.66366230167E+02  0.00000000000E+00 0. -1.
          2   -1    0    0  503    0 -0.00000000000E+00 -0.00000000000E+00 -0.78753216290E+03  0.78753216290E+03  0.00000000000E+00 0. -1.
         23    2    1    2    0    0  0.22832468246E+02 -0.37560289185E+02 -0.29024175511E+03  0.30865218125E+03  0.95361394987E+02 0.  0.
         23    2    1    2    0    0 -0.10423088436E+03  0.12298080503E+03 -0.22955642787E+03  0.29781826002E+03  0.10005601814E+03 0.  0.
        -13    1    3    3    0    0 -0.28390873614E+02 -0.34368956480E+02 -0.19933035703E+03  0.20425439557E+03  0.00000000000E+00 0. -1.
         13    1    3    3    0    0  0.51223341860E+02 -0.31913327052E+01 -0.90911398074E+02  0.10439778568E+03  0.00000000000E+00 0.  1.
        -13    1    4    4    0    0 -0.88087544884E+01  0.65049842920E+02 -0.37293005204E+02  0.75497314235E+02  0.00000000000E+00 0.  1.
         13    1    4    4    0    0 -0.95422129875E+02  0.57930962113E+02 -0.19226342266E+03  0.22232094578E+03  0.00000000000E+00 0. -1.
         21    1    1    2  503  502 -0.15292873156E+02 -0.16115084617E+02 -0.16845069220E+02  0.27880535838E+02  0.00000000000E+00 0.  1.
          2    1    1    2  501    0  0.96691289274E+02 -0.69305431230E+02 -0.18452268054E+03  0.21954741596E+03  0.00000000000E+00 0. -1.
<scales pt_clust_5="13000.00000" pt_clust_6="13000.00000" pt_clust_7="13000.00000" pt_clust_8="13000.00000" pt_clust_9="22.21639" pt_clust_10="136.28461"></scales>
<clustering>
<clus scale="   22.216">  1  9  2 -1</clus>
<clus scale="   95.361">  5  6 -1 -1</clus>
<clus scale="  100.056">  7  8 -1 -1</clus>
<clus scale="  105.426">  2  5  1 -1</clus>
<clus scale="  136.285">  1 10  2 -1</clus>
<clus scale="   22.216">  1  5  2 -1</clus>
</clustering>
</event>
<event>
10    2  0.2421970E-006  0.1433165E+03  0.7546771E-02  0.1209042E+00
         -1   -1    0    0    0  501 -0.00000000000E+00  0.00000000000E+00  0.68119933183E+03  0.68119933183E+03  0.00000000000E+00 0.  1.
         21   -1    0    0  503  502  0.00000000000E+00 -0.00000000000E+00 -0.28301922385E+03  0.28301922385E+03  0.00000000000E+00 0. -1.
         23    2    1    2    0    0  0.13311597955E+02  0.10973043954E+03  0.63687895226E+03  0.65280215684E+03  0.91202456875E+02 0.  0.
         23    2    1    2    0    0 -0.41234837620E+02 -0.10661667172E+03 -0.15912989814E+03  0.21590109620E+03  0.90683693870E+02 0.  0.
        -13    1    4    4    0    0  0.17284479961E+02 -0.25825196586E+02 -0.88151587546E+02  0.93468692155E+02  0.00000000000E+00 0. -1.
         13    1    4    4    0    0 -0.58519317581E+02 -0.80791475135E+02 -0.70978310597E+02  0.12243240404E+03  0.00000000000E+00 0.  1.
        -13    1    3    3    0    0 -0.34573553474E+02  0.79349801735E+02  0.39219930170E+03  0.40163666901E+03  0.00000000000E+00 0.  1.
         13    1    3    3    0    0  0.47885151429E+02  0.30380637804E+02  0.24467965056E+03  0.25116548783E+03  0.00000000000E+00 0. -1.
         21    1    1    2  503  501  0.14210854765E+02  0.20847580580E+02 -0.37687860396E+02  0.45353553669E+02  0.00000000000E+00 0.  1.
         -1    1    1    2    0  502  0.13712384900E+02 -0.23961348398E+02 -0.41881085742E+02  0.50161748969E+02  0.00000000000E+00 0.  1.
<scales pt_clust_5="13000.00000" pt_clust_6="13000.00000" pt_clust_7="13000.00000" pt_clust_8="13000.00000" pt_clust_9="25.23034" pt_clust_10="25.86838"></scales>
<clustering>
<clus scale="   25.230">  2  9  1 -1</clus>
<clus scale="   25.868">  2 10  1 -1</clus>
<clus scale="   90.684">  5  6 -1 -1</clus>
<clus scale="   91.202">  7  8 -1 -1</clus>
<clus scale="  142.987">  2  5  1 -1</clus>
<clus scale="   25.230">  2  5  1 -1</clus>
</clustering>
</event>
<event>
10    2  0.2421970E-006  0.1158479E+03  0.7546771E-02  0.1252604E+00
          1   -1    0    0  502    0 -0.00000000000E+00  0.00000000000E+00  0.13592309522E+04  0.13592309522E+04  0.00000000000E+00 0. -1.
         21   -1    0    0  503  502  0.00000000000E+00 -0.00000000000E+00 -0.17169574948E+02  0.17169574948E+02  0.00000000000E+00 0.  1.
         23    2    1    2    0    0  0.37564187243E+02 -0.44295934942E+02  0.61932315736E+03  0.62894455226E+03  0.92934808135E+02 0.  0.
         23    2    1    2    0    0 -0.23122272201E+02  0.82440491931E+02  0.64722162362E+03  0.65847757285E+03  0.85824295367E+02 0.  0.
        -11    1    3    3    0    0 -0.78345108113E+01  0.24933332066E+02  0.12088330685E+03  0.12367628909E+03  0.00000000000E+00 0.  1.
         11    1    3    3    0    0  0.45398698054E+02 -0.69229267008E+02  0.49843985051E+03  0.50526826317E+03  0.00000000000E+00 0. -1.
        -13    1    4    4    0    0 -0.41134817689E+02  0.56835939697E+01  0.18739691199E+03  0.19194264531E+03  0.00000000000E+00 0.  1.
         13    1    4    4    0    0  0.18012545487E+02  0.76756897961E+02  0.45982471164E+03  0.46653492754E+03  0.00000000000E+00 0. -1.
         21    1    1    2  503  501  0.18021362804E+01 -0.19967624155E+02  0.19873733112E+02  0.28229753406E+02  0.00000000000E+00 0.  1.
          1    1    1    2  501    0 -0.16244051322E+02 -0.18176932833E+02  0.55642863183E+02  0.60748648658E+02  0.00000000000E+00 0. -1.
<scales pt_clust_5="13000.00000" pt_clust_6="13000.00000" pt_clust_7="13000.00000" pt_clust_8="13000.00000" pt_clust_9="20.04878" pt_clust_10="27.22000"></scales>
<clustering>
<clus scale="   20.049">  2  9  1 -1</clus>
<clus scale="   27.220">  2 10  1 -1</clus>
<clus scale="   85.824">  7  8 -1 -1</clus>
<clus scale="   92.935">  5  6 -1 -1</clus>
<clus scale="  110.226">  2  7  1 -1</clus>
<clus scale="   20.049">  2  5  1 -1</clus>
</clustering>
</event>
<event>
10    2  0.2421970E-006  0.1007561E+03  0.7546771E-02  0.1281745E+00
         21   -1    0    0  503  502  0.00000000000E+00  0.00000000000E+00  0.26794540399E+03  0.26794540399E+03  0.00000000000E+00 0. -1.
         -1   -1    0    0    0  501 -0.00000000000E+00 -0.00000000000E+00 -0.70703293137E+02  0.70703293137E+02  0.00000000000E+00 0.  1.
         23    2    1    2    0    0 -0.10797821002E+02  0.61595034391E+01  0.63343345790E+02  0.11027890957E+03  0.89412113381E+02 0.  0.
         23    2    1    2    0    0  0.13336494690E+02 -0.61536181205E+02  0.84644232476E+02  0.14223015715E+03  0.95395009426E+02 0.  0.
        -11    1    4    4    0    0 -0.33790312585E+02 -0.57560945886E+02  0.44775808805E+02  0.80373632306E+02  0.00000000000E+00 0.  1.
         11    1    4    4    0    0  0.47126807275E+02 -0.39752353190E+01  0.39868423670E+02  0.61856524844E+02  0.00000000000E+00 0. -1.
        -11    1    3    3    0    0  0.14282976641E+02 -0.22506403677E+02  0.66908962206E+02  0.72023266045E+02  0.00000000000E+00 0. -1.
         11    1    3    3    0    0 -0.25080797643E+02  0.28665907116E+02 -0.35656164164E+01  0.38255643527E+02  0.00000000000E+00 0.  1.
         21    1    1    2  503  501  0.15578287037E+02  0.18634704290E+02  0.35326809566E+02  0.42870954096E+02  0.00000000000E+00 0. -1.
         -1    1    1    2    0  502 -0.18116960726E+02  0.36741973477E+02  0.13927723018E+02  0.43268676307E+02  0.00000000000E+00 0.  1.
<scales pt_clust_5="13000.00000" pt_clust_6="13000.00000" pt_clust_7="13000.00000" pt_clust_8="13000.00000" pt_clust_9="24.28858" pt_clust_10="42.28470"></scales>
<clustering>
<clus scale="   24.289">  1  9  2 -1</clus>
<clus scale="   42.285">  1 10  2 -1</clus>
<clus scale="   89.412">  7  8 -1 -1</clus>
<clus scale="   95.111">  2  7  1 -1</clus>
<clus scale="   95.395">  5  6 -1 -1</clus>
<clus scale="   24.289">  1  5  2 -1</clus>
</clustering>
</event>
<event>
10    2  0.2421970E-006  0.2439789E+03  0.7546771E-02  0.1119950E+00
         21   -1    0    0  501  502  0.00000000000E+00  0.00000000000E+00  0.26605997853E+03  0.26605997853E+03  0.00000000000E+00 0. -1.
          2   -1    0    0  503    0 -0.00000000000E+00 -0.00000000000E+00 -0.62137086953E+03  0.62137086953E+03  0.00000000000E+00 0. -1.
         23    2    1    2    0    0 -0.29805953171E+01  0.13738443646E+03 -0.94851329543E+02  0.20911492529E+03  0.12589245384E+03 0.  0.
         23    2    1    2    0    0  0.52884374480E+01 -0.35857943514E+03 -0.16672696755E+03  0.40559641099E+03  0.90018820415E+02 0.  0.
        -11    1    4    4    0    0 -0.10296203777E+02 -0.40358753677E+02 -0.52770535182E+02  0.67227748691E+02  0.00000000000E+00 0.  1.
         11    1    4    4    0    0  0.15584641225E+02 -0.31822068146E+03 -0.11395643237E+03  0.33836866230E+03  0.00000000000E+00 0. -1.
        -13    1    3    3    0    0  0.21742911464E+02  0.61268817596E+02 -0.10989285199E+03  0.12768344108E+03  0.00000000000E+00 0.  1.
         13    1    3    3    0    0 -0.24723506781E+02  0.76115618869E+02  0.15041522447E+02  0.81431484211E+02  0.00000000000E+00 0. -1.
         21    1    1    2  503  502 -0.63210524967E+02  0.98985824494E+02 -0.25960784682E+02  0.12028186172E+03  0.00000000000E+00 0. -1.
          2    1    1    2  501    0  0.60902682836E+02  0.12220917418E+03 -0.67771809225E+02  0.15243765006E+03  0.00000000000E+00 0. -1.
<scales pt_clust_5="13000.00000" pt_clust_6="13000.00000" pt_clust_7="13000.00000" pt_clust_8="13000.00000" pt_clust_9="117.44686" pt_clust_10="149.49918"></scales>
<clustering>
<clus scale="   90.019">  5  6 -1 -1</clus>
<clus scale="  117.447">  1  9  2 -1</clus>
<clus scale="  125.892">  7  8 -1 -1</clus>
<clus scale="  149.499">  1 10  2 -1</clus>
<clus scale="  227.553">  1  5  2 -1</clus>
<clus scale="  117.447">  1  5  2 -1</clus>
</clustering>
</event>
<event>
10    2  0.2421970E-006  0.2362841E+03  0.7546771E-02  0.1122699E+00
          2   -1    0    0  502    0 -0.00000000000E+00  0.00000000000E+00  0.13768970822E+04  0.13768970822E+04  0.00000000000E+00 0. -1.
         21   -1    0    0  503  502  0.00000000000E+00 -0.00000000000E+00 -0.15585008434E+03  0.15585008434E+03  0.00000000000E+00 0. -1.
         23    2    1    2    0    0 -0.22471572959E+03  0.11301221365E+03  0.89950008424E+03  0.93905156670E+03  0.97203517499E+02 0.  0.
         23    2    1    2    0    0  0.18270727003E+03  0.52438450661E-01  0.39785236236E+03  0.44721542379E+03  0.91286273700E+02 0.  0.
        -11    1    4    4    0    0  0.15013584659E+03 -0.37109111105E+02  0.29344167117E+03  0.33170148167E+03  0.00000000000E+00 0.  1.
         11    1    4    4    0    0  0.32571423441E+02  0.37161549556E+02  0.10441069119E+03  0.11551394212E+03  0.00000000000E+00 0. -1.
        -13    1    3    3    0    0 -0.13892020559E+03  0.94354404271E+02  0.71871027753E+03  0.73806912965E+03  0.00000000000E+00 0. -1.
         13    1    3    3    0    0 -0.85795523999E+02  0.18657809377E+02  0.18078980671E+03  0.20098243704E+03  0.00000000000E+00 0.  1.
         21    1    1    2  503  501  0.21860137775E+02 -0.26004565474E+02 -0.10683209258E+02  0.35612273293E+02  0.00000000000E+00 0.  1.
          2    1    1    2  501    0  0.20148321787E+02 -0.87060086625E+02 -0.65622239459E+02  0.11086790277E+03  0.00000000000E+00 0. -1.
<scales pt_clust_5="13000.00000" pt_clust_6="13000.00000" pt_clust_7="13000.00000" pt_clust_8="13000.00000" pt_clust_9="20.31517" pt_clust_10="125.03568"></scales>
<clustering>
<clus scale="   20.315">  9 10 -1 -1</clus>
<clus scale="   91.286">  5  6 -1 -1</clus>
<clus scale="   97.204">  7  8 -1 -1</clus>
<clus scale="  125.036">  2  9  1 -1</clus>
<clus scale="  233.912">  2  5  1 -1</clus>
<clus scale="  125.036">  2  5  1 -1</clus>
</clustering>
</event>
<event>
10    2  0.2421970E-006  0.1426469E+03  0.7546771E-02  0.1212639E+00
         21   -1    0    0  501  502  0.00000000000E+00  0.00000000000E+00  0.91441897485E+02  0.91441897485E+02  0.00000000000E+00 0. -1.
          3   -1    0    0  503    0 -0.00000000000E+00 -0.00000000000E+00 -0.90626484009E+03  0.90626484009E+03  0.00000000000E+00 0. -1.
         23    2    1    2    0    0  0.67808499210E+02  0.11745924711E+03 -0.45119562715E+03  0.47973996602E+03  0.90433808592E+02 0.  0.
         23    2    1    2    0    0  0.60390680035E+02 -0.55945728672E+02 -0.12111630245E+02  0.13195656346E+03  0.10241525405E+03 0.  0.
        -13    1    3    3    0    0  0.31476965746E+01  0.87125143760E+02 -0.30196060838E+03  0.31429430107E+03  0.00000000000E+00 0. -1.
         13    1    3    3    0    0  0.64660802635E+02  0.30334103347E+02 -0.14923501877E+03  0.16544566495E+03  0.00000000000E+00 0.  1.
        -13    1    4    4    0    0 -0.25346214811E+02 -0.15238672483E+02  0.15122618702E+02  0.33216582315E+02  0.00000000000E+00 0.  1.
         13    1    4    4    0    0  0.85736894846E+02 -0.40707056189E+02 -0.27234248947E+02  0.98739981149E+02  0.00000000000E+00 0. -1.
         21    1    1    2  503  502 -0.77120018450E+01 -0.35177638191E+02 -0.72486968256E+02  0.80940112232E+02  0.00000000000E+00 0.  1.
          3    1    1    2  501    0 -0.12048717740E+03 -0.26335880244E+02 -0.27902871695E+03  0.30507009586E+03  0.00000000000E+00 0. -1.
<scales pt_clust_5="13000.00000" pt_clust_6="13000.00000" pt_clust_7="13000.00000" pt_clust_8="13000.00000" pt_clust_9="36.01307" pt_clust_10="129.14364"></scales>
<clustering>
<clus scale="   36.013">  2  9  1 -1</clus>
<clus scale="   90.434">  5  6 -1 -1</clus>
<clus scale="  102.415">  7  8 -1 -1</clus>
<clus scale="  129.144">  1 10  2 -1</clus>
<clus scale="  134.304">  2  5  1 -1</clus>
<clus scale="  129.144">  1  5  2 -1</clus>
</clustering>
</event>
<event>
10    2  0.2421970E-006  0.1739968E+03  0.7546771E-02  0.1197430E+00
         21   -1    0    0  503  502  0.00000000000E+00  0.00000000000E+00  0.45553526265E+02  0.45553526265E+02  0.00000000000E+00 0. -1.
          1   -1    0    0  502    0 -0.00000000000E+00 -0.00000000000E+00 -0.11088887513E+04  0.11088887513E+04  0.00000000000E+00 0. -1.
         23    2    1    2    0    0  0.34273486388E+02  0.32471128623E+02 -0.27214849916E+03  0.29087527221E+03  0.91184276746E+02 0.  0.
         23    2    1    2    0    0  0.13135396154E+03  0.82938858926E+01 -0.34765952329E+03  0.38274753035E+03  0.91136579365E+02 0.  0.
        -13    1    3    3    0    0  0.63332020422E+02  0.19228692504E+02 -0.21986194996E+03  0.22960828483E+03  0.00000000000E+00 0.  1.
         13    1    3    3    0    0 -0.29058534034E+02  0.13242436119E+02 -0.52286549208E+02  0.61266987380E+02  0.00000000000E+00 0. -1.
        -13    1    4    4    0    0  0.24791787211E+02  0.37211270383E+02 -0.61597067157E+02  0.76115110451E+02  0.00000000000E+00 0.  1.
         13    1    4    4    0    0  0.10656217433E+03 -0.28917384490E+02 -0.28606245614E+03  0.30663241990E+03  0.00000000000E+00 0. -1.
         21    1    1    2  503  501 -0.77441381986E+02 -0.20006814170E+02 -0.30488038781E+03  0.31519754303E+03  0.00000000000E+00 0. -1.
          1    1    1    2  501    0 -0.88186065942E+02 -0.20758200345E+02 -0.13864681481E+03  0.16562193201E+03  0.00000000000E+00 0. -1.
<scales pt_clust_5="13000.00000" pt_clust_6="13000.00000" pt_clust_7="13000.00000" pt_clust_8="13000.00000" pt_clust_9="68.89795" pt_clust_10="165.36563"></scales>
<clustering>
<clus scale="   68.898">  9 10 -1 -1</clus>
<clus scale="   91.137">  7  8 -1 -1</clus>
<clus scale="   91.184">  5  6 -1 -1</clus>
<clus scale="  102.682">  2  5  1 -1</clus>
<clus scale="  165.366">  1  9  2 -1</clus>
<clus scale="  165.366">  1  5  2 -1</clus>
</clustering>
</event>
<event>
10    2  0.2421970E-006  0.1001767E+03  0.7546771E-02  0.1283888E+00
         -1   -1    0    0    0  501 -0.00000000000E+00  0.00000000000E+00  0.21267386454E+03  0.21267386454E+03  0.00000000000E+00 0.  1.
         21   -1    0    0  503  502  0.00000000000E+00 -0.00000000000E+00 -0.17158548793E+03  0.17158548793E+03  0.00000000000E+00 0.  1.
         23    2    1    2    0    0 -0.21956538800E+02 -0.20805583591E+02  0.88372836459E+02  0.13041258114E+03  0.91009456610E+02 0.  0.
         23    2    1    2    0    0 -0.67393799092E+02  0.12209716250E+02  0.19118717830E+02  0.12140995437E+03  0.98406556297E+02 0.  0.
        -11    1    3    3    0    0 -0.24026804546E+02  0.47281054410E+01  0.99510136519E+02  0.10247882507E+03  0.00000000000E+00 0.  1.
         11    1    3    3    0    0  0.20702657463E+01 -0.25533689032E+02 -0.11137300059E+02  0.27933756075E+02  0.00000000000E+00 0. -1.
        -13    1    4    4    0    0 -0.63645938490E+02  0.50506311043E+02  0.15937447252E+02  0.82799125396E+02  0.00000000000E+00 0.  1.
         13    1    4    4    0    0 -0.37478606027E+01 -0.38296594792E+02  0.31812705784E+01  0.38610828977E+02  0.00000000000E+00 0. -1.
         21    1    1    2  503  501  0.29244847136E+01 -0.22317175515E+02 -0.16933625783E+02  0.28166586871E+02  0.00000000000E+00 0.  1.
         -1    1    1    2    0  502  0.86425853179E+02  0.30913042856E+02 -0.49469551897E+02  0.10427023008E+03  0.00000000000E+00 0.  1.
<scales pt_clust_5="13000.00000" pt_clust_6="13000.00000" pt_clust_7="13000.00000" pt_clust_8="13000.00000" pt_clust_9="22.50797" pt_clust_10="90.04931"></scales>
<clustering>
<clus scale="   22.508">  2  9  1 -1</clus>
<clus scale="   90.049">  2 10  1 -1</clus>
<clus scale="   91.009">  5  6 -1 -1</clus>
<clus scale="   92.921">  1  5  2 -1</clus>
<clus scale="   98.407">  7  8 -1 -1</clus>
<clus scale="   22.508">  2  5  1 -1</clus>
</clustering>
</event>
<event>
10    2  0.2421970E-006  0.1920397E+03  0.7546771E-02  0.1156871E+00
          1   -1    0    0  503    0 -0.00000000000E+00  0.00000000000E+00  0.50192134161E+03  0.50192134161E+03  0.00000000000E+00 0. -1.
         21   -1    0    0  501  502  0.00000000000E+00 -0.00000000000E+00 -0.24623113792E+03  0.24623113792E+03  0.00000000000E+00 0. -1.
         23    2    1    2    0    0 -0.17643197636E+03 -0.98731723438E+01  0.17795491045E+03  0.26713106081E+03  0.92007237111E+02 0.  0.
         23    2    1    2    0    0  0.13320043744E+03  0.79471946451E+02 -0.10171703679E+03  0.20606895236E+03  0.89777005649E+02 0.  0.
        -13    1    4    4    0    0  0.92967589739E+02  0.55972384128E+02 -0.17634899746E+02  0.10994030296E+03  0.00000000000E+00 0. -1.
         13    1    4    4    0    0  0.40232847706E+02  0.23499562323E+02 -0.84082137044E+02  0.96128649392E+02  0.00000000000E+00 0.  1.
        -13    1    3    3    0    0 -0.85330826307E+02 -0.49921076843E+02  0.76360180922E+02  0.12491733692E+03  0.00000000000E+00 0.  1.
         13    1    3    3    0    0 -0.91101150054E+02  0.40047904499E+02  0.10159472953E+03  0.14221372389E+03  0.00000000000E+00 0. -1.
         21    1    1    2  503  502 -0.55924770415E+01  0.50563931389E+02  0.12374212334E+03  0.13379125549E+03  0.00000000000E+00 0. -1.
          1    1    1    2  501    0  0.48824015958E+02 -0.12016270550E+03  0.55710206683E+02  0.14116121087E+03  0.00000000000E+00 0. -1.
<scales pt_clust_5="13000.00000" pt_clust_6="13000.00000" pt_clust_7="13000.00000" pt_clust_8="13000.00000" pt_clust_9="50.87226" pt_clust_10="116.84753"></scales>
<clustering>
<clus scale="   50.872">  1  9  2 -1</clus>
<clus scale="   89.777">  5  6 -1 -1</clus>
<clus scale="   92.007">  7  8 -1 -1</clus>
<clus scale="  116.848">  2 10  1 -1</clus>
<clus scale="  190.981">  2  5  1 -1</clus>
<clus scale="  116.848">  2  5  1 -1</clus>
</clustering>
</event>
<event>
10    2  0.2421970E-006  0.1682965E+03  0.7546771E-02  0.1188687E+00
         21   -1    0    0  501  502  0.00000000000E+00  0.00000000000E+00  0.99850499868E+02  0.99850499868E+02  0.00000000000E+00 0.  1.
          2   -1    0    0  503    0 -0.00000000000E+00 -0.00000000000E+00 -0.95316599672E+03  0.95316599672E+03  0.00000000000E+00 0. -1.
         23    2    1    2    0    0  0.70475688435E+02  0.15725188725E+03 -0.16817827818E+03  0.25756886717E+03  0.91448397374E+02 0.  0.
         23    2    1    2    0    0  0.90415649898E+02 -0.23060290501E+02 -0.12077758388E+03  0.17876592257E+03  0.93076654213E+02 0.  0.
        -13    1    3    3    0    0  0.73229443194E+02  0.11070010958E+03 -0.16366046856E+03  0.21071738082E+03  0.00000000000E+00 0. -1.
         13    1    3    3    0    0 -0.27537547590E+01  0.46551777668E+02 -0.45178096156E+01  0.46851486348E+02  0.00000000000E+00 0.  1.
        -13    1    4    4    0    0  0.10973931429E+03 -0.16868245361E+02 -0.96311272315E+02  0.14697998495E+03  0.00000000000E+00 0. -1.
         13    1    4    4    0    0 -0.19323664390E+02 -0.61920451407E+01 -0.24466311570E+02  0.31785937619E+02  0.00000000000E+00 0.  1.
         21    1    1    2  503  502 -0.14327299501E+03 -0.35152716894E+02 -0.35393883976E+03  0.38345217028E+03  0.00000000000E+00 0.  1.
          2    1    1    2  501    0 -0.17618343326E+02 -0.99038879852E+02 -0.21042079503E+03  0.23322953656E+03  0.00000000000E+00 0. -1.
<scales pt_clust_5="13000.00000" pt_clust_6="13000.00000" pt_clust_7="13000.00000" pt_clust_8="13000.00000" pt_clust_9="141.28307" pt_clust_10="100.59382"></scales>
<clustering>
<clus scale="   91.448">  5  6 -1 -1</clus>
<clus scale="   93.077">  7  8 -1 -1</clus>
<clus scale="  100.594">  1 10  2 -1</clus>
<clus scale="  137.515">  1  7  2 -1</clus>
<clus scale="  141.283">  2  9  1 -1</clus>
<clus scale="  100.594">  1  5  2 -1</clus>
</clustering>
</event>
<event>
10    2  0.2421970E-006  0.1359971E+03  0.7546771E-02  0.1220479E+00
         21   -1    0    0  503  502  0.00000000000E+00  0.00000000000E+00  0.24004620440E+03  0.24004620440E+03  0.00000000000E+00 0.  1.
         -3   -1    0    0    0  501 -0.00000000000E+00 -0.00000000000E+00 -0.42431043881E+03  0.42431043881E+03  0.00000000000E+00 0.  1.
         23    2    1    2    0    0 -0.25754968181E+02  0.89500674199E+02 -0.26556496712E+03  0.29359178618E+03  0.83652232976E+02 0.  0.
         23    2    1    2    0    0  0.12357873049E+03 -0.10934975834E+03 -0.40486386428E+02  0.19264545110E+03  0.90796751395E+02 0.  0.
        -13    1    4    4    0    0  0.77671766441E+02 -0.34425747531E+02 -0.58234501103E+02  0.10300141996E+03  0.00000000000E+00 0. -1.
         13    1    4    4    0    0  0.45906964048E+02 -0.74924010810E+02  0.17748114675E+02  0.89644031137E+02  0.00000000000E+00 0.  1.
        -13    1    3    3    0    0 -0.46772257398E+02  0.46367118793E+02 -0.89592847922E+02  0.11119546828E+03  0.00000000000E+00 0. -1.
         13    1    3    3    0    0  0.21017289217E+02  0.43133555407E+02 -0.17597211919E+03  0.18239631790E+03  0.00000000000E+00 0.  1.
         21    1    1    2  503  501 -0.79878665064E+02  0.40003218261E+02  0.12190377971E+03  0.15113368292E+03  0.00000000000E+00 0.  1.
         -3    1    1    2    0  502 -0.17945097244E+02 -0.20154134119E+02 -0.11666056951E+00  0.26985723019E+02  0.00000000000E+00 0.  1.
<scales pt_clust_5="13000.00000" pt_clust_6="13000.00000" pt_clust_7="13000.00000" pt_clust_8="13000.00000" pt_clust_9="94.87277" pt_clust_10="26.98547"></scales>
<clustering>
<clus scale="   26.985">  1 10  2 -1</clus>
<clus scale="   83.652">  7  8 -1 -1</clus>
<clus scale="   90.797">  5  6 -1 -1</clus>
<clus scale="   94.873">  1  9  2 -1</clus>
<clus scale="  131.335">  2  7  1 -1</clus>
<clus scale="   26.985">  1  5  2 -1</clus>
</clustering>
</event>
<event>
10    2  0.2421970E-006  0.1480215E+03  0.7546771E-02  0.1221360E+00
         21   -1    0    0  501  502  0.00000000000E+00  0.00000000000E+00  0.44604203853E+03  0.44604203853E+03  0.00000000000E+00 0. -1.
          1   -1    0    0  503    0 -0.00000000000E+00 -0.00000000000E+00 -0.53279121859E+03  0.53279121859E+03  0.00000000000E+00 0. -1.
         23    2    1    2    0    0  0.90347436591E+01  0.47815428377E+02 -0.46684954702E+03  0.47745735742E+03  0.87459057922E+02 0.  0.
         23    2    1    2    0    0 -0.10417494589E+03  0.24010564189E+02  0.67778275154E+02  0.15556639321E+03  0.90432746113E+02 0.  0.
        -13    1    3    3    0    0 -0.30368841539E+02 -0.64722661901E+01 -0.10724231156E+03  0.11164707858E+03  0.00000000000E+00 0.  1.
         13    1    3    3    0    0  0.39403585198E+02  0.54287694567E+02 -0.35960723547E+03  0.36581027884E+03  0.00000000000E+00 0. -1.
        -13    1    4    4    0    0  0.19332043585E+01  0.29416442673E+02  0.31876768255E+02  0.43418806213E+02  0.00000000000E+00 0.  1.
         13    1    4    4    0    0 -0.10610815025E+03 -0.54058784837E+01  0.35901506899E+02  0.11214758700E+03  0.00000000000E+00 0. -1.
         21    1    1    2  503  502  0.11217710587E+03 -0.60920611707E+02  0.25822366672E+03  0.28805292233E+03  0.00000000000E+00 0. -1.
          1    1    1    2  501    0 -0.17036903632E+02 -0.10905380860E+02  0.54098425086E+02  0.57756584160E+02  0.00000000000E+00 0. -1.
<scales pt_clust_5="13000.00000" pt_clust_6="13000.00000" pt_clust_7="13000.00000" pt_clust_8="13000.00000" pt_clust_9="117.18482" pt_clust_10="20.22828"></scales>
<clustering>
<clus scale="   20.228">  1 10  2 -1</clus>
<clus scale="   87.459">  5  6 -1 -1</clus>
<clus scale="   90.433">  7  8 -1 -1</clus>
<clus scale="   99.994">  2  5  1 -1</clus>
<clus scale="  117.185">  1  9  2 -1</clus>
<clus scale="   20.228">  1  5  2 -1</clus>
</clustering>
</event>
<event>
10    2  0.2421970E-006  0.9648579E+02  0.7546771E-02  0.1289310E+00
          1   -1    0    0  502    0 -0.00000000000E+00  0.00000000000E+00  0.58825203235E+02  0.58825203235E+02  0.00000000000E+00 0. -1.
         21   -1    0    0  503  502  0.00000000000E+00 -0.00000000000E+00 -0.47654958101E+03  0.47654958101E+03  0.00000000000E+00 0.  1.
         23    2    1    2    0    0  0.72183121524E+01 -0.99210993271E+01 -0.33260753515E+02  0.99453389205E+02  0.92920216626E+02 0.  0.
         23    2    1    2    0    0  0.49069610891E+02  0.20801686820E-01 -0.10722853253E+03  0.15176193242E+03  0.95529570277E+02 0.  0.
        -11    1    3    3    0    0  0.13182969344E+02  0.40509727983E+02 -0.10946316542E+02  0.43984663097E+02  0.00000000000E+00 0.  1.
         11    1    3    3    0    0 -0.59646571914E+01 -0.50430827310E+02 -0.22314436973E+02  0.55468726108E+02  0.00000000000E+00 0. -1.
        -13    1    4    4    0    0 -0.10058074339E+02  0.28701839961E+02 -0.69790494792E+02  0.76129321814E+02  0.00000000000E+00 0.  1.
         13    1    4    4    0    0  0.59127685230E+02 -0.28681038274E+02 -0.37438037735E+02  0.75632610603E+02  0.00000000000E+00 0. -1.
         21    1    1    2  503  501 -0.32809351932E+02  0.15729088441E+02 -0.13197269966E+03  0.13689649832E+03  0.00000000000E+00 0.  1.
          1    1    1    2  501    0 -0.23478571112E+02 -0.58287908004E+01 -0.14526239208E+03  0.14726296430E+03  0.00000000000E+00 0. -1.
<scales pt_clust_5="13000.00000" pt_clust_6="13000.00000" pt_clust_7="13000.00000" pt_clust_8="13000.00000" pt_clust_9="20.31890" pt_clust_10="62.34825"></scales>
<clustering>
<clus scale="   20.319">  9 10 -1 -1</clus>
<clus scale="   62.348">  2  9  1 -1</clus>
<clus scale="   92.920">  5  6 -1 -1</clus>
<clus scale="   93.903">  1  5  2 -1</clus>
<clus scale="   95.530">  7  8 -1 -1</clus>
<clus scale="   62.348">  2  5  1 -1</clus>
</clustering>
</event>
<event>
10    2  0.2421970E-006  0.1238521E+03  0.7546771E-02  0.1237205E+00
          1   -1    0    0  503    0 -0.00000000000E+00  0.00000000000E+00  0.86361147786E+03  0.86361147786E+03  0.00000000000E+00 0. -1.
         21   -1    0    0  501  502  0.00000000000E+00 -0.00000000000E+00 -0.31516144464E+02  0.31516144464E+02  0.00000000000E+00 0.  1.
         23    2    1    2    0    0  0.99944045980E+02  0.12109336223E+01  0.37215057838E+03  0.39611344105E+03  0.91757977870E+02 0.  0.
         23    2    1    2    0    0 -0.65448858535E+02 -0.22538791270E+02  0.27223167467E+03  0.29515298703E+03  0.90629194323E+02 0.  0.
        -11    1    3    3    0    0  0.37394176681E+02 -0.31176649180E+02  0.66293642634E+02  0.82250562049E+02  0.00000000000E+00 0. -1.
         11    1    3    3    0    0  0.62549869299E+02  0.32387582802E+02  0.30585693574E+03  0.31386287900E+03  0.00000000000E+00 0.  1.
        -11    1    4    4    0    0 -0.52714085420E+02 -0.47653993643E+02  0.24807428105E+03  0.25805140346E+03  0.00000000000E+00 0. -1.
         11    1    4    4    0    0 -0.12734773114E+02  0.25115202373E+02  0.24157393621E+02  0.37101583565E+02  0.00000000000E+00 0.  1.
         21    1    1    2  503  502 -0.11142695390E+02  0.43593847978E+02  0.13225527160E+03  0.13969982143E+03  0.00000000000E+00 0.  1.
          1    1    1    2  501    0 -0.23352492055E+02 -0.22265990331E+02  0.55457808749E+02  0.64161372818E+02  0.00000000000E+00 0. -1.
<scales pt_clust_5="13000.00000" pt_clust_6="13000.00000" pt_clust_7="13000.00000" pt_clust_8="13000.00000" pt_clust_9="43.00499" pt_clust_10="32.26629"></scales>
<clustering>
<clus scale="   32.266">  2 10  1 -1</clus>
<clus scale="   43.005">  1  9  2 -1</clus>
<clus scale="   90.629">  7  8 -1 -1</clus>
<clus scale="   91.758">  5  6 -1 -1</clus>
<clus scale="  123.018">  2  7  1 -1</clus>
<clus scale="   32.266">  2  5  1 -1</clus>
</clustering>
</event>
<event>
10    2  0.2421970E-006  0.1289668E+03  0.7546771E-02  0.1229311E+00
          3   -1    0    0  502    0 -0.00000000000E+00  0.00000000000E+00  0.20308540995E+03  0.20308540995E+03  0.00000000000E+00 0. -1.
         21   -1    0    0  503  502  0.00000000000E+00 -0.00000000000E+00 -0.36219327772E+03  0.36219327772E+03  0.00000000000E+00 0. -1.
         23    2    1    2    0    0 -0.11462064637E+02  0.10924963078E+03  0.91120652579E+02  0.17040952321E+03  0.93110533901E+02 0.  0.
         23    2    1    2    0    0  0.88774149380E+02 -0.27025284545E+02 -0.15944481574E+02  0.13160681141E+03  0.91950588430E+02 0.  0.
        -11    1    4    4    0    0  0.92360514063E+02  0.10255824834E+02 -0.76232175813E+01  0.93240334338E+02  0.00000000000E+00 0.  1.
         11    1    4    4    0    0 -0.35863646829E+01 -0.37281109379E+02 -0.83212639932E+01  0.38366477068E+02  0.00000000000E+00 0. -1.
        -13    1    3    3    0    0 -0.19739319879E+02  0.70337063469E+02  0.23048566930E+01  0.73090735467E+02  0.00000000000E+00 0.  1.
         13    1    3    3    0    0  0.82772552422E+01  0.38912567310E+02  0.88815795886E+02  0.97318787744E+02  0.00000000000E+00 0. -1.
         21    1    1    2  503  501 -0.47698900189E+02 -0.23028512365E+02 -0.12049188534E+03  0.13161987651E+03  0.00000000000E+00 0.  1.
          3    1    1    2  501    0 -0.29613184555E+02 -0.59195833870E+02 -0.11379215343E+03  0.13164247654E+03  0.00000000000E+00 0. -1.
<scales pt_clust_5="13000.00000" pt_clust_6="13000.00000" pt_clust_7="13000.00000" pt_clust_8="13000.00000" pt_clust_9="36.66643" pt_clust_10="120.07521"></scales>
<clustering>
<clus scale="   36.666">  9 10 -1 -1</clus>
<clus scale="   91.951">  5  6 -1 -1</clus>
<clus scale="   93.111">  7  8 -1 -1</clus>
<clus scale="  120.075">  2  9  1 -1</clus>
<clus scale="  128.132">  2  5  1 -1</clus>
<clus scale="  120.075">  2  5  1 -1</clus>
</clustering>
</event>
<event>
10    2  0.2421970E-006  0.1381635E+03  0.7546771E-02  0.1239780E+00
         -1   -1    0    0    0  501 -0.00000000000E+00  0.00000000000E+00  0.17116009685E+03  0.17116009685E+03  0.00000000000E+00 0.  1.
         21   -1    0    0  501  502  0.00000000000E+00 -0.00000000000E+00 -0.29665769686E+03  0.29665769686E+03  0.00000000000E+00 0.  1.
         23    2    1    2    0    0 -0.15348696538E+02  0.90994602977E+01 -0.11442194570E+03  0.14199719780E+03  0.82173230809E+02 0.  0.
         23    2    1    2    0    0 -0.78730747551E+02  0.41736771518E+02  0.10532156826E+03  0.16498204235E+03  0.90476255730E+02 0.  0.
        -11    1    3    3    0    0  0.11048028600E+02 -0.30669785345E+02 -0.68016675809E+02  0.75425213671E+02  0.00000000000E+00 0. -1.
         11    1    3    3    0    0 -0.26396725139E+02  0.39769245643E+02 -0.46405269893E+02  0.66571984130E+02  0.00000000000E+00 0.  1.
        -13    1    4    4    0    0 -0.55042512959E+02  0.70596872640E+02  0.77736195806E+02  0.11856016531E+03  0.00000000000E+00 0.  1.
         13    1    4    4    0    0 -0.23688234592E+02 -0.28860101122E+02  0.27585372457E+02  0.46421877046E+02  0.00000000000E+00 0. -1.
         21    1    1    2  503  502  0.35210416765E+02 -0.31947052103E+02 -0.64437386864E+02  0.80078489076E+02  0.00000000000E+00 0.  1.
         -1    1    1    2    0  503  0.58869027324E+02 -0.18889179713E+02 -0.51959835702E+02  0.80760064478E+02  0.00000000000E+00 0.  1.
<scales pt_clust_5="13000.00000" pt_clust_6="13000.00000" pt_clust_7="13000.00000" pt_clust_8="13000.00000" pt_clust_9="26.09443" pt_clust_10="108.57562"></scales>
<clustering>
<clus scale="   26.094">  9 10 -1 -1</clus>
<clus scale="   82.173">  5  6 -1 -1</clus>
<clus scale="   84.088">  1  5  2 -1</clus>
<clus scale="   90.476">  7  8 -1 -1</clus>
<clus scale="  108.576">  2  9  1 -1</clus>
<clus scale="  108.576">  2  5  1 -1</clus>
</clustering>
</event>
<event>
10    2  0.2421970E-006  0.1719288E+03  0.7546771E-02  0.1176177E+00
         -3   -1    0    0    0  501 -0.00000000000E+00  0.00000000000E+00  0.29846433387E+03  0.29846433387E+03  0.00000000000E+00 0.  1.
         21   -1    0    0  501  502  0.00000000000E+00 -0.00000000000E+00 -0.22135077961E+03  0.22135077961E+03  0.00000000000E+00 0.  1.
         23    2    1    2    0    0 -0.11118452986E+03  0.52959924894E+02  0.10534847258E+03  0.18478990528E+03  0.88782065164E+02 0.  0.
         23    2    1    2    0    0  0.18318958889E+03 -0.10782484224E+03 -0.17029906147E+01  0.23130487842E+03  0.91183466277E+02 0.  0.
        -13    1    4    4    0    0  0.16199037571E+03 -0.10313472289E+03  0.28467554686E+02  0.19413411487E+03  0.00000000000E+00 0.  1.
         13    1    4    4    0    0  0.21199213183E+02 -0.46901193519E+01 -0.30170545301E+02  0.37170763549E+02  0.00000000000E+00 0. -1.
        -13    1    3    3    0    0 -0.92579566577E+02  0.60432209711E+02  0.11750770049E+03  0.16134152532E+03  0.00000000000E+00 0.  1.
         13    1    3    3    0    0 -0.18604963283E+02 -0.74722848168E+01 -0.12159227918E+02  0.23448379959E+02  0.00000000000E+00 0. -1.
         21    1    1    2  503  502 -0.85979224504E+01  0.31320011854E+02 -0.59371876504E+01  0.33016929146E+02  0.00000000000E+00 0.  1.
         -3    1    1    2    0  503 -0.63407136580E+02  0.23544905491E+02 -0.20594740053E+02  0.70703400637E+02  0.00000000000E+00 0.  1.
<scales pt_clust_5="13000.00000" pt_clust_6="13000.00000" pt_clust_7="13000.00000" pt_clust_8="13000.00000" pt_clust_9="29.87819" pt_clust_10="100.26946"></scales>
<clustering>
<clus scale="   29.878">  9 10 -1 -1</clus>
<clus scale="   88.782">  7  8 -1 -1</clus>
<clus scale="   91.183">  5  6 -1 -1</clus>
<clus scale="  100.269">  2  9  1 -1</clus>
<clus scale="  170.667">  1  7  2 -1</clus>
<clus scale="  100.269">  2  5  1 -1</clus>
</clustering>
</event>
<event>
10    2  0.2421970E-006  0.2664307E+03  0.7546771E-02  0.1133900E+00
         21   -1    0    0  503  502  0.00000000000E+00  0.00000000000E+00  0.44730408175E+03  0.44730408175E+03  0.00000000000E+00 0. -1.
          1   -1    0    0  502    0 -0.00000000000E+00 -0.00000000000E+00 -0.32975966382E+03  0.32975966382E+03  0.00000000000E+00 0. -1.
         23    2    1    2    0    0  0.33120086403E+02  0.77190021596E+02  0.10367275351E+03  0.16148410997E+03  0.90960641999E+02 0.  0.
         23    2    1    2    0    0 -0.19064248201E+03  0.12887965891E+03 -0.16431998221E+03  0.29709260164E+03  0.91150616940E+02 0.  0.
        -11    1    4    4    0    0 -0.13137612906E+03  0.36675215463E+02 -0.10725973687E+03  0.17352063241E+03  0.00000000000E+00 0.  1.
         11    1    4    4    0    0 -0.59266352953E+02  0.92204443444E+02 -0.57060245338E+02  0.12357196924E+03  0.00000000000E+00 0. -1.
        -13    1    3    3    0    0  0.80145781588E+01  0.93461921313E+02  0.75955910676E+02  0.12070072313E+03  0.00000000000E+00 0. -1.
         13    1    3    3    0    0  0.25105508244E+02 -0.16271899716E+02  0.27716842837E+02  0.40783386831E+02  0.00000000000E+00 0.  1.
         21    1    1    2  503  501  0.10351949362E+03 -0.10722567863E+03  0.80518323617E+02  0.16940139361E+03  0.00000000000E+00 0. -1.
          1    1    1    2  501    0  0.54002901985E+02 -0.98844001872E+02  0.97673323013E+02  0.14908564035E+03  0.00000000000E+00 0. -1.
<scales pt_clust_5="13000.00000" pt_clust_6="13000.00000" pt_clust_7="13000.00000" pt_clust_8="13000.00000" pt_clust_9="42.62075" pt_clust_10="255.10895"></scales>
<clustering>
<clus scale="   42.621">  9 10 -1 -1</clus>
<clus scale="   90.961">  7  8 -1 -1</clus>
<clus scale="   91.151">  5  6 -1 -1</clus>
<clus scale="  123.811">  2  7  1 -1</clus>
<clus scale="  255.109">  1  9  2 -1</clus>
<clus scale="  255.109">  1  5  2 -1</clus>
</clustering>
</event>
<event>
10    2  0.2421970E-006  0.1945524E+03  0.7546771E-02  0.1174345E+00
         21   -1    0    0  503  502  0.00000000000E+00  0.00000000000E+00  0.13025849464E+04  0.13025849464E+04  0.00000000000E+00 0. -1.
          2   -1    0    0  502    0 -0.00000000000E+00 -0.00000000000E+00 -0.53823704731E+03  0.53823704731E+03  0.00000000000E+00 0. -1.
         23    2    1    2    0    0  0.72281316911E+02  0.32058906756E+02 -0.16396213455E+03  0.20483601444E+03  0.93924698405E+02 0.  0.
         23    2    1    2    0    0  0.10173179156E+03 -0.77373919656E+02 -0.30864404249E+03  0.34759525440E+03  0.96048087231E+02 0.  0.
        -11    1    3    3    0    0  0.75255550448E+02 -0.87160913798E+01 -0.13475809938E+03  0.15459338107E+03  0.00000000000E+00 0.  1.
         11    1    3    3    0    0 -0.29742335366E+01  0.40774998135E+02 -0.29204035167E+02  0.50242633371E+02  0.00000000000E+00 0. -1.
        -13    1    4    4    0    0  0.81765690594E+02 -0.32918902729E+02 -0.99847878315E+02  0.13318739099E+03  0.00000000000E+00 0.  1.
         13    1    4    4    0    0  0.19966100968E+02 -0.44455016927E+02 -0.20879616418E+03  0.21440786341E+03  0.00000000000E+00 0. -1.
         21    1    1    2  503  501 -0.21428791855E+02  0.14080367656E+03  0.84708503151E+03  0.85897492342E+03  0.00000000000E+00 0. -1.
          2    1    1    2  501    0 -0.15258431662E+03 -0.95488663660E+02  0.38986904458E+03  0.42941580139E+03  0.00000000000E+00 0. -1.
<scales pt_clust_5="13000.00000" pt_clust_6="13000.00000" pt_clust_7="13000.00000" pt_clust_8="13000.00000" pt_clust_9="142.78049" pt_clust_10="169.19041"></scales>
<clustering>
<clus scale="   93.925">  5  6 -1 -1</clus>
<clus scale="   96.048">  7  8 -1 -1</clus>
<clus scale="  122.777">  2  5  1 -1</clus>
<clus scale="  142.780">  1  9  2 -1</clus>
<clus scale="  169.190">  1 10  2 -1</clus>
<clus scale="  142.780">  1  5  2 -1</clus>
</clustering>
</event>
<event>
10    2  0.2421970E-006  0.1387493E+03  0.7546771E-02  0.1228652E+00
          2   -1    0    0  503    0 -0.00000000000E+00  0.00000000000E+00  0.71496810275E+03  0.71496810275E+03  0.00000000000E+00 0. -1.
         21   -1    0    0  501  502  0.00000000000E+00 -0.00000000000E+00 -0.42391861102E+02  0.42391861102E+02  0.00000000000E+00 0.  1.
         23    2    1    2    0    0  0.10838866942E+01 -0.64420539573E+02  0.28497677217E+03  0.31857667117E+03  0.12699666928E+03 0.  0.
         23    2    1    2    0    0 -0.67447414526E+02  0.21804362959E+02  0.23869550803E+03  0.26411620276E+03  0.88075189693E+02 0.  0.
        -13    1    3    3    0    0  0.36982660673E+02  0.15255461739E+02  0.16719989279E+03  0.17191931378E+03  0.00000000000E+00 0.  1.
         13    1    3    3    0    0 -0.35898773979E+02 -0.79676001312E+02  0.11777687938E+03  0.14665735738E+03  0.00000000000E+00 0. -1.
        -13    1    4    4    0    0 -0.50510243020E+02 -0.10262376998E+01  0.22833918115E+03  0.23386132528E+03  0.00000000000E+00 0.  1.
         13    1    4    4    0    0 -0.16937171506E+02  0.22830600659E+02  0.10356326877E+02  0.30254877482E+02  0.00000000000E+00 0. -1.
         21    1    1    2  503  502  0.29687001968E+02  0.45580335930E+02  0.84560361087E+02  0.10054521260E+03  0.00000000000E+00 0.  1.
          2    1    1    2  501    0  0.36676525863E+02 -0.29641593161E+01  0.64343600363E+02  0.74121877320E+02  0.00000000000E+00 0. -1.
<scales pt_clust_5="13000.00000" pt_clust_6="13000.00000" pt_clust_7="13000.00000" pt_clust_8="13000.00000" pt_clust_9="58.53956" pt_clust_10="36.79611"></scales>
<clustering>
<clus scale="   36.796">  2 10  1 -1</clus>
<clus scale="   58.540">  2  9  1 -1</clus>
<clus scale="   88.075">  7  8 -1 -1</clus>
<clus scale="  104.309">  2  7  1 -1</clus>
<clus scale="  126.997">  5  6 -1 -1</clus>
<clus scale="   36.796">  2  5  1 -1</clus>
</clustering>
</event>
<event>
10    2  0.2421970E-006  0.1691339E+03  0.7546771E-02  0.1199781E+00
          2   -1    0    0  503    0 -0.00000000000E+00  0.00000000000E+00  0.48449228328E+03  0.48449228328E+03  0.00000000000E+00 0. -1.
         21   -1    0    0  501  502  0.00000000000E+00 -0.00000000000E+00 -0.31801667995E+03  0.31801667995E+03  0.00000000000E+00 0. -1.
         23    2    1    2    0    0  0.11110817230E+03 -0.92755081444E+02  0.36243321631E+03  0.40074313645E+03  0.91042265135E+02 0.  0.
         23    2    1    2    0    0  0.44711812947E+02  0.53381884966E+02  0.11537052023E+02  0.11550617940E+03  0.91431953113E+02 0.  0.
        -11    1    4    4    0    0 -0.47757521830E+01  0.40359275062E+02  0.39938647896E+02  0.56980474623E+02  0.00000000000E+00 0. -1.
         11    1    4    4    0    0  0.49487565130E+02  0.13022609904E+02 -0.28401595873E+02  0.58525704775E+02  0.00000000000E+00 0.  1.
        -13    1    3    3    0    0  0.30394189133E+02  0.80971110390E+01  0.14029295564E+03  0.14377580931E+03  0.00000000000E+00 0. -1.
         13    1    3    3    0    0  0.80713983162E+02 -0.10085219248E+03  0.22214026067E+03  0.25696732714E+03  0.00000000000E+00 0.  1.
         21    1    1    2  503  502 -0.10205436132E+03  0.75942130627E+02 -0.10532407484E+03  0.16515284015E+03  0.00000000000E+00 0.  1.
          2    1    1    2  501    0 -0.53765623921E+02 -0.36568934149E+02 -0.10217059017E+03  0.12110680723E+03  0.00000000000E+00 0. -1.
<scales pt_clust_5="13000.00000" pt_clust_6="13000.00000" pt_clust_7="13000.00000" pt_clust_8="13000.00000" pt_clust_9="142.53974" pt_clust_10="65.02330"></scales>
<clustering>
<clus scale="   65.023">  2 10  1 -1</clus>
<clus scale="   91.042">  7  8 -1 -1</clus>
<clus scale="   91.432">  5  6 -1 -1</clus>
<clus scale="  106.218">  2  5  1 -1</clus>
<clus scale="  142.540">  2  9  1 -1</clus>
<clus scale="   65.023">  2  5  1 -1</clus>
</clustering>
</event>
<event>
10    2  0.2421970E-006  0.1537419E+03  0.7546771E-02  0.1209257E+00
          2   -1    0    0  503    0 -0.00000000000E+00  0.00000000000E+00  0.27576793807E+03  0.27576793807E+03  0.00000000000E+00 0. -1.
         21   -1    0    0  501  502  0.00000000000E+00 -0.00000000000E+00 -0.37533286286E+03  0.37533286286E+03  0.00000000000E+00 0. -1.
         23    2    1    2    0    0  0.79443782290E+02  0.15460413069E+02  0.16448499226E+03  0.20710858276E+03  0.96375896660E+02 0.  0.
         23    2    1    2    0    0  0.45326182100E+02 -0.13175702317E+03 -0.11953188477E+03  0.20454882090E+03  0.90210712857E+02 0.  0.
        -11    1    3    3    0    0  0.52007885487E+02 -0.35585035618E+02  0.56880315003E+02  0.84891019240E+02  0.00000000000E+00 0.  1.
         11    1    3    3    0    0  0.27435896803E+02  0.51045448687E+02  0.10760467726E+03  0.12221756352E+03  0.00000000000E+00 0. -1.
        -13    1    4    4    0    0  0.64556880745E+01 -0.89672753663E+02 -0.11653122700E+03  0.14718153934E+03  0.00000000000E+00 0. -1.
         13    1    4    4    0    0  0.38870494025E+02 -0.42084269508E+02 -0.30006577770E+01  0.57367281553E+02  0.00000000000E+00 0.  1.
         21    1    1    2  503  502 -0.38879195765E+02  0.30408684226E+02  0.16587280495E+01  0.49386549976E+02  0.00000000000E+00 0.  1.
          2    1    1    2  501    0 -0.85890768625E+02  0.85887925875E+02 -0.14617676033E+03  0.19005684730E+03  0.00000000000E+00 0. -1.
<scales pt_clust_5="13000.00000" pt_clust_6="13000.00000" pt_clust_7="13000.00000" pt_clust_8="13000.00000" pt_clust_9="49.35869" pt_clust_10="124.49338"></scales>
<clustering>
<clus scale="   49.359">  1  9  2 -1</clus>
<clus scale="   90.211">  7  8 -1 -1</clus>
<clus scale="   96.376">  5  6 -1 -1</clus>
<clus scale="  115.296">  1  5  2 -1</clus>
<clus scale="  124.493">  2 10  1 -1</clus>
<clus scale="  124.493">  2  5  1 -1</clus>
</clustering>
</event>
<event>
10    2  0.2421970E-006  0.3106231E+03  0.7546771E-02  0.1128537E+00
          1   -1    0    0  502    0 -0.00000000000E+00  0.00000000000E+00  0.34306557958E+03  0.34306557958E+03  0.00000000000E+00 0. -1.
         21   -1    0    0  503  502  0.00000000000E+00 -0.00000000000E+00 -0.60647519180E+03  0.60647519180E+03  0.00000000000E+00 0. -1.
         23    2    1    2    0    0 -0.89314989583E+01 -0.17979097089E+02  0.52051037896E+02  0.10319017958E+03  0.86809463827E+02 0.  0.
         23    2    1    2    0    0  0.27250741589E+03 -0.53342784048E+02  0.11596269738E+03  0.31512969904E+03  0.93560866311E+02 0.  0.
        -11    1    3    3    0    0 -0.36282330334E+02  0.16074278128E+02  0.67337705346E+01  0.40250882939E+02  0.00000000000E+00 0. -1.
         11    1    3    3    0    0  0.27350831375E+02 -0.34053375217E+02  0.45317267362E+02  0.62939296641E+02  0.00000000000E+00 0.  1.
        -13    1    4    4    0    0  0.11213086170E+03 -0.52400229386E+02  0.12787390144E+02  0.12442922298E+03  0.00000000000E+00 0. -1.
         13    1    4    4    0    0  0.16037655420E+03 -0.94255466186E+00  0.10317530724E+03  0.19070047606E+03  0.00000000000E+00 0.  1.
         21    1    1    2  503  501 -0.69024790219E+02  0.90068041024E+02 -0.13805122301E+03  0.17870314450E+03  0.00000000000E+00 0.  1.
          1    1    1    2  501    0 -0.19455112672E+03 -0.18746159888E+02 -0.29337212449E+03  0.35251774827E+03  0.00000000000E+00 0. -1.
<scales pt_clust_5="13000.00000" pt_clust_6="13000.00000" pt_clust_7="13000.00000" pt_clust_8="13000.00000" pt_clust_9="111.08435" pt_clust_10="111.08435"></scales>
<clustering>
<clus scale="   86.809">  5  6 -1 -1</clus>
<clus scale="   89.101">  1  5  2 -1</clus>
<clus scale="   93.561">  7  8 -1 -1</clus>
<clus scale="  111.084">  9 10 -1 -1</clus>
<clus scale="  289.361">  1  7  2 -1</clus>
<clus scale="  310.623">  2  5  1 -1</clus>
</clustering>
</event>
<event>
10    2  0.2421970E-006  0.1063903E+03  0.7546771E-02  0.1268392E+00
          1   -1    0    0  503    0 -0.00000000000E+00  0.00000000000E+00  0.19182766962E+03  0.19182766962E+03  0.00000000000E+00 0. -1.
         21   -1    0    0  501  502  0.00000000000E+00 -0.00000000000E+00 -0.26163441826E+03  0.26163441826E+03  0.00000000000E+00 0. -1.
         23    2    1    2    0    0 -0.57622302479E+02  0.22356939748E+02  0.11127632599E+03  0.15750949951E+03  0.92772082083E+02 0.  0.
         23    2    1    2    0    0  0.34824528264E+02 -0.52253249280E+00  0.71499656241E+01  0.97185415748E+02  0.90448118923E+02 0.  0.
        -13    1    4    4    0    0  0.14318840121E+02  0.38425009844E+02  0.26795057333E+02  0.48984545128E+02  0.00000000000E+00 0.  1.
         13    1    4    4    0    0  0.20505688143E+02 -0.38947542337E+02 -0.19645091709E+02  0.48200870620E+02  0.00000000000E+00 0. -1.
        -13    1    3    3    0    0 -0.81485990645E+02  0.14068345759E+02  0.10022894283E+03  0.12993739263E+03  0.00000000000E+00 0. -1.
         13    1    3    3    0    0  0.23863688166E+02  0.82885939895E+01  0.11047383159E+02  0.27572106881E+02  0.00000000000E+00 0.  1.
         21    1    1    2  503  502 -0.88691993504E-01 -0.28933107317E+02 -0.44693894686E+02  0.53241682802E+02  0.00000000000E+00 0.  1.
          1    1    1    2  501    0  0.22886466209E+02  0.70987000615E+01 -0.14353914556E+03  0.14552548982E+03  0.00000000000E+00 0. -1.
<scales pt_clust_5="13000.00000" pt_clust_6="13000.00000" pt_clust_7="13000.00000" pt_clust_8="13000.00000" pt_clust_9="27.64174" pt_clust_10="23.96209"></scales>
<clustering>
<clus scale="   23.962">  2 10  1 -1</clus>
<clus scale="   27.642">  2  9  1 -1</clus>
<clus scale="   90.448">  5  6 -1 -1</clus>
<clus scale="   92.772">  7  8 -1 -1</clus>
<clus scale="  104.370">  2  5  1 -1</clus>
<clus scale="   23.962">  2  5  1 -1</clus>
</clustering>
</event>
<event>
10    2  0.2421970E-006  0.2285972E+03  0.7546771E-02  0.1128037E+00
         21   -1    0    0  503  502  0.00000000000E+00  0.00000000000E+00  0.63357980043E+03  0.63357980043E+03  0.00000000000E+00 0.  1.
         -1   -1    0    0    0  501 -0.00000000000E+00 -0.00000000000E+00 -0.42897361437E+03  0.42897361437E+03  0.00000000000E+00 0.  1.
         23    2    1    2    0    0  0.13828263141E+02  0.16485079854E+03 -0.12169807965E+03  0.22410417648E+03  0.89695332560E+02 0.  0.
         23    2    1    2    0    0 -0.12571274860E+03 -0.28948352527E+03 -0.10874097495E+03  0.34714411968E+03  0.95289210468E+02 0.  0.
        -13    1    4    4    0    0 -0.76378515279E+02 -0.21384494334E+03 -0.11880944764E+03  0.25627918807E+03  0.00000000000E+00 0.  1.
         13    1    4    4    0    0 -0.49334233323E+02 -0.75638581932E+02  0.10068472696E+02  0.90864931611E+02  0.00000000000E+00 0. -1.
        -13    1    3    3    0    0 -0.14781818798E+02  0.39592708354E+02 -0.77421270598E+02  0.88205089779E+02  0.00000000000E+00 0. -1.
         13    1    3    3    0    0  0.28610081940E+02  0.12525809018E+03 -0.44276809052E+02  0.13589908670E+03  0.00000000000E+00 0.  1.
         21    1    1    2  503  501  0.12178374983E+03  0.95537809041E+02  0.43375463762E+03  0.46054515559E+03  0.00000000000E+00 0.  1.
         -1    1    1    2    0  502 -0.98992643654E+01  0.29094917696E+02  0.12906030367E+01  0.30759963051E+02  0.00000000000E+00 0.  1.
<scales pt_clust_5="13000.00000" pt_clust_6="13000.00000" pt_clust_7="13000.00000" pt_clust_8="13000.00000" pt_clust_9="163.50361" pt_clust_10="30.73289"></scales>
<clustering>
<clus scale="   30.733">  1 10  2 -1</clus>
<clus scale="   89.695">  7  8 -1 -1</clus>
<clus scale="   95.289">  5  6 -1 -1</clus>
<clus scale="  163.504">  1  9  2 -1</clus>
<clus scale="  226.323">  2  7  1 -1</clus>
<clus scale="   30.733">  1  5  2 -1</clus>
</clustering>
</event>
<event>
10    2  0.2421970E-006  0.1401917E+03  0.7546771E-02  0.1231496E+00
          4   -1    0    0  502    0 -0.00000000000E+00  0.00000000000E+00  0.23683638780E+03  0.23683638780E+03  0.00000000000E+00 0. -1.
         21   -1    0    0  503  502  0.00000000000E+00 -0.00000000000E+00 -0.37759755133E+03  0.37759755133E+03  0.00000000000E+00 0.  1.
         23    2    1    2    0    0  0.24181155256E+02 -0.71467126989E+01  0.12367839978E+03  0.15616995156E+03  0.91961423585E+02 0.  0.
         23    2    1    2    0    0 -0.94785245517E+02 -0.57224659165E+02 -0.31465273906E+03  0.34531123150E+03  0.89300593590E+02 0.  0.
        -13    1    3    3    0    0 -0.75171372879E+01 -0.44960923372E+02  0.52028606539E+02  0.69173462266E+02  0.00000000000E+00 0. -1.
         13    1    3    3    0    0  0.31698292544E+02  0.37814210673E+02  0.71649793236E+02  0.86996489295E+02  0.00000000000E+00 0.  1.
        -13    1    4    4    0    0 -0.40327771059E+02 -0.73630831285E+02 -0.16310094798E+03  0.18343867549E+03  0.00000000000E+00 0. -1.
         13    1    4    4    0    0 -0.54457474457E+02  0.16406172120E+02 -0.15155179108E+03  0.16187255600E+03  0.00000000000E+00 0.  1.
         21    1    1    2  503  501  0.46543984208E+02  0.28705410573E+02  0.13332440698E+02  0.56285851127E+02  0.00000000000E+00 0. -1.
          4    1    1    2  501    0  0.24060106053E+02  0.35665961291E+02  0.36880735049E+02  0.56666904943E+02  0.00000000000E+00 0. -1.
<scales pt_clust_5="13000.00000" pt_clust_6="13000.00000" pt_clust_7="13000.00000" pt_clust_8="13000.00000" pt_clust_9="29.52956" pt_clust_10="113.08168"></scales>
<clustering>
<clus scale="   29.530">  9 10 -1 -1</clus>
<clus scale="   89.301">  7  8 -1 -1</clus>
<clus scale="   91.961">  5  6 -1 -1</clus>
<clus scale="   95.356">  1  5  2 -1</clus>
<clus scale="  113.082">  2  9  1 -1</clus>
<clus scale="  113.082">  2  5  1 -1</clus>
</clustering>
</event>
<event>
10    2  0.2421970E-006  0.9239124E+02  0.7546771E-02  0.1297506E+00
         21   -1    0    0  501  502  0.00000000000E+00  0.00000000000E+00  0.37686250121E+03  0.37686250121E+03  0.00000000000E+00 0. -1.
          1   -1    0    0  503    0 -0.00000000000E+00 -0.00000000000E+00 -0.10186246288E+03  0.10186246288E+03  0.00000000000E+00 0. -1.
         23    2    1    2    0    0 -0.14921375061E+02 -0.64340620147E+01 -0.92557989703E+01  0.93633336504E+02  0.91746865356E+02 0.  0.
         23    2    1    2    0    0 -0.54495133752E+02  0.29785469571E+02  0.18015734487E+03  0.21124190100E+03  0.91156886872E+02 0.  0.
        -13    1    3    3    0    0  0.37841999856E+02  0.52452135477E+01 -0.10352752321E+02  0.39581671249E+02  0.00000000000E+00 0.  1.
         13    1    3    3    0    0 -0.52763374916E+02 -0.11679275562E+02  0.10969533510E+01  0.54051665255E+02  0.00000000000E+00 0. -1.
        -13    1    4    4    0    0 -0.41508013456E+02  0.59674621021E+02  0.91986048406E+02  0.11724081489E+03  0.00000000000E+00 0. -1.
         13    1    4    4    0    0 -0.12987120296E+02 -0.29889151450E+02  0.88171296468E+02  0.94001086104E+02  0.00000000000E+00 0.  1.
         21    1    1    2  503  502  0.16102683196E+02  0.47730207982E+02  0.38723205898E+02  0.63537043016E+02  0.00000000000E+00 0.  1.
          1    1    1    2  501    0  0.53313825617E+02 -0.71081615539E+02  0.65375286529E+02  0.11031268358E+03  0.00000000000E+00 0. -1.
<scales pt_clust_5="13000.00000" pt_clust_6="13000.00000" pt_clust_7="13000.00000" pt_clust_8="13000.00000" pt_clust_9="50.37330" pt_clust_10="81.93063"></scales>
<clustering>
<clus scale="   50.373">  1  9  2 -1</clus>
<clus scale="   81.931">  1 10  2 -1</clus>
<clus scale="   91.157">  7  8 -1 -1</clus>
<clus scale="   91.747">  5  6 -1 -1</clus>
<clus scale="   91.805">  1  7  2 -1</clus>
<clus scale="   50.373">  1  5  2 -1</clus>
</clustering>
</event>
<event>
10    2  0.2421970E-006  0.1843015E+03  0.7546771E-02  0.1194214E+00
         21   -1    0    0  503  502  0.00000000000E+00  0.00000000000E+00  0.50481287768E+03  0.50481287768E+03  0.00000000000E+00 0.  1.
         -3   -1    0    0    0  501 -0.00000000000E+00 -0.00000000000E+00 -0.27337070047E+03  0.27337070047E+03  0.00000000000E+00 0.  1.
         23    2    1    2    0    0 -0.19146285807E+02  0.48184772221E+01 -0.18109301583E+03  0.20282378005E+03  0.89179635512E+02 0.  0.
         23    2    1    2    0    0  0.74746092223E+02  0.16305596527E+03  0.20984623692E+03  0.29068864141E+03  0.91050628690E+02 0.  0.
        -11    1    4    4    0    0  0.57704328467E+02  0.14081671945E+03  0.11211602179E+03  0.18902153407E+03  0.00000000000E+00 0.  1.
         11    1    4    4    0    0  0.17041763756E+02  0.22239245823E+02  0.97730215128E+02  0.10166710734E+03  0.00000000000E+00 0. -1.
        -13    1    3    3    0    0  0.42088061776E+01 -0.38971747800E+02 -0.10395391250E+03  0.11109872681E+03  0.00000000000E+00 0. -1.
         13    1    3    3    0    0 -0.23355091984E+02  0.43790225022E+02 -0.77139103334E+02  0.91725053242E+02  0.00000000000E+00 0.  1.
         21    1    1    2  503  501  0.18871966282E+01 -0.30558603330E+02 -0.30016977744E+01  0.30763613867E+02  0.00000000000E+00 0. -1.
         -3    1    1    2    0  502 -0.57487003044E+02 -0.13731583916E+03  0.20569065389E+03  0.25390754283E+03  0.00000000000E+00 0.  1.
<scales pt_clust_5="13000.00000" pt_clust_6="13000.00000" pt_clust_7="13000.00000" pt_clust_8="13000.00000" pt_clust_9="30.61682" pt_clust_10="160.23990"></scales>
<clustering>
<clus scale="   30.617">  2  9  1 -1</clus>
<clus scale="   89.180">  7  8 -1 -1</clus>
<clus scale="   91.051">  5  6 -1 -1</clus>
<clus scale="   92.700">  2  7  1 -1</clus>
<clus scale="  160.240">  1 10  2 -1</clus>
<clus scale="  160.240">  1  5  2 -1</clus>
</clustering>
</event>
<event>
10    2  0.2421970E-006  0.1085676E+03  0.7546771E-02  0.1263767E+00
         21   -1    0    0  501  502  0.00000000000E+00  0.00000000000E+00  0.85016145979E+03  0.85016145979E+03  0.00000000000E+00 0.  1.
          3   -1    0    0  503    0 -0.00000000000E+00 -0.00000000000E+00 -0.94080137573E+02  0.94080137573E+02  0.00000000000E+00 0. -1.
         23    2    1    2    0    0 -0.17568177148E+02 -0.54635163956E+02 -0.32724775892E+02  0.11027687624E+03  0.88297431936E+02 0.  0.
         23    2    1    2    0    0 -0.80503651275E+01  0.12601633490E+03  0.56429962013E+03  0.58516083406E+03  0.89633784947E+02 0.  0.
        -11    1    3    3    0    0 -0.28160155639E+02  0.15714662488E+02 -0.69311265263E+00  0.32255625677E+02  0.00000000000E+00 0.  1.
         11    1    3    3    0    0  0.10591978490E+02 -0.70349826443E+02 -0.32031663239E+02  0.78021250559E+02  0.00000000000E+00 0. -1.
        -13    1    4    4    0    0 -0.29212478163E+02  0.12831440204E+03  0.51321991829E+03  0.52982321503E+03  0.00000000000E+00 0.  1.
         13    1    4    4    0    0  0.21162113035E+02 -0.22980671413E+01  0.51079701836E+02  0.55337619034E+02  0.00000000000E+00 0. -1.
         21    1    1    2  503  502 -0.18835978997E+02 -0.44286323748E+02  0.15274395427E+03  0.16014614620E+03  0.00000000000E+00 0. -1.
          3    1    1    2  501    0  0.44454521273E+02 -0.27094847195E+02  0.71762523713E+02  0.88657740868E+02  0.00000000000E+00 0. -1.
<scales pt_clust_5="13000.00000" pt_clust_6="13000.00000" pt_clust_7="13000.00000" pt_clust_8="13000.00000" pt_clust_9="48.12559" pt_clust_10="53.15210"></scales>
<clustering>
<clus scale="   48.126">  1  9  2 -1</clus>
<clus scale="   53.152">  1 10  2 -1</clus>
<clus scale="   88.297">  5  6 -1 -1</clus>
<clus scale="   89.634">  7  8 -1 -1</clus>
<clus scale="  107.467">  2  5  1 -1</clus>
<clus scale="   48.126">  1  5  2 -1</clus>
</clustering>
</event>
<event>
10    2  0.2421970E-006  0.2368596E+03  0.7546771E-02  0.1122573E+00
         -1   -1    0    0    0  501 -0.00000000000E+00  0.00000000000E+00  0.97966282110E+03  0.97966282110E+03  0.00000000000E+00 0.  1.
         21   -1    0    0  503  502  0.00000000000E+00 -0.00000000000E+00 -0.14818038167E+03  0.14818038167E+03  0.00000000000E+00 0.  1.
         23    2    1    2    0    0  0.27164203090E+02 -0.17205548069E+03  0.43346902939E+03  0.47534706575E+03  0.87854715957E+02 0.  0.
         23    2    1    2    0    0  0.11514181102E+03  0.20582193034E+03  0.42147160857E+02  0.25876213050E+03  0.97781150332E+02 0.  0.
        -11    1    4    4    0    0  0.51130820726E+02  0.82428583244E+02  0.66542102825E+02  0.11762943344E+03  0.00000000000E+00 0. -1.
         11    1    4    4    0    0  0.64010990295E+02  0.12339334710E+03 -0.24394941967E+02  0.14113269706E+03  0.00000000000E+00 0.  1.
        -13    1    3    3    0    0 -0.13743816251E+02 -0.10684548195E+03  0.17352589940E+03  0.20424516460E+03  0.00000000000E+00 0.  1.
         13    1    3    3    0    0  0.40908019342E+02 -0.65209998737E+02  0.25994312999E+03  0.27110190115E+03  0.00000000000E+00 0. -1.
         21    1    1    2  503  501 -0.12246387595E+03 -0.59329210795E+02  0.28397626904E+03  0.31489661406E+03  0.00000000000E+00 0.  1.
         -1    1    1    2    0  502 -0.19842138165E+02  0.25562761143E+02  0.71889980149E+02  0.78837392461E+02  0.00000000000E+00 0.  1.
<scales pt_clust_5="13000.00000" pt_clust_6="13000.00000" pt_clust_7="13000.00000" pt_clust_8="13000.00000" pt_clust_9="136.83737" pt_clust_10="32.35995"></scales>
<clustering>
<clus scale="   32.360">  2 10  1 -1</clus>
<clus scale="   87.855">  7  8 -1 -1</clus>
<clus scale="   97.781">  5  6 -1 -1</clus>
<clus scale="  136.837">  1  9  2 -1</clus>
<clus scale="  232.937">  1  7  2 -1</clus>
<clus scale="   32.360">  2  5  1 -1</clus>
</clustering>
</event>
<event>
10    2  0.2421970E-006  0.1955557E+03  0.7546771E-02  0.1153576E+00
         21   -1    0    0  503  502  0.00000000000E+00  0.00000000000E+00  0.75358851701E+03  0.75358851701E+03  0.00000000000E+00 0. -1.
          3   -1    0    0  502    0 -0.00000000000E+00 -0.00000000000E+00 -0.39793271082E+03  0.39793271082E+03  0.00000000000E+00 0. -1.
         23    2    1    2    0    0 -0.61235557427E+02  0.12059695608E+03 -0.11640346803E+03  0.20057115877E+03  0.91572938422E+02 0.  0.
         23    2    1    2    0    0  0.16662706922E+03 -0.17645068385E+03 -0.15773483777E+03  0.30349054675E+03  0.91251350088E+02 0.  0.
        -13    1    3    3    0    0 -0.63996872128E+02  0.26883175974E+02 -0.54043108488E+02  0.87971372432E+02  0.00000000000E+00 0.  1.
         13    1    3    3    0    0  0.27613147006E+01  0.93713780109E+02 -0.62360359546E+02  0.11259978634E+03  0.00000000000E+00 0. -1.
        -13    1    4    4    0    0  0.69929245282E+01 -0.54759942986E+02 -0.55290383374E+02  0.78131804298E+02  0.00000000000E+00 0.  1.
         13    1    4    4    0    0  0.15963414469E+03 -0.12169074087E+03 -0.10244445439E+03  0.22535874245E+03  0.00000000000E+00 0. -1.
         21    1    1    2  503  501 -0.30503270727E+02  0.30111240888E+02  0.69912738228E+02  0.82005654191E+02  0.00000000000E+00 0. -1.
          3    1    1    2  501    0 -0.74888241062E+02  0.25742486881E+02  0.55988137376E+03  0.56545386812E+03  0.00000000000E+00 0. -1.
<scales pt_clust_5="13000.00000" pt_clust_6="13000.00000" pt_clust_7="13000.00000" pt_clust_8="13000.00000" pt_clust_9="42.86183" pt_clust_10="112.33183"></scales>
<clustering>
<clus scale="   42.862">  1  9  2 -1</clus>
<clus scale="   91.251">  7  8 -1 -1</clus>
<clus scale="   91.573">  5  6 -1 -1</clus>
<clus scale="  112.332">  1 10  2 -1</clus>
<clus scale="  195.405">  1  7  2 -1</clus>
<clus scale="   42.862">  1  5  2 -1</clus>
</clustering>
</event>
<event>
10    2  0.2421970E-006  0.1113640E+03  0.7546771E-02  0.1269550E+00
         21   -1    0    0  501  502  0.00000000000E+00  0.00000000000E+00  0.94460942791E+02  0.94460942791E+02  0.00000000000E+00 0. -1.
          3   -1    0    0  503    0 -0.00000000000E+00 -0.00000000000E+00 -0.25244162859E+03  0.25244162859E+03  0.00000000000E+00 0. -1.
         23    2    1    2    0    0 -0.16908904027E+02 -0.11081146312E+01 -0.10407519140E+03  0.15024697842E+03  0.10702976271E+03 0.  0.
         23    2    1    2    0    0  0.14783982672E+02 -0.63894564073E+02 -0.57102933371E+02  0.12055469926E+03  0.83496161907E+02 0.  0.
        -11    1    3    3    0    0 -0.14601554560E+02  0.44089938667E+02 -0.12497738355E+02  0.48097001479E+02  0.00000000000E+00 0.  1.
         11    1    3    3    0    0 -0.23073494668E+01 -0.45198053298E+02 -0.91577453040E+02  0.10214997694E+03  0.00000000000E+00 0. -1.
        -13    1    4    4    0    0  0.17738993249E+02  0.17364937234E+02 -0.12035353126E+02  0.27587363982E+02  0.00000000000E+00 0.  1.
         13    1    4    4    0    0 -0.29550105770E+01 -0.81259501306E+02 -0.45067580245E+02  0.92967335281E+02  0.00000000000E+00 0. -1.
         21    1    1    2  503  502  0.18320096160E+01  0.33057261087E+02  0.21313389107E+02  0.39375110477E+02  0.00000000000E+00 0. -1.
          3    1    1    2  501    0  0.29291173858E+00  0.31945417617E+02 -0.18115950142E+02  0.36725783226E+02  0.00000000000E+00 0. -1.
<scales pt_clust_5="13000.00000" pt_clust_6="13000.00000" pt_clust_7="13000.00000" pt_clust_8="13000.00000" pt_clust_9="44.48276" pt_clust_10="31.94678"></scales>
<clustering>
<clus scale="   31.947">  1 10  2 -1</clus>
<clus scale="   44.483">  1  9  2 -1</clus>
<clus scale="   83.496">  7  8 -1 -1</clus>
<clus scale="   88.984">  1  7  2 -1</clus>
<clus scale="  107.030">  5  6 -1 -1</clus>
<clus scale="   31.947">  1  5  2 -1</clus>
</clustering>
</event>
<event>
10    2  0.2421970E-006  0.2238365E+03  0.7546771E-02  0.1131446E+00
          2   -1    0    0  502    0 -0.00000000000E+00  0.00000000000E+00  0.27691971107E+03  0.27691971107E+03  0.00000000000E+00 0. -1.
         21   -1    0    0  503  502  0.00000000000E+00 -0.00000000000E+00 -0.34536173009E+03  0.34536173009E+03  0.00000000000E+00 0. -1.
         23    2    1    2    0    0  0.81130841927E+01  0.15126351500E+03 -0.17615870645E+02  0.17803232459E+03  0.91862487428E+02 0.  0.
         23    2    1    2    0    0 -0.34691201425E+02 -0.28422416206E+03 -0.24503460347E+02  0.30328008800E+03  0.96909950215E+02 0.  0.
        -13    1    3    3    0    0  0.14509869543E+02  0.62770657658E+02 -0.52086695168E+02  0.82847544263E+02  0.00000000000E+00 0. -1.
         13    1    3    3    0    0 -0.63967853507E+01  0.88492857339E+02  0.34470824523E+02  0.95184780328E+02  0.00000000000E+00 0.  1.
        -13    1    4    4    0    0  0.38220291697E+01 -0.50649351918E+02 -0.41995725109E+02  0.65906036780E+02  0.00000000000E+00 0.  1.
         13    1    4    4    0    0 -0.38513230594E+02 -0.23357481015E+03  0.17492264762E+02  0.23737405122E+03  0.00000000000E+00 0. -1.
         21    1    1    2  503  501  0.87182101998E+01  0.84625879717E+02 -0.50553464053E+01  0.85223841936E+02  0.00000000000E+00 0. -1.
          2    1    1    2  501    0  0.17859907032E+02  0.48334767350E+02 -0.21267341622E+02  0.55745186641E+02  0.00000000000E+00 0. -1.
<scales pt_clust_5="13000.00000" pt_clust_6="13000.00000" pt_clust_7="13000.00000" pt_clust_8="13000.00000" pt_clust_9="21.93621" pt_clust_10="138.48965"></scales>
<clustering>
<clus scale="   21.936">  9 10 -1 -1</clus>
<clus scale="   91.862">  5  6 -1 -1</clus>
<clus scale="   96.910">  7  8 -1 -1</clus>
<clus scale="  138.490">  2  9  1 -1</clus>
<clus scale="  221.698">  1  5  2 -1</clus>
<clus scale="  138.490">  2  5  1 -1</clus>
</clustering>
</event>
<event>
10    2  0.2421970E-006  0.2080549E+03  0.7546771E-02  0.1143268E+00
          1   -1    0    0  503    0 -0.00000000000E+00  0.00000000000E+00  0.58015067904E+03  0.58015067904E+03  0.00000000000E+00 0. -1.
         21   -1    0    0  501  502  0.00000000000E+00 -0.00000000000E+00 -0.15434947773E+03  0.15434947773E+03  0.00000000000E+00 0.  1.
         23    2    1    2    0    0 -0.13560519140E+03  0.82927919534E+02  0.34604275599E+03  0.39187037475E+03  0.92471584049E+02 0.  0.
         23    2    1    2    0    0  0.19006247752E+03 -0.33844461715E+02 -0.48316116560E+01  0.21337374954E+03  0.90751416357E+02 0.  0.
        -13    1    3    3    0    0 -0.67571351239E+02  0.89960773872E+02  0.17971779201E+03  0.21203139652E+03  0.00000000000E+00 0.  1.
         13    1    3    3    0    0 -0.68033840161E+02 -0.70328543380E+01  0.16632496398E+03  0.17983897823E+03  0.00000000000E+00 0. -1.
        -13    1    4    4    0    0  0.40795483274E+02 -0.15692950768E+02  0.37032357249E+02  0.57288180655E+02  0.00000000000E+00 0. -1.
         13    1    4    4    0    0  0.14926699425E+03 -0.18151510947E+02 -0.41863968905E+02  0.15608556888E+03  0.00000000000E+00 0.  1.
         21    1    1    2  503  502 -0.49590108219E+02 -0.52413119715E+01  0.62400630151E+02  0.79877962089E+02  0.00000000000E+00 0.  1.
          1    1    1    2  501    0 -0.48671779006E+01 -0.43842145847E+02  0.22189426822E+02  0.49378070394E+02  0.00000000000E+00 0. -1.
<scales pt_clust_5="13000.00000" pt_clust_6="13000.00000" pt_clust_7="13000.00000" pt_clust_8="13000.00000" pt_clust_9="50.52378" pt_clust_10="44.11149"></scales>
<clustering>
<clus scale="   44.111">  2 10  1 -1</clus>
<clus scale="   50.524">  1  9  2 -1</clus>
<clus scale="   90.751">  7  8 -1 -1</clus>
<clus scale="   92.472">  5  6 -1 -1</clus>
<clus scale="  207.296">  2  7  1 -1</clus>
<clus scale="   44.111">  2  5  1 -1</clus>
</clustering>
</event>
<event>
10    2  0.2421970E-006  0.1160137E+03  0.7546771E-02  0.1250215E+00
         21   -1    0    0  501  502  0.00000000000E+00  0.00000000000E+00  0.99739142023E+02  0.99739142023E+02  0.00000000000E+00 0.  1.
          1   -1    0    0  503    0 -0.00000000000E+00 -0.00000000000E+00 -0.42988139530E+03  0.42988139530E+03  0.00000000000E+00 0. -1.
         23    2    1    2    0    0 -0.22060249453E+00 -0.50422856555E+02 -0.15026057186E+03  0.18254166600E+03  0.90557756385E+02 0.  0.
         23    2    1    2    0    0 -0.40342742081E+02  0.89149274953E+02 -0.22638817777E+03  0.26312988987E+03  0.91709333460E+02 0.  0.
        -11    1    3    3    0    0  0.44093169265E+02 -0.18999671132E+02 -0.85066633403E+02  0.97680741180E+02  0.00000000000E+00 0.  1.
         11    1    3    3    0    0 -0.44313771760E+02 -0.31423185424E+02 -0.65193938459E+02  0.84860924821E+02  0.00000000000E+00 0. -1.
        -13    1    4    4    0    0 -0.38475975913E+02  0.12137524101E+02 -0.14729897989E+03  0.15272429306E+03  0.00000000000E+00 0. -1.
         13    1    4    4    0    0 -0.18667661674E+01  0.77011750852E+02 -0.79089197885E+02  0.11040559681E+03  0.00000000000E+00 0.  1.
         21    1    1    2  503  502  0.29660968663E+02 -0.12521800302E+00  0.17379272462E+02  0.34377723207E+02  0.00000000000E+00 0.  1.
          1    1    1    2  501    0  0.10902375912E+02 -0.38601200395E+02  0.29127223894E+02  0.49571258247E+02  0.00000000000E+00 0. -1.
<scales pt_clust_5="13000.00000" pt_clust_6="13000.00000" pt_clust_7="13000.00000" pt_clust_8="13000.00000" pt_clust_9="29.66123" pt_clust_10="46.99281"></scales>
<clustering>
<clus scale="   29.661">  1  9  2 -1</clus>
<clus scale="   46.993">  1 10  2 -1</clus>
<clus scale="   90.558">  5  6 -1 -1</clus>
<clus scale="   91.709">  7  8 -1 -1</clus>
<clus scale="  115.106">  2  5  1 -1</clus>
<clus scale="   29.661">  1  5  2 -1</clus>
</clustering>
</event>
<event>
10    2  0.2421970E-006  0.9065465E+02  0.7546771E-02  0.1302339E+00
          2   -1    0    0  503    0 -0.00000000000E+00  0.00000000000E+00  0.15138946255E+03  0.15138946255E+03  0.00000000000E+00 0. -1.
         21   -1    0    0  501  502  0.00000000000E+00 -0.00000000000E+00 -0.11086662902E+03  0.11086662902E+03  0.00000000000E+00 0.  1.
         23    2    1    2    0    0  0.12957064653E+02  0.18231559915E+02  0.50374231037E+02  0.10605808262E+03  0.90611690390E+02 0.  0.
         23    2    1    2    0    0  0.14686341448E+02  0.25065299037E+02  0.46628761851E+01  0.93598796739E+02  0.88854006639E+02 0.  0.
        -13    1    3    3    0    0  0.86961233994E+01 -0.34991865527E+02  0.35573311331E+02  0.50650900232E+02  0.00000000000E+00 0.  1.
         13    1    3    3    0    0  0.42609412539E+01  0.53223425442E+02  0.14800919706E+02  0.55407182389E+02  0.00000000000E+00 0. -1.
        -13    1    4    4    0    0  0.47194913373E+02  0.32528353877E+02 -0.80954653441E+01  0.57887738022E+02  0.00000000000E+00 0.  1.
         13    1    4    4    0    0 -0.32508571925E+02 -0.74630548397E+01  0.12758341529E+02  0.35711058717E+02  0.00000000000E+00 0. -1.
         21    1    1    2  503  502  0.12402996689E+01 -0.24892181457E+02  0.11248022101E+01  0.24948431232E+02  0.00000000000E+00 0.  1.
          2    1    1    2  501    0 -0.28883705770E+02 -0.18404677495E+02 -0.15639075905E+02  0.37650780973E+02  0.00000000000E+00 0. -1.
<scales pt_clust_5="13000.00000" pt_clust_6="13000.00000" pt_clust_7="13000.00000" pt_clust_8="13000.00000" pt_clust_9="24.92306" pt_clust_10="38.01922"></scales>
<clustering>
<clus scale="   24.923">  2  9  1 -1</clus>
<clus scale="   38.019">  2 10  1 -1</clus>
<clus scale="   88.854">  7  8 -1 -1</clus>
<clus scale="   88.898">  2  7  1 -1</clus>
<clus scale="   90.612">  5  6 -1 -1</clus>
<clus scale="   24.923">  2  5  1 -1</clus>
</clustering>
</event>
<event>
10    2  0.2421970E-006  0.1570717E+03  0.7546771E-02  0.1192101E+00
          2   -1    0    0  503    0 -0.00000000000E+00  0.00000000000E+00  0.35608807752E+03  0.35608807752E+03  0.00000000000E+00 0. -1.
         21   -1    0    0  501  502  0.00000000000E+00 -0.00000000000E+00 -0.20525459294E+03  0.20525459294E+03  0.00000000000E+00 0. -1.
         23    2    1    2    0    0 -0.69795107708E+02 -0.96331624688E+02  0.18217770343E+03  0.23559875326E+03  0.90371001636E+02 0.  0.
         23    2    1    2    0    0  0.49645590861E+02  0.14361022104E+03  0.81824891551E+02  0.19496994462E+03  0.90715964124E+02 0.  0.
        -11    1    4    4    0    0 -0.22927847370E+02  0.10678253966E+02  0.15221525929E+02  0.29519589163E+02  0.00000000000E+00 0.  1.
         11    1    4    4    0    0  0.72573438231E+02  0.13293196708E+03  0.66603365622E+02  0.16545035545E+03  0.00000000000E+00 0. -1.
        -13    1    3    3    0    0 -0.59650070187E+02 -0.14589040101E+02  0.11046256800E+03  0.12638413624E+03  0.00000000000E+00 0.  1.
         13    1    3    3    0    0 -0.10145037521E+02 -0.81742584588E+02  0.71715135431E+02  0.10921461702E+03  0.00000000000E+00 0. -1.
         21    1    1    2  503  502  0.19906901080E+02 -0.23299339023E+02 -0.25447519389E+02  0.39833656028E+02  0.00000000000E+00 0.  1.
          2    1    1    2  501    0  0.24261576684E+00 -0.23979257333E+02 -0.87721591015E+02  0.90940316553E+02  0.00000000000E+00 0. -1.
<scales pt_clust_5="13000.00000" pt_clust_6="13000.00000" pt_clust_7="13000.00000" pt_clust_8="13000.00000" pt_clust_9="36.08438" pt_clust_10="23.98048"></scales>
<clustering>
<clus scale="   23.980">  2 10  1 -1</clus>
<clus scale="   36.084">  2  9  1 -1</clus>
<clus scale="   90.371">  7  8 -1 -1</clus>
<clus scale="   90.716">  5  6 -1 -1</clus>
<clus scale="  156.873">  1  7  2 -1</clus>
<clus scale="   23.980">  2  5  1 -1</clus>
</clustering>
</event>
<event>
10    2  0.2421970E-006  0.1712143E+03  0.7546771E-02  0.1198227E+00
         -2   -1    0    0    0  501 -0.00000000000E+00  0.00000000000E+00  0.28020994211E+03  0.28020994211E+03  0.00000000000E+00 0.  1.
         21   -1    0    0  501  502  0.00000000000E+00 -0.00000000000E+00 -0.25485395602E+03  0.25485395602E+03  0.00000000000E+00 0. -1.
         23    2    1    2    0    0 -0.39904995056E+02 -0.46989241777E+02  0.12525132579E+03  0.16402983553E+03  0.86124879446E+02 0.  0.
         23    2    1    2    0    0  0.15536217620E+03 -0.37706186789E+02  0.91174573719E+01  0.18377778130E+03  0.90177505827E+02 0.  0.
        -11    1    3    3    0    0 -0.24790006789E+02 -0.12096920543E+01  0.11102354347E+03  0.11376394419E+03  0.00000000000E+00 0. -1.
         11    1    3    3    0    0 -0.15114988267E+02 -0.45779549723E+02  0.14227782316E+02  0.50265891346E+02  0.00000000000E+00 0.  1.
        -11    1    4    4    0    0  0.88352646305E+01 -0.35883747925E+02 -0.11584913109E-01  0.36955451566E+02  0.00000000000E+00 0.  1.
         11    1    4    4    0    0  0.14652691157E+03 -0.18224388641E+01  0.91290422850E+01  0.14682232974E+03  0.00000000000E+00 0. -1.
         21    1    1    2  503  502 -0.15199044027E+02  0.28764549445E+02 -0.45863045721E+02  0.56230145002E+02  0.00000000000E+00 0. -1.
         -2    1    1    2    0  503 -0.10025813711E+03  0.55930879121E+02 -0.63149751344E+02  0.13102613629E+03  0.00000000000E+00 0.  1.
<scales pt_clust_5="13000.00000" pt_clust_6="13000.00000" pt_clust_7="13000.00000" pt_clust_8="13000.00000" pt_clust_9="27.54518" pt_clust_10="154.46614"></scales>
<clustering>
<clus scale="   27.545">  9 10 -1 -1</clus>
<clus scale="   86.125">  5  6 -1 -1</clus>
<clus scale="   90.178">  7  8 -1 -1</clus>
<clus scale="  105.915">  1  5  2 -1</clus>
<clus scale="  154.466">  2  9  1 -1</clus>
<clus scale="  154.466">  2  5  1 -1</clus>
</clustering>
</event>
<event>
10    2  0.2421970E-006  0.1124394E+03  0.7546771E-02  0.1256980E+00
         21   -1    0    0  501  502  0.00000000000E+00  0.00000000000E+00  0.76949878916E+02  0.76949878916E+02  0.00000000000E+00 0.  1.
          1   -1    0    0  503    0 -0.00000000000E+00 -0.00000000000E+00 -0.51811830651E+03  0.51811830651E+03  0.00000000000E+00 0. -1.
         23    2    1    2    0    0 -0.41186436645E+02  0.78494890985E+01 -0.23577921788E+03  0.25689162425E+03  0.92970586636E+02 0.  0.
         23    2    1    2    0    0  0.94202075712E+02 -0.44190623155E+02 -0.22430314229E+03  0.26336030255E+03  0.90663703182E+02 0.  0.
        -11    1    3    3    0    0  0.11414508891E+02  0.37645631260E+02 -0.11994140153E+03  0.12622766878E+03  0.00000000000E+00 0.  1.
         11    1    3    3    0    0 -0.52600945536E+02 -0.29796142162E+02 -0.11583781636E+03  0.13066395546E+03  0.00000000000E+00 0. -1.
        -11    1    4    4    0    0  0.91737349498E+01 -0.30904445797E+02 -0.13711116026E+03  0.14084996432E+03  0.00000000000E+00 0. -1.
         11    1    4    4    0    0  0.85028340762E+02 -0.13286177359E+02 -0.87191982038E+02  0.12251033823E+03  0.00000000000E+00 0.  1.
         21    1    1    2  503  502 -0.26433278699E+02  0.15823897779E+02 -0.79459218224E+01  0.31815902271E+02  0.00000000000E+00 0. -1.
          1    1    1    2  501    0 -0.26582360367E+02  0.20517236278E+02  0.26859854412E+02  0.43000356350E+02  0.00000000000E+00 0. -1.
<scales pt_clust_5="13000.00000" pt_clust_6="13000.00000" pt_clust_7="13000.00000" pt_clust_8="13000.00000" pt_clust_9="30.80769" pt_clust_10="50.05423"></scales>
<clustering>
<clus scale="   30.808">  1  9  2 -1</clus>
<clus scale="   50.054">  1 10  2 -1</clus>
<clus scale="   90.664">  7  8 -1 -1</clus>
<clus scale="   92.971">  5  6 -1 -1</clus>
<clus scale="  110.540">  1  7  2 -1</clus>
<clus scale="   30.808">  1  5  2 -1</clus>
</clustering>
</event>
<event>
10    2  0.2421970E-006  0.1647588E+03  0.7546771E-02  0.1196939E+00
         21   -1    0    0  501  502  0.00000000000E+00  0.00000000000E+00  0.13545351736E+03  0.13545351736E+03  0.00000000000E+00 0. -1.
         -3   -1    0    0    0  501 -0.00000000000E+00 -0.00000000000E+00 -0.46413913416E+03  0.46413913416E+03  0.00000000000E+00 0.  1.
         23    2    1    2    0    0  0.39797115095E+02  0.74171154575E+02 -0.18170131014E+03  0.21899496579E+03  0.88646818274E+02 0.  0.
         23    2    1    2    0    0  0.60536701946E+02 -0.13966376506E+03  0.13816075745E+02  0.17774300020E+03  0.90725027511E+02 0.  0.
        -11    1    3    3    0    0  0.39215991092E+02 -0.62113349801E+01 -0.41852434046E+02  0.57689694705E+02  0.00000000000E+00 0. -1.
         11    1    3    3    0    0  0.58112400283E+00  0.80382489556E+02 -0.13984887610E+03  0.16130527108E+03  0.00000000000E+00 0.  1.
        -13    1    4    4    0    0 -0.23811534754E+02 -0.25916168967E+02  0.75519868795E+01  0.35995409528E+02  0.00000000000E+00 0. -1.
         13    1    4    4    0    0  0.84348236699E+02 -0.11374759609E+03  0.62640888654E+01  0.14174759067E+03  0.00000000000E+00 0.  1.
         21    1    1    2  503  502 -0.54634690899E+02  0.43420746691E+02 -0.11486258427E+03  0.13440135400E+03  0.00000000000E+00 0.  1.
         -3    1    1    2    0  503 -0.45699126143E+02  0.22071863793E+02 -0.45937798129E+02  0.68453331537E+02  0.00000000000E+00 0.  1.
<scales pt_clust_5="13000.00000" pt_clust_6="13000.00000" pt_clust_7="13000.00000" pt_clust_8="13000.00000" pt_clust_9="26.10498" pt_clust_10="140.89557"></scales>
<clustering>
<clus scale="   26.105">  9 10 -1 -1</clus>
<clus scale="   88.647">  5  6 -1 -1</clus>
<clus scale="   90.725">  7  8 -1 -1</clus>
<clus scale="  122.243">  2  5  1 -1</clus>
<clus scale="  140.896">  1  9  2 -1</clus>
<clus scale="  140.896">  1  5  2 -1</clus>
</clustering>
</event>
<event>
10    2  0.2421970E-006  0.1955958E+03  0.7546771E-02  0.1163417E+00
          2   -1    0    0  502    0 -0.00000000000E+00  0.00000000000E+00  0.19320063869E+04  0.19320063869E+04  0.00000000000E+00 0. -1.
         21   -1    0    0  503  502  0.00000000000E+00 -0.00000000000E+00 -0.12514589461E+03  0.12514589461E+03  0.00000000000E+00 0. -1.
         23    2    1    2    0    0 -0.79125969696E+02  0.87717051757E+02  0.18147839784E+03  0.23516822131E+03  0.91730492098E+02 0.  0.
         23    2    1    2    0    0  0.86578820240E+02 -0.27278824513E+03  0.15370542676E+04  0.15660780987E+04  0.90307645295E+02 0.  0.
        -11    1    3    3    0    0 -0.90829629761E+02  0.52898763158E+02  0.16324848675E+03  0.19416067885E+03  0.00000000000E+00 0. -1.
         11    1    3    3    0    0  0.11703660065E+02  0.34818288599E+02  0.18229911093E+02  0.41007542457E+02  0.00000000000E+00 0.  1.
        -13    1    4    4    0    0  0.62896261254E+02 -0.67331219969E+02  0.41262672550E+03  0.42278865578E+03  0.00000000000E+00 0. -1.
         13    1    4    4    0    0  0.23682558985E+02 -0.20545702517E+03  0.11244275421E+04  0.11432894429E+04  0.00000000000E+00 0.  1.
         21    1    1    2  503  501  0.35258610724E+02  0.50783872075E+02 -0.32888787919E+02  0.70027449360E+02  0.00000000000E+00 0. -1.
          2    1    1    2  501    0 -0.42711461267E+02  0.13428732130E+03  0.12121661475E+03  0.18587851215E+03  0.00000000000E+00 0. -1.
<scales pt_clust_5="13000.00000" pt_clust_6="13000.00000" pt_clust_7="13000.00000" pt_clust_8="13000.00000" pt_clust_9="61.82371" pt_clust_10="173.50002"></scales>
<clustering>
<clus scale="   61.824">  2  9  1 -1</clus>
<clus scale="   90.308">  7  8 -1 -1</clus>
<clus scale="   91.730">  5  6 -1 -1</clus>
<clus scale="  155.209">  1  5  2 -1</clus>
<clus scale="  173.500">  2 10  1 -1</clus>
<clus scale="   61.824">  2  5  1 -1</clus>
</clustering>
</event>
<event>
10    2  0.3462970E-006  0.9522319E+02  0.7546771E-02  0.1291126E+00
          1   -1    0    0  503    0 -0.00000000000E+00  0.00000000000E+00  0.14071806324E+03  0.14071806324E+03  0.00000000000E+00 0. -1.
         21   -1    0    0  501  502  0.00000000000E+00 -0.00000000000E+00 -0.31965663552E+03  0.31965663552E+03  0.00000000000E+00 0. -1.
         23    2    1    2    0    0 -0.16819439259E+02  0.32254062645E+02  0.50405951745E+02  0.11083999474E+03  0.91768874730E+02 0.  0.
         23    2    1    2    0    0 -0.65085324541E+02 -0.53523326572E+01 -0.18626860578E+02  0.11349638435E+03  0.90938013998E+02 0.  0.
        -11    1    3    3    0    0  0.11906919375E+02  0.49179844759E+02  0.23604735637E+00  0.50601260635E+02  0.00000000000E+00 0.  1.
         11    1    3    3    0    0 -0.28726358634E+02 -0.16925782114E+02  0.50169904389E+02  0.60238734108E+02  0.00000000000E+00 0. -1.
        -13    1    4    4    0    0  0.13696812548E+02  0.16859662101E+02 -0.22858571294E+02  0.31533556122E+02  0.00000000000E+00 0.  1.
         13    1    4    4    0    0 -0.78782137089E+02 -0.22211994758E+02  0.42317107153E+01  0.81962828227E+02  0.00000000000E+00 0. -1.
         21    1    1    2  503  502 -0.18940079478E+01 -0.22165219285E+02 -0.38763113115E+02  0.44692987710E+02  0.00000000000E+00 0. -1.
          1    1    1    2  501    0  0.83798771748E+02 -0.47365107020E+01 -0.17195455034E+03  0.19134533196E+03  0.00000000000E+00 0. -1.
<scales pt_clust_5="13000.00000" pt_clust_6="13000.00000" pt_clust_7="13000.00000" pt_clust_8="13000.00000" pt_clust_9="22.24599" pt_clust_10="84.76931"></scales>
<clustering>
<clus scale="   22.246">  2  9  1 -1</clus>
<clus scale="   84.769">  2 10  1 -1</clus>
<clus scale="   90.938">  7  8 -1 -1</clus>
<clus scale="   91.769">  5  6 -1 -1</clus>
<clus scale="   94.423">  2  7  1 -1</clus>
<clus scale="   22.246">  2  5  1 -1</clus>
</clustering>
</event>
<event>
10    2  0.2421970E-006  0.9166716E+02  0.7546771E-02  0.1300216E+00
         21   -1    0    0  501  502  0.00000000000E+00  0.00000000000E+00  0.10426537656E+03  0.10426537656E+03  0.00000000000E+00 0.  1.
          1   -1    0    0  503    0 -0.00000000000E+00 -0.00000000000E+00 -0.23748052149E+03  0.23748052149E+03  0.00000000000E+00 0. -1.
         23    2    1    2    0    0 -0.58637708234E+00 -0.12104377798E+02 -0.14670770890E+03  0.17340842023E+03  0.91654070047E+02 0.  0.
         23    2    1    2    0    0 -0.57524921466E+01 -0.27154246252E+02 -0.31315549718E+02  0.98705621622E+02  0.89396262954E+02 0.  0.
        -11    1    4    4    0    0 -0.66524029473E+01  0.25293760760E+02  0.13751638892E+02  0.29548881037E+02  0.00000000000E+00 0.  1.
         11    1    4    4    0    0  0.89991080068E+00 -0.52448007012E+02 -0.45067188610E+02  0.69156740584E+02  0.00000000000E+00 0. -1.
        -11    1    3    3    0    0 -0.39130543898E+02 -0.10897893181E+02 -0.30007105623E+02  0.50501385420E+02  0.00000000000E+00 0.  1.
         11    1    3    3    0    0  0.38544166815E+02 -0.12064846174E+01 -0.11670060328E+03  0.12290703481E+03  0.00000000000E+00 0. -1.
         21    1    1    2  503  502 -0.90049248901E+01  0.25014257720E+02  0.88451598346E+01  0.28018540542E+02  0.00000000000E+00 0.  1.
          1    1    1    2  501    0  0.15343794119E+02  0.14244366330E+02  0.35962953855E+02  0.41613315658E+02  0.00000000000E+00 0. -1.
<scales pt_clust_5="13000.00000" pt_clust_6="13000.00000" pt_clust_7="13000.00000" pt_clust_8="13000.00000" pt_clust_9="29.39984" pt_clust_10="20.93643"></scales>
<clustering>
<clus scale="   20.936">  1 10  2 -1</clus>
<clus scale="   29.400">  1  9  2 -1</clus>
<clus scale="   89.396">  5  6 -1 -1</clus>
<clus scale="   89.410">  1  5  2 -1</clus>
<clus scale="   91.654">  7  8 -1 -1</clus>
<clus scale="   20.936">  1  5  2 -1</clus>
</clustering>
</event>
<event>
10    2  0.2421970E-006  0.2004694E+03  0.7546771E-02  0.1149740E+00
         21   -1    0    0  501  502  0.00000000000E+00  0.00000000000E+00  0.10857438754E+04  0.10857438754E+04  0.00000000000E+00 0. -1.
          3   -1    0    0  503    0 -0.00000000000E+00 -0.00000000000E+00 -0.59950394313E+02  0.59950394313E+02  0.00000000000E+00 0. -1.
         23    2    1    2    0    0 -0.17105897820E+03 -0.74434929739E+02  0.33817900451E+03  0.39327085366E+03  0.74129565332E+02 0.  0.
         23    2    1    2    0    0  0.18620815122E+03 -0.42911817205E+01  0.56085259052E+03  0.59623022844E+03  0.79012449563E+02 0.  0.
        -11    1    4    4    0    0  0.72792741005E+02  0.36644496636E+02  0.21176862360E+03  0.22690868696E+03  0.00000000000E+00 0.  1.
         11    1    4    4    0    0  0.11341541022E+03 -0.40935678357E+02  0.34908396692E+03  0.36932154147E+03  0.00000000000E+00 0. -1.
        -13    1    3    3    0    0 -0.88063238948E+00 -0.22744923495E+02  0.42911277788E+02  0.48574528507E+02  0.00000000000E+00 0.  1.
         13    1    3    3    0    0 -0.17017834581E+03 -0.51690006244E+02  0.29526772672E+03  0.34469632515E+03  0.00000000000E+00 0. -1.
         21    1    1    2  503  502 -0.20107120859E+02  0.37201622544E+02  0.33379409904E+02  0.53874317023E+02  0.00000000000E+00 0. -1.
          3    1    1    2  501    0  0.49579478398E+01  0.41524488916E+02  0.93382476113E+02  0.10231887055E+03  0.00000000000E+00 0. -1.
<scales pt_clust_5="13000.00000" pt_clust_6="13000.00000" pt_clust_7="13000.00000" pt_clust_8="13000.00000" pt_clust_9="43.80984" pt_clust_10="41.81943"></scales>
<clustering>
<clus scale="   41.819">  1 10  2 -1</clus>
<clus scale="   43.810">  2  9  1 -1</clus>
<clus scale="   74.130">  7  8 -1 -1</clus>
<clus scale="   79.012">  5  6 -1 -1</clus>
<clus scale="  198.596">  2  7  1 -1</clus>
<clus scale="   41.819">  1  5  2 -1</clus>
</clustering>
</event>
<event>
10    2  0.2421970E-006  0.2009342E+03  0.7546771E-02  0.1149096E+00
          2   -1    0    0  503    0 -0.00000000000E+00  0.00000000000E+00  0.53396559765E+03  0.53396559765E+03  0.00000000000E+00 0. -1.
         21   -1    0    0  501  502  0.00000000000E+00 -0.00000000000E+00 -0.19117460840E+03  0.19117460840E+03  0.00000000000E+00 0. -1.
         23    2    1    2    0    0  0.17600657754E+03  0.84121601068E+02  0.35285243013E+03  0.41346181797E+03  0.91602829459E+02 0.  0.
         23    2    1    2    0    0 -0.11811374463E+03 -0.13745647842E+03  0.21499658565E+01  0.20375094931E+03  0.93084299754E+02 0.  0.
        -11    1    4    4    0    0 -0.86217977641E+02 -0.14475385081E+03 -0.10162175649E+02  0.16879125217E+03  0.00000000000E+00 0. -1.
         11    1    4    4    0    0 -0.31895766989E+02  0.72973723961E+01  0.12312141505E+02  0.34959697141E+02  0.00000000000E+00 0.  1.
        -11    1    3    3    0    0  0.28920732938E+02 -0.18876238551E+02  0.40990732107E+02  0.53600012073E+02  0.00000000000E+00 0.  1.
         11    1    3    3    0    0  0.14708584460E+03  0.10299783962E+03  0.31186169802E+03  0.35986180590E+03  0.00000000000E+00 0. -1.
         21    1    1    2  503  502 -0.20175674676E+02 -0.66244419196E+01  0.20846425569E+02  0.29757596314E+02  0.00000000000E+00 0.  1.
          2    1    1    2  501    0 -0.37717158234E+02  0.59959319271E+02 -0.33057832309E+02  0.78169842456E+02  0.00000000000E+00 0. -1.
<scales pt_clust_5="13000.00000" pt_clust_6="13000.00000" pt_clust_7="13000.00000" pt_clust_8="13000.00000" pt_clust_9="21.23537" pt_clust_10="71.06935"></scales>
<clustering>
<clus scale="   21.235">  1  9  2 -1</clus>
<clus scale="   71.069">  2 10  1 -1</clus>
<clus scale="   91.603">  7  8 -1 -1</clus>
<clus scale="   93.084">  5  6 -1 -1</clus>
<clus scale="  200.252">  1  7  2 -1</clus>
<clus scale="   71.069">  2  5  1 -1</clus>
</clustering>
</event>
<event>
10    2  0.2421970E-006  0.2927050E+03  0.7546771E-02  0.1114659E+00
         21   -1    0    0  503  502  0.00000000000E+00  0.00000000000E+00  0.77624562246E+02  0.77624562246E+02  0.00000000000E+00 0. -1.
          2   -1    0    0  502    0 -0.00000000000E+00 -0.00000000000E+00 -0.18905827378E+04  0.18905827378E+04  0.00000000000E+00 0. -1.
         23    2    1    2    0    0  0.11875884020E+03  0.11151862684E+02 -0.51166176573E+03  0.53334247428E+03  0.91806351583E+02 0.  0.
         23    2    1    2    0    0 -0.32357813580E+03 -0.13566215833E+03 -0.83265431561E+03  0.90776858040E+03  0.87312972065E+02 0.  0.
        -11    1    4    4    0    0 -0.30133237458E+02 -0.44416880682E+02 -0.14322180644E+03  0.15294887096E+03  0.00000000000E+00 0.  1.
         11    1    4    4    0    0 -0.29344489834E+03 -0.91245277648E+02 -0.68943250917E+03  0.75481970944E+03  0.00000000000E+00 0. -1.
        -11    1    3    3    0    0  0.92398181155E+02 -0.32043301310E+02 -0.29255827422E+03  0.30847129665E+03  0.00000000000E+00 0.  1.
         11    1    3    3    0    0  0.26360659049E+02  0.43195163994E+02 -0.21910349151E+03  0.22487117763E+03  0.00000000000E+00 0. -1.
         21    1    1    2  503  501  0.96244049558E+02  0.61562312384E+02 -0.19409818457E+03  0.22522642081E+03  0.00000000000E+00 0. -1.
          2    1    1    2  501    0  0.10857524604E+03  0.62947983262E+02 -0.27454390963E+03  0.30186982453E+03  0.00000000000E+00 0. -1.
<scales pt_clust_5="13000.00000" pt_clust_6="13000.00000" pt_clust_7="13000.00000" pt_clust_8="13000.00000" pt_clust_9="26.15173" pt_clust_10="280.72036"></scales>
<clustering>
<clus scale="   26.152">  9 10 -1 -1</clus>
<clus scale="   87.313">  5  6 -1 -1</clus>
<clus scale="   91.806">  7  8 -1 -1</clus>
<clus scale="  150.521">  2  7  1 -1</clus>
<clus scale="  280.720">  1  9  2 -1</clus>
<clus scale="  280.720">  1  5  2 -1</clus>
</clustering>
</event>
<event>
10    2  0.2421970E-006  0.1099079E+03  0.7546771E-02  0.1261146E+00
          2   -1    0    0  503    0 -0.00000000000E+00  0.00000000000E+00  0.54740376765E+03  0.54740376765E+03  0.00000000000E+00 0. -1.
         21   -1    0    0  501  502  0.00000000000E+00 -0.00000000000E+00 -0.50252962031E+02  0.50252962031E+02  0.00000000000E+00 0.  1.
         23    2    1    2    0    0  0.58573823431E+02  0.43181488161E+02  0.28429854681E+03  0.30798614503E+03  0.93457306304E+02 0.  0.
         23    2    1    2    0    0 -0.15188443634E+02 -0.40683181451E+02  0.20634019507E+03  0.23105599510E+03  0.94471089218E+02 0.  0.
        -11    1    4    4    0    0  0.22080174350E+02 -0.44304077019E+02  0.50247786993E+02  0.70535277964E+02  0.00000000000E+00 0.  1.
         11    1    4    4    0    0 -0.37268617984E+02  0.36208955671E+01  0.15609240807E+03  0.16052071714E+03  0.00000000000E+00 0. -1.
        -11    1    3    3    0    0 -0.97269911614E+01 -0.21987004168E+02  0.58413669650E+02  0.63168026020E+02  0.00000000000E+00 0. -1.
         11    1    3    3    0    0  0.68300814592E+02  0.65168492329E+02  0.22588487716E+03  0.24481811901E+03  0.00000000000E+00 0.  1.
         21    1    1    2  503  502 -0.30956652710E+02 -0.19742537317E+02  0.68784069548E+01  0.37354981046E+02  0.00000000000E+00 0. -1.
          2    1    1    2  501    0 -0.12428727087E+02  0.17244230607E+02 -0.36634321646E+00  0.21259608500E+02  0.00000000000E+00 0. -1.
<scales pt_clust_5="13000.00000" pt_clust_6="13000.00000" pt_clust_7="13000.00000" pt_clust_8="13000.00000" pt_clust_9="38.07584" pt_clust_10="21.25645"></scales>
<clustering>
<clus scale="   21.256">  2 10  1 -1</clus>
<clus scale="   38.076">  2  9  1 -1</clus>
<clus scale="   93.457">  7  8 -1 -1</clus>
<clus scale="   94.471">  5  6 -1 -1</clus>
<clus scale="  109.038">  1  7  2 -1</clus>
<clus scale="   21.256">  2  5  1 -1</clus>
</clustering>
</event>
<event>
10    2  0.2714549E-006  0.1094916E+03  0.7546771E-02  0.1262053E+00
         21   -1    0    0  501  502  0.00000000000E+00  0.00000000000E+00  0.16336120586E+03  0.16336120586E+03  0.00000000000E+00 0.  1.
          2   -1    0    0  503    0 -0.00000000000E+00 -0.00000000000E+00 -0.71211078910E+03  0.71211078910E+03  0.00000000000E+00 0. -1.
         23    2    1    2    0    0 -0.55802869847E+02  0.11134163039E+02 -0.55286956520E+03  0.56306277977E+03  0.90205365503E+02 0.  0.
         23    2    1    2    0    0  0.85119820393E+02  0.24431284357E+02 -0.86923381713E+02  0.15422540475E+03  0.91583457577E+02 0.  0.
        -13    1    3    3    0    0 -0.52858400197E+02 -0.32951211656E+02 -0.30708806354E+03  0.31334146165E+03  0.00000000000E+00 0. -1.
         13    1    3    3    0    0 -0.29444696495E+01  0.44085374695E+02 -0.24578150167E+03  0.24972131813E+03  0.00000000000E+00 0.  1.
        -13    1    4    4    0    0  0.78352367630E+02  0.53621356390E+02 -0.78241359927E+02  0.12302867055E+03  0.00000000000E+00 0.  1.
         13    1    4    4    0    0  0.67674527632E+01 -0.29190072033E+02 -0.86820217868E+01  0.31196734196E+02  0.00000000000E+00 0. -1.
         21    1    1    2  503  502  0.47030988511E+01  0.26730315259E+02 -0.14669946953E+02  0.30851843320E+02  0.00000000000E+00 0.  1.
          2    1    1    2  501    0 -0.34020049397E+02 -0.62295762654E+02  0.10571331063E+03  0.12733196712E+03  0.00000000000E+00 0. -1.
<scales pt_clust_5="13000.00000" pt_clust_6="13000.00000" pt_clust_7="13000.00000" pt_clust_8="13000.00000" pt_clust_9="27.14091" pt_clust_10="52.09180"></scales>
<clustering>
<clus scale="   27.141">  1  9  2 -1</clus>
<clus scale="   52.092">  1 10  2 -1</clus>
<clus scale="   90.205">  5  6 -1 -1</clus>
<clus scale="   91.583">  7  8 -1 -1</clus>
<clus scale="  108.342">  2  5  1 -1</clus>
<clus scale="   27.141">  1  5  2 -1</clus>
</clustering>
</event>
<event>
10    2  0.2421970E-006  0.9027748E+02  0.7546771E-02  0.1302295E+00
          2   -1    0    0  502    0 -0.00000000000E+00  0.00000000000E+00  0.33744691756E+03  0.33744691756E+03  0.00000000000E+00 0. -1.
         21   -1    0    0  503  502  0.00000000000E+00 -0.00000000000E+00 -0.63254587949E+02  0.63254587949E+02  0.00000000000E+00 0. -1.
         23    2    1    2    0    0 -0.25316860362E+02  0.17531987299E+02  0.14594516059E+03  0.17327943429E+03  0.88189899924E+02 0.  0.
         23    2    1    2    0    0  0.63837024887E+01  0.37600110777E+02  0.13187954120E+03  0.16327363719E+03  0.88382957782E+02 0.  0.
        -11    1    4    4    0    0 -0.29315850359E+02 -0.14769723800E+02  0.42431637540E+02  0.53647065975E+02  0.00000000000E+00 0.  1.
         11    1    4    4    0    0  0.35699552848E+02  0.52369834578E+02  0.89447903663E+02  0.10962657122E+03  0.00000000000E+00 0. -1.
        -13    1    3    3    0    0  0.32896992110E+02  0.13597460469E+01  0.48345501277E+02  0.58492294303E+02  0.00000000000E+00 0.  1.
         13    1    3    3    0    0 -0.58213852472E+02  0.16172241252E+02  0.97599659318E+02  0.11478713998E+03  0.00000000000E+00 0. -1.
         21    1    1    2  503  501  0.19195883699E+02 -0.20144114880E+02  0.46018161939E+01  0.28203617278E+02  0.00000000000E+00 0. -1.
          2    1    1    2  501    0 -0.26272582516E+00 -0.34987983197E+02 -0.82341883797E+01  0.35944816751E+02  0.00000000000E+00 0. -1.
<scales pt_clust_5="13000.00000" pt_clust_6="13000.00000" pt_clust_7="13000.00000" pt_clust_8="13000.00000" pt_clust_9="23.65845" pt_clust_10="64.04551"></scales>
<clustering>
<clus scale="   23.658">  9 10 -1 -1</clus>
<clus scale="   64.046">  2  9  1 -1</clus>
<clus scale="   88.190">  7  8 -1 -1</clus>
<clus scale="   88.383">  5  6 -1 -1</clus>
<clus scale="   90.088">  1  7  2 -1</clus>
<clus scale="   64.046">  2  5  1 -1</clus>
</clustering>
</event>
<event>
10    2  0.2421970E-006  0.1956250E+03  0.7546771E-02  0.1153497E+00
          1   -1    0    0  503    0 -0.00000000000E+00  0.00000000000E+00  0.14921760045E+04  0.14921760045E+04  0.00000000000E+00 0. -1.
         21   -1    0    0  501  502  0.00000000000E+00 -0.00000000000E+00 -0.59523772556E+02  0.59523772556E+02  0.00000000000E+00 0.  1.
         23    2    1    2    0    0  0.31311343952E+01 -0.18488771787E+03  0.86282539030E+03  0.88709834425E+03  0.91008494196E+02 0.  0.
         23    2    1    2    0    0  0.48484734724E+02  0.15520033751E+03  0.53131051271E+03  0.56305904973E+03  0.91141199841E+02 0.  0.
        -11    1    4    4    0    0 -0.21486288087E+02  0.80484316980E+01  0.52884964864E+02  0.57647700190E+02  0.00000000000E+00 0.  1.
         11    1    4    4    0    0  0.69971022811E+02  0.14715190581E+03  0.47842554785E+03  0.50541134954E+03  0.00000000000E+00 0. -1.
        -13    1    3    3    0    0  0.43542861799E+02 -0.93471800333E+02  0.51371817417E+03  0.52396499954E+03  0.00000000000E+00 0. -1.
         13    1    3    3    0    0 -0.40411727404E+02 -0.91415917539E+02  0.34910721612E+03  0.36313334471E+03  0.00000000000E+00 0.  1.
         21    1    1    2  503  502 -0.51302417437E+02  0.50370528674E+02  0.22354579798E+02  0.75291801889E+02  0.00000000000E+00 0.  1.
          1    1    1    2  501    0 -0.31345168268E+00 -0.20683148312E+02  0.16161749099E+02  0.26250581136E+02  0.00000000000E+00 0. -1.
<scales pt_clust_5="13000.00000" pt_clust_6="13000.00000" pt_clust_7="13000.00000" pt_clust_8="13000.00000" pt_clust_9="65.37144" pt_clust_10="20.68552"></scales>
<clustering>
<clus scale="   20.686">  2 10  1 -1</clus>
<clus scale="   65.371">  2  9  1 -1</clus>
<clus scale="   91.008">  7  8 -1 -1</clus>
<clus scale="   91.141">  5  6 -1 -1</clus>
<clus scale="  195.563">  1  7  2 -1</clus>
<clus scale="   20.686">  2  5  1 -1</clus>
</clustering>
</event>
<event>
10    2  0.2421970E-006  0.1045083E+03  0.7546771E-02  0.1271122E+00
         21   -1    0    0  501  502  0.00000000000E+00  0.00000000000E+00  0.16578705300E+03  0.16578705300E+03  0.00000000000E+00 0. -1.
          3   -1    0    0  503    0 -0.00000000000E+00 -0.00000000000E+00 -0.63814903463E+03  0.63814903463E+03  0.00000000000E+00 0. -1.
         23    2    1    2    0    0  0.66799748203E+01 -0.56674312462E+02 -0.56912278520E+03  0.57920383596E+03  0.91212604382E+02 0.  0.
         23    2    1    2    0    0 -0.11682969084E+02  0.21906716305E+01 -0.14201273337E+02  0.93003767081E+02  0.91141284378E+02 0.  0.
        -11    1    3    3    0    0 -0.17618307390E+02 -0.75055504922E+02 -0.40166638761E+03  0.40899831358E+03  0.00000000000E+00 0. -1.
         11    1    3    3    0    0  0.24298282211E+02  0.18381192460E+02 -0.16745639759E+03  0.17020552238E+03  0.00000000000E+00 0.  1.
        -11    1    4    4    0    0  0.30052426360E+02 -0.16925389151E+02  0.16034575466E+02  0.38035834925E+02  0.00000000000E+00 0. -1.
         11    1    4    4    0    0 -0.41735395444E+02  0.19116060781E+02 -0.30235848804E+02  0.54967932156E+02  0.00000000000E+00 0.  1.
         21    1    1    2  503  502  0.24880990376E+02  0.29140423110E+02  0.52723300951E+02  0.65176486591E+02  0.00000000000E+00 0.  1.
          3    1    1    2  501    0 -0.19877996113E+02  0.25343217721E+02  0.58238775951E+02  0.66551998003E+02  0.00000000000E+00 0. -1.
<scales pt_clust_5="13000.00000" pt_clust_6="13000.00000" pt_clust_7="13000.00000" pt_clust_8="13000.00000" pt_clust_9="45.64680" pt_clust_10="32.20890"></scales>
<clustering>
<clus scale="   32.209">  1 10  2 -1</clus>
<clus scale="   45.647">  1  9  2 -1</clus>
<clus scale="   91.141">  7  8 -1 -1</clus>
<clus scale="   91.213">  5  6 -1 -1</clus>
<clus scale="  104.446">  1  7  2 -1</clus>
<clus scale="   32.209">  1  5  2 -1</clus>
</clustering>
</event>
<event>
10    2  0.2421970E-006  0.1118260E+03  0.7546771E-02  0.1261456E+00
         -1   -1    0    0    0  501 -0.00000000000E+00  0.00000000000E+00  0.98305687654E+02  0.98305687654E+02  0.00000000000E+00 0.  1.
         21   -1    0    0  501  502  0.00000000000E+00 -0.00000000000E+00 -0.69225471922E+03  0.69225471922E+03  0.00000000000E+00 0.  1.
         23    2    1    2    0    0 -0.83338895290E+01  0.44466249784E+02  0.15217157027E+02  0.11194438259E+03  0.10125849022E+03 0.  0.
         23    2    1    2    0    0  0.75779089253E+02 -0.22878567718E+02 -0.82903592240E+02  0.14654083223E+03  0.91297922625E+02 0.  0.
        -11    1    3    3    0    0  0.33714854701E+02  0.65561829623E+01  0.37725991779E+02  0.51018873157E+02  0.00000000000E+00 0.  1.
         11    1    3    3    0    0 -0.42048744230E+02  0.37910066822E+02 -0.22508834752E+02  0.60925509433E+02  0.00000000000E+00 0. -1.
        -13    1    4    4    0    0  0.94426712599E+02 -0.44393031142E+01 -0.67062553045E+02  0.11590296582E+03  0.00000000000E+00 0.  1.
         13    1    4    4    0    0 -0.18647623346E+02 -0.18439264604E+02 -0.15841039195E+02  0.30637866413E+02  0.00000000000E+00 0. -1.
         21    1    1    2  503  502 -0.48124189682E+02  0.17047568774E+01 -0.31799407689E+03  0.32161945956E+03  0.00000000000E+00 0.  1.
         -1    1    1    2    0  503 -0.19321010042E+02 -0.23292438943E+02 -0.20826851947E+03  0.21045573250E+03  0.00000000000E+00 0.  1.
<scales pt_clust_5="13000.00000" pt_clust_6="13000.00000" pt_clust_7="13000.00000" pt_clust_8="13000.00000" pt_clust_9="26.72885" pt_clust_10="78.43271"></scales>
<clustering>
<clus scale="   26.729">  9 10 -1 -1</clus>
<clus scale="   78.433">  2  9  1 -1</clus>
<clus scale="   91.298">  7  8 -1 -1</clus>
<clus scale="  101.258">  5  6 -1 -1</clus>
<clus scale="  102.894">  2  7  1 -1</clus>
<clus scale="   78.433">  2  5  1 -1</clus>
</clustering>
</event>
<event>
10    2  0.2421970E-006  0.1522725E+03  0.7546771E-02  0.1197856E+00
         21   -1    0    0  503  502  0.00000000000E+00  0.00000000000E+00  0.81694631104E+03  0.81694631104E+03  0.00000000000E+00 0. -1.
          1   -1    0    0  502    0 -0.00000000000E+00 -0.00000000000E+00 -0.51757871314E+02  0.51757871314E+02  0.00000000000E+00 0. -1.
         23    2    1    2    0    0 -0.98494266111E+02 -0.46096351683E+01  0.20043799482E+03  0.24132669014E+03  0.91328048331E+02 0.  0.
         23    2    1    2    0    0  0.16932746303E+03  0.95515945452E+00  0.44892964983E+03  0.48857002684E+03  0.92141947906E+02 0.  0.
        -11    1    4    4    0    0  0.35675741427E+02 -0.30592802968E+02  0.18711549938E+03  0.19292715783E+03  0.00000000000E+00 0.  1.
         11    1    4    4    0    0  0.13365172161E+03  0.31547962423E+02  0.26181415045E+03  0.29564286901E+03  0.00000000000E+00 0. -1.
        -11    1    3    3    0    0 -0.74535231444E+02 -0.43507678939E+02  0.15165099802E+03  0.17448909437E+03  0.00000000000E+00 0.  1.
         11    1    3    3    0    0 -0.23959034667E+02  0.38898043771E+02  0.48786996799E+02  0.66837595768E+02  0.00000000000E+00 0. -1.
         21    1    1    2  503  501 -0.26574908323E+02  0.12700778388E+02  0.61260822615E+02  0.67973700145E+02  0.00000000000E+00 0. -1.
          1    1    1    2  501    0 -0.44258288599E+02 -0.90463026740E+01  0.54559972465E+02  0.70833765234E+02  0.00000000000E+00 0. -1.
<scales pt_clust_5="13000.00000" pt_clust_6="13000.00000" pt_clust_7="13000.00000" pt_clust_8="13000.00000" pt_clust_9="23.15588" pt_clust_10="76.50531"></scales>
<clustering>
<clus scale="   23.156">  9 10 -1 -1</clus>
<clus scale="   76.505">  1  9  2 -1</clus>
<clus scale="   91.328">  7  8 -1 -1</clus>
<clus scale="   92.142">  5  6 -1 -1</clus>
<clus scale="  151.781">  2  7  1 -1</clus>
<clus scale="   76.505">  1  5  2 -1</clus>
</clustering>
</event>
<event>
10    2  0.2421970E-006  0.1073816E+03  0.7546771E-02  0.1273897E+00
         21   -1    0    0  503  502  0.00000000000E+00  0.00000000000E+00  0.78778326846E+02  0.78778326846E+02  0.00000000000E+00 0. -1.
          1   -1    0    0  502    0 -0.00000000000E+00 -0.00000000000E+00 -0.72700798810E+03  0.72700798810E+03  0.00000000000E+00 0. -1.
         23    2    1    2    0    0  0.49557824694E+02  0.37189006514E+02 -0.48544642672E+03  0.49881926385E+03  0.96557882042E+02 0.  0.
         23    2    1    2    0    0 -0.37959352439E+02  0.14261482054E+02 -0.21244568550E+03  0.23000188042E+03  0.78252114366E+02 0.  0.
        -11    1    3    3    0    0  0.75497002521E+02  0.86811498887E+01 -0.30824841815E+03  0.31747794733E+03  0.00000000000E+00 0. -1.
         11    1    3    3    0    0 -0.25939177827E+02  0.28507856626E+02 -0.17719800857E+03  0.18134131652E+03  0.00000000000E+00 0.  1.
        -11    1    4    4    0    0 -0.35219276898E+02  0.40002592560E+02 -0.87912719668E+02  0.10280686337E+03  0.00000000000E+00 0. -1.
         11    1    4    4    0    0 -0.27400755406E+01 -0.25741110506E+02 -0.12453296583E+03  0.12719501705E+03  0.00000000000E+00 0.  1.
         21    1    1    2  503  501 -0.71221585450E+01 -0.28048359317E+02  0.98523139471E+01  0.30569653135E+02  0.00000000000E+00 0. -1.
          1    1    1    2  501    0 -0.44763137103E+01 -0.23402129251E+02  0.39810137017E+02  0.46395517534E+02  0.00000000000E+00 0. -1.
<scales pt_clust_5="13000.00000" pt_clust_6="13000.00000" pt_clust_7="13000.00000" pt_clust_8="13000.00000" pt_clust_9="23.58503" pt_clust_10="58.79863"></scales>
<clustering>
<clus scale="   23.585">  9 10 -1 -1</clus>
<clus scale="   58.799">  1  9  2 -1</clus>
<clus scale="   78.252">  7  8 -1 -1</clus>
<clus scale="   91.273">  1  7  2 -1</clus>
<clus scale="   96.558">  5  6 -1 -1</clus>
<clus scale="   58.799">  1  5  2 -1</clus>
</clustering>
</event>
<event>
10    2  0.2421970E-006  0.1487468E+03  0.7546771E-02  0.1222286E+00
         21   -1    0    0  501  502  0.00000000000E+00  0.00000000000E+00  0.14630183589E+03  0.14630183589E+03  0.00000000000E+00 0. -1.
          3   -1    0    0  503    0 -0.00000000000E+00 -0.00000000000E+00 -0.45944397813E+03  0.45944397813E+03  0.00000000000E+00 0. -1.
         23    2    1    2    0    0 -0.55711927842E+01  0.16009303966E+02 -0.90517196413E+02  0.13218951800E+03  0.94833379255E+02 0.  0.
         23    2    1    2    0    0 -0.14237256875E+02 -0.12540097928E+03 -0.26477479555E+03  0.30764226334E+03  0.92789895711E+02 0.  0.
        -11    1    3    3    0    0  0.18355621250E+02  0.19628865176E+02  0.10095312224E+02  0.28707777839E+02  0.00000000000E+00 0.  1.
         11    1    3    3    0    0 -0.23926814034E+02 -0.36195612106E+01 -0.10061250864E+03  0.10348174016E+03  0.00000000000E+00 0. -1.
        -13    1    4    4    0    0 -0.28705017974E+02  0.12993983792E+01 -0.57502675491E+02  0.64282378469E+02  0.00000000000E+00 0.  1.
         13    1    4    4    0    0  0.14467761099E+02 -0.12670037766E+03 -0.20727212006E+03  0.24335988487E+03  0.00000000000E+00 0. -1.
         21    1    1    2  503  502 -0.31196197807E+02 -0.35681340603E+01 -0.76896651943E+01  0.32327469574E+02  0.00000000000E+00 0.  1.
          3    1    1    2  501    0  0.51004647466E+02  0.11295980937E+03  0.49839514909E+02  0.13358656311E+03  0.00000000000E+00 0. -1.
<scales pt_clust_5="13000.00000" pt_clust_6="13000.00000" pt_clust_7="13000.00000" pt_clust_8="13000.00000" pt_clust_9="31.39959" pt_clust_10="116.25675"></scales>
<clustering>
<clus scale="   31.400">  1  9  2 -1</clus>
<clus scale="   92.790">  7  8 -1 -1</clus>
<clus scale="   94.833">  5  6 -1 -1</clus>
<clus scale="   96.648">  2  5  1 -1</clus>
<clus scale="  116.257">  1 10  2 -1</clus>
<clus scale="   31.400">  1  5  2 -1</clus>
</clustering>
</event>
<event>
10    2  0.2421970E-006  0.9580418E+02  0.7546771E-02  0.1289532E+00
         21   -1    0    0  501  502  0.00000000000E+00  0.00000000000E+00  0.53859763490E+02  0.53859763490E+02  0.00000000000E+00 0. -1.
          1   -1    0    0  503    0 -0.00000000000E+00 -0.00000000000E+00 -0.63120536335E+03  0.63120536335E+03  0.00000000000E+00 0. -1.
         23    2    1    2    0    0 -0.62449219159E+01  0.36935893955E+02 -0.37376786592E+03  0.38653463990E+03  0.91122724587E+02 0.  0.
         23    2    1    2    0    0 -0.30814724956E+01 -0.99806156182E+01 -0.11166550774E+03  0.14431842088E+03  0.90826828775E+02 0.  0.
        -11    1    4    4    0    0  0.26932829818E+02  0.14140383311E+02 -0.48870064931E+01  0.30809261507E+02  0.00000000000E+00 0. -1.
         11    1    4    4    0    0 -0.30014302313E+02 -0.24120998929E+02 -0.10677850125E+03  0.11350915937E+03  0.00000000000E+00 0.  1.
        -13    1    3    3    0    0 -0.17936788288E+02  0.65267262628E+02 -0.26800561814E+03  0.27642097478E+03  0.00000000000E+00 0. -1.
         13    1    3    3    0    0  0.11691866372E+02 -0.28331368673E+02 -0.10576224778E+03  0.11011366512E+03  0.00000000000E+00 0.  1.
         21    1    1    2  503  502  0.54336870040E+02  0.20292766023E+02 -0.35898243339E+02  0.68212723692E+02  0.00000000000E+00 0. -1.
          1    1    1    2  501    0 -0.45010475629E+02 -0.47248044359E+02 -0.56013982864E+02  0.85999342372E+02  0.00000000000E+00 0. -1.
<scales pt_clust_5="13000.00000" pt_clust_6="13000.00000" pt_clust_7="13000.00000" pt_clust_8="13000.00000" pt_clust_9="58.00252" pt_clust_10="45.63612"></scales>
<clustering>
<clus scale="   58.003">  1  9  2 -1</clus>
<clus scale="   45.636">  1 10  2 -1</clus>
<clus scale="   90.827">  5  6 -1 -1</clus>
<clus scale="   91.123">  7  8 -1 -1</clus>
<clus scale="   95.523">  1  5  2 -1</clus>
<clus scale="   58.003">  1  5  2 -1</clus>
</clustering>
</event>
<event>
10    2  0.2421970E-006  0.1414888E+03  0.7546771E-02  0.1211480E+00
         21   -1    0    0  501  502  0.00000000000E+00  0.00000000000E+00  0.19435234941E+03  0.19435234941E+03  0.00000000000E+00 0.  1.
          1   -1    0    0  503    0 -0.00000000000E+00 -0.00000000000E+00 -0.33042174462E+03  0.33042174462E+03  0.00000000000E+00 0. -1.
         23    2    1    2    0    0  0.10271364593E+03 -0.13349101183E+02 -0.13157399242E+03  0.18976325146E+03  0.89275330078E+02 0.  0.
         23    2    1    2    0    0 -0.11444394506E+03  0.26187125602E+02 -0.12179243859E+03  0.19096312566E+03  0.88602117113E+02 0.  0.
        -11    1    3    3    0    0 -0.81819260015E+01 -0.18715294143E+02 -0.43463491523E+02  0.48023757073E+02  0.00000000000E+00 0. -1.
         11    1    3    3    0    0  0.11089557193E+03  0.53661929606E+01 -0.88110500900E+02  0.14173949439E+03  0.00000000000E+00 0.  1.
        -13    1    4    4    0    0 -0.83499070026E+02 -0.23368943072E+02 -0.57237713042E+02  0.10389589977E+03  0.00000000000E+00 0.  1.
         13    1    4    4    0    0 -0.30944875034E+02  0.49556068674E+02 -0.64554725552E+02  0.87067225891E+02  0.00000000000E+00 0. -1.
         21    1    1    2  503  502 -0.21786582263E+01 -0.35218102116E+02  0.11165842072E+03  0.11710108534E+03  0.00000000000E+00 0.  1.
          1    1    1    2  501    0  0.13908957355E+02  0.22380077697E+02  0.56386150873E+01  0.26946631562E+02  0.00000000000E+00 0. -1.
<scales pt_clust_5="13000.00000" pt_clust_6="13000.00000" pt_clust_7="13000.00000" pt_clust_8="13000.00000" pt_clust_9="21.90952" pt_clust_10="26.35008"></scales>
<clustering>
<clus scale="   26.350">  1 10  2 -1</clus>
<clus scale="   21.910">  1  9  2 -1</clus>
<clus scale="   88.602">  7  8 -1 -1</clus>
<clus scale="   89.275">  5  6 -1 -1</clus>
<clus scale="  141.065">  1  7  2 -1</clus>
<clus scale="   26.350">  1  5  2 -1</clus>
</clustering>
</event>
<event>
10    2  0.2421970E-006  0.1352034E+03  0.7546771E-02  0.1228125E+00
         21   -1    0    0  503  502  0.00000000000E+00  0.00000000000E+00  0.77874580662E+02  0.77874580662E+02  0.00000000000E+00 0. -1.
          2   -1    0    0  502    0 -0.00000000000E+00 -0.00000000000E+00 -0.76476932160E+03  0.76476932160E+03  0.00000000000E+00 0. -1.
         23    2    1    2    0    0  0.66018652154E+02 -0.22211928284E+02 -0.51211057073E+03  0.52463922852E+03  0.90206714035E+02 0.  0.
         23    2    1    2    0    0  0.19675382766E+02 -0.85255823185E+02 -0.69241124055E+02  0.13962888057E+03  0.83941735471E+02 0.  0.
        -13    1    3    3    0    0  0.82860129983E+02 -0.37625121937E+02 -0.39871712465E+03  0.40897041022E+03  0.00000000000E+00 0.  1.
         13    1    3    3    0    0 -0.16841477829E+02  0.15413193653E+02 -0.11339344608E+03  0.11566881830E+03  0.00000000000E+00 0. -1.
        -13    1    4    4    0    0  0.44033614507E+02 -0.70531735449E+02 -0.73341657478E+02  0.11087237543E+03  0.00000000000E+00 0. -1.
         13    1    4    4    0    0 -0.24358231741E+02 -0.14724087736E+02  0.41005334238E+01  0.28756505135E+02  0.00000000000E+00 0.  1.
         21    1    1    2  503  501 -0.30776900324E+02  0.65532258478E+02 -0.38068777325E+02  0.81798082507E+02  0.00000000000E+00 0. -1.
          2    1    1    2  501    0 -0.54917134596E+02  0.41935492990E+02 -0.67474268830E+02  0.96577710672E+02  0.00000000000E+00 0. -1.
<scales pt_clust_5="13000.00000" pt_clust_6="13000.00000" pt_clust_7="13000.00000" pt_clust_8="13000.00000" pt_clust_9="41.28387" pt_clust_10="114.10324"></scales>
<clustering>
<clus scale="   41.284">  9 10 -1 -1</clus>
<clus scale="   83.942">  7  8 -1 -1</clus>
<clus scale="   90.207">  5  6 -1 -1</clus>
<clus scale="  113.970">  2  5  1 -1</clus>
<clus scale="  114.103">  1  9  2 -1</clus>
<clus scale="  114.103">  1  5  2 -1</clus>
</clustering>
</event>
<event>
10    2  0.2421970E-006  0.2078006E+03  0.7546771E-02  0.1143549E+00
         21   -1    0    0  501  502  0.00000000000E+00  0.00000000000E+00  0.91268729753E+02  0.91268729753E+02  0.00000000000E+00 0. -1.
          1   -1    0    0  503    0 -0.00000000000E+00 -0.00000000000E+00 -0.97713141201E+03  0.97713141201E+03  0.00000000000E+00 0. -1.
         23    2    1    2    0    0 -0.13515074929E+03 -0.89696102663E+02 -0.35150756559E+03  0.39785369926E+03  0.91754463002E+02 0.  0.
         23    2    1    2    0    0  0.16784966495E+03  0.12453893660E+03 -0.52577698305E+03  0.57359870940E+03  0.94289908075E+02 0.  0.
        -11    1    4    4    0    0  0.17022346509E+02  0.42311606117E+02 -0.20186424790E+03  0.20695218499E+03  0.00000000000E+00 0.  1.
         11    1    4    4    0    0  0.15082731845E+03  0.82227330484E+02 -0.32391273515E+03  0.36664652441E+03  0.00000000000E+00 0. -1.
        -13    1    3    3    0    0 -0.10478749419E+03 -0.15389747666E+02 -0.19130942627E+03  0.21866997931E+03  0.00000000000E+00 0.  1.
         13    1    3    3    0    0 -0.30363255100E+02 -0.74306354997E+02 -0.16019813932E+03  0.17918371995E+03  0.00000000000E+00 0. -1.
         21    1    1    2  503  502  0.28159574941E+02 -0.10000218267E+02  0.35897693309E+01  0.30097383110E+02  0.00000000000E+00 0.  1.
          1    1    1    2  501    0 -0.60858490606E+02 -0.24842615671E+02 -0.12167902948E+02  0.66850349994E+02  0.00000000000E+00 0. -1.
<scales pt_clust_5="13000.00000" pt_clust_6="13000.00000" pt_clust_7="13000.00000" pt_clust_8="13000.00000" pt_clust_9="29.88254" pt_clust_10="58.00698"></scales>
<clustering>
<clus scale="   29.883">  1  9  2 -1</clus>
<clus scale="   58.007">  1 10  2 -1</clus>
<clus scale="   91.754">  7  8 -1 -1</clus>
<clus scale="   94.290">  5  6 -1 -1</clus>
<clus scale="  206.662">  2  7  1 -1</clus>
<clus scale="   29.883">  1  5  2 -1</clus>
</clustering>
</event>
<event>
10    2  0.2421970E-006  0.1542643E+03  0.7546771E-02  0.1195349E+00
         -2   -1    0    0    0  501 -0.00000000000E+00  0.00000000000E+00  0.67938641784E+02  0.67938641784E+02  0.00000000000E+00 0.  1.
         21   -1    0    0  501  502  0.00000000000E+00 -0.00000000000E+00 -0.81187706964E+03  0.81187706964E+03  0.00000000000E+00 0. -1.
         23    2    1    2    0    0  0.61586811688E+02  0.12509093520E+03 -0.14543857995E+03  0.22126635150E+03  0.91464421080E+02 0.  0.
         23    2    1    2    0    0  0.34720962863E+02 -0.11856246744E+03 -0.22869871069E+03  0.27559548829E+03  0.91581488007E+02 0.  0.
        -11    1    3    3    0    0  0.38504163396E+02  0.13303166454E+03 -0.10408064404E+03  0.17324195460E+03  0.00000000000E+00 0.  1.
         11    1    3    3    0    0  0.23082648292E+02 -0.79407293412E+01 -0.41357935907E+02  0.48024396895E+02  0.00000000000E+00 0. -1.
        -13    1    4    4    0    0  0.64257418579E+02 -0.93096485222E+02 -0.15113868888E+03  0.18878261223E+03  0.00000000000E+00 0. -1.
         13    1    4    4    0    0 -0.29536455716E+02 -0.25465982219E+02 -0.77560021814E+02  0.86812876063E+02  0.00000000000E+00 0.  1.
         21    1    1    2  503  502 -0.56282627432E+02 -0.80045208940E+01 -0.17242425535E+03  0.18155420771E+03  0.00000000000E+00 0.  1.
         -2    1    1    2    0  503 -0.40025147119E+02  0.14760531320E+01 -0.19737688187E+03  0.20139966393E+03  0.00000000000E+00 0.  1.
<scales pt_clust_5="13000.00000" pt_clust_6="13000.00000" pt_clust_7="13000.00000" pt_clust_8="13000.00000" pt_clust_9="20.26651" pt_clust_10="99.50270"></scales>
<clustering>
<clus scale="   20.267">  9 10 -1 -1</clus>
<clus scale="   91.464">  5  6 -1 -1</clus>
<clus scale="   91.581">  7  8 -1 -1</clus>
<clus scale="   99.503">  2  9  1 -1</clus>
<clus scale="  154.195">  1  5  2 -1</clus>
<clus scale="   99.503">  2  5  1 -1</clus>
</clustering>
</event>
<event>
10    2  0.2421970E-006  0.9945566E+02  0.7546771E-02  0.1281644E+00
         21   -1    0    0  503  502  0.00000000000E+00  0.00000000000E+00  0.64509426428E+03  0.64509426428E+03  0.00000000000E+00 0.  1.
         -4   -1    0    0    0  501 -0.00000000000E+00 -0.00000000000E+00 -0.34593571250E+02  0.34593571250E+02  0.00000000000E+00 0.  1.
         23    2    1    2    0    0  0.45789944204E+02 -0.49575675690E+02  0.15356171154E+03  0.19068622998E+03  0.90694941642E+02 0.  0.
         23    2    1    2    0    0  0.82192007432E+01  0.15833825118E+02  0.19009694769E+03  0.21155387826E+03  0.91103943984E+02 0.  0.
        -13    1    3    3    0    0  0.89009233803E+00  0.20342211488E+02  0.69766622335E+02  0.72677227689E+02  0.00000000000E+00 0.  1.
         13    1    3    3    0    0  0.44899851866E+02 -0.69917887178E+02  0.83795089210E+02  0.11800900229E+03  0.00000000000E+00 0. -1.
        -13    1    4    4    0    0  0.20853035571E+02 -0.32161873049E+02  0.11765475762E+03  0.12374117003E+03  0.00000000000E+00 0. -1.
         13    1    4    4    0    0 -0.12633834828E+02  0.47995698167E+02  0.72442190070E+02  0.87812708233E+02  0.00000000000E+00 0.  1.
         21    1    1    2  503  501 -0.12042865711E+02  0.30865789118E+02  0.98197067996E+02  0.10363586115E+03  0.00000000000E+00 0.  1.
         -4    1    1    2    0  502 -0.41966279236E+02  0.28760614536E+01  0.16864496580E+03  0.17381186615E+03  0.00000000000E+00 0.  1.
<scales pt_clust_5="13000.00000" pt_clust_6="13000.00000" pt_clust_7="13000.00000" pt_clust_8="13000.00000" pt_clust_9="33.13197" pt_clust_10="47.45565"></scales>
<clustering>
<clus scale="   33.132">  1  9  2 -1</clus>
<clus scale="   47.456">  1 10  2 -1</clus>
<clus scale="   90.695">  5  6 -1 -1</clus>
<clus scale="   91.104">  7  8 -1 -1</clus>
<clus scale="   99.081">  2  5  1 -1</clus>
<clus scale="   33.132">  1  5  2 -1</clus>
</clustering>
</event>
<event>
10    2  0.2421970E-006  0.1376551E+03  0.7546771E-02  0.1226802E+00
         -3   -1    0    0    0  501 -0.00000000000E+00  0.00000000000E+00  0.24160832322E+03  0.24160832322E+03  0.00000000000E+00 0.  1.
         21   -1    0    0  503  502  0.00000000000E+00 -0.00000000000E+00 -0.50834099917E+03  0.50834099917E+03  0.00000000000E+00 0.  1.
         23    2    1    2    0    0 -0.41280581402E+02 -0.43066016017E+02  0.13932718673E+03  0.17827702069E+03  0.93871523953E+02 0.  0.
         23    2    1    2    0    0 -0.76060844444E+02 -0.10598966608E+01  0.12231990720E+01  0.11813302345E+03  0.90374440933E+02 0.  0.
        -11    1    3    3    0    0 -0.70687460141E+02 -0.40889674573E+02  0.99449072828E+02  0.12868100324E+03  0.00000000000E+00 0.  1.
         11    1    3    3    0    0  0.29406878739E+02 -0.21763414439E+01  0.39878113898E+02  0.49596017454E+02  0.00000000000E+00 0. -1.
        -13    1    4    4    0    0 -0.63309656140E+02  0.32938684001E+02  0.23972118527E+02  0.75284340542E+02  0.00000000000E+00 0.  1.
         13    1    4    4    0    0 -0.12751188305E+02 -0.33998580662E+02 -0.22748919455E+02  0.42848682903E+02  0.00000000000E+00 0. -1.
         21    1    1    2  503  501  0.54377435812E+02 -0.36333975730E+02 -0.51107928652E+02  0.83000504149E+02  0.00000000000E+00 0. -1.
         -3    1    1    2    0  502  0.62963990034E+02  0.80459888407E+02 -0.35617513309E+03  0.37053877411E+03  0.00000000000E+00 0.  1.
<scales pt_clust_5="13000.00000" pt_clust_6="13000.00000" pt_clust_7="13000.00000" pt_clust_8="13000.00000" pt_clust_9="65.39926" pt_clust_10="103.83344"></scales>
<clustering>
<clus scale="   65.399">  2  9  1 -1</clus>
<clus scale="   90.374">  7  8 -1 -1</clus>
<clus scale="   93.872">  5  6 -1 -1</clus>
<clus scale="  110.991">  1  5  2 -1</clus>
<clus scale="  103.833">  2 10  1 -1</clus>
<clus scale="   65.399">  2  5  1 -1</clus>
</clustering>
</event>
<event>
10    2  0.2421970E-006  0.9034026E+02  0.7546771E-02  0.1302487E+00
          3   -1    0    0  503    0 -0.00000000000E+00  0.00000000000E+00  0.12374603589E+03  0.12374603589E+03  0.00000000000E+00 0. -1.
         21   -1    0    0  501  502  0.00000000000E+00 -0.00000000000E+00 -0.35886571186E+03  0.35886571186E+03  0.00000000000E+00 0. -1.
         23    2    1    2    0    0  0.32220147225E+02 -0.13949056343E+02  0.60476399964E+02  0.11276735151E+03  0.88466753952E+02 0.  0.
         23    2    1    2    0    0  0.17214269979E+02 -0.17789648222E+02 -0.68478200197E+02  0.11517081120E+03  0.89231436033E+02 0.  0.
        -11    1    3    3    0    0  0.44419990038E+02  0.23852478561E+02  0.51444482270E+02  0.72032013748E+02  0.00000000000E+00 0.  1.
         11    1    3    3    0    0 -0.12199842813E+02 -0.37801534904E+02  0.90319176946E+01  0.40735337767E+02  0.00000000000E+00 0. -1.
        -13    1    4    4    0    0  0.26490972888E+02 -0.39567967939E+02 -0.76557812503E+02  0.90158163172E+02  0.00000000000E+00 0. -1.
         13    1    4    4    0    0 -0.92767029098E+01  0.21778319717E+02  0.80796123058E+01  0.25012648032E+02  0.00000000000E+00 0.  1.
         21    1    1    2  503  502 -0.23951753605E+02 -0.19088403002E+02 -0.13239468345E+02  0.33366707239E+02  0.00000000000E+00 0. -1.
          3    1    1    2  501    0 -0.25482663599E+02  0.50827107566E+02 -0.21387840739E+03  0.22130687779E+03  0.00000000000E+00 0. -1.
<scales pt_clust_5="13000.00000" pt_clust_6="13000.00000" pt_clust_7="13000.00000" pt_clust_8="13000.00000" pt_clust_9="30.62766" pt_clust_10="56.65905"></scales>
<clustering>
<clus scale="   30.628">  1  9  2 -1</clus>
<clus scale="   56.659">  2 10  1 -1</clus>
<clus scale="   88.467">  5  6 -1 -1</clus>
<clus scale="   89.231">  7  8 -1 -1</clus>
<clus scale="   89.585">  1  5  2 -1</clus>
<clus scale="   56.659">  2  5  1 -1</clus>
</clustering>
</event>
<event>
10    2  0.2421970E-006  0.1425003E+03  0.7546771E-02  0.1210044E+00
          1   -1    0    0  503    0 -0.00000000000E+00  0.00000000000E+00  0.68228726940E+03  0.68228726940E+03  0.00000000000E+00 0. -1.
         21   -1    0    0  501  502  0.00000000000E+00 -0.00000000000E+00 -0.66493968381E+02  0.66493968381E+02  0.00000000000E+00 0. -1.
         23    2    1    2    0    0 -0.81006688289E+02 -0.28335064894E+02  0.21513958318E+03  0.24903895192E+03  0.91489889461E+02 0.  0.
         23    2    1    2    0    0  0.14372435703E+03  0.23264201401E+02  0.26376808686E+03  0.31481248515E+03  0.91298320310E+02 0.  0.
        -13    1    3    3    0    0  0.46674509693E+01 -0.37844449591E+02  0.51452077634E+02  0.64041422191E+02  0.00000000000E+00 0. -1.
         13    1    3    3    0    0 -0.85674139258E+02  0.95093846960E+01  0.16368750554E+03  0.18499752973E+03  0.00000000000E+00 0.  1.
        -13    1    4    4    0    0  0.14782799136E+02  0.15674421606E+02  0.48369056991E+00  0.21551162371E+02  0.00000000000E+00 0.  1.
         13    1    4    4    0    0  0.12894155790E+03  0.75897797947E+01  0.26328439629E+03  0.29326132278E+03  0.00000000000E+00 0. -1.
         21    1    1    2  503  502  0.23129189011E+02  0.14910848446E+02  0.61158070633E+01  0.28190350862E+02  0.00000000000E+00 0. -1.
          1    1    1    2  501    0 -0.85846857754E+02 -0.98399849528E+01  0.13076982392E+03  0.15673944985E+03  0.00000000000E+00 0. -1.
<scales pt_clust_5="13000.00000" pt_clust_6="13000.00000" pt_clust_7="13000.00000" pt_clust_8="13000.00000" pt_clust_9="27.51895" pt_clust_10="80.68149"></scales>
<clustering>
<clus scale="   27.519">  2  9  1 -1</clus>
<clus scale="   80.681">  2 10  1 -1</clus>
<clus scale="   91.298">  7  8 -1 -1</clus>
<clus scale="   91.490">  5  6 -1 -1</clus>
<clus scale="  142.377">  2  7  1 -1</clus>
<clus scale="   27.519">  2  5  1 -1</clus>
</clustering>
</event>
<event>
10    2  0.2421970E-006  0.1066204E+03  0.7546771E-02  0.1267985E+00
         21   -1    0    0  503  502  0.00000000000E+00  0.00000000000E+00  0.65012381621E+03  0.65012381621E+03  0.00000000000E+00 0.  1.
         -3   -1    0    0    0  501 -0.00000000000E+00 -0.00000000000E+00 -0.29334801667E+03  0.29334801667E+03  0.00000000000E+00 0.  1.
         23    2    1    2    0    0  0.85825814123E+00  0.50008720132E+02 -0.21429329100E+03  0.23807619115E+03  0.90868308695E+02 0.  0.
         23    2    1    2    0    0  0.84122437559E+02 -0.11450020452E+03  0.75874177269E+02  0.18373022976E+03  0.88391318674E+02 0.  0.
        -11    1    4    4    0    0  0.58500238089E+02 -0.58382940557E+02  0.88144675843E+02  0.12083182314E+03  0.00000000000E+00 0.  1.
         11    1    4    4    0    0  0.25622199470E+02 -0.56117263959E+02 -0.12270498574E+02  0.62898406619E+02  0.00000000000E+00 0. -1.
        -13    1    3    3    0    0  0.32038113587E+02 -0.10433400781E+02 -0.94445680577E+02  0.10027603479E+03  0.00000000000E+00 0. -1.
         13    1    3    3    0    0 -0.31179855446E+02  0.60442120913E+02 -0.11984761043E+03  0.13780015635E+03  0.00000000000E+00 0.  1.
         21    1    1    2  503  501 -0.83281872188E+02  0.13515242847E+02  0.43341893971E+03  0.44155465043E+03  0.00000000000E+00 0.  1.
         -3    1    1    2    0  502 -0.16988235121E+01  0.50976241537E+02  0.61775973574E+02  0.80110761534E+02  0.00000000000E+00 0.  1.
<scales pt_clust_5="13000.00000" pt_clust_6="13000.00000" pt_clust_7="13000.00000" pt_clust_8="13000.00000" pt_clust_9="99.28432" pt_clust_10="51.00454"></scales>
<clustering>
<clus scale="   51.005">  1 10  2 -1</clus>
<clus scale="   88.391">  5  6 -1 -1</clus>
<clus scale="   90.868">  7  8 -1 -1</clus>
<clus scale="   99.284">  1  9  2 -1</clus>
<clus scale="  104.517">  1  5  2 -1</clus>
<clus scale="   51.005">  1  5  2 -1</clus>
</clustering>
</event>
<event>
10    2  0.2421970E-006  0.8991551E+02  0.7546771E-02  0.1303478E+00
         21   -1    0    0  503  502  0.00000000000E+00  0.00000000000E+00  0.14595859202E+03  0.14595859202E+03  0.00000000000E+00 0. -1.
          2   -1    0    0  502    0 -0.00000000000E+00 -0.00000000000E+00 -0.49624177389E+03  0.49624177389E+03  0.00000000000E+00 0. -1.
         23    2    1    2    0    0  0.15338209520E+02 -0.25273943593E+01 -0.42848518228E+03  0.43796807289E+03  0.89301920698E+02 0.  0.
         23    2    1    2    0    0  0.54333708174E+02 -0.12142134153E+02  0.17669859665E+02  0.10612508076E+03  0.88604320208E+02 0.  0.
        -11    1    3    3    0    0  0.20603508789E+02 -0.44087185537E+02 -0.22056840265E+03  0.22587298366E+03  0.00000000000E+00 0. -1.
         11    1    3    3    0    0 -0.52652992693E+01  0.41559791178E+02 -0.20791677964E+03  0.21209508923E+03  0.00000000000E+00 0.  1.
        -13    1    4    4    0    0 -0.19885350250E+02 -0.21970349588E+02  0.75271098244E+01  0.30574185155E+02  0.00000000000E+00 0.  1.
         13    1    4    4    0    0  0.74219058424E+02  0.98282154357E+01  0.10142749840E+02  0.75550895603E+02  0.00000000000E+00 0. -1.
         21    1    1    2  503  501 -0.25548833361E+02  0.15421184468E+02  0.38708170894E+02  0.48876152779E+02  0.00000000000E+00 0. -1.
          2    1    1    2  501    0 -0.44123084334E+02 -0.75165595643E+00  0.21823969853E+02  0.49231059484E+02  0.00000000000E+00 0. -1.
<scales pt_clust_5="13000.00000" pt_clust_6="13000.00000" pt_clust_7="13000.00000" pt_clust_8="13000.00000" pt_clust_9="24.55358" pt_clust_10="77.20677"></scales>
<clustering>
<clus scale="   24.554">  9 10 -1 -1</clus>
<clus scale="   77.207">  1  9  2 -1</clus>
<clus scale="   88.604">  7  8 -1 -1</clus>
<clus scale="   89.223">  1  7  2 -1</clus>
<clus scale="   89.302">  5  6 -1 -1</clus>
<clus scale="   77.207">  1  5  2 -1</clus>
</clustering>
</event>
<event>
10    2  0.2421970E-006  0.1050839E+03  0.7546771E-02  0.1270067E+00
         -1   -1    0    0    0  501 -0.00000000000E+00  0.00000000000E+00  0.95318781355E+03  0.95318781355E+03  0.00000000000E+00 0.  1.
         21   -1    0    0  503  502  0.00000000000E+00 -0.00000000000E+00 -0.13502210288E+03  0.13502210288E+03  0.00000000000E+00 0.  1.
         23    2    1    2    0    0 -0.28549121772E+02  0.26489545421E+02  0.54531194701E+03  0.55420842270E+03  0.90912638671E+02 0.  0.
         23    2    1    2    0    0  0.62057886044E+02 -0.61962440415E+02  0.32586841411E+03  0.34956243595E+03  0.91176466659E+02 0.  0.
        -11    1    4    4    0    0  0.17983513316E+02 -0.34821003371E+02  0.30412449747E+02  0.49606714531E+02  0.00000000000E+00 0. -1.
         11    1    4    4    0    0  0.44074372728E+02 -0.27141437043E+02  0.29545596436E+03  0.29995572142E+03  0.00000000000E+00 0.  1.
        -13    1    3    3    0    0 -0.60052460361E+02  0.41834049841E+01  0.31970816572E+03  0.32532615957E+03  0.00000000000E+00 0.  1.
         13    1    3    3    0    0  0.31503338589E+02  0.22306140437E+02  0.22560378129E+03  0.22888226313E+03  0.00000000000E+00 0. -1.
         21    1    1    2  503  501  0.27887242998E+02 -0.54087032830E+02  0.54843008580E+01  0.61099779036E+02  0.00000000000E+00 0.  1.
         -1    1    1    2    0  502 -0.61396007270E+02  0.89559927823E+02 -0.58498951300E+02  0.12333927875E+03  0.00000000000E+00 0.  1.
<scales pt_clust_5="13000.00000" pt_clust_6="13000.00000" pt_clust_7="13000.00000" pt_clust_8="13000.00000" pt_clust_9="60.85315" pt_clust_10="57.74058"></scales>
<clustering>
<clus scale="   60.853">  2  9  1 -1</clus>
<clus scale="   57.741">  2 10  1 -1</clus>
<clus scale="   90.913">  7  8 -1 -1</clus>
<clus scale="   91.176">  5  6 -1 -1</clus>
<clus scale="  104.855">  1  7  2 -1</clus>
<clus scale="   60.853">  2  5  1 -1</clus>
</clustering>
</event>
<event>
10    2  0.2421970E-006  0.1650717E+03  0.7546771E-02  0.1203340E+00
         21   -1    0    0  503  502  0.00000000000E+00  0.00000000000E+00  0.59431810042E+03  0.59431810042E+03  0.00000000000E+00 0. -1.
         -2   -1    0    0    0  501 -0.00000000000E+00 -0.00000000000E+00 -0.13092552430E+03  0.13092552430E+03  0.00000000000E+00 0.  1.
         23    2    1    2    0    0  0.40456766140E+02 -0.64660395728E+02 -0.11943698786E+02  0.11952020597E+03  0.91239854190E+02 0.  0.
         23    2    1    2    0    0 -0.10054824880E+03  0.11083481358E+03  0.24052638187E+03  0.29857049269E+03  0.94324400288E+02 0.  0.
        -13    1    3    3    0    0  0.32847347931E+02 -0.30455809676E+02 -0.50443624572E+02  0.67461573278E+02  0.00000000000E+00 0.  1.
         13    1    3    3    0    0  0.76094182086E+01 -0.34204586052E+02  0.38499925786E+02  0.52058632694E+02  0.00000000000E+00 0. -1.
        -13    1    4    4    0    0 -0.46092383378E+02 -0.44755311275E+01  0.90576053998E+02  0.10172787102E+03  0.00000000000E+00 0.  1.
         13    1    4    4    0    0 -0.54455865418E+02  0.11531034471E+03  0.14995032787E+03  0.19684262167E+03  0.00000000000E+00 0. -1.
         21    1    1    2  503  501 -0.49708264576E+02  0.21241310604E+02  0.21966050401E+02  0.58349054950E+02  0.00000000000E+00 0. -1.
         -2    1    1    2    0  502  0.10979974723E+03 -0.67415728460E+02  0.21284384263E+03  0.24880387111E+03  0.00000000000E+00 0.  1.
<scales pt_clust_5="13000.00000" pt_clust_6="13000.00000" pt_clust_7="13000.00000" pt_clust_8="13000.00000" pt_clust_9="54.05650" pt_clust_10="135.46793"></scales>
<clustering>
<clus scale="   54.056">  2  9  1 -1</clus>
<clus scale="   91.240">  5  6 -1 -1</clus>
<clus scale="   94.324">  7  8 -1 -1</clus>
<clus scale="  105.778">  2  5  1 -1</clus>
<clus scale="  135.468">  1 10  2 -1</clus>
<clus scale="  135.468">  1  5  2 -1</clus>
</clustering>
</event>
<event>
10    2  0.2421970E-006  0.1927607E+03  0.7546771E-02  0.1184032E+00
         -1   -1    0    0    0  501 -0.00000000000E+00  0.00000000000E+00  0.34311414971E+03  0.34311414971E+03  0.00000000000E+00 0.  1.
         21   -1    0    0  501  502  0.00000000000E+00 -0.00000000000E+00 -0.37928892977E+03  0.37928892977E+03  0.00000000000E+00 0.  1.
         23    2    1    2    0    0 -0.51742308016E+02 -0.23006557089E+02 -0.57918269515E+02  0.12188534608E+03  0.91076580618E+02 0.  0.
         23    2    1    2    0    0  0.24301851528E+02  0.19977365718E+03  0.19985047014E+03  0.29858001546E+03  0.93325886675E+02 0.  0.
        -11    1    4    4    0    0 -0.33888398888E+02  0.10775759028E+03  0.10204236820E+03  0.15222603835E+03  0.00000000000E+00 0. -1.
         11    1    4    4    0    0  0.58190250416E+02  0.92016066899E+02  0.97808101939E+02  0.14635397711E+03  0.00000000000E+00 0.  1.
        -11    1    3    3    0    0 -0.55649137630E+02  0.97742456738E+01 -0.67002693373E+02  0.87645440935E+02  0.00000000000E+00 0. -1.
         11    1    3    3    0    0  0.39068296139E+01 -0.32780802762E+02  0.90844238579E+01  0.34239905143E+02  0.00000000000E+00 0.  1.
         21    1    1    2  503  502  0.75219508170E+02 -0.33978976128E+02 -0.22811430885E+02  0.85632392276E+02  0.00000000000E+00 0.  1.
         -1    1    1    2    0  503 -0.47779051681E+02 -0.14278812396E+03 -0.15529554980E+03  0.21630532567E+03  0.00000000000E+00 0.  1.
<scales pt_clust_5="13000.00000" pt_clust_6="13000.00000" pt_clust_7="13000.00000" pt_clust_8="13000.00000" pt_clust_9="82.53814" pt_clust_10="168.66231"></scales>
<clustering>
<clus scale="   82.538">  2  9  1 -1</clus>
<clus scale="   91.077">  7  8 -1 -1</clus>
<clus scale="   93.326">  5  6 -1 -1</clus>
<clus scale="  101.500">  1  7  2 -1</clus>
<clus scale="  168.662">  2 10  1 -1</clus>
<clus scale="   82.538">  2  5  1 -1</clus>
</clustering>
</event>
<event>
10    2  0.2421970E-006  0.2134066E+03  0.7546771E-02  0.1173213E+00
         21   -1    0    0  501  502  0.00000000000E+00  0.00000000000E+00  0.39109411468E+03  0.39109411468E+03  0.00000000000E+00 0. -1.
          3   -1    0    0  503    0 -0.00000000000E+00 -0.00000000000E+00 -0.37815234829E+03  0.37815234829E+03  0.00000000000E+00 0. -1.
         23    2    1    2    0    0  0.15445471915E+02  0.23001805123E+02 -0.16175741375E+03  0.18795463077E+03  0.91617884076E+02 0.  0.
         23    2    1    2    0    0 -0.20973481144E+03  0.48983653489E+01 -0.63809312844E+02  0.23814413734E+03  0.92888732532E+02 0.  0.
        -11    1    3    3    0    0 -0.38587730215E+02  0.12832318334E+02 -0.72299498205E+02  0.82951182980E+02  0.00000000000E+00 0.  1.
         11    1    3    3    0    0  0.54033202130E+02  0.10169486789E+02 -0.89457915545E+02  0.10500344779E+03  0.00000000000E+00 0. -1.
        -13    1    4    4    0    0 -0.10090151807E+02 -0.25023542593E+02 -0.13125077104E+02  0.30004274635E+02  0.00000000000E+00 0.  1.
         13    1    4    4    0    0 -0.19964465963E+03  0.29921907942E+02 -0.50684235741E+02  0.20813986270E+03  0.00000000000E+00 0. -1.
         21    1    1    2  503  502  0.18111146075E+02 -0.35684006178E+02  0.13015963141E+03  0.13617228630E+03  0.00000000000E+00 0. -1.
          3    1    1    2  501    0  0.17617819345E+03  0.77838357067E+01  0.10834886157E+03  0.20697540856E+03  0.00000000000E+00 0. -1.
<scales pt_clust_5="13000.00000" pt_clust_6="13000.00000" pt_clust_7="13000.00000" pt_clust_8="13000.00000" pt_clust_9="40.01702" pt_clust_10="192.13034"></scales>
<clustering>
<clus scale="   40.017">  1  9  2 -1</clus>
<clus scale="   91.618">  5  6 -1 -1</clus>
<clus scale="   92.889">  7  8 -1 -1</clus>
<clus scale="   95.450">  2  5  1 -1</clus>
<clus scale="  192.130">  1 10  2 -1</clus>
<clus scale="   40.017">  1  5  2 -1</clus>
</clustering>
</event>
<event>
10    2  0.2421970E-006  0.1260933E+03  0.7546771E-02  0.1233505E+00
          1   -1    0    0  503    0 -0.00000000000E+00  0.00000000000E+00  0.40975135994E+03  0.40975135994E+03  0.00000000000E+00 0. -1.
         21   -1    0    0  501  502  0.00000000000E+00 -0.00000000000E+00 -0.16031895225E+03  0.16031895225E+03  0.00000000000E+00 0. -1.
         23    2    1    2    0    0  0.65968210636E+02 -0.28428306285E+02  0.17031192057E+03  0.20623314599E+03  0.91465768486E+02 0.  0.
         23    2    1    2    0    0 -0.12223353724E+03  0.27009459907E+02  0.90065216138E+02  0.17905574739E+03  0.90987191208E+02 0.  0.
        -11    1    4    4    0    0 -0.94687825006E+02 -0.18866660726E+02  0.78199592644E+02  0.12424536764E+03  0.00000000000E+00 0. -1.
         11    1    4    4    0    0 -0.27545712235E+02  0.45876120633E+02  0.11865623494E+02  0.54810379745E+02  0.00000000000E+00 0.  1.
        -13    1    3    3    0    0  0.30153305059E+02  0.32752359342E+02  0.78389660862E+02  0.90149197326E+02  0.00000000000E+00 0. -1.
         13    1    3    3    0    0  0.35814905577E+02 -0.61180665627E+02  0.91922259709E+02  0.11608394867E+03  0.00000000000E+00 0.  1.
         21    1    1    2  503  502  0.91887649909E+02 -0.16960659054E+02 -0.67636305232E+02  0.11535022300E+03  0.00000000000E+00 0. -1.
          1    1    1    2  501    0 -0.35622323303E+02  0.18379505432E+02  0.56691576212E+02  0.69431195804E+02  0.00000000000E+00 0. -1.
<scales pt_clust_5="13000.00000" pt_clust_6="13000.00000" pt_clust_7="13000.00000" pt_clust_8="13000.00000" pt_clust_9="70.97427" pt_clust_10="40.08438"></scales>
<clustering>
<clus scale="   40.084">  2 10  1 -1</clus>
<clus scale="   70.974">  2  9  1 -1</clus>
<clus scale="   90.987">  5  6 -1 -1</clus>
<clus scale="   91.466">  7  8 -1 -1</clus>
<clus scale="  125.747">  2  5  1 -1</clus>
<clus scale="   40.084">  2  5  1 -1</clus>
</clustering>
</event>
<event>
10    2  0.2421970E-006  0.1251779E+03  0.7546771E-02  0.1235095E+00
         -1   -1    0    0    0  501 -0.00000000000E+00  0.00000000000E+00  0.86700625604E+03  0.86700625604E+03  0.00000000000E+00 0.  1.
         21   -1    0    0  503  502  0.00000000000E+00 -0.00000000000E+00 -0.46608828484E+02  0.46608828484E+02  0.00000000000E+00 0. -1.
         23    2    1    2    0    0 -0.53651004953E+02  0.27070715028E+02  0.29726134265E+03  0.31656312661E+03  0.90756009988E+02 0.  0.
         23    2    1    2    0    0  0.11880770474E+03 -0.26748084577E+02  0.44090764190E+03  0.46612604013E+03  0.89683922027E+02 0.  0.
        -13    1    3    3    0    0  0.23899111219E+02  0.19037525541E+02  0.73031245348E+02  0.79165381909E+02  0.00000000000E+00 0. -1.
         13    1    3    3    0    0 -0.77550116172E+02  0.80331894875E+01  0.22423009730E+03  0.23739774470E+03  0.00000000000E+00 0.  1.
        -13    1    4    4    0    0  0.37413067507E+02  0.31001839139E+00  0.34927092354E+02  0.51183351903E+02  0.00000000000E+00 0. -1.
         13    1    4    4    0    0  0.81394637237E+02 -0.27058102968E+02  0.40598054955E+03  0.41494268823E+03  0.00000000000E+00 0.  1.
         21    1    1    2  503  501 -0.68061814012E+02  0.27523585446E+02  0.64974490779E+02  0.98038985788E+02  0.00000000000E+00 0. -1.
         -1    1    1    2    0  502  0.29051142209E+01 -0.27846215898E+02  0.17253952225E+02  0.32886931992E+02  0.00000000000E+00 0.  1.
<scales pt_clust_5="13000.00000" pt_clust_6="13000.00000" pt_clust_7="13000.00000" pt_clust_8="13000.00000" pt_clust_9="68.63330" pt_clust_10="27.99735"></scales>
<clustering>
<clus scale="   27.997">  2 10  1 -1</clus>
<clus scale="   68.633">  2  9  1 -1</clus>
<clus scale="   89.684">  7  8 -1 -1</clus>
<clus scale="   90.756">  5  6 -1 -1</clus>
<clus scale="  124.403">  2  7  1 -1</clus>
<clus scale="   27.997">  2  5  1 -1</clus>
</clustering>
</event>
<event>
10    2  0.2421970E-006  0.1957442E+03  0.7546771E-02  0.1154199E+00
         21   -1    0    0  503  502  0.00000000000E+00  0.00000000000E+00  0.13414773620E+03  0.13414773620E+03  0.00000000000E+00 0. -1.
          1   -1    0    0  502    0 -0.00000000000E+00 -0.00000000000E+00 -0.42855109854E+03  0.42855109854E+03  0.00000000000E+00 0. -1.
         23    2    1    2    0    0  0.11388325483E+03  0.91001236014E+02 -0.13924073311E+03  0.22482773022E+03  0.99543487141E+02 0.  0.
         23    2    1    2    0    0 -0.16437276760E+03 -0.11265282778E+03 -0.15305934554E+03  0.26757429242E+03  0.91977020874E+02 0.  0.
        -11    1    4    4    0    0 -0.13346724914E+03 -0.49322960501E+02 -0.69771941450E+02  0.15847518682E+03  0.00000000000E+00 0.  1.
         11    1    4    4    0    0 -0.30905518464E+02 -0.63329867279E+02 -0.83287404090E+02  0.10909910559E+03  0.00000000000E+00 0. -1.
        -11    1    3    3    0    0  0.71895987248E+02  0.44336786291E+01 -0.94225933586E+02  0.11860529941E+03  0.00000000000E+00 0.  1.
         11    1    3    3    0    0  0.41987267577E+02  0.86567557385E+02 -0.45014799528E+02  0.10622243081E+03  0.00000000000E+00 0. -1.
         21    1    1    2  503  501  0.90109705858E+01  0.20187446848E+02  0.13560681767E+02  0.25934970429E+02  0.00000000000E+00 0. -1.
          1    1    1    2  501    0  0.41478542191E+02  0.14641449179E+01 -0.15663965455E+02  0.44361841670E+02  0.00000000000E+00 0. -1.
<scales pt_clust_5="13000.00000" pt_clust_6="13000.00000" pt_clust_7="13000.00000" pt_clust_8="13000.00000" pt_clust_9="22.10725" pt_clust_10="42.79576"></scales>
<clustering>
<clus scale="   22.107">  1  9  2 -1</clus>
<clus scale="   42.796">  1 10  2 -1</clus>
<clus scale="   91.977">  5  6 -1 -1</clus>
<clus scale="   99.543">  7  8 -1 -1</clus>
<clus scale="  192.007">  1  5  2 -1</clus>
<clus scale="   22.107">  1  5  2 -1</clus>
</clustering>
</event>
<event>
10    2  0.2421970E-006  0.1570520E+03  0.7546771E-02  0.1210915E+00
         21   -1    0    0  503  502  0.00000000000E+00  0.00000000000E+00  0.67096391988E+02  0.67096391988E+02  0.00000000000E+00 0. -1.
          4   -1    0    0  502    0 -0.00000000000E+00 -0.00000000000E+00 -0.75384408017E+03  0.75384408017E+03  0.00000000000E+00 0. -1.
         23    2    1    2    0    0  0.47416701889E+02 -0.15369447733E+02 -0.33570183082E+03  0.35155989896E+03  0.91728293351E+02 0.  0.
         23    2    1    2    0    0 -0.10851883412E+03  0.11351593540E+03 -0.25661744983E+03  0.31449443316E+03  0.91608012665E+02 0.  0.
        -11    1    3    3    0    0 -0.16713054799E+02  0.23887062715E+02 -0.98852541593E+02  0.10306184039E+03  0.00000000000E+00 0.  1.
         11    1    3    3    0    0  0.64129756688E+02 -0.39256510448E+02 -0.23684928922E+03  0.24849805857E+03  0.00000000000E+00 0. -1.
        -13    1    4    4    0    0 -0.94587350441E+02  0.59155175459E+02 -0.22227846997E+03  0.24870428195E+03  0.00000000000E+00 0.  1.
         13    1    4    4    0    0 -0.13931483674E+02  0.54360759940E+02 -0.34338979858E+02  0.65790151211E+02  0.00000000000E+00 0. -1.
         21    1    1    2  503  501  0.31140170163E+02 -0.66091452431E+02 -0.34990028832E+02  0.81006742929E+02  0.00000000000E+00 0. -1.
          4    1    1    2  501    0  0.29961962063E+02 -0.32055035235E+02 -0.59438378702E+02  0.73879397110E+02  0.00000000000E+00 0. -1.
<scales pt_clust_5="13000.00000" pt_clust_6="13000.00000" pt_clust_7="13000.00000" pt_clust_8="13000.00000" pt_clust_9="32.01629" pt_clust_10="134.08984"></scales>
<clustering>
<clus scale="   32.016">  9 10 -1 -1</clus>
<clus scale="   91.608">  7  8 -1 -1</clus>
<clus scale="   91.728">  5  6 -1 -1</clus>
<clus scale="  104.397">  2  5  1 -1</clus>
<clus scale="  134.090">  1  9  2 -1</clus>
<clus scale="  134.090">  1  5  2 -1</clus>
</clustering>
</event>
<event>
10    2  0.2421970E-006  0.1364275E+03  0.7546771E-02  0.1218523E+00
          3   -1    0    0  503    0 -0.00000000000E+00  0.00000000000E+00  0.19186649762E+03  0.19186649762E+03  0.00000000000E+00 0. -1.
         21   -1    0    0  501  502  0.00000000000E+00 -0.00000000000E+00 -0.17441563367E+03  0.17441563367E+03  0.00000000000E+00 0. -1.
         23    2    1    2    0    0  0.36198889089E+02  0.71247636885E+02 -0.39075647710E+01  0.12171394756E+03  0.91719303505E+02 0.  0.
         23    2    1    2    0    0 -0.89700234675E+02 -0.89625084165E+02  0.18426712834E+02  0.15682436943E+03  0.90418755190E+02 0.  0.
        -11    1    3    3    0    0 -0.14822659904E+02  0.65798315913E+02  0.10867983865E+02  0.68317221086E+02  0.00000000000E+00 0. -1.
         11    1    3    3    0    0  0.51021548993E+02  0.54493209721E+01 -0.14775548636E+02  0.53396726475E+02  0.00000000000E+00 0.  1.
        -11    1    4    4    0    0 -0.64310522276E+02 -0.10608795573E+03  0.62792795866E+01  0.12421725717E+03  0.00000000000E+00 0.  1.
         11    1    4    4    0    0 -0.25389712398E+02  0.16462871564E+02  0.12147433247E+02  0.32607112266E+02  0.00000000000E+00 0. -1.
         21    1    1    2  503  502  0.37386820379E+02  0.33318471625E+02 -0.21836129493E+02  0.54632512671E+02  0.00000000000E+00 0. -1.
          3    1    1    2  501    0  0.16114525206E+02 -0.14941024344E+02  0.24767845381E+02  0.33111301634E+02  0.00000000000E+00 0. -1.
<scales pt_clust_5="13000.00000" pt_clust_6="13000.00000" pt_clust_7="13000.00000" pt_clust_8="13000.00000" pt_clust_9="50.78644" pt_clust_10="21.97527"></scales>
<clustering>
<clus scale="   21.975">  2 10  1 -1</clus>
<clus scale="   50.786">  2  9  1 -1</clus>
<clus scale="   90.419">  7  8 -1 -1</clus>
<clus scale="   91.719">  5  6 -1 -1</clus>
<clus scale="  135.557">  2  7  1 -1</clus>
<clus scale="   21.975">  2  5  1 -1</clus>
</clustering>
</event>
<event>
10    2  0.2421970E-006  0.9930002E+02  0.7546771E-02  0.1284887E+00
         21   -1    0    0  501  502  0.00000000000E+00  0.00000000000E+00  0.10775385312E+03  0.10775385312E+03  0.00000000000E+00 0. -1.
          2   -1    0    0  503    0 -0.00000000000E+00 -0.00000000000E+00 -0.40529420981E+03  0.40529420981E+03  0.00000000000E+00 0. -1.
         23    2    1    2    0    0 -0.15747909078E+02  0.11078415533E+02 -0.20062972279E+03  0.22374302962E+03  0.97149007745E+02 0.  0.
         23    2    1    2    0    0 -0.43694204018E+02 -0.28187313989E+02 -0.15887780594E+03  0.19049347260E+03  0.91333990118E+02 0.  0.
        -11    1    3    3    0    0  0.23600915232E+02 -0.27324531970E+02 -0.39618898566E+02  0.53603081728E+02  0.00000000000E+00 0.  1.
         11    1    3    3    0    0 -0.39348824310E+02  0.38402947503E+02 -0.16101082423E+03  0.17013994789E+03  0.00000000000E+00 0. -1.
        -11    1    4    4    0    0 -0.66726587861E+01 -0.43304489164E+02 -0.24305835996E+02  0.50105656572E+02  0.00000000000E+00 0.  1.
         11    1    4    4    0    0 -0.37021545232E+02  0.15117175175E+02 -0.13457196994E+03  0.14038781603E+03  0.00000000000E+00 0. -1.
         21    1    1    2  503  502  0.21536751870E+02 -0.13961922555E+02  0.10472719596E+02  0.27720837258E+02  0.00000000000E+00 0. -1.
          2    1    1    2  501    0  0.37905361226E+02  0.31070821011E+02  0.51494452443E+02  0.71090723448E+02  0.00000000000E+00 0. -1.
<scales pt_clust_5="13000.00000" pt_clust_6="13000.00000" pt_clust_7="13000.00000" pt_clust_8="13000.00000" pt_clust_9="25.66646" pt_clust_10="56.97388"></scales>
<clustering>
<clus scale="   25.666">  1  9  2 -1</clus>
<clus scale="   56.974">  1 10  2 -1</clus>
<clus scale="   91.334">  7  8 -1 -1</clus>
<clus scale="   93.619">  1  7  2 -1</clus>
<clus scale="   97.149">  5  6 -1 -1</clus>
<clus scale="   25.666">  1  5  2 -1</clus>
</clustering>
</event>
<event>
10    2  0.2421970E-006  0.1070719E+03  0.7546771E-02  0.1270352E+00
          1   -1    0    0  503    0 -0.00000000000E+00  0.00000000000E+00  0.53608919328E+03  0.53608919328E+03  0.00000000000E+00 0. -1.
         21   -1    0    0  501  502  0.00000000000E+00 -0.00000000000E+00 -0.18889095259E+03  0.18889095259E+03  0.00000000000E+00 0.  1.
         23    2    1    2    0    0 -0.25875055999E+02 -0.25366924427E+02  0.43171939454E+03  0.44265186279E+03  0.90807690347E+02 0.  0.
         23    2    1    2    0    0  0.59650279706E+02  0.15325483208E+02  0.39604017104E+02  0.12391277312E+03  0.99964347974E+02 0.  0.
        -11    1    4    4    0    0  0.41661369551E+02  0.57540858170E+02  0.29523858037E+02  0.76930346842E+02  0.00000000000E+00 0.  1.
         11    1    4    4    0    0  0.17988910155E+02 -0.42215374962E+02  0.10080159068E+02  0.46982426274E+02  0.00000000000E+00 0. -1.
        -13    1    3    3    0    0  0.18859803043E+02  0.22365144638E+02  0.87207137043E+02  0.91983567102E+02  0.00000000000E+00 0.  1.
         13    1    3    3    0    0 -0.44734859043E+02 -0.47732069066E+02  0.34451225750E+03  0.35066829568E+03  0.00000000000E+00 0. -1.
         21    1    1    2  503  502 -0.51865516069E+02  0.38138334437E+02 -0.72935421728E+02  0.97283811877E+02  0.00000000000E+00 0.  1.
          1    1    1    2  501    0  0.18090292363E+02 -0.28096893218E+02 -0.51189749221E+02  0.61131698091E+02  0.00000000000E+00 0. -1.
<scales pt_clust_5="13000.00000" pt_clust_6="13000.00000" pt_clust_7="13000.00000" pt_clust_8="13000.00000" pt_clust_9="45.01348" pt_clust_10="33.41697"></scales>
<clustering>
<clus scale="   33.417">  2 10  1 -1</clus>
<clus scale="   45.013">  2  9  1 -1</clus>
<clus scale="   90.808">  7  8 -1 -1</clus>
<clus scale="   98.578">  1  7  2 -1</clus>
<clus scale="   99.964">  5  6 -1 -1</clus>
<clus scale="   33.417">  2  5  1 -1</clus>
</clustering>
</event>
<event>
10    2  0.2421970E-006  0.1022791E+03  0.7546771E-02  0.1280657E+00
         21   -1    0    0  501  502  0.00000000000E+00  0.00000000000E+00  0.39977703087E+02  0.39977703087E+02  0.00000000000E+00 0. -1.
          2   -1    0    0  503    0 -0.00000000000E+00 -0.00000000000E+00 -0.46948364297E+03  0.46948364297E+03  0.00000000000E+00 0. -1.
         23    2    1    2    0    0 -0.17503139406E+02  0.79219194678E+01 -0.15539736339E+03  0.17875811295E+03  0.86238075687E+02 0.  0.
         23    2    1    2    0    0  0.52259987214E+02  0.31829632815E+02 -0.13520162917E+03  0.17693409670E+03  0.96342940878E+02 0.  0.
        -11    1    4    4    0    0  0.28968554562E+02  0.63210479770E+01 -0.13905173912E+03  0.14217777236E+03  0.00000000000E+00 0.  1.
         11    1    4    4    0    0  0.23291432652E+02  0.25508584838E+02  0.38501099471E+01  0.34756324345E+02  0.00000000000E+00 0. -1.
        -13    1    3    3    0    0 -0.49073832934E+02 -0.11419054217E+02 -0.76446888490E+02  0.91557428086E+02  0.00000000000E+00 0. -1.
         13    1    3    3    0    0  0.31570693528E+02  0.19340973685E+02 -0.78950474901E+02  0.87200684860E+02  0.00000000000E+00 0.  1.
         21    1    1    2  503  502 -0.10345089335E+02 -0.32819947485E+02 -0.45928795535E+02  0.57390104422E+02  0.00000000000E+00 0. -1.
          2    1    1    2  501    0 -0.24411758473E+02 -0.69316047970E+01 -0.92978151791E+02  0.96379031990E+02  0.00000000000E+00 0. -1.
<scales pt_clust_5="13000.00000" pt_clust_6="13000.00000" pt_clust_7="13000.00000" pt_clust_8="13000.00000" pt_clust_9="36.63797" pt_clust_10="25.37680"></scales>
<clustering>
<clus scale="   25.377">  1 10  2 -1</clus>
<clus scale="   36.638">  2  9  1 -1</clus>
<clus scale="   86.238">  7  8 -1 -1</clus>
<clus scale="   92.823">  2  7  1 -1</clus>
<clus scale="   96.343">  5  6 -1 -1</clus>
<clus scale="   25.377">  1  5  2 -1</clus>
</clustering>
</event>
<event>
10    2  0.2421970E-006  0.2978821E+03  0.7546771E-02  0.1086323E+00
          1   -1    0    0  503    0 -0.00000000000E+00  0.00000000000E+00  0.38419384006E+03  0.38419384006E+03  0.00000000000E+00 0. -1.
         21   -1    0    0  501  502  0.00000000000E+00 -0.00000000000E+00 -0.38431439671E+03  0.38431439671E+03  0.00000000000E+00 0. -1.
         23    2    1    2    0    0  0.23653830331E+03 -0.17933547878E+03  0.19646445417E+02  0.31132139358E+03  0.91779324470E+02 0.  0.
         23    2    1    2    0    0 -0.13016275897E+03  0.25252932187E+03 -0.36460366976E+01  0.29842781713E+03  0.91282343461E+02 0.  0.
        -11    1    4    4    0    0 -0.65147435046E+02  0.21079204226E+03 -0.10394087782E+02  0.22087442232E+03  0.00000000000E+00 0. -1.
         11    1    4    4    0    0 -0.65015323921E+02  0.41737279614E+02  0.67480510842E+01  0.77553394816E+02  0.00000000000E+00 0.  1.
        -11    1    3    3    0    0  0.24465883621E+02 -0.11860336338E+02  0.30521649102E+02  0.40875641931E+02  0.00000000000E+00 0.  1.
         11    1    3    3    0    0  0.21207241969E+03 -0.16747514245E+03 -0.10875203685E+02  0.27044575165E+03  0.00000000000E+00 0. -1.
         21    1    1    2  503  502 -0.12334470590E+02  0.16800495993E+02 -0.19512727417E+02  0.28550698094E+02  0.00000000000E+00 0. -1.
          1    1    1    2  501    0 -0.94041073755E+02 -0.89994339084E+02  0.33917620475E+01  0.13020832796E+03  0.00000000000E+00 0. -1.
<scales pt_clust_5="13000.00000" pt_clust_6="13000.00000" pt_clust_7="13000.00000" pt_clust_8="13000.00000" pt_clust_9="20.84216" pt_clust_10="129.73919"></scales>
<clustering>
<clus scale="   20.842">  2  9  1 -1</clus>
<clus scale="   91.282">  5  6 -1 -1</clus>
<clus scale="   91.779">  7  8 -1 -1</clus>
<clus scale="  129.739">  2 10  1 -1</clus>
<clus scale="  297.729">  2  5  1 -1</clus>
<clus scale="   20.842">  2  5  1 -1</clus>
</clustering>
</event>
<event>
10    2  0.2421970E-006  0.1729249E+03  0.7546771E-02  0.1175374E+00
         -1   -1    0    0    0  501 -0.00000000000E+00  0.00000000000E+00  0.15831476977E+03  0.15831476977E+03  0.00000000000E+00 0.  1.
         21   -1    0    0  501  502  0.00000000000E+00 -0.00000000000E+00 -0.57550592351E+03  0.57550592351E+03  0.00000000000E+00 0.  1.
         23    2    1    2    0    0  0.63575259955E+02 -0.15993821392E+03  0.53808619694E+02  0.20220533694E+03  0.91485434807E+02 0.  0.
         23    2    1    2    0    0 -0.68978708527E+02  0.58813490186E+02 -0.16889480157E+03  0.21067819539E+03  0.87422875477E+02 0.  0.
        -11    1    4    4    0    0 -0.42662390845E+02  0.73544818045E+02 -0.79756882155E+02  0.11657649894E+03  0.00000000000E+00 0.  1.
         11    1    4    4    0    0 -0.26316317682E+02 -0.14731327858E+02 -0.89137919419E+02  0.94101696452E+02  0.00000000000E+00 0. -1.
        -13    1    3    3    0    0  0.23962730142E+02 -0.81045901328E+02  0.73216639751E+02  0.11181827621E+03  0.00000000000E+00 0.  1.
         13    1    3    3    0    0  0.39612529814E+02 -0.78892312593E+02 -0.19408020057E+02  0.90387060728E+02  0.00000000000E+00 0. -1.
         21    1    1    2  503  502 -0.51611521776E+01  0.26396441317E+02 -0.13392855778E+03  0.13660259220E+03  0.00000000000E+00 0.  1.
         -1    1    1    2    0  503  0.10564600749E+02  0.74728282418E+02 -0.16817641408E+03  0.18433456874E+03  0.00000000000E+00 0.  1.
<scales pt_clust_5="13000.00000" pt_clust_6="13000.00000" pt_clust_7="13000.00000" pt_clust_8="13000.00000" pt_clust_9="22.94926" pt_clust_10="108.32011"></scales>
<clustering>
<clus scale="   22.949">  9 10 -1 -1</clus>
<clus scale="   87.423">  5  6 -1 -1</clus>
<clus scale="   91.485">  7  8 -1 -1</clus>
<clus scale="  108.320">  2  9  1 -1</clus>
<clus scale="  170.810">  2  5  1 -1</clus>
<clus scale="  108.320">  2  5  1 -1</clus>
</clustering>
</event>
<event>
10    2  0.2421970E-006  0.1144370E+03  0.7546771E-02  0.1253188E+00
         21   -1    0    0  503  502  0.00000000000E+00  0.00000000000E+00  0.45773490169E+03  0.45773490169E+03  0.00000000000E+00 0. -1.
         -2   -1    0    0    0  501 -0.00000000000E+00 -0.00000000000E+00 -0.73642518978E+02  0.73642518978E+02  0.00000000000E+00 0.  1.
         23    2    1    2    0    0  0.98569200674E+01 -0.76173031871E+02  0.28941601361E+02  0.12297849627E+03  0.91578406833E+02 0.  0.
         23    2    1    2    0    0  0.17975957410E+02  0.47145107110E+02  0.12709775687E+03  0.16554709681E+03  0.93307048461E+02 0.  0.
        -13    1    4    4    0    0  0.39680227539E+02  0.65619300031E+02  0.82642427638E+02  0.11273945113E+03  0.00000000000E+00 0.  1.
         13    1    4    4    0    0 -0.21704270129E+02 -0.18474192921E+02  0.44455329227E+02  0.52807645684E+02  0.00000000000E+00 0. -1.
        -13    1    3    3    0    0 -0.17931181903E+02  0.15291218432E+02  0.19384312874E+01  0.23645425803E+02  0.00000000000E+00 0. -1.
         13    1    3    3    0    0  0.27788101970E+02 -0.91464250303E+02  0.27003170073E+02  0.99333070468E+02  0.00000000000E+00 0.  1.
         21    1    1    2  503  501  0.20696826209E+02 -0.64484291163E+01  0.41024942967E+02  0.46400288778E+02  0.00000000000E+00 0. -1.
         -2    1    1    2    0  502 -0.48529703686E+02  0.35476353877E+02  0.18702808152E+03  0.19645153881E+03  0.00000000000E+00 0.  1.
<scales pt_clust_5="13000.00000" pt_clust_6="13000.00000" pt_clust_7="13000.00000" pt_clust_8="13000.00000" pt_clust_9="21.67812" pt_clust_10="50.71774"></scales>
<clustering>
<clus scale="   21.678">  1  9  2 -1</clus>
<clus scale="   50.718">  1 10  2 -1</clus>
<clus scale="   91.578">  7  8 -1 -1</clus>
<clus scale="   93.307">  5  6 -1 -1</clus>
<clus scale="  113.032">  2  7  1 -1</clus>
<clus scale="   21.678">  1  5  2 -1</clus>
</clustering>
</event>
<event>
10    2  0.2421970E-006  0.2878022E+03  0.7546771E-02  0.1107653E+00
          2   -1    0    0  502    0 -0.00000000000E+00  0.00000000000E+00  0.94448814664E+03  0.94448814664E+03  0.00000000000E+00 0. -1.
         21   -1    0    0  503  502  0.00000000000E+00 -0.00000000000E+00 -0.19406640558E+03  0.19406640558E+03  0.00000000000E+00 0. -1.
         23    2    1    2    0    0 -0.15751765628E+03  0.54654599957E+02  0.35310225502E+03  0.40099237099E+03  0.91185205842E+02 0.  0.
         23    2    1    2    0    0  0.37079084011E+03 -0.28607006522E+02  0.23722763981E+03  0.45009385985E+03  0.89461285756E+02 0.  0.
        -13    1    3    3    0    0 -0.84938347153E+02  0.74291560923E+02  0.23962426339E+03  0.26486514766E+03  0.00000000000E+00 0.  1.
         13    1    3    3    0    0 -0.72579309122E+02 -0.19636960967E+02  0.11347799163E+03  0.13612722333E+03  0.00000000000E+00 0. -1.
        -13    1    4    4    0    0  0.10174229103E+03 -0.43654364588E+02  0.47163320254E+02  0.12033942043E+03  0.00000000000E+00 0.  1.
         13    1    4    4    0    0  0.26904854908E+03  0.15047358066E+02  0.19006431956E+03  0.32975443942E+03  0.00000000000E+00 0. -1.
         21    1    1    2  503  501 -0.23752981171E+00 -0.23384230995E+02  0.49197399321E+01  0.23897332919E+02  0.00000000000E+00 0.  1.
          2    1    1    2  501    0 -0.21303565402E+03 -0.26633624401E+01  0.15517210630E+03  0.26357098846E+03  0.00000000000E+00 0. -1.
<scales pt_clust_5="13000.00000" pt_clust_6="13000.00000" pt_clust_7="13000.00000" pt_clust_8="13000.00000" pt_clust_9="23.38544" pt_clust_10="273.54480"></scales>
<clustering>
<clus scale="   23.385">  2  9  1 -1</clus>
<clus scale="   89.461">  7  8 -1 -1</clus>
<clus scale="   91.185">  5  6 -1 -1</clus>
<clus scale="  189.211">  1  5  2 -1</clus>
<clus scale="  273.545">  2 10  1 -1</clus>
<clus scale="   23.385">  2  5  1 -1</clus>
</clustering>
</event>
<event>
10    2  0.2421970E-006  0.1014778E+03  0.7546771E-02  0.1277330E+00
         21   -1    0    0  503  502  0.00000000000E+00  0.00000000000E+00  0.61813792476E+03  0.61813792476E+03  0.00000000000E+00 0. -1.
         -1   -1    0    0    0  501 -0.00000000000E+00 -0.00000000000E+00 -0.36634396000E+02  0.36634396000E+02  0.00000000000E+00 0.  1.
         23    2    1    2    0    0  0.23677413265E+02  0.32869639654E+02  0.24006348830E+03  0.25958981401E+03  0.90085292988E+02 0.  0.
         23    2    1    2    0    0 -0.53599176339E+02 -0.18538317280E+02  0.24112581116E+03  0.26366102498E+03  0.90326841942E+02 0.  0.
        -11    1    3    3    0    0  0.50799267522E+02  0.88842031093E+00  0.17464679249E+03  0.18188693466E+03  0.00000000000E+00 0.  1.
         11    1    3    3    0    0 -0.27121854257E+02  0.31981219343E+02  0.65416695805E+02  0.77702879349E+02  0.00000000000E+00 0. -1.
        -13    1    4    4    0    0 -0.25936472159E+02 -0.44135266449E+02  0.60998758045E+02  0.79633352407E+02  0.00000000000E+00 0.  1.
         13    1    4    4    0    0 -0.27662704180E+02  0.25596949169E+02  0.18012705312E+03  0.18402767258E+03  0.00000000000E+00 0. -1.
         21    1    1    2  503  501  0.15311751053E+02 -0.39391831881E+02  0.21251903011E+02  0.47305491445E+02  0.00000000000E+00 0.  1.
         -1    1    1    2    0  502  0.14610012020E+02  0.25060509507E+02  0.79062326282E+02  0.84215990317E+02  0.00000000000E+00 0.  1.
<scales pt_clust_5="13000.00000" pt_clust_6="13000.00000" pt_clust_7="13000.00000" pt_clust_8="13000.00000" pt_clust_9="41.13441" pt_clust_10="29.00830"></scales>
<clustering>
<clus scale="   29.008">  1 10  2 -1</clus>
<clus scale="   41.134">  2  9  1 -1</clus>
<clus scale="   90.085">  5  6 -1 -1</clus>
<clus scale="   90.327">  7  8 -1 -1</clus>
<clus scale="  101.263">  2  5  1 -1</clus>
<clus scale="   29.008">  1  5  2 -1</clus>
</clustering>
</event>
<event>
10    2  0.2421970E-006  0.2249655E+03  0.7546771E-02  0.1157280E+00
          1   -1    0    0  503    0 -0.00000000000E+00  0.00000000000E+00  0.15179215412E+04  0.15179215412E+04  0.00000000000E+00 0. -1.
         21   -1    0    0  501  502  0.00000000000E+00 -0.00000000000E+00 -0.82030392828E+02  0.82030392828E+02  0.00000000000E+00 0.  1.
         23    2    1    2    0    0  0.18369373238E+02  0.25459800556E+02  0.32021781985E+03  0.34133110780E+03  0.11393786765E+03 0.  0.
         23    2    1    2    0    0 -0.10578570093E+03 -0.16580373859E+03  0.14792633495E+03  0.26419036700E+03  0.96087747365E+02 0.  0.
        -13    1    3    3    0    0  0.36932606341E+01 -0.45175060292E+02  0.14225174494E+03  0.14929830938E+03  0.00000000000E+00 0. -1.
         13    1    3    3    0    0  0.14676112604E+02  0.70634860849E+02  0.17796607491E+03  0.19203279841E+03  0.00000000000E+00 0.  1.
        -13    1    4    4    0    0 -0.23078676861E+02  0.25030025921E+01  0.44099766690E+02  0.49836530475E+02  0.00000000000E+00 0. -1.
         13    1    4    4    0    0 -0.82707024069E+02 -0.16830674118E+03  0.10382656826E+03  0.21435383653E+03  0.00000000000E+00 0.  1.
         21    1    1    2  503  502  0.81235487759E+02  0.16398946830E+03  0.93914035236E+03  0.95680528407E+03  0.00000000000E+00 0. -1.
          1    1    1    2  501    0  0.61808399331E+01 -0.23645530268E+02  0.28606641180E+02  0.37625175130E+02  0.00000000000E+00 0. -1.
<scales pt_clust_5="13000.00000" pt_clust_6="13000.00000" pt_clust_7="13000.00000" pt_clust_8="13000.00000" pt_clust_9="203.41242" pt_clust_10="24.44001"></scales>
<clustering>
<clus scale="   24.440">  2 10  1 -1</clus>
<clus scale="   96.088">  7  8 -1 -1</clus>
<clus scale="  113.938">  5  6 -1 -1</clus>
<clus scale="  117.667">  1  5  2 -1</clus>
<clus scale="  203.412">  1  9  2 -1</clus>
<clus scale="   24.440">  2  5  1 -1</clus>
</clustering>
</event>
<event>
10    2  0.2421970E-006  0.1332986E+03  0.7546771E-02  0.1242395E+00
         21   -1    0    0  503  502  0.00000000000E+00  0.00000000000E+00  0.74898529571E+02  0.74898529571E+02  0.00000000000E+00 0.  1.
         -1   -1    0    0    0  501 -0.00000000000E+00 -0.00000000000E+00 -0.56164791587E+03  0.56164791587E+03  0.00000000000E+00 0.  1.
         23    2    1    2    0    0  0.32360966134E+01 -0.30526281373E+02 -0.62353949000E+02  0.10978945701E+03  0.84990492056E+02 0.  0.
         23    2    1    2    0    0  0.12163115809E+03  0.25954536788E+02 -0.28277334506E+03  0.32252564131E+03  0.92705167229E+02 0.  0.
        -11    1    4    4    0    0  0.96434866137E+02 -0.19860868387E+02 -0.14598348603E+03  0.17608326353E+03  0.00000000000E+00 0.  1.
         11    1    4    4    0    0  0.25196291952E+02  0.45815405175E+02 -0.13678985902E+03  0.14644237778E+03  0.00000000000E+00 0. -1.
        -13    1    3    3    0    0 -0.37925027547E+02 -0.27241553407E+02 -0.45478832748E+02  0.65182314891E+02  0.00000000000E+00 0.  1.
         13    1    3    3    0    0  0.41161124160E+02 -0.32847279653E+01 -0.16875116252E+02  0.44607142124E+02  0.00000000000E+00 0. -1.
         21    1    1    2  503  501 -0.39474524140E+02  0.27740147433E+02 -0.89134856448E+02  0.10135470620E+03  0.00000000000E+00 0.  1.
         -1    1    1    2    0  502 -0.85392730563E+02 -0.23168402848E+02 -0.52487235794E+02  0.10287664091E+03  0.00000000000E+00 0.  1.
<scales pt_clust_5="13000.00000" pt_clust_6="13000.00000" pt_clust_7="13000.00000" pt_clust_8="13000.00000" pt_clust_9="48.24680" pt_clust_10="95.78236"></scales>
<clustering>
<clus scale="   48.247">  2  9  1 -1</clus>
<clus scale="   84.990">  7  8 -1 -1</clus>
<clus scale="   88.799">  2  7  1 -1</clus>
<clus scale="   92.705">  5  6 -1 -1</clus>
<clus scale="   95.782">  1 10  2 -1</clus>
<clus scale="   95.782">  1  5  2 -1</clus>
</clustering>
</event>
<event>
10    2  0.2421970E-006  0.1671878E+03  0.7546771E-02  0.1181420E+00
          4   -1    0    0  503    0 -0.00000000000E+00  0.00000000000E+00  0.77469411653E+03  0.77469411653E+03  0.00000000000E+00 0. -1.
         21   -1    0    0  501  502  0.00000000000E+00 -0.00000000000E+00 -0.62761617265E+02  0.62761617265E+02  0.00000000000E+00 0. -1.
         23    2    1    2    0    0 -0.79855541113E+02  0.10228397305E+03  0.39617551762E+03  0.42703369785E+03  0.92540908529E+02 0.  0.
         23    2    1    2    0    0  0.33893046295E+02 -0.14895033001E+03  0.25427749813E+03  0.30952294096E+03  0.88388152632E+02 0.  0.
        -13    1    3    3    0    0  0.20560980803E+02  0.95097987164E+01  0.54271955350E+02  0.58810163583E+02  0.00000000000E+00 0.  1.
         13    1    3    3    0    0 -0.10041652192E+03  0.92774174332E+02  0.34190356227E+03  0.36822353427E+03  0.00000000000E+00 0. -1.
        -13    1    4    4    0    0  0.23626716972E+02 -0.20867531074E+02  0.92563828996E+01  0.32853557378E+02  0.00000000000E+00 0.  1.
         13    1    4    4    0    0  0.10266329323E+02 -0.12808279894E+03  0.24502111523E+03  0.27666938358E+03  0.00000000000E+00 0. -1.
         21    1    1    2  503  502  0.57457176467E+01  0.24017835209E+02  0.46012441140E+02  0.52220823616E+02  0.00000000000E+00 0. -1.
          4    1    1    2  501    0  0.40216777171E+02  0.22648521755E+02  0.15467042378E+02  0.48678271371E+02  0.00000000000E+00 0. -1.
<scales pt_clust_5="13000.00000" pt_clust_6="13000.00000" pt_clust_7="13000.00000" pt_clust_8="13000.00000" pt_clust_9="24.69554" pt_clust_10="46.90474"></scales>
<clustering>
<clus scale="   24.696">  1  9  2 -1</clus>
<clus scale="   46.905">  2 10  1 -1</clus>
<clus scale="   88.388">  7  8 -1 -1</clus>
<clus scale="   92.541">  5  6 -1 -1</clus>
<clus scale="  164.925">  2  7  1 -1</clus>
<clus scale="   46.905">  2  5  1 -1</clus>
</clustering>
</event>
<event>
10    2  0.2421970E-006  0.2032892E+03  0.7546771E-02  0.1148509E+00
          1   -1    0    0  503    0 -0.00000000000E+00  0.00000000000E+00  0.10314182159E+04  0.10314182159E+04  0.00000000000E+00 0. -1.
         21   -1    0    0  501  502  0.00000000000E+00 -0.00000000000E+00 -0.13483916572E+03  0.13483916572E+03  0.00000000000E+00 0. -1.
         23    2    1    2    0    0 -0.26492920758E+02 -0.18621049288E+03  0.41833741252E+03  0.47067271822E+03  0.10559542818E+03 0.  0.
         23    2    1    2    0    0 -0.12236620660E+03  0.14777104749E+03  0.39375812229E+03  0.44735851215E+03  0.90963775918E+02 0.  0.
        -11    1    4    4    0    0 -0.27492694638E+02  0.87417300382E+02  0.23977863982E+03  0.25669325815E+03  0.00000000000E+00 0. -1.
         11    1    4    4    0    0 -0.94873511963E+02  0.60353747106E+02  0.15397948248E+03  0.19066525401E+03  0.00000000000E+00 0.  1.
        -13    1    3    3    0    0 -0.53328573290E+02 -0.16472333290E+03  0.38777770903E+03  0.42467548169E+03  0.00000000000E+00 0. -1.
         13    1    3    3    0    0  0.26835652531E+02 -0.21487159977E+02  0.30559703494E+02  0.45997236529E+02  0.00000000000E+00 0.  1.
         21    1    1    2  503  502  0.18933438188E+03  0.30341327479E+02  0.64022975483E+02  0.20215599349E+03  0.00000000000E+00 0. -1.
          1    1    1    2  501    0 -0.40475254522E+02  0.80981179100E+01  0.20460539854E+02  0.46070157732E+02  0.00000000000E+00 0. -1.
<scales pt_clust_5="13000.00000" pt_clust_6="13000.00000" pt_clust_7="13000.00000" pt_clust_8="13000.00000" pt_clust_9="170.05199" pt_clust_10="41.27742"></scales>
<clustering>
<clus scale="   41.277">  2 10  1 -1</clus>
<clus scale="   90.964">  5  6 -1 -1</clus>
<clus scale="  105.595">  7  8 -1 -1</clus>
<clus scale="  170.052">  2  9  1 -1</clus>
<clus scale="  196.088">  2  5  1 -1</clus>
<clus scale="   41.277">  2  5  1 -1</clus>
</clustering>
</event>
<event>
10    2  0.2421970E-006  0.2155779E+03  0.7546771E-02  0.1164195E+00
         -3   -1    0    0    0  501 -0.00000000000E+00  0.00000000000E+00  0.32809605087E+03  0.32809605087E+03  0.00000000000E+00 0.  1.
         21   -1    0    0  501  502  0.00000000000E+00 -0.00000000000E+00 -0.34306233292E+03  0.34306233292E+03  0.00000000000E+00 0.  1.
         23    2    1    2    0    0 -0.50400707199E+02  0.38485613329E+02  0.12466159982E+03  0.16850950895E+03  0.93987054512E+02 0.  0.
         23    2    1    2    0    0 -0.10440925857E+03 -0.18290306322E+03 -0.15495819036E+03  0.27845454471E+03  0.95760476702E+02 0.  0.
        -11    1    4    4    0    0  0.14752844422E+02 -0.51457499792E+02 -0.29109575682E+02  0.60933472737E+02  0.00000000000E+00 0. -1.
         11    1    4    4    0    0 -0.11916210300E+03 -0.13144556343E+03 -0.12584861468E+03  0.21752107197E+03  0.00000000000E+00 0.  1.
        -13    1    3    3    0    0  0.21948565085E+02  0.15600896018E+00  0.60901560104E+02  0.64736109484E+02  0.00000000000E+00 0.  1.
         13    1    3    3    0    0 -0.72349272284E+02  0.38329604369E+02  0.63760039716E+02  0.10377339946E+03  0.00000000000E+00 0. -1.
         21    1    1    2  503  502  0.38295387321E+01  0.25196594825E+02 -0.14801618515E+02  0.29472388236E+02  0.00000000000E+00 0. -1.
         -3    1    1    2    0  503  0.15098042704E+03  0.11922085506E+03  0.30131927003E+02  0.19472194190E+03  0.00000000000E+00 0.  1.
<scales pt_clust_5="13000.00000" pt_clust_6="13000.00000" pt_clust_7="13000.00000" pt_clust_8="13000.00000" pt_clust_9="25.48595" pt_clust_10="193.14195"></scales>
<clustering>
<clus scale="   25.486">  2  9  1 -1</clus>
<clus scale="   93.987">  7  8 -1 -1</clus>
<clus scale="   95.760">  5  6 -1 -1</clus>
<clus scale="  113.860">  1  7  2 -1</clus>
<clus scale="  193.142">  2 10  1 -1</clus>
<clus scale="   25.486">  2  5  1 -1</clus>
</clustering>
</event>
<event>
10    2  0.2421970E-006  0.1535236E+03  0.7546771E-02  0.1196338E+00
         21   -1    0    0  503  502  0.00000000000E+00  0.00000000000E+00  0.12479098189E+03  0.12479098189E+03  0.00000000000E+00 0. -1.
          2   -1    0    0  502    0 -0.00000000000E+00 -0.00000000000E+00 -0.37915917498E+03  0.37915917498E+03  0.00000000000E+00 0. -1.
         23    2    1    2    0    0 -0.11404194224E+03  0.10083590793E+03 -0.23108752690E+03  0.29085524979E+03  0.89564983782E+02 0.  0.
         23    2    1    2    0    0  0.76249419197E+02 -0.27840417212E+02 -0.22924553129E+02  0.12356890298E+03  0.90303244074E+02 0.  0.
        -11    1    4    4    0    0  0.69798229061E+02  0.13708209296E+02  0.77067770303E+01  0.71547901397E+02  0.00000000000E+00 0. -1.
         11    1    4    4    0    0  0.64511901354E+01 -0.41548626508E+02 -0.30631330159E+02  0.52021001587E+02  0.00000000000E+00 0.  1.
        -13    1    3    3    0    0 -0.39700787688E+02  0.24528209477E+02 -0.14965717555E+03  0.15676433203E+03  0.00000000000E+00 0.  1.
         13    1    3    3    0    0 -0.74341154551E+02  0.76307698455E+02 -0.81430351357E+02  0.13409091776E+03  0.00000000000E+00 0. -1.
         21    1    1    2  503  501  0.15852989890E+02 -0.20617703427E+02 -0.16111324897E+02  0.30593819196E+02  0.00000000000E+00 0.  1.
          2    1    1    2  501    0  0.21939533153E+02 -0.52377787294E+02  0.15755211843E+02  0.58932184899E+02  0.00000000000E+00 0. -1.
<scales pt_clust_5="13000.00000" pt_clust_6="13000.00000" pt_clust_7="13000.00000" pt_clust_8="13000.00000" pt_clust_9="24.00465" pt_clust_10="89.52530"></scales>
<clustering>
<clus scale="   24.005">  9 10 -1 -1</clus>
<clus scale="   89.525">  1  9  2 -1</clus>
<clus scale="   89.565">  7  8 -1 -1</clus>
<clus scale="   90.303">  5  6 -1 -1</clus>
<clus scale="  153.091">  2  7  1 -1</clus>
<clus scale="   89.525">  1  5  2 -1</clus>
</clustering>
</event>
<event>
10    2  0.2421970E-006  0.1170209E+03  0.7546771E-02  0.1253793E+00
          3   -1    0    0  503    0 -0.00000000000E+00  0.00000000000E+00  0.14300727037E+03  0.14300727037E+03  0.00000000000E+00 0. -1.
         21   -1    0    0  501  502  0.00000000000E+00 -0.00000000000E+00 -0.30439053048E+03  0.30439053048E+03  0.00000000000E+00 0. -1.
         23    2    1    2    0    0  0.25543940844E+02 -0.54301852476E+02  0.77315288071E+02  0.13789163272E+03  0.97135289711E+02 0.  0.
         23    2    1    2    0    0  0.25746438037E+02  0.48592808741E+02 -0.18121686698E+03  0.20619009874E+03  0.81551602129E+02 0.  0.
        -11    1    4    4    0    0  0.28505533737E+02 -0.16609816975E+02 -0.65475812526E+02  0.73318029840E+02  0.00000000000E+00 0. -1.
         11    1    4    4    0    0 -0.27590956994E+01  0.65202625716E+02 -0.11574105445E+03  0.13287206890E+03  0.00000000000E+00 0.  1.
        -13    1    3    3    0    0 -0.24029211942E+02  0.93115733334E+01 -0.56686457521E+00  0.25776535065E+02  0.00000000000E+00 0.  1.
         13    1    3    3    0    0  0.49573152786E+02 -0.63613425809E+02  0.77882152646E+02  0.11211509765E+03  0.00000000000E+00 0. -1.
         21    1    1    2  503  502 -0.22167814714E+02 -0.17702216911E+02  0.66089690293E+01  0.29128318942E+02  0.00000000000E+00 0.  1.
          3    1    1    2  501    0 -0.29122564168E+02  0.23411260646E+02 -0.64090650234E+02  0.74187750445E+02  0.00000000000E+00 0. -1.
<scales pt_clust_5="13000.00000" pt_clust_6="13000.00000" pt_clust_7="13000.00000" pt_clust_8="13000.00000" pt_clust_9="28.36865" pt_clust_10="37.63206"></scales>
<clustering>
<clus scale="   28.369">  1  9  2 -1</clus>
<clus scale="   37.632">  2 10  1 -1</clus>
<clus scale="   81.552">  5  6 -1 -1</clus>
<clus scale="   97.135">  7  8 -1 -1</clus>
<clus scale="  104.448">  2  5  1 -1</clus>
<clus scale="   37.632">  2  5  1 -1</clus>
</clustering>
</event>
<event>
10    2  0.2421970E-006  0.1038835E+03  0.7546771E-02  0.1274184E+00
          3   -1    0    0  503    0 -0.00000000000E+00  0.00000000000E+00  0.15818782619E+03  0.15818782619E+03  0.00000000000E+00 0. -1.
         21   -1    0    0  501  502  0.00000000000E+00 -0.00000000000E+00 -0.14517070130E+03  0.14517070130E+03  0.00000000000E+00 0.  1.
         23    2    1    2    0    0  0.16021245568E+02 -0.28196929246E+02  0.29722388675E+02  0.96327302060E+02  0.85695866909E+02 0.  0.
         23    2    1    2    0    0 -0.53826549338E+02  0.55588550715E+02  0.42866930432E+02  0.12613360940E+03  0.89915122815E+02 0.  0.
        -11    1    3    3    0    0 -0.32842977473E+02 -0.16121789514E+02  0.27811271170E+02  0.45956937132E+02  0.00000000000E+00 0. -1.
         11    1    3    3    0    0  0.48864223041E+02 -0.12075139732E+02  0.19111175050E+01  0.50370364928E+02  0.00000000000E+00 0.  1.
        -13    1    4    4    0    0 -0.37531527959E+02  0.11332444914E+01  0.56350949920E+02  0.67715060296E+02  0.00000000000E+00 0. -1.
         13    1    4    4    0    0 -0.16295021379E+02  0.54455306223E+02 -0.13484019488E+02  0.58418549102E+02  0.00000000000E+00 0.  1.
         21    1    1    2  503  502  0.24174698072E+02 -0.52021746247E+00 -0.21596348051E+02  0.32420501264E+02  0.00000000000E+00 0. -1.
          3    1    1    2  501    0  0.13630605699E+02 -0.26871404006E+02 -0.37975846165E+02  0.48477114776E+02  0.00000000000E+00 0. -1.
<scales pt_clust_5="13000.00000" pt_clust_6="13000.00000" pt_clust_7="13000.00000" pt_clust_8="13000.00000" pt_clust_9="24.18029" pt_clust_10="35.17711"></scales>
<clustering>
<clus scale="   24.180">  2  9  1 -1</clus>
<clus scale="   35.177">  2 10  1 -1</clus>
<clus scale="   85.696">  5  6 -1 -1</clus>
<clus scale="   89.915">  7  8 -1 -1</clus>
<clus scale="  100.254">  1  5  2 -1</clus>
<clus scale="   24.180">  2  5  1 -1</clus>
</clustering>
</event>
<event>
10    2  0.2421970E-006  0.9611193E+02  0.7546771E-02  0.1289785E+00
         21   -1    0    0  503  502  0.00000000000E+00  0.00000000000E+00  0.11520793428E+03  0.11520793428E+03  0.00000000000E+00 0. -1.
          1   -1    0    0  502    0 -0.00000000000E+00 -0.00000000000E+00 -0.31406412630E+03  0.31406412630E+03  0.00000000000E+00 0. -1.
         23    2    1    2    0    0 -0.20285452793E+02 -0.32173046941E+01 -0.23576923023E+03  0.25473736162E+03  0.94245121033E+02 0.  0.
         23    2    1    2    0    0 -0.19997100830E+01  0.38000666648E+02 -0.85987993351E+01  0.10016442164E+03  0.92254661165E+02 0.  0.
        -11    1    4    4    0    0 -0.31268932350E+02  0.55648561074E+02  0.34494119605E+01  0.63925010151E+02  0.00000000000E+00 0. -1.
         11    1    4    4    0    0  0.29269222267E+02 -0.17647894425E+02 -0.12048211296E+02  0.36239411491E+02  0.00000000000E+00 0.  1.
        -11    1    3    3    0    0  0.33901340559E+02 -0.20403880617E+02 -0.10048494724E+03  0.10799464736E+03  0.00000000000E+00 0.  1.
         11    1    3    3    0    0 -0.54186793352E+02  0.17186575923E+02 -0.13528428299E+03  0.14674271426E+03  0.00000000000E+00 0. -1.
         21    1    1    2  503  501  0.22064324207E+02  0.13433169218E+01  0.12300387734E+02  0.25297004595E+02  0.00000000000E+00 0. -1.
          1    1    1    2  501    0  0.22083866955E+00 -0.36126678876E+02  0.33211449820E+02  0.49073272720E+02  0.00000000000E+00 0. -1.
<scales pt_clust_5="13000.00000" pt_clust_6="13000.00000" pt_clust_7="13000.00000" pt_clust_8="13000.00000" pt_clust_9="22.10518" pt_clust_10="36.83629"></scales>
<clustering>
<clus scale="   22.105">  1  9  2 -1</clus>
<clus scale="   36.836">  1 10  2 -1</clus>
<clus scale="   92.255">  5  6 -1 -1</clus>
<clus scale="   94.161">  1  5  2 -1</clus>
<clus scale="   94.245">  7  8 -1 -1</clus>
<clus scale="   22.105">  1  5  2 -1</clus>
</clustering>
</event>
<event>
10    2  0.2421970E-006  0.1711299E+03  0.7546771E-02  0.1190018E+00
          1   -1    0    0  502    0 -0.00000000000E+00  0.00000000000E+00  0.28907207181E+03  0.28907207181E+03  0.00000000000E+00 0. -1.
         21   -1    0    0  503  502  0.00000000000E+00 -0.00000000000E+00 -0.21499882725E+03  0.21499882725E+03  0.00000000000E+00 0.  1.
         23    2    1    2    0    0 -0.85970258509E+02  0.26794951366E+02 -0.35536101875E+02  0.13188094624E+03  0.89559559392E+02 0.  0.
         23    2    1    2    0    0  0.85666453409E+02  0.12275546990E+03  0.12965156335E+03  0.21851939700E+03  0.92377228562E+02 0.  0.
        -11    1    3    3    0    0 -0.83439019517E+02 -0.11677589275E+02 -0.82676750935E+01  0.84656898837E+02  0.00000000000E+00 0.  1.
         11    1    3    3    0    0 -0.25312389914E+01  0.38472540640E+02 -0.27268426781E+02  0.47224047405E+02  0.00000000000E+00 0. -1.
        -13    1    4    4    0    0  0.41955521599E+02  0.64272600886E+02  0.87093317972E+01  0.77246912415E+02  0.00000000000E+00 0.  1.
         13    1    4    4    0    0  0.43710931810E+02  0.58482869011E+02  0.12094223156E+03  0.14127248459E+03  0.00000000000E+00 0. -1.
         21    1    1    2  503  501  0.11877653908E+02 -0.63746576946E+02 -0.19516647431E+00  0.64843988346E+02  0.00000000000E+00 0.  1.
          1    1    1    2  501    0 -0.11573848808E+02 -0.85803844316E+02 -0.19847050445E+02  0.88826567462E+02  0.00000000000E+00 0. -1.
<scales pt_clust_5="13000.00000" pt_clust_6="13000.00000" pt_clust_7="13000.00000" pt_clust_8="13000.00000" pt_clust_9="25.19416" pt_clust_10="146.96740"></scales>
<clustering>
<clus scale="   25.194">  9 10 -1 -1</clus>
<clus scale="   89.560">  5  6 -1 -1</clus>
<clus scale="   92.377">  7  8 -1 -1</clus>
<clus scale="  127.003">  1  5  2 -1</clus>
<clus scale="  146.967">  2  9  1 -1</clus>
<clus scale="  146.967">  2  5  1 -1</clus>
</clustering>
</event>
<event>
10    2  0.2421970E-006  0.1352150E+03  0.7546771E-02  0.1220228E+00
         21   -1    0    0  503  502  0.00000000000E+00  0.00000000000E+00  0.59650492336E+03  0.59650492336E+03  0.00000000000E+00 0.  1.
         -1   -1    0    0    0  501 -0.00000000000E+00 -0.00000000000E+00 -0.15184393045E+03  0.15184393045E+03  0.00000000000E+00 0.  1.
         23    2    1    2    0    0  0.23888573953E+02 -0.10122142609E+03 -0.94393421893E+02  0.16734721011E+03  0.90986425190E+02 0.  0.
         23    2    1    2    0    0 -0.58808516710E+02  0.45367757618E+02  0.42086565112E+03  0.43667538424E+03  0.89670618637E+02 0.  0.
        -11    1    3    3    0    0  0.48849547923E+02 -0.88751880133E+02 -0.95771679777E+02  0.13941086474E+03  0.00000000000E+00 0.  1.
         11    1    3    3    0    0 -0.24960973970E+02 -0.12469545960E+02  0.13782578843E+01  0.27936345372E+02  0.00000000000E+00 0. -1.
        -13    1    4    4    0    0 -0.70380843072E+02  0.63580480743E+02  0.34521567293E+03  0.35800810247E+03  0.00000000000E+00 0.  1.
         13    1    4    4    0    0  0.11572326362E+02 -0.18212723125E+02  0.75649978191E+02  0.78667281772E+02  0.00000000000E+00 0. -1.
         21    1    1    2  503  501  0.29115792667E+02  0.10156594656E+02  0.22646006592E+02  0.38258690676E+02  0.00000000000E+00 0. -1.
         -1    1    1    2    0  502  0.58041500892E+01  0.45697073819E+02  0.95542757093E+02  0.10606756878E+03  0.00000000000E+00 0.  1.
<scales pt_clust_5="13000.00000" pt_clust_6="13000.00000" pt_clust_7="13000.00000" pt_clust_8="13000.00000" pt_clust_9="30.83644" pt_clust_10="46.57727"></scales>
<clustering>
<clus scale="   30.836">  2  9  1 -1</clus>
<clus scale="   46.577">  1 10  2 -1</clus>
<clus scale="   89.671">  7  8 -1 -1</clus>
<clus scale="   90.986">  5  6 -1 -1</clus>
<clus scale="  134.333">  1  7  2 -1</clus>
<clus scale="   46.577">  1  5  2 -1</clus>
</clustering>
</event>
<event>
10    2  0.2421970E-006  0.1331260E+03  0.7546771E-02  0.1224262E+00
         -2   -1    0    0    0  501 -0.00000000000E+00  0.00000000000E+00  0.30074135664E+03  0.30074135664E+03  0.00000000000E+00 0.  1.
         21   -1    0    0  503  502  0.00000000000E+00 -0.00000000000E+00 -0.23347926916E+03  0.23347926916E+03  0.00000000000E+00 0.  1.
         23    2    1    2    0    0  0.40733681954E+02  0.70229779174E+02  0.14300374087E+03  0.18983925931E+03  0.94854729700E+02 0.  0.
         23    2    1    2    0    0 -0.33991206821E+01 -0.12874914910E+03  0.72204726713E+02  0.17266260152E+03  0.89503932804E+02 0.  0.
        -11    1    3    3    0    0  0.16246833072E+02 -0.17684984810E+02  0.66667578715E+02  0.70861021191E+02  0.00000000000E+00 0. -1.
         11    1    3    3    0    0  0.24486848881E+02  0.87914763984E+02  0.76336162153E+02  0.11897823812E+03  0.00000000000E+00 0.  1.
        -13    1    4    4    0    0  0.42864252386E+02 -0.69051090112E+02  0.35458801308E+02  0.88672001041E+02  0.00000000000E+00 0.  1.
         13    1    4    4    0    0 -0.46263373068E+02 -0.59698058992E+02  0.36745925405E+02  0.83990600479E+02  0.00000000000E+00 0. -1.
         21    1    1    2  503  501 -0.48352511304E+01  0.40809157828E+02 -0.38990852614E+02  0.56648509280E+02  0.00000000000E+00 0. -1.
         -2    1    1    2    0  502 -0.32499310141E+02  0.17710212102E+02 -0.10895552749E+03  0.11507025568E+03  0.00000000000E+00 0.  1.
<scales pt_clust_5="13000.00000" pt_clust_6="13000.00000" pt_clust_7="13000.00000" pt_clust_8="13000.00000" pt_clust_9="50.93010" pt_clust_10="37.01158"></scales>
<clustering>
<clus scale="   37.012">  2 10  1 -1</clus>
<clus scale="   50.930">  2  9  1 -1</clus>
<clus scale="   89.504">  7  8 -1 -1</clus>
<clus scale="   94.855">  5  6 -1 -1</clus>
<clus scale="  129.368">  2  7  1 -1</clus>
<clus scale="   37.012">  2  5  1 -1</clus>
</clustering>
</event>
<event>
10    2  0.2421970E-006  0.2201365E+03  0.7546771E-02  0.1148486E+00
         21   -1    0    0  503  502  0.00000000000E+00  0.00000000000E+00  0.53541432114E+02  0.53541432114E+02  0.00000000000E+00 0.  1.
          1   -1    0    0  502    0 -0.00000000000E+00 -0.00000000000E+00 -0.17119266269E+04  0.17119266269E+04  0.00000000000E+00 0. -1.
         23    2    1    2    0    0 -0.11547488275E+03  0.45590348074E+02 -0.49532440833E+03  0.51886401961E+03  0.91981916580E+02 0.  0.
         23    2    1    2    0    0  0.26517558393E+03 -0.73990311661E+02 -0.70221406787E+03  0.75969699283E+03  0.90786933333E+02 0.  0.
        -11    1    3    3    0    0 -0.39065414397E+02 -0.23597208191E+02 -0.93718640617E+02  0.10424067553E+03  0.00000000000E+00 0.  1.
         11    1    3    3    0    0 -0.76409468353E+02  0.69187556265E+02 -0.40160576771E+03  0.41462334408E+03  0.00000000000E+00 0. -1.
        -11    1    4    4    0    0  0.23797485260E+03 -0.59317041732E+02 -0.67618948059E+03  0.71929323336E+03  0.00000000000E+00 0.  1.
         11    1    4    4    0    0  0.27200731337E+02 -0.14673269928E+02 -0.26024587288E+02  0.40403759468E+02  0.00000000000E+00 0. -1.
         21    1    1    2  503  501 -0.90731864268E+02  0.19978660296E+02 -0.22018292367E+03  0.23898104095E+03  0.00000000000E+00 0. -1.
          1    1    1    2  501    0 -0.58968836917E+02  0.84213032903E+01 -0.24066379487E+03  0.24792600557E+03  0.00000000000E+00 0. -1.
<scales pt_clust_5="13000.00000" pt_clust_6="13000.00000" pt_clust_7="13000.00000" pt_clust_8="13000.00000" pt_clust_9="30.82440" pt_clust_10="204.20515"></scales>
<clustering>
<clus scale="   30.824">  9 10 -1 -1</clus>
<clus scale="   90.787">  7  8 -1 -1</clus>
<clus scale="   91.982">  5  6 -1 -1</clus>
<clus scale="  154.511">  2  5  1 -1</clus>
<clus scale="  204.205">  1  9  2 -1</clus>
<clus scale="  204.205">  1  5  2 -1</clus>
</clustering>
</event>
<event>
10    2  0.2421970E-006  0.9640451E+02  0.7546771E-02  0.1289187E+00
         21   -1    0    0  503  502  0.00000000000E+00  0.00000000000E+00  0.29209324815E+03  0.29209324815E+03  0.00000000000E+00 0. -1.
          1   -1    0    0  502    0 -0.00000000000E+00 -0.00000000000E+00 -0.22857257811E+03  0.22857257811E+03  0.00000000000E+00 0. -1.
         23    2    1    2    0    0 -0.95017009581E+01  0.24319557822E+02 -0.17988990309E+03  0.20472246930E+03  0.94176371714E+02 0.  0.
         23    2    1    2    0    0  0.27723900776E+02  0.35260611155E+02  0.57565726084E+02  0.11749292326E+03  0.92080664764E+02 0.  0.
        -11    1    3    3    0    0  0.20107536294E+02 -0.11173908060E+02 -0.46237494337E+01  0.23463765597E+02  0.00000000000E+00 0.  1.
         11    1    3    3    0    0 -0.29609237253E+02  0.35493465883E+02 -0.17526615365E+03  0.18125870370E+03  0.00000000000E+00 0. -1.
        -11    1    4    4    0    0 -0.19074969583E+02  0.33717892500E+02  0.59075104218E+02  0.70644311007E+02  0.00000000000E+00 0.  1.
         11    1    4    4    0    0  0.46798870359E+02  0.15427186548E+01 -0.15093781344E+01  0.46848612253E+02  0.00000000000E+00 0. -1.
         21    1    1    2  503  501 -0.24775396620E+02 -0.29837325603E+02  0.11401530721E+03  0.12043079571E+03  0.00000000000E+00 0. -1.
          1    1    1    2  501    0  0.65531968027E+01 -0.29742843374E+02  0.71829539838E+02  0.78019638000E+02  0.00000000000E+00 0. -1.
<scales pt_clust_5="13000.00000" pt_clust_6="13000.00000" pt_clust_7="13000.00000" pt_clust_8="13000.00000" pt_clust_9="27.49177" pt_clust_10="69.60077"></scales>
<clustering>
<clus scale="   27.492">  9 10 -1 -1</clus>
<clus scale="   69.601">  1  9  2 -1</clus>
<clus scale="   92.081">  7  8 -1 -1</clus>
<clus scale="   94.176">  5  6 -1 -1</clus>
<clus scale="   94.358">  1  7  2 -1</clus>
<clus scale="   69.601">  1  5  2 -1</clus>
</clustering>
</event>
<event>
10    2  0.2421970E-006  0.1553103E+03  0.7546771E-02  0.1205817E+00
          1   -1    0    0  503    0 -0.00000000000E+00  0.00000000000E+00  0.57414353093E+03  0.57414353093E+03  0.00000000000E+00 0. -1.
         21   -1    0    0  501  502  0.00000000000E+00 -0.00000000000E+00 -0.44007225752E+03  0.44007225752E+03  0.00000000000E+00 0. -1.
         23    2    1    2    0    0 -0.18934461986E+02 -0.85297625489E+02 -0.98994450194E+02  0.15935057634E+03  0.89210460409E+02 0.  0.
         23    2    1    2    0    0  0.11879015014E+03  0.15014259337E+03  0.49530358551E+03  0.53880221756E+03  0.91259463709E+02 0.  0.
        -11    1    4    4    0    0  0.57515326117E+02  0.35192270237E+02  0.86068826258E+02  0.10933595692E+03  0.00000000000E+00 0.  1.
         11    1    4    4    0    0  0.61274824018E+02  0.11495032314E+03  0.40923475925E+03  0.42946626063E+03  0.00000000000E+00 0. -1.
        -11    1    3    3    0    0  0.24671745393E+02 -0.74819817060E+02 -0.52032726184E+02  0.94414536168E+02  0.00000000000E+00 0.  1.
         11    1    3    3    0    0 -0.43606207379E+02 -0.10477808429E+02 -0.46961724010E+02  0.64936040174E+02  0.00000000000E+00 0. -1.
         21    1    1    2  503  502 -0.11986389225E+01  0.22504584640E+02  0.49429980391E-01  0.22536537187E+02  0.00000000000E+00 0. -1.
          1    1    1    2  501    0 -0.98657049227E+02 -0.87349552523E+02 -0.26228729189E+03  0.29352645737E+03  0.00000000000E+00 0. -1.
<scales pt_clust_5="13000.00000" pt_clust_6="13000.00000" pt_clust_7="13000.00000" pt_clust_8="13000.00000" pt_clust_9="22.53648" pt_clust_10="125.67025"></scales>
<clustering>
<clus scale="   22.536">  2  9  1 -1</clus>
<clus scale="   89.210">  7  8 -1 -1</clus>
<clus scale="   91.259">  5  6 -1 -1</clus>
<clus scale="  120.399">  1  7  2 -1</clus>
<clus scale="  125.670">  2 10  1 -1</clus>
<clus scale="   22.536">  2  5  1 -1</clus>
</clustering>
</event>
<event>
10    2  0.2421970E-006  0.2127800E+03  0.7546771E-02  0.1177688E+00
          1   -1    0    0  503    0 -0.00000000000E+00  0.00000000000E+00  0.50869972020E+03  0.50869972020E+03  0.00000000000E+00 0. -1.
         21   -1    0    0  501  502  0.00000000000E+00 -0.00000000000E+00 -0.16296905871E+03  0.16296905871E+03  0.00000000000E+00 0. -1.
         23    2    1    2    0    0  0.11538474581E+02  0.18430976097E+02  0.62751033306E+02  0.10680527234E+03  0.83647096440E+02 0.  0.
         23    2    1    2    0    0 -0.76187346805E+02  0.16751321083E+03  0.28093523157E+03  0.34861550945E+03  0.93503911529E+02 0.  0.
        -11    1    3    3    0    0 -0.27581500454E+02 -0.17186092983E+02  0.32021184853E+02  0.45622990243E+02  0.00000000000E+00 0.  1.
         11    1    3    3    0    0  0.39119975035E+02  0.35617069079E+02  0.30729848453E+02  0.61182282096E+02  0.00000000000E+00 0. -1.
        -13    1    4    4    0    0 -0.67024153194E+02  0.10221485596E+03  0.24432978242E+03  0.27319801695E+03  0.00000000000E+00 0. -1.
         13    1    4    4    0    0 -0.91631936109E+01  0.65298354872E+02  0.36605449153E+02  0.75417492493E+02  0.00000000000E+00 0.  1.
         21    1    1    2  503  502  0.24568705428E+02  0.12246591623E+01  0.33862235063E+01  0.24831181730E+02  0.00000000000E+00 0. -1.
          1    1    1    2  501    0  0.40080166796E+02 -0.18716884609E+03 -0.13418268932E+01  0.19141681540E+03  0.00000000000E+00 0. -1.
<scales pt_clust_5="13000.00000" pt_clust_6="13000.00000" pt_clust_7="13000.00000" pt_clust_8="13000.00000" pt_clust_9="24.59921" pt_clust_10="191.13434"></scales>
<clustering>
<clus scale="   24.599">  2  9  1 -1</clus>
<clus scale="   83.647">  5  6 -1 -1</clus>
<clus scale="   87.011">  1  5  2 -1</clus>
<clus scale="   93.504">  7  8 -1 -1</clus>
<clus scale="  191.134">  2 10  1 -1</clus>
<clus scale="   24.599">  2  5  1 -1</clus>
</clustering>
</event>
<event>
10    2  0.2421970E-006  0.3081864E+03  0.7546771E-02  0.1081320E+00
         21   -1    0    0  503  502  0.00000000000E+00  0.00000000000E+00  0.45558519683E+03  0.45558519683E+03  0.00000000000E+00 0. -1.
          3   -1    0    0  502    0 -0.00000000000E+00 -0.00000000000E+00 -0.37280073737E+03  0.37280073737E+03  0.00000000000E+00 0. -1.
         23    2    1    2    0    0  0.25848476631E+03 -0.17105163865E+03 -0.18638948989E+03  0.37305600441E+03  0.91415004165E+02 0.  0.
         23    2    1    2    0    0 -0.17125250283E+03  0.18229166468E+03  0.23620801783E+03  0.35523147975E+03  0.88529688712E+02 0.  0.
        -11    1    4    4    0    0 -0.82962058091E+02  0.38886763183E+02  0.11839651087E+03  0.14970844071E+03  0.00000000000E+00 0.  1.
         11    1    4    4    0    0 -0.88290444743E+02  0.14340490149E+03  0.11781150696E+03  0.20552303904E+03  0.00000000000E+00 0. -1.
        -13    1    3    3    0    0  0.76286780832E+02 -0.80012658016E+01 -0.27618199005E+02  0.81525812480E+02  0.00000000000E+00 0.  1.
         13    1    3    3    0    0  0.18219798548E+03 -0.16305037285E+03 -0.15877129089E+03  0.29153019193E+03  0.00000000000E+00 0. -1.
         21    1    1    2  503  501 -0.27549307386E+02  0.76640982472E+01 -0.14964566304E+01  0.28634631512E+02  0.00000000000E+00 0. -1.
          3    1    1    2  501    0 -0.59682956087E+02 -0.18904124274E+02  0.34462388153E+02  0.71463818531E+02  0.00000000000E+00 0. -1.
<scales pt_clust_5="13000.00000" pt_clust_6="13000.00000" pt_clust_7="13000.00000" pt_clust_8="13000.00000" pt_clust_9="23.38385" pt_clust_10="94.51427"></scales>
<clustering>
<clus scale="   23.384">  9 10 -1 -1</clus>
<clus scale="   88.530">  5  6 -1 -1</clus>
<clus scale="   91.415">  7  8 -1 -1</clus>
<clus scale="   94.514">  1  9  2 -1</clus>
<clus scale="  307.343">  1  5  2 -1</clus>
<clus scale="   94.514">  1  5  2 -1</clus>
</clustering>
</event>
<event>
10    2  0.2421970E-006  0.3894923E+03  0.7546771E-02  0.1047813E+00
         21   -1    0    0  503  502  0.00000000000E+00  0.00000000000E+00  0.36759987405E+03  0.36759987405E+03  0.00000000000E+00 0. -1.
         -2   -1    0    0    0  501 -0.00000000000E+00 -0.00000000000E+00 -0.10611626154E+04  0.10611626154E+04  0.00000000000E+00 0.  1.
         23    2    1    2    0    0  0.24456914930E+03  0.26719536114E+03 -0.67993383815E+03  0.77610185437E+03  0.93896934426E+02 0.  0.
         23    2    1    2    0    0 -0.33758785465E+03 -0.24757403293E+03 -0.14762621092E+03  0.45687497006E+03  0.10808690360E+03 0.  0.
        -11    1    4    4    0    0 -0.11632554022E+03 -0.64411516893E+02 -0.98474737899E+02  0.16546222778E+03  0.00000000000E+00 0.  1.
         11    1    4    4    0    0 -0.22126231443E+03 -0.18316251603E+03 -0.49151473022E+02  0.29141274229E+03  0.00000000000E+00 0. -1.
        -11    1    3    3    0    0  0.68130546207E+02  0.12431389949E+03 -0.19964036055E+03  0.24485095567E+03  0.00000000000E+00 0.  1.
         11    1    3    3    0    0  0.17643860309E+03  0.14288146165E+03 -0.48029347760E+03  0.53125089870E+03  0.00000000000E+00 0. -1.
         21    1    1    2  503  501  0.55095495732E+01  0.33541469134E+02  0.10956301029E+02  0.35713104323E+02  0.00000000000E+00 0.  1.
         -2    1    1    2    0  502  0.87509155779E+02 -0.53162797352E+02  0.12304100668E+03  0.16007256071E+03  0.00000000000E+00 0.  1.
<scales pt_clust_5="13000.00000" pt_clust_6="13000.00000" pt_clust_7="13000.00000" pt_clust_8="13000.00000" pt_clust_9="33.99096" pt_clust_10="98.02835"></scales>
<clustering>
<clus scale="   33.991">  1  9  2 -1</clus>
<clus scale="   93.897">  7  8 -1 -1</clus>
<clus scale="   98.028">  1 10  2 -1</clus>
<clus scale="  108.087">  5  6 -1 -1</clus>
<clus scale="  385.795">  2  7  1 -1</clus>
<clus scale="   33.991">  1  5  2 -1</clus>
</clustering>
</event>
<event>
10    2  0.2421970E-006  0.1910061E+03  0.7546771E-02  0.1171361E+00
         21   -1    0    0  501  502  0.00000000000E+00  0.00000000000E+00  0.60895551149E+02  0.60895551149E+02  0.00000000000E+00 0. -1.
          2   -1    0    0  503    0 -0.00000000000E+00 -0.00000000000E+00 -0.16184522696E+04  0.16184522696E+04  0.00000000000E+00 0. -1.
         23    2    1    2    0    0  0.18912742766E+03  0.52661713757E+02 -0.40561411038E+03  0.46434834698E+03  0.11204526236E+03 0.  0.
         23    2    1    2    0    0 -0.42648178543E+02 -0.74576252709E+02 -0.17809720899E+03  0.21739222837E+03  0.90334270944E+02 0.  0.
        -11    1    3    3    0    0  0.10424777854E+03  0.85587900452E+02 -0.23462703814E+03  0.27063395031E+03  0.00000000000E+00 0. -1.
         11    1    3    3    0    0  0.84879649125E+02 -0.32926186695E+02 -0.17098707224E+03  0.19371439667E+03  0.00000000000E+00 0.  1.
        -11    1    4    4    0    0 -0.10423095520E+02 -0.34194048808E+02 -0.42125334844E+01  0.35994712562E+02  0.00000000000E+00 0. -1.
         11    1    4    4    0    0 -0.32225083023E+02 -0.40382203901E+02 -0.17388467550E+03  0.18139751581E+03  0.00000000000E+00 0.  1.
         21    1    1    2  503  502 -0.13365228576E+03  0.80431384171E+02 -0.67086361780E+03  0.68875985274E+03  0.00000000000E+00 0. -1.
          2    1    1    2  501    0 -0.12826963355E+02 -0.58516845219E+02 -0.30298178131E+03  0.30884739269E+03  0.00000000000E+00 0. -1.
<scales pt_clust_5="13000.00000" pt_clust_6="13000.00000" pt_clust_7="13000.00000" pt_clust_8="13000.00000" pt_clust_9="154.69064" pt_clust_10="59.90622"></scales>
<clustering>
<clus scale="   59.906">  1 10  2 -1</clus>
<clus scale="   90.334">  7  8 -1 -1</clus>
<clus scale="  112.045">  5  6 -1 -1</clus>
<clus scale="  138.861">  1  7  2 -1</clus>
<clus scale="  154.691">  2  9  1 -1</clus>
<clus scale="   59.906">  1  5  2 -1</clus>
</clustering>
</event>
<event>
10    2  0.2421970E-006  0.1345828E+03  0.7546771E-02  0.1222414E+00
         21   -1    0    0  501  502  0.00000000000E+00  0.00000000000E+00  0.45643857406E+03  0.45643857406E+03  0.00000000000E+00 0.  1.
          1   -1    0    0  503    0 -0.00000000000E+00 -0.00000000000E+00 -0.77731096965E+02  0.77731096965E+02  0.00000000000E+00 0. -1.
         23    2    1    2    0    0 -0.26265325837E+02  0.99151224703E+02  0.20863547039E+02  0.14006300433E+03  0.93067313730E+02 0.  0.
         23    2    1    2    0    0 -0.41091642593E+01 -0.82290908319E+02  0.25696873831E+03  0.28338368922E+03  0.86514183943E+02 0.  0.
        -11    1    4    4    0    0  0.23430038304E+02 -0.56808966974E+02  0.22756160884E+03  0.23571277276E+03  0.00000000000E+00 0.  1.
         11    1    4    4    0    0 -0.27539202563E+02 -0.25481941345E+02  0.29407129473E+02  0.47670916462E+02  0.00000000000E+00 0. -1.
        -13    1    3    3    0    0  0.15641064426E+02  0.90226518849E+02  0.29791708791E+02  0.96296487541E+02  0.00000000000E+00 0.  1.
         13    1    3    3    0    0 -0.41906390263E+02  0.89247058543E+01 -0.89281617514E+01  0.43766516788E+02  0.00000000000E+00 0. -1.
         21    1    1    2  503  502  0.19833974194E+02  0.50463975851E+01  0.57000664345E+02  0.60563424578E+02  0.00000000000E+00 0. -1.
          1    1    1    2  501    0  0.10540515902E+02 -0.21906713969E+02  0.43874527401E+02  0.50159552899E+02  0.00000000000E+00 0. -1.
<scales pt_clust_5="13000.00000" pt_clust_6="13000.00000" pt_clust_7="13000.00000" pt_clust_8="13000.00000" pt_clust_9="20.46589" pt_clust_10="24.90295"></scales>
<clustering>
<clus scale="   20.466">  1  9  2 -1</clus>
<clus scale="   24.903">  1 10  2 -1</clus>
<clus scale="   86.514">  5  6 -1 -1</clus>
<clus scale="   93.067">  7  8 -1 -1</clus>
<clus scale="  130.137">  1  5  2 -1</clus>
<clus scale="   20.466">  1  5  2 -1</clus>
</clustering>
</event>
<event>
10    2  0.2421970E-006  0.2225464E+03  0.7546771E-02  0.1165026E+00
         21   -1    0    0  501  502  0.00000000000E+00  0.00000000000E+00  0.60254575505E+03  0.60254575505E+03  0.00000000000E+00 0.  1.
         -1   -1    0    0    0  501 -0.00000000000E+00 -0.00000000000E+00 -0.22220413319E+03  0.22220413319E+03  0.00000000000E+00 0.  1.
         23    2    1    2    0    0  0.19659731509E+02 -0.28788705375E+02 -0.49496085822E+02  0.11295166068E+03  0.95356806466E+02 0.  0.
         23    2    1    2    0    0  0.48526802112E+01  0.22641347542E+03  0.92420608843E+01  0.24384183082E+03  0.89926705785E+02 0.  0.
        -11    1    4    4    0    0 -0.25699606202E+02  0.17749908138E+03 -0.17634365669E+02  0.18021477327E+03  0.00000000000E+00 0.  1.
         11    1    4    4    0    0  0.30552286414E+02  0.48914394032E+02  0.26876426554E+02  0.63627057554E+02  0.00000000000E+00 0. -1.
        -13    1    3    3    0    0 -0.35733212224E+02 -0.46710031971E+01 -0.19839961204E+01  0.36091785316E+02  0.00000000000E+00 0. -1.
         13    1    3    3    0    0  0.55392943733E+02 -0.24117702178E+02 -0.47512089701E+02  0.76859875368E+02  0.00000000000E+00 0.  1.
         21    1    1    2  503  502  0.13417661438E+02 -0.41277014859E+02  0.72879802686E+02  0.84825062532E+02  0.00000000000E+00 0.  1.
         -1    1    1    2    0  503 -0.37930073158E+02 -0.15634775518E+03  0.34771584411E+03  0.38313133420E+03  0.00000000000E+00 0.  1.
<scales pt_clust_5="13000.00000" pt_clust_6="13000.00000" pt_clust_7="13000.00000" pt_clust_8="13000.00000" pt_clust_9="25.58339" pt_clust_10="209.44251"></scales>
<clustering>
<clus scale="   25.583">  9 10 -1 -1</clus>
<clus scale="   89.927">  5  6 -1 -1</clus>
<clus scale="   95.357">  7  8 -1 -1</clus>
<clus scale="  101.529">  2  7  1 -1</clus>
<clus scale="  209.443">  1  9  2 -1</clus>
<clus scale="  209.443">  1  5  2 -1</clus>
</clustering>
</event>
<event>
10    2  0.2421970E-006  0.1919454E+03  0.7546771E-02  0.1157521E+00
          1   -1    0    0  503    0 -0.00000000000E+00  0.00000000000E+00  0.11491212681E+04  0.11491212681E+04  0.00000000000E+00 0. -1.
         21   -1    0    0  501  502  0.00000000000E+00 -0.00000000000E+00 -0.14760499939E+03  0.14760499939E+03  0.00000000000E+00 0. -1.
         23    2    1    2    0    0 -0.81705282463E+02  0.19792616349E+03  0.67166542810E+03  0.70988968100E+03  0.83416979751E+02 0.  0.
         23    2    1    2    0    0  0.14354870702E+02 -0.15050213508E+03 -0.18470130204E+02  0.17752381491E+03  0.91195417515E+02 0.  0.
        -13    1    4    4    0    0  0.37594433309E+02 -0.14047873951E+03  0.12684737809E+01  0.14542773702E+03  0.00000000000E+00 0. -1.
         13    1    4    4    0    0 -0.23239562607E+02 -0.10023395574E+02 -0.19738603985E+02  0.32096077896E+02  0.00000000000E+00 0.  1.
        -13    1    3    3    0    0  0.30980839937E+01  0.22517717759E+02  0.21979661392E+02  0.31618843312E+02  0.00000000000E+00 0.  1.
         13    1    3    3    0    0 -0.84803366456E+02  0.17540844573E+03  0.64968576671E+03  0.67827083769E+03  0.00000000000E+00 0. -1.
         21    1    1    2  503  502  0.13555643028E+03 -0.31444603622E+02  0.27319051845E+03  0.30658990240E+03  0.00000000000E+00 0. -1.
          1    1    1    2  501    0 -0.68206018516E+02 -0.15979424784E+02  0.75130452376E+02  0.10272286918E+03  0.00000000000E+00 0. -1.
<scales pt_clust_5="13000.00000" pt_clust_6="13000.00000" pt_clust_7="13000.00000" pt_clust_8="13000.00000" pt_clust_9="131.37112" pt_clust_10="70.05286"></scales>
<clustering>
<clus scale="   70.053">  2 10  1 -1</clus>
<clus scale="   83.417">  7  8 -1 -1</clus>
<clus scale="   91.195">  5  6 -1 -1</clus>
<clus scale="  131.371">  1  9  2 -1</clus>
<clus scale="  188.374">  1  7  2 -1</clus>
<clus scale="   70.053">  2  5  1 -1</clus>
</clustering>
</event>
<event>
10    2  0.2421970E-006  0.1017133E+03  0.7546771E-02  0.1281859E+00
          2   -1    0    0  503    0 -0.00000000000E+00  0.00000000000E+00  0.48078079204E+03  0.48078079204E+03  0.00000000000E+00 0. -1.
         21   -1    0    0  501  502  0.00000000000E+00 -0.00000000000E+00 -0.21516895851E+03  0.21516895851E+03  0.00000000000E+00 0. -1.
         23    2    1    2    0    0  0.25694735837E+01  0.58445590298E+02  0.25411683737E+03  0.27632611451E+03  0.91423548984E+02 0.  0.
         23    2    1    2    0    0 -0.20544689834E+02  0.49142602817E+02  0.11973195187E+03  0.16163528923E+03  0.94621069183E+02 0.  0.
        -11    1    4    4    0    0  0.19363035063E+00 -0.25594529636E+02  0.10494618763E+02  0.27663233053E+02  0.00000000000E+00 0.  1.
         11    1    4    4    0    0 -0.20738320185E+02  0.74737132453E+02  0.10923733311E+03  0.13397205617E+03  0.00000000000E+00 0. -1.
        -13    1    3    3    0    0  0.32752445410E+02 -0.60669173757E+01  0.49468004536E+02  0.59637351045E+02  0.00000000000E+00 0.  1.
         13    1    3    3    0    0 -0.30182971827E+02  0.64512507674E+02  0.20464883283E+03  0.21668876347E+03  0.00000000000E+00 0. -1.
         21    1    1    2  503  502 -0.33360922895E+02 -0.19800963165E+02  0.54013336024E+02  0.66501652514E+02  0.00000000000E+00 0. -1.
          2    1    1    2  501    0  0.51336139145E+02 -0.87787229950E+02 -0.16225029174E+03  0.19148669430E+03  0.00000000000E+00 0. -1.
<scales pt_clust_5="13000.00000" pt_clust_6="13000.00000" pt_clust_7="13000.00000" pt_clust_8="13000.00000" pt_clust_9="38.79471" pt_clust_10="101.71332"></scales>
<clustering>
<clus scale="   38.795">  1  9  2 -1</clus>
<clus scale="   91.424">  7  8 -1 -1</clus>
<clus scale="   94.621">  5  6 -1 -1</clus>
<clus scale="  101.713">  2 10  1 -1</clus>
<clus scale="   92.250">  1  7  2 -1</clus>
<clus scale="  101.713">  2  5  1 -1</clus>
</clustering>
</event>
<event>
10    2  0.2641271E-006  0.1148573E+03  0.7546771E-02  0.1254341E+00
         21   -1    0    0  503  502  0.00000000000E+00  0.00000000000E+00  0.44033376118E+03  0.44033376118E+03  0.00000000000E+00 0. -1.
          2   -1    0    0  502    0 -0.00000000000E+00 -0.00000000000E+00 -0.61824879374E+03  0.61824879374E+03  0.00000000000E+00 0. -1.
         23    2    1    2    0    0  0.23908140658E+02  0.42529551884E+02 -0.39998825821E+03  0.41523895637E+03  0.10026176842E+03 0.  0.
         23    2    1    2    0    0 -0.11886795165E+03 -0.61263122253E+01 -0.17147645077E+03  0.22884606717E+03  0.93804198513E+02 0.  0.
        -11    1    4    4    0    0 -0.95503842668E+00  0.28339871601E+02 -0.26379934351E+02  0.38729334581E+02  0.00000000000E+00 0.  1.
         11    1    4    4    0    0 -0.11791291323E+03 -0.34466183826E+02 -0.14509651642E+03  0.19011673259E+03  0.00000000000E+00 0. -1.
        -11    1    3    3    0    0  0.60219888338E+02  0.35719059199E+02 -0.31290568985E+03  0.32064350435E+03  0.00000000000E+00 0.  1.
         11    1    3    3    0    0 -0.36311747680E+02  0.68104926849E+01 -0.87082568354E+02  0.94595452012E+02  0.00000000000E+00 0. -1.
         21    1    1    2  503  501  0.48351188530E+02  0.22883608311E+02  0.13628739112E+03  0.14640952817E+03  0.00000000000E+00 0.  1.
          2    1    1    2  501    0  0.46608622466E+02 -0.59286847969E+02  0.25726228530E+03  0.26808800322E+03  0.00000000000E+00 0. -1.
<scales pt_clust_5="13000.00000" pt_clust_6="13000.00000" pt_clust_7="13000.00000" pt_clust_8="13000.00000" pt_clust_9="53.49296" pt_clust_10="97.32366"></scales>
<clustering>
<clus scale="   53.493">  1  9  2 -1</clus>
<clus scale="   93.804">  5  6 -1 -1</clus>
<clus scale="   97.324">  1 10  2 -1</clus>
<clus scale="  100.262">  7  8 -1 -1</clus>
<clus scale="  109.266">  1  5  2 -1</clus>
<clus scale="   53.493">  1  5  2 -1</clus>
</clustering>
</event>
<event>
10    2  0.2421970E-006  0.1034758E+03  0.7546771E-02  0.1273357E+00
         21   -1    0    0  501  502  0.00000000000E+00  0.00000000000E+00  0.18212129442E+03  0.18212129442E+03  0.00000000000E+00 0. -1.
          1   -1    0    0  503    0 -0.00000000000E+00 -0.00000000000E+00 -0.29724633972E+03  0.29724633972E+03  0.00000000000E+00 0. -1.
         23    2    1    2    0    0  0.11557655882E+02  0.26038611923E+02 -0.16922273585E+03  0.19457473854E+03  0.91713716676E+02 0.  0.
         23    2    1    2    0    0  0.30176225859E+02 -0.69703932363E+02  0.11329401827E+03  0.16410994165E+03  0.91254016781E+02 0.  0.
        -11    1    3    3    0    0 -0.17874728438E+01 -0.34245587444E+02 -0.60102550599E+02  0.69197340318E+02  0.00000000000E+00 0.  1.
         11    1    3    3    0    0  0.13345128726E+02  0.60284199368E+02 -0.10912018525E+03  0.12537739822E+03  0.00000000000E+00 0. -1.
        -11    1    4    4    0    0 -0.28167881553E+02 -0.20336854007E+01  0.37489800965E+02  0.46936665880E+02  0.00000000000E+00 0.  1.
         11    1    4    4    0    0  0.58344107412E+02 -0.67670246962E+02  0.75804217307E+02  0.11717327577E+03  0.00000000000E+00 0. -1.
         21    1    1    2  503  502 -0.60661835757E+02  0.39222664081E+01 -0.29385938420E+02  0.67518707541E+02  0.00000000000E+00 0.  1.
          1    1    1    2  501    0  0.18927954015E+02  0.39743054031E+02 -0.29810389297E+02  0.53164246416E+02  0.00000000000E+00 0. -1.
<scales pt_clust_5="13000.00000" pt_clust_6="13000.00000" pt_clust_7="13000.00000" pt_clust_8="13000.00000" pt_clust_9="59.13952" pt_clust_10="44.02022"></scales>
<clustering>
<clus scale="   44.020">  1 10  2 -1</clus>
<clus scale="   59.140">  2  9  1 -1</clus>
<clus scale="   91.254">  7  8 -1 -1</clus>
<clus scale="   91.714">  5  6 -1 -1</clus>
<clus scale="  103.069">  1  7  2 -1</clus>
<clus scale="   44.020">  1  5  2 -1</clus>
</clustering>
</event>
<event>
10    2  0.2421970E-006  0.2864963E+03  0.7546771E-02  0.1092237E+00
         21   -1    0    0  503  502  0.00000000000E+00  0.00000000000E+00  0.91854666448E+02  0.91854666448E+02  0.00000000000E+00 0. -1.
          2   -1    0    0  502    0 -0.00000000000E+00 -0.00000000000E+00 -0.14700983501E+04  0.14700983501E+04  0.00000000000E+00 0. -1.
         23    2    1    2    0    0  0.22502687434E+03 -0.17551012773E+03 -0.92245765119E+03  0.96994415776E+03  0.91775006554E+02 0.  0.
         23    2    1    2    0    0 -0.14679570370E+03  0.19194141508E+03 -0.21438520030E+03  0.33553689245E+03  0.90738672219E+02 0.  0.
        -11    1    3    3    0    0  0.19888879567E+03 -0.18530976501E+03 -0.83335479917E+03  0.87657098021E+03  0.00000000000E+00 0. -1.
         11    1    3    3    0    0  0.26138078676E+02  0.97996372851E+01 -0.89102852023E+02  0.93373177553E+02  0.00000000000E+00 0.  1.
        -13    1    4    4    0    0 -0.36317987153E+02  0.43773847724E+02 -0.63043764216E+01  0.57226664218E+02  0.00000000000E+00 0.  1.
         13    1    4    4    0    0 -0.11047771655E+03  0.14816756736E+03 -0.20808082388E+03  0.27831022823E+03  0.00000000000E+00 0. -1.
         21    1    1    2  503  501 -0.28320919988E+02 -0.17166046024E+02 -0.13410461606E+03  0.13813325339E+03  0.00000000000E+00 0.  1.
          2    1    1    2  501    0 -0.49910250653E+02  0.73475866939E+00 -0.10729621605E+03  0.11833871290E+03  0.00000000000E+00 0. -1.
<scales pt_clust_5="13000.00000" pt_clust_6="13000.00000" pt_clust_7="13000.00000" pt_clust_8="13000.00000" pt_clust_9="27.17908" pt_clust_10="86.62283"></scales>
<clustering>
<clus scale="   27.179">  9 10 -1 -1</clus>
<clus scale="   86.623">  1  9  2 -1</clus>
<clus scale="   90.739">  7  8 -1 -1</clus>
<clus scale="   91.775">  5  6 -1 -1</clus>
<clus scale="  286.166">  1  7  2 -1</clus>
<clus scale="   86.623">  1  5  2 -1</clus>
</clustering>
</event>
<event>
10    2  0.2421970E-006  0.2005765E+03  0.7546771E-02  0.1171436E+00
          1   -1    0    0  503    0 -0.00000000000E+00  0.00000000000E+00  0.40282890793E+03  0.40282890793E+03  0.00000000000E+00 0. -1.
         21   -1    0    0  501  502  0.00000000000E+00 -0.00000000000E+00 -0.41703719745E+03  0.41703719745E+03  0.00000000000E+00 0. -1.
         23    2    1    2    0    0 -0.40967383100E+02 -0.10056090965E+03  0.25166744623E+03  0.28860897845E+03  0.90375969821E+02 0.  0.
         23    2    1    2    0    0 -0.26472997700E+02 -0.14180432318E+03 -0.92484232858E+02  0.19352354981E+03  0.89937452279E+02 0.  0.
        -11    1    4    4    0    0 -0.59819165325E+02 -0.86301441282E+02 -0.52200789405E+02  0.11726548393E+03  0.00000000000E+00 0.  1.
         11    1    4    4    0    0  0.33346167625E+02 -0.55502881903E+02 -0.40283443453E+02  0.76258065876E+02  0.00000000000E+00 0. -1.
        -13    1    3    3    0    0 -0.31799181392E+02 -0.11725512399E+02  0.17826391687E+02  0.38294331419E+02  0.00000000000E+00 0.  1.
         13    1    3    3    0    0 -0.91682017076E+01 -0.88835397250E+02  0.23384105455E+03  0.25031464703E+03  0.00000000000E+00 0. -1.
         21    1    1    2  503  502  0.42598666374E+02  0.30946656572E+02  0.13615296600E+02  0.54384908121E+02  0.00000000000E+00 0.  1.
          1    1    1    2  501    0  0.24841714426E+02  0.21141857626E+03 -0.18700679949E+03  0.28334866899E+03  0.00000000000E+00 0. -1.
<scales pt_clust_5="13000.00000" pt_clust_6="13000.00000" pt_clust_7="13000.00000" pt_clust_8="13000.00000" pt_clust_9="52.65303" pt_clust_10="179.28253"></scales>
<clustering>
<clus scale="   52.653">  1  9  2 -1</clus>
<clus scale="   89.937">  5  6 -1 -1</clus>
<clus scale="   90.376">  7  8 -1 -1</clus>
<clus scale="  119.711">  1  7  2 -1</clus>
<clus scale="  179.283">  2 10  1 -1</clus>
<clus scale="  179.283">  2  5  1 -1</clus>
</clustering>
</event>
<event>
10    2  0.2613361E-006  0.1144330E+03  0.7546771E-02  0.1253912E+00
         21   -1    0    0  501  502  0.00000000000E+00  0.00000000000E+00  0.77047917756E+02  0.77047917756E+02  0.00000000000E+00 0. -1.
          1   -1    0    0  503    0 -0.00000000000E+00 -0.00000000000E+00 -0.81539612017E+03  0.81539612017E+03  0.00000000000E+00 0. -1.
         23    2    1    2    0    0 -0.37600913710E+02 -0.91253306871E+02 -0.47375185599E+03  0.49220963018E+03  0.89936112153E+02 0.  0.
         23    2    1    2    0    0  0.53200633184E+02 -0.43760207567E+01 -0.24450821522E+03  0.26720848138E+03  0.93630381190E+02 0.  0.
        -13    1    3    3    0    0 -0.65162818742E+02 -0.55427111058E+02 -0.35456759568E+03  0.36474174082E+03  0.00000000000E+00 0.  1.
         13    1    3    3    0    0  0.27561905033E+02 -0.35826195813E+02 -0.11918426031E+03  0.12746788937E+03  0.00000000000E+00 0. -1.
        -13    1    4    4    0    0 -0.35203615508E+01  0.26228202395E+02 -0.18755280394E+02  0.32435660761E+02  0.00000000000E+00 0.  1.
         13    1    4    4    0    0  0.56720994735E+02 -0.30604223152E+02 -0.22575293482E+03  0.23477282061E+03  0.00000000000E+00 0. -1.
         21    1    1    2  503  502  0.18822132425E+02  0.44905982588E+02 -0.45524218384E+02  0.66657890760E+02  0.00000000000E+00 0. -1.
          1    1    1    2  501    0 -0.34421851899E+02  0.50723345040E+02  0.25436087169E+02  0.66368035609E+02  0.00000000000E+00 0. -1.
<scales pt_clust_5="13000.00000" pt_clust_6="13000.00000" pt_clust_7="13000.00000" pt_clust_8="13000.00000" pt_clust_9="48.69107" pt_clust_10="84.49068"></scales>
<clustering>
<clus scale="   48.691">  1  9  2 -1</clus>
<clus scale="   84.491">  1 10  2 -1</clus>
<clus scale="   89.936">  5  6 -1 -1</clus>
<clus scale="   93.630">  7  8 -1 -1</clus>
<clus scale="  111.431">  2  5  1 -1</clus>
<clus scale="   48.691">  1  5  2 -1</clus>
</clustering>
</event>
<event>
10    2  0.2421970E-006  0.1113679E+03  0.7546771E-02  0.1258953E+00
         21   -1    0    0  501  502  0.00000000000E+00  0.00000000000E+00  0.63548781015E+02  0.63548781015E+02  0.00000000000E+00 0.  1.
          3   -1    0    0  503    0 -0.00000000000E+00 -0.00000000000E+00 -0.46342343226E+03  0.46342343226E+03  0.00000000000E+00 0. -1.
         23    2    1    2    0    0  0.64408663848E+01 -0.28155812902E+02 -0.26007666377E+03  0.27787211308E+03  0.93481579108E+02 0.  0.
         23    2    1    2    0    0 -0.59267334794E+02  0.58445797838E+02 -0.47142447905E+02  0.13213470332E+03  0.91151748028E+02 0.  0.
        -13    1    4    4    0    0 -0.31973156251E+02  0.69150257854E+02 -0.62949699112E+02  0.98826643675E+02  0.00000000000E+00 0. -1.
         13    1    4    4    0    0 -0.27294178544E+02 -0.10704460015E+02  0.15807251207E+02  0.33308059645E+02  0.00000000000E+00 0.  1.
        -13    1    3    3    0    0 -0.59699601371E+01  0.33925222510E+02 -0.97275821906E+02  0.10319470274E+03  0.00000000000E+00 0. -1.
         13    1    3    3    0    0  0.12410826522E+02 -0.62081035411E+02 -0.16280084186E+03  0.17467741034E+03  0.00000000000E+00 0.  1.
         21    1    1    2  503  502  0.24711649286E+02 -0.34197529121E+02 -0.63797916980E+02  0.76487324567E+02  0.00000000000E+00 0.  1.
          3    1    1    2  501    0  0.28114819123E+02  0.39075441847E+01 -0.28857622592E+02  0.40478072305E+02  0.00000000000E+00 0. -1.
<scales pt_clust_5="13000.00000" pt_clust_6="13000.00000" pt_clust_7="13000.00000" pt_clust_8="13000.00000" pt_clust_9="43.74001" pt_clust_10="28.38507"></scales>
<clustering>
<clus scale="   28.385">  1 10  2 -1</clus>
<clus scale="   43.740">  2  9  1 -1</clus>
<clus scale="   91.152">  5  6 -1 -1</clus>
<clus scale="   93.482">  7  8 -1 -1</clus>
<clus scale="  109.420">  1  5  2 -1</clus>
<clus scale="   28.385">  1  5  2 -1</clus>
</clustering>
</event>
<event>
10    2  0.2421970E-006  0.1145420E+03  0.7546771E-02  0.1252903E+00
         21   -1    0    0  501  502  0.00000000000E+00  0.00000000000E+00  0.58788389601E+03  0.58788389601E+03  0.00000000000E+00 0. -1.
          1   -1    0    0  503    0 -0.00000000000E+00 -0.00000000000E+00 -0.12745712365E+03  0.12745712365E+03  0.00000000000E+00 0. -1.
         23    2    1    2    0    0 -0.43353268434E+02 -0.37646567227E+02 -0.19629076656E+02  0.10923645100E+03  0.90832437313E+02 0.  0.
         23    2    1    2    0    0  0.13365226643E+02  0.99782872102E+02  0.27907714331E+02  0.13940327937E+03  0.92299420004E+02 0.  0.
        -11    1    3    3    0    0 -0.68730772034E+02 -0.24460141721E+02  0.26225217089E+01  0.73000651898E+02  0.00000000000E+00 0. -1.
         11    1    3    3    0    0  0.25377503600E+02 -0.13186425506E+02 -0.22251598365E+02  0.36235799099E+02  0.00000000000E+00 0.  1.
        -13    1    4    4    0    0  0.43493795290E+02  0.14948829282E+02  0.15468516754E+02  0.48522703307E+02  0.00000000000E+00 0.  1.
         13    1    4    4    0    0 -0.30128568648E+02  0.84834042820E+02  0.12439197577E+02  0.90880576068E+02  0.00000000000E+00 0. -1.
         21    1    1    2  503  502 -0.31658077278E+02 -0.21487461896E+02  0.10416243534E+03  0.11096737274E+03  0.00000000000E+00 0. -1.
          1    1    1    2  501    0  0.61646119069E+02 -0.40648842979E+02  0.34798569935E+03  0.35573391655E+03  0.00000000000E+00 0. -1.
<scales pt_clust_5="13000.00000" pt_clust_6="13000.00000" pt_clust_7="13000.00000" pt_clust_8="13000.00000" pt_clust_9="38.26153" pt_clust_10="68.25365"></scales>
<clustering>
<clus scale="   38.262">  1  9  2 -1</clus>
<clus scale="   68.254">  1 10  2 -1</clus>
<clus scale="   90.832">  5  6 -1 -1</clus>
<clus scale="   92.299">  7  8 -1 -1</clus>
<clus scale="  113.363">  2  5  1 -1</clus>
<clus scale="   38.262">  1  5  2 -1</clus>
</clustering>
</event>
<event>
10    2  0.2421970E-006  0.1471198E+03  0.7546771E-02  0.1220652E+00
         21   -1    0    0  501  502  0.00000000000E+00  0.00000000000E+00  0.80591317869E+03  0.80591317869E+03  0.00000000000E+00 0. -1.
          1   -1    0    0  503    0 -0.00000000000E+00 -0.00000000000E+00 -0.28235927975E+03  0.28235927975E+03  0.00000000000E+00 0. -1.
         23    2    1    2    0    0 -0.41908941027E+02 -0.35741570988E+02 -0.16447403665E+03  0.19565954266E+03  0.90537995699E+02 0.  0.
         23    2    1    2    0    0  0.62783501451E+02 -0.89145936612E+02 -0.12239714154E+02  0.14268961806E+03  0.91223628685E+02 0.  0.
        -13    1    3    3    0    0 -0.64671074233E+01  0.30321318719E+02 -0.48825789777E+02  0.57837389245E+02  0.00000000000E+00 0.  1.
         13    1    3    3    0    0 -0.35441833604E+02 -0.66062889708E+02 -0.11564824688E+03  0.13782215341E+03  0.00000000000E+00 0. -1.
        -13    1    4    4    0    0 -0.44523985970E+01 -0.64008664915E+02  0.15034817733E+02  0.65901280577E+02  0.00000000000E+00 0. -1.
         13    1    4    4    0    0  0.67235900048E+02 -0.25137271697E+02 -0.27274531887E+02  0.76788337482E+02  0.00000000000E+00 0.  1.
         21    1    1    2  503  502 -0.95679882864E+02  0.78416901242E+02  0.15858844565E+03  0.20113215924E+03  0.00000000000E+00 0.  1.
          1    1    1    2  501    0  0.74805322440E+02  0.46470606359E+02  0.54167920410E+03  0.54879113848E+03  0.00000000000E+00 0. -1.
<scales pt_clust_5="13000.00000" pt_clust_6="13000.00000" pt_clust_7="13000.00000" pt_clust_8="13000.00000" pt_clust_9="115.42302" pt_clust_10="88.06449"></scales>
<clustering>
<clus scale="   88.064">  1 10  2 -1</clus>
<clus scale="   90.538">  5  6 -1 -1</clus>
<clus scale="   91.224">  7  8 -1 -1</clus>
<clus scale="  103.368">  2  5  1 -1</clus>
<clus scale="  115.423">  1  9  2 -1</clus>
<clus scale="   88.064">  1  5  2 -1</clus>
</clustering>
</event>
<event>
10    2  0.2421970E-006  0.9339673E+02  0.7546771E-02  0.1294968E+00
         21   -1    0    0  503  502  0.00000000000E+00  0.00000000000E+00  0.78310166817E+02  0.78310166817E+02  0.00000000000E+00 0. -1.
          1   -1    0    0  502    0 -0.00000000000E+00 -0.00000000000E+00 -0.33461381019E+03  0.33461381019E+03  0.00000000000E+00 0. -1.
         23    2    1    2    0    0  0.56846883803E+01  0.17765683381E+02 -0.22719368847E+03  0.24592916189E+03  0.92283505584E+02 0.  0.
         23    2    1    2    0    0  0.37888238210E+02  0.81726832201E+01 -0.40286447714E+02  0.10810444106E+03  0.92527082312E+02 0.  0.
        -13    1    3    3    0    0  0.81079969433E+01  0.49462461727E+02 -0.19230554892E+03  0.19873021633E+03  0.00000000000E+00 0. -1.
         13    1    3    3    0    0 -0.24233085630E+01 -0.31696778345E+02 -0.34888139542E+02  0.47198945566E+02  0.00000000000E+00 0.  1.
        -13    1    4    4    0    0  0.45126462078E+02 -0.33240348477E+02 -0.11672984073E+02  0.57250125797E+02  0.00000000000E+00 0.  1.
         13    1    4    4    0    0 -0.72382238675E+01  0.41413031697E+02 -0.28613463641E+02  0.50854315261E+02  0.00000000000E+00 0. -1.
         21    1    1    2  503  501 -0.20942765889E+02 -0.10603234682E+02  0.19281335100E+02  0.30377588977E+02  0.00000000000E+00 0. -1.
          1    1    1    2  501    0 -0.22630160702E+02 -0.15335131920E+02 -0.81048422923E+01  0.28512785079E+02  0.00000000000E+00 0. -1.
<scales pt_clust_5="13000.00000" pt_clust_6="13000.00000" pt_clust_7="13000.00000" pt_clust_8="13000.00000" pt_clust_9="23.47399" pt_clust_10="31.78443"></scales>
<clustering>
<clus scale="   23.474">  1  9  2 -1</clus>
<clus scale="   31.784">  1 10  2 -1</clus>
<clus scale="   92.284">  5  6 -1 -1</clus>
<clus scale="   92.527">  7  8 -1 -1</clus>
<clus scale="   93.155">  2  5  1 -1</clus>
<clus scale="   23.474">  1  5  2 -1</clus>
</clustering>
</event>
<event>
10    2  0.2421970E-006  0.2691148E+03  0.7546771E-02  0.1132082E+00
          2   -1    0    0  502    0 -0.00000000000E+00  0.00000000000E+00  0.81622880527E+03  0.81622880527E+03  0.00000000000E+00 0. -1.
         21   -1    0    0  503  502  0.00000000000E+00 -0.00000000000E+00 -0.19425828018E+03  0.19425828018E+03  0.00000000000E+00 0. -1.
         23    2    1    2    0    0 -0.53901038095E+02  0.56014463100E+02  0.61993933703E+02  0.13304677117E+03  0.88403922529E+02 0.  0.
         23    2    1    2    0    0  0.55837349744E+02 -0.33282286165E+03  0.27842416780E+03  0.44669143004E+03  0.90135173986E+02 0.  0.
        -11    1    4    4    0    0  0.44895902915E+02 -0.53834606124E+02  0.56569704996E+02  0.90077402485E+02  0.00000000000E+00 0.  1.
         11    1    4    4    0    0  0.10941446828E+02 -0.27898825553E+03  0.22185446280E+03  0.35661402755E+03  0.00000000000E+00 0. -1.
        -11    1    3    3    0    0 -0.35439963322E+02  0.28845199311E+02 -0.16002172154E+02  0.48415968825E+02  0.00000000000E+00 0. -1.
         11    1    3    3    0    0 -0.18461074773E+02  0.27169263790E+02  0.77996105857E+02  0.84630802345E+02  0.00000000000E+00 0.  1.
         21    1    1    2  503  501  0.41506508101E+02  0.91043143674E+02  0.12374547856E+02  0.10082050218E+03  0.00000000000E+00 0. -1.
          2    1    1    2  501    0 -0.43442819749E+02  0.18576525488E+03  0.26917787573E+03  0.32992838206E+03  0.00000000000E+00 0. -1.
<scales pt_clust_5="13000.00000" pt_clust_6="13000.00000" pt_clust_7="13000.00000" pt_clust_8="13000.00000" pt_clust_9="100.05820" pt_clust_10="253.57145"></scales>
<clustering>
<clus scale="   88.404">  7  8 -1 -1</clus>
<clus scale="   90.135">  5  6 -1 -1</clus>
<clus scale="  100.058">  2  9  1 -1</clus>
<clus scale="  125.599">  1  7  2 -1</clus>
<clus scale="  253.571">  2 10  1 -1</clus>
<clus scale="  100.058">  2  5  1 -1</clus>
</clustering>
</event>
<event>
10    2  0.2421970E-006  0.9123096E+02  0.7546771E-02  0.1301371E+00
         21   -1    0    0  501  502  0.00000000000E+00  0.00000000000E+00  0.26094835039E+02  0.26094835039E+02  0.00000000000E+00 0.  1.
          1   -1    0    0  503    0 -0.00000000000E+00 -0.00000000000E+00 -0.62956748122E+03  0.62956748122E+03  0.00000000000E+00 0. -1.
         23    2    1    2    0    0  0.15206935186E+02  0.16002274982E+02 -0.31480450966E+03  0.32768191714E+03  0.88239650036E+02 0.  0.
         23    2    1    2    0    0  0.40699756664E+01  0.80037286723E+01 -0.20513966664E+03  0.22447429002E+03  0.90696194398E+02 0.  0.
        -13    1    3    3    0    0 -0.35515386967E+02  0.18638493626E+02 -0.14480281299E+03  0.15025508580E+03  0.00000000000E+00 0.  1.
         13    1    3    3    0    0  0.50722322154E+02 -0.26362186438E+01 -0.17000169666E+03  0.17742683134E+03  0.00000000000E+00 0. -1.
        -13    1    4    4    0    0  0.14135352996E+02  0.47904331142E+02 -0.11588355224E+03  0.12618886966E+03  0.00000000000E+00 0.  1.
         13    1    4    4    0    0 -0.10065377330E+02 -0.39900602470E+02 -0.89256114398E+02  0.98285420361E+02  0.00000000000E+00 0. -1.
         21    1    1    2  503  502  0.58207447542E+01 -0.29686409781E+02 -0.65313320193E+02  0.71979120513E+02  0.00000000000E+00 0. -1.
          1    1    1    2  501    0 -0.25097655607E+02  0.56804061271E+01 -0.18215149694E+02  0.31526988583E+02  0.00000000000E+00 0. -1.
<scales pt_clust_5="13000.00000" pt_clust_6="13000.00000" pt_clust_7="13000.00000" pt_clust_8="13000.00000" pt_clust_9="28.75256" pt_clust_10="25.73246"></scales>
<clustering>
<clus scale="   25.732">  1 10  2 -1</clus>
<clus scale="   28.753">  1  9  2 -1</clus>
<clus scale="   88.240">  5  6 -1 -1</clus>
<clus scale="   88.789">  2  5  1 -1</clus>
<clus scale="   90.696">  7  8 -1 -1</clus>
<clus scale="   25.732">  1  5  2 -1</clus>
</clustering>
</event>
<event>
10    2  0.2421970E-006  0.9297187E+02  0.7546771E-02  0.1297662E+00
         21   -1    0    0  501  502  0.00000000000E+00  0.00000000000E+00  0.13685972274E+03  0.13685972274E+03  0.00000000000E+00 0.  1.
          4   -1    0    0  503    0 -0.00000000000E+00 -0.00000000000E+00 -0.27558992038E+03  0.27558992038E+03  0.00000000000E+00 0. -1.
         23    2    1    2    0    0  0.29197450701E+02 -0.30439164740E+02 -0.11524168511E+03  0.15106347424E+03  0.88093662563E+02 0.  0.
         23    2    1    2    0    0  0.42287911604E+02 -0.51231699955E+01 -0.51600129895E+02  0.11318565097E+03  0.91290217668E+02 0.  0.
        -11    1    4    4    0    0  0.36262563523E+02 -0.44076113898E+02 -0.14124886933E+02  0.58797872075E+02  0.00000000000E+00 0.  1.
         11    1    4    4    0    0  0.60253480807E+01  0.38952943903E+02 -0.37475242962E+02  0.54387778896E+02  0.00000000000E+00 0. -1.
        -11    1    3    3    0    0 -0.21679344908E+02  0.82710159174E+01 -0.67205701379E+02  0.71098593500E+02  0.00000000000E+00 0. -1.
         11    1    3    3    0    0  0.50876795609E+02 -0.38710180657E+02 -0.48035983731E+02  0.79964880735E+02  0.00000000000E+00 0.  1.
         21    1    1    2  503  502 -0.55317737977E+02  0.75805262469E+02 -0.44806282069E+01  0.93949805652E+02  0.00000000000E+00 0. -1.
          4    1    1    2  501    0 -0.16167624328E+02 -0.40242927734E+02  0.32592245571E+02  0.54250712256E+02  0.00000000000E+00 0. -1.
<scales pt_clust_5="13000.00000" pt_clust_6="13000.00000" pt_clust_7="13000.00000" pt_clust_8="13000.00000" pt_clust_9="84.69319" pt_clust_10="43.36917"></scales>
<clustering>
<clus scale="   43.369">  1 10  2 -1</clus>
<clus scale="   84.693">  1  9  2 -1</clus>
<clus scale="   88.094">  7  8 -1 -1</clus>
<clus scale="   89.835">  2  7  1 -1</clus>
<clus scale="   91.290">  5  6 -1 -1</clus>
<clus scale="   43.369">  1  5  2 -1</clus>
</clustering>
</event>
<event>
10    2  0.2421970E-006  0.1021357E+03  0.7546771E-02  0.1276574E+00
         21   -1    0    0  503  502  0.00000000000E+00  0.00000000000E+00  0.14384893680E+03  0.14384893680E+03  0.00000000000E+00 0.  1.
         -4   -1    0    0    0  501 -0.00000000000E+00 -0.00000000000E+00 -0.42045324440E+03  0.42045324440E+03  0.00000000000E+00 0.  1.
         23    2    1    2    0    0 -0.29155374930E+02  0.23435303410E+02 -0.26313399664E+03  0.28198317673E+03  0.94211264903E+02 0.  0.
         23    2    1    2    0    0  0.62749261279E+02  0.18758965401E+02 -0.74587348826E+02  0.13583061806E+03  0.92721710637E+02 0.  0.
        -11    1    4    4    0    0  0.87143847451E+02  0.10548114528E+02 -0.57800557628E+02  0.10510098635E+03  0.00000000000E+00 0. -1.
         11    1    4    4    0    0 -0.24394586172E+02  0.82108508730E+01 -0.16786791199E+02  0.30729631714E+02  0.00000000000E+00 0.  1.
        -13    1    3    3    0    0 -0.28772476772E+02 -0.24917688704E+02 -0.46865135168E+02  0.60374560241E+02  0.00000000000E+00 0.  1.
         13    1    3    3    0    0 -0.38289815861E+00  0.48352992114E+02 -0.21626886148E+03  0.22160861649E+03  0.00000000000E+00 0. -1.
         21    1    1    2  503  501 -0.67602696521E+02 -0.51885241038E+02  0.12139531416E+02  0.86078865219E+02  0.00000000000E+00 0.  1.
         -4    1    1    2    0  502  0.34008810172E+02  0.96909722272E+01  0.48977506453E+02  0.60409521190E+02  0.00000000000E+00 0.  1.
<scales pt_clust_5="13000.00000" pt_clust_6="13000.00000" pt_clust_7="13000.00000" pt_clust_8="13000.00000" pt_clust_9="67.48994" pt_clust_10="35.36261"></scales>
<clustering>
<clus scale="   35.363">  1 10  2 -1</clus>
<clus scale="   67.490">  1  9  2 -1</clus>
<clus scale="   92.722">  5  6 -1 -1</clus>
<clus scale="   94.211">  7  8 -1 -1</clus>
<clus scale="  100.763">  1  5  2 -1</clus>
<clus scale="   35.363">  1  5  2 -1</clus>
</clustering>
</event>
<event>
10    2  0.2687694E-006  0.4435546E+03  0.7546771E-02  0.1071663E+00
          2   -1    0    0  502    0 -0.00000000000E+00  0.00000000000E+00  0.15485014660E+04  0.15485014660E+04  0.00000000000E+00 0. -1.
         21   -1    0    0  503  502  0.00000000000E+00 -0.00000000000E+00 -0.23120569736E+03  0.23120569736E+03  0.00000000000E+00 0. -1.
         23    2    1    2    0    0  0.99593218393E+02  0.75636151988E+01  0.37843461818E+03  0.40144369360E+03  0.89265118981E+02 0.  0.
         23    2    1    2    0    0  0.17058759770E+03  0.35366718879E+03  0.80298000766E+03  0.89841708957E+03  0.90530465645E+02 0.  0.
        -11    1    4    4    0    0  0.17734894148E+03  0.29857314329E+03  0.70129888533E+03  0.78257184686E+03  0.00000000000E+00 0. -1.
         11    1    4    4    0    0 -0.67613437731E+01  0.55094045503E+02  0.10168112233E+03  0.11584524270E+03  0.00000000000E+00 0.  1.
        -13    1    3    3    0    0  0.92710774738E+02  0.30472098283E+02  0.35417721293E+03  0.36737628487E+03  0.00000000000E+00 0. -1.
         13    1    3    3    0    0  0.68824436547E+01 -0.22908483084E+02  0.24257405251E+02  0.34067408728E+02  0.00000000000E+00 0.  1.
         21    1    1    2  503  501 -0.15106590060E+02 -0.37462084755E+02  0.39616730660E+02  0.56578283869E+02  0.00000000000E+00 0. -1.
          2    1    1    2  501    0 -0.25507422604E+03 -0.32376871923E+03  0.96264412176E+02  0.42326809636E+03  0.00000000000E+00 0. -1.
<scales pt_clust_5="13000.00000" pt_clust_6="13000.00000" pt_clust_7="13000.00000" pt_clust_8="13000.00000" pt_clust_9="28.52619" pt_clust_10="28.52619"></scales>
<clustering>
<clus scale="   28.526">  9 10 -1 -1</clus>
<clus scale="   89.265">  7  8 -1 -1</clus>
<clus scale="   90.530">  5  6 -1 -1</clus>
<clus scale="  133.956">  1  7  2 -1</clus>
<clus scale="  443.433">  1  5  2 -1</clus>
<clus scale="  443.555">  2  5  1 -1</clus>
</clustering>
</event>
<event>
10    2  0.2421970E-006  0.1820264E+03  0.7546771E-02  0.1198203E+00
          1   -1    0    0  503    0 -0.00000000000E+00  0.00000000000E+00  0.47658287536E+03  0.47658287536E+03  0.00000000000E+00 0. -1.
         21   -1    0    0  501  502  0.00000000000E+00 -0.00000000000E+00 -0.32199975593E+03  0.32199975593E+03  0.00000000000E+00 0. -1.
         23    2    1    2    0    0 -0.80190989343E+01  0.72122942784E+01  0.22889243475E+03  0.24529273293E+03  0.87524025302E+02 0.  0.
         23    2    1    2    0    0 -0.13091564721E+03  0.16544622665E+02  0.98105885804E+02  0.18716086563E+03  0.89396832004E+02 0.  0.
        -11    1    3    3    0    0  0.23288641351E+02 -0.29843599206E+02  0.12551004162E+03  0.13109451467E+03  0.00000000000E+00 0. -1.
         11    1    3    3    0    0 -0.31307740285E+02  0.37055893484E+02  0.10338239313E+03  0.11419821825E+03  0.00000000000E+00 0.  1.
        -11    1    4    4    0    0 -0.11269178462E+03  0.41232067571E+02  0.49774935512E+02  0.12991176206E+03  0.00000000000E+00 0. -1.
         11    1    4    4    0    0 -0.18223862589E+02 -0.24687444906E+02  0.48330950292E+02  0.57249103571E+02  0.00000000000E+00 0.  1.
         21    1    1    2  503  502 -0.88959902855E+02  0.97047543776E-01 -0.77954778704E+02  0.11828280203E+03  0.00000000000E+00 0. -1.
          1    1    1    2  501    0  0.22789464900E+03 -0.23853964487E+02 -0.94460422422E+02  0.24784623069E+03  0.00000000000E+00 0. -1.
<scales pt_clust_5="13000.00000" pt_clust_6="13000.00000" pt_clust_7="13000.00000" pt_clust_8="13000.00000" pt_clust_9="89.63784" pt_clust_10="158.56175"></scales>
<clustering>
<clus scale="   87.524">  5  6 -1 -1</clus>
<clus scale="   88.186">  1  5  2 -1</clus>
<clus scale="   89.397">  7  8 -1 -1</clus>
<clus scale="   89.638">  2  9  1 -1</clus>
<clus scale="  158.562">  2 10  1 -1</clus>
<clus scale="   89.638">  2  5  1 -1</clus>
</clustering>
</event>
<event>
10    2  0.2421970E-006  0.1063151E+03  0.7546771E-02  0.1268061E+00
         21   -1    0    0  503  502  0.00000000000E+00  0.00000000000E+00  0.28410982606E+03  0.28410982606E+03  0.00000000000E+00 0. -1.
          3   -1    0    0  502    0 -0.00000000000E+00 -0.00000000000E+00 -0.25213451559E+03  0.25213451559E+03  0.00000000000E+00 0. -1.
         23    2    1    2    0    0 -0.77269005069E+01  0.13224903746E+02 -0.12899431173E+03  0.16390323322E+03  0.99950659492E+02 0.  0.
         23    2    1    2    0    0  0.80466471430E+02 -0.61242272043E+02 -0.43707377329E+02  0.14799943717E+03  0.98833342853E+02 0.  0.
        -11    1    3    3    0    0  0.28700827242E+01  0.55945430645E+02 -0.60192938321E+02  0.82227236416E+02  0.00000000000E+00 0. -1.
         11    1    3    3    0    0 -0.10596983231E+02 -0.42720526899E+02 -0.68801373404E+02  0.81675996807E+02  0.00000000000E+00 0.  1.
        -13    1    4    4    0    0  0.83838979676E+01  0.23320054759E+02  0.71585731582E+01  0.25794570529E+02  0.00000000000E+00 0.  1.
         13    1    4    4    0    0  0.72082573463E+02 -0.84562326802E+02 -0.50865950487E+02  0.12220486664E+03  0.00000000000E+00 0. -1.
         21    1    1    2  503  501 -0.24786548388E+02  0.30147351782E+02  0.11001166148E+03  0.11672960834E+03  0.00000000000E+00 0. -1.
          3    1    1    2  501    0 -0.47953022535E+02  0.17870016515E+02  0.94665338044E+02  0.10761206293E+03  0.00000000000E+00 0. -1.
<scales pt_clust_5="13000.00000" pt_clust_6="13000.00000" pt_clust_7="13000.00000" pt_clust_8="13000.00000" pt_clust_9="25.30769" pt_clust_10="91.85048"></scales>
<clustering>
<clus scale="   25.308">  9 10 -1 -1</clus>
<clus scale="   91.850">  1  9  2 -1</clus>
<clus scale="   98.833">  7  8 -1 -1</clus>
<clus scale="   99.951">  5  6 -1 -1</clus>
<clus scale="  105.265">  1  7  2 -1</clus>
<clus scale="   91.850">  1  5  2 -1</clus>
</clustering>
</event>
<event>
10    2  0.2421970E-006  0.2036007E+03  0.7546771E-02  0.1146818E+00
         21   -1    0    0  501  502  0.00000000000E+00  0.00000000000E+00  0.77850187001E+02  0.77850187001E+02  0.00000000000E+00 0. -1.
          2   -1    0    0  503    0 -0.00000000000E+00 -0.00000000000E+00 -0.16882496048E+04  0.16882496048E+04  0.00000000000E+00 0. -1.
         23    2    1    2    0    0 -0.26262475092E+02  0.29290943775E+03 -0.91096807812E+03  0.96142601232E+03  0.89395086543E+02 0.  0.
         23    2    1    2    0    0  0.64756184585E+02 -0.12979545641E+03 -0.23436601015E+03  0.29003670694E+03  0.90297512193E+02 0.  0.
        -13    1    3    3    0    0 -0.51053588854E+02  0.94903517539E+02 -0.31079953075E+03  0.32895211641E+03  0.00000000000E+00 0.  1.
         13    1    3    3    0    0  0.24791113762E+02  0.19800592021E+03 -0.60016854737E+03  0.63247389591E+03  0.00000000000E+00 0. -1.
        -13    1    4    4    0    0  0.54402861168E+02 -0.38382647695E+02 -0.15439815428E+03  0.16814187162E+03  0.00000000000E+00 0. -1.
         13    1    4    4    0    0  0.10353323417E+02 -0.91412808716E+02 -0.79967855869E+02  0.12189483531E+03  0.00000000000E+00 0.  1.
         21    1    1    2  503  502 -0.67658711191E+02 -0.15467032673E+03 -0.45023663979E+03  0.48084679782E+03  0.00000000000E+00 0. -1.
          2    1    1    2  501    0  0.29165001699E+02 -0.84436546122E+01 -0.14828689769E+02  0.33790274748E+02  0.00000000000E+00 0. -1.
<scales pt_clust_5="13000.00000" pt_clust_6="13000.00000" pt_clust_7="13000.00000" pt_clust_8="13000.00000" pt_clust_9="168.07158" pt_clust_10="30.36268"></scales>
<clustering>
<clus scale="   30.363">  1 10  2 -1</clus>
<clus scale="   89.395">  5  6 -1 -1</clus>
<clus scale="   90.298">  7  8 -1 -1</clus>
<clus scale="  168.072">  2  9  1 -1</clus>
<clus scale="  203.202">  2  5  1 -1</clus>
<clus scale="   30.363">  1  5  2 -1</clus>
</clustering>
</event>
<event>
10    2  0.2421970E-006  0.1382393E+03  0.7546771E-02  0.1215823E+00
         21   -1    0    0  501  502  0.00000000000E+00  0.00000000000E+00  0.17267972964E+03  0.17267972964E+03  0.00000000000E+00 0.  1.
          1   -1    0    0  503    0 -0.00000000000E+00 -0.00000000000E+00 -0.75866533937E+03  0.75866533937E+03  0.00000000000E+00 0. -1.
         23    2    1    2    0    0 -0.99965653174E+02 -0.40741903824E+02 -0.61378161840E+03  0.62986377781E+03  0.91364484175E+02 0.  0.
         23    2    1    2    0    0  0.86999193743E+02  0.17521697533E+02 -0.98392992995E+02  0.16068631726E+03  0.90901275493E+02 0.  0.
        -11    1    4    4    0    0  0.69152306976E+02  0.51257705802E+02 -0.82866111097E+02  0.11948299600E+03  0.00000000000E+00 0.  1.
         11    1    4    4    0    0  0.17846886766E+02 -0.33736008269E+02 -0.15526881899E+02  0.41203321258E+02  0.00000000000E+00 0. -1.
        -13    1    3    3    0    0 -0.28923320020E+02 -0.56083395795E+02 -0.37479213096E+03  0.38006716137E+03  0.00000000000E+00 0.  1.
         13    1    3    3    0    0 -0.71042333155E+02  0.15341491971E+02 -0.23898948744E+03  0.24979661643E+03  0.00000000000E+00 0. -1.
         21    1    1    2  503  502 -0.14286590879E+02  0.30563240825E+02  0.59907434543E+02  0.68754047751E+02  0.00000000000E+00 0.  1.
          1    1    1    2  501    0  0.27253050311E+02 -0.73430345338E+01  0.66281567122E+02  0.72040926198E+02  0.00000000000E+00 0. -1.
<scales pt_clust_5="13000.00000" pt_clust_6="13000.00000" pt_clust_7="13000.00000" pt_clust_8="13000.00000" pt_clust_9="26.13463" pt_clust_10="28.22497"></scales>
<clustering>
<clus scale="   28.225">  1 10  2 -1</clus>
<clus scale="   26.135">  1  9  2 -1</clus>
<clus scale="   90.901">  5  6 -1 -1</clus>
<clus scale="   91.364">  7  8 -1 -1</clus>
<clus scale="  137.934">  1  5  2 -1</clus>
<clus scale="   28.225">  1  5  2 -1</clus>
</clustering>
</event>
<event>
10    2  0.2421970E-006  0.1028967E+03  0.7546771E-02  0.1275514E+00
          2   -1    0    0  503    0 -0.00000000000E+00  0.00000000000E+00  0.71692886325E+03  0.71692886325E+03  0.00000000000E+00 0. -1.
         21   -1    0    0  501  502  0.00000000000E+00 -0.00000000000E+00 -0.10443297547E+03  0.10443297547E+03  0.00000000000E+00 0.  1.
         23    2    1    2    0    0 -0.43801156267E+02  0.25501979835E+02  0.41996963523E+03  0.43220939510E+03  0.88665519957E+02 0.  0.
         23    2    1    2    0    0  0.54349005210E+01 -0.39690770134E+02  0.20681319119E+02  0.10182518144E+03  0.91300357271E+02 0.  0.
        -13    1    4    4    0    0 -0.35488817452E+02 -0.35726502313E+02  0.31388414357E+02  0.59338618854E+02  0.00000000000E+00 0. -1.
         13    1    4    4    0    0  0.40923717973E+02 -0.39642678207E+01 -0.10707095238E+02  0.42486562588E+02  0.00000000000E+00 0.  1.
        -13    1    3    3    0    0 -0.45279125282E+02  0.53901230395E+02  0.34312147533E+03  0.35026830953E+03  0.00000000000E+00 0.  1.
         13    1    3    3    0    0  0.14779690151E+01 -0.28399250561E+02  0.76848159896E+02  0.81941085569E+02  0.00000000000E+00 0. -1.
         21    1    1    2  503  502  0.78125846561E+02  0.10515260017E+03  0.97187383933E+02  0.16311377875E+03  0.00000000000E+00 0.  1.
          2    1    1    2  501    0 -0.39759590815E+02 -0.90963809871E+02  0.74657549505E+02  0.12421348343E+03  0.00000000000E+00 0. -1.
<scales pt_clust_5="13000.00000" pt_clust_6="13000.00000" pt_clust_7="13000.00000" pt_clust_8="13000.00000" pt_clust_9="91.43860" pt_clust_10="99.27356"></scales>
<clustering>
<clus scale="   88.666">  7  8 -1 -1</clus>
<clus scale="   91.300">  5  6 -1 -1</clus>
<clus scale="   99.274">  2 10  1 -1</clus>
<clus scale="   91.439">  2  9  1 -1</clus>
<clus scale="  100.566">  1  7  2 -1</clus>
<clus scale="   99.274">  2  5  1 -1</clus>
</clustering>
</event>
<event>
10    2  0.2421970E-006  0.1506565E+03  0.7546771E-02  0.1200137E+00
          1   -1    0    0  503    0 -0.00000000000E+00  0.00000000000E+00  0.75929342068E+03  0.75929342068E+03  0.00000000000E+00 0. -1.
         21   -1    0    0  501  502  0.00000000000E+00 -0.00000000000E+00 -0.15795728735E+03  0.15795728735E+03  0.00000000000E+00 0.  1.
         23    2    1    2    0    0 -0.10322313212E+03  0.45965562686E+02  0.26902001547E+03  0.30461128260E+03  0.87455227418E+02 0.  0.
         23    2    1    2    0    0  0.21299261416E+03  0.12399717180E+02 -0.12337731900E+02  0.23189895239E+03  0.90029427499E+02 0.  0.
        -11    1    3    3    0    0 -0.82323111194E+02  0.60229984807E+02  0.25718862357E+03  0.27667803274E+03  0.00000000000E+00 0. -1.
         11    1    3    3    0    0 -0.20900020929E+02 -0.14264422121E+02  0.11831391901E+02  0.27933249857E+02  0.00000000000E+00 0.  1.
        -11    1    4    4    0    0  0.15424497794E+03  0.25980296057E+02 -0.45740182130E+02  0.16296825845E+03  0.00000000000E+00 0.  1.
         11    1    4    4    0    0  0.58747636223E+02 -0.13580578877E+02  0.33402450231E+02  0.68930693931E+02  0.00000000000E+00 0. -1.
         21    1    1    2  503  502 -0.68214695906E+00 -0.51124682546E+02  0.88067064233E+02  0.10183322784E+03  0.00000000000E+00 0.  1.
          1    1    1    2  501    0 -0.10908733508E+03 -0.72405973195E+01  0.25658678552E+03  0.27890724521E+03  0.00000000000E+00 0. -1.
<scales pt_clust_5="13000.00000" pt_clust_6="13000.00000" pt_clust_7="13000.00000" pt_clust_8="13000.00000" pt_clust_9="51.12923" pt_clust_10="112.85153"></scales>
<clustering>
<clus scale="   51.129">  1  9  2 -1</clus>
<clus scale="   87.455">  5  6 -1 -1</clus>
<clus scale="   90.029">  7  8 -1 -1</clus>
<clus scale="  112.852">  2 10  1 -1</clus>
<clus scale="  149.133">  1  5  2 -1</clus>
<clus scale="  112.852">  2  5  1 -1</clus>
</clustering>
</event>
<event>
10    2  0.2421970E-006  0.1157260E+03  0.7546771E-02  0.1253200E+00
         21   -1    0    0  503  502  0.00000000000E+00  0.00000000000E+00  0.94288028264E+02  0.94288028264E+02  0.00000000000E+00 0. -1.
         -4   -1    0    0    0  501 -0.00000000000E+00 -0.00000000000E+00 -0.37779730358E+03  0.37779730358E+03  0.00000000000E+00 0.  1.
         23    2    1    2    0    0 -0.44013962961E+02 -0.82556199782E+01 -0.18490316173E+03  0.21356361755E+03  0.97030177400E+02 0.  0.
         23    2    1    2    0    0  0.10400457692E+03  0.26475817019E+01 -0.11704638232E+03  0.18024029771E+03  0.89234228834E+02 0.  0.
        -11    1    3    3    0    0 -0.73308778894E+02  0.73421565219E+01 -0.12799762003E+03  0.14768708494E+03  0.00000000000E+00 0. -1.
         11    1    3    3    0    0  0.29294815932E+02 -0.15597776500E+02 -0.56905541703E+02  0.65876532610E+02  0.00000000000E+00 0.  1.
        -13    1    4    4    0    0  0.29660316878E+02 -0.17937787298E+02 -0.93293248546E+02  0.99524513737E+02  0.00000000000E+00 0. -1.
         13    1    4    4    0    0  0.74344260046E+02  0.20585369000E+02 -0.23753133771E+02  0.80715783974E+02  0.00000000000E+00 0.  1.
         21    1    1    2  503  501 -0.38589680841E+02 -0.86248503637E+01 -0.91375188237E+01  0.40583811569E+02  0.00000000000E+00 0. -1.
         -4    1    1    2    0  502 -0.21400933121E+02  0.14232888640E+02  0.27577787554E+02  0.37697605015E+02  0.00000000000E+00 0.  1.
<scales pt_clust_5="13000.00000" pt_clust_6="13000.00000" pt_clust_7="13000.00000" pt_clust_8="13000.00000" pt_clust_9="44.33002" pt_clust_10="25.70165"></scales>
<clustering>
<clus scale="   25.702">  1 10  2 -1</clus>
<clus scale="   44.330">  1  9  2 -1</clus>
<clus scale="   89.234">  7  8 -1 -1</clus>
<clus scale="   97.030">  5  6 -1 -1</clus>
<clus scale="  109.272">  1  7  2 -1</clus>
<clus scale="   25.702">  1  5  2 -1</clus>
</clustering>
</event>
<event>
10    2  0.2421970E-006  0.1045787E+03  0.7546771E-02  0.1277961E+00
         -1   -1    0    0    0  501 -0.00000000000E+00  0.00000000000E+00  0.63251953285E+02  0.63251953285E+02  0.00000000000E+00 0.  1.
         21   -1    0    0  501  502  0.00000000000E+00 -0.00000000000E+00 -0.98153652787E+03  0.98153652787E+03  0.00000000000E+00 0. -1.
         23    2    1    2    0    0  0.40618617285E+02 -0.28504063429E+02 -0.36556190566E+02  0.11065423381E+03  0.91900221382E+02 0.  0.
         23    2    1    2    0    0  0.47133683295E+02  0.10142921632E+03 -0.21683358361E+03  0.25571654160E+03  0.76581176815E+02 0.  0.
        -11    1    4    4    0    0  0.24295175182E+02  0.10482881895E+03 -0.20010521724E+03  0.22720350963E+03  0.00000000000E+00 0. -1.
         11    1    4    4    0    0  0.22838508113E+02 -0.33996026300E+01 -0.16728366365E+02  0.28513031969E+02  0.00000000000E+00 0.  1.
        -11    1    3    3    0    0  0.20283666360E+02  0.31774662834E+02 -0.85870342163E+00  0.37706679657E+02  0.00000000000E+00 0. -1.
         11    1    3    3    0    0  0.20334950925E+02 -0.60278726262E+02 -0.35697487144E+02  0.72947554156E+02  0.00000000000E+00 0.  1.
         21    1    1    2  503  502 -0.16432098422E+02 -0.49075577466E+02 -0.39011783318E+03  0.39353570350E+03  0.00000000000E+00 0. -1.
         -1    1    1    2    0  503 -0.71320202158E+02 -0.23849575424E+02 -0.27477696722E+03  0.28488200224E+03  0.00000000000E+00 0.  1.
<scales pt_clust_5="13000.00000" pt_clust_6="13000.00000" pt_clust_7="13000.00000" pt_clust_8="13000.00000" pt_clust_9="51.75351" pt_clust_10="92.09497"></scales>
<clustering>
<clus scale="   51.754">  2  9  1 -1</clus>
<clus scale="   76.581">  5  6 -1 -1</clus>
<clus scale="   91.900">  7  8 -1 -1</clus>
<clus scale="   92.095">  2 10  1 -1</clus>
<clus scale="   91.410">  2  5  1 -1</clus>
<clus scale="   51.754">  2  5  1 -1</clus>
</clustering>
</event>
<event>
10    2  0.2421970E-006  0.1136499E+03  0.7546771E-02  0.1254851E+00
          4   -1    0    0  503    0 -0.00000000000E+00  0.00000000000E+00  0.93249818154E+02  0.93249818154E+02  0.00000000000E+00 0. -1.
         21   -1    0    0  501  502  0.00000000000E+00 -0.00000000000E+00 -0.68490241285E+03  0.68490241285E+03  0.00000000000E+00 0.  1.
         23    2    1    2    0    0  0.83799237676E+02 -0.97740312123E+01  0.30318906411E+02  0.12871128449E+03  0.92355372059E+02 0.  0.
         23    2    1    2    0    0 -0.36100868451E+02  0.52648119157E+01 -0.40875662398E+03  0.42118013685E+03  0.94761485233E+02 0.  0.
        -11    1    4    4    0    0 -0.67754598404E+02  0.11481130757E+02 -0.29802803446E+03  0.30584834688E+03  0.00000000000E+00 0.  1.
         11    1    4    4    0    0  0.31653729952E+02 -0.62163188417E+01 -0.11072858952E+03  0.11533178997E+03  0.00000000000E+00 0. -1.
        -11    1    3    3    0    0  0.11343028546E+02 -0.41618151650E+02 -0.20919637142E+01  0.43186932694E+02  0.00000000000E+00 0.  1.
         11    1    3    3    0    0  0.72456209130E+02  0.31844120438E+02  0.32410870125E+02  0.85524351797E+02  0.00000000000E+00 0. -1.
         21    1    1    2  503  502 -0.18817881580E+02  0.24841173711E+02 -0.36243981208E+02  0.47799819584E+02  0.00000000000E+00 0.  1.
          4    1    1    2  501    0 -0.28880487644E+02 -0.20331954415E+02 -0.17697089592E+03  0.18046099008E+03  0.00000000000E+00 0. -1.
<scales pt_clust_5="13000.00000" pt_clust_6="13000.00000" pt_clust_7="13000.00000" pt_clust_8="13000.00000" pt_clust_9="31.16403" pt_clust_10="35.34671"></scales>
<clustering>
<clus scale="   31.164">  1  9  2 -1</clus>
<clus scale="   35.347">  2 10  1 -1</clus>
<clus scale="   92.355">  7  8 -1 -1</clus>
<clus scale="   94.761">  5  6 -1 -1</clus>
<clus scale="  111.652">  1  7  2 -1</clus>
<clus scale="   35.347">  2  5  1 -1</clus>
</clustering>
</event>
<event>
10    2  0.2421970E-006  0.1239919E+03  0.7546771E-02  0.1245197E+00
         21   -1    0    0  503  502  0.00000000000E+00  0.00000000000E+00  0.14245341218E+03  0.14245341218E+03  0.00000000000E+00 0.  1.
          1   -1    0    0  502    0 -0.00000000000E+00 -0.00000000000E+00 -0.61163002167E+03  0.61163002167E+03  0.00000000000E+00 0. -1.
         23    2    1    2    0    0 -0.19330300232E+02 -0.52510410268E+02  0.97597864478E+02  0.14281770085E+03  0.87980388907E+02 0.  0.
         23    2    1    2    0    0 -0.36223701016E+02 -0.44835956049E+02 -0.26748771591E+03  0.28868933794E+03  0.92029539860E+02 0.  0.
        -11    1    4    4    0    0  0.22208010756E+02 -0.41581681619E+02 -0.86996442594E+02  0.98947526558E+02  0.00000000000E+00 0.  1.
         11    1    4    4    0    0 -0.58431711773E+02 -0.32542744301E+01 -0.18049127332E+03  0.18974181138E+03  0.00000000000E+00 0. -1.
        -11    1    3    3    0    0 -0.73734393733E+01 -0.32580216047E+02  0.11104891085E+03  0.11596421296E+03  0.00000000000E+00 0.  1.
         11    1    3    3    0    0 -0.11956860858E+02 -0.19930194221E+02 -0.13451046376E+02  0.26853487891E+02  0.00000000000E+00 0. -1.
         21    1    1    2  503  501 -0.33432633116E+01  0.20027663229E+02 -0.83108642776E+02  0.85553089997E+02  0.00000000000E+00 0.  1.
          1    1    1    2  501    0  0.58897264559E+02  0.77318703088E+02 -0.21617811528E+03  0.23702330507E+03  0.00000000000E+00 0. -1.
<scales pt_clust_5="13000.00000" pt_clust_6="13000.00000" pt_clust_7="13000.00000" pt_clust_8="13000.00000" pt_clust_9="20.02956" pt_clust_10="93.94135"></scales>
<clustering>
<clus scale="   20.030">  9 10 -1 -1</clus>
<clus scale="   87.980">  7  8 -1 -1</clus>
<clus scale="   92.030">  5  6 -1 -1</clus>
<clus scale="  104.267">  2  7  1 -1</clus>
<clus scale="   93.941">  1  9  2 -1</clus>
<clus scale="   93.941">  1  5  2 -1</clus>
</clustering>
</event>
<event>
10    2  0.2421970E-006  0.1307647E+03  0.7546771E-02  0.1229185E+00
         21   -1    0    0  503  502  0.00000000000E+00  0.00000000000E+00  0.36290758708E+03  0.36290758708E+03  0.00000000000E+00 0.  1.
          3   -1    0    0  502    0 -0.00000000000E+00 -0.00000000000E+00 -0.13149175979E+03  0.13149175979E+03  0.00000000000E+00 0. -1.
         23    2    1    2    0    0  0.72086181928E+02  0.34665658982E+02 -0.44580033561E+02  0.12736415820E+03  0.88521883532E+02 0.  0.
         23    2    1    2    0    0 -0.80888620102E+02 -0.10190573242E+03  0.21763581562E+03  0.27210411525E+03  0.98729702390E+02 0.  0.
        -11    1    3    3    0    0  0.77764243524E+02  0.10732591624E+02 -0.59582832949E+02  0.98552422984E+02  0.00000000000E+00 0. -1.
         11    1    3    3    0    0 -0.56780615963E+01  0.23933067358E+02  0.15002799388E+02  0.28811735215E+02  0.00000000000E+00 0.  1.
        -13    1    4    4    0    0 -0.32007118980E+02 -0.49989798172E-01  0.11532866264E+03  0.11968775456E+03  0.00000000000E+00 0. -1.
         13    1    4    4    0    0 -0.48881501121E+02 -0.10185574262E+03  0.10230715298E+03  0.15241636069E+03  0.00000000000E+00 0.  1.
         21    1    1    2  503  501  0.17699513648E+02  0.40200576918E+02  0.46866584609E+02  0.64232670199E+02  0.00000000000E+00 0. -1.
          3    1    1    2  501    0 -0.88970754746E+01  0.27039496516E+02  0.11493460624E+02  0.30698403232E+02  0.00000000000E+00 0. -1.
<scales pt_clust_5="13000.00000" pt_clust_6="13000.00000" pt_clust_7="13000.00000" pt_clust_8="13000.00000" pt_clust_9="25.54979" pt_clust_10="74.87332"></scales>
<clustering>
<clus scale="   25.550">  9 10 -1 -1</clus>
<clus scale="   74.873">  1  9  2 -1</clus>
<clus scale="   88.522">  5  6 -1 -1</clus>
<clus scale="   98.730">  7  8 -1 -1</clus>
<clus scale="  123.240">  2  5  1 -1</clus>
<clus scale="   74.873">  1  5  2 -1</clus>
</clustering>
</event>
<event>
10    2  0.2421970E-006  0.1945094E+03  0.7546771E-02  0.1176648E+00
         21   -1    0    0  503  502  0.00000000000E+00  0.00000000000E+00  0.28009705017E+03  0.28009705017E+03  0.00000000000E+00 0. -1.
         -1   -1    0    0    0  501 -0.00000000000E+00 -0.00000000000E+00 -0.33873723682E+03  0.33873723682E+03  0.00000000000E+00 0.  1.
         23    2    1    2    0    0 -0.36672170939E+02 -0.61412444541E+02 -0.41177392823E+02  0.12281104574E+03  0.90943052569E+02 0.  0.
         23    2    1    2    0    0  0.36322610848E+02  0.18774936426E+03  0.16442740335E+03  0.26726484349E+03  0.88458859112E+02 0.  0.
        -11    1    4    4    0    0 -0.28521603001E+02  0.45506330563E+02  0.33017391361E+02  0.63043287440E+02  0.00000000000E+00 0.  1.
         11    1    4    4    0    0  0.64844213849E+02  0.14224303369E+03  0.13141001199E+03  0.20422155605E+03  0.00000000000E+00 0. -1.
        -11    1    3    3    0    0 -0.13964072350E+02 -0.16877612551E+02 -0.64156000343E+02  0.67792636045E+02  0.00000000000E+00 0. -1.
         11    1    3    3    0    0 -0.22708098589E+02 -0.44534831990E+02  0.22978607520E+02  0.55018409696E+02  0.00000000000E+00 0.  1.
         21    1    1    2  503  501  0.19725549925E+02 -0.16855730517E+02 -0.22037601118E+02  0.34042162595E+02  0.00000000000E+00 0.  1.
         -1    1    1    2    0  502 -0.19375989834E+02 -0.10948118920E+03 -0.15985259606E+03  0.19471623516E+03  0.00000000000E+00 0.  1.
<scales pt_clust_5="13000.00000" pt_clust_6="13000.00000" pt_clust_7="13000.00000" pt_clust_8="13000.00000" pt_clust_9="25.94635" pt_clust_10="173.23101"></scales>
<clustering>
<clus scale="   25.946">  2  9  1 -1</clus>
<clus scale="   88.459">  5  6 -1 -1</clus>
<clus scale="   90.943">  7  8 -1 -1</clus>
<clus scale="  116.612">  2  7  1 -1</clus>
<clus scale="  173.231">  1 10  2 -1</clus>
<clus scale="  173.231">  1  5  2 -1</clus>
</clustering>
</event>
<event>
10    2  0.2421970E-006  0.1280143E+03  0.7546771E-02  0.1230740E+00
         21   -1    0    0  501  502  0.00000000000E+00  0.00000000000E+00  0.20994015136E+03  0.20994015136E+03  0.00000000000E+00 0.  1.
         -1   -1    0    0    0  501 -0.00000000000E+00 -0.00000000000E+00 -0.22780821509E+03  0.22780821509E+03  0.00000000000E+00 0.  1.
         23    2    1    2    0    0 -0.29778347894E+01 -0.95809505304E+02 -0.15347576063E+03  0.20259886625E+03  0.91121691699E+02 0.  0.
         23    2    1    2    0    0 -0.26381895371E+02  0.69854498819E+02  0.40510594545E+02  0.12374665662E+03  0.89980394228E+02 0.  0.
        -11    1    3    3    0    0 -0.29835561339E+02 -0.10062703435E+03 -0.12290849005E+03  0.16162443407E+03  0.00000000000E+00 0.  1.
         11    1    3    3    0    0  0.26857726550E+02  0.48175290474E+01 -0.30567270574E+02  0.40974432173E+02  0.00000000000E+00 0. -1.
        -11    1    4    4    0    0 -0.96681787132E+01 -0.21289278902E+02  0.22320152712E+01  0.23488060115E+02  0.00000000000E+00 0.  1.
         11    1    4    4    0    0 -0.16713716657E+02  0.91143777721E+02  0.38278579274E+02  0.10025859650E+03  0.00000000000E+00 0. -1.
         21    1    1    2  503  502  0.18060129837E+02 -0.96975162201E+01  0.30196834156E+02  0.36497382148E+02  0.00000000000E+00 0.  1.
         -1    1    1    2    0  503  0.11299600323E+02  0.35652522705E+02  0.64900268195E+02  0.74905461446E+02  0.00000000000E+00 0.  1.
<scales pt_clust_5="13000.00000" pt_clust_6="13000.00000" pt_clust_7="13000.00000" pt_clust_8="13000.00000" pt_clust_9="20.49903" pt_clust_10="36.77594"></scales>
<clustering>
<clus scale="   20.499">  1  9  2 -1</clus>
<clus scale="   36.776">  1 10  2 -1</clus>
<clus scale="   89.980">  7  8 -1 -1</clus>
<clus scale="   91.122">  5  6 -1 -1</clus>
<clus scale="  127.204">  1  7  2 -1</clus>
<clus scale="   20.499">  1  5  2 -1</clus>
</clustering>
</event>
<event>
10    2  0.2421970E-006  0.2527361E+03  0.7546771E-02  0.1141938E+00
          2   -1    0    0  502    0 -0.00000000000E+00  0.00000000000E+00  0.11725993358E+04  0.11725993358E+04  0.00000000000E+00 0. -1.
         21   -1    0    0  503  502  0.00000000000E+00 -0.00000000000E+00 -0.86790440694E+02  0.86790440694E+02  0.00000000000E+00 0.  1.
         23    2    1    2    0    0  0.42136489103E+01  0.79750190762E+02  0.31837459200E+03  0.34002605916E+03  0.88755238251E+02 0.  0.
         23    2    1    2    0    0 -0.21975453570E+02 -0.27167527174E+03  0.34044278969E+03  0.44572830490E+03  0.92098072189E+02 0.  0.
        -11    1    4    4    0    0 -0.10965224472E+02 -0.25394303451E+03  0.34043388680E+03  0.42485589581E+03  0.00000000000E+00 0.  1.
         11    1    4    4    0    0 -0.11010229098E+02 -0.17732237229E+02  0.89028939952E-02  0.20872409090E+02  0.00000000000E+00 0. -1.
        -13    1    3    3    0    0  0.40041446374E+02  0.13722576880E+02  0.14557365362E+03  0.15160249065E+03  0.00000000000E+00 0.  1.
         13    1    3    3    0    0 -0.35827797464E+02  0.66027613882E+02  0.17280093838E+03  0.18842356851E+03  0.00000000000E+00 0. -1.
         21    1    1    2  503  501 -0.24542134765E+02  0.38667283700E+02  0.87582026600E+02  0.98833630870E+02  0.00000000000E+00 0.  1.
          2    1    1    2  501    0  0.42303939425E+02  0.15325779728E+03  0.33940948680E+03  0.37480178154E+03  0.00000000000E+00 0. -1.
<scales pt_clust_5="13000.00000" pt_clust_6="13000.00000" pt_clust_7="13000.00000" pt_clust_8="13000.00000" pt_clust_9="37.40852" pt_clust_10="245.46192"></scales>
<clustering>
<clus scale="   37.409">  9 10 -1 -1</clus>
<clus scale="   88.755">  7  8 -1 -1</clus>
<clus scale="   92.098">  5  6 -1 -1</clus>
<clus scale="  119.396">  1  7  2 -1</clus>
<clus scale="  245.462">  2  9  1 -1</clus>
<clus scale="  245.462">  2  5  1 -1</clus>
</clustering>
</event>
<event>
10    2  0.2421970E-006  0.3902997E+03  0.7546771E-02  0.1090110E+00
         21   -1    0    0  501  502  0.00000000000E+00  0.00000000000E+00  0.71564631929E+03  0.71564631929E+03  0.00000000000E+00 0. -1.
          3   -1    0    0  503    0 -0.00000000000E+00 -0.00000000000E+00 -0.71594121811E+03  0.71594121811E+03  0.00000000000E+00 0. -1.
         23    2    1    2    0    0 -0.16699737167E+02  0.42479828940E+02 -0.35350553607E+03  0.36760086618E+03  0.89893357324E+02 0.  0.
         23    2    1    2    0    0  0.42466160603E+03  0.60988450233E+02  0.36368493227E+03  0.56990884528E+03  0.92045050224E+02 0.  0.
        -11    1    3    3    0    0 -0.52832987641E+02  0.24403510412E+02 -0.24500750561E+03  0.25182441047E+03  0.00000000000E+00 0. -1.
         11    1    3    3    0    0  0.36133250475E+02  0.18076318528E+02 -0.10849803046E+03  0.11577645570E+03  0.00000000000E+00 0.  1.
        -11    1    4    4    0    0  0.28466235822E+03  0.10286032075E+02  0.27846679176E+03  0.39834936269E+03  0.00000000000E+00 0. -1.
         11    1    4    4    0    0  0.13999924781E+03  0.50702418158E+02  0.85218140512E+02  0.17155948259E+03  0.00000000000E+00 0.  1.
         21    1    1    2  503  502 -0.93356737883E+02 -0.26627284747E+02 -0.11803556005E+03  0.15282959870E+03  0.00000000000E+00 0.  1.
          3    1    1    2  501    0 -0.31460513098E+03 -0.76840994425E+02  0.10756126503E+03  0.34124822725E+03  0.00000000000E+00 0. -1.
<scales pt_clust_5="13000.00000" pt_clust_6="13000.00000" pt_clust_7="13000.00000" pt_clust_8="13000.00000" pt_clust_9="97.07983" pt_clust_10="379.29103"></scales>
<clustering>
<clus scale="   89.893">  5  6 -1 -1</clus>
<clus scale="   92.045">  7  8 -1 -1</clus>
<clus scale="   97.080">  2  9  1 -1</clus>
<clus scale="  119.714">  2  5  1 -1</clus>
<clus scale="  379.291">  1 10  2 -1</clus>
<clus scale="  379.291">  1  5  2 -1</clus>
</clustering>
</event>
<event>
10    2  0.2421970E-006  0.5415083E+03  0.7546771E-02  0.1035752E+00
         21   -1    0    0  503  502  0.00000000000E+00  0.00000000000E+00  0.59091976020E+03  0.59091976020E+03  0.00000000000E+00 0. -1.
          3   -1    0    0  502    0 -0.00000000000E+00 -0.00000000000E+00 -0.71694247555E+03  0.71694247555E+03  0.00000000000E+00 0. -1.
         23    2    1    2    0    0  0.17898840682E+03 -0.58635897204E+02 -0.57349463905E+02  0.21157916731E+03  0.77471057897E+02 0.  0.
         23    2    1    2    0    0 -0.51761076393E+03  0.35549336678E+03  0.24090540460E+02  0.63487493160E+03  0.90495236759E+02 0.  0.
        -11    1    3    3    0    0  0.93517324856E+02  0.74861288308E+01 -0.12765058069E+02  0.94680931980E+02  0.00000000000E+00 0. -1.
         11    1    3    3    0    0  0.85471081963E+02 -0.66122026035E+02 -0.44584405836E+02  0.11689823533E+03  0.00000000000E+00 0.  1.
        -13    1    4    4    0    0 -0.40392968911E+02  0.52336028116E+02 -0.16219721749E+02  0.68071514968E+02  0.00000000000E+00 0.  1.
         13    1    4    4    0    0 -0.47721779502E+03  0.30315733866E+03  0.40310262209E+02  0.56680341664E+03  0.00000000000E+00 0. -1.
         21    1    1    2  503  501  0.14813257388E+03 -0.11220642343E+03 -0.52232690397E+02  0.19303314443E+03  0.00000000000E+00 0. -1.
          3    1    1    2  501    0  0.19048978323E+03 -0.18465104615E+03 -0.40531101515E+02  0.26837499241E+03  0.00000000000E+00 0. -1.
<scales pt_clust_5="13000.00000" pt_clust_6="13000.00000" pt_clust_7="13000.00000" pt_clust_8="13000.00000" pt_clust_9="32.44575" pt_clust_10="535.29877"></scales>
<clustering>
<clus scale="   32.446">  9 10 -1 -1</clus>
<clus scale="   77.471">  5  6 -1 -1</clus>
<clus scale="   90.495">  7  8 -1 -1</clus>
<clus scale="  203.658">  2  5  1 -1</clus>
<clus scale="  535.299">  1  9  2 -1</clus>
<clus scale="  535.299">  1  5  2 -1</clus>
</clustering>
</event>
<event>
10    2  0.2421970E-006  0.1544887E+03  0.7546771E-02  0.1195226E+00
         -1   -1    0    0    0  501 -0.00000000000E+00  0.00000000000E+00  0.20123390456E+03  0.20123390456E+03  0.00000000000E+00 0.  1.
         21   -1    0    0  503  502  0.00000000000E+00 -0.00000000000E+00 -0.25869570553E+03  0.25869570553E+03  0.00000000000E+00 0. -1.
         23    2    1    2    0    0  0.69716043218E+02  0.10779778415E+03  0.14193004079E+02  0.15785212898E+03  0.90747806088E+02 0.  0.
         23    2    1    2    0    0 -0.13387825721E+03 -0.52657825022E+02 -0.78793460676E+02  0.18790679449E+03  0.91675076670E+02 0.  0.
        -11    1    4    4    0    0 -0.80707043453E+01 -0.40137877088E+02 -0.43070355128E+01  0.41167171395E+02  0.00000000000E+00 0.  1.
         11    1    4    4    0    0 -0.12580755286E+03 -0.12519947934E+02 -0.74486425163E+02  0.14673962310E+03  0.00000000000E+00 0. -1.
        -13    1    3    3    0    0  0.30385694430E+02  0.80031109816E+02  0.48820895032E+02  0.98548205240E+02  0.00000000000E+00 0.  1.
         13    1    3    3    0    0  0.39330348788E+02  0.27766674334E+02 -0.34627890953E+02  0.59303923742E+02  0.00000000000E+00 0. -1.
         21    1    1    2  503  501  0.36436954266E+02 -0.72317334036E+02  0.91507608298E+01  0.81493465150E+02  0.00000000000E+00 0. -1.
         -1    1    1    2    0  502  0.27725259724E+02  0.17177374908E+02 -0.20121052104E+01  0.32677221468E+02  0.00000000000E+00 0.  1.
<scales pt_clust_5="13000.00000" pt_clust_6="13000.00000" pt_clust_7="13000.00000" pt_clust_8="13000.00000" pt_clust_9="80.69574" pt_clust_10="32.61523"></scales>
<clustering>
<clus scale="   32.615">  2 10  1 -1</clus>
<clus scale="   80.696">  1  9  2 -1</clus>
<clus scale="   90.748">  7  8 -1 -1</clus>
<clus scale="   91.675">  5  6 -1 -1</clus>
<clus scale="  153.940">  1  7  2 -1</clus>
<clus scale="   32.615">  2  5  1 -1</clus>
</clustering>
</event>
<event>
10    2  0.2421970E-006  0.1138287E+03  0.7546771E-02  0.1254762E+00
         21   -1    0    0  503  502  0.00000000000E+00  0.00000000000E+00  0.63206387824E+02  0.63206387824E+02  0.00000000000E+00 0. -1.
         -3   -1    0    0    0  501 -0.00000000000E+00 -0.00000000000E+00 -0.39883602752E+03  0.39883602752E+03  0.00000000000E+00 0.  1.
         23    2    1    2    0    0 -0.51560897637E+02  0.50322165572E+02 -0.17475466196E+03  0.21088865151E+03  0.93509277336E+02 0.  0.
         23    2    1    2    0    0  0.73864943838E+02 -0.14411130248E+02 -0.93230469426E+02  0.15011676423E+03  0.90440101008E+02 0.  0.
        -11    1    4    4    0    0  0.10091974373E+02 -0.45559121788E+02 -0.35626372773E+02  0.58708772443E+02  0.00000000000E+00 0. -1.
         11    1    4    4    0    0  0.63772969464E+02  0.31147991540E+02 -0.57604096653E+02  0.91407991787E+02  0.00000000000E+00 0.  1.
        -13    1    3    3    0    0 -0.44183986650E+02 -0.15822904624E+02 -0.10203030211E+03  0.11230659614E+03  0.00000000000E+00 0. -1.
         13    1    3    3    0    0 -0.73769109874E+01  0.66145070196E+02 -0.72724359847E+02  0.98582055376E+02  0.00000000000E+00 0.  1.
         21    1    1    2  503  501  0.13352937126E+02 -0.23133390928E+02 -0.54934713233E+02  0.61084183090E+02  0.00000000000E+00 0.  1.
         -3    1    1    2    0  502 -0.35656983326E+02 -0.12777644396E+02 -0.12709795078E+02  0.39952816511E+02  0.00000000000E+00 0.  1.
<scales pt_clust_5="13000.00000" pt_clust_6="13000.00000" pt_clust_7="13000.00000" pt_clust_8="13000.00000" pt_clust_9="26.71057" pt_clust_10="37.56397"></scales>
<clustering>
<clus scale="   26.711">  2  9  1 -1</clus>
<clus scale="   37.564">  1 10  2 -1</clus>
<clus scale="   90.440">  5  6 -1 -1</clus>
<clus scale="   93.509">  7  8 -1 -1</clus>
<clus scale="  111.321">  1  5  2 -1</clus>
<clus scale="   37.564">  1  5  2 -1</clus>
</clustering>
</event>
<event>
10    2  0.2421970E-006  0.1231221E+03  0.7546771E-02  0.1243147E+00
         21   -1    0    0  501  502  0.00000000000E+00  0.00000000000E+00  0.23066952749E+03  0.23066952749E+03  0.00000000000E+00 0.  1.
         -3   -1    0    0    0  501 -0.00000000000E+00 -0.00000000000E+00 -0.21715659442E+03  0.21715659442E+03  0.00000000000E+00 0.  1.
         23    2    1    2    0    0 -0.77018083135E+02 -0.35205816532E+02 -0.13436467548E+03  0.17558601665E+03  0.74868875889E+02 0.  0.
         23    2    1    2    0    0  0.87550335694E+02 -0.36016393121E+02  0.37872733503E+02  0.13726832418E+03  0.91902160076E+02 0.  0.
        -11    1    4    4    0    0  0.60931178257E+02  0.24202050563E+02  0.25094345839E+02  0.70200241654E+02  0.00000000000E+00 0. -1.
         11    1    4    4    0    0  0.26619157437E+02 -0.60218443684E+02  0.12778387664E+02  0.67068082526E+02  0.00000000000E+00 0.  1.
        -13    1    3    3    0    0 -0.18556725709E+02 -0.43757555723E+02 -0.89719581091E+02  0.10153166493E+03  0.00000000000E+00 0.  1.
         13    1    3    3    0    0 -0.58461357425E+02  0.85517391918E+01 -0.44645094393E+02  0.74054351719E+02  0.00000000000E+00 0. -1.
         21    1    1    2  503  502 -0.39143473280E+01  0.44591473072E+02  0.91535603622E+02  0.10189449600E+03  0.00000000000E+00 0.  1.
         -3    1    1    2    0  503 -0.66179052312E+01  0.26630736581E+02  0.18469271434E+02  0.33077285073E+02  0.00000000000E+00 0.  1.
<scales pt_clust_5="13000.00000" pt_clust_6="13000.00000" pt_clust_7="13000.00000" pt_clust_8="13000.00000" pt_clust_9="23.91263" pt_clust_10="78.20684"></scales>
<clustering>
<clus scale="   23.913">  9 10 -1 -1</clus>
<clus scale="   74.869">  7  8 -1 -1</clus>
<clus scale="   78.207">  1  9  2 -1</clus>
<clus scale="   91.902">  5  6 -1 -1</clus>
<clus scale="  110.988">  2  7  1 -1</clus>
<clus scale="   78.207">  1  5  2 -1</clus>
</clustering>
</event>
<event>
10    2  0.2421970E-006  0.1251016E+03  0.7546771E-02  0.1235039E+00
          3   -1    0    0  503    0 -0.00000000000E+00  0.00000000000E+00  0.54845519580E+03  0.54845519580E+03  0.00000000000E+00 0. -1.
         21   -1    0    0  501  502  0.00000000000E+00 -0.00000000000E+00 -0.22256785370E+03  0.22256785370E+03  0.00000000000E+00 0. -1.
         23    2    1    2    0    0 -0.22032625555E+02 -0.90624669697E+02  0.35596650710E+03  0.37910534821E+03  0.91161633998E+02 0.  0.
         23    2    1    2    0    0  0.29163029057E+02  0.67541813698E+02  0.15497435966E+03  0.19405581231E+03  0.90709576554E+02 0.  0.
        -11    1    4    4    0    0  0.57276633333E+02  0.55421537421E+02  0.79333623123E+02  0.11245436094E+03  0.00000000000E+00 0.  1.
         11    1    4    4    0    0 -0.28113604276E+02  0.12120276276E+02  0.75640736538E+02  0.81601451374E+02  0.00000000000E+00 0. -1.
        -13    1    3    3    0    0  0.28734930579E+02 -0.16736350584E+02  0.48273690445E+02  0.58618690325E+02  0.00000000000E+00 0.  1.
         13    1    3    3    0    0 -0.50767556134E+02 -0.73888319113E+02  0.30769281666E+03  0.32048665788E+03  0.00000000000E+00 0. -1.
         21    1    1    2  503  502  0.21373751833E+02  0.13581561725E+02 -0.27157426022E+02  0.37132490819E+02  0.00000000000E+00 0. -1.
          3    1    1    2  501    0 -0.28504155335E+02  0.95012942745E+01 -0.15789609865E+03  0.16072939816E+03  0.00000000000E+00 0. -1.
<scales pt_clust_5="13000.00000" pt_clust_6="13000.00000" pt_clust_7="13000.00000" pt_clust_8="13000.00000" pt_clust_9="25.32382" pt_clust_10="23.41238"></scales>
<clustering>
<clus scale="   25.324">  2  9  1 -1</clus>
<clus scale="   23.412">  2 10  1 -1</clus>
<clus scale="   90.710">  5  6 -1 -1</clus>
<clus scale="   91.162">  7  8 -1 -1</clus>
<clus scale="  124.773">  2  5  1 -1</clus>
<clus scale="   25.324">  2  5  1 -1</clus>
</clustering>
</event>
<event>
10    2  0.2421970E-006  0.9917681E+02  0.7546771E-02  0.1283822E+00
         21   -1    0    0  503  502  0.00000000000E+00  0.00000000000E+00  0.23735316493E+03  0.23735316493E+03  0.00000000000E+00 0.  1.
          2   -1    0    0  502    0 -0.00000000000E+00 -0.00000000000E+00 -0.19912491409E+03  0.19912491409E+03  0.00000000000E+00 0. -1.
         23    2    1    2    0    0 -0.31471468364E+02 -0.14814559058E+02 -0.13431113096E+03  0.16517871866E+03  0.89635956610E+02 0.  0.
         23    2    1    2    0    0 -0.12803387348E+02  0.71664380743E+02  0.55700652652E+02  0.13069124554E+03  0.93155401128E+02 0.  0.
        -11    1    3    3    0    0 -0.50416738919E+02 -0.33748677886E+02 -0.56565988374E+02  0.82948971440E+02  0.00000000000E+00 0. -1.
         11    1    3    3    0    0  0.18945270555E+02  0.18934118828E+02 -0.77745142585E+02  0.82229747219E+02  0.00000000000E+00 0.  1.
        -13    1    4    4    0    0  0.16723833284E+02 -0.14993824892E+02  0.26188951637E+02  0.34501631446E+02  0.00000000000E+00 0. -1.
         13    1    4    4    0    0 -0.29527220632E+02  0.86658205635E+02  0.29511701015E+02  0.96189614091E+02  0.00000000000E+00 0.  1.
         21    1    1    2  503  501  0.29533435820E+02 -0.33005097749E+02  0.43435632649E+02  0.62033978531E+02  0.00000000000E+00 0. -1.
          2    1    1    2  501    0  0.14741419892E+02 -0.23844723936E+02  0.73403096489E+02  0.78574136293E+02  0.00000000000E+00 0. -1.
<scales pt_clust_5="13000.00000" pt_clust_6="13000.00000" pt_clust_7="13000.00000" pt_clust_8="13000.00000" pt_clust_9="24.22549" pt_clust_10="78.22630"></scales>
<clustering>
<clus scale="   24.225">  9 10 -1 -1</clus>
<clus scale="   78.226">  1  9  2 -1</clus>
<clus scale="   89.636">  5  6 -1 -1</clus>
<clus scale="   93.155">  7  8 -1 -1</clus>
<clus scale="   95.879">  2  5  1 -1</clus>
<clus scale="   78.226">  1  5  2 -1</clus>
</clustering>
</event>
<event>
10    2  0.2421970E-006  0.1707394E+03  0.7546771E-02  0.1178807E+00
          2   -1    0    0  503    0 -0.00000000000E+00  0.00000000000E+00  0.14096260606E+04  0.14096260606E+04  0.00000000000E+00 0. -1.
         21   -1    0    0  501  502  0.00000000000E+00 -0.00000000000E+00 -0.10007402726E+03  0.10007402726E+03  0.00000000000E+00 0. -1.
         23    2    1    2    0    0 -0.15382645487E+03  0.87553538619E+02  0.93258500449E+03  0.95370390142E+03  0.92239582787E+02 0.  0.
         23    2    1    2    0    0  0.93061461847E+02 -0.59749029353E+02  0.43047452952E+03  0.45150906577E+03  0.79509331008E+02 0.  0.
        -11    1    4    4    0    0  0.55999740315E+02  0.78368634358E+01  0.14016913987E+03  0.15114488121E+03  0.00000000000E+00 0. -1.
         11    1    4    4    0    0  0.37061721532E+02 -0.67585892789E+02  0.29030538965E+03  0.30036418456E+03  0.00000000000E+00 0.  1.
        -13    1    3    3    0    0 -0.22834531204E+02  0.18507510173E+02  0.44317266767E+02  0.53178603609E+02  0.00000000000E+00 0.  1.
         13    1    3    3    0    0 -0.13099192366E+03  0.69046028446E+02  0.88826773773E+03  0.90052529781E+03  0.00000000000E+00 0. -1.
         21    1    1    2  503  502  0.33627313359E+02  0.16656864671E+02 -0.19632098854E+02  0.42351701852E+02  0.00000000000E+00 0. -1.
          2    1    1    2  501    0  0.27137679663E+02 -0.44461373937E+02 -0.33875401792E+02  0.62135418856E+02  0.00000000000E+00 0. -1.
<scales pt_clust_5="13000.00000" pt_clust_6="13000.00000" pt_clust_7="13000.00000" pt_clust_8="13000.00000" pt_clust_9="37.52662" pt_clust_10="60.26870"></scales>
<clustering>
<clus scale="   37.527">  2  9  1 -1</clus>
<clus scale="   60.269">  2 10  1 -1</clus>
<clus scale="   79.509">  5  6 -1 -1</clus>
<clus scale="   92.240">  7  8 -1 -1</clus>
<clus scale="  164.212">  2  5  1 -1</clus>
<clus scale="   37.527">  2  5  1 -1</clus>
</clustering>
</event>
<event>
10    2  0.2421970E-006  0.9496422E+02  0.7546771E-02  0.1291369E+00
          1   -1    0    0  503    0 -0.00000000000E+00  0.00000000000E+00  0.34232668306E+03  0.34232668306E+03  0.00000000000E+00 0. -1.
         21   -1    0    0  501  502  0.00000000000E+00 -0.00000000000E+00 -0.61003857469E+02  0.61003857469E+02  0.00000000000E+00 0. -1.
         23    2    1    2    0    0 -0.21252212568E+02  0.15269417749E+02  0.14657512782E+03  0.17448965774E+03  0.90981101915E+02 0.  0.
         23    2    1    2    0    0  0.35168520086E+02  0.18879319839E+02  0.11306662419E+03  0.15039033651E+03  0.90774105820E+02 0.  0.
        -11    1    3    3    0    0 -0.14905197815E+02 -0.36710454304E+02  0.84136025065E+02  0.92998349936E+02  0.00000000000E+00 0.  1.
         11    1    3    3    0    0 -0.63470147527E+01  0.51979872053E+02  0.62439102756E+02  0.81491307806E+02  0.00000000000E+00 0. -1.
        -13    1    4    4    0    0  0.10602945125E+02 -0.35791081953E+02  0.29635655598E+02  0.47662312946E+02  0.00000000000E+00 0.  1.
         13    1    4    4    0    0  0.24565574961E+02  0.54670401792E+02  0.83430968590E+02  0.10272802356E+03  0.00000000000E+00 0. -1.
         21    1    1    2  503  502 -0.14091004273E+02  0.18035448418E+02  0.99891238865E+01  0.24972312610E+02  0.00000000000E+00 0.  1.
          1    1    1    2  501    0  0.17469675511E+00 -0.52184186007E+02  0.11691949691E+02  0.53478233663E+02  0.00000000000E+00 0. -1.
<scales pt_clust_5="13000.00000" pt_clust_6="13000.00000" pt_clust_7="13000.00000" pt_clust_8="13000.00000" pt_clust_9="22.88742" pt_clust_10="45.45570"></scales>
<clustering>
<clus scale="   22.887">  2  9  1 -1</clus>
<clus scale="   45.456">  2 10  1 -1</clus>
<clus scale="   90.774">  7  8 -1 -1</clus>
<clus scale="   90.981">  5  6 -1 -1</clus>
<clus scale="   94.766">  2  7  1 -1</clus>
<clus scale="   22.887">  2  5  1 -1</clus>
</clustering>
</event>
<event>
10    2  0.2421970E-006  0.1603905E+03  0.7546771E-02  0.1190942E+00
          2   -1    0    0  503    0 -0.00000000000E+00  0.00000000000E+00  0.24757008966E+03  0.24757008966E+03  0.00000000000E+00 0. -1.
         21   -1    0    0  501  502  0.00000000000E+00 -0.00000000000E+00 -0.50092948010E+03  0.50092948010E+03  0.00000000000E+00 0. -1.
         23    2    1    2    0    0 -0.10853800909E+03  0.11964907397E+03  0.15716379998E+03  0.24355314691E+03  0.92310752480E+02 0.  0.
         23    2    1    2    0    0  0.45643570998E+02 -0.60456538648E+02 -0.43182215840E+02  0.11508073950E+03  0.75103556511E+02 0.  0.
        -11    1    3    3    0    0 -0.65207598927E+02  0.99126897110E+02  0.15547643256E+03  0.19557886841E+03  0.00000000000E+00 0. -1.
         11    1    3    3    0    0 -0.43330410167E+02  0.20522176864E+02  0.16873674248E+01  0.47974278497E+02  0.00000000000E+00 0.  1.
        -13    1    4    4    0    0  0.57730050140E+02 -0.23144086428E+02 -0.43429767127E+02  0.75858764151E+02  0.00000000000E+00 0. -1.
         13    1    4    4    0    0 -0.12086479142E+02 -0.37312452221E+02  0.24755128759E+00  0.39221975351E+02  0.00000000000E+00 0.  1.
         21    1    1    2  503  502  0.68776436660E+02 -0.11736866973E+01 -0.24265474597E+03  0.25221598190E+03  0.00000000000E+00 0. -1.
          2    1    1    2  501    0 -0.58819985640E+01 -0.58018848629E+02 -0.12468622862E+03  0.13764970145E+03  0.00000000000E+00 0. -1.
<scales pt_clust_5="13000.00000" pt_clust_6="13000.00000" pt_clust_7="13000.00000" pt_clust_8="13000.00000" pt_clust_9="76.18497" pt_clust_10="58.31625"></scales>
<clustering>
<clus scale="   58.316">  2 10  1 -1</clus>
<clus scale="   75.104">  7  8 -1 -1</clus>
<clus scale="   76.185">  2  9  1 -1</clus>
<clus scale="   92.311">  5  6 -1 -1</clus>
<clus scale="  151.144">  2  7  1 -1</clus>
<clus scale="   58.316">  2  5  1 -1</clus>
</clustering>
</event>
<event>
10    2  0.2421970E-006  0.1266272E+03  0.7546771E-02  0.1236137E+00
          2   -1    0    0  503    0 -0.00000000000E+00  0.00000000000E+00  0.86416134492E+03  0.86416134492E+03  0.00000000000E+00 0. -1.
         21   -1    0    0  501  502  0.00000000000E+00 -0.00000000000E+00 -0.51555399778E+02  0.51555399778E+02  0.00000000000E+00 0.  1.
         23    2    1    2    0    0  0.75386096342E+02  0.22660953737E+02  0.54513399415E+03  0.56007187331E+03  0.10155220011E+03 0.  0.
         23    2    1    2    0    0 -0.72967593727E+02  0.20225549437E+02  0.14133135555E+03  0.18392027679E+03  0.90104237230E+02 0.  0.
        -11    1    4    4    0    0 -0.34815317942E+02  0.16553657335E+02  0.11222730962E+01  0.38566688106E+02  0.00000000000E+00 0.  1.
         11    1    4    4    0    0 -0.38152275784E+02  0.36718921021E+01  0.14020908245E+03  0.14535358868E+03  0.00000000000E+00 0. -1.
        -13    1    3    3    0    0  0.50458822028E+02 -0.37795361366E+02  0.27547727911E+03  0.28259920978E+03  0.00000000000E+00 0. -1.
         13    1    3    3    0    0  0.24927274313E+02  0.60456315103E+02  0.26965671504E+03  0.27747266353E+03  0.00000000000E+00 0.  1.
         21    1    1    2  503  502 -0.29854108370E+02 -0.67835783377E+02  0.10652990957E+03  0.12977512445E+03  0.00000000000E+00 0. -1.
          2    1    1    2  501    0  0.27435605755E+02  0.24949280203E+02  0.19610685867E+02  0.41949470151E+02  0.00000000000E+00 0. -1.
<scales pt_clust_5="13000.00000" pt_clust_6="13000.00000" pt_clust_7="13000.00000" pt_clust_8="13000.00000" pt_clust_9="64.50803" pt_clust_10="37.08341"></scales>
<clustering>
<clus scale="   37.083">  2 10  1 -1</clus>
<clus scale="   64.508">  2  9  1 -1</clus>
<clus scale="   90.104">  5  6 -1 -1</clus>
<clus scale="  101.552">  7  8 -1 -1</clus>
<clus scale="  117.645">  2  5  1 -1</clus>
<clus scale="   37.083">  2  5  1 -1</clus>
</clustering>
</event>
<event>
10    2  0.2421970E-006  0.9996217E+02  0.7546771E-02  0.1281730E+00
          2   -1    0    0  503    0 -0.00000000000E+00  0.00000000000E+00  0.45299236216E+03  0.45299236216E+03  0.00000000000E+00 0. -1.
         21   -1    0    0  501  502  0.00000000000E+00 -0.00000000000E+00 -0.16026929934E+03  0.16026929934E+03  0.00000000000E+00 0.  1.
         23    2    1    2    0    0  0.74160827887E+01 -0.19068415158E+01  0.17892053200E+03  0.20221367487E+03  0.93910485074E+02 0.  0.
         23    2    1    2    0    0 -0.65481034444E+02  0.20743790666E+02  0.20112454056E+03  0.23127254594E+03  0.91202187295E+02 0.  0.
        -11    1    3    3    0    0  0.36322121127E+02 -0.92694832235E+00  0.21627463743E+02  0.42283600890E+02  0.00000000000E+00 0.  1.
         11    1    3    3    0    0 -0.28906038338E+02 -0.97989319343E+00  0.15729306825E+03  0.15993007398E+03  0.00000000000E+00 0. -1.
        -13    1    4    4    0    0 -0.33768905037E+02 -0.28218068034E+02  0.14011100364E+03  0.14685942820E+03  0.00000000000E+00 0.  1.
         13    1    4    4    0    0 -0.31712129408E+02  0.48961858700E+02  0.61013536922E+02  0.84413117741E+02  0.00000000000E+00 0. -1.
         21    1    1    2  503  502  0.98082562881E+02 -0.93429843483E+01 -0.19470364888E+02  0.10043194515E+03  0.00000000000E+00 0.  1.
          2    1    1    2  501    0 -0.40017611225E+02 -0.94939648017E+01 -0.67851644842E+02  0.79343495534E+02  0.00000000000E+00 0. -1.
<scales pt_clust_5="13000.00000" pt_clust_6="13000.00000" pt_clust_7="13000.00000" pt_clust_8="13000.00000" pt_clust_9="72.17758" pt_clust_10="41.12839"></scales>
<clustering>
<clus scale="   41.128">  2 10  1 -1</clus>
<clus scale="   72.178">  2  9  1 -1</clus>
<clus scale="   91.202">  7  8 -1 -1</clus>
<clus scale="   93.910">  5  6 -1 -1</clus>
<clus scale="   97.422">  2  7  1 -1</clus>
<clus scale="   41.128">  2  5  1 -1</clus>
</clustering>
</event>
<event>
10    2  0.2421970E-006  0.1415125E+03  0.7546771E-02  0.1222804E+00
          2   -1    0    0  502    0 -0.00000000000E+00  0.00000000000E+00  0.41119795829E+03  0.41119795829E+03  0.00000000000E+00 0. -1.
         21   -1    0    0  503  502  0.00000000000E+00 -0.00000000000E+00 -0.10580905556E+03  0.10580905556E+03  0.00000000000E+00 0. -1.
         23    2    1    2    0    0  0.42135660111E+02  0.47970350830E+02  0.19710311006E+03  0.22622492841E+03  0.90837843596E+02 0.  0.
         23    2    1    2    0    0 -0.76994532662E+01  0.80203547048E+02  0.77758021452E+02  0.14450999124E+03  0.91350627415E+02 0.  0.
        -11    1    4    4    0    0 -0.26567821131E+02  0.91579165812E+02  0.76833979583E+02  0.12245837313E+03  0.00000000000E+00 0. -1.
         11    1    4    4    0    0  0.18868367865E+02 -0.11375618764E+02  0.92404186961E+00  0.22051618116E+02  0.00000000000E+00 0.  1.
        -13    1    3    3    0    0  0.70667985248E+02  0.32326764752E+02  0.15060179536E+03  0.16946942091E+03  0.00000000000E+00 0. -1.
         13    1    3    3    0    0 -0.28532325137E+02  0.15643586079E+02  0.46501314699E+02  0.56755507503E+02  0.00000000000E+00 0.  1.
         21    1    1    2  503  501 -0.19080889094E+02 -0.19855324924E+02 -0.10441961125E+02  0.29450786213E+02  0.00000000000E+00 0.  1.
          2    1    1    2  501    0 -0.15355317751E+02 -0.10831857295E+03  0.40969732346E+02  0.11682130798E+03  0.00000000000E+00 0. -1.
<scales pt_clust_5="13000.00000" pt_clust_6="13000.00000" pt_clust_7="13000.00000" pt_clust_8="13000.00000" pt_clust_9="26.78000" pt_clust_10="120.54062"></scales>
<clustering>
<clus scale="   26.780">  9 10 -1 -1</clus>
<clus scale="   90.838">  7  8 -1 -1</clus>
<clus scale="   91.351">  5  6 -1 -1</clus>
<clus scale="  111.032">  1  7  2 -1</clus>
<clus scale="  120.541">  2  9  1 -1</clus>
<clus scale="  120.541">  2  5  1 -1</clus>
</clustering>
</event>
<event>
10    2  0.2421970E-006  0.1336218E+03  0.7546771E-02  0.1222243E+00
         -1   -1    0    0    0  501 -0.00000000000E+00  0.00000000000E+00  0.48635157767E+03  0.48635157767E+03  0.00000000000E+00 0.  1.
         21   -1    0    0  501  502  0.00000000000E+00 -0.00000000000E+00 -0.12060093790E+03  0.12060093790E+03  0.00000000000E+00 0.  1.
         23    2    1    2    0    0  0.10761020508E+03 -0.14863662099E+02  0.37252824748E+03  0.39854216305E+03  0.90871755100E+02 0.  0.
         23    2    1    2    0    0 -0.53096665905E+02  0.51393215726E+02  0.33577881160E+02  0.12164663336E+03  0.90608557825E+02 0.  0.
        -13    1    3    3    0    0  0.14613620300E+02  0.28894919082E+02  0.14957860249E+03  0.15304323758E+03  0.00000000000E+00 0.  1.
         13    1    3    3    0    0  0.92996584779E+02 -0.43758581180E+02  0.22294964499E+03  0.24549892547E+03  0.00000000000E+00 0. -1.
        -13    1    4    4    0    0 -0.19561903587E+02  0.72718662551E+02  0.32150377749E+02  0.81879904400E+02  0.00000000000E+00 0.  1.
         13    1    4    4    0    0 -0.33534762318E+02 -0.21325446824E+02  0.14275034106E+01  0.39766728958E+02  0.00000000000E+00 0. -1.
         21    1    1    2  503  502 -0.25167830549E+02 -0.18481029038E+02  0.30209310295E+01  0.31370274993E+02  0.00000000000E+00 0. -1.
         -1    1    1    2    0  503 -0.29345708625E+02 -0.18048524590E+02 -0.43376419895E+02  0.55393444174E+02  0.00000000000E+00 0.  1.
<scales pt_clust_5="13000.00000" pt_clust_6="13000.00000" pt_clust_7="13000.00000" pt_clust_8="13000.00000" pt_clust_9="31.22448" pt_clust_10="48.90651"></scales>
<clustering>
<clus scale="   31.224">  2  9  1 -1</clus>
<clus scale="   48.907">  2 10  1 -1</clus>
<clus scale="   90.609">  7  8 -1 -1</clus>
<clus scale="   90.872">  5  6 -1 -1</clus>
<clus scale="  133.443">  2  7  1 -1</clus>
<clus scale="   31.224">  2  5  1 -1</clus>
</clustering>
</event>
<event>
10    2  0.2421970E-006  0.1143900E+03  0.7546771E-02  0.1254997E+00
         21   -1    0    0  501  502  0.00000000000E+00  0.00000000000E+00  0.34547520796E+03  0.34547520796E+03  0.00000000000E+00 0. -1.
          1   -1    0    0  503    0 -0.00000000000E+00 -0.00000000000E+00 -0.22476355471E+03  0.22476355471E+03  0.00000000000E+00 0. -1.
         23    2    1    2    0    0  0.39805995698E+02 -0.51395478875E+02 -0.15290577374E+03  0.18864814608E+03  0.89341674675E+02 0.  0.
         23    2    1    2    0    0 -0.48597986390E+02  0.30283910587E+02  0.20024466252E+02  0.11325381250E+03  0.95637687529E+02 0.  0.
        -11    1    4    4    0    0 -0.77185539244E+02  0.15643672469E+02  0.19491623785E+02  0.81131099798E+02  0.00000000000E+00 0.  1.
         11    1    4    4    0    0  0.28587552854E+02  0.14640238117E+02  0.53284246690E+00  0.32122712703E+02  0.00000000000E+00 0. -1.
        -13    1    3    3    0    0 -0.94382979545E+01 -0.46382318193E+02 -0.12055780893E+03  0.12951674102E+03  0.00000000000E+00 0.  1.
         13    1    3    3    0    0  0.49244293653E+02 -0.50131606817E+01 -0.32347964809E+02  0.59131405063E+02  0.00000000000E+00 0. -1.
         21    1    1    2  503  502  0.23855885200E+02 -0.23122360682E+02  0.54452318172E+02  0.63787159965E+02  0.00000000000E+00 0. -1.
          1    1    1    2  501    0 -0.15063894508E+02  0.44233928970E+02  0.19914064256E+03  0.20454964412E+03  0.00000000000E+00 0. -1.
<scales pt_clust_5="13000.00000" pt_clust_6="13000.00000" pt_clust_7="13000.00000" pt_clust_8="13000.00000" pt_clust_9="33.22269" pt_clust_10="27.99039"></scales>
<clustering>
<clus scale="   33.223">  1  9  2 -1</clus>
<clus scale="   27.990">  1 10  2 -1</clus>
<clus scale="   89.342">  7  8 -1 -1</clus>
<clus scale="   95.638">  5  6 -1 -1</clus>
<clus scale="  109.181">  2  7  1 -1</clus>
<clus scale="   33.223">  1  5  2 -1</clus>
</clustering>
</event>
<event>
10    2  0.2421970E-006  0.9733612E+02  0.7546771E-02  0.1286431E+00
          2   -1    0    0  503    0 -0.00000000000E+00  0.00000000000E+00  0.54009721351E+03  0.54009721351E+03  0.00000000000E+00 0. -1.
         21   -1    0    0  501  502  0.00000000000E+00 -0.00000000000E+00 -0.58218136175E+02  0.58218136175E+02  0.00000000000E+00 0.  1.
         23    2    1    2    0    0 -0.26171925359E+02  0.18541135120E+02  0.29388502849E+03  0.30943554060E+03  0.91395844786E+02 0.  0.
         23    2    1    2    0    0 -0.10281372000E+02 -0.51576567315E+02  0.20550105539E+03  0.23064498644E+03  0.90557037825E+02 0.  0.
        -11    1    4    4    0    0 -0.49654878889E+02 -0.24750526430E+02  0.90325149286E+02  0.10600390629E+03  0.00000000000E+00 0.  1.
         11    1    4    4    0    0  0.39373506890E+02 -0.26826040884E+02  0.11517590610E+03  0.12464108015E+03  0.00000000000E+00 0. -1.
        -11    1    3    3    0    0 -0.52067142232E+02 -0.94882962197E+01  0.22001663264E+03  0.22629258429E+03  0.00000000000E+00 0.  1.
         11    1    3    3    0    0  0.25895216872E+02  0.28029431339E+02  0.73868395851E+02  0.83142956308E+02  0.00000000000E+00 0. -1.
         21    1    1    2  503  502  0.26498232129E+02  0.12978875297E+02  0.48586037954E+00  0.29510058798E+02  0.00000000000E+00 0. -1.
          2    1    1    2  501    0  0.99550652297E+01  0.20056556898E+02 -0.17992866919E+02  0.28724763852E+02  0.00000000000E+00 0. -1.
<scales pt_clust_5="13000.00000" pt_clust_6="13000.00000" pt_clust_7="13000.00000" pt_clust_8="13000.00000" pt_clust_9="37.33461" pt_clust_10="22.39127"></scales>
<clustering>
<clus scale="   22.391">  2 10  1 -1</clus>
<clus scale="   37.335">  2  9  1 -1</clus>
<clus scale="   90.557">  5  6 -1 -1</clus>
<clus scale="   91.396">  7  8 -1 -1</clus>
<clus scale="   96.549">  2  5  1 -1</clus>
<clus scale="   22.391">  2  5  1 -1</clus>
</clustering>
</event>
<event>
10    2  0.2421970E-006  0.1155066E+03  0.7546771E-02  0.1250828E+00
         21   -1    0    0  503  502  0.00000000000E+00  0.00000000000E+00  0.72539877972E+03  0.72539877972E+03  0.00000000000E+00 0. -1.
          2   -1    0    0  502    0 -0.00000000000E+00 -0.00000000000E+00 -0.14445623015E+03  0.14445623015E+03  0.00000000000E+00 0. -1.
         23    2    1    2    0    0 -0.77308472854E+01 -0.70458775275E+02 -0.10123537409E+03  0.15299138186E+03  0.90186234780E+02 0.  0.
         23    2    1    2    0    0  0.39359156211E+02  0.98893351116E+02  0.60880330728E+03  0.62452865022E+03  0.89808295386E+02 0.  0.
        -11    1    3    3    0    0  0.65348818970E+01 -0.53658199782E+02 -0.11495510043E+03  0.12702984768E+03  0.00000000000E+00 0. -1.
         11    1    3    3    0    0 -0.14265729182E+02 -0.16800575493E+02  0.13719726348E+02  0.25961534181E+02  0.00000000000E+00 0.  1.
        -13    1    4    4    0    0 -0.16262955498E+02  0.75675906131E+02  0.29476146100E+03  0.30475505801E+03  0.00000000000E+00 0. -1.
         13    1    4    4    0    0  0.55622111709E+02  0.23217444985E+02  0.31404184628E+03  0.31977359222E+03  0.00000000000E+00 0.  1.
         21    1    1    2  503  501 -0.19842178824E+02  0.50820363149E+01  0.28559898163E+02  0.35145510903E+02  0.00000000000E+00 0. -1.
          2    1    1    2  501    0 -0.11786130101E+02 -0.33516612156E+02  0.44814718214E+02  0.57189466878E+02  0.00000000000E+00 0. -1.
<scales pt_clust_5="13000.00000" pt_clust_6="13000.00000" pt_clust_7="13000.00000" pt_clust_8="13000.00000" pt_clust_9="20.48265" pt_clust_10="35.69158"></scales>
<clustering>
<clus scale="   20.483">  1  9  2 -1</clus>
<clus scale="   35.692">  1 10  2 -1</clus>
<clus scale="   89.808">  7  8 -1 -1</clus>
<clus scale="   90.186">  5  6 -1 -1</clus>
<clus scale="  115.212">  1  7  2 -1</clus>
<clus scale="   20.483">  1  5  2 -1</clus>
</clustering>
</event>
<event>
10    2  0.2421970E-006  0.1461262E+03  0.7546771E-02  0.1207034E+00
         21   -1    0    0  501  502  0.00000000000E+00  0.00000000000E+00  0.16497132225E+03  0.16497132225E+03  0.00000000000E+00 0. -1.
          1   -1    0    0  503    0 -0.00000000000E+00 -0.00000000000E+00 -0.88154345473E+03  0.88154345473E+03  0.00000000000E+00 0. -1.
         23    2    1    2    0    0  0.38418979277E+02 -0.95734928818E+02 -0.47499844362E+03  0.49573019594E+03  0.97384347587E+02 0.  0.
         23    2    1    2    0    0  0.10840389702E+02  0.10737301567E+03 -0.23855987263E+03  0.27662345608E+03  0.89237016316E+02 0.  0.
        -11    1    3    3    0    0  0.66636775737E+02 -0.69492516897E+02 -0.39984685707E+03  0.41127506476E+03  0.00000000000E+00 0. -1.
         11    1    3    3    0    0 -0.28217796460E+02 -0.26242411922E+02 -0.75151586554E+02  0.84455131177E+02  0.00000000000E+00 0.  1.
        -11    1    4    4    0    0 -0.37046107687E+02  0.64146929056E+02 -0.10754922743E+03  0.13059126664E+03  0.00000000000E+00 0.  1.
         11    1    4    4    0    0  0.47886497389E+02  0.43226086610E+02 -0.13101064521E+03  0.14603218944E+03  0.00000000000E+00 0. -1.
         21    1    1    2  503  502  0.80026924948E+02 -0.34172854762E+02 -0.83179166529E+02  0.12037801487E+03  0.00000000000E+00 0.  1.
          1    1    1    2  501    0 -0.12928629393E+03  0.22534767914E+02  0.80165350306E+02  0.15378311010E+03  0.00000000000E+00 0. -1.
<scales pt_clust_5="13000.00000" pt_clust_6="13000.00000" pt_clust_7="13000.00000" pt_clust_8="13000.00000" pt_clust_9="87.01777" pt_clust_10="127.24043"></scales>
<clustering>
<clus scale="   87.018">  2  9  1 -1</clus>
<clus scale="   89.237">  7  8 -1 -1</clus>
<clus scale="   97.384">  5  6 -1 -1</clus>
<clus scale="  127.240">  1 10  2 -1</clus>
<clus scale="  140.828">  1  7  2 -1</clus>
<clus scale="  127.240">  1  5  2 -1</clus>
</clustering>
</event>
<event>
10    2  0.2421970E-006  0.1681595E+03  0.7546771E-02  0.1202090E+00
          1   -1    0    0  502    0 -0.00000000000E+00  0.00000000000E+00  0.39468095802E+03  0.39468095802E+03  0.00000000000E+00 0. -1.
         21   -1    0    0  503  502  0.00000000000E+00 -0.00000000000E+00 -0.13527099390E+03  0.13527099390E+03  0.00000000000E+00 0. -1.
         23    2    1    2    0    0  0.32890885797E+02 -0.32651115545E+02  0.15821819785E+03  0.18868052450E+03  0.91757487332E+02 0.  0.
         23    2    1    2    0    0 -0.39349036329E+02 -0.11936649665E+03  0.85970593602E+02  0.17830477705E+03  0.92762834007E+02 0.  0.
        -11    1    4    4    0    0  0.51417510494E+01 -0.10528128540E+03  0.39836585592E+02  0.11268336262E+03  0.00000000000E+00 0.  1.
         11    1    4    4    0    0 -0.44490787378E+02 -0.14085211254E+02  0.46134008011E+02  0.65621414437E+02  0.00000000000E+00 0. -1.
        -13    1    3    3    0    0 -0.92126071395E+01 -0.46017098595E+02  0.37305425711E+02  0.59951149120E+02  0.00000000000E+00 0. -1.
         13    1    3    3    0    0  0.42103492936E+02  0.13365983050E+02  0.12091277214E+03  0.12872937538E+03  0.00000000000E+00 0.  1.
         21    1    1    2  503  501 -0.17256663461E+02  0.93126706202E+02  0.26804799030E+02  0.98432073497E+02  0.00000000000E+00 0.  1.
          1    1    1    2  501    0  0.23714813993E+02  0.58890905997E+02 -0.11583626366E+02  0.64534576869E+02  0.00000000000E+00 0. -1.
<scales pt_clust_5="13000.00000" pt_clust_6="13000.00000" pt_clust_7="13000.00000" pt_clust_8="13000.00000" pt_clust_9="46.13558" pt_clust_10="151.15577"></scales>
<clustering>
<clus scale="   46.136">  9 10 -1 -1</clus>
<clus scale="   91.757">  7  8 -1 -1</clus>
<clus scale="   92.763">  5  6 -1 -1</clus>
<clus scale="  102.798">  1  7  2 -1</clus>
<clus scale="  151.156">  2  9  1 -1</clus>
<clus scale="  151.156">  2  5  1 -1</clus>
</clustering>
</event>
<event>
10    2  0.2421970E-006  0.2019198E+03  0.7546771E-02  0.1148162E+00
         21   -1    0    0  503  502  0.00000000000E+00  0.00000000000E+00  0.98712890806E+02  0.98712890806E+02  0.00000000000E+00 0. -1.
          1   -1    0    0  502    0 -0.00000000000E+00 -0.00000000000E+00 -0.90065163794E+03  0.90065163794E+03  0.00000000000E+00 0. -1.
         23    2    1    2    0    0  0.16489426251E+03  0.32240938388E+02 -0.52543356909E+03  0.55919898222E+03  0.91615884388E+02 0.  0.
         23    2    1    2    0    0 -0.19319440537E+03 -0.99043462670E+02 -0.26695281170E+03  0.35598932956E+03  0.91273837011E+02 0.  0.
        -11    1    4    4    0    0 -0.56643116649E+02 -0.79208165523E+02 -0.10427554409E+03  0.14267363192E+03  0.00000000000E+00 0. -1.
         11    1    4    4    0    0 -0.13655128872E+03 -0.19835297148E+02 -0.16267726760E+03  0.21331569764E+03  0.00000000000E+00 0.  1.
        -11    1    3    3    0    0  0.14115669401E+03  0.35438407112E+02 -0.51080410434E+03  0.53113268208E+03  0.00000000000E+00 0. -1.
         11    1    3    3    0    0  0.23737568505E+02 -0.31974687234E+01 -0.14629464750E+02  0.28066300142E+02  0.00000000000E+00 0.  1.
         21    1    1    2  503  501  0.18641791239E+02  0.17996831749E+02  0.13641835939E+02  0.29283135444E+02  0.00000000000E+00 0. -1.
          1    1    1    2  501    0  0.96583516167E+01  0.48805692533E+02 -0.23194202286E+02  0.54893081525E+02  0.00000000000E+00 0. -1.
<scales pt_clust_5="13000.00000" pt_clust_6="13000.00000" pt_clust_7="13000.00000" pt_clust_8="13000.00000" pt_clust_9="25.91143" pt_clust_10="54.20188"></scales>
<clustering>
<clus scale="   25.911">  1  9  2 -1</clus>
<clus scale="   54.202">  1 10  2 -1</clus>
<clus scale="   91.274">  5  6 -1 -1</clus>
<clus scale="   91.616">  7  8 -1 -1</clus>
<clus scale="  201.765">  1  5  2 -1</clus>
<clus scale="   25.911">  1  5  2 -1</clus>
</clustering>
</event>
<event>
10    2  0.2421970E-006  0.3425633E+03  0.7546771E-02  0.1077318E+00
         21   -1    0    0  501  502  0.00000000000E+00  0.00000000000E+00  0.11124138763E+04  0.11124138763E+04  0.00000000000E+00 0.  1.
          1   -1    0    0  503    0 -0.00000000000E+00 -0.00000000000E+00 -0.12898122301E+04  0.12898122301E+04  0.00000000000E+00 0. -1.
         23    2    1    2    0    0  0.13252704892E+03  0.16986322037E+03 -0.32175832778E+03  0.40703850104E+03  0.12543917850E+03 0.  0.
         23    2    1    2    0    0  0.15972721528E+02 -0.24151606872E+03 -0.78511001926E+03  0.82649199358E+03  0.90034070406E+02 0.  0.
        -11    1    3    3    0    0  0.12326559813E+03  0.56999044613E+02 -0.16629122797E+03  0.21469995638E+03  0.00000000000E+00 0.  1.
         11    1    3    3    0    0  0.92614507943E+01  0.11286417576E+03 -0.15546709981E+03  0.19233854466E+03  0.00000000000E+00 0. -1.
        -13    1    4    4    0    0  0.27213614622E+02 -0.13541048931E+03 -0.30728163028E+03  0.33689550568E+03  0.00000000000E+00 0. -1.
         13    1    4    4    0    0 -0.11240893094E+02 -0.10610557941E+03 -0.47782838897E+03  0.48959648790E+03  0.00000000000E+00 0.  1.
         21    1    1    2  503  502  0.84158601501E+02  0.33912427925E+03  0.39521308245E+03  0.52752376963E+03  0.00000000000E+00 0.  1.
          1    1    1    2  501    0 -0.23265837195E+03 -0.26747143090E+03  0.53425691083E+03  0.64117184214E+03  0.00000000000E+00 0. -1.
<scales pt_clust_5="13000.00000" pt_clust_6="13000.00000" pt_clust_7="13000.00000" pt_clust_8="13000.00000" pt_clust_9="342.56329" pt_clust_10="13000.00000"></scales>
<clustering>
<clus scale="   90.034">  7  8 -1 -1</clus>
<clus scale="  125.439">  5  6 -1 -1</clus>
<clus scale="  249.303">  2  5  1 -1</clus>
<clus scale="  184.734">  2  7  1 -1</clus>
<clus scale="  342.563">  2  9  1 -1</clus>
<clus scale="  342.563">  1  5  2 -1</clus>
</clustering>
</event>
<event>
10    2  0.2421970E-006  0.1754441E+03  0.7546771E-02  0.1198365E+00
         21   -1    0    0  501  502  0.00000000000E+00  0.00000000000E+00  0.67818452278E+03  0.67818452278E+03  0.00000000000E+00 0.  1.
          1   -1    0    0  503    0 -0.00000000000E+00 -0.00000000000E+00 -0.10003598182E+03  0.10003598182E+03  0.00000000000E+00 0. -1.
         23    2    1    2    0    0 -0.19200093880E+02 -0.23996966906E+02  0.64785629686E+02  0.11492745847E+03  0.89814502566E+02 0.  0.
         23    2    1    2    0    0  0.12892456778E+03 -0.95941073431E+02  0.11078552510E+03  0.21513775009E+03  0.90468697306E+02 0.  0.
        -11    1    3    3    0    0 -0.26002916527E+02 -0.55547700310E+02  0.51256719263E+02  0.79930907334E+02  0.00000000000E+00 0.  1.
         11    1    3    3    0    0  0.68028226472E+01  0.31550733404E+02  0.13528910423E+02  0.34996551137E+02  0.00000000000E+00 0. -1.
        -13    1    4    4    0    0  0.12928319824E+01 -0.25995784431E+02  0.52043693507E+02  0.58189331123E+02  0.00000000000E+00 0. -1.
         13    1    4    4    0    0  0.12763173580E+03 -0.69945289001E+02  0.58741831590E+02  0.15694841896E+03  0.00000000000E+00 0.  1.
         21    1    1    2  503  502 -0.35720576589E+02 -0.10981308817E+02  0.35831962321E+02  0.51773335405E+02  0.00000000000E+00 0.  1.
          1    1    1    2  501    0 -0.74003897311E+02  0.13091934915E+03  0.36674542386E+03  0.39638196064E+03  0.00000000000E+00 0. -1.
<scales pt_clust_5="13000.00000" pt_clust_6="13000.00000" pt_clust_7="13000.00000" pt_clust_8="13000.00000" pt_clust_9="37.37043" pt_clust_10="150.31986"></scales>
<clustering>
<clus scale="   37.370">  2  9  1 -1</clus>
<clus scale="   89.815">  5  6 -1 -1</clus>
<clus scale="   90.469">  7  8 -1 -1</clus>
<clus scale="   98.142">  2  5  1 -1</clus>
<clus scale="  150.320">  1 10  2 -1</clus>
<clus scale="  150.320">  1  5  2 -1</clus>
</clustering>
</event>
<event>
10    2  0.2421970E-006  0.9526676E+02  0.7546771E-02  0.1291388E+00
         21   -1    0    0  503  502  0.00000000000E+00  0.00000000000E+00  0.24608390606E+03  0.24608390606E+03  0.00000000000E+00 0.  1.
         -1   -1    0    0    0  501 -0.00000000000E+00 -0.00000000000E+00 -0.87048853416E+02  0.87048853416E+02  0.00000000000E+00 0.  1.
         23    2    1    2    0    0 -0.40301067391E+02 -0.15806091653E+02  0.10962739319E+02  0.10090938844E+03  0.90490410849E+02 0.  0.
         23    2    1    2    0    0  0.60851091865E+01 -0.11917404369E+02  0.33514537569E+02  0.98802720293E+02  0.91976628706E+02 0.  0.
        -13    1    4    4    0    0  0.37413318149E+02  0.19410734720E+02  0.34528729613E+02  0.54486385143E+02  0.00000000000E+00 0.  1.
         13    1    4    4    0    0 -0.31328208962E+02 -0.31328139089E+02 -0.10141920445E+01  0.44316335149E+02  0.00000000000E+00 0. -1.
        -13    1    3    3    0    0  0.25936721695E+02 -0.15630548176E+02 -0.92368222286E+01  0.31659855551E+02  0.00000000000E+00 0. -1.
         13    1    3    3    0    0 -0.66237789086E+02 -0.17554347678E+00  0.20199561548E+02  0.69249532888E+02  0.00000000000E+00 0.  1.
         21    1    1    2  503  501 -0.34649490955E+01  0.26057254245E+02  0.25138840124E+02  0.36372347378E+02  0.00000000000E+00 0.  1.
         -1    1    1    2    0  502  0.37680907300E+02  0.16662417768E+01  0.89418935628E+02  0.97048303362E+02  0.00000000000E+00 0.  1.
<scales pt_clust_5="13000.00000" pt_clust_6="13000.00000" pt_clust_7="13000.00000" pt_clust_8="13000.00000" pt_clust_9="26.28662" pt_clust_10="38.42792"></scales>
<clustering>
<clus scale="   26.287">  1  9  2 -1</clus>
<clus scale="   38.428">  1 10  2 -1</clus>
<clus scale="   90.490">  7  8 -1 -1</clus>
<clus scale="   91.977">  5  6 -1 -1</clus>
<clus scale="   93.833">  2  7  1 -1</clus>
<clus scale="   26.287">  1  5  2 -1</clus>
</clustering>
</event>
<event>
10    2  0.2421970E-006  0.1343188E+03  0.7546771E-02  0.1235889E+00
         21   -1    0    0  503  502  0.00000000000E+00  0.00000000000E+00  0.36193358775E+03  0.36193358775E+03  0.00000000000E+00 0. -1.
          2   -1    0    0  502    0 -0.00000000000E+00 -0.00000000000E+00 -0.11290033128E+03  0.11290033128E+03  0.00000000000E+00 0. -1.
         23    2    1    2    0    0 -0.38135809082E+02  0.91447122011E+01 -0.31646530119E+02  0.10400327214E+03  0.90979184719E+02 0.  0.
         23    2    1    2    0    0 -0.50843071348E+02 -0.67682147262E+02  0.10616133250E+03  0.16423436155E+03  0.92394837709E+02 0.  0.
        -11    1    3    3    0    0  0.25502615534E+02 -0.16591734028E+02 -0.99553381896E+01  0.32012150749E+02  0.00000000000E+00 0.  1.
         11    1    3    3    0    0 -0.63638424616E+02  0.25736446229E+02 -0.21691191929E+02  0.71991121393E+02  0.00000000000E+00 0. -1.
        -13    1    4    4    0    0 -0.75662449187E+02 -0.56442317547E+02  0.64038066153E+02  0.11406759112E+03  0.00000000000E+00 0. -1.
         13    1    4    4    0    0  0.24819377839E+02 -0.11239829715E+02  0.42123266346E+02  0.50166770436E+02  0.00000000000E+00 0.  1.
         21    1    1    2  503  501  0.58195747668E+02  0.40927238901E+02  0.14033546235E+03  0.15733984213E+03  0.00000000000E+00 0. -1.
          2    1    1    2  501    0  0.30783132761E+02  0.17610196160E+02  0.34182991742E+02  0.49256443191E+02  0.00000000000E+00 0. -1.
<scales pt_clust_5="13000.00000" pt_clust_6="13000.00000" pt_clust_7="13000.00000" pt_clust_8="13000.00000" pt_clust_9="20.96148" pt_clust_10="101.91264"></scales>
<clustering>
<clus scale="   20.961">  9 10 -1 -1</clus>
<clus scale="   90.979">  5  6 -1 -1</clus>
<clus scale="   92.395">  7  8 -1 -1</clus>
<clus scale="   99.072">  2  5  1 -1</clus>
<clus scale="  101.913">  1  9  2 -1</clus>
<clus scale="  101.913">  1  5  2 -1</clus>
</clustering>
</event>
<event>
10    2  0.2421970E-006  0.1359768E+03  0.7546771E-02  0.1221520E+00
         -1   -1    0    0    0  501 -0.00000000000E+00  0.00000000000E+00  0.12246522773E+04  0.12246522773E+04  0.00000000000E+00 0.  1.
         21   -1    0    0  503  502  0.00000000000E+00 -0.00000000000E+00 -0.57327170772E+02  0.57327170772E+02  0.00000000000E+00 0.  1.
         23    2    1    2    0    0  0.32171168835E+02 -0.93976033003E+02  0.68644272589E+03  0.69958022614E+03  0.91336728623E+02 0.  0.
         23    2    1    2    0    0  0.43516050512E+02  0.82694637718E+02  0.35012517425E+03  0.37632987094E+03  0.10151100609E+03 0.  0.
        -11    1    3    3    0    0  0.62957532176E+02 -0.46923030711E+02  0.41815332441E+03  0.42546166029E+03  0.00000000000E+00 0.  1.
         11    1    3    3    0    0 -0.30786363342E+02 -0.47053002292E+02  0.26828940148E+03  0.27411856584E+03  0.00000000000E+00 0. -1.
        -13    1    4    4    0    0 -0.32899078424E+02  0.33989691239E+02  0.12503781732E+03  0.13368658957E+03  0.00000000000E+00 0.  1.
         13    1    4    4    0    0  0.76415128936E+02  0.48704946479E+02  0.22508735693E+03  0.24264328137E+03  0.00000000000E+00 0. -1.
         21    1    1    2  503  501 -0.33303696388E+01 -0.56652543569E+02  0.28271880756E+02  0.63402691554E+02  0.00000000000E+00 0.  1.
         -1    1    1    2    0  502 -0.72356849708E+02  0.67933938854E+02  0.10248532566E+03  0.14266665947E+03  0.00000000000E+00 0.  1.
<scales pt_clust_5="13000.00000" pt_clust_6="13000.00000" pt_clust_7="13000.00000" pt_clust_8="13000.00000" pt_clust_9="56.75035" pt_clust_10="83.82746"></scales>
<clustering>
<clus scale="   56.750">  2  9  1 -1</clus>
<clus scale="   83.827">  2 10  1 -1</clus>
<clus scale="   91.337">  5  6 -1 -1</clus>
<clus scale="  101.511">  7  8 -1 -1</clus>
<clus scale="  128.560">  1  5  2 -1</clus>
<clus scale="   56.750">  2  5  1 -1</clus>
</clustering>
</event>
<event>
10    2  0.2421970E-006  0.9776037E+02  0.7546771E-02  0.1285583E+00
         -3   -1    0    0    0  501 -0.00000000000E+00  0.00000000000E+00  0.80465638469E+03  0.80465638469E+03  0.00000000000E+00 0.  1.
         21   -1    0    0  503  502  0.00000000000E+00 -0.00000000000E+00 -0.45316439091E+02  0.45316439091E+02  0.00000000000E+00 0.  1.
         23    2    1    2    0    0  0.53614097058E+02  0.31563744007E+02  0.36339027605E+03  0.37984708275E+03  0.91436164663E+02 0.  0.
         23    2    1    2    0    0  0.26437362626E+00 -0.78156803129E+01  0.21746978972E+03  0.23565666492E+03  0.90442244149E+02 0.  0.
        -13    1    4    4    0    0 -0.27861059834E+02  0.14638463515E+02  0.25968713006E+02  0.40803153362E+02  0.00000000000E+00 0.  1.
         13    1    4    4    0    0  0.28125433460E+02 -0.22454143828E+02  0.19150107671E+03  0.19485351155E+03  0.00000000000E+00 0. -1.
        -13    1    3    3    0    0 -0.11670666992E+01  0.50535944046E+02  0.13321466753E+03  0.14248295102E+03  0.00000000000E+00 0.  1.
         13    1    3    3    0    0  0.54781163757E+02 -0.18972200039E+02  0.23017560851E+03  0.23736413173E+03  0.00000000000E+00 0. -1.
         21    1    1    2  503  501 -0.29242517233E+02 -0.60993992371E+02  0.17733560132E+03  0.18979807010E+03  0.00000000000E+00 0.  1.
         -3    1    1    2    0  502 -0.24635953450E+02  0.37245928677E+02  0.11442785198E+01  0.44671006019E+02  0.00000000000E+00 0.  1.
<scales pt_clust_5="13000.00000" pt_clust_6="13000.00000" pt_clust_7="13000.00000" pt_clust_8="13000.00000" pt_clust_9="62.40281" pt_clust_10="44.65635"></scales>
<clustering>
<clus scale="   44.656">  2 10  1 -1</clus>
<clus scale="   62.403">  2  9  1 -1</clus>
<clus scale="   90.442">  5  6 -1 -1</clus>
<clus scale="   91.436">  7  8 -1 -1</clus>
<clus scale="   96.831">  2  5  1 -1</clus>
<clus scale="   44.656">  2  5  1 -1</clus>
</clustering>
</event>
<event>
10    2  0.2421970E-006  0.2413941E+03  0.7546771E-02  0.1119214E+00
         21   -1    0    0  501  502  0.00000000000E+00  0.00000000000E+00  0.37964013165E+03  0.37964013165E+03  0.00000000000E+00 0. -1.
          1   -1    0    0  503    0 -0.00000000000E+00 -0.00000000000E+00 -0.41069780724E+03  0.41069780724E+03  0.00000000000E+00 0. -1.
         23    2    1    2    0    0 -0.24392683925E+03  0.11925115374E+02 -0.26373883510E+03  0.37206445854E+03  0.96079534167E+02 0.  0.
         23    2    1    2    0    0  0.17350159331E+03  0.62379138654E+01  0.31418489355E+02  0.19838919632E+03  0.90716246015E+02 0.  0.
        -11    1    3    3    0    0 -0.16818795107E+03  0.36845088971E+02 -0.12763588244E+03  0.21432607390E+03  0.00000000000E+00 0.  1.
         11    1    3    3    0    0 -0.75738888181E+02 -0.24919973597E+02 -0.13610295266E+03  0.15773838464E+03  0.00000000000E+00 0. -1.
        -13    1    4    4    0    0  0.61023705970E+02  0.26927350781E+02  0.48887231701E+02  0.82697861724E+02  0.00000000000E+00 0. -1.
         13    1    4    4    0    0  0.11247788734E+03 -0.20689436916E+02 -0.17468742347E+02  0.11569133459E+03  0.00000000000E+00 0.  1.
         21    1    1    2  503  502  0.20705318546E+02 -0.14190581546E+02  0.20628820644E+02  0.32490476480E+02  0.00000000000E+00 0.  1.
          1    1    1    2  501    0  0.49719927394E+02 -0.39724476936E+01  0.18063384951E+03  0.18739380755E+03  0.00000000000E+00 0. -1.
<scales pt_clust_5="13000.00000" pt_clust_6="13000.00000" pt_clust_7="13000.00000" pt_clust_8="13000.00000" pt_clust_9="25.10145" pt_clust_10="61.56945"></scales>
<clustering>
<clus scale="   25.101">  1  9  2 -1</clus>
<clus scale="   61.569">  1 10  2 -1</clus>
<clus scale="   90.716">  7  8 -1 -1</clus>
<clus scale="   96.080">  5  6 -1 -1</clus>
<clus scale="  239.310">  1  7  2 -1</clus>
<clus scale="   25.101">  1  5  2 -1</clus>
</clustering>
</event>
<event>
10    2  0.2421970E-006  0.9731673E+02  0.7546771E-02  0.1286757E+00
          2   -1    0    0  503    0 -0.00000000000E+00  0.00000000000E+00  0.78953642911E+03  0.78953642911E+03  0.00000000000E+00 0.  1.
         21   -1    0    0  501  502  0.00000000000E+00 -0.00000000000E+00 -0.70118793988E+02  0.70118793988E+02  0.00000000000E+00 0. -1.
         23    2    1    2    0    0  0.32437629483E+02 -0.55289417511E+02  0.47352519393E+03  0.48682306133E+03  0.93066988040E+02 0.  0.
         23    2    1    2    0    0 -0.36522263271E+02 -0.11167820895E+02 -0.10828395690E+02  0.99926963521E+02  0.91703587429E+02 0.  0.
        -11    1    3    3    0    0  0.65190233550E+02 -0.39516656300E+02  0.33967322851E+03  0.34812244232E+03  0.00000000000E+00 0.  1.
         11    1    3    3    0    0 -0.32752604068E+02 -0.15772761211E+02  0.13385196542E+03  0.13870061901E+03  0.00000000000E+00 0. -1.
        -11    1    4    4    0    0  0.87714264634E+00 -0.32537097889E+02  0.27238569803E+02  0.42442570648E+02  0.00000000000E+00 0. -1.
         11    1    4    4    0    0 -0.37399405917E+02  0.21369276994E+02 -0.38066965493E+02  0.57484392873E+02  0.00000000000E+00 0.  1.
         21    1    1    2  503  502 -0.13700755650E+02  0.54131988139E+02  0.98623687300E+02  0.11333408376E+03  0.00000000000E+00 0.  1.
          2    1    1    2  501    0  0.17785389438E+02  0.12325250267E+02  0.15809714959E+03  0.15957111449E+03  0.00000000000E+00 0.  1.
<scales pt_clust_5="13000.00000" pt_clust_6="13000.00000" pt_clust_7="13000.00000" pt_clust_8="13000.00000" pt_clust_9="56.68368" pt_clust_10="21.63868"></scales>
<clustering>
<clus scale="   21.639">  2 10  1 -1</clus>
<clus scale="   56.684">  1  9  2 -1</clus>
<clus scale="   91.704">  7  8 -1 -1</clus>
<clus scale="   93.067">  5  6 -1 -1</clus>
<clus scale="   96.014">  2  7  1 -1</clus>
<clus scale="   21.639">  2  5  1 -1</clus>
</clustering>
</event>
<event>
10    2  0.2421970E-006  0.1116693E+03  0.7546771E-02  0.1257858E+00
         21   -1    0    0  503  502  0.00000000000E+00  0.00000000000E+00  0.15749690959E+03  0.15749690959E+03  0.00000000000E+00 0. -1.
         -3   -1    0    0    0  501 -0.00000000000E+00 -0.00000000000E+00 -0.33496078246E+03  0.33496078246E+03  0.00000000000E+00 0.  1.
         23    2    1    2    0    0 -0.63176998994E+02 -0.38861414479E+02 -0.19655102424E+03  0.22877728925E+03  0.90582560190E+02 0.  0.
         23    2    1    2    0    0 -0.14545077367E+02  0.81175357385E+02 -0.54935083361E+02  0.13361805160E+03  0.89637728703E+02 0.  0.
        -11    1    3    3    0    0  0.18918688543E+02  0.76607139392E+01 -0.54928193113E+02  0.58597864405E+02  0.00000000000E+00 0.  1.
         11    1    3    3    0    0 -0.82095687537E+02 -0.46522128418E+02 -0.14162283113E+03  0.17017942485E+03  0.00000000000E+00 0. -1.
        -13    1    4    4    0    0  0.34519014162E+02  0.13997180231E+02 -0.26465444781E+02  0.45693578987E+02  0.00000000000E+00 0.  1.
         13    1    4    4    0    0 -0.49064091529E+02  0.67178177154E+02 -0.28469638581E+02  0.87924472613E+02  0.00000000000E+00 0. -1.
         21    1    1    2  503  501  0.42653393457E+02 -0.22240817403E+02  0.28110524612E+01  0.48185764994E+02  0.00000000000E+00 0.  1.
         -3    1    1    2    0  502  0.35068682904E+02 -0.20073125503E+02  0.71211182269E+02  0.81876586203E+02  0.00000000000E+00 0.  1.
<scales pt_clust_5="13000.00000" pt_clust_6="13000.00000" pt_clust_7="13000.00000" pt_clust_8="13000.00000" pt_clust_9="60.82333" pt_clust_10="40.40721"></scales>
<clustering>
<clus scale="   40.407">  1 10  2 -1</clus>
<clus scale="   60.823">  1  9  2 -1</clus>
<clus scale="   89.638">  7  8 -1 -1</clus>
<clus scale="   90.583">  5  6 -1 -1</clus>
<clus scale="  110.904">  1  7  2 -1</clus>
<clus scale="   40.407">  1  5  2 -1</clus>
</clustering>
</event>
<event>
10    2  0.2421970E-006  0.1002916E+03  0.7546771E-02  0.1279749E+00
         21   -1    0    0  501  502  0.00000000000E+00  0.00000000000E+00  0.75246969763E+02  0.75246969763E+02  0.00000000000E+00 0.  1.
          3   -1    0    0  503    0 -0.00000000000E+00 -0.00000000000E+00 -0.25571710404E+03  0.25571710404E+03  0.00000000000E+00 0. -1.
         23    2    1    2    0    0 -0.31942783054E+01  0.35051596168E+02 -0.87030902682E+02  0.13040246930E+03  0.90507503392E+02 0.  0.
         23    2    1    2    0    0 -0.47816549925E+02 -0.35922818537E+02 -0.26803827920E+02  0.11163401536E+03  0.90370553040E+02 0.  0.
        -11    1    3    3    0    0 -0.16215563737E+02  0.52575235748E+02 -0.92743709817E+02  0.10783550265E+03  0.00000000000E+00 0. -1.
         11    1    3    3    0    0  0.13021285432E+02 -0.17523639580E+02  0.57128071349E+01  0.22566966650E+02  0.00000000000E+00 0.  1.
        -11    1    4    4    0    0 -0.16111613246E+02 -0.36306085547E+02  0.27806506811E+02  0.48486263520E+02  0.00000000000E+00 0.  1.
         11    1    4    4    0    0 -0.31704936679E+02  0.38326701056E+00 -0.54610334731E+02  0.63147751843E+02  0.00000000000E+00 0. -1.
         21    1    1    2  503  502  0.24318562095E+02  0.13732790449E+02 -0.22981324406E+02  0.36167986775E+02  0.00000000000E+00 0. -1.
          3    1    1    2  501    0  0.26692266135E+02 -0.12861568081E+02 -0.43654079273E+02  0.52759602368E+02  0.00000000000E+00 0. -1.
<scales pt_clust_5="13000.00000" pt_clust_6="13000.00000" pt_clust_7="13000.00000" pt_clust_8="13000.00000" pt_clust_9="27.92816" pt_clust_10="33.38839"></scales>
<clustering>
<clus scale="   27.928">  2  9  1 -1</clus>
<clus scale="   33.388">  1 10  2 -1</clus>
<clus scale="   90.371">  7  8 -1 -1</clus>
<clus scale="   90.508">  5  6 -1 -1</clus>
<clus scale="  100.168">  1  7  2 -1</clus>
<clus scale="   33.388">  1  5  2 -1</clus>
</clustering>
</event>
<event>
10    2  0.2421970E-006  0.2110025E+03  0.7546771E-02  0.1140846E+00
          1   -1    0    0  503    0 -0.00000000000E+00  0.00000000000E+00  0.19386432907E+04  0.19386432907E+04  0.00000000000E+00 0. -1.
         21   -1    0    0  501  502  0.00000000000E+00 -0.00000000000E+00 -0.60224009485E+02  0.60224009485E+02  0.00000000000E+00 0. -1.
         23    2    1    2    0    0  0.81841186596E+02  0.10533335565E+03  0.51454738308E+03  0.53939055319E+03  0.91597291425E+02 0.  0.
         23    2    1    2    0    0 -0.16738552084E+03 -0.21092680070E+03  0.11361730634E+04  0.11712987553E+04  0.92431143741E+02 0.  0.
        -11    1    3    3    0    0 -0.10560617561E+02  0.52639589255E+02  0.13698586761E+03  0.14713116911E+03  0.00000000000E+00 0. -1.
         11    1    3    3    0    0  0.92401804157E+02  0.52693766399E+02  0.37756151547E+03  0.39225938407E+03  0.00000000000E+00 0.  1.
        -11    1    4    4    0    0 -0.12832077011E+03 -0.19314718739E+03  0.10464972210E+04  0.10718808187E+04  0.00000000000E+00 0. -1.
         11    1    4    4    0    0 -0.39064750735E+02 -0.17779613302E+02  0.89675842467E+02  0.99417936617E+02  0.00000000000E+00 0.  1.
         21    1    1    2  503  502  0.90541118791E+02  0.23074463802E+02  0.10964078349E+03  0.14405286000E+03  0.00000000000E+00 0. -1.
          1    1    1    2  501    0 -0.49967845453E+01  0.82518981240E+02  0.11805805124E+03  0.14412513168E+03  0.00000000000E+00 0. -1.
<scales pt_clust_5="13000.00000" pt_clust_6="13000.00000" pt_clust_7="13000.00000" pt_clust_8="13000.00000" pt_clust_9="103.42755" pt_clust_10="82.67013"></scales>
<clustering>
<clus scale="   82.670">  2 10  1 -1</clus>
<clus scale="   91.597">  5  6 -1 -1</clus>
<clus scale="   92.431">  7  8 -1 -1</clus>
<clus scale="  103.428">  2  9  1 -1</clus>
<clus scale="  210.639">  1  5  2 -1</clus>
<clus scale="   82.670">  2  5  1 -1</clus>
</clustering>
</event>
<event>
10    2  0.2421970E-006  0.1084650E+03  0.7546771E-02  0.1263852E+00
          1   -1    0    0  503    0 -0.00000000000E+00  0.00000000000E+00  0.86106564677E+03  0.86106564677E+03  0.00000000000E+00 0. -1.
         21   -1    0    0  501  502  0.00000000000E+00 -0.00000000000E+00 -0.67947321480E+02  0.67947321480E+02  0.00000000000E+00 0. -1.
         23    2    1    2    0    0 -0.53911911287E+02  0.26954056673E+02  0.47567259894E+03  0.48773492140E+03  0.89375146550E+02 0.  0.
         23    2    1    2    0    0  0.33198086381E+02 -0.62292416258E+02  0.35403830741E+03  0.37165205050E+03  0.88315714682E+02 0.  0.
        -11    1    4    4    0    0  0.46611647118E+02 -0.14558134313E+02  0.84535059172E+02  0.97625617288E+02  0.00000000000E+00 0.  1.
         11    1    4    4    0    0 -0.13413560736E+02 -0.47734281945E+02  0.26950324824E+03  0.27402643321E+03  0.00000000000E+00 0. -1.
        -11    1    3    3    0    0 -0.70170030759E+02 -0.62875967112E+01  0.32991850169E+03  0.33735676197E+03  0.00000000000E+00 0. -1.
         11    1    3    3    0    0  0.16258119472E+02  0.33241653385E+02  0.14575409725E+03  0.15037815943E+03  0.00000000000E+00 0.  1.
         21    1    1    2  503  502 -0.57954612850E+00  0.34687145841E+02 -0.11144464668E+02  0.36438071478E+02  0.00000000000E+00 0.  1.
          1    1    1    2  501    0  0.21293371034E+02  0.65121374331E+00 -0.25448116397E+02  0.33187924874E+02  0.00000000000E+00 0. -1.
<scales pt_clust_5="13000.00000" pt_clust_6="13000.00000" pt_clust_7="13000.00000" pt_clust_8="13000.00000" pt_clust_9="37.25994" pt_clust_10="21.30333"></scales>
<clustering>
<clus scale="   21.303">  2 10  1 -1</clus>
<clus scale="   37.260">  2  9  1 -1</clus>
<clus scale="   88.316">  5  6 -1 -1</clus>
<clus scale="   89.375">  7  8 -1 -1</clus>
<clus scale="  107.594">  2  5  1 -1</clus>
<clus scale="   21.303">  2  5  1 -1</clus>
</clustering>
</event>
<event>
10    2  0.2421970E-006  0.1416263E+03  0.7546771E-02  0.1211458E+00
         21   -1    0    0  501  502  0.00000000000E+00  0.00000000000E+00  0.38371102927E+03  0.38371102927E+03  0.00000000000E+00 0.  1.
          1   -1    0    0  503    0 -0.00000000000E+00 -0.00000000000E+00 -0.32499371816E+03  0.32499371816E+03  0.00000000000E+00 0. -1.
         23    2    1    2    0    0 -0.31850748422E+02  0.97799875867E+02 -0.24550376375E+03  0.28137214663E+03  0.91208009457E+02 0.  0.
         23    2    1    2    0    0  0.86637106684E+02 -0.15352837738E+03  0.23879696478E+03  0.31092654532E+03  0.92597922646E+02 0.  0.
        -11    1    4    4    0    0  0.59465072195E+02 -0.98738455061E+02  0.78757914105E+02  0.13960009439E+03  0.00000000000E+00 0.  1.
         11    1    4    4    0    0  0.27172034489E+02 -0.54789922314E+02  0.16003905068E+03  0.17132645093E+03  0.00000000000E+00 0. -1.
        -13    1    3    3    0    0 -0.54040168771E+02  0.31452964360E+02 -0.78870622781E+02  0.10064891428E+03  0.00000000000E+00 0.  1.
         13    1    3    3    0    0  0.22189420349E+02  0.66346911507E+02 -0.16663314097E+03  0.18072323235E+03  0.00000000000E+00 0. -1.
         21    1    1    2  503  502 -0.64110767362E+01  0.36491139967E+02  0.62201451017E+01  0.37568542773E+02  0.00000000000E+00 0. -1.
          1    1    1    2  501    0 -0.48375281526E+02  0.19237361542E+02  0.59203964977E+02  0.78837512713E+02  0.00000000000E+00 0. -1.
<scales pt_clust_5="13000.00000" pt_clust_6="13000.00000" pt_clust_7="13000.00000" pt_clust_8="13000.00000" pt_clust_9="37.05004" pt_clust_10="56.09232"></scales>
<clustering>
<clus scale="   37.050">  1  9  2 -1</clus>
<clus scale="   56.092">  1 10  2 -1</clus>
<clus scale="   91.208">  7  8 -1 -1</clus>
<clus scale="   92.598">  5  6 -1 -1</clus>
<clus scale="  140.721">  2  7  1 -1</clus>
<clus scale="   37.050">  1  5  2 -1</clus>
</clustering>
</event>
<event>
10    2  0.2421970E-006  0.1130327E+03  0.7546771E-02  0.1256197E+00
          1   -1    0    0  503    0 -0.00000000000E+00  0.00000000000E+00  0.71418874372E+03  0.71418874372E+03  0.00000000000E+00 0. -1.
         21   -1    0    0  501  502  0.00000000000E+00 -0.00000000000E+00 -0.33633418478E+02  0.33633418478E+02  0.00000000000E+00 0.  1.
         23    2    1    2    0    0 -0.42736707370E+02  0.73833155572E+01  0.33266146292E+03  0.34881373188E+03  0.95532356446E+02 0.  0.
         23    2    1    2    0    0  0.68276229109E+02 -0.40105992683E+02  0.16127109935E+03  0.20208928680E+03  0.92528796849E+02 0.  0.
        -13    1    4    4    0    0  0.81675987346E+02 -0.27327631187E+01  0.11567150703E+03  0.14162744241E+03  0.00000000000E+00 0.  1.
         13    1    4    4    0    0 -0.13399758237E+02 -0.37373229564E+02  0.45599592313E+02  0.60461844398E+02  0.00000000000E+00 0. -1.
        -13    1    3    3    0    0  0.32220970900E+01  0.40931421744E+02  0.20461708131E+03  0.20869574303E+03  0.00000000000E+00 0.  1.
         13    1    3    3    0    0 -0.45958804460E+02 -0.33548106187E+02  0.12804438161E+03  0.14011798885E+03  0.00000000000E+00 0. -1.
         21    1    1    2  503  502 -0.37564727120E+01  0.38346717178E+02  0.13914073024E+03  0.14437702247E+03  0.00000000000E+00 0. -1.
          1    1    1    2  501    0 -0.21783049027E+02 -0.56240400520E+01  0.47482032736E+02  0.52542121048E+02  0.00000000000E+00 0. -1.
<scales pt_clust_5="13000.00000" pt_clust_6="13000.00000" pt_clust_7="13000.00000" pt_clust_8="13000.00000" pt_clust_9="38.28363" pt_clust_10="22.49736"></scales>
<clustering>
<clus scale="   22.497">  2 10  1 -1</clus>
<clus scale="   38.284">  1  9  2 -1</clus>
<clus scale="   92.529">  5  6 -1 -1</clus>
<clus scale="   95.532">  7  8 -1 -1</clus>
<clus scale="  110.506">  2  5  1 -1</clus>
<clus scale="   22.497">  2  5  1 -1</clus>
</clustering>
</event>
<event>
10    2  0.2421970E-006  0.1208031E+03  0.7546771E-02  0.1246305E+00
         -4   -1    0    0    0  501 -0.00000000000E+00  0.00000000000E+00  0.38574169544E+03  0.38574169544E+03  0.00000000000E+00 0. -1.
         21   -1    0    0  503  502  0.00000000000E+00 -0.00000000000E+00 -0.85888041233E+02  0.85888041233E+02  0.00000000000E+00 0.  1.
         23    2    1    2    0    0  0.52981094104E+02  0.70838636425E+02  0.11674098426E+03  0.17599902659E+03  0.97581203167E+02 0.  0.
         23    2    1    2    0    0  0.15748291015E+02 -0.72623097134E+02  0.90139893397E+02  0.14399044683E+03  0.84177939451E+02 0.  0.
        -13    1    3    3    0    0  0.75565040495E+02  0.69612199616E+02  0.11359213223E+03  0.15316365817E+03  0.00000000000E+00 0.  1.
         13    1    3    3    0    0 -0.22583946391E+02  0.12264368090E+01  0.31488520378E+01  0.22835368422E+02  0.00000000000E+00 0. -1.
        -13    1    4    4    0    0 -0.30037557320E+02 -0.14248057772E+02  0.48837957501E+02  0.59079675802E+02  0.00000000000E+00 0. -1.
         13    1    4    4    0    0  0.45785848334E+02 -0.58375039362E+02  0.41301935896E+02  0.84910771030E+02  0.00000000000E+00 0.  1.
         21    1    1    2  503  501 -0.76973111898E+02 -0.24299972840E+02  0.94452444397E+02  0.12424416641E+03  0.00000000000E+00 0.  1.
         -4    1    1    2    0  502  0.82437267789E+01  0.26084433548E+02 -0.14796678534E+01  0.27396096833E+02  0.00000000000E+00 0. -1.
<scales pt_clust_5="13000.00000" pt_clust_6="13000.00000" pt_clust_7="13000.00000" pt_clust_8="13000.00000" pt_clust_9="77.58226" pt_clust_10="27.35611"></scales>
<clustering>
<clus scale="   27.356">  2 10  1 -1</clus>
<clus scale="   77.582">  1  9  2 -1</clus>
<clus scale="   84.178">  7  8 -1 -1</clus>
<clus scale="   97.581">  5  6 -1 -1</clus>
<clus scale="  110.260">  2  7  1 -1</clus>
<clus scale="   27.356">  2  5  1 -1</clus>
</clustering>
</event>
<event>
10    2  0.2421970E-006  0.3254889E+03  0.7546771E-02  0.1111095E+00
         21   -1    0    0  501  502  0.00000000000E+00  0.00000000000E+00  0.33583018222E+03  0.33583018222E+03  0.00000000000E+00 0. -1.
          1   -1    0    0  503    0 -0.00000000000E+00 -0.00000000000E+00 -0.95460354077E+03  0.95460354077E+03  0.00000000000E+00 0. -1.
         23    2    1    2    0    0 -0.59054339683E+02 -0.50696975628E+02 -0.12419505092E+03  0.17256747734E+03  0.91090752485E+02 0.  0.
         23    2    1    2    0    0  0.11460119525E+03  0.14617430101E+03 -0.18741855289E+03  0.27987464050E+03  0.93293837962E+02 0.  0.
        -11    1    3    3    0    0 -0.55521863035E+02 -0.92907334272E+01 -0.18921796742E+02  0.59388798560E+02  0.00000000000E+00 0.  1.
         11    1    3    3    0    0 -0.35324766483E+01 -0.41406242201E+02 -0.10527325418E+03  0.11317867878E+03  0.00000000000E+00 0. -1.
        -13    1    4    4    0    0  0.34733431961E+02  0.15417054703E+02 -0.26632444531E+00  0.38002207833E+02  0.00000000000E+00 0.  1.
         13    1    4    4    0    0  0.79867763286E+02  0.13075724630E+03 -0.18715222844E+03  0.24187243267E+03  0.00000000000E+00 0. -1.
         21    1    1    2  503  502  0.27567385998E+03 -0.56697688644E+01 -0.39689438100E+03  0.48327360059E+03  0.00000000000E+00 0. -1.
          1    1    1    2  501    0 -0.33122071554E+03 -0.89807556513E+02  0.89734626263E+02  0.35471800457E+03  0.00000000000E+00 0. -1.
<scales pt_clust_5="13000.00000" pt_clust_6="13000.00000" pt_clust_7="13000.00000" pt_clust_8="13000.00000" pt_clust_9="13000.00000" pt_clust_10="325.48894"></scales>
<clustering>
<clus scale="   91.091">  5  6 -1 -1</clus>
<clus scale="   93.294">  7  8 -1 -1</clus>
<clus scale="  119.813">  2  5  1 -1</clus>
<clus scale="  188.401">  2  7  1 -1</clus>
<clus scale="  325.489">  1 10  2 -1</clus>
<clus scale="  325.489">  1  5  2 -1</clus>
</clustering>
</event>
<event>
10    2  0.2421970E-006  0.2411452E+03  0.7546771E-02  0.1143491E+00
          1   -1    0    0  502    0 -0.00000000000E+00  0.00000000000E+00  0.73992904640E+03  0.73992904640E+03  0.00000000000E+00 0. -1.
         21   -1    0    0  503  502  0.00000000000E+00 -0.00000000000E+00 -0.30931411908E+03  0.30931411908E+03  0.00000000000E+00 0. -1.
         23    2    1    2    0    0 -0.95045153744E+02  0.14056123024E+01  0.42451996388E+03  0.44469474556E+03  0.92199023861E+02 0.  0.
         23    2    1    2    0    0  0.28834370282E+03  0.70471392685E+02  0.15278589903E+03  0.34657270082E+03  0.93063407783E+02 0.  0.
        -11    1    3    3    0    0 -0.41045304789E+02  0.44532878345E+02  0.24385641173E+03  0.25126448981E+03  0.00000000000E+00 0.  1.
         11    1    3    3    0    0 -0.53999848955E+02 -0.43127266043E+02  0.18066355215E+03  0.19343025575E+03  0.00000000000E+00 0. -1.
        -13    1    4    4    0    0  0.18149047084E+03  0.25092090039E+02  0.13835808805E+03  0.22958955664E+03  0.00000000000E+00 0. -1.
         13    1    4    4    0    0  0.10685323198E+03  0.45379302646E+02  0.14427810981E+02  0.11698314419E+03  0.00000000000E+00 0.  1.
         21    1    1    2  503  501 -0.39539736051E+02 -0.28313950489E+02 -0.56212217182E+02  0.74329562624E+02  0.00000000000E+00 0. -1.
          1    1    1    2  501    0 -0.15375881303E+03 -0.43563054498E+02 -0.90478718402E+02  0.18364615647E+03  0.00000000000E+00 0. -1.
<scales pt_clust_5="13000.00000" pt_clust_6="13000.00000" pt_clust_7="13000.00000" pt_clust_8="13000.00000" pt_clust_9="27.59652" pt_clust_10="228.01937"></scales>
<clustering>
<clus scale="   27.597">  9 10 -1 -1</clus>
<clus scale="   92.199">  5  6 -1 -1</clus>
<clus scale="   93.063">  7  8 -1 -1</clus>
<clus scale="  132.424">  1  5  2 -1</clus>
<clus scale="  228.019">  2  9  1 -1</clus>
<clus scale="  228.019">  2  5  1 -1</clus>
</clustering>
</event>
<event>
10    2  0.2421970E-006  0.9395932E+02  0.7546771E-02  0.1295317E+00
          2   -1    0    0  503    0 -0.00000000000E+00  0.00000000000E+00  0.33803253676E+03  0.33803253676E+03  0.00000000000E+00 0. -1.
         21   -1    0    0  501  502  0.00000000000E+00 -0.00000000000E+00 -0.86786950668E+02  0.86786950668E+02  0.00000000000E+00 0.  1.
         23    2    1    2    0    0 -0.12459155277E+02  0.41854261986E+02  0.15149728947E+03  0.18273150967E+03  0.92370807675E+02 0.  0.
         23    2    1    2    0    0 -0.28343366824E+01  0.38684388845E+02  0.13836846215E+02  0.98298968528E+02  0.89256447923E+02 0.  0.
        -11    1    3    3    0    0 -0.25466125008E+02  0.67479388862E+02  0.12071184143E+03  0.14061770907E+03  0.00000000000E+00 0.  1.
         11    1    3    3    0    0  0.13006969731E+02 -0.25625126876E+02  0.30785448045E+02  0.42113800593E+02  0.00000000000E+00 0. -1.
        -13    1    4    4    0    0 -0.69597784837E+00  0.64346844153E+02 -0.75931528759E+01  0.64797042435E+02  0.00000000000E+00 0.  1.
         13    1    4    4    0    0 -0.21383588340E+01 -0.25662455308E+02  0.21429999091E+02  0.33501926094E+02  0.00000000000E+00 0. -1.
         21    1    1    2  503  502 -0.26856411327E+02 -0.59766845539E+02  0.65203307251E+02  0.92438162744E+02  0.00000000000E+00 0.  1.
          2    1    1    2  501    0  0.42149903286E+02 -0.20771805292E+02  0.20708143150E+02  0.51350846486E+02  0.00000000000E+00 0. -1.
<scales pt_clust_5="13000.00000" pt_clust_6="13000.00000" pt_clust_7="13000.00000" pt_clust_8="13000.00000" pt_clust_9="66.44720" pt_clust_10="46.99024"></scales>
<clustering>
<clus scale="   46.990">  2 10  1 -1</clus>
<clus scale="   66.447">  1  9  2 -1</clus>
<clus scale="   89.256">  7  8 -1 -1</clus>
<clus scale="   90.899">  2  7  1 -1</clus>
<clus scale="   92.371">  5  6 -1 -1</clus>
<clus scale="   46.990">  2  5  1 -1</clus>
</clustering>
</event>
<event>
10    2  0.2421970E-006  0.1959680E+03  0.7546771E-02  0.1168726E+00
         21   -1    0    0  501  502  0.00000000000E+00  0.00000000000E+00  0.27592343693E+03  0.27592343693E+03  0.00000000000E+00 0. -1.
          1   -1    0    0  503    0 -0.00000000000E+00 -0.00000000000E+00 -0.91961937467E+03  0.91961937467E+03  0.00000000000E+00 0. -1.
         23    2    1    2    0    0  0.99536896490E+02  0.21279247192E+02 -0.93811025360E+02  0.16568212542E+03  0.91047559448E+02 0.  0.
         23    2    1    2    0    0  0.99793202833E+02 -0.10524480771E+03 -0.61189233024E+03  0.63553232754E+03  0.91945433102E+02 0.  0.
        -11    1    4    4    0    0 -0.14911367200E+02 -0.32386080870E+02 -0.13943366341E+03  0.14391995553E+03  0.00000000000E+00 0.  1.
         11    1    4    4    0    0  0.11470457003E+03 -0.72858726839E+02 -0.47245866682E+03  0.49161237202E+03  0.00000000000E+00 0. -1.
        -13    1    3    3    0    0  0.11378797649E+03  0.68125414289E+01 -0.67613535153E+02  0.13253567237E+03  0.00000000000E+00 0. -1.
         13    1    3    3    0    0 -0.14251080001E+02  0.14466705763E+02 -0.26197490207E+02  0.33146453053E+02  0.00000000000E+00 0.  1.
         21    1    1    2  503  502 -0.17549148640E+03 -0.85400243508E+02 -0.34124276371E+02  0.19812856843E+03  0.00000000000E+00 0. -1.
          1    1    1    2  501    0 -0.23838612923E+02  0.16936580402E+03  0.96131694229E+02  0.19619979020E+03  0.00000000000E+00 0. -1.
<scales pt_clust_5="13000.00000" pt_clust_6="13000.00000" pt_clust_7="13000.00000" pt_clust_8="13000.00000" pt_clust_9="173.05921" pt_clust_10="171.61177"></scales>
<clustering>
<clus scale="   91.048">  7  8 -1 -1</clus>
<clus scale="   91.945">  5  6 -1 -1</clus>
<clus scale="  136.565">  2  7  1 -1</clus>
<clus scale="  171.612">  1 10  2 -1</clus>
<clus scale="  173.059">  1  9  2 -1</clus>
<clus scale="  171.612">  1  5  2 -1</clus>
</clustering>
</event>
<event>
10    2  0.2421970E-006  0.1047793E+03  0.7546771E-02  0.1275368E+00
         21   -1    0    0  503  502  0.00000000000E+00  0.00000000000E+00  0.41978546568E+03  0.41978546568E+03  0.00000000000E+00 0.  1.
         -1   -1    0    0    0  501 -0.00000000000E+00 -0.00000000000E+00 -0.13468779173E+03  0.13468779173E+03  0.00000000000E+00 0.  1.
         23    2    1    2    0    0  0.39250422825E+02  0.13910621772E+02 -0.90375737833E+02  0.13971682803E+03  0.98076077385E+02 0.  0.
         23    2    1    2    0    0 -0.42723611510E+00  0.89651244754E+01  0.19405360544E+03  0.21330617949E+03  0.88103169290E+02 0.  0.
        -11    1    4    4    0    0 -0.28320938238E+02  0.32590263710E+02  0.57267836733E+02  0.71720331535E+02  0.00000000000E+00 0. -1.
         11    1    4    4    0    0  0.27893702123E+02 -0.23625139235E+02  0.13678576870E+03  0.14158584796E+03  0.00000000000E+00 0.  1.
        -13    1    3    3    0    0  0.13671206629E+01 -0.21438782426E+02  0.12266590992E+02  0.24737818525E+02  0.00000000000E+00 0. -1.
         13    1    3    3    0    0  0.37883302162E+02  0.35349404198E+02 -0.10264232882E+03  0.11497900950E+03  0.00000000000E+00 0.  1.
         21    1    1    2  503  501 -0.99528099187E+01  0.27589386112E+02  0.56275726736E+02  0.63460145532E+02  0.00000000000E+00 0.  1.
         -1    1    1    2    0  502 -0.28870376792E+02 -0.50465132359E+02  0.12514407961E+03  0.13799010436E+03  0.00000000000E+00 0.  1.
<scales pt_clust_5="13000.00000" pt_clust_6="13000.00000" pt_clust_7="13000.00000" pt_clust_8="13000.00000" pt_clust_9="29.32972" pt_clust_10="51.83961"></scales>
<clustering>
<clus scale="   29.330">  1  9  2 -1</clus>
<clus scale="   51.840">  1 10  2 -1</clus>
<clus scale="   88.103">  5  6 -1 -1</clus>
<clus scale="   95.509">  1  5  2 -1</clus>
<clus scale="   98.076">  7  8 -1 -1</clus>
<clus scale="   29.330">  1  5  2 -1</clus>
</clustering>
</event>
<event>
10    2  0.2421970E-006  0.1062363E+03  0.7546771E-02  0.1269162E+00
         21   -1    0    0  501  502  0.00000000000E+00  0.00000000000E+00  0.23655478772E+03  0.23655478772E+03  0.00000000000E+00 0.  1.
          2   -1    0    0  503    0 -0.00000000000E+00 -0.00000000000E+00 -0.12141986157E+03  0.12141986157E+03  0.00000000000E+00 0. -1.
         23    2    1    2    0    0 -0.92879729081E+01  0.60376057552E+02 -0.43235614398E+02  0.11855207374E+03  0.91944228038E+02 0.  0.
         23    2    1    2    0    0  0.18487306787E+02  0.32261804359E+01  0.10571346935E+03  0.14353500376E+03  0.95261592205E+02 0.  0.
        -11    1    4    4    0    0  0.24480909220E+02  0.45030676584E+02  0.38294212994E+02  0.63980649408E+02  0.00000000000E+00 0. -1.
         11    1    4    4    0    0 -0.59936024327E+01 -0.41804496148E+02  0.67419256359E+02  0.79554354352E+02  0.00000000000E+00 0.  1.
        -13    1    3    3    0    0  0.13600992210E+01  0.79529769183E+02 -0.51911894082E+02  0.94982518409E+02  0.00000000000E+00 0. -1.
         13    1    3    3    0    0 -0.10648072129E+02 -0.19153711631E+02  0.86762796839E+01  0.23569555330E+02  0.00000000000E+00 0.  1.
         21    1    1    2  503  502 -0.26036686234E+02 -0.41859466613E+02  0.20012258512E+02  0.53203519300E+02  0.00000000000E+00 0.  1.
          2    1    1    2  501    0  0.16837352355E+02 -0.21742771375E+02  0.32644812691E+02  0.42684052491E+02  0.00000000000E+00 0. -1.
<scales pt_clust_5="13000.00000" pt_clust_6="13000.00000" pt_clust_7="13000.00000" pt_clust_8="13000.00000" pt_clust_9="51.27774" pt_clust_10="27.49990"></scales>
<clustering>
<clus scale="   27.500">  1 10  2 -1</clus>
<clus scale="   51.278">  1  9  2 -1</clus>
<clus scale="   91.944">  7  8 -1 -1</clus>
<clus scale="   95.262">  5  6 -1 -1</clus>
<clus scale="  103.272">  2  7  1 -1</clus>
<clus scale="   27.500">  1  5  2 -1</clus>
</clustering>
</event>
<event>
10    2  0.2421970E-006  0.1920829E+03  0.7546771E-02  0.1156624E+00
          1   -1    0    0  503    0 -0.00000000000E+00  0.00000000000E+00  0.19815970441E+03  0.19815970441E+03  0.00000000000E+00 0. -1.
         21   -1    0    0  501  502  0.00000000000E+00 -0.00000000000E+00 -0.52816489569E+03  0.52816489569E+03  0.00000000000E+00 0.  1.
         23    2    1    2    0    0 -0.19217155995E+03  0.84090673014E+02  0.13672783497E+02  0.22944478920E+03  0.91960951161E+02 0.  0.
         23    2    1    2    0    0  0.10440490449E+03 -0.82046914845E+02 -0.51440531791E+02  0.16936897388E+03  0.91693187772E+02 0.  0.
        -11    1    4    4    0    0  0.72399876446E+02 -0.17704227947E+01 -0.86563739158E+01  0.72937022942E+02  0.00000000000E+00 0.  1.
         11    1    4    4    0    0  0.32005028045E+02 -0.80276492050E+02 -0.42784157875E+02  0.96431950935E+02  0.00000000000E+00 0. -1.
        -11    1    3    3    0    0 -0.12298277073E+03  0.44617879035E+02  0.52329269441E+02  0.14090375959E+03  0.00000000000E+00 0. -1.
         11    1    3    3    0    0 -0.69188789228E+02  0.39472793979E+02 -0.38656485944E+02  0.88541029613E+02  0.00000000000E+00 0.  1.
         21    1    1    2  503  502  0.78454824943E+01 -0.31369663379E+02 -0.11775753996E+02  0.34413307866E+02  0.00000000000E+00 0.  1.
          1    1    1    2  501    0  0.79921172968E+02  0.29325905210E+02 -0.28046168899E+03  0.29309752916E+03  0.00000000000E+00 0. -1.
<scales pt_clust_5="13000.00000" pt_clust_6="13000.00000" pt_clust_7="13000.00000" pt_clust_8="13000.00000" pt_clust_9="32.33585" pt_clust_10="85.02228"></scales>
<clustering>
<clus scale="   32.336">  1  9  2 -1</clus>
<clus scale="   85.022">  2 10  1 -1</clus>
<clus scale="   91.693">  5  6 -1 -1</clus>
<clus scale="   91.961">  7  8 -1 -1</clus>
<clus scale="  191.955">  2  5  1 -1</clus>
<clus scale="   85.022">  2  5  1 -1</clus>
</clustering>
</event>
<event>
10    2  0.2421970E-006  0.1812227E+03  0.7546771E-02  0.1181526E+00
         21   -1    0    0  503  502  0.00000000000E+00  0.00000000000E+00  0.14836364167E+04  0.14836364167E+04  0.00000000000E+00 0. -1.
          2   -1    0    0  502    0 -0.00000000000E+00 -0.00000000000E+00 -0.54842501528E+02  0.54842501528E+02  0.00000000000E+00 0. -1.
         23    2    1    2    0    0  0.79187532296E+02  0.50669866923E+02  0.22319248436E+03  0.25788514210E+03  0.88610161676E+02 0.  0.
         23    2    1    2    0    0 -0.19853562386E+03 -0.12182994767E+03  0.48605693205E+03  0.54647582083E+03  0.90141840812E+02 0.  0.
        -11    1    4    4    0    0 -0.68749640685E+02 -0.47143802314E+02  0.27735952944E+03  0.28961588313E+03  0.00000000000E+00 0.  1.
         11    1    4    4    0    0 -0.12978598318E+03 -0.74686145356E+02  0.20869740261E+03  0.25685993769E+03  0.00000000000E+00 0. -1.
        -13    1    3    3    0    0  0.72726535668E+02  0.44273022978E+01  0.84663494058E+02  0.11169895802E+03  0.00000000000E+00 0.  1.
         13    1    3    3    0    0  0.64609966284E+01  0.46242564625E+02  0.13852899031E+03  0.14618618408E+03  0.00000000000E+00 0. -1.
         21    1    1    2  503  501  0.78005025357E+02  0.65566902934E+02  0.45231563533E+03  0.46365206427E+03  0.00000000000E+00 0. -1.
          2    1    1    2  501    0  0.41343066208E+02  0.55931778136E+01  0.26722886345E+03  0.27046589105E+03  0.00000000000E+00 0. -1.
<scales pt_clust_5="13000.00000" pt_clust_6="13000.00000" pt_clust_7="13000.00000" pt_clust_8="13000.00000" pt_clust_9="27.72250" pt_clust_10="163.07448"></scales>
<clustering>
<clus scale="   27.722">  9 10 -1 -1</clus>
<clus scale="   88.610">  7  8 -1 -1</clus>
<clus scale="   90.142">  5  6 -1 -1</clus>
<clus scale="  129.189">  2  7  1 -1</clus>
<clus scale="  163.074">  1  9  2 -1</clus>
<clus scale="  163.074">  1  5  2 -1</clus>
</clustering>
</event>
<event>
10    2  0.2421970E-006  0.2588393E+03  0.7546771E-02  0.1148909E+00
         21   -1    0    0  501  502  0.00000000000E+00  0.00000000000E+00  0.32437475484E+03  0.32437475484E+03  0.00000000000E+00 0.  1.
         -3   -1    0    0    0  501 -0.00000000000E+00 -0.00000000000E+00 -0.39477902566E+03  0.39477902566E+03  0.00000000000E+00 0.  1.
         23    2    1    2    0    0 -0.15960325450E+02 -0.17938062153E+02 -0.18120398936E+02  0.95827797463E+02  0.90984129642E+02 0.  0.
         23    2    1    2    0    0 -0.16598155849E+03  0.17606255219E+03 -0.20851860047E+03  0.33305187264E+03  0.94316716850E+02 0.  0.
        -11    1    3    3    0    0 -0.45948570757E+02 -0.12016869554E+02  0.15907000286E+02  0.50087013952E+02  0.00000000000E+00 0. -1.
         11    1    3    3    0    0  0.29988245307E+02 -0.59211925995E+01 -0.34027399223E+02  0.45740783512E+02  0.00000000000E+00 0.  1.
        -13    1    4    4    0    0 -0.66008605084E+02  0.59211162965E+02 -0.13761841547E+03  0.16371293792E+03  0.00000000000E+00 0. -1.
         13    1    4    4    0    0 -0.99972953410E+02  0.11685138923E+03 -0.70900185005E+02  0.16933893472E+03  0.00000000000E+00 0.  1.
         21    1    1    2  503  502  0.32978167107E+02 -0.52479210680E+02  0.41837598040E+02  0.74779754407E+02  0.00000000000E+00 0.  1.
         -3    1    1    2    0  503  0.14896371684E+03 -0.10564527936E+03  0.11439713055E+03  0.21549435599E+03  0.00000000000E+00 0.  1.
<scales pt_clust_5="13000.00000" pt_clust_6="13000.00000" pt_clust_7="13000.00000" pt_clust_8="13000.00000" pt_clust_9="24.32598" pt_clust_10="244.63384"></scales>
<clustering>
<clus scale="   24.326">  9 10 -1 -1</clus>
<clus scale="   90.984">  5  6 -1 -1</clus>
<clus scale="   94.099">  2  5  1 -1</clus>
<clus scale="   94.317">  7  8 -1 -1</clus>
<clus scale="  244.634">  1  9  2 -1</clus>
<clus scale="  244.634">  1  5  2 -1</clus>
</clustering>
</event>
<event>
10    2  0.2421970E-006  0.1053373E+03  0.7546771E-02  0.1273774E+00
         21   -1    0    0  503  502  0.00000000000E+00  0.00000000000E+00  0.68156614080E+03  0.68156614080E+03  0.00000000000E+00 0.  1.
         -1   -1    0    0    0  501 -0.00000000000E+00 -0.00000000000E+00 -0.67076391991E+02  0.67076391991E+02  0.00000000000E+00 0.  1.
         23    2    1    2    0    0 -0.17284002937E+02  0.14164730222E+02  0.31067603561E+02  0.10690378180E+03  0.99819067479E+02 0.  0.
         23    2    1    2    0    0  0.85263381943E+01 -0.11594428982E+03  0.37106146720E+03  0.39932901573E+03  0.90891548435E+02 0.  0.
        -13    1    3    3    0    0  0.28555844102E+02  0.35891199133E+02 -0.27326608682E+01  0.45946510672E+02  0.00000000000E+00 0.  1.
         13    1    3    3    0    0 -0.45839847039E+02 -0.21726468911E+02  0.33800264429E+02  0.60957271128E+02  0.00000000000E+00 0. -1.
        -13    1    4    4    0    0 -0.25806565964E+02 -0.10415345383E+03  0.31270628266E+03  0.33060420446E+03  0.00000000000E+00 0.  1.
         13    1    4    4    0    0  0.34332904159E+02 -0.11790835995E+02  0.58355184547E+02  0.68724811276E+02  0.00000000000E+00 0. -1.
         21    1    1    2  503  501 -0.18790739448E+02  0.10726796997E+02  0.44003416820E+02  0.49035260320E+02  0.00000000000E+00 0.  1.
         -1    1    1    2    0  502  0.27548404191E+02  0.91052762602E+02  0.16835726123E+03  0.19337447494E+03  0.00000000000E+00 0.  1.
<scales pt_clust_5="13000.00000" pt_clust_6="13000.00000" pt_clust_7="13000.00000" pt_clust_8="13000.00000" pt_clust_9="21.63691" pt_clust_10="96.69010"></scales>
<clustering>
<clus scale="   21.637">  1  9  2 -1</clus>
<clus scale="   90.892">  7  8 -1 -1</clus>
<clus scale="   96.690">  1 10  2 -1</clus>
<clus scale="   96.919">  1  7  2 -1</clus>
<clus scale="   99.819">  5  6 -1 -1</clus>
<clus scale="   21.637">  1  5  2 -1</clus>
</clustering>
</event>
<event>
10    2  0.2421970E-006  0.1759516E+03  0.7546771E-02  0.1194260E+00
          3   -1    0    0  502    0 -0.00000000000E+00  0.00000000000E+00  0.10228424891E+03  0.10228424891E+03  0.00000000000E+00 0. -1.
         21   -1    0    0  503  502  0.00000000000E+00 -0.00000000000E+00 -0.88835852463E+03  0.88835852463E+03  0.00000000000E+00 0. -1.
         23    2    1    2    0    0 -0.52910612735E+02  0.14138771135E+02 -0.36453380492E+02  0.11249736009E+03  0.91254420649E+02 0.  0.
         23    2    1    2    0    0  0.88382169054E+02  0.14121464237E+03 -0.10234920036E+03  0.20737253781E+03  0.69101574480E+02 0.  0.
        -13    1    4    4    0    0  0.11209875985E+02  0.81463266321E+02 -0.54696889288E+02  0.98760694495E+02  0.00000000000E+00 0. -1.
         13    1    4    4    0    0  0.77172293069E+02  0.59751376052E+02 -0.47652311076E+02  0.10861184332E+03  0.00000000000E+00 0.  1.
        -13    1    3    3    0    0 -0.29191553851E+02  0.32256268142E+02  0.20579863980E+02  0.48126338445E+02  0.00000000000E+00 0. -1.
         13    1    3    3    0    0 -0.23719058884E+02 -0.18117497007E+02 -0.57033244472E+02  0.64371021642E+02  0.00000000000E+00 0.  1.
         21    1    1    2  503  501 -0.57071005821E+02 -0.11482085330E+03 -0.43052107766E+03  0.44920966861E+03  0.00000000000E+00 0. -1.
          3    1    1    2  501    0  0.21599449502E+02 -0.40532560211E+02 -0.21675061720E+03  0.22156320703E+03  0.00000000000E+00 0. -1.
<scales pt_clust_5="13000.00000" pt_clust_6="13000.00000" pt_clust_7="13000.00000" pt_clust_8="13000.00000" pt_clust_9="44.71787" pt_clust_10="44.71787"></scales>
<clustering>
<clus scale="   44.718">  9 10 -1 -1</clus>
<clus scale="   69.102">  5  6 -1 -1</clus>
<clus scale="   91.254">  7  8 -1 -1</clus>
<clus scale="  106.427">  1  7  2 -1</clus>
<clus scale="  173.641">  1  5  2 -1</clus>
<clus scale="  175.952">  2  5  1 -1</clus>
</clustering>
</event>
<event>
10    2  0.2421970E-006  0.2102929E+03  0.7546771E-02  0.1141590E+00
         21   -1    0    0  501  502  0.00000000000E+00  0.00000000000E+00  0.61363619879E+03  0.61363619879E+03  0.00000000000E+00 0.  1.
         -3   -1    0    0    0  501 -0.00000000000E+00 -0.00000000000E+00 -0.15285418987E+03  0.15285418987E+03  0.00000000000E+00 0.  1.
         23    2    1    2    0    0  0.17343695000E+03  0.10742764120E+03  0.18093026330E+02  0.22485725726E+03  0.92802773791E+02 0.  0.
         23    2    1    2    0    0 -0.16770520104E+03 -0.96191225508E+01  0.20824413032E+03  0.28414313000E+03  0.95677262386E+02 0.  0.
        -13    1    3    3    0    0  0.15034137098E+03  0.44897098940E+02  0.53665116875E+01  0.15699387494E+03  0.00000000000E+00 0.  1.
         13    1    3    3    0    0  0.23095579022E+02  0.62530542260E+02  0.12726514643E+02  0.67863382325E+02  0.00000000000E+00 0. -1.
        -13    1    4    4    0    0 -0.15099230732E+03  0.16718403795E+02  0.13012538261E+03  0.20002699091E+03  0.00000000000E+00 0.  1.
         13    1    4    4    0    0 -0.16712893722E+02 -0.26337526345E+02  0.78118747710E+02  0.84116139084E+02  0.00000000000E+00 0. -1.
         21    1    1    2  503  502  0.16744102045E+02 -0.33703312771E+02  0.68054674377E+02  0.77767068541E+02  0.00000000000E+00 0.  1.
         -3    1    1    2    0  503 -0.22475851000E+02 -0.64105205878E+02  0.16639017789E+03  0.17972293287E+03  0.00000000000E+00 0.  1.
<scales pt_clust_5="13000.00000" pt_clust_6="13000.00000" pt_clust_7="13000.00000" pt_clust_8="13000.00000" pt_clust_9="31.02392" pt_clust_10="106.47400"></scales>
<clustering>
<clus scale="   31.024">  9 10 -1 -1</clus>
<clus scale="   92.803">  5  6 -1 -1</clus>
<clus scale="   95.677">  7  8 -1 -1</clus>
<clus scale="  106.474">  1  9  2 -1</clus>
<clus scale="  209.001">  2  5  1 -1</clus>
<clus scale="  106.474">  1  5  2 -1</clus>
</clustering>
</event>
<event>
10    2  0.2421970E-006  0.2868122E+03  0.7546771E-02  0.1092343E+00
         21   -1    0    0  501  502  0.00000000000E+00  0.00000000000E+00  0.28139591730E+03  0.28139591730E+03  0.00000000000E+00 0.  1.
          2   -1    0    0  503    0 -0.00000000000E+00 -0.00000000000E+00 -0.10526608335E+04  0.10526608335E+04  0.00000000000E+00 0. -1.
         23    2    1    2    0    0 -0.17587618027E+03  0.21185391024E+03 -0.85580574188E+03  0.90353128626E+03  0.90281821699E+02 0.  0.
         23    2    1    2    0    0  0.16591671224E+03 -0.19706227121E+03 -0.50836191765E+02  0.27519413760E+03  0.82374758538E+02 0.  0.
        -13    1    3    3    0    0 -0.10390622464E+03  0.57538647535E+02 -0.38338546732E+03  0.40136220055E+03  0.00000000000E+00 0. -1.
         13    1    3    3    0    0 -0.71969955629E+02  0.15431526271E+03 -0.47242027456E+03  0.50216908570E+03  0.00000000000E+00 0.  1.
        -13    1    4    4    0    0  0.29133768355E+02 -0.50434610996E+02 -0.46657672211E+02  0.74628177125E+02  0.00000000000E+00 0. -1.
         13    1    4    4    0    0  0.13678294388E+03 -0.14662766021E+03 -0.41785195541E+01  0.20056596048E+03  0.00000000000E+00 0.  1.
         21    1    1    2  503  502  0.42117348819E+02 -0.95403787453E+01  0.84886765861E+02  0.95239975412E+02  0.00000000000E+00 0.  1.
          2    1    1    2  501    0 -0.32157880791E+02 -0.52512602920E+01  0.50490251553E+02  0.60091351570E+02  0.00000000000E+00 0. -1.
<scales pt_clust_5="13000.00000" pt_clust_6="13000.00000" pt_clust_7="13000.00000" pt_clust_8="13000.00000" pt_clust_9="31.53201" pt_clust_10="32.58382"></scales>
<clustering>
<clus scale="   32.584">  1 10  2 -1</clus>
<clus scale="   31.532">  1  9  2 -1</clus>
<clus scale="   82.375">  7  8 -1 -1</clus>
<clus scale="   90.282">  5  6 -1 -1</clus>
<clus scale="  284.422">  1  7  2 -1</clus>
<clus scale="   32.584">  1  5  2 -1</clus>
</clustering>
</event>
<event>
10    2  0.2421970E-006  0.3989465E+03  0.7546771E-02  0.1072273E+00
         21   -1    0    0  503  502  0.00000000000E+00  0.00000000000E+00  0.14597138170E+04  0.14597138170E+04  0.00000000000E+00 0.  1.
         -4   -1    0    0    0  501 -0.00000000000E+00 -0.00000000000E+00 -0.18867117932E+03  0.18867117932E+03  0.00000000000E+00 0.  1.
         23    2    1    2    0    0 -0.14094457234E+03 -0.59022885531E+02  0.31016854754E+03  0.35779995588E+03  0.92017427976E+02 0.  0.
         23    2    1    2    0    0  0.25831171105E+03  0.35714187839E+03  0.77846168141E+03  0.89913033501E+03  0.90318926928E+02 0.  0.
        -11    1    4    4    0    0  0.24601201072E+03  0.30422449714E+03  0.63655032596E+03  0.74717519469E+03  0.00000000000E+00 0.  1.
         11    1    4    4    0    0  0.12299700325E+02  0.52917381251E+02  0.14191135545E+03  0.15195514033E+03  0.00000000000E+00 0. -1.
        -13    1    3    3    0    0 -0.13649318180E+03 -0.18665546743E+02  0.23837335451E+03  0.27531917378E+03  0.00000000000E+00 0.  1.
         13    1    3    3    0    0 -0.44513905412E+01 -0.40357338788E+02  0.71795193039E+02  0.82480782097E+02  0.00000000000E+00 0. -1.
         21    1    1    2  503  501 -0.27946192069E+02  0.49213850050E+01  0.27687354775E+02  0.39645924078E+02  0.00000000000E+00 0. -1.
         -4    1    1    2    0  502 -0.89420946636E+02 -0.30304037786E+03  0.15472505393E+03  0.35180878134E+03  0.00000000000E+00 0.  1.
<scales pt_clust_5="13000.00000" pt_clust_6="13000.00000" pt_clust_7="13000.00000" pt_clust_8="13000.00000" pt_clust_9="28.37622" pt_clust_10="388.58845"></scales>
<clustering>
<clus scale="   28.376">  2  9  1 -1</clus>
<clus scale="   90.319">  5  6 -1 -1</clus>
<clus scale="   92.017">  7  8 -1 -1</clus>
<clus scale="  181.056">  2  7  1 -1</clus>
<clus scale="  388.588">  1 10  2 -1</clus>
<clus scale="  388.588">  1  5  2 -1</clus>
</clustering>
</event>
<event>
10    2  0.2421970E-006  0.1519982E+03  0.7546771E-02  0.1198132E+00
         21   -1    0    0  501  502  0.00000000000E+00  0.00000000000E+00  0.10017895554E+03  0.10017895554E+03  0.00000000000E+00 0.  1.
          1   -1    0    0  503    0 -0.00000000000E+00 -0.00000000000E+00 -0.56983897733E+03  0.56983897733E+03  0.00000000000E+00 0. -1.
         23    2    1    2    0    0 -0.83245858537E+02  0.95187859332E+02 -0.42947537617E+03  0.45705549862E+03  0.91978413534E+02 0.  0.
         23    2    1    2    0    0  0.81698722271E+02 -0.47690689265E+02  0.10727667091E+02  0.13273239400E+03  0.92486336895E+02 0.  0.
        -11    1    4    4    0    0  0.85887333786E+02 -0.20936354550E+02 -0.21157990429E+02  0.90898985724E+02  0.00000000000E+00 0. -1.
         11    1    4    4    0    0 -0.41886115142E+01 -0.26754334715E+02  0.31885657520E+02  0.41833408276E+02  0.00000000000E+00 0.  1.
        -13    1    3    3    0    0 -0.29883156135E+02  0.98380370494E+02 -0.27512583920E+03  0.29371061900E+03  0.00000000000E+00 0.  1.
         13    1    3    3    0    0 -0.53362702401E+02 -0.31925111613E+01 -0.15434953698E+03  0.16334487963E+03  0.00000000000E+00 0. -1.
         21    1    1    2  503  502 -0.17827245271E+02 -0.15822154567E+02 -0.12943567974E+02  0.27123554358E+02  0.00000000000E+00 0.  1.
          1    1    1    2  501    0  0.19374381536E+02 -0.31675015500E+02 -0.37968744732E+02  0.53106485888E+02  0.00000000000E+00 0. -1.
<scales pt_clust_5="13000.00000" pt_clust_6="13000.00000" pt_clust_7="13000.00000" pt_clust_8="13000.00000" pt_clust_9="23.83592" pt_clust_10="37.52016"></scales>
<clustering>
<clus scale="   23.836">  1  9  2 -1</clus>
<clus scale="   37.520">  1 10  2 -1</clus>
<clus scale="   91.978">  7  8 -1 -1</clus>
<clus scale="   92.486">  5  6 -1 -1</clus>
<clus scale="  151.690">  2  7  1 -1</clus>
<clus scale="   23.836">  1  5  2 -1</clus>
</clustering>
</event>
<event>
10    2  0.2421970E-006  0.1173858E+03  0.7546771E-02  0.1247670E+00
         21   -1    0    0  501  502  0.00000000000E+00  0.00000000000E+00  0.15130497732E+03  0.15130497732E+03  0.00000000000E+00 0. -1.
          1   -1    0    0  503    0 -0.00000000000E+00 -0.00000000000E+00 -0.44873317306E+03  0.44873317306E+03  0.00000000000E+00 0. -1.
         23    2    1    2    0    0 -0.63517366838E+02  0.21013432332E+02 -0.24941976764E+03  0.27411237346E+03  0.91931238257E+02 0.  0.
         23    2    1    2    0    0  0.58157501517E+02 -0.81178045714E+02  0.91951648441E+02  0.16361657113E+03  0.91340607671E+02 0.  0.
        -11    1    4    4    0    0  0.82250349025E+02 -0.52415771976E+02  0.71051557444E+02  0.12066837565E+03  0.00000000000E+00 0. -1.
         11    1    4    4    0    0 -0.24092847508E+02 -0.28762273738E+02  0.20900090997E+02  0.42948195484E+02  0.00000000000E+00 0.  1.
        -13    1    3    3    0    0 -0.68107975444E+02 -0.13471893003E+02 -0.21172279591E+03  0.22281546295E+03  0.00000000000E+00 0. -1.
         13    1    3    3    0    0  0.45906086060E+01  0.34485325334E+02 -0.37696971724E+02  0.51296910511E+02  0.00000000000E+00 0.  1.
         21    1    1    2  503  502  0.28793515524E+02  0.44667832122E+02 -0.10279913382E+03  0.11572356578E+03  0.00000000000E+00 0. -1.
          1    1    1    2  501    0 -0.23433650202E+02  0.15496781261E+02 -0.37160942721E+02  0.46585640010E+02  0.00000000000E+00 0. -1.
<scales pt_clust_5="13000.00000" pt_clust_6="13000.00000" pt_clust_7="13000.00000" pt_clust_8="13000.00000" pt_clust_9="53.17289" pt_clust_10="28.09425"></scales>
<clustering>
<clus scale="   28.094">  1 10  2 -1</clus>
<clus scale="   53.173">  2  9  1 -1</clus>
<clus scale="   91.341">  5  6 -1 -1</clus>
<clus scale="   91.931">  7  8 -1 -1</clus>
<clus scale="  116.924">  1  5  2 -1</clus>
<clus scale="   28.094">  1  5  2 -1</clus>
</clustering>
</event>
<event>
10    2  0.2421970E-006  0.9999844E+02  0.7546771E-02  0.1284122E+00
         21   -1    0    0  503  502  0.00000000000E+00  0.00000000000E+00  0.36933841344E+02  0.36933841344E+02  0.00000000000E+00 0. -1.
          1   -1    0    0  502    0 -0.00000000000E+00 -0.00000000000E+00 -0.65291357092E+03  0.65291357092E+03  0.00000000000E+00 0. -1.
         23    2    1    2    0    0 -0.65244838538E+01 -0.14245439332E+02 -0.31741474787E+03  0.33262045857E+03  0.98177114758E+02 0.  0.
         23    2    1    2    0    0  0.47194151789E+02 -0.46447539543E+02 -0.15833448963E+03  0.19427710883E+03  0.91044618278E+02 0.  0.
        -13    1    4    4    0    0  0.31882255427E+02  0.92608383154E+01 -0.93633295161E+01  0.34495119612E+02  0.00000000000E+00 0.  1.
         13    1    4    4    0    0  0.15311896362E+02 -0.55708377859E+02 -0.14897116011E+03  0.15978198922E+03  0.00000000000E+00 0. -1.
        -13    1    3    3    0    0  0.43963700729E+02 -0.13569879610E+02 -0.11181511797E+03  0.12091141064E+03  0.00000000000E+00 0.  1.
         13    1    3    3    0    0 -0.50488184583E+02 -0.67555972194E+00 -0.20559962990E+03  0.21170904794E+03  0.00000000000E+00 0. -1.
         21    1    1    2  503  501 -0.27588630739E+02  0.17645728726E+02 -0.32210785214E+02  0.45935160525E+02  0.00000000000E+00 0. -1.
          1    1    1    2  501    0 -0.13081037196E+02  0.43047250150E+02 -0.10801970686E+03  0.11701468434E+03  0.00000000000E+00 0. -1.
<scales pt_clust_5="13000.00000" pt_clust_6="13000.00000" pt_clust_7="13000.00000" pt_clust_8="13000.00000" pt_clust_9="32.74911" pt_clust_10="48.81936"></scales>
<clustering>
<clus scale="   32.749">  1  9  2 -1</clus>
<clus scale="   48.819">  1 10  2 -1</clus>
<clus scale="   91.045">  5  6 -1 -1</clus>
<clus scale="   93.006">  1  5  2 -1</clus>
<clus scale="   98.177">  7  8 -1 -1</clus>
<clus scale="   32.749">  1  5  2 -1</clus>
</clustering>
</event>
<event>
10    2  0.2421970E-006  0.9134688E+02  0.7546771E-02  0.1299779E+00
         21   -1    0    0  501  502  0.00000000000E+00  0.00000000000E+00  0.17198065053E+03  0.17198065053E+03  0.00000000000E+00 0.  1.
          1   -1    0    0  503    0 -0.00000000000E+00 -0.00000000000E+00 -0.12611272628E+03  0.12611272628E+03  0.00000000000E+00 0. -1.
         23    2    1    2    0    0 -0.24191985956E+02  0.26336426667E+02 -0.32149555193E+02  0.10221294671E+03  0.90194417908E+02 0.  0.
         23    2    1    2    0    0 -0.46111198575E+01 -0.12553593262E+02  0.72251058856E+02  0.11654307973E+03  0.90461145238E+02 0.  0.
        -13    1    4    4    0    0 -0.54645302791E+01 -0.51759424440E+02  0.44824740810E+02  0.68688838236E+02  0.00000000000E+00 0.  1.
         13    1    4    4    0    0  0.85341042164E+00  0.39205831178E+02  0.27426318046E+02  0.47854241497E+02  0.00000000000E+00 0. -1.
        -13    1    3    3    0    0 -0.15690250391E+02 -0.13149082535E+02  0.24948961018E+02  0.32272790160E+02  0.00000000000E+00 0.  1.
         13    1    3    3    0    0 -0.85017355647E+01  0.39485509202E+02 -0.57098516211E+02  0.69940156549E+02  0.00000000000E+00 0. -1.
         21    1    1    2  503  502  0.48358226022E+02 -0.25271148068E+02 -0.38584877434E+01  0.54699514406E+02  0.00000000000E+00 0.  1.
          1    1    1    2  501    0 -0.19555120208E+02  0.11488314662E+02  0.96249083336E+01  0.24637835955E+02  0.00000000000E+00 0. -1.
<scales pt_clust_5="13000.00000" pt_clust_6="13000.00000" pt_clust_7="13000.00000" pt_clust_8="13000.00000" pt_clust_9="50.84495" pt_clust_10="22.68004"></scales>
<clustering>
<clus scale="   22.680">  1 10  2 -1</clus>
<clus scale="   50.845">  2  9  1 -1</clus>
<clus scale="   90.194">  7  8 -1 -1</clus>
<clus scale="   90.461">  5  6 -1 -1</clus>
<clus scale="   91.083">  2  7  1 -1</clus>
<clus scale="   22.680">  1  5  2 -1</clus>
</clustering>
</event>
<event>
10    2  0.2421970E-006  0.9774288E+02  0.7546771E-02  0.1287576E+00
         21   -1    0    0  501  502  0.00000000000E+00  0.00000000000E+00  0.34423930340E+03  0.34423930340E+03  0.00000000000E+00 0.  1.
          3   -1    0    0  503    0 -0.00000000000E+00 -0.00000000000E+00 -0.94195275418E+02  0.94195275418E+02  0.00000000000E+00 0. -1.
         23    2    1    2    0    0  0.12686917336E+02  0.46813197098E+02 -0.26748571193E+02  0.10748618043E+03  0.92116011797E+02 0.  0.
         23    2    1    2    0    0 -0.12603204921E+02  0.28701842062E+02  0.12721634090E+03  0.15749946909E+03  0.87403940755E+02 0.  0.
        -11    1    3    3    0    0 -0.23269401206E+02  0.48325568904E+02 -0.42273147599E+02  0.68292346938E+02  0.00000000000E+00 0. -1.
         11    1    3    3    0    0  0.35956318542E+02 -0.15123718054E+01  0.15524576406E+02  0.39193833497E+02  0.00000000000E+00 0.  1.
        -11    1    4    4    0    0 -0.42798548009E+02  0.23206920701E+02  0.34058023102E+02  0.59415703460E+02  0.00000000000E+00 0. -1.
         11    1    4    4    0    0  0.30195343088E+02  0.54949213614E+01  0.93158317802E+02  0.98083765633E+02  0.00000000000E+00 0.  1.
         21    1    1    2  503  502  0.17693182686E+02 -0.63608108453E+02  0.11970769357E+03  0.13670761527E+03  0.00000000000E+00 0.  1.
          3    1    1    2  501    0 -0.17776895102E+02 -0.11906930707E+02  0.29868564706E+02  0.36741314020E+02  0.00000000000E+00 0. -1.
<scales pt_clust_5="13000.00000" pt_clust_6="13000.00000" pt_clust_7="13000.00000" pt_clust_8="13000.00000" pt_clust_9="69.29698" pt_clust_10="21.39610"></scales>
<clustering>
<clus scale="   21.396">  1 10  2 -1</clus>
<clus scale="   69.297">  1  9  2 -1</clus>
<clus scale="   87.404">  7  8 -1 -1</clus>
<clus scale="   92.116">  5  6 -1 -1</clus>
<clus scale="   93.315">  1  7  2 -1</clus>
<clus scale="   21.396">  1  5  2 -1</clus>
</clustering>
</event>
<event>
10    2  0.2421970E-006  0.1759829E+03  0.7546771E-02  0.1172676E+00
         21   -1    0    0  503  502  0.00000000000E+00  0.00000000000E+00  0.12636181399E+03  0.12636181399E+03  0.00000000000E+00 0.  1.
         -3   -1    0    0    0  501 -0.00000000000E+00 -0.00000000000E+00 -0.44271174531E+03  0.44271174531E+03  0.00000000000E+00 0.  1.
         23    2    1    2    0    0  0.15722447567E+03 -0.76900318605E+02 -0.22429145810E+03  0.29904662221E+03  0.92135928533E+02 0.  0.
         23    2    1    2    0    0 -0.11079256051E+03  0.38078400019E+02 -0.11665274329E+02  0.14514890902E+03  0.84895059646E+02 0.  0.
        -11    1    3    3    0    0  0.12243772199E+03 -0.86787288907E+02 -0.13179704939E+03  0.19973355129E+03  0.00000000000E+00 0.  1.
         11    1    3    3    0    0  0.34786753680E+02  0.98869703026E+01 -0.92494408706E+02  0.99313070918E+02  0.00000000000E+00 0. -1.
        -13    1    4    4    0    0 -0.56738751203E+02 -0.68417730957E+01  0.28856203244E+02  0.64021685489E+02  0.00000000000E+00 0.  1.
         13    1    4    4    0    0 -0.54053809305E+02  0.44920173115E+02 -0.40521477573E+02  0.81127223531E+02  0.00000000000E+00 0. -1.
         21    1    1    2  503  501 -0.23584405723E+02 -0.20869765304E+02 -0.23274605231E+02  0.39159654567E+02  0.00000000000E+00 0. -1.
         -3    1    1    2    0  502 -0.22847509442E+02  0.59691683889E+02 -0.57118593664E+02  0.85718373500E+02  0.00000000000E+00 0.  1.
<scales pt_clust_5="13000.00000" pt_clust_6="13000.00000" pt_clust_7="13000.00000" pt_clust_8="13000.00000" pt_clust_9="31.49240" pt_clust_10="62.20615"></scales>
<clustering>
<clus scale="   31.492">  2  9  1 -1</clus>
<clus scale="   62.206">  1 10  2 -1</clus>
<clus scale="   84.895">  7  8 -1 -1</clus>
<clus scale="   92.136">  5  6 -1 -1</clus>
<clus scale="  172.302">  1  7  2 -1</clus>
<clus scale="   62.206">  1  5  2 -1</clus>
</clustering>
</event>
<event>
10    2  0.2421970E-006  0.1106504E+03  0.7546771E-02  0.1268676E+00
         -3   -1    0    0    0  501 -0.00000000000E+00  0.00000000000E+00  0.45899899974E+03  0.45899899974E+03  0.00000000000E+00 0.  1.
         21   -1    0    0  503  502  0.00000000000E+00 -0.00000000000E+00 -0.31717586035E+03  0.31717586035E+03  0.00000000000E+00 0. -1.
         23    2    1    2    0    0  0.44123429014E+02  0.35515565998E+02  0.40626500370E+03  0.42025227377E+03  0.91391946953E+02 0.  0.
         23    2    1    2    0    0 -0.14008369152E+02 -0.82899994448E+02 -0.79917128688E+02  0.13445055621E+03  0.67982064716E+02 0.  0.
        -11    1    4    4    0    0  0.95648329257E+00 -0.23181553000E+02 -0.67859246650E+02  0.71715943944E+02  0.00000000000E+00 0. -1.
         11    1    4    4    0    0 -0.14964852444E+02 -0.59718441448E+02 -0.12057882037E+02  0.62734612271E+02  0.00000000000E+00 0.  1.
        -13    1    3    3    0    0  0.41963938224E+02 -0.23718605227E+02  0.17624012946E+03  0.18271323865E+03  0.00000000000E+00 0. -1.
         13    1    3    3    0    0  0.21594907897E+01  0.59234171225E+02  0.23002487423E+03  0.23753903512E+03  0.00000000000E+00 0.  1.
         21    1    1    2  503  501 -0.20475483160E+02  0.19343402540E+02  0.58779382207E+01  0.28774342568E+02  0.00000000000E+00 0. -1.
         -3    1    1    2    0  502 -0.96395767019E+01  0.28041025909E+02 -0.19040267385E+03  0.19269768753E+03  0.00000000000E+00 0.  1.
<scales pt_clust_5="13000.00000" pt_clust_6="13000.00000" pt_clust_7="13000.00000" pt_clust_8="13000.00000" pt_clust_9="28.16758" pt_clust_10="29.71649"></scales>
<clustering>
<clus scale="   28.168">  1  9  2 -1</clus>
<clus scale="   29.716">  2 10  1 -1</clus>
<clus scale="   67.982">  5  6 -1 -1</clus>
<clus scale="   91.392">  7  8 -1 -1</clus>
<clus scale="   92.264">  2  5  1 -1</clus>
<clus scale="   29.716">  2  5  1 -1</clus>
</clustering>
</event>
<event>
10    2  0.2421970E-006  0.9652408E+02  0.7546771E-02  0.1288267E+00
         21   -1    0    0  503  502  0.00000000000E+00  0.00000000000E+00  0.13027181829E+03  0.13027181829E+03  0.00000000000E+00 0.  1.
         -2   -1    0    0    0  501 -0.00000000000E+00 -0.00000000000E+00 -0.20636352112E+03  0.20636352112E+03  0.00000000000E+00 0.  1.
         23    2    1    2    0    0 -0.77735634664E+02  0.11855884360E+01 -0.76387917751E+02  0.14235630146E+03  0.91574931447E+02 0.  0.
         23    2    1    2    0    0 -0.33475780626E+01 -0.66721945767E+01  0.69440054954E+01  0.93052742160E+02  0.92492535654E+02 0.  0.
        -13    1    4    4    0    0  0.82542972666E+01  0.41769054365E+02 -0.11276457984E+01  0.42591770461E+02  0.00000000000E+00 0.  1.
         13    1    4    4    0    0 -0.11601875329E+02 -0.48441248942E+02  0.80716512938E+01  0.50460971699E+02  0.00000000000E+00 0. -1.
        -13    1    3    3    0    0 -0.23420754955E+02 -0.43448121131E+02 -0.37727756391E+02  0.62126118459E+02  0.00000000000E+00 0.  1.
         13    1    3    3    0    0 -0.54314879709E+02  0.44633709567E+02 -0.38660161361E+02  0.80230182998E+02  0.00000000000E+00 0. -1.
         21    1    1    2  503  501  0.59319676986E+02 -0.19754507462E+02 -0.19519865075E+02  0.65498776899E+02  0.00000000000E+00 0. -1.
         -2    1    1    2    0  502  0.21763535741E+02  0.25241113602E+02  0.12872074503E+02  0.35727518888E+02  0.00000000000E+00 0.  1.
<scales pt_clust_5="13000.00000" pt_clust_6="13000.00000" pt_clust_7="13000.00000" pt_clust_8="13000.00000" pt_clust_9="65.61354" pt_clust_10="33.32815"></scales>
<clustering>
<clus scale="   33.328">  1 10  2 -1</clus>
<clus scale="   65.614">  2  9  1 -1</clus>
<clus scale="   91.575">  7  8 -1 -1</clus>
<clus scale="   92.493">  5  6 -1 -1</clus>
<clus scale="   95.645">  2  7  1 -1</clus>
<clus scale="   33.328">  1  5  2 -1</clus>
</clustering>
</event>
<event>
10    2  0.2421970E-006  0.1065855E+03  0.7546771E-02  0.1267947E+00
         21   -1    0    0  503  502  0.00000000000E+00  0.00000000000E+00  0.82288340347E+02  0.82288340347E+02  0.00000000000E+00 0. -1.
         -1   -1    0    0    0  501 -0.00000000000E+00 -0.00000000000E+00 -0.59849235989E+03  0.59849235989E+03  0.00000000000E+00 0.  1.
         23    2    1    2    0    0  0.99246133373E+01  0.63001033158E+02 -0.51156413815E+03  0.52332958113E+03  0.90046404254E+02 0.  0.
         23    2    1    2    0    0  0.87236944718E-01 -0.15334407473E+02 -0.17914355683E+02  0.90915337612E+02  0.87803888358E+02 0.  0.
        -11    1    4    4    0    0  0.35150724454E+02  0.13437774283E+02  0.82879550847E+01  0.38533588034E+02  0.00000000000E+00 0.  1.
         11    1    4    4    0    0 -0.35063487509E+02 -0.28772181756E+02 -0.26202310767E+02  0.52381749578E+02  0.00000000000E+00 0. -1.
        -13    1    3    3    0    0 -0.25078993765E+01 -0.23077621806E+02 -0.11968078432E+03  0.12191126414E+03  0.00000000000E+00 0. -1.
         13    1    3    3    0    0  0.12432512714E+02  0.86078654964E+02 -0.39188335383E+03  0.40141831700E+03  0.00000000000E+00 0.  1.
         21    1    1    2  503  501 -0.11957996159E+02 -0.26048901336E+02 -0.13819298133E+02  0.31819992675E+02  0.00000000000E+00 0. -1.
         -1    1    1    2    0  502  0.19461458767E+01 -0.21617724349E+02  0.27093772417E+02  0.34715788823E+02  0.00000000000E+00 0.  1.
<scales pt_clust_5="13000.00000" pt_clust_6="13000.00000" pt_clust_7="13000.00000" pt_clust_8="13000.00000" pt_clust_9="32.01737" pt_clust_10="21.70515"></scales>
<clustering>
<clus scale="   21.705">  1 10  2 -1</clus>
<clus scale="   32.017">  1  9  2 -1</clus>
<clus scale="   87.804">  5  6 -1 -1</clus>
<clus scale="   90.046">  7  8 -1 -1</clus>
<clus scale="  104.698">  1  5  2 -1</clus>
<clus scale="   21.705">  1  5  2 -1</clus>
</clustering>
</event>
<event>
10    2  0.2421970E-006  0.1079404E+03  0.7546771E-02  0.1265598E+00
          1   -1    0    0  503    0 -0.00000000000E+00  0.00000000000E+00  0.15288344073E+03  0.15288344073E+03  0.00000000000E+00 0. -1.
         21   -1    0    0  501  502  0.00000000000E+00 -0.00000000000E+00 -0.17319987410E+03  0.17319987410E+03  0.00000000000E+00 0.  1.
         23    2    1    2    0    0 -0.22085915760E+02  0.15388973705E+02  0.16995723035E+02  0.97106650583E+02  0.91740061038E+02 0.  0.
         23    2    1    2    0    0  0.94577493196E+02 -0.13054797019E+02  0.71344458014E+01  0.13453745152E+03  0.94520344897E+02 0.  0.
        -13    1    3    3    0    0 -0.36096708601E+02 -0.15430981540E+02  0.40101780533E+02  0.56118093028E+02  0.00000000000E+00 0. -1.
         13    1    3    3    0    0  0.14010792842E+02  0.30819955245E+02 -0.23106057498E+02  0.40988557555E+02  0.00000000000E+00 0.  1.
        -13    1    4    4    0    0  0.19726656529E+02  0.37431473898E+02 -0.78015151498E+01  0.43024642411E+02  0.00000000000E+00 0.  1.
         13    1    4    4    0    0  0.74850836667E+02 -0.50486270917E+02  0.14935960951E+02  0.91512809105E+02  0.00000000000E+00 0. -1.
         21    1    1    2  503  502 -0.19743597336E+02  0.17673201703E+02 -0.18667355657E+02  0.32413297602E+02  0.00000000000E+00 0.  1.
          1    1    1    2  501    0 -0.52747980100E+02 -0.20007378389E+02 -0.25779246546E+02  0.62025915125E+02  0.00000000000E+00 0. -1.
<scales pt_clust_5="13000.00000" pt_clust_6="13000.00000" pt_clust_7="13000.00000" pt_clust_8="13000.00000" pt_clust_9="26.49815" pt_clust_10="60.44615"></scales>
<clustering>
<clus scale="   26.498">  2  9  1 -1</clus>
<clus scale="   60.446">  2 10  1 -1</clus>
<clus scale="   91.740">  5  6 -1 -1</clus>
<clus scale="   94.520">  7  8 -1 -1</clus>
<clus scale="  105.514">  1  5  2 -1</clus>
<clus scale="   26.498">  2  5  1 -1</clus>
</clustering>
</event>
<event>
10    2  0.2421970E-006  0.1397924E+03  0.7546771E-02  0.1214160E+00
          1   -1    0    0  503    0 -0.00000000000E+00  0.00000000000E+00  0.54576143399E+03  0.54576143399E+03  0.00000000000E+00 0. -1.
         21   -1    0    0  501  502  0.00000000000E+00 -0.00000000000E+00 -0.81806456827E+02  0.81806456827E+02  0.00000000000E+00 0.  1.
         23    2    1    2    0    0 -0.73524945881E+02  0.57914453118E+02  0.25954218819E+03  0.29059490110E+03  0.91231834097E+02 0.  0.
         23    2    1    2    0    0  0.47120534970E+02 -0.12790679877E+03  0.18587662815E+03  0.24880898315E+03  0.93676545712E+02 0.  0.
        -11    1    3    3    0    0 -0.36536316825E+02 -0.17856182792E+02  0.48256981474E+02  0.63106909067E+02  0.00000000000E+00 0.  1.
         11    1    3    3    0    0 -0.36988629056E+02  0.75770635911E+02  0.21128520671E+03  0.22748799204E+03  0.00000000000E+00 0. -1.
        -13    1    4    4    0    0  0.48257010592E+02 -0.45790411515E+02  0.13936482637E+03  0.15442815704E+03  0.00000000000E+00 0.  1.
         13    1    4    4    0    0 -0.11364756219E+01 -0.82116387255E+02  0.46511801787E+02  0.94380826115E+02  0.00000000000E+00 0. -1.
         21    1    1    2  503  502 -0.11568774354E+02  0.17458239737E+02  0.79380505012E+00  0.20958454171E+02  0.00000000000E+00 0. -1.
          1    1    1    2  501    0  0.37973185265E+02  0.52534105914E+02  0.17742355772E+02  0.67205552388E+02  0.00000000000E+00 0. -1.
<scales pt_clust_5="13000.00000" pt_clust_6="13000.00000" pt_clust_7="13000.00000" pt_clust_8="13000.00000" pt_clust_9="20.94342" pt_clust_10="67.70145"></scales>
<clustering>
<clus scale="   20.943">  2  9  1 -1</clus>
<clus scale="   67.701">  2 10  1 -1</clus>
<clus scale="   91.232">  5  6 -1 -1</clus>
<clus scale="   93.677">  7  8 -1 -1</clus>
<clus scale="  138.166">  1  5  2 -1</clus>
<clus scale="   20.943">  2  5  1 -1</clus>
</clustering>
</event>
<event>
10    2  0.2421970E-006  0.1367286E+03  0.7546771E-02  0.1229106E+00
         21   -1    0    0  501  502  0.00000000000E+00  0.00000000000E+00  0.25210376421E+03  0.25210376421E+03  0.00000000000E+00 0. -1.
          2   -1    0    0  503    0 -0.00000000000E+00 -0.00000000000E+00 -0.62493571811E+03  0.62493571811E+03  0.00000000000E+00 0. -1.
         23    2    1    2    0    0 -0.32272623295E+02  0.29181048132E+02 -0.28332251535E+03  0.30185690772E+03  0.94619708566E+02 0.  0.
         23    2    1    2    0    0  0.42784920891E+02 -0.53249854330E+02 -0.28322118991E+03  0.31759657269E+03  0.12644067435E+03 0.  0.
        -11    1    3    3    0    0  0.16175731212E+02  0.43716069042E+02 -0.82452779873E+02  0.94716471015E+02  0.00000000000E+00 0. -1.
         11    1    3    3    0    0 -0.48448354507E+02 -0.14535020911E+02 -0.20086973548E+03  0.20714043671E+03  0.00000000000E+00 0.  1.
        -11    1    4    4    0    0  0.32166736233E+01 -0.49026836217E+02 -0.27178867784E+03  0.27619388671E+03  0.00000000000E+00 0. -1.
         11    1    4    4    0    0  0.39568247268E+02 -0.42230181129E+01 -0.11432512073E+02  0.41402685978E+02  0.00000000000E+00 0.  1.
         21    1    1    2  503  502 -0.37141431809E+02  0.13712859389E+02 -0.18329009595E+02  0.43628901684E+02  0.00000000000E+00 0. -1.
          2    1    1    2  501    0  0.26629134213E+02  0.10355946809E+02  0.21204076097E+03  0.21395710022E+03  0.00000000000E+00 0. -1.
<scales pt_clust_5="13000.00000" pt_clust_6="13000.00000" pt_clust_7="13000.00000" pt_clust_8="13000.00000" pt_clust_9="33.24071" pt_clust_10="28.57195"></scales>
<clustering>
<clus scale="   28.572">  1 10  2 -1</clus>
<clus scale="   33.241">  1  9  2 -1</clus>
<clus scale="   94.620">  5  6 -1 -1</clus>
<clus scale="  107.983">  2  5  1 -1</clus>
<clus scale="  126.441">  7  8 -1 -1</clus>
<clus scale="   28.572">  1  5  2 -1</clus>
</clustering>
</event>
<event>
10    2  0.2421970E-006  0.9533495E+02  0.7546771E-02  0.1290695E+00
          3   -1    0    0  503    0 -0.00000000000E+00  0.00000000000E+00  0.40634564622E+03  0.40634564622E+03  0.00000000000E+00 0. -1.
         21   -1    0    0  501  502  0.00000000000E+00 -0.00000000000E+00 -0.64896105666E+02  0.64896105666E+02  0.00000000000E+00 0. -1.
         23    2    1    2    0    0  0.13575109983E+02  0.31779690844E+02  0.26134749583E+03  0.27934911642E+03  0.92407699388E+02 0.  0.
         23    2    1    2    0    0  0.30655699790E+02  0.14233217666E+02  0.51850861080E+02  0.11163314633E+03  0.92903665966E+02 0.  0.
        -11    1    3    3    0    0  0.23497776608E+02 -0.23738072834E+02  0.46695133117E+02  0.57411471538E+02  0.00000000000E+00 0.  1.
         11    1    3    3    0    0 -0.99226666248E+01  0.55517763678E+02  0.21465236272E+03  0.22193764489E+03  0.00000000000E+00 0. -1.
        -11    1    4    4    0    0  0.58057541967E+01  0.49075385368E+02  0.47621359530E+02  0.68628668312E+02  0.00000000000E+00 0. -1.
         11    1    4    4    0    0  0.24849945594E+02 -0.34842167702E+02  0.42295015501E+01  0.43004478018E+02  0.00000000000E+00 0.  1.
         21    1    1    2  503  502 -0.46194008072E+02 -0.24596838256E+02  0.26556963250E+02  0.58686992861E+02  0.00000000000E+00 0. -1.
          3    1    1    2  501    0  0.19631982986E+01 -0.21416070253E+02  0.16942203874E+01  0.21572496271E+02  0.00000000000E+00 0. -1.
<scales pt_clust_5="13000.00000" pt_clust_6="13000.00000" pt_clust_7="13000.00000" pt_clust_8="13000.00000" pt_clust_9="55.07596" pt_clust_10="21.50586"></scales>
<clustering>
<clus scale="   21.506">  2 10  1 -1</clus>
<clus scale="   55.076">  2  9  1 -1</clus>
<clus scale="   92.408">  5  6 -1 -1</clus>
<clus scale="   92.904">  7  8 -1 -1</clus>
<clus scale="   94.852">  1  5  2 -1</clus>
<clus scale="   21.506">  2  5  1 -1</clus>
</clustering>
</event>
<event>
10    2  0.2421970E-006  0.3006495E+03  0.7546771E-02  0.1086008E+00
          1   -1    0    0  503    0 -0.00000000000E+00  0.00000000000E+00  0.19319648869E+04  0.19319648869E+04  0.00000000000E+00 0. -1.
         21   -1    0    0  501  502  0.00000000000E+00 -0.00000000000E+00 -0.75003942303E+02  0.75003942303E+02  0.00000000000E+00 0.  1.
         23    2    1    2    0    0 -0.16456835541E+03 -0.22508567050E+03  0.12107522511E+04  0.12458231204E+04  0.91694772318E+02 0.  0.
         23    2    1    2    0    0  0.14256790148E+03  0.23495627045E+03  0.61041155646E+03  0.67945021280E+03  0.11627668666E+03 0.  0.
        -11    1    4    4    0    0  0.56042358194E+02  0.94792509148E+01  0.12197297199E+03  0.13456599870E+03  0.00000000000E+00 0. -1.
         11    1    4    4    0    0  0.86525543283E+02  0.22547701954E+03  0.48843858447E+03  0.54488421410E+03  0.00000000000E+00 0.  1.
        -13    1    3    3    0    0 -0.12897588091E+03 -0.15269633255E+03  0.10077569348E+04  0.10273874574E+04  0.00000000000E+00 0. -1.
         13    1    3    3    0    0 -0.35592474496E+02 -0.72389337949E+02  0.20299531624E+03  0.21843566308E+03  0.00000000000E+00 0.  1.
         21    1    1    2  503  502  0.22185164345E+02  0.26975239415E+02  0.26080881855E+02  0.43589648505E+02  0.00000000000E+00 0.  1.
          1    1    1    2  501    0 -0.18471041734E+00 -0.36845839369E+02  0.97162552363E+01  0.38105847485E+02  0.00000000000E+00 0. -1.
<scales pt_clust_5="13000.00000" pt_clust_6="13000.00000" pt_clust_7="13000.00000" pt_clust_8="13000.00000" pt_clust_9="34.92628" pt_clust_10="31.40021"></scales>
<clustering>
<clus scale="   34.926">  2  9  1 -1</clus>
<clus scale="   31.400">  2 10  1 -1</clus>
<clus scale="   91.695">  7  8 -1 -1</clus>
<clus scale="  116.277">  5  6 -1 -1</clus>
<clus scale="  292.024">  1  7  2 -1</clus>
<clus scale="   34.926">  2  5  1 -1</clus>
</clustering>
</event>
<event>
10    2  0.2421970E-006  0.2767464E+03  0.7546771E-02  0.1097676E+00
         21   -1    0    0  501  502  0.00000000000E+00  0.00000000000E+00  0.85120871819E+03  0.85120871819E+03  0.00000000000E+00 0.  1.
          1   -1    0    0  503    0 -0.00000000000E+00 -0.00000000000E+00 -0.19662696560E+03  0.19662696560E+03  0.00000000000E+00 0. -1.
         23    2    1    2    0    0 -0.13839134923E+03 -0.17281612081E+03  0.22521050059E+03  0.32728985318E+03  0.85914499725E+02 0.  0.
         23    2    1    2    0    0  0.26719991393E+03  0.18870231938E+03  0.39631291081E+03  0.52175833883E+03  0.90351986814E+02 0.  0.
        -11    1    4    4    0    0  0.14463008123E+03  0.15534647550E+03  0.24223332704E+03  0.32206734167E+03  0.00000000000E+00 0.  1.
         11    1    4    4    0    0  0.12256983270E+03  0.33355843882E+02  0.15407958378E+03  0.19969099716E+03  0.00000000000E+00 0. -1.
        -13    1    3    3    0    0 -0.23446542109E+02 -0.35246689883E+02  0.39452062264E+01  0.42516280843E+02  0.00000000000E+00 0. -1.
         13    1    3    3    0    0 -0.11494480712E+03 -0.13756943092E+03  0.22126529437E+03  0.28477357233E+03  0.00000000000E+00 0.  1.
         21    1    1    2  503  502 -0.61666380460E+02  0.47876868812E+02 -0.33294336705E+02  0.84873140056E+02  0.00000000000E+00 0. -1.
          1    1    1    2  501    0 -0.67142184241E+02 -0.63763067384E+02  0.66352677883E+02  0.11391435173E+03  0.00000000000E+00 0. -1.
<scales pt_clust_5="13000.00000" pt_clust_6="13000.00000" pt_clust_7="13000.00000" pt_clust_8="13000.00000" pt_clust_9="78.07008" pt_clust_10="95.56207"></scales>
<clustering>
<clus scale="   78.070">  2  9  1 -1</clus>
<clus scale="   85.914">  7  8 -1 -1</clus>
<clus scale="   90.352">  5  6 -1 -1</clus>
<clus scale="   95.562">  1 10  2 -1</clus>
<clus scale="  275.330">  2  7  1 -1</clus>
<clus scale="   95.562">  1  5  2 -1</clus>
</clustering>
</event>
<event>
10    2  0.2421970E-006  0.9274079E+02  0.7546771E-02  0.1297124E+00
         21   -1    0    0  503  502  0.00000000000E+00  0.00000000000E+00  0.25577896368E+03  0.25577896368E+03  0.00000000000E+00 0. -1.
          1   -1    0    0  502    0 -0.00000000000E+00 -0.00000000000E+00 -0.20667587040E+03  0.20667587040E+03  0.00000000000E+00 0. -1.
         23    2    1    2    0    0 -0.60970227648E+01 -0.11582866587E+02 -0.15023530410E+03  0.17572833665E+03  0.90213442569E+02 0.  0.
         23    2    1    2    0    0 -0.49555028227E+02  0.34381525470E+02  0.43213842108E+02  0.11784636184E+03  0.91556205326E+02 0.  0.
        -11    1    4    4    0    0 -0.45786334155E+02  0.28059880308E+01  0.64813735714E+02  0.79404548367E+02  0.00000000000E+00 0.  1.
         11    1    4    4    0    0 -0.37686940714E+01  0.31575537439E+02 -0.21599893605E+02  0.38441813476E+02  0.00000000000E+00 0. -1.
        -13    1    3    3    0    0  0.38943254392E+02  0.11419020402E+02 -0.67365663317E+02  0.78645430151E+02  0.00000000000E+00 0.  1.
         13    1    3    3    0    0 -0.45040277157E+02 -0.23001886988E+02 -0.82869640784E+02  0.97082906503E+02  0.00000000000E+00 0. -1.
         21    1    1    2  503  501  0.27803480774E+02 -0.22249467122E+02  0.73191889550E+02  0.81394871007E+02  0.00000000000E+00 0. -1.
          1    1    1    2  501    0  0.27848570217E+02 -0.54919176067E+00  0.82932665723E+02  0.87485264581E+02  0.00000000000E+00 0. -1.
<scales pt_clust_5="13000.00000" pt_clust_6="13000.00000" pt_clust_7="13000.00000" pt_clust_8="13000.00000" pt_clust_9="20.33573" pt_clust_10="64.38652"></scales>
<clustering>
<clus scale="   20.336">  9 10 -1 -1</clus>
<clus scale="   64.387">  1  9  2 -1</clus>
<clus scale="   90.213">  7  8 -1 -1</clus>
<clus scale="   91.415">  2  7  1 -1</clus>
<clus scale="   91.556">  5  6 -1 -1</clus>
<clus scale="   64.387">  1  5  2 -1</clus>
</clustering>
</event>
<event>
10    2  0.2421970E-006  0.2314435E+03  0.7546771E-02  0.1160587E+00
         21   -1    0    0  501  502  0.00000000000E+00  0.00000000000E+00  0.37673152037E+03  0.37673152037E+03  0.00000000000E+00 0.  1.
         -3   -1    0    0    0  501 -0.00000000000E+00 -0.00000000000E+00 -0.61708865771E+03  0.61708865771E+03  0.00000000000E+00 0.  1.
         23    2    1    2    0    0  0.40768704690E+02  0.50531979384E+01 -0.15105681308E+03  0.18117951739E+03  0.91215320270E+02 0.  0.
         23    2    1    2    0    0  0.12317272604E+03 -0.14403823098E+03 -0.38737939304E+03  0.44081809799E+03  0.91319597747E+02 0.  0.
        -11    1    3    3    0    0 -0.15391749283E+02 -0.29947716583E+02 -0.45713376483E+02  0.56775738340E+02  0.00000000000E+00 0. -1.
         11    1    3    3    0    0  0.56160453973E+02  0.35000914521E+02 -0.10534343660E+03  0.12440377905E+03  0.00000000000E+00 0.  1.
        -11    1    4    4    0    0  0.10259616367E+03 -0.51915729763E+02 -0.19120301957E+03  0.22311389578E+03  0.00000000000E+00 0. -1.
         11    1    4    4    0    0  0.20576562371E+02 -0.92122501214E+02 -0.19617637347E+03  0.21770420220E+03  0.00000000000E+00 0.  1.
         21    1    1    2  503  502 -0.63047646061E+02  0.29381409045E+02  0.12837700820E+03  0.14601003084E+03  0.00000000000E+00 0.  1.
         -3    1    1    2    0  503 -0.10089378467E+03  0.10960362399E+03  0.16970206059E+03  0.22581253186E+03  0.00000000000E+00 0.  1.
<scales pt_clust_5="13000.00000" pt_clust_6="13000.00000" pt_clust_7="13000.00000" pt_clust_8="13000.00000" pt_clust_9="38.69793" pt_clust_10="220.07745"></scales>
<clustering>
<clus scale="   38.698">  9 10 -1 -1</clus>
<clus scale="   91.215">  5  6 -1 -1</clus>
<clus scale="   91.320">  7  8 -1 -1</clus>
<clus scale="  100.039">  2  5  1 -1</clus>
<clus scale="  220.077">  1  9  2 -1</clus>
<clus scale="  220.077">  1  5  2 -1</clus>
</clustering>
</event>
<event>
10    2  0.2421970E-006  0.1582857E+03  0.7546771E-02  0.1192078E+00
         21   -1    0    0  501  502  0.00000000000E+00  0.00000000000E+00  0.30954108236E+03  0.30954108236E+03  0.00000000000E+00 0. -1.
          1   -1    0    0  503    0 -0.00000000000E+00 -0.00000000000E+00 -0.60294847499E+03  0.60294847499E+03  0.00000000000E+00 0. -1.
         23    2    1    2    0    0  0.86367787140E+02 -0.65431556077E+02 -0.34935948854E+03  0.37905112994E+03  0.99433513914E+02 0.  0.
         23    2    1    2    0    0 -0.16844357971E+03  0.47608989032E+02 -0.17658514694E+03  0.26490790752E+03  0.91400382742E+02 0.  0.
        -11    1    4    4    0    0 -0.90130075154E+02  0.10694031462E+02 -0.31724872850E+02  0.96147076469E+02  0.00000000000E+00 0.  1.
         11    1    4    4    0    0 -0.78313504556E+02  0.36914957570E+02 -0.14486027409E+03  0.16876083105E+03  0.00000000000E+00 0. -1.
        -13    1    3    3    0    0  0.10575712221E+02  0.19186016271E+02 -0.13191111472E+03  0.13371795353E+03  0.00000000000E+00 0. -1.
         13    1    3    3    0    0  0.75792074918E+02 -0.84617572348E+02 -0.21744837382E+03  0.24533317641E+03  0.00000000000E+00 0.  1.
         21    1    1    2  503  502 -0.24275776047E+02 -0.51153936719E+00  0.26510222332E+02  0.35949504354E+02  0.00000000000E+00 0. -1.
          1    1    1    2  501    0  0.10635156862E+03  0.18334106413E+02  0.20602702051E+03  0.23258101553E+03  0.00000000000E+00 0. -1.
<scales pt_clust_5="13000.00000" pt_clust_6="13000.00000" pt_clust_7="13000.00000" pt_clust_8="13000.00000" pt_clust_9="24.28117" pt_clust_10="89.04675"></scales>
<clustering>
<clus scale="   24.281">  1  9  2 -1</clus>
<clus scale="   89.047">  1 10  2 -1</clus>
<clus scale="   91.400">  5  6 -1 -1</clus>
<clus scale="   99.434">  7  8 -1 -1</clus>
<clus scale="  153.367">  1  5  2 -1</clus>
<clus scale="   24.281">  1  5  2 -1</clus>
</clustering>
</event>
<event>
10    2  0.2421970E-006  0.1517401E+03  0.7546771E-02  0.1199962E+00
          2   -1    0    0  503    0 -0.00000000000E+00  0.00000000000E+00  0.49097168015E+03  0.49097168015E+03  0.00000000000E+00 0. -1.
         21   -1    0    0  501  502  0.00000000000E+00 -0.00000000000E+00 -0.19776769119E+03  0.19776769119E+03  0.00000000000E+00 0. -1.
         23    2    1    2    0    0 -0.11383734620E+03 -0.71927205046E+02  0.27015481277E+03  0.31613665707E+03  0.93948384044E+02 0.  0.
         23    2    1    2    0    0 -0.25704465622E+02  0.15545242967E+03  0.17451310053E+02  0.17999710541E+03  0.85253928307E+02 0.  0.
        -11    1    4    4    0    0  0.15626240051E+01  0.50878726848E+02 -0.33069167610E+02  0.60701371367E+02  0.00000000000E+00 0.  1.
         11    1    4    4    0    0 -0.27267089627E+02  0.10457370282E+03  0.50520477663E+02  0.11929573405E+03  0.00000000000E+00 0. -1.
        -13    1    3    3    0    0 -0.12976552161E+03 -0.58803257973E+02  0.24680689546E+03  0.28497466097E+03  0.00000000000E+00 0. -1.
         13    1    3    3    0    0  0.15928175404E+02 -0.13123947074E+02  0.23347917305E+02  0.31161996101E+02  0.00000000000E+00 0.  1.
         21    1    1    2  503  502  0.60765399878E+02 -0.30520975601E+02  0.53251827220E+02  0.86369675675E+02  0.00000000000E+00 0.  1.
          2    1    1    2  501    0  0.78776411946E+02 -0.53004249022E+02 -0.47653961082E+02  0.10623593319E+03  0.00000000000E+00 0. -1.
<scales pt_clust_5="13000.00000" pt_clust_6="13000.00000" pt_clust_7="13000.00000" pt_clust_8="13000.00000" pt_clust_9="67.99973" pt_clust_10="99.64135"></scales>
<clustering>
<clus scale="   68.000">  1  9  2 -1</clus>
<clus scale="   85.254">  5  6 -1 -1</clus>
<clus scale="   93.948">  7  8 -1 -1</clus>
<clus scale="   99.641">  2 10  1 -1</clus>
<clus scale="  146.516">  2  5  1 -1</clus>
<clus scale="   99.641">  2  5  1 -1</clus>
</clustering>
</event>
<event>
10    2  0.2421970E-006  0.1770416E+03  0.7546771E-02  0.1196580E+00
          1   -1    0    0  502    0 -0.00000000000E+00  0.00000000000E+00  0.48318318583E+02  0.48318318583E+02  0.00000000000E+00 0. -1.
         21   -1    0    0  503  502  0.00000000000E+00 -0.00000000000E+00 -0.10242508345E+04  0.10242508345E+04  0.00000000000E+00 0. -1.
         23    2    1    2    0    0  0.25464928925E+01 -0.33412175610E+02 -0.14899386309E+03  0.17905280148E+03  0.93476608706E+02 0.  0.
         23    2    1    2    0    0  0.11638634720E+03  0.11221090068E+03 -0.53029237751E+03  0.56175277409E+03  0.90659282544E+02 0.  0.
        -11    1    4    4    0    0 -0.11126981013E+02  0.26897781289E+02 -0.12626388954E+03  0.12957573131E+03  0.00000000000E+00 0.  1.
         11    1    4    4    0    0  0.12751332821E+03  0.85313119388E+02 -0.40402848797E+03  0.43217704277E+03  0.00000000000E+00 0. -1.
        -11    1    3    3    0    0  0.61523600292E+01  0.30938681692E+02 -0.29020512028E+02  0.42863080583E+02  0.00000000000E+00 0.  1.
         11    1    3    3    0    0 -0.36058671367E+01 -0.64350857302E+02 -0.11997335106E+03  0.13618972090E+03  0.00000000000E+00 0. -1.
         21    1    1    2  503  501 -0.13471535213E+02 -0.28744249576E+02 -0.67728510916E+02  0.74798832448E+02  0.00000000000E+00 0.  1.
          1    1    1    2  501    0 -0.10546130488E+03 -0.50054475491E+02 -0.22891776436E+03  0.25696474502E+03  0.00000000000E+00 0. -1.
<scales pt_clust_5="13000.00000" pt_clust_6="13000.00000" pt_clust_7="13000.00000" pt_clust_8="13000.00000" pt_clust_9="21.58788" pt_clust_10="157.60214"></scales>
<clustering>
<clus scale="   21.588">  9 10 -1 -1</clus>
<clus scale="   90.659">  5  6 -1 -1</clus>
<clus scale="   93.477">  7  8 -1 -1</clus>
<clus scale="   99.301">  1  7  2 -1</clus>
<clus scale="  157.602">  2  9  1 -1</clus>
<clus scale="  157.602">  2  5  1 -1</clus>
</clustering>
</event>
<event>
10    2  0.2421970E-006  0.2057479E+03  0.7546771E-02  0.1149962E+00
         21   -1    0    0  501  502  0.00000000000E+00  0.00000000000E+00  0.12565448815E+04  0.12565448815E+04  0.00000000000E+00 0.  1.
          1   -1    0    0  503    0 -0.00000000000E+00 -0.00000000000E+00 -0.25161228839E+03  0.25161228839E+03  0.00000000000E+00 0. -1.
         23    2    1    2    0    0 -0.13098915634E+03 -0.85207529328E+02 -0.14536294284E+03  0.23290930660E+03  0.93262413740E+02 0.  0.
         23    2    1    2    0    0  0.20414015325E+03 -0.13110714884E+03  0.74723903369E+03  0.79375906397E+03  0.11324747910E+03 0.  0.
        -11    1    3    3    0    0 -0.14074663552E+03 -0.57137512731E+02 -0.12680429951E+03  0.19787279031E+03  0.00000000000E+00 0. -1.
         11    1    3    3    0    0  0.97574791746E+01 -0.28070016597E+02 -0.18558643333E+02  0.35036516293E+02  0.00000000000E+00 0.  1.
        -11    1    4    4    0    0  0.35870255420E+02  0.20293458029E+01  0.36007593767E+02  0.50865904860E+02  0.00000000000E+00 0. -1.
         11    1    4    4    0    0  0.16826989783E+03 -0.13313649464E+03  0.71123143992E+03  0.74289315912E+03  0.00000000000E+00 0.  1.
         21    1    1    2  503  502 -0.13510186236E+02  0.16690276282E+03  0.34884090089E+03  0.38694835767E+03  0.00000000000E+00 0.  1.
          1    1    1    2  501    0 -0.59640810673E+02  0.49411915345E+02  0.54215601416E+02  0.94540441679E+02  0.00000000000E+00 0. -1.
<scales pt_clust_5="13000.00000" pt_clust_6="13000.00000" pt_clust_7="13000.00000" pt_clust_8="13000.00000" pt_clust_9="171.77666" pt_clust_10="77.45043"></scales>
<clustering>
<clus scale="   77.450">  1 10  2 -1</clus>
<clus scale="   93.262">  5  6 -1 -1</clus>
<clus scale="  113.247">  7  8 -1 -1</clus>
<clus scale="  182.733">  2  5  1 -1</clus>
<clus scale="  171.777">  2  9  1 -1</clus>
<clus scale="   77.450">  1  5  2 -1</clus>
</clustering>
</event>
<event>
10    2  0.2421970E-006  0.1206393E+03  0.7546771E-02  0.1242234E+00
         21   -1    0    0  503  502  0.00000000000E+00  0.00000000000E+00  0.72926902677E+02  0.72926902677E+02  0.00000000000E+00 0.  1.
          2   -1    0    0  502    0 -0.00000000000E+00 -0.00000000000E+00 -0.62303425584E+03  0.62303425584E+03  0.00000000000E+00 0. -1.
         23    2    1    2    0    0  0.47502990578E+02 -0.56161422658E+02 -0.31257152461E+03  0.33368878677E+03  0.90755765163E+02 0.  0.
         23    2    1    2    0    0 -0.68443209170E+02  0.55498139267E+02 -0.27091100228E+03  0.29880386810E+03  0.90146902841E+02 0.  0.
        -11    1    4    4    0    0  0.14894200068E+02  0.35084995984E+02 -0.59694959405E+02  0.70825717908E+02  0.00000000000E+00 0. -1.
         11    1    4    4    0    0 -0.83337409238E+02  0.20413143284E+02 -0.21121604288E+03  0.22797815020E+03  0.00000000000E+00 0.  1.
        -13    1    3    3    0    0  0.45333528177E+02  0.57364824081E+01 -0.20050435605E+03  0.20564540549E+03  0.00000000000E+00 0. -1.
         13    1    3    3    0    0  0.21694624014E+01 -0.61897905066E+02 -0.11206716856E+03  0.12804338128E+03  0.00000000000E+00 0.  1.
         21    1    1    2  503  501  0.30628553630E+01 -0.22550154849E+02  0.23080609363E+02  0.32413038970E+02  0.00000000000E+00 0.  1.
          2    1    1    2  501    0  0.17877363229E+02  0.23213438239E+02  0.10294564363E+02  0.31055464678E+02  0.00000000000E+00 0. -1.
<scales pt_clust_5="13000.00000" pt_clust_6="13000.00000" pt_clust_7="13000.00000" pt_clust_8="13000.00000" pt_clust_9="22.75721" pt_clust_10="23.19350"></scales>
<clustering>
<clus scale="   22.757">  1  9  2 -1</clus>
<clus scale="   23.194">  1 10  2 -1</clus>
<clus scale="   90.147">  5  6 -1 -1</clus>
<clus scale="   90.756">  7  8 -1 -1</clus>
<clus scale="  120.182">  1  5  2 -1</clus>
<clus scale="   22.757">  1  5  2 -1</clus>
</clustering>
</event>
<event>
10    2  0.2421970E-006  0.2331380E+03  0.7546771E-02  0.1160726E+00
         21   -1    0    0  503  502  0.00000000000E+00  0.00000000000E+00  0.11716139860E+04  0.11716139860E+04  0.00000000000E+00 0. -1.
          2   -1    0    0  502    0 -0.00000000000E+00 -0.00000000000E+00 -0.34190407724E+03  0.34190407724E+03  0.00000000000E+00 0. -1.
         23    2    1    2    0    0  0.15064609991E+02 -0.30314284545E+02 -0.28786709978E+03  0.30394900233E+03  0.91496615003E+02 0.  0.
         23    2    1    2    0    0 -0.14916391006E+03  0.17992484027E+03  0.56749748942E+03  0.62039025500E+03  0.90597173206E+02 0.  0.
        -11    1    3    3    0    0  0.45933503277E+02 -0.19411932041E+02 -0.24493134101E+03  0.24995613942E+03  0.00000000000E+00 0. -1.
         11    1    3    3    0    0 -0.30868893286E+02 -0.10902352504E+02 -0.42935758777E+02  0.53992862904E+02  0.00000000000E+00 0.  1.
        -13    1    4    4    0    0 -0.41657978974E+01  0.66097392012E+02  0.15751506848E+03  0.17087192836E+03  0.00000000000E+00 0.  1.
         13    1    4    4    0    0 -0.14499811217E+03  0.11382744826E+03  0.40998242094E+03  0.44951832665E+03  0.00000000000E+00 0. -1.
         21    1    1    2  503  501  0.32026226406E+02 -0.38062516963E+01  0.10464037273E+03  0.10949782799E+03  0.00000000000E+00 0.  1.
          2    1    1    2  501    0  0.10207307367E+03 -0.14580430403E+03  0.44543914636E+03  0.47968097789E+03  0.00000000000E+00 0. -1.
<scales pt_clust_5="13000.00000" pt_clust_6="13000.00000" pt_clust_7="13000.00000" pt_clust_8="13000.00000" pt_clust_9="27.51592" pt_clust_10="224.32954"></scales>
<clustering>
<clus scale="   27.516">  9 10 -1 -1</clus>
<clus scale="   90.597">  7  8 -1 -1</clus>
<clus scale="   91.497">  5  6 -1 -1</clus>
<clus scale="   97.558">  2  5  1 -1</clus>
<clus scale="  224.330">  1  9  2 -1</clus>
<clus scale="  224.330">  1  5  2 -1</clus>
</clustering>
</event>
<event>
10    2  0.2421970E-006  0.1302775E+03  0.7546771E-02  0.1232892E+00
         21   -1    0    0  503  502  0.00000000000E+00  0.00000000000E+00  0.19764270927E+03  0.19764270927E+03  0.00000000000E+00 0. -1.
          1   -1    0    0  502    0 -0.00000000000E+00 -0.00000000000E+00 -0.41099435431E+03  0.41099435431E+03  0.00000000000E+00 0. -1.
         23    2    1    2    0    0  0.74946274420E+02 -0.18941747549E+02 -0.13643127936E+03  0.18036324431E+03  0.89116059504E+02 0.  0.
         23    2    1    2    0    0  0.10019115808E+03  0.39059289950E+02  0.92385587481E+02  0.16911085334E+03  0.92192665943E+02 0.  0.
        -13    1    4    4    0    0  0.74575516425E+02  0.66390740098E+02  0.47266828711E+02  0.11046895997E+03  0.00000000000E+00 0.  1.
         13    1    4    4    0    0  0.25615641651E+02 -0.27331450148E+02  0.45118758771E+02  0.58641893365E+02  0.00000000000E+00 0. -1.
        -13    1    3    3    0    0  0.88608662056E+02  0.33925305490E+01 -0.85929969954E+02  0.12347859730E+03  0.00000000000E+00 0.  1.
         13    1    3    3    0    0 -0.13662387635E+02 -0.22334278098E+02 -0.50501309407E+02  0.56884647014E+02  0.00000000000E+00 0. -1.
         21    1    1    2  503  501 -0.34376762984E+02 -0.66708309742E+01  0.42743760175E+01  0.35277926661E+02  0.00000000000E+00 0.  1.
          1    1    1    2  501    0 -0.14076066951E+03 -0.13446711427E+02 -0.17358032918E+03  0.22388503927E+03  0.00000000000E+00 0. -1.
<scales pt_clust_5="13000.00000" pt_clust_6="13000.00000" pt_clust_7="13000.00000" pt_clust_8="13000.00000" pt_clust_9="35.01802" pt_clust_10="92.04760"></scales>
<clustering>
<clus scale="   35.018">  1  9  2 -1</clus>
<clus scale="   89.116">  7  8 -1 -1</clus>
<clus scale="   92.193">  5  6 -1 -1</clus>
<clus scale="  115.460">  2  7  1 -1</clus>
<clus scale="   92.048">  1 10  2 -1</clus>
<clus scale="   35.018">  1  5  2 -1</clus>
</clustering>
</event>
<event>
10    2  0.2989449E-006  0.9280179E+02  0.7546771E-02  0.1296348E+00
          1   -1    0    0  503    0 -0.00000000000E+00  0.00000000000E+00  0.20418964218E+03  0.20418964218E+03  0.00000000000E+00 0. -1.
         21   -1    0    0  501  502  0.00000000000E+00 -0.00000000000E+00 -0.45031342508E+03  0.45031342508E+03  0.00000000000E+00 0. -1.
         23    2    1    2    0    0  0.18964989499E+02  0.46726273006E+01  0.15959212341E+03  0.18508155152E+03  0.91673499907E+02 0.  0.
         23    2    1    2    0    0  0.36482011027E+02  0.16625887192E+02 -0.71714338109E+02  0.12328810320E+03  0.91921993266E+02 0.  0.
        -11    1    3    3    0    0  0.31590529438E+02 -0.37260235930E+02  0.70005115889E+02  0.85363944276E+02  0.00000000000E+00 0. -1.
         11    1    3    3    0    0 -0.12625539939E+02  0.41932863231E+02  0.89587007519E+02  0.99717607240E+02  0.00000000000E+00 0.  1.
        -13    1    4    4    0    0  0.65547535184E+02  0.19833308799E+02 -0.36792837311E+02  0.77740288037E+02  0.00000000000E+00 0. -1.
         13    1    4    4    0    0 -0.29065524157E+02 -0.32074216067E+01 -0.34921500797E+02  0.45547815160E+02  0.00000000000E+00 0.  1.
         21    1    1    2  503  502 -0.10937001011E+02 -0.36040187363E+02 -0.88282023739E+02  0.95980356384E+02  0.00000000000E+00 0.  1.
          1    1    1    2  501    0 -0.44509999516E+02  0.14741672870E+02 -0.24571954446E+03  0.25015305616E+03  0.00000000000E+00 0. -1.
<scales pt_clust_5="13000.00000" pt_clust_6="13000.00000" pt_clust_7="13000.00000" pt_clust_8="13000.00000" pt_clust_9="37.66315" pt_clust_10="53.07118"></scales>
<clustering>
<clus scale="   37.663">  2  9  1 -1</clus>
<clus scale="   53.071">  2 10  1 -1</clus>
<clus scale="   91.673">  5  6 -1 -1</clus>
<clus scale="   91.922">  7  8 -1 -1</clus>
<clus scale="   92.556">  1  5  2 -1</clus>
<clus scale="   37.663">  2  5  1 -1</clus>
</clustering>
</event>
<event>
10    2  0.2421970E-006  0.9809492E+02  0.7546771E-02  0.1285047E+00
          3   -1    0    0  502    0 -0.00000000000E+00  0.00000000000E+00  0.10393604872E+03  0.10393604872E+03  0.00000000000E+00 0. -1.
         21   -1    0    0  503  502  0.00000000000E+00 -0.00000000000E+00 -0.26816842259E+03  0.26816842259E+03  0.00000000000E+00 0. -1.
         23    2    1    2    0    0  0.24007356946E+02 -0.56871230234E+02  0.15976507438E+02  0.11040238206E+03  0.90126284503E+02 0.  0.
         23    2    1    2    0    0 -0.16557250687E+01 -0.24408994288E+02 -0.79411505300E+02  0.12359677843E+03  0.91495552011E+02 0.  0.
        -11    1    4    4    0    0  0.65613847538E+01 -0.51199203274E+02 -0.80415656431E+02  0.95556726529E+02  0.00000000000E+00 0. -1.
         11    1    4    4    0    0 -0.82171098225E+01  0.26790208986E+02  0.10041511314E+01  0.28040051905E+02  0.00000000000E+00 0.  1.
        -13    1    3    3    0    0 -0.23078660871E+02  0.11747611632E+02  0.15690905900E+01  0.25944036153E+02  0.00000000000E+00 0.  1.
         13    1    3    3    0    0  0.47086017817E+02 -0.68618841865E+02  0.14407416848E+02  0.84458345905E+02  0.00000000000E+00 0. -1.
         21    1    1    2  503  501  0.66904290117E+00  0.44816160983E+02 -0.76351838155E+02  0.88535524470E+02  0.00000000000E+00 0. -1.
          3    1    1    2  501    0 -0.23020674779E+02  0.36464063539E+02 -0.24445537857E+02  0.49569786344E+02  0.00000000000E+00 0. -1.
<scales pt_clust_5="13000.00000" pt_clust_6="13000.00000" pt_clust_7="13000.00000" pt_clust_8="13000.00000" pt_clust_9="41.69449" pt_clust_10="94.40851"></scales>
<clustering>
<clus scale="   41.694">  9 10 -1 -1</clus>
<clus scale="   90.126">  7  8 -1 -1</clus>
<clus scale="   91.496">  5  6 -1 -1</clus>
<clus scale="   94.409">  2  9  1 -1</clus>
<clus scale="   96.819">  1  7  2 -1</clus>
<clus scale="   94.409">  2  5  1 -1</clus>
</clustering>
</event>
<event>
10    2  0.2421970E-006  0.2571413E+03  0.7546771E-02  0.1109023E+00
         -3   -1    0    0    0  501 -0.00000000000E+00  0.00000000000E+00  0.47294557351E+03  0.47294557351E+03  0.00000000000E+00 0.  1.
         21   -1    0    0  503  502  0.00000000000E+00 -0.00000000000E+00 -0.33957502344E+03  0.33957502344E+03  0.00000000000E+00 0.  1.
         23    2    1    2    0    0 -0.44030247088E+02 -0.24503260680E+03  0.19557930259E+03  0.32963297665E+03  0.91798663629E+02 0.  0.
         23    2    1    2    0    0  0.13632255543E+03  0.19814771506E+03  0.73678045194E+02  0.26682788530E+03  0.89007358829E+02 0.  0.
        -13    1    3    3    0    0 -0.72051481322E+02 -0.18523013126E+03  0.15578540858E+03  0.25252863405E+03  0.00000000000E+00 0.  1.
         13    1    3    3    0    0  0.28021234234E+02 -0.59802475535E+02  0.39793894007E+02  0.77104342604E+02  0.00000000000E+00 0. -1.
        -13    1    4    4    0    0  0.11422418038E+03  0.88220424052E+02  0.41011595372E+02  0.15003985324E+03  0.00000000000E+00 0.  1.
         13    1    4    4    0    0  0.22098375042E+02  0.10992729101E+03  0.32666449822E+02  0.11678803206E+03  0.00000000000E+00 0. -1.
         21    1    1    2  503  501 -0.15048108952E+01 -0.39373240969E+02 -0.15479266603E+02  0.42333488574E+02  0.00000000000E+00 0.  1.
         -3    1    1    2    0  502 -0.90787497444E+02  0.86258132704E+02 -0.12040753111E+03  0.17372624643E+03  0.00000000000E+00 0.  1.
<scales pt_clust_5="13000.00000" pt_clust_6="13000.00000" pt_clust_7="13000.00000" pt_clust_8="13000.00000" pt_clust_9="39.40199" pt_clust_10="113.77431"></scales>
<clustering>
<clus scale="   39.402">  2  9  1 -1</clus>
<clus scale="   89.007">  7  8 -1 -1</clus>
<clus scale="   91.799">  5  6 -1 -1</clus>
<clus scale="  113.774">  2 10  1 -1</clus>
<clus scale="  256.158">  2  7  1 -1</clus>
<clus scale="   39.402">  2  5  1 -1</clus>
</clustering>
</event>
<event>
10    2  0.2421970E-006  0.1761240E+03  0.7546771E-02  0.1171629E+00
         21   -1    0    0  501  502  0.00000000000E+00  0.00000000000E+00  0.50729108789E+03  0.50729108789E+03  0.00000000000E+00 0. -1.
          4   -1    0    0  503    0 -0.00000000000E+00 -0.00000000000E+00 -0.35812869342E+03  0.35812869342E+03  0.00000000000E+00 0. -1.
         23    2    1    2    0    0 -0.90991994404E+02 -0.16481552113E+03 -0.12901317692E+03  0.24584668879E+03  0.91391988260E+02 0.  0.
         23    2    1    2    0    0  0.16163966218E+03  0.55106324624E+02  0.28295667006E+03  0.34285693444E+03  0.91226711848E+02 0.  0.
        -11    1    3    3    0    0 -0.55823262897E+02 -0.51078349273E+02 -0.96133797964E+02  0.12233945216E+03  0.00000000000E+00 0. -1.
         11    1    3    3    0    0 -0.35168731507E+02 -0.11373717186E+03 -0.32879378957E+02  0.12350723663E+03  0.00000000000E+00 0.  1.
        -13    1    4    4    0    0  0.24872944619E+02 -0.13960685281E+02  0.10116965751E+03  0.10511357528E+03  0.00000000000E+00 0.  1.
         13    1    4    4    0    0  0.13676671756E+03  0.69067009905E+02  0.18178701255E+03  0.23774335916E+03  0.00000000000E+00 0. -1.
         21    1    1    2  503  502 -0.36492046807E+02  0.98160229510E+02 -0.11807390652E+03  0.15782441997E+03  0.00000000000E+00 0. -1.
          4    1    1    2  501    0 -0.34155620971E+02  0.11548966998E+02  0.11329280784E+03  0.11889173811E+03  0.00000000000E+00 0. -1.
<scales pt_clust_5="13000.00000" pt_clust_6="13000.00000" pt_clust_7="13000.00000" pt_clust_8="13000.00000" pt_clust_9="105.88814" pt_clust_10="36.05531"></scales>
<clustering>
<clus scale="   36.055">  1 10  2 -1</clus>
<clus scale="   91.227">  7  8 -1 -1</clus>
<clus scale="   91.392">  5  6 -1 -1</clus>
<clus scale="  105.888">  2  9  1 -1</clus>
<clus scale="  176.038">  1  7  2 -1</clus>
<clus scale="   36.055">  1  5  2 -1</clus>
</clustering>
</event>
<event>
10    2  0.2421970E-006  0.2360091E+03  0.7546771E-02  0.1122480E+00
         21   -1    0    0  501  502  0.00000000000E+00  0.00000000000E+00  0.16750601082E+03  0.16750601082E+03  0.00000000000E+00 0. -1.
          2   -1    0    0  503    0 -0.00000000000E+00 -0.00000000000E+00 -0.58702201144E+03  0.58702201144E+03  0.00000000000E+00 0. -1.
         23    2    1    2    0    0 -0.88121568969E+02  0.22657355544E+03 -0.19386724358E+03  0.32399755147E+03  0.91043496657E+02 0.  0.
         23    2    1    2    0    0 -0.35628849860E+02 -0.20671642959E+03 -0.13151538266E+03  0.26379251208E+03  0.91044474566E+02 0.  0.
        -13    1    3    3    0    0 -0.55101385344E+02  0.44913260528E+02 -0.30099874145E+02  0.77196930390E+02  0.00000000000E+00 0.  1.
         13    1    3    3    0    0 -0.33020183625E+02  0.18166029491E+03 -0.16376736944E+03  0.24680062108E+03  0.00000000000E+00 0. -1.
        -13    1    4    4    0    0  0.77643691777E+01 -0.76652480790E+02 -0.49629335598E+01  0.77204397216E+02  0.00000000000E+00 0.  1.
         13    1    4    4    0    0 -0.43393219038E+02 -0.13006394880E+03 -0.12655244910E+03  0.18658811486E+03  0.00000000000E+00 0. -1.
         21    1    1    2  503  502  0.11997635434E+02 -0.18619356554E+02 -0.31849818944E+02  0.38794776211E+02  0.00000000000E+00 0.  1.
          2    1    1    2  501    0  0.11175278340E+03 -0.12377692949E+01 -0.62283555433E+02  0.12794318249E+03  0.00000000000E+00 0. -1.
<scales pt_clust_5="13000.00000" pt_clust_6="13000.00000" pt_clust_7="13000.00000" pt_clust_8="13000.00000" pt_clust_9="22.15003" pt_clust_10="113.90805"></scales>
<clustering>
<clus scale="   22.150">  2  9  1 -1</clus>
<clus scale="   91.043">  5  6 -1 -1</clus>
<clus scale="   91.044">  7  8 -1 -1</clus>
<clus scale="  113.908">  1 10  2 -1</clus>
<clus scale="  236.009">  2  5  1 -1</clus>
<clus scale="  113.908">  1  5  2 -1</clus>
</clustering>
</event>
<event>
10    2  0.2421970E-006  0.1440999E+03  0.7546771E-02  0.1209415E+00
         21   -1    0    0  501  502  0.00000000000E+00  0.00000000000E+00  0.23341591605E+03  0.23341591605E+03  0.00000000000E+00 0. -1.
          2   -1    0    0  503    0 -0.00000000000E+00 -0.00000000000E+00 -0.45854127901E+03  0.45854127901E+03  0.00000000000E+00 0. -1.
         23    2    1    2    0    0 -0.11509627611E+03 -0.16586903602E+02 -0.37516666544E+03  0.40158134651E+03  0.83637747869E+02 0.  0.
         23    2    1    2    0    0  0.81655281746E+02 -0.41428190704E+02  0.61362909294E+02  0.14294980034E+03  0.91023946072E+02 0.  0.
        -11    1    3    3    0    0 -0.10464812118E+03 -0.41359863213E+02 -0.33369967431E+03  0.35216095779E+03  0.00000000000E+00 0. -1.
         11    1    3    3    0    0 -0.10448154922E+02  0.24772959611E+02 -0.41466991123E+02  0.49420388727E+02  0.00000000000E+00 0.  1.
        -11    1    4    4    0    0 -0.18990770366E+02 -0.14743185160E+02  0.18557269333E+02  0.30370760822E+02  0.00000000000E+00 0. -1.
         11    1    4    4    0    0  0.10064605211E+03 -0.26685005544E+02  0.42805639961E+02  0.11257903952E+03  0.00000000000E+00 0.  1.
         21    1    1    2  503  502 -0.32242233764E+02  0.17912570564E+02  0.47516379090E+02  0.60151709071E+02  0.00000000000E+00 0. -1.
          2    1    1    2  501    0  0.65683228125E+02  0.40102523742E+02  0.41162014091E+02  0.87274339135E+02  0.00000000000E+00 0. -1.
<scales pt_clust_5="13000.00000" pt_clust_6="13000.00000" pt_clust_7="13000.00000" pt_clust_8="13000.00000" pt_clust_9="36.88390" pt_clust_10="71.38343"></scales>
<clustering>
<clus scale="   36.884">  1  9  2 -1</clus>
<clus scale="   71.383">  1 10  2 -1</clus>
<clus scale="   83.638">  5  6 -1 -1</clus>
<clus scale="   91.024">  7  8 -1 -1</clus>
<clus scale="  139.552">  2  5  1 -1</clus>
<clus scale="   36.884">  1  5  2 -1</clus>
</clustering>
</event>
<event>
10    2  0.2421970E-006  0.1731645E+03  0.7546771E-02  0.1196744E+00
         -3   -1    0    0    0  501 -0.00000000000E+00  0.00000000000E+00  0.23645591636E+03  0.23645591636E+03  0.00000000000E+00 0.  1.
         21   -1    0    0  503  502  0.00000000000E+00 -0.00000000000E+00 -0.32638216643E+03  0.32638216643E+03  0.00000000000E+00 0.  1.
         23    2    1    2    0    0  0.83688099775E+01  0.55983563664E+02  0.63872792468E+02  0.12455290749E+03  0.90716573816E+02 0.  0.
         23    2    1    2    0    0 -0.60425332976E+02  0.13666900902E+03 -0.47130204441E+02  0.18088381728E+03  0.90377321781E+02 0.  0.
        -11    1    3    3    0    0 -0.24342872007E+02  0.97525141571E+00  0.54724784576E+02  0.59902659204E+02  0.00000000000E+00 0.  1.
         11    1    3    3    0    0  0.32711681984E+02  0.55008312248E+02  0.91480078920E+01  0.64650248283E+02  0.00000000000E+00 0. -1.
        -13    1    4    4    0    0 -0.84837813428E+01  0.78596571373E+02  0.15938836299E+02  0.80643921532E+02  0.00000000000E+00 0.  1.
         13    1    4    4    0    0 -0.51941551633E+02  0.58072437647E+02 -0.63069040740E+02  0.10023989575E+03  0.00000000000E+00 0. -1.
         21    1    1    2  503  501  0.59989098608E+02 -0.32704857844E+02 -0.59107180904E+02  0.90343558225E+02  0.00000000000E+00 0.  1.
         -3    1    1    2    0  502 -0.79325756098E+01 -0.15994771484E+03 -0.47561657197E+02  0.16705779980E+03  0.00000000000E+00 0.  1.
<scales pt_clust_5="13000.00000" pt_clust_6="13000.00000" pt_clust_7="13000.00000" pt_clust_8="13000.00000" pt_clust_9="68.32496" pt_clust_10="147.70885"></scales>
<clustering>
<clus scale="   68.325">  2  9  1 -1</clus>
<clus scale="   90.377">  7  8 -1 -1</clus>
<clus scale="   90.717">  5  6 -1 -1</clus>
<clus scale="  105.741">  1  5  2 -1</clus>
<clus scale="  147.709">  2 10  1 -1</clus>
<clus scale="   68.325">  2  5  1 -1</clus>
</clustering>
</event>
<event>
10    2  0.2421970E-006  0.1775808E+03  0.7546771E-02  0.1199350E+00
         21   -1    0    0  503  502  0.00000000000E+00  0.00000000000E+00  0.14630874287E+03  0.14630874287E+03  0.00000000000E+00 0. -1.
          1   -1    0    0  502    0 -0.00000000000E+00 -0.00000000000E+00 -0.76822306097E+03  0.76822306097E+03  0.00000000000E+00 0. -1.
         23    2    1    2    0    0 -0.72754352889E+00 -0.34565943469E+01 -0.40351384294E+03  0.41400142112E+03  0.92527173741E+02 0.  0.
         23    2    1    2    0    0 -0.92388460209E+02  0.14198817333E+03 -0.24186759522E+03  0.30791170867E+03  0.87254901159E+02 0.  0.
        -11    1    4    4    0    0 -0.25437077725E+02  0.56585596170E+02 -0.27954253743E+02  0.68047152178E+02  0.00000000000E+00 0. -1.
         11    1    4    4    0    0 -0.66951382484E+02  0.85402577160E+02 -0.21391334147E+03  0.23986455650E+03  0.00000000000E+00 0.  1.
        -13    1    3    3    0    0 -0.16867668367E+02  0.40913726410E+02 -0.22754495033E+03  0.23180844607E+03  0.00000000000E+00 0.  1.
         13    1    3    3    0    0  0.16140124838E+02 -0.44370320757E+02 -0.17596889260E+03  0.18219297505E+03  0.00000000000E+00 0. -1.
         21    1    1    2  503  501  0.58286330131E+02 -0.11461546289E+02  0.58727351967E+01  0.59692146403E+02  0.00000000000E+00 0. -1.
          1    1    1    2  501    0  0.34829673607E+02 -0.12707003269E+03  0.17594384859E+02  0.13292652764E+03  0.00000000000E+00 0. -1.
<scales pt_clust_5="13000.00000" pt_clust_6="13000.00000" pt_clust_7="13000.00000" pt_clust_8="13000.00000" pt_clust_9="59.40255" pt_clust_10="154.66583"></scales>
<clustering>
<clus scale="   59.403">  1  9  2 -1</clus>
<clus scale="   87.255">  5  6 -1 -1</clus>
<clus scale="   92.527">  7  8 -1 -1</clus>
<clus scale="   92.634">  2  7  1 -1</clus>
<clus scale="  154.666">  1 10  2 -1</clus>
<clus scale="   59.403">  1  5  2 -1</clus>
</clustering>
</event>
<event>
10    2  0.2421970E-006  0.2370276E+03  0.7546771E-02  0.1147542E+00
          3   -1    0    0  502    0 -0.00000000000E+00  0.00000000000E+00  0.64224318492E+03  0.64224318492E+03  0.00000000000E+00 0. -1.
         21   -1    0    0  503  502  0.00000000000E+00 -0.00000000000E+00 -0.50373398030E+03  0.50373398030E+03  0.00000000000E+00 0. -1.
         23    2    1    2    0    0  0.52567662353E+02 -0.71228233922E+02  0.47424723895E+03  0.49085111999E+03  0.90485125321E+02 0.  0.
         23    2    1    2    0    0 -0.25410400990E+03  0.58398515260E+01 -0.19811509242E+02  0.27090144503E+03  0.91608653020E+02 0.  0.
        -11    1    4    4    0    0 -0.60397752440E+02 -0.65006552083E+01 -0.44411553194E+02  0.75249804485E+02  0.00000000000E+00 0.  1.
         11    1    4    4    0    0 -0.19370625746E+03  0.12340506734E+02  0.24600043952E+02  0.19565164055E+03  0.00000000000E+00 0. -1.
        -11    1    3    3    0    0 -0.11787455893E+02 -0.20129999208E+02  0.25170082906E+02  0.34317547378E+02  0.00000000000E+00 0.  1.
         11    1    3    3    0    0  0.64355118246E+02 -0.51098234714E+02  0.44907715605E+03  0.45653357261E+03  0.00000000000E+00 0. -1.
         21    1    1    2  503  501  0.14168873304E+03  0.20428367786E+02 -0.22139919619E+03  0.26364866651E+03  0.00000000000E+00 0. -1.
          3    1    1    2  501    0  0.59847614511E+02  0.44960014610E+02 -0.94527328900E+02  0.12057593369E+03  0.00000000000E+00 0. -1.
<scales pt_clust_5="13000.00000" pt_clust_6="13000.00000" pt_clust_7="13000.00000" pt_clust_8="13000.00000" pt_clust_9="39.11792" pt_clust_10="225.20299"></scales>
<clustering>
<clus scale="   39.118">  9 10 -1 -1</clus>
<clus scale="   90.485">  7  8 -1 -1</clus>
<clus scale="   91.609">  5  6 -1 -1</clus>
<clus scale="  126.587">  1  7  2 -1</clus>
<clus scale="  225.203">  2  9  1 -1</clus>
<clus scale="  225.203">  2  5  1 -1</clus>
</clustering>
</event>
<event>
10    2  0.2421970E-006  0.1367829E+03  0.7546771E-02  0.1233178E+00
          2   -1    0    0  503    0 -0.00000000000E+00  0.00000000000E+00  0.15731601538E+03  0.15731601538E+03  0.00000000000E+00 0. -1.
         21   -1    0    0  501  502  0.00000000000E+00 -0.00000000000E+00 -0.44619663515E+03  0.44619663515E+03  0.00000000000E+00 0.  1.
         23    2    1    2    0    0  0.10739341943E+02  0.32300757949E+02  0.67764018314E+02  0.11970114388E+03  0.92616031214E+02 0.  0.
         23    2    1    2    0    0  0.90261969455E+02 -0.66889557630E+02 -0.53977002566E+02  0.15526141786E+03  0.92580532612E+02 0.  0.
        -11    1    4    4    0    0 -0.14212303787E+02 -0.21046296191E+02  0.63873118095E+01  0.26186521618E+02  0.00000000000E+00 0. -1.
         11    1    4    4    0    0  0.10447427324E+03 -0.45843261439E+02 -0.60364314375E+02  0.12907489624E+03  0.00000000000E+00 0.  1.
        -13    1    3    3    0    0  0.32803133460E+02  0.56751661437E+02  0.41564529271E+02  0.77617051826E+02  0.00000000000E+00 0.  1.
         13    1    3    3    0    0 -0.22063791518E+02 -0.24450903488E+02  0.26199489043E+02  0.42084092050E+02  0.00000000000E+00 0. -1.
         21    1    1    2  503  502 -0.11901829137E+02  0.27092081016E+02 -0.32417193139E+02  0.43892012959E+02  0.00000000000E+00 0. -1.
          2    1    1    2  501    0 -0.89099482261E+02  0.74967186656E+01 -0.27025044239E+03  0.28465807584E+03  0.00000000000E+00 0. -1.
<scales pt_clust_5="13000.00000" pt_clust_6="13000.00000" pt_clust_7="13000.00000" pt_clust_8="13000.00000" pt_clust_9="29.59112" pt_clust_10="100.68967"></scales>
<clustering>
<clus scale="   29.591">  2  9  1 -1</clus>
<clus scale="   92.581">  5  6 -1 -1</clus>
<clus scale="   92.616">  7  8 -1 -1</clus>
<clus scale="   99.172">  1  7  2 -1</clus>
<clus scale="  100.690">  2 10  1 -1</clus>
<clus scale="   29.591">  2  5  1 -1</clus>
</clustering>
</event>
<event>
10    2  0.2421970E-006  0.4577425E+03  0.7546771E-02  0.1026043E+00
          2   -1    0    0  503    0 -0.00000000000E+00  0.00000000000E+00  0.42770659796E+03  0.42770659796E+03  0.00000000000E+00 0. -1.
         21   -1    0    0  501  502  0.00000000000E+00 -0.00000000000E+00 -0.81617256382E+03  0.81617256382E+03  0.00000000000E+00 0. -1.
         23    2    1    2    0    0  0.38856388788E+03  0.32486301510E+02 -0.35642853236E+02  0.40043498423E+03  0.83907740166E+02 0.  0.
         23    2    1    2    0    0 -0.53819135271E+03 -0.82023794513E+02 -0.36850650281E+03  0.66833306876E+03  0.12039191500E+03 0.  0.
        -11    1    3    3    0    0  0.25429525309E+03 -0.17745882267E+02 -0.12485506460E+02  0.25521927818E+03  0.00000000000E+00 0. -1.
         11    1    3    3    0    0  0.13426863479E+03  0.50232183777E+02 -0.23157346776E+02  0.14521570606E+03  0.00000000000E+00 0.  1.
        -13    1    4    4    0    0 -0.18233172580E+03  0.86141115611E+01 -0.71510147567E+02  0.19604275645E+03  0.00000000000E+00 0.  1.
         13    1    4    4    0    0 -0.35585962691E+03 -0.90637906075E+02 -0.29699635524E+03  0.47229031232E+03  0.00000000000E+00 0. -1.
         21    1    1    2  503  502  0.19624605484E+02 -0.18193379424E+02 -0.45110069241E+01  0.27138043016E+02  0.00000000000E+00 0. -1.
          2    1    1    2  501    0  0.13000285934E+03  0.67730872428E+02  0.20194397109E+02  0.14797306577E+03  0.00000000000E+00 0. -1.
<scales pt_clust_5="13000.00000" pt_clust_6="13000.00000" pt_clust_7="13000.00000" pt_clust_8="13000.00000" pt_clust_9="26.76050" pt_clust_10="148.49289"></scales>
<clustering>
<clus scale="   26.760">  1  9  2 -1</clus>
<clus scale="   83.908">  5  6 -1 -1</clus>
<clus scale="  120.392">  7  8 -1 -1</clus>
<clus scale="  148.493">  2 10  1 -1</clus>
<clus scale="  449.527">  1  5  2 -1</clus>
<clus scale="  148.493">  2  5  1 -1</clus>
</clustering>
</event>
<event>
10    2  0.2421970E-006  0.1756787E+03  0.7546771E-02  0.1199124E+00
          1   -1    0    0  503    0 -0.00000000000E+00  0.00000000000E+00  0.54013611757E+03  0.54013611757E+03  0.00000000000E+00 0. -1.
         21   -1    0    0  501  502  0.00000000000E+00 -0.00000000000E+00 -0.27428905624E+03  0.27428905624E+03  0.00000000000E+00 0. -1.
         23    2    1    2    0    0  0.11293264192E+02 -0.41072634938E+02 -0.32500305181E+02  0.10222251577E+03  0.87055578439E+02 0.  0.
         23    2    1    2    0    0  0.11495965846E+03 -0.99710193404E+02  0.39627387313E+03  0.43553981425E+03  0.97488981571E+02 0.  0.
        -13    1    3    3    0    0 -0.32579211894E+02 -0.41629028170E+02 -0.14649740040E+02  0.54854315394E+02  0.00000000000E+00 0.  1.
         13    1    3    3    0    0  0.43872476086E+02  0.55639323201E+00 -0.17850565141E+02  0.47368200380E+02  0.00000000000E+00 0. -1.
        -13    1    4    4    0    0 -0.82573558094E+01 -0.42089132203E+02  0.70705200151E+02  0.82697668063E+02  0.00000000000E+00 0.  1.
         13    1    4    4    0    0  0.12321701427E+03 -0.57621061202E+02  0.32556867297E+03  0.35284214618E+03  0.00000000000E+00 0. -1.
         21    1    1    2  503  502 -0.55683860482E+02  0.12573355001E+02  0.44552292116E+02  0.72413315813E+02  0.00000000000E+00 0. -1.
          1    1    1    2  501    0 -0.70569062174E+02  0.12820947334E+03 -0.14247879873E+03  0.20424952798E+03  0.00000000000E+00 0. -1.
<scales pt_clust_5="13000.00000" pt_clust_6="13000.00000" pt_clust_7="13000.00000" pt_clust_8="13000.00000" pt_clust_9="57.08574" pt_clust_10="146.14681"></scales>
<clustering>
<clus scale="   57.086">  1  9  2 -1</clus>
<clus scale="   87.056">  5  6 -1 -1</clus>
<clus scale="   96.148">  1  5  2 -1</clus>
<clus scale="   97.489">  7  8 -1 -1</clus>
<clus scale="  146.147">  2 10  1 -1</clus>
<clus scale="  146.147">  2  5  1 -1</clus>
</clustering>
</event>
<event>
10    2  0.2421970E-006  0.1709567E+03  0.7546771E-02  0.1176895E+00
          3   -1    0    0  503    0 -0.00000000000E+00  0.00000000000E+00  0.15859915543E+03  0.15859915543E+03  0.00000000000E+00 0. -1.
         21   -1    0    0  501  502  0.00000000000E+00 -0.00000000000E+00 -0.31597634276E+03  0.31597634276E+03  0.00000000000E+00 0. -1.
         23    2    1    2    0    0 -0.65449750295E+02  0.12062351666E+03  0.69446167513E+01  0.16484040411E+03  0.91051790424E+02 0.  0.
         23    2    1    2    0    0  0.11441772766E+03 -0.12579630105E+03 -0.15155085469E+03  0.24519486146E+03  0.90756447531E+02 0.  0.
        -13    1    4    4    0    0  0.90705160001E+02 -0.36472522796E+02 -0.57904310271E+02  0.11362473374E+03  0.00000000000E+00 0.  1.
         13    1    4    4    0    0  0.23712567661E+02 -0.89323778252E+02 -0.93646544417E+02  0.13157012772E+03  0.00000000000E+00 0. -1.
        -13    1    3    3    0    0 -0.36740407083E+02  0.11333158355E+03 -0.24510837963E+02  0.12163341037E+03  0.00000000000E+00 0. -1.
         13    1    3    3    0    0 -0.28709343212E+02  0.72919331147E+01  0.31455454714E+02  0.43206993733E+02  0.00000000000E+00 0.  1.
         21    1    1    2  503  502 -0.14430351259E+02 -0.14018386875E+02  0.57205190681E+01  0.20915892198E+02  0.00000000000E+00 0.  1.
          3    1    1    2  501    0 -0.34537626108E+02  0.19191171262E+02 -0.18491468458E+02  0.43624340423E+02  0.00000000000E+00 0. -1.
<scales pt_clust_5="13000.00000" pt_clust_6="13000.00000" pt_clust_7="13000.00000" pt_clust_8="13000.00000" pt_clust_9="20.11840" pt_clust_10="40.04816"></scales>
<clustering>
<clus scale="   20.118">  1  9  2 -1</clus>
<clus scale="   40.048">  2 10  1 -1</clus>
<clus scale="   90.756">  5  6 -1 -1</clus>
<clus scale="   91.052">  7  8 -1 -1</clus>
<clus scale="  170.800">  2  5  1 -1</clus>
<clus scale="   40.048">  2  5  1 -1</clus>
</clustering>
</event>
<event>
10    2  0.2421970E-006  0.2900752E+03  0.7546771E-02  0.1090338E+00
         21   -1    0    0  503  502  0.00000000000E+00  0.00000000000E+00  0.17355467031E+03  0.17355467031E+03  0.00000000000E+00 0. -1.
          2   -1    0    0  502    0 -0.00000000000E+00 -0.00000000000E+00 -0.10263878137E+04  0.10263878137E+04  0.00000000000E+00 0. -1.
         23    2    1    2    0    0  0.66008082950E+02 -0.29233139956E+03 -0.78341307527E+03  0.84392278742E+03  0.93031771112E+02 0.  0.
         23    2    1    2    0    0 -0.69994884475E+01  0.21075752784E+03 -0.82260402436E+02  0.24446737077E+03  0.92356879446E+02 0.  0.
        -11    1    3    3    0    0  0.43260222961E+02 -0.37790451338E+02 -0.16841119971E+03  0.17793790291E+03  0.00000000000E+00 0.  1.
         11    1    3    3    0    0  0.22747859989E+02 -0.25454094822E+03 -0.61500187556E+03  0.66598488451E+03  0.00000000000E+00 0. -1.
        -11    1    4    4    0    0  0.41633465503E+02  0.11190429362E+03 -0.33637320283E+02  0.12404590157E+03  0.00000000000E+00 0.  1.
         11    1    4    4    0    0 -0.48632953950E+02  0.98853234221E+02 -0.48623082153E+02  0.12042146920E+03  0.00000000000E+00 0. -1.
         21    1    1    2  503  501 -0.73498572130E+01  0.48271713944E+02  0.32887565722E+00  0.48829160625E+02  0.00000000000E+00 0.  1.
          2    1    1    2  501    0 -0.51658737289E+02  0.33302157773E+02  0.12511458694E+02  0.62723165173E+02  0.00000000000E+00 0. -1.
<scales pt_clust_5="13000.00000" pt_clust_6="13000.00000" pt_clust_7="13000.00000" pt_clust_8="13000.00000" pt_clust_9="41.25850" pt_clust_10="110.81086"></scales>
<clustering>
<clus scale="   41.258">  9 10 -1 -1</clus>
<clus scale="   92.357">  7  8 -1 -1</clus>
<clus scale="   93.032">  5  6 -1 -1</clus>
<clus scale="  110.811">  1  9  2 -1</clus>
<clus scale="  289.859">  1  7  2 -1</clus>
<clus scale="  110.811">  1  5  2 -1</clus>
</clustering>
</event>
<event>
10    2  0.2421970E-006  0.1620712E+03  0.7546771E-02  0.1186499E+00
         21   -1    0    0  503  502  0.00000000000E+00  0.00000000000E+00  0.27438314665E+03  0.27438314665E+03  0.00000000000E+00 0. -1.
         -2   -1    0    0    0  501 -0.00000000000E+00 -0.00000000000E+00 -0.20832310270E+03  0.20832310270E+03  0.00000000000E+00 0.  1.
         23    2    1    2    0    0  0.10847149246E+03 -0.72863873460E+02 -0.71371616977E+02  0.17458275609E+03  0.91159323620E+02 0.  0.
         23    2    1    2    0    0 -0.11669274888E+03  0.77895104546E+02  0.26179089128E+02  0.16893431862E+03  0.90380386960E+02 0.  0.
        -11    1    3    3    0    0  0.12088685347E+02  0.19399173279E+02  0.83514967226E+00  0.22872728571E+02  0.00000000000E+00 0.  1.
         11    1    3    3    0    0  0.96382807112E+02 -0.92263046739E+02 -0.72206766649E+02  0.15171002752E+03  0.00000000000E+00 0. -1.
        -13    1    4    4    0    0 -0.17012868374E+01  0.36199809359E+02 -0.15909637462E+02  0.39578240722E+02  0.00000000000E+00 0.  1.
         13    1    4    4    0    0 -0.11499146204E+03  0.41695295187E+02  0.42088726589E+02  0.12935607790E+03  0.00000000000E+00 0. -1.
         21    1    1    2  503  501 -0.18411253680E+02 -0.35051745389E+02  0.76342158457E+02  0.85998396932E+02  0.00000000000E+00 0. -1.
         -2    1    1    2    0  502  0.26632510101E+02  0.30020514303E+02  0.34910413336E+02  0.53190777702E+02  0.00000000000E+00 0.  1.
<scales pt_clust_5="13000.00000" pt_clust_6="13000.00000" pt_clust_7="13000.00000" pt_clust_8="13000.00000" pt_clust_9="39.59292" pt_clust_10="31.44210"></scales>
<clustering>
<clus scale="   39.593">  1  9  2 -1</clus>
<clus scale="   31.442">  1 10  2 -1</clus>
<clus scale="   90.380">  7  8 -1 -1</clus>
<clus scale="   91.159">  5  6 -1 -1</clus>
<clus scale="  161.634">  1  7  2 -1</clus>
<clus scale="   39.593">  1  5  2 -1</clus>
</clustering>
</event>
<event>
10    2  0.2421970E-006  0.2121232E+03  0.7546771E-02  0.1139971E+00
         21   -1    0    0  501  502  0.00000000000E+00  0.00000000000E+00  0.12347961133E+03  0.12347961133E+03  0.00000000000E+00 0.  1.
         -1   -1    0    0    0  501 -0.00000000000E+00 -0.00000000000E+00 -0.11777555536E+04  0.11777555536E+04  0.00000000000E+00 0.  1.
         23    2    1    2    0    0 -0.16275784379E+03 -0.62921022529E+02 -0.56679501057E+03  0.60015484768E+03  0.92087384532E+02 0.  0.
         23    2    1    2    0    0  0.27346134399E+03  0.88867334302E+02 -0.13888383885E+03  0.33208922994E+03  0.91192248500E+02 0.  0.
        -11    1    3    3    0    0 -0.27033259766E+02 -0.55068870850E+02 -0.17388963174E+03  0.18439355112E+03  0.00000000000E+00 0.  1.
         11    1    3    3    0    0 -0.13572458403E+03 -0.78521516785E+01 -0.39290537883E+03  0.41576129655E+03  0.00000000000E+00 0. -1.
        -13    1    4    4    0    0  0.29727561359E+02 -0.17375525452E+02 -0.26412368247E+02  0.43396428257E+02  0.00000000000E+00 0. -1.
         13    1    4    4    0    0  0.24373378263E+03  0.10624285975E+03 -0.11247147060E+03  0.28869280168E+03  0.00000000000E+00 0.  1.
         21    1    1    2  503  502 -0.42919170700E+02  0.10214100486E+02 -0.12330122050E+03  0.13095638220E+03  0.00000000000E+00 0. -1.
         -1    1    1    2    0  503 -0.67784329494E+02 -0.36160412259E+02 -0.22529587235E+03  0.23803470512E+03  0.00000000000E+00 0.  1.
<scales pt_clust_5="13000.00000" pt_clust_6="13000.00000" pt_clust_7="13000.00000" pt_clust_8="13000.00000" pt_clust_9="31.29991" pt_clust_10="120.97315"></scales>
<clustering>
<clus scale="   31.300">  9 10 -1 -1</clus>
<clus scale="   91.192">  7  8 -1 -1</clus>
<clus scale="   92.087">  5  6 -1 -1</clus>
<clus scale="  120.973">  1  9  2 -1</clus>
<clus scale="  211.736">  1  7  2 -1</clus>
<clus scale="  120.973">  1  5  2 -1</clus>
</clustering>
</event>
<event>
10    2  0.2421970E-006  0.1717341E+03  0.7546771E-02  0.1190332E+00
          3   -1    0    0  502    0 -0.00000000000E+00  0.00000000000E+00  0.75805008643E+03  0.75805008643E+03  0.00000000000E+00 0. -1.
         21   -1    0    0  503  502  0.00000000000E+00 -0.00000000000E+00 -0.87573192216E+02  0.87573192216E+02  0.00000000000E+00 0. -1.
         23    2    1    2    0    0  0.16362634556E+02 -0.83346182468E+02  0.29828059121E+03  0.32333508174E+03  0.91432718708E+02 0.  0.
         23    2    1    2    0    0 -0.11915655236E+03 -0.36433550759E+02  0.31755649634E+03  0.35305800363E+03  0.91006252354E+02 0.  0.
        -11    1    4    4    0    0  0.97219259258E+01 -0.22284602562E+02  0.59070953968E+02  0.63878767659E+02  0.00000000000E+00 0.  1.
         11    1    4    4    0    0 -0.12887847829E+03 -0.14148948197E+02  0.25848554237E+03  0.28917923597E+03  0.00000000000E+00 0. -1.
        -13    1    3    3    0    0  0.52860071676E+02 -0.36279437893E+02  0.13288736678E+03  0.14754469507E+03  0.00000000000E+00 0. -1.
         13    1    3    3    0    0 -0.36497437120E+02 -0.47066744575E+02  0.16539322443E+03  0.17579038668E+03  0.00000000000E+00 0.  1.
         21    1    1    2  503  501  0.45863852262E+02  0.67035486433E+02  0.17031054788E+02  0.82989795835E+02  0.00000000000E+00 0. -1.
          3    1    1    2  501    0  0.56930065543E+02  0.52744246794E+02  0.37608751875E+02  0.86240397438E+02  0.00000000000E+00 0. -1.
<scales pt_clust_5="13000.00000" pt_clust_6="13000.00000" pt_clust_7="13000.00000" pt_clust_8="13000.00000" pt_clust_9="26.58298" pt_clust_10="148.15542"></scales>
<clustering>
<clus scale="   26.583">  9 10 -1 -1</clus>
<clus scale="   91.006">  5  6 -1 -1</clus>
<clus scale="   91.433">  7  8 -1 -1</clus>
<clus scale="  124.797">  1  7  2 -1</clus>
<clus scale="  148.155">  2  9  1 -1</clus>
<clus scale="  148.155">  2  5  1 -1</clus>
</clustering>
</event>
<event>
10    2  0.2421970E-006  0.1430054E+03  0.7546771E-02  0.1214598E+00
         21   -1    0    0  501  502  0.00000000000E+00  0.00000000000E+00  0.13034327566E+03  0.13034327566E+03  0.00000000000E+00 0.  1.
         -2   -1    0    0    0  501 -0.00000000000E+00 -0.00000000000E+00 -0.45719159552E+03  0.45719159552E+03  0.00000000000E+00 0.  1.
         23    2    1    2    0    0  0.29172394358E+02  0.61658688689E+02 -0.25315706872E+03  0.28540982738E+03  0.11277165264E+03 0.  0.
         23    2    1    2    0    0 -0.78375810343E+02 -0.13520994054E+03 -0.92950106960E+02  0.20416053278E+03  0.92829440885E+02 0.  0.
        -11    1    4    4    0    0 -0.15947994567E+02 -0.51270174642E+02  0.13026247933E+02  0.55250814236E+02  0.00000000000E+00 0. -1.
         11    1    4    4    0    0 -0.62427815775E+02 -0.83939765897E+02 -0.10597635489E+03  0.14890971855E+03  0.00000000000E+00 0.  1.
        -11    1    3    3    0    0  0.49250702953E+02  0.12484933893E+02 -0.37079704393E+02  0.62899998359E+02  0.00000000000E+00 0.  1.
         11    1    3    3    0    0 -0.20078308594E+02  0.49173754796E+02 -0.21607736433E+03  0.22250982902E+03  0.00000000000E+00 0. -1.
         21    1    1    2  503  502  0.74334217459E+00  0.32217221771E+02  0.40412302451E+01  0.32478200044E+02  0.00000000000E+00 0. -1.
         -2    1    1    2    0  503  0.48460073810E+02  0.41334030080E+02  0.15217625573E+02  0.65486310969E+02  0.00000000000E+00 0.  1.
<scales pt_clust_5="13000.00000" pt_clust_6="13000.00000" pt_clust_7="13000.00000" pt_clust_8="13000.00000" pt_clust_9="26.57051" pt_clust_10="96.05281"></scales>
<clustering>
<clus scale="   26.571">  9 10 -1 -1</clus>
<clus scale="   92.829">  5  6 -1 -1</clus>
<clus scale="   96.053">  1  9  2 -1</clus>
<clus scale="  112.772">  7  8 -1 -1</clus>
<clus scale="  127.869">  1  5  2 -1</clus>
<clus scale="   96.053">  1  5  2 -1</clus>
</clustering>
</event>
<event>
10    2  0.2421970E-006  0.1621558E+03  0.7546771E-02  0.1206625E+00
         -3   -1    0    0    0  501 -0.00000000000E+00  0.00000000000E+00  0.10383565068E+04  0.10383565068E+04  0.00000000000E+00 0.  1.
         21   -1    0    0  501  502  0.00000000000E+00 -0.00000000000E+00 -0.12109727261E+03  0.12109727261E+03  0.00000000000E+00 0.  1.
         23    2    1    2    0    0 -0.29168061582E+02  0.41142274898E+02  0.44405819866E+02  0.11305225293E+03  0.90914643786E+02 0.  0.
         23    2    1    2    0    0  0.16158043052E+03 -0.45950220944E+02  0.88504277331E+03  0.90537404002E+03  0.90453211258E+02 0.  0.
        -11    1    4    4    0    0  0.66026798921E+02  0.23870865990E+02  0.39907480605E+03  0.40520372314E+03  0.00000000000E+00 0. -1.
         11    1    4    4    0    0  0.95553631595E+02 -0.69821086934E+02  0.48596796726E+03  0.50017031688E+03  0.00000000000E+00 0.  1.
        -13    1    3    3    0    0 -0.47320528902E+02  0.27551140688E+02  0.63184441298E+02  0.83609637189E+02  0.00000000000E+00 0. -1.
         13    1    3    3    0    0  0.18152467320E+02  0.13591134210E+02 -0.18778621432E+02  0.29442615743E+02  0.00000000000E+00 0.  1.
         21    1    1    2  503  502 -0.46513381198E+02 -0.20673060264E+02 -0.45936422155E+01  0.51107451511E+02  0.00000000000E+00 0. -1.
         -3    1    1    2    0  503 -0.85898987736E+02  0.25481006311E+02 -0.75957167368E+01  0.89920034973E+02  0.00000000000E+00 0.  1.
<scales pt_clust_5="13000.00000" pt_clust_6="13000.00000" pt_clust_7="13000.00000" pt_clust_8="13000.00000" pt_clust_9="35.22402" pt_clust_10="142.46658"></scales>
<clustering>
<clus scale="   35.224">  9 10 -1 -1</clus>
<clus scale="   90.453">  5  6 -1 -1</clus>
<clus scale="   90.915">  7  8 -1 -1</clus>
<clus scale="  103.966">  1  7  2 -1</clus>
<clus scale="  142.467">  2  9  1 -1</clus>
<clus scale="  142.467">  2  5  1 -1</clus>
</clustering>
</event>
<event>
10    2  0.2421970E-006  0.3588025E+03  0.7546771E-02  0.1059085E+00
         -2   -1    0    0    0  501 -0.00000000000E+00  0.00000000000E+00  0.33306248454E+03  0.33306248454E+03  0.00000000000E+00 0.  1.
         21   -1    0    0  503  502  0.00000000000E+00 -0.00000000000E+00 -0.95997802090E+03  0.95997802090E+03  0.00000000000E+00 0. -1.
         23    2    1    2    0    0 -0.31232014814E+03 -0.59161172294E+02 -0.32194247015E+02  0.33245148713E+03  0.91889077236E+02 0.  0.
         23    2    1    2    0    0  0.38761146429E+03  0.72211761704E+01 -0.73403105866E+02  0.40489217565E+03  0.90856289366E+02 0.  0.
        -11    1    4    4    0    0  0.15183309612E+03  0.43075222228E+01  0.15959499105E+02  0.15273031604E+03  0.00000000000E+00 0.  1.
         11    1    4    4    0    0  0.23577836817E+03  0.29136539476E+01 -0.89362604971E+02  0.25216185961E+03  0.00000000000E+00 0. -1.
        -13    1    3    3    0    0 -0.78869519696E+02 -0.55692860313E+02 -0.20366589518E+02  0.98675700127E+02  0.00000000000E+00 0.  1.
         13    1    3    3    0    0 -0.23345062844E+03 -0.34683119810E+01 -0.11827657498E+02  0.23377578701E+03  0.00000000000E+00 0. -1.
         21    1    1    2  503  501 -0.10732547436E+03  0.59556939442E+02 -0.50352521535E+03  0.51826964890E+03  0.00000000000E+00 0. -1.
         -2    1    1    2    0  502  0.32034158206E+02 -0.76169433183E+01 -0.17792968133E+02  0.37427193757E+02  0.00000000000E+00 0.  1.
<scales pt_clust_5="13000.00000" pt_clust_6="13000.00000" pt_clust_7="13000.00000" pt_clust_8="13000.00000" pt_clust_9="105.48144" pt_clust_10="32.92729"></scales>
<clustering>
<clus scale="   32.927">  2 10  1 -1</clus>
<clus scale="   90.856">  5  6 -1 -1</clus>
<clus scale="   91.889">  7  8 -1 -1</clus>
<clus scale="  105.481">  2  9  1 -1</clus>
<clus scale="  358.539">  2  5  1 -1</clus>
<clus scale="   32.927">  2  5  1 -1</clus>
</clustering>
</event>
<event>
10    2  0.2421970E-006  0.1874970E+03  0.7546771E-02  0.1162685E+00
          1   -1    0    0  502    0 -0.00000000000E+00  0.00000000000E+00  0.60021353894E+03  0.60021353894E+03  0.00000000000E+00 0. -1.
         21   -1    0    0  503  502  0.00000000000E+00 -0.00000000000E+00 -0.12880623617E+03  0.12880623617E+03  0.00000000000E+00 0. -1.
         23    2    1    2    0    0 -0.13717134585E+03  0.58402230754E+01  0.16844175568E+03  0.23550109641E+03  0.90763731890E+02 0.  0.
         23    2    1    2    0    0  0.19394474111E+03 -0.13248973515E+03  0.16861403271E+03  0.29799243880E+03  0.72115941559E+02 0.  0.
        -13    1    3    3    0    0 -0.40297606176E+01  0.25139279477E+02  0.50646737297E+02  0.56686103606E+02  0.00000000000E+00 0.  1.
         13    1    3    3    0    0 -0.13314158523E+03 -0.19299056401E+02  0.11779501838E+03  0.17881499280E+03  0.00000000000E+00 0. -1.
        -13    1    4    4    0    0  0.99975567984E+02 -0.84756952657E+02  0.13302850879E+03  0.18674967033E+03  0.00000000000E+00 0.  1.
         13    1    4    4    0    0  0.93969173129E+02 -0.47732782496E+02  0.35585523917E+02  0.11124276847E+03  0.00000000000E+00 0. -1.
         21    1    1    2  503  501 -0.28573141588E+02  0.35930183900E+02  0.32502238228E+02  0.56247649063E+02  0.00000000000E+00 0. -1.
          1    1    1    2  501    0 -0.28200253680E+02  0.90719328178E+02  0.10184927616E+03  0.13927859084E+03  0.00000000000E+00 0. -1.
<scales pt_clust_5="13000.00000" pt_clust_6="13000.00000" pt_clust_7="13000.00000" pt_clust_8="13000.00000" pt_clust_9="21.04866" pt_clust_10="142.05704"></scales>
<clustering>
<clus scale="   21.049">  9 10 -1 -1</clus>
<clus scale="   72.116">  7  8 -1 -1</clus>
<clus scale="   90.764">  5  6 -1 -1</clus>
<clus scale="  142.057">  2  9  1 -1</clus>
<clus scale="  179.214">  2  7  1 -1</clus>
<clus scale="  142.057">  2  5  1 -1</clus>
</clustering>
</event>
<event>
10    2  0.2421970E-006  0.2775119E+03  0.7546771E-02  0.1097395E+00
          2   -1    0    0  503    0 -0.00000000000E+00  0.00000000000E+00  0.38512612050E+03  0.38512612050E+03  0.00000000000E+00 0. -1.
         21   -1    0    0  501  502  0.00000000000E+00 -0.00000000000E+00 -0.97757884769E+03  0.97757884769E+03  0.00000000000E+00 0.  1.
         23    2    1    2    0    0  0.23832798045E+03 -0.11212174871E+03  0.29589587584E+03  0.40542900561E+03  0.86294822882E+02 0.  0.
         23    2    1    2    0    0 -0.21332228636E+03  0.10567080108E+03 -0.54784922876E+03  0.60465511612E+03  0.93788677069E+02 0.  0.
        -13    1    3    3    0    0  0.16274980677E+03 -0.59657015439E+02  0.13352688627E+03  0.21880559511E+03  0.00000000000E+00 0. -1.
         13    1    3    3    0    0  0.75578173674E+02 -0.52464733270E+02  0.16236898957E+03  0.18662341050E+03  0.00000000000E+00 0.  1.
        -13    1    4    4    0    0 -0.20568758651E+03  0.74989789472E+02 -0.42850177271E+03  0.48119083635E+03  0.00000000000E+00 0.  1.
         13    1    4    4    0    0 -0.76346998420E+01  0.30681011610E+02 -0.11934745605E+03  0.12346427977E+03  0.00000000000E+00 0. -1.
         21    1    1    2  503  502 -0.31079447458E+02 -0.27326813806E+02 -0.81981913804E+02  0.91835292769E+02  0.00000000000E+00 0.  1.
          2    1    1    2  501    0  0.60737533676E+01  0.33777761433E+02 -0.25851746047E+03  0.26078555369E+03  0.00000000000E+00 0. -1.
<scales pt_clust_5="13000.00000" pt_clust_6="13000.00000" pt_clust_7="13000.00000" pt_clust_8="13000.00000" pt_clust_9="38.21999" pt_clust_10="34.31949"></scales>
<clustering>
<clus scale="   34.319">  2 10  1 -1</clus>
<clus scale="   38.220">  2  9  1 -1</clus>
<clus scale="   86.295">  5  6 -1 -1</clus>
<clus scale="   93.789">  7  8 -1 -1</clus>
<clus scale="  275.070">  1  5  2 -1</clus>
<clus scale="   34.319">  2  5  1 -1</clus>
</clustering>
</event>
<event>
10    2  0.2421970E-006  0.1266175E+03  0.7546771E-02  0.1233987E+00
         21   -1    0    0  503  502  0.00000000000E+00  0.00000000000E+00  0.54785943487E+03  0.54785943487E+03  0.00000000000E+00 0.  1.
          3   -1    0    0  502    0 -0.00000000000E+00 -0.00000000000E+00 -0.73173956781E+02  0.73173956781E+02  0.00000000000E+00 0. -1.
         23    2    1    2    0    0 -0.42581367480E+02  0.51084316507E+02  0.10536154593E+03  0.15783024312E+03  0.96884209399E+02 0.  0.
         23    2    1    2    0    0  0.13765491117E+03  0.73146674495E+00  0.23889549336E+03  0.29068207443E+03  0.92063032949E+02 0.  0.
        -11    1    4    4    0    0  0.72349417767E+02 -0.40539138436E+01  0.20399172086E+03  0.21647977884E+03  0.00000000000E+00 0.  1.
         11    1    4    4    0    0  0.65305493404E+02  0.47853805886E+01  0.34903772501E+02  0.74202295591E+02  0.00000000000E+00 0. -1.
        -11    1    3    3    0    0 -0.46944257636E+02 -0.14171077370E+02  0.63297949314E+02  0.80070051493E+02  0.00000000000E+00 0. -1.
         11    1    3    3    0    0  0.43628901555E+01  0.65255393877E+02  0.42063596619E+02  0.77760191622E+02  0.00000000000E+00 0.  1.
         21    1    1    2  503  501 -0.56473054786E+02 -0.39024215231E+02  0.10183170632E+03  0.12280794642E+03  0.00000000000E+00 0. -1.
          3    1    1    2  501    0 -0.38600488905E+02 -0.12791568021E+02  0.28596732482E+02  0.49713127691E+02  0.00000000000E+00 0. -1.
<scales pt_clust_5="13000.00000" pt_clust_6="13000.00000" pt_clust_7="13000.00000" pt_clust_8="13000.00000" pt_clust_9="24.67862" pt_clust_10="112.92456"></scales>
<clustering>
<clus scale="   24.679">  9 10 -1 -1</clus>
<clus scale="   92.063">  5  6 -1 -1</clus>
<clus scale="   96.884">  7  8 -1 -1</clus>
<clus scale="  112.925">  1  9  2 -1</clus>
<clus scale="  122.968">  1  5  2 -1</clus>
<clus scale="  112.925">  1  5  2 -1</clus>
</clustering>
</event>
<event>
10    2  0.2421970E-006  0.9227816E+02  0.7546771E-02  0.1297645E+00
         -1   -1    0    0    0  501 -0.00000000000E+00  0.00000000000E+00  0.23256195420E+02  0.23256195420E+02  0.00000000000E+00 0.  1.
         21   -1    0    0  503  502  0.00000000000E+00 -0.00000000000E+00 -0.13962563776E+04  0.13962563776E+04  0.00000000000E+00 0. -1.
         23    2    1    2    0    0  0.13740948278E+01  0.75264575520E+01 -0.15447170153E+03  0.17860253363E+03  0.89324256202E+02 0.  0.
         23    2    1    2    0    0  0.16987515199E+02 -0.61242424587E+02 -0.47355910187E+03  0.48615319163E+03  0.89707817563E+02 0.  0.
        -11    1    3    3    0    0 -0.11404390171E+02  0.41588882750E+02 -0.41237706527E+02  0.59667777930E+02  0.00000000000E+00 0.  1.
         11    1    3    3    0    0  0.12778484999E+02 -0.34062425198E+02 -0.11323399501E+03  0.11893475570E+03  0.00000000000E+00 0. -1.
        -13    1    4    4    0    0 -0.13139982119E+02 -0.75472324483E+02 -0.32657854806E+03  0.33544340647E+03  0.00000000000E+00 0.  1.
         13    1    4    4    0    0  0.30127497318E+02  0.14229899896E+02 -0.14698055381E+03  0.15070978516E+03  0.00000000000E+00 0. -1.
         21    1    1    2  503  501  0.43742256520E+02  0.91342518616E+01 -0.28152479927E+03  0.28504917499E+03  0.00000000000E+00 0. -1.
         -1    1    1    2    0  502 -0.62103866546E+02  0.44581715173E+02 -0.46344457947E+03  0.46970767271E+03  0.00000000000E+00 0.  1.
<scales pt_clust_5="13000.00000" pt_clust_6="13000.00000" pt_clust_7="13000.00000" pt_clust_8="13000.00000" pt_clust_9="44.68579" pt_clust_10="65.26189"></scales>
<clustering>
<clus scale="   44.686">  2  9  1 -1</clus>
<clus scale="   65.262">  2 10  1 -1</clus>
<clus scale="   89.324">  5  6 -1 -1</clus>
<clus scale="   89.708">  7  8 -1 -1</clus>
<clus scale="   91.905">  1  5  2 -1</clus>
<clus scale="   44.686">  2  5  1 -1</clus>
</clustering>
</event>
<event>
10    2  0.2421970E-006  0.1342660E+03  0.7546771E-02  0.1225826E+00
         -1   -1    0    0    0  501 -0.00000000000E+00  0.00000000000E+00  0.41726099015E+03  0.41726099015E+03  0.00000000000E+00 0.  1.
         21   -1    0    0  503  502  0.00000000000E+00 -0.00000000000E+00 -0.96723299429E+02  0.96723299429E+02  0.00000000000E+00 0.  1.
         23    2    1    2    0    0  0.13939456449E+02  0.60572473185E+02  0.19004782390E+03  0.22681498180E+03  0.10706786468E+03 0.  0.
         23    2    1    2    0    0 -0.60834128176E+02 -0.11526234542E+03  0.92628131480E+02  0.18412180135E+03  0.91294400531E+02 0.  0.
        -13    1    3    3    0    0 -0.47014105753E+02  0.26072919208E+02  0.83192339541E+02  0.99050939491E+02  0.00000000000E+00 0. -1.
         13    1    3    3    0    0  0.60953562202E+02  0.34499553976E+02  0.10685548435E+03  0.12776404231E+03  0.00000000000E+00 0.  1.
        -13    1    4    4    0    0  0.17306092139E+02 -0.17023997262E+02  0.42525253784E+02  0.48966463190E+02  0.00000000000E+00 0. -1.
         13    1    4    4    0    0 -0.78140220315E+02 -0.98238348162E+02  0.50102877695E+02  0.13515533816E+03  0.00000000000E+00 0.  1.
         21    1    1    2  503  501  0.12294553869E+02  0.46040424617E+02 -0.42731038981E+01  0.47844917919E+02  0.00000000000E+00 0.  1.
         -1    1    1    2    0  502  0.34600117858E+02  0.86494476223E+01  0.42134839241E+02  0.55202588507E+02  0.00000000000E+00 0.  1.
<scales pt_clust_5="13000.00000" pt_clust_6="13000.00000" pt_clust_7="13000.00000" pt_clust_8="13000.00000" pt_clust_9="53.41361" pt_clust_10="35.66486"></scales>
<clustering>
<clus scale="   35.665">  2 10  1 -1</clus>
<clus scale="   53.414">  2  9  1 -1</clus>
<clus scale="   91.294">  7  8 -1 -1</clus>
<clus scale="  107.068">  5  6 -1 -1</clus>
<clus scale="  122.059">  2  7  1 -1</clus>
<clus scale="   35.665">  2  5  1 -1</clus>
</clustering>
</event>
<event>
10    2  0.2421970E-006  0.9810025E+02  0.7546771E-02  0.1284904E+00
          1   -1    0    0  503    0 -0.00000000000E+00  0.00000000000E+00  0.24893700464E+03  0.24893700464E+03  0.00000000000E+00 0. -1.
         21   -1    0    0  501  502  0.00000000000E+00 -0.00000000000E+00 -0.23984815885E+03  0.23984815885E+03  0.00000000000E+00 0. -1.
         23    2    1    2    0    0  0.38257739217E+02 -0.87960886861E+01  0.17241999943E+03  0.19839037133E+03  0.89939187505E+02 0.  0.
         23    2    1    2    0    0 -0.13160633443E+02  0.39381130868E+02 -0.81857176897E+01  0.10041005337E+03  0.91055461685E+02 0.  0.
        -11    1    4    4    0    0 -0.35918187149E+02  0.33216249015E+02  0.28635352496E+02  0.56687024787E+02  0.00000000000E+00 0.  1.
         11    1    4    4    0    0  0.22757553706E+02  0.61648818535E+01 -0.36821070185E+02  0.43723028584E+02  0.00000000000E+00 0. -1.
        -11    1    3    3    0    0  0.43294910950E+02  0.33351340243E+02  0.82565338468E+02  0.99014121854E+02  0.00000000000E+00 0. -1.
         11    1    3    3    0    0 -0.50371717323E+01 -0.42147428930E+02  0.89854660961E+02  0.99376249481E+02  0.00000000000E+00 0.  1.
         21    1    1    2  503  502 -0.24037615565E+02  0.20856964897E+02 -0.62273195244E+01  0.32428374231E+02  0.00000000000E+00 0. -1.
          1    1    1    2  501    0 -0.10594902093E+01 -0.51442007080E+02 -0.14891811642E+03  0.15755636455E+03  0.00000000000E+00 0. -1.
<scales pt_clust_5="13000.00000" pt_clust_6="13000.00000" pt_clust_7="13000.00000" pt_clust_8="13000.00000" pt_clust_9="31.82483" pt_clust_10="40.99672"></scales>
<clustering>
<clus scale="   31.825">  2  9  1 -1</clus>
<clus scale="   40.997">  2 10  1 -1</clus>
<clus scale="   89.939">  7  8 -1 -1</clus>
<clus scale="   91.055">  5  6 -1 -1</clus>
<clus scale="   97.065">  1  7  2 -1</clus>
<clus scale="   31.825">  2  5  1 -1</clus>
</clustering>
</event>
<event>
10    2  0.2421970E-006  0.2875630E+03  0.7546771E-02  0.1091673E+00
         -3   -1    0    0    0  501 -0.00000000000E+00  0.00000000000E+00  0.13820493971E+03  0.13820493971E+03  0.00000000000E+00 0.  1.
         21   -1    0    0  501  502  0.00000000000E+00 -0.00000000000E+00 -0.20271196648E+04  0.20271196648E+04  0.00000000000E+00 0.  1.
         23    2    1    2    0    0  0.29784062855E+03  0.91804427531E+01 -0.15074171051E+03  0.34647627905E+03  0.92354903039E+02 0.  0.
         23    2    1    2    0    0 -0.17773234404E+03 -0.19338373863E+03 -0.64788009921E+03  0.70530740416E+03  0.93401578810E+02 0.  0.
        -13    1    4    4    0    0 -0.77228765423E+02 -0.23346431683E+02 -0.20883194352E+03  0.22387523024E+03  0.00000000000E+00 0. -1.
         13    1    4    4    0    0 -0.10050357862E+03 -0.17003730695E+03 -0.43904815569E+03  0.48143217392E+03  0.00000000000E+00 0.  1.
        -13    1    3    3    0    0  0.97413960516E+02  0.85373781513E+01 -0.99700496814E+02  0.13965155063E+03  0.00000000000E+00 0. -1.
         13    1    3    3    0    0  0.20042666803E+03  0.64306460177E+00 -0.51041213698E+02  0.20682472842E+03  0.00000000000E+00 0.  1.
         21    1    1    2  503  502 -0.31318949381E+02  0.41181856441E+02 -0.16054056260E+03  0.16867155697E+03  0.00000000000E+00 0. -1.
         -3    1    1    2    0  503 -0.88789335123E+02  0.14302143944E+03 -0.92975235271E+03  0.94486936428E+03  0.00000000000E+00 0.  1.
<scales pt_clust_5="13000.00000" pt_clust_6="13000.00000" pt_clust_7="13000.00000" pt_clust_8="13000.00000" pt_clust_9="29.74041" pt_clust_10="226.35093"></scales>
<clustering>
<clus scale="   29.740">  9 10 -1 -1</clus>
<clus scale="   92.355">  7  8 -1 -1</clus>
<clus scale="   93.402">  5  6 -1 -1</clus>
<clus scale="  226.351">  2  9  1 -1</clus>
<clus scale="  287.225">  1  7  2 -1</clus>
<clus scale="  226.351">  2  5  1 -1</clus>
</clustering>
</event>
<event>
10    2  0.2421970E-006  0.1330926E+03  0.7546771E-02  0.1240083E+00
         21   -1    0    0  503  502  0.00000000000E+00  0.00000000000E+00  0.69743900258E+02  0.69743900258E+02  0.00000000000E+00 0. -1.
          2   -1    0    0  502    0 -0.00000000000E+00 -0.00000000000E+00 -0.55726817921E+03  0.55726817921E+03  0.00000000000E+00 0. -1.
         23    2    1    2    0    0 -0.25895261566E+02  0.28905532049E+01 -0.13046634234E+03  0.16050653742E+03  0.89788430215E+02 0.  0.
         23    2    1    2    0    0  0.52501997916E+01 -0.10060045880E+03 -0.33319680801E+03  0.35912597147E+03  0.88336479496E+02 0.  0.
        -11    1    3    3    0    0 -0.22173640892E+01 -0.36162331643E+02 -0.97971071389E+02  0.10445554922E+03  0.00000000000E+00 0. -1.
         11    1    3    3    0    0 -0.23677897477E+02  0.39052884848E+02 -0.32495270953E+02  0.56050988200E+02  0.00000000000E+00 0.  1.
        -11    1    4    4    0    0  0.32957120730E+02 -0.33879334505E+02 -0.59140887322E+02  0.75707500728E+02  0.00000000000E+00 0.  1.
         11    1    4    4    0    0 -0.27706920938E+02 -0.66721124290E+02 -0.27405592068E+03  0.28341847074E+03  0.00000000000E+00 0. -1.
         21    1    1    2  503  501  0.77041049946E+01  0.44367428383E+02 -0.26814665376E+02  0.52410382695E+02  0.00000000000E+00 0. -1.
          2    1    1    2  501    0  0.12940956780E+02  0.53342477207E+02  0.29535367756E+01  0.54969187883E+02  0.00000000000E+00 0. -1.
<scales pt_clust_5="13000.00000" pt_clust_6="13000.00000" pt_clust_7="13000.00000" pt_clust_8="13000.00000" pt_clust_9="28.46405" pt_clust_10="104.39295"></scales>
<clustering>
<clus scale="   28.464">  9 10 -1 -1</clus>
<clus scale="   88.336">  7  8 -1 -1</clus>
<clus scale="   89.788">  5  6 -1 -1</clus>
<clus scale="   93.493">  2  5  1 -1</clus>
<clus scale="  104.393">  1  9  2 -1</clus>
<clus scale="  104.393">  1  5  2 -1</clus>
</clustering>
</event>
<event>
10    2  0.2421970E-006  0.3980847E+03  0.7546771E-02  0.1096527E+00
         21   -1    0    0  501  502  0.00000000000E+00  0.00000000000E+00  0.10758146779E+04  0.10758146779E+04  0.00000000000E+00 0. -1.
          2   -1    0    0  503    0 -0.00000000000E+00 -0.00000000000E+00 -0.51599490898E+03  0.51599490898E+03  0.00000000000E+00 0. -1.
         23    2    1    2    0    0  0.11916835401E+02  0.32452156860E+02  0.10598193523E+03  0.14254363763E+03  0.88833352887E+02 0.  0.
         23    2    1    2    0    0 -0.26046611125E+03 -0.45075852982E+02 -0.19573419169E+03  0.34144939995E+03  0.91659103733E+02 0.  0.
        -11    1    4    4    0    0 -0.11390873533E+03 -0.38406019727E+02 -0.13995878003E+03  0.18449575183E+03  0.00000000000E+00 0.  1.
         11    1    4    4    0    0 -0.14655737592E+03 -0.66698332556E+01 -0.55775411658E+02  0.15695364812E+03  0.00000000000E+00 0. -1.
        -13    1    3    3    0    0  0.45402949584E+02  0.33975902118E+02  0.87489683294E+02  0.10426041645E+03  0.00000000000E+00 0.  1.
         13    1    3    3    0    0 -0.33486114183E+02 -0.15237452582E+01  0.18492251931E+02  0.38283221183E+02  0.00000000000E+00 0. -1.
         21    1    1    2  503  502  0.38465002515E+02  0.40014525752E+03  0.50167352588E+03  0.64286243482E+03  0.00000000000E+00 0. -1.
          2    1    1    2  501    0  0.21008427333E+03 -0.38752156139E+03  0.14789849954E+03  0.46495411453E+03  0.00000000000E+00 0. -1.
<scales pt_clust_5="13000.00000" pt_clust_6="13000.00000" pt_clust_7="13000.00000" pt_clust_8="13000.00000" pt_clust_9="13000.00000" pt_clust_10="398.08468"></scales>
<clustering>
<clus scale="   88.833">  7  8 -1 -1</clus>
<clus scale="   91.659">  5  6 -1 -1</clus>
<clus scale="   95.323">  2  7  1 -1</clus>
<clus scale="  271.468">  2  5  1 -1</clus>
<clus scale="  398.085">  2 10  1 -1</clus>
<clus scale="  398.085">  1  5  2 -1</clus>
</clustering>
</event>
<event>
10    2  0.2421970E-006  0.9761440E+02  0.7546771E-02  0.1286935E+00
          1   -1    0    0  503    0 -0.00000000000E+00  0.00000000000E+00  0.70694779032E+03  0.70694779032E+03  0.00000000000E+00 0. -1.
         21   -1    0    0  501  502  0.00000000000E+00 -0.00000000000E+00 -0.80596240816E+02  0.80596240816E+02  0.00000000000E+00 0. -1.
         23    2    1    2    0    0 -0.17639581286E+01  0.13840055382E+02  0.18968614089E+03  0.20985401418E+03  0.88674779636E+02 0.  0.
         23    2    1    2    0    0 -0.17571509419E+01  0.12541152871E+02  0.77309313717E+01  0.92848874713E+02  0.91655758907E+02 0.  0.
        -11    1    4    4    0    0 -0.24705054021E+02  0.18534953850E+02 -0.33324005152E+02  0.45435377491E+02  0.00000000000E+00 0. -1.
         11    1    4    4    0    0  0.22947903079E+02 -0.59938009786E+01  0.41054936524E+02  0.47413497222E+02  0.00000000000E+00 0.  1.
        -11    1    3    3    0    0  0.23157891458E+02  0.19062678873E+02  0.18020305346E+03  0.18268227647E+03  0.00000000000E+00 0.  1.
         11    1    3    3    0    0 -0.24921849587E+02 -0.52226234905E+01  0.94830874289E+01  0.27171737709E+02  0.00000000000E+00 0. -1.
         21    1    1    2  503  502 -0.73683548632E+02  0.42959471779E+02  0.33219814258E+03  0.34297286699E+03  0.00000000000E+00 0. -1.
          1    1    1    2  501    0  0.77204657703E+02 -0.69340680033E+02  0.96736334663E+02  0.14186827525E+03  0.00000000000E+00 0. -1.
<scales pt_clust_5="13000.00000" pt_clust_6="13000.00000" pt_clust_7="13000.00000" pt_clust_8="13000.00000" pt_clust_9="85.29233" pt_clust_10="76.99666"></scales>
<clustering>
<clus scale="   85.292">  1  9  2 -1</clus>
<clus scale="   76.997">  2 10  1 -1</clus>
<clus scale="   88.675">  7  8 -1 -1</clus>
<clus scale="   91.656">  5  6 -1 -1</clus>
<clus scale="   94.821">  1  7  2 -1</clus>
<clus scale="   76.997">  2  5  1 -1</clus>
</clustering>
</event>
<event>
10    2  0.2633469E-006  0.1917271E+03  0.7546771E-02  0.1164605E+00
          2   -1    0    0  503    0 -0.00000000000E+00  0.00000000000E+00  0.83982307112E+03  0.83982307112E+03  0.00000000000E+00 0. -1.
         21   -1    0    0  501  502  0.00000000000E+00 -0.00000000000E+00 -0.28120890462E+03  0.28120890462E+03  0.00000000000E+00 0. -1.
         23    2    1    2    0    0  0.11222987972E+03 -0.72803687930E+02  0.53735131233E+03  0.56070508738E+03  0.88021811371E+02 0.  0.
         23    2    1    2    0    0 -0.77864021990E+02 -0.10340788434E+03  0.18641764754E+03  0.24494030920E+03  0.92131532555E+02 0.  0.
        -11    1    4    4    0    0 -0.63730865613E+02 -0.12236953071E+02  0.95081158517E+02  0.11511643218E+03  0.00000000000E+00 0.  1.
         11    1    4    4    0    0 -0.14133156378E+02 -0.91170931267E+02  0.91336489022E+02  0.12982387702E+03  0.00000000000E+00 0. -1.
        -13    1    3    3    0    0  0.27212863216E+02  0.19936228011E+02  0.95073466323E+02  0.10088090558E+03  0.00000000000E+00 0.  1.
         13    1    3    3    0    0  0.85017016504E+02 -0.92739915941E+02  0.44227784601E+03  0.45982418180E+03  0.00000000000E+00 0. -1.
         21    1    1    2  503  502 -0.20125680232E+02 -0.39933321670E+02 -0.30298090308E+01  0.44820675219E+02  0.00000000000E+00 0. -1.
          2    1    1    2  501    0 -0.14240177498E+02  0.21614489394E+03 -0.16212498434E+03  0.27056590394E+03  0.00000000000E+00 0. -1.
<scales pt_clust_5="13000.00000" pt_clust_6="13000.00000" pt_clust_7="13000.00000" pt_clust_8="13000.00000" pt_clust_9="44.71815" pt_clust_10="168.14004"></scales>
<clustering>
<clus scale="   44.718">  2  9  1 -1</clus>
<clus scale="   88.022">  7  8 -1 -1</clus>
<clus scale="   92.132">  5  6 -1 -1</clus>
<clus scale="  160.333">  1  7  2 -1</clus>
<clus scale="  168.140">  2 10  1 -1</clus>
<clus scale="   44.718">  2  5  1 -1</clus>
</clustering>
</event>
<event>
10    2  0.2421970E-006  0.9396340E+02  0.7546771E-02  0.1293717E+00
         21   -1    0    0  501  502  0.00000000000E+00  0.00000000000E+00  0.25748152257E+03  0.25748152257E+03  0.00000000000E+00 0.  1.
          1   -1    0    0  503    0 -0.00000000000E+00 -0.00000000000E+00 -0.48500954605E+03  0.48500954605E+03  0.00000000000E+00 0. -1.
         23    2    1    2    0    0  0.24025290404E+02  0.86338298485E+01 -0.39981484133E+03  0.41068946775E+03  0.90344750677E+02 0.  0.
         23    2    1    2    0    0 -0.19831360622E+02 -0.24120767179E+02 -0.40000074603E+02  0.10332186338E+03  0.90001706714E+02 0.  0.
        -11    1    3    3    0    0  0.21934311325E+02 -0.38469253609E+02 -0.14738032580E+03  0.15388943408E+03  0.00000000000E+00 0.  1.
         11    1    3    3    0    0  0.20909790795E+01  0.47103083457E+02 -0.25243451553E+03  0.25680003367E+03  0.00000000000E+00 0. -1.
        -13    1    4    4    0    0 -0.12660544842E+02  0.16327572277E+02 -0.55650829896E+02  0.59362394496E+02  0.00000000000E+00 0. -1.
         13    1    4    4    0    0 -0.71708157807E+01 -0.40448339456E+02  0.15650755293E+02  0.43959468888E+02  0.00000000000E+00 0.  1.
         21    1    1    2  503  502  0.30338881285E+02  0.33658197174E+02  0.10732086939E+03  0.11649502548E+03  0.00000000000E+00 0.  1.
          1    1    1    2  501    0 -0.34532811066E+02 -0.18171259844E+02  0.10496602307E+03  0.11198471201E+03  0.00000000000E+00 0. -1.
<scales pt_clust_5="13000.00000" pt_clust_6="13000.00000" pt_clust_7="13000.00000" pt_clust_8="13000.00000" pt_clust_9="20.48988" pt_clust_10="39.02191"></scales>
<clustering>
<clus scale="   39.022">  1 10  2 -1</clus>
<clus scale="   20.490">  1  9  2 -1</clus>
<clus scale="   90.002">  7  8 -1 -1</clus>
<clus scale="   90.345">  5  6 -1 -1</clus>
<clus scale="   93.634">  1  7  2 -1</clus>
<clus scale="   39.022">  1  5  2 -1</clus>
</clustering>
</event>
<event>
10    2  0.2421970E-006  0.1383859E+03  0.7546771E-02  0.1232530E+00
         21   -1    0    0  503  502  0.00000000000E+00  0.00000000000E+00  0.52580275210E+02  0.52580275210E+02  0.00000000000E+00 0. -1.
          3   -1    0    0  502    0 -0.00000000000E+00 -0.00000000000E+00 -0.84095642592E+03  0.84095642592E+03  0.00000000000E+00 0. -1.
         23    2    1    2    0    0  0.31929170044E+02  0.11592275127E+02 -0.33917954549E+03  0.35279094188E+03  0.90911120590E+02 0.  0.
         23    2    1    2    0    0 -0.44751817885E+02  0.95002974761E+02 -0.96176904465E+02  0.16879976583E+03  0.90637043064E+02 0.  0.
        -11    1    3    3    0    0  0.43728862298E+01  0.48588076400E+02 -0.13734458763E+03  0.14575136039E+03  0.00000000000E+00 0.  1.
         11    1    3    3    0    0  0.27556283814E+02 -0.36995801274E+02 -0.20183495786E+03  0.20703958149E+03  0.00000000000E+00 0. -1.
        -13    1    4    4    0    0 -0.42070330859E+02 -0.14047812355E+01 -0.33244273745E+02  0.53638306141E+02  0.00000000000E+00 0.  1.
         13    1    4    4    0    0 -0.26814870263E+01  0.96407755997E+02 -0.62932630720E+02  0.11516145969E+03  0.00000000000E+00 0. -1.
         21    1    1    2  503  501  0.19394553931E+02 -0.18404434339E+02 -0.56270902351E+02  0.62299970922E+02  0.00000000000E+00 0. -1.
          3    1    1    2  501    0 -0.65719060902E+01 -0.88190815549E+02 -0.29674879840E+03  0.30964602250E+03  0.00000000000E+00 0. -1.
<scales pt_clust_5="13000.00000" pt_clust_6="13000.00000" pt_clust_7="13000.00000" pt_clust_8="13000.00000" pt_clust_9="25.75473" pt_clust_10="114.58424"></scales>
<clustering>
<clus scale="   25.755">  9 10 -1 -1</clus>
<clus scale="   90.637">  7  8 -1 -1</clus>
<clus scale="   90.911">  5  6 -1 -1</clus>
<clus scale="   97.050">  2  5  1 -1</clus>
<clus scale="  114.584">  1  9  2 -1</clus>
<clus scale="  114.584">  1  5  2 -1</clus>
</clustering>
</event>
<event>
10    2  0.2421970E-006  0.3504218E+03  0.7546771E-02  0.1062497E+00
         21   -1    0    0  503  502  0.00000000000E+00  0.00000000000E+00  0.37124879399E+03  0.37124879399E+03  0.00000000000E+00 0.  1.
          1   -1    0    0  502    0 -0.00000000000E+00 -0.00000000000E+00 -0.74531743546E+03  0.74531743546E+03  0.00000000000E+00 0. -1.
         23    2    1    2    0    0  0.29803924268E+02  0.24512975323E+03 -0.72093293971E+02  0.27257793893E+03  0.90135564205E+02 0.  0.
         23    2    1    2    0    0  0.10114336150E+03 -0.43970725130E+03 -0.35595944687E+03  0.58205026637E+03  0.92211378632E+02 0.  0.
        -11    1    4    4    0    0  0.86080481219E+02 -0.41930142769E+03 -0.30649544612E+03  0.52646271948E+03  0.00000000000E+00 0.  1.
         11    1    4    4    0    0  0.15062880277E+02 -0.20405823608E+02 -0.49464000749E+02  0.55587546892E+02  0.00000000000E+00 0. -1.
        -13    1    3    3    0    0  0.46334475360E+02  0.13058402432E+03 -0.46727681702E+01  0.13863948130E+03  0.00000000000E+00 0.  1.
         13    1    3    3    0    0 -0.16530551093E+02  0.11454572891E+03 -0.67420525801E+02  0.13393845762E+03  0.00000000000E+00 0. -1.
         21    1    1    2  503  501 -0.57566383545E+02  0.15865651744E+02 -0.50579173573E+01  0.59926537926E+02  0.00000000000E+00 0. -1.
          1    1    1    2  501    0 -0.73380902218E+02  0.17871184632E+03  0.59042016728E+02  0.20201148622E+03  0.00000000000E+00 0. -1.
<scales pt_clust_5="13000.00000" pt_clust_6="13000.00000" pt_clust_7="13000.00000" pt_clust_8="13000.00000" pt_clust_9="57.48069" pt_clust_10="256.31474"></scales>
<clustering>
<clus scale="   57.481">  9 10 -1 -1</clus>
<clus scale="   90.136">  7  8 -1 -1</clus>
<clus scale="   92.211">  5  6 -1 -1</clus>
<clus scale="  256.315">  1  9  2 -1</clus>
<clus scale="  349.881">  2  7  1 -1</clus>
<clus scale="  256.315">  1  5  2 -1</clus>
</clustering>
</event>
<event>
10    2  0.2421970E-006  0.1326317E+03  0.7546771E-02  0.1225845E+00
          2   -1    0    0  502    0 -0.00000000000E+00  0.00000000000E+00  0.45101446850E+03  0.45101446850E+03  0.00000000000E+00 0. -1.
         21   -1    0    0  503  502  0.00000000000E+00 -0.00000000000E+00 -0.71712345290E+02  0.71712345290E+02  0.00000000000E+00 0.  1.
         23    2    1    2    0    0 -0.34006322270E+02  0.10592151934E+03  0.22538000533E+03  0.26691663419E+03  0.89847340491E+02 0.  0.
         23    2    1    2    0    0  0.24443106837E+02 -0.54129657505E+02  0.88309022116E+02  0.14480264246E+03  0.98192854035E+02 0.  0.
        -11    1    4    4    0    0 -0.23377183281E+02 -0.78074855079E+00 -0.80421757956E+01  0.24734163782E+02  0.00000000000E+00 0.  1.
         11    1    4    4    0    0  0.47820290118E+02 -0.53348908954E+02  0.96351197912E+02  0.12006847868E+03  0.00000000000E+00 0. -1.
        -13    1    3    3    0    0 -0.45113203750E+02  0.69262969063E+02  0.20992391619E+03  0.22561163672E+03  0.00000000000E+00 0.  1.
         13    1    3    3    0    0  0.11106881480E+02  0.36658550274E+02  0.15456089136E+02  0.41304997467E+02  0.00000000000E+00 0. -1.
         21    1    1    2  503  501 -0.31234889016E+02 -0.15773041015E+02  0.28578548988E+02  0.45178983797E+02  0.00000000000E+00 0.  1.
          2    1    1    2  501    0  0.40798104450E+02 -0.36018820817E+02  0.37034546779E+02  0.65828553340E+02  0.00000000000E+00 0. -1.
<scales pt_clust_5="13000.00000" pt_clust_6="13000.00000" pt_clust_7="13000.00000" pt_clust_8="13000.00000" pt_clust_9="34.99153" pt_clust_10="52.00275"></scales>
<clustering>
<clus scale="   34.992">  2  9  1 -1</clus>
<clus scale="   52.003">  2 10  1 -1</clus>
<clus scale="   89.847">  7  8 -1 -1</clus>
<clus scale="   98.193">  5  6 -1 -1</clus>
<clus scale="  126.578">  1  7  2 -1</clus>
<clus scale="   34.992">  2  5  1 -1</clus>
</clustering>
</event>
<event>
10    2  0.2421970E-006  0.9984592E+02  0.7546771E-02  0.1284308E+00
         21   -1    0    0  501  502  0.00000000000E+00  0.00000000000E+00  0.90325103960E+03  0.90325103960E+03  0.00000000000E+00 0. -1.
          1   -1    0    0  503    0 -0.00000000000E+00 -0.00000000000E+00 -0.36782733735E+02  0.36782733735E+02  0.00000000000E+00 0. -1.
         23    2    1    2    0    0  0.37459024413E+02  0.37924388239E+02  0.66721876142E+02  0.11926706874E+03  0.83254952984E+02 0.  0.
         23    2    1    2    0    0  0.28125056614E+02 -0.15607642960E+02  0.37860515316E+03  0.39065143433E+03  0.90730721439E+02 0.  0.
        -11    1    4    4    0    0 -0.37016335729E+01 -0.45118231232E+02  0.11667406934E+03  0.12514869291E+03  0.00000000000E+00 0.  1.
         11    1    4    4    0    0  0.31826690187E+02  0.29510588272E+02  0.26193108382E+03  0.26550274141E+03  0.00000000000E+00 0. -1.
        -13    1    3    3    0    0  0.22925098477E+02 -0.24597503588E+02  0.14934076252E+02  0.36791628890E+02  0.00000000000E+00 0.  1.
         13    1    3    3    0    0  0.14533925936E+02  0.62521891827E+02  0.51787799890E+02  0.82475439848E+02  0.00000000000E+00 0. -1.
         21    1    1    2  503  502 -0.28985875953E+02  0.16933985801E+02  0.14934102546E+03  0.15306757581E+03  0.00000000000E+00 0. -1.
          1    1    1    2  501    0 -0.36598205073E+02 -0.39250731081E+02  0.27180025110E+03  0.27704769446E+03  0.00000000000E+00 0. -1.
<scales pt_clust_5="13000.00000" pt_clust_6="13000.00000" pt_clust_7="13000.00000" pt_clust_8="13000.00000" pt_clust_9="33.56994" pt_clust_10="57.61271"></scales>
<clustering>
<clus scale="   33.570">  1  9  2 -1</clus>
<clus scale="   57.613">  1 10  2 -1</clus>
<clus scale="   83.255">  7  8 -1 -1</clus>
<clus scale="   90.731">  5  6 -1 -1</clus>
<clus scale="   93.105">  2  7  1 -1</clus>
<clus scale="   33.570">  1  5  2 -1</clus>
</clustering>
</event>
<event>
10    2  0.2421970E-006  0.2137617E+03  0.7546771E-02  0.1157688E+00
          1   -1    0    0  502    0 -0.00000000000E+00  0.00000000000E+00  0.39282740023E+03  0.39282740023E+03  0.00000000000E+00 0. -1.
         21   -1    0    0  503  502  0.00000000000E+00 -0.00000000000E+00 -0.52744973825E+03  0.52744973825E+03  0.00000000000E+00 0. -1.
         23    2    1    2    0    0  0.11878463881E+02  0.98866380822E+02  0.93436661355E+02  0.16488266316E+03  0.92413331097E+02 0.  0.
         23    2    1    2    0    0 -0.20379565246E+03 -0.10316278090E+03  0.17782969220E+03  0.30347036848E+03  0.91080391936E+02 0.  0.
        -11    1    3    3    0    0 -0.29388565195E+02  0.88025789912E+02  0.69661506074E+02  0.11603858359E+03  0.00000000000E+00 0.  1.
         11    1    3    3    0    0  0.41267029076E+02  0.10840590909E+02  0.23775155280E+02  0.48844079565E+02  0.00000000000E+00 0. -1.
        -13    1    4    4    0    0 -0.35784963733E+02 -0.10179405790E+02 -0.59443019256E+01  0.37676500063E+02  0.00000000000E+00 0.  1.
         13    1    4    4    0    0 -0.16801068873E+03 -0.92983375112E+02  0.18377399412E+03  0.26579386842E+03  0.00000000000E+00 0. -1.
         21    1    1    2  503  501  0.64717562560E+02  0.19691004003E+02 -0.17901627656E+03  0.19137117289E+03  0.00000000000E+00 0. -1.
          1    1    1    2  501    0  0.12719962602E+03 -0.15394603924E+02 -0.22687241502E+03  0.26055293394E+03  0.00000000000E+00 0. -1.
<scales pt_clust_5="13000.00000" pt_clust_6="13000.00000" pt_clust_7="13000.00000" pt_clust_8="13000.00000" pt_clust_9="37.32761" pt_clust_10="200.09378"></scales>
<clustering>
<clus scale="   37.328">  9 10 -1 -1</clus>
<clus scale="   91.080">  7  8 -1 -1</clus>
<clus scale="   92.413">  5  6 -1 -1</clus>
<clus scale="  135.852">  1  5  2 -1</clus>
<clus scale="  200.094">  2  9  1 -1</clus>
<clus scale="  200.094">  2  5  1 -1</clus>
</clustering>
</event>
<event>
10    2  0.2421970E-006  0.2265849E+03  0.7546771E-02  0.1166607E+00
          2   -1    0    0  502    0 -0.00000000000E+00  0.00000000000E+00  0.56402252949E+03  0.56402252949E+03  0.00000000000E+00 0. -1.
         21   -1    0    0  503  502  0.00000000000E+00 -0.00000000000E+00 -0.32477332775E+03  0.32477332775E+03  0.00000000000E+00 0. -1.
         23    2    1    2    0    0  0.47165747044E+01  0.13029528871E+02  0.87936436040E+02  0.12781290572E+03  0.91713180006E+02 0.  0.
         23    2    1    2    0    0  0.18200228004E+03 -0.10171440890E+03  0.38072855374E+03  0.44382656029E+03  0.92504773233E+02 0.  0.
        -11    1    4    4    0    0  0.16214557051E+03 -0.97418589177E+02  0.37881883691E+03  0.42342092385E+03  0.00000000000E+00 0. -1.
         11    1    4    4    0    0  0.19856709522E+02 -0.42958197238E+01  0.19097168251E+01  0.20405636439E+02  0.00000000000E+00 0.  1.
        -11    1    3    3    0    0  0.40057864518E+02  0.24440756893E+02  0.21314925495E+02  0.51539394216E+02  0.00000000000E+00 0. -1.
         11    1    3    3    0    0 -0.35341289814E+02 -0.11411228022E+02  0.66621510544E+02  0.76273511509E+02  0.00000000000E+00 0.  1.
         21    1    1    2  503  501 -0.93702290301E+02  0.94797638395E+01 -0.12456765092E+03  0.15616364746E+03  0.00000000000E+00 0. -1.
          2    1    1    2  501    0 -0.93016564438E+02  0.79205116191E+02 -0.10484813711E+03  0.16099274377E+03  0.00000000000E+00 0. -1.
<scales pt_clust_5="13000.00000" pt_clust_6="13000.00000" pt_clust_7="13000.00000" pt_clust_8="13000.00000" pt_clust_9="63.48204" pt_clust_10="219.11462"></scales>
<clustering>
<clus scale="   63.482">  9 10 -1 -1</clus>
<clus scale="   91.713">  7  8 -1 -1</clus>
<clus scale="   92.505">  5  6 -1 -1</clus>
<clus scale="   92.754">  1  7  2 -1</clus>
<clus scale="  219.115">  2  9  1 -1</clus>
<clus scale="  219.115">  2  5  1 -1</clus>
</clustering>
</event>
<event>
10    2  0.2440578E-006  0.1587513E+03  0.7546771E-02  0.1211577E+00
          4   -1    0    0  503    0 -0.00000000000E+00  0.00000000000E+00  0.90062285116E+03  0.90062285116E+03  0.00000000000E+00 0. -1.
         21   -1    0    0  501  502  0.00000000000E+00 -0.00000000000E+00 -0.12997765277E+03  0.12997765277E+03  0.00000000000E+00 0. -1.
         23    2    1    2    0    0  0.12831958506E+02 -0.30456705923E+02  0.18780848609E+03  0.21197179605E+03  0.92562113096E+02 0.  0.
         23    2    1    2    0    0 -0.13479756276E+03  0.97147740586E+02  0.59472553676E+03  0.62381687045E+03  0.88549180452E+02 0.  0.
        -13    1    4    4    0    0 -0.73193733398E+02  0.13255925918E+02  0.15476424510E+03  0.17171200815E+03  0.00000000000E+00 0.  1.
         13    1    4    4    0    0 -0.61603829367E+02  0.83891814668E+02  0.43996129166E+03  0.45210486231E+03  0.00000000000E+00 0. -1.
        -13    1    3    3    0    0 -0.24022265727E+02  0.18209893319E+02  0.28978632386E+02  0.41814239205E+02  0.00000000000E+00 0. -1.
         13    1    3    3    0    0  0.36854224233E+02 -0.48666599242E+02  0.15882985370E+03  0.17015755685E+03  0.00000000000E+00 0.  1.
         21    1    1    2  503  502  0.91951844000E+02 -0.59881706209E+02  0.53844755616E+02  0.12223018474E+03  0.00000000000E+00 0.  1.
          4    1    1    2  501    0  0.30013760259E+02 -0.68093284535E+01 -0.65733580064E+02  0.72581652688E+02  0.00000000000E+00 0. -1.
<scales pt_clust_5="13000.00000" pt_clust_6="13000.00000" pt_clust_7="13000.00000" pt_clust_8="13000.00000" pt_clust_9="131.76123" pt_clust_10="30.77650"></scales>
<clustering>
<clus scale="   30.776">  2 10  1 -1</clus>
<clus scale="   88.549">  5  6 -1 -1</clus>
<clus scale="   92.562">  7  8 -1 -1</clus>
<clus scale="   99.663">  1  7  2 -1</clus>
<clus scale="  131.761">  2  9  1 -1</clus>
<clus scale="   30.776">  2  5  1 -1</clus>
</clustering>
</event>
<event>
10    2  0.2421970E-006  0.1669073E+03  0.7546771E-02  0.1202060E+00
         21   -1    0    0  503  502  0.00000000000E+00  0.00000000000E+00  0.19475335365E+03  0.19475335365E+03  0.00000000000E+00 0. -1.
          1   -1    0    0  502    0 -0.00000000000E+00 -0.00000000000E+00 -0.25195556636E+03  0.25195556636E+03  0.00000000000E+00 0. -1.
         23    2    1    2    0    0 -0.54538988925E+01 -0.52673784684E+02  0.42169824939E+02  0.11333486252E+03  0.90896778385E+02 0.  0.
         23    2    1    2    0    0  0.28154766337E+02 -0.11293468417E+03 -0.41946927179E+02  0.15423045943E+03  0.92089935186E+02 0.  0.
        -13    1    3    3    0    0 -0.22527999219E+02  0.17005540104E+02 -0.32693884442E+01  0.28414574497E+02  0.00000000000E+00 0.  1.
         13    1    3    3    0    0  0.17074100327E+02 -0.69679324788E+02  0.45439213383E+02  0.84920288022E+02  0.00000000000E+00 0. -1.
        -13    1    4    4    0    0 -0.28474920228E+02 -0.28039463217E+02  0.77750371864E+01  0.40712206803E+02  0.00000000000E+00 0.  1.
         13    1    4    4    0    0  0.56629686565E+02 -0.84895220948E+02 -0.49721964365E+02  0.11351825263E+03  0.00000000000E+00 0. -1.
         21    1    1    2  503  501 -0.15957452670E+02  0.62260495097E+02 -0.93057016330E+01  0.64943095309E+02  0.00000000000E+00 0.  1.
          1    1    1    2  501    0 -0.67434147750E+01  0.10334797375E+03 -0.48119408836E+02  0.11420050275E+03  0.00000000000E+00 0. -1.
<scales pt_clust_5="13000.00000" pt_clust_6="13000.00000" pt_clust_7="13000.00000" pt_clust_8="13000.00000" pt_clust_9="23.01179" pt_clust_10="142.23498"></scales>
<clustering>
<clus scale="   23.012">  9 10 -1 -1</clus>
<clus scale="   90.897">  5  6 -1 -1</clus>
<clus scale="   92.090">  7  8 -1 -1</clus>
<clus scale="  105.197">  2  5  1 -1</clus>
<clus scale="  142.235">  1  9  2 -1</clus>
<clus scale="  142.235">  1  5  2 -1</clus>
</clustering>
</event>
<event>
10    2  0.2421970E-006  0.1003844E+03  0.7546771E-02  0.1282376E+00
          2   -1    0    0  503    0 -0.00000000000E+00  0.00000000000E+00  0.17810988187E+03  0.17810988187E+03  0.00000000000E+00 0. -1.
         21   -1    0    0  501  502  0.00000000000E+00 -0.00000000000E+00 -0.28366079782E+03  0.28366079782E+03  0.00000000000E+00 0. -1.
         23    2    1    2    0    0 -0.36068023638E+02 -0.68805890460E+01  0.70211809635E+02  0.12520966494E+03  0.96951106990E+02 0.  0.
         23    2    1    2    0    0  0.98960088986E+01  0.16726463110E+02  0.47542186499E+02  0.10483634658E+03  0.91393076907E+02 0.  0.
        -11    1    3    3    0    0  0.28966505470E+02  0.80100754668E+00  0.47981209486E+02  0.56052622739E+02  0.00000000000E+00 0.  1.
         11    1    3    3    0    0 -0.65034529108E+02 -0.76815965927E+01  0.22230600149E+02  0.69157042197E+02  0.00000000000E+00 0. -1.
        -11    1    4    4    0    0 -0.23651197329E+02  0.18391352157E+02  0.61541763669E+02  0.68447130289E+02  0.00000000000E+00 0. -1.
         11    1    4    4    0    0  0.33547206228E+02 -0.16648890467E+01 -0.13999577171E+02  0.36389216290E+02  0.00000000000E+00 0.  1.
         21    1    1    2  503  502  0.26914195863E+00  0.20717706824E+02 -0.98172862769E+02  0.10033547128E+03  0.00000000000E+00 0.  1.
          2    1    1    2  501    0  0.25902872781E+02 -0.30563580888E+02 -0.12513204932E+03  0.13138919690E+03  0.00000000000E+00 0. -1.
<scales pt_clust_5="13000.00000" pt_clust_6="13000.00000" pt_clust_7="13000.00000" pt_clust_8="13000.00000" pt_clust_9="20.71945" pt_clust_10="30.68608"></scales>
<clustering>
<clus scale="   20.719">  2  9  1 -1</clus>
<clus scale="   30.686">  2 10  1 -1</clus>
<clus scale="   91.393">  7  8 -1 -1</clus>
<clus scale="   95.027">  2  7  1 -1</clus>
<clus scale="   96.951">  5  6 -1 -1</clus>
<clus scale="   20.719">  2  5  1 -1</clus>
</clustering>
</event>
<event>
10    2  0.2421970E-006  0.1711940E+03  0.7546771E-02  0.1188462E+00
          2   -1    0    0  503    0 -0.00000000000E+00  0.00000000000E+00  0.16606807643E+03  0.16606807643E+03  0.00000000000E+00 0. -1.
         21   -1    0    0  501  502  0.00000000000E+00 -0.00000000000E+00 -0.75090089754E+03  0.75090089754E+03  0.00000000000E+00 0. -1.
         23    2    1    2    0    0 -0.82516612253E+02 -0.49054859801E+02  0.67071915662E+00  0.13212706011E+03  0.90784027126E+02 0.  0.
         23    2    1    2    0    0  0.18899004739E+03  0.12280884775E+03 -0.89413444654E+02  0.25854176586E+03  0.89720842119E+02 0.  0.
        -13    1    4    4    0    0  0.33119785654E+02  0.53205436514E+02  0.60395190814E+01  0.62962008125E+02  0.00000000000E+00 0.  1.
         13    1    4    4    0    0  0.15587026173E+03  0.69603411233E+02 -0.95452963736E+02  0.19557975773E+03  0.00000000000E+00 0. -1.
        -13    1    3    3    0    0 -0.40952530196E+02 -0.32964740363E+01 -0.40630095960E+02  0.57782187292E+02  0.00000000000E+00 0. -1.
         13    1    3    3    0    0 -0.41564082057E+02 -0.45758385764E+02  0.41300815116E+02  0.74344872818E+02  0.00000000000E+00 0.  1.
         21    1    1    2  503  502  0.24812033563E+02 -0.17686767539E+02 -0.57689586870E+02  0.65242219373E+02  0.00000000000E+00 0. -1.
          2    1    1    2  501    0 -0.13128546870E+03 -0.56067220408E+02 -0.43840050873E+03  0.46105792863E+03  0.00000000000E+00 0. -1.
<scales pt_clust_5="13000.00000" pt_clust_6="13000.00000" pt_clust_7="13000.00000" pt_clust_8="13000.00000" pt_clust_9="30.47062" pt_clust_10="145.79969"></scales>
<clustering>
<clus scale="   30.471">  2  9  1 -1</clus>
<clus scale="   89.721">  5  6 -1 -1</clus>
<clus scale="   90.784">  7  8 -1 -1</clus>
<clus scale="  131.303">  1  7  2 -1</clus>
<clus scale="  145.800">  2 10  1 -1</clus>
<clus scale="   30.471">  2  5  1 -1</clus>
</clustering>
</event>
<event>
10    2  0.2421970E-006  0.2501310E+03  0.7546771E-02  0.1126923E+00
          2   -1    0    0  502    0 -0.00000000000E+00  0.00000000000E+00  0.11091960596E+04  0.11091960596E+04  0.00000000000E+00 0. -1.
         21   -1    0    0  503  502  0.00000000000E+00 -0.00000000000E+00 -0.12913276386E+03  0.12913276386E+03  0.00000000000E+00 0. -1.
         23    2    1    2    0    0  0.13313119210E+03 -0.70265564615E+02  0.11507970922E+03  0.21160014848E+03  0.94181311752E+02 0.  0.
         23    2    1    2    0    0 -0.27998132086E+02 -0.16839962608E+03  0.63082918975E+03  0.65977032692E+03  0.90604018595E+02 0.  0.
        -11    1    3    3    0    0  0.12507602563E+02 -0.53382069308E+02  0.46040188664E+02  0.71594583717E+02  0.00000000000E+00 0. -1.
         11    1    3    3    0    0  0.12062358954E+03 -0.16883495307E+02  0.69039520553E+02  0.14000556476E+03  0.00000000000E+00 0.  1.
        -11    1    4    4    0    0 -0.45070213471E+02 -0.46935713637E+02  0.29895383144E+03  0.30595371985E+03  0.00000000000E+00 0.  1.
         11    1    4    4    0    0  0.17072081385E+02 -0.12146391244E+03  0.33187535830E+03  0.35381660707E+03  0.00000000000E+00 0. -1.
         21    1    1    2  503  501 -0.14549656983E+01  0.73669183413E+02  0.12086296340E+03  0.14155253947E+03  0.00000000000E+00 0. -1.
          2    1    1    2  501    0 -0.10367809432E+03  0.16499600728E+03  0.11329143336E+03  0.22540580856E+03  0.00000000000E+00 0. -1.
<scales pt_clust_5="13000.00000" pt_clust_6="13000.00000" pt_clust_7="13000.00000" pt_clust_8="13000.00000" pt_clust_9="66.84276" pt_clust_10="66.84276"></scales>
<clustering>
<clus scale="   66.843">  9 10 -1 -1</clus>
<clus scale="   90.604">  7  8 -1 -1</clus>
<clus scale="   94.181">  5  6 -1 -1</clus>
<clus scale="  177.571">  1  5  2 -1</clus>
<clus scale="  242.814">  1  7  2 -1</clus>
<clus scale="  250.131">  2  5  1 -1</clus>
</clustering>
</event>
<event>
10    2  0.2421970E-006  0.1874430E+03  0.7546771E-02  0.1176913E+00
          1   -1    0    0  502    0 -0.00000000000E+00  0.00000000000E+00  0.31781812806E+03  0.31781812806E+03  0.00000000000E+00 0. -1.
         21   -1    0    0  503  502  0.00000000000E+00 -0.00000000000E+00 -0.30789032694E+03  0.30789032694E+03  0.00000000000E+00 0. -1.
         23    2    1    2    0    0 -0.59532297421E+01  0.91320349676E+02  0.17587994217E+03  0.21842753732E+03  0.91662357545E+02 0.  0.
         23    2    1    2    0    0  0.15944220906E+03  0.56232763868E+01 -0.98075743355E+02  0.20833538400E+03  0.91276182687E+02 0.  0.
        -11    1    4    4    0    0  0.11804150620E+03  0.12038821958E+02 -0.20841795741E+02  0.12047037341E+03  0.00000000000E+00 0. -1.
         11    1    4    4    0    0  0.41400702860E+02 -0.64155455712E+01 -0.77233947614E+02  0.87865010592E+02  0.00000000000E+00 0.  1.
        -11    1    3    3    0    0 -0.20496271241E+02 -0.12001829776E+02  0.46513771694E+02  0.52227119487E+02  0.00000000000E+00 0.  1.
         11    1    3    3    0    0  0.14543041499E+02  0.10332217945E+03  0.12936617048E+03  0.16620041783E+03  0.00000000000E+00 0. -1.
         21    1    1    2  503  501 -0.83316648972E+02 -0.72741705386E+02 -0.25618626535E+02  0.11353120154E+03  0.00000000000E+00 0. -1.
          1    1    1    2  501    0 -0.70172330346E+02 -0.24201920677E+02 -0.42257771155E+02  0.85414332132E+02  0.00000000000E+00 0. -1.
<scales pt_clust_5="13000.00000" pt_clust_6="13000.00000" pt_clust_7="13000.00000" pt_clust_8="13000.00000" pt_clust_9="36.77561" pt_clust_10="169.76086"></scales>
<clustering>
<clus scale="   36.776">  9 10 -1 -1</clus>
<clus scale="   91.276">  5  6 -1 -1</clus>
<clus scale="   91.662">  7  8 -1 -1</clus>
<clus scale="  129.525">  1  7  2 -1</clus>
<clus scale="  169.761">  2  9  1 -1</clus>
<clus scale="  169.761">  2  5  1 -1</clus>
</clustering>
</event>
<event>
10    2  0.2421970E-006  0.9920500E+02  0.7546771E-02  0.1283115E+00
         21   -1    0    0  503  502  0.00000000000E+00  0.00000000000E+00  0.27452596809E+03  0.27452596809E+03  0.00000000000E+00 0. -1.
         -1   -1    0    0    0  501 -0.00000000000E+00 -0.00000000000E+00 -0.86292223295E+02  0.86292223295E+02  0.00000000000E+00 0.  1.
         23    2    1    2    0    0 -0.47042608222E+02  0.19619135349E+02  0.16553231377E+02  0.10499111915E+03  0.90284041625E+02 0.  0.
         23    2    1    2    0    0  0.17837596400E+02 -0.42473980379E+02  0.13345732949E+03  0.16881958869E+03  0.92557959555E+02 0.  0.
        -13    1    4    4    0    0 -0.16005748067E+02  0.23035609931E+02  0.24417657752E+02  0.37189317098E+02  0.00000000000E+00 0.  1.
         13    1    4    4    0    0  0.33843344467E+02 -0.65509590311E+02  0.10903967173E+03  0.13163027159E+03  0.00000000000E+00 0. -1.
        -13    1    3    3    0    0  0.20385376765E+02  0.27275808957E+02 -0.34937520785E+01  0.34230682781E+02  0.00000000000E+00 0.  1.
         13    1    3    3    0    0 -0.67427984987E+02 -0.76566736072E+01  0.20046983456E+02  0.70760436373E+02  0.00000000000E+00 0. -1.
         21    1    1    2  503  501  0.22986357008E+02 -0.17594858373E+02 -0.27737145189E+01  0.29079978368E+02  0.00000000000E+00 0. -1.
         -1    1    1    2    0  502  0.62186548141E+01  0.40449703403E+02  0.40996898448E+02  0.57927505172E+02  0.00000000000E+00 0.  1.
<scales pt_clust_5="13000.00000" pt_clust_6="13000.00000" pt_clust_7="13000.00000" pt_clust_8="13000.00000" pt_clust_9="28.94739" pt_clust_10="39.37167"></scales>
<clustering>
<clus scale="   28.947">  2  9  1 -1</clus>
<clus scale="   39.372">  1 10  2 -1</clus>
<clus scale="   90.284">  7  8 -1 -1</clus>
<clus scale="   92.558">  5  6 -1 -1</clus>
<clus scale="   97.087">  2  7  1 -1</clus>
<clus scale="   39.372">  1  5  2 -1</clus>
</clustering>
</event>
<event>
10    2  0.2421970E-006  0.1715216E+03  0.7546771E-02  0.1176553E+00
         21   -1    0    0  501  502  0.00000000000E+00  0.00000000000E+00  0.24163287975E+03  0.24163287975E+03  0.00000000000E+00 0.  1.
         -1   -1    0    0    0  501 -0.00000000000E+00 -0.00000000000E+00 -0.19226446544E+03  0.19226446544E+03  0.00000000000E+00 0.  1.
         23    2    1    2    0    0  0.85370845081E+02 -0.13837572123E+03 -0.21565015964E+02  0.18720249212E+03  0.90242460767E+02 0.  0.
         23    2    1    2    0    0 -0.38767103896E+02  0.12144097709E+03  0.18747342648E+02  0.15849330655E+03  0.92292286261E+02 0.  0.
        -11    1    4    4    0    0 -0.39049587634E+02  0.49207410863E+01  0.14340104304E+02  0.41889408908E+02  0.00000000000E+00 0. -1.
         11    1    4    4    0    0  0.28248373719E+00  0.11652023600E+03  0.44072383438E+01  0.11660389764E+03  0.00000000000E+00 0.  1.
        -11    1    3    3    0    0  0.67487768496E+02 -0.50839875716E+02 -0.43744743078E+02  0.95146699398E+02  0.00000000000E+00 0.  1.
         11    1    3    3    0    0  0.17883076585E+02 -0.87535845518E+02  0.22179727114E+02  0.92055792722E+02  0.00000000000E+00 0. -1.
         21    1    1    2  503  502 -0.14140482582E+02 -0.16261589719E+02  0.29477536764E+02  0.36514623392E+02  0.00000000000E+00 0.  1.
         -1    1    1    2    0  503 -0.32463258602E+02  0.33196333867E+02  0.22708550860E+02  0.51686923138E+02  0.00000000000E+00 0.  1.
<scales pt_clust_5="13000.00000" pt_clust_6="13000.00000" pt_clust_7="13000.00000" pt_clust_8="13000.00000" pt_clust_9="21.54977" pt_clust_10="46.27977"></scales>
<clustering>
<clus scale="   21.550">  1  9  2 -1</clus>
<clus scale="   46.280">  1 10  2 -1</clus>
<clus scale="   90.242">  7  8 -1 -1</clus>
<clus scale="   92.292">  5  6 -1 -1</clus>
<clus scale="  170.427">  2  7  1 -1</clus>
<clus scale="   21.550">  1  5  2 -1</clus>
</clustering>
</event>
<event>
10    2  0.2421970E-006  0.1028874E+03  0.7546771E-02  0.1275550E+00
         21   -1    0    0  501  502  0.00000000000E+00  0.00000000000E+00  0.94649411120E+02  0.94649411120E+02  0.00000000000E+00 0.  1.
         -4   -1    0    0    0  501 -0.00000000000E+00 -0.00000000000E+00 -0.51758559445E+03  0.51758559445E+03  0.00000000000E+00 0.  1.
         23    2    1    2    0    0 -0.14792497777E+02  0.44201440970E+02 -0.37783251189E+03  0.39124208018E+03  0.90224015064E+02 0.  0.
         23    2    1    2    0    0  0.78551828170E+02  0.36318298026E+01 -0.58669995738E+02  0.13508166566E+03  0.92850999461E+02 0.  0.
        -11    1    4    4    0    0  0.62572824273E+02 -0.40221452885E+02 -0.42594699755E+02  0.85717163141E+02  0.00000000000E+00 0.  1.
         11    1    4    4    0    0  0.15979003897E+02  0.43853282687E+02 -0.16075295983E+02  0.49364502519E+02  0.00000000000E+00 0. -1.
        -13    1    3    3    0    0  0.45413405915E+01  0.69363706324E+02 -0.24484689985E+03  0.25452298893E+03  0.00000000000E+00 0.  1.
         13    1    3    3    0    0 -0.19333838369E+02 -0.25162265354E+02 -0.13298561204E+03  0.13671909125E+03  0.00000000000E+00 0. -1.
         21    1    1    2  503  502 -0.27374954253E+02 -0.33458964471E+02  0.17404274515E+02  0.46602566402E+02  0.00000000000E+00 0.  1.
         -4    1    1    2    0  503 -0.36384376140E+02 -0.14374306301E+02 -0.38379502178E+01  0.39308693321E+02  0.00000000000E+00 0.  1.
<scales pt_clust_5="13000.00000" pt_clust_6="13000.00000" pt_clust_7="13000.00000" pt_clust_8="13000.00000" pt_clust_9="27.62687" pt_clust_10="84.83336"></scales>
<clustering>
<clus scale="   27.627">  9 10 -1 -1</clus>
<clus scale="   84.833">  1  9  2 -1</clus>
<clus scale="   90.224">  7  8 -1 -1</clus>
<clus scale="   92.851">  5  6 -1 -1</clus>
<clus scale="  100.523">  2  7  1 -1</clus>
<clus scale="   84.833">  1  5  2 -1</clus>
</clustering>
</event>
<event>
10    2  0.2421970E-006  0.9660285E+02  0.7546771E-02  0.1288012E+00
         21   -1    0    0  501  502  0.00000000000E+00  0.00000000000E+00  0.29178527775E+03  0.29178527775E+03  0.00000000000E+00 0.  1.
          1   -1    0    0  503    0 -0.00000000000E+00 -0.00000000000E+00 -0.18226489512E+03  0.18226489512E+03  0.00000000000E+00 0. -1.
         23    2    1    2    0    0  0.15550418803E+02 -0.11184205548E+02 -0.70155753618E+02  0.11702489892E+03  0.91684760040E+02 0.  0.
         23    2    1    2    0    0  0.53848273830E+02  0.23760532008E+02  0.22002320718E+03  0.24523321546E+03  0.90911598792E+02 0.  0.
        -11    1    4    4    0    0  0.76620307986E+02  0.43481534533E+01  0.17598835752E+03  0.19199343743E+03  0.00000000000E+00 0.  1.
         11    1    4    4    0    0 -0.22772034155E+02  0.19412378554E+02  0.44034849660E+02  0.53239778036E+02  0.00000000000E+00 0. -1.
        -13    1    3    3    0    0  0.41497926451E+02 -0.19559603705E+02 -0.76342140821E+02  0.89066146554E+02  0.00000000000E+00 0.  1.
         13    1    3    3    0    0 -0.25947507648E+02  0.83753981568E+01  0.61863872026E+01  0.27958752369E+02  0.00000000000E+00 0. -1.
         21    1    1    2  503  502 -0.36413084077E+01 -0.31384400093E+02 -0.28155096940E+02  0.42319607510E+02  0.00000000000E+00 0.  1.
          1    1    1    2  501    0 -0.65757384226E+02  0.18808073633E+02 -0.12191973992E+02  0.69472450970E+02  0.00000000000E+00 0. -1.
<scales pt_clust_5="13000.00000" pt_clust_6="13000.00000" pt_clust_7="13000.00000" pt_clust_8="13000.00000" pt_clust_9="31.59493" pt_clust_10="67.52707"></scales>
<clustering>
<clus scale="   31.595">  2  9  1 -1</clus>
<clus scale="   67.527">  1 10  2 -1</clus>
<clus scale="   90.912">  5  6 -1 -1</clus>
<clus scale="   91.685">  7  8 -1 -1</clus>
<clus scale="   95.869">  1  5  2 -1</clus>
<clus scale="   67.527">  1  5  2 -1</clus>
</clustering>
</event>
<event>
10    2  0.2421970E-006  0.1167003E+03  0.7546771E-02  0.1248807E+00
          1   -1    0    0  502    0 -0.00000000000E+00  0.00000000000E+00  0.54511212803E+03  0.54511212803E+03  0.00000000000E+00 0. -1.
         21   -1    0    0  503  502  0.00000000000E+00 -0.00000000000E+00 -0.85048945596E+02  0.85048945596E+02  0.00000000000E+00 0.  1.
         23    2    1    2    0    0 -0.23487598667E+02  0.58645413923E+02  0.36296993986E+03  0.37989946079E+03  0.92657817771E+02 0.  0.
         23    2    1    2    0    0  0.33307851703E+02 -0.12211916291E+03  0.42490083743E+02  0.16224551704E+03  0.92172108846E+02 0.  0.
        -11    1    4    4    0    0  0.20857556945E+01 -0.34341638064E+02 -0.28852797341E+02  0.44901919738E+02  0.00000000000E+00 0.  1.
         11    1    4    4    0    0  0.31222096008E+02 -0.87777524846E+02  0.71342881084E+02  0.11734359731E+03  0.00000000000E+00 0. -1.
        -13    1    3    3    0    0  0.34020869939E+02  0.12336056041E+02  0.87083755023E+02  0.94303649234E+02  0.00000000000E+00 0.  1.
         13    1    3    3    0    0 -0.57508468605E+02  0.46309357882E+02  0.27588618484E+03  0.28559581155E+03  0.00000000000E+00 0. -1.
         21    1    1    2  503  501 -0.10119129673E+02  0.36937402212E+02  0.16783715271E+02  0.41814609478E+02  0.00000000000E+00 0. -1.
          1    1    1    2  501    0  0.29887663709E+00  0.26536346775E+02  0.37819443557E+02  0.46201486323E+02  0.00000000000E+00 0. -1.
<scales pt_clust_5="13000.00000" pt_clust_6="13000.00000" pt_clust_7="13000.00000" pt_clust_8="13000.00000" pt_clust_9="21.05839" pt_clust_10="69.03136"></scales>
<clustering>
<clus scale="   21.058">  9 10 -1 -1</clus>
<clus scale="   69.031">  2  9  1 -1</clus>
<clus scale="   92.172">  5  6 -1 -1</clus>
<clus scale="   92.658">  7  8 -1 -1</clus>
<clus scale="  116.315">  2  5  1 -1</clus>
<clus scale="   69.031">  2  5  1 -1</clus>
</clustering>
</event>
<event>
10    2  0.2421970E-006  0.1391652E+03  0.7546771E-02  0.1214846E+00
          1   -1    0    0  502    0 -0.00000000000E+00  0.00000000000E+00  0.90200487421E+03  0.90200487421E+03  0.00000000000E+00 0. -1.
         21   -1    0    0  503  502  0.00000000000E+00 -0.00000000000E+00 -0.74158496230E+02  0.74158496230E+02  0.00000000000E+00 0. -1.
         23    2    1    2    0    0 -0.19158291768E+02  0.80944898825E+02  0.28018439254E+03  0.30638952594E+03  0.91935471887E+02 0.  0.
         23    2    1    2    0    0  0.13306532974E+03 -0.61646385223E+02  0.52035039368E+03  0.54867116213E+03  0.93642154810E+02 0.  0.
        -11    1    3    3    0    0  0.16768726439E+02  0.62898027282E+02  0.84758153924E+02  0.10687046682E+03  0.00000000000E+00 0. -1.
         11    1    3    3    0    0 -0.35927018207E+02  0.18046871543E+02  0.19542623862E+03  0.19951905912E+03  0.00000000000E+00 0.  1.
        -13    1    4    4    0    0 -0.57248812839E+01 -0.30646014566E+02  0.11243632804E+03  0.11667853418E+03  0.00000000000E+00 0.  1.
         13    1    4    4    0    0  0.13879021102E+03 -0.31000370657E+02  0.40791406564E+03  0.43199262795E+03  0.00000000000E+00 0. -1.
         21    1    1    2  503  501 -0.61018680499E+02 -0.21204793575E+02  0.96752807365E+01  0.65318708635E+02  0.00000000000E+00 0. -1.
          1    1    1    2  501    0 -0.52888357470E+02  0.19062799737E+01  0.17636311015E+02  0.55783973733E+02  0.00000000000E+00 0. -1.
<scales pt_clust_5="13000.00000" pt_clust_6="13000.00000" pt_clust_7="13000.00000" pt_clust_8="13000.00000" pt_clust_9="21.66063" pt_clust_10="117.98278"></scales>
<clustering>
<clus scale="   21.661">  9 10 -1 -1</clus>
<clus scale="   91.935">  5  6 -1 -1</clus>
<clus scale="   93.642">  7  8 -1 -1</clus>
<clus scale="  117.983">  2  9  1 -1</clus>
<clus scale="  138.023">  1  5  2 -1</clus>
<clus scale="  117.983">  2  5  1 -1</clus>
</clustering>
</event>
<event>
10    2  0.2421970E-006  0.1690453E+03  0.7546771E-02  0.1179252E+00
         21   -1    0    0  501  502  0.00000000000E+00  0.00000000000E+00  0.12703389007E+03  0.12703389007E+03  0.00000000000E+00 0.  1.
          1   -1    0    0  503    0 -0.00000000000E+00 -0.00000000000E+00 -0.96177878847E+03  0.96177878847E+03  0.00000000000E+00 0. -1.
         23    2    1    2    0    0  0.15208328445E+03  0.43361063261E+02 -0.75465345210E+03  0.77676999446E+03  0.94129083193E+02 0.  0.
         23    2    1    2    0    0 -0.88653683498E+02 -0.32157048877E+02 -0.12037009405E+03  0.17812118650E+03  0.91349034735E+02 0.  0.
        -11    1    3    3    0    0  0.37359990167E+02 -0.28215399984E+02 -0.14797040614E+03  0.15520025372E+03  0.00000000000E+00 0.  1.
         11    1    3    3    0    0  0.11472329429E+03  0.71576463245E+02 -0.60668304596E+03  0.62156974074E+03  0.00000000000E+00 0. -1.
        -13    1    4    4    0    0  0.63397188957E+00  0.25171379888E+02 -0.23829298842E+02  0.34667503070E+02  0.00000000000E+00 0. -1.
         13    1    4    4    0    0 -0.89287655388E+02 -0.57328428765E+02 -0.96540795211E+02  0.14345368343E+03  0.00000000000E+00 0.  1.
         21    1    1    2  503  502 -0.31110540592E+02  0.37820531092E+02 -0.17052236518E+02  0.51855926164E+02  0.00000000000E+00 0.  1.
          1    1    1    2  501    0 -0.32319060363E+02 -0.49024545476E+02  0.57330884273E+02  0.82065571426E+02  0.00000000000E+00 0. -1.
<scales pt_clust_5="13000.00000" pt_clust_6="13000.00000" pt_clust_7="13000.00000" pt_clust_8="13000.00000" pt_clust_9="48.97202" pt_clust_10="57.77683"></scales>
<clustering>
<clus scale="   48.972">  1  9  2 -1</clus>
<clus scale="   57.777">  1 10  2 -1</clus>
<clus scale="   91.349">  7  8 -1 -1</clus>
<clus scale="   94.129">  5  6 -1 -1</clus>
<clus scale="  167.513">  1  7  2 -1</clus>
<clus scale="   48.972">  1  5  2 -1</clus>
</clustering>
</event>
<event>
10    2  0.2421970E-006  0.1519539E+03  0.7546771E-02  0.1216830E+00
          1   -1    0    0  502    0 -0.00000000000E+00  0.00000000000E+00  0.13638836431E+04  0.13638836431E+04  0.00000000000E+00 0. -1.
         21   -1    0    0  503  502  0.00000000000E+00 -0.00000000000E+00 -0.29164823315E+02  0.29164823315E+02  0.00000000000E+00 0.  1.
         23    2    1    2    0    0  0.22497391721E+02  0.37045625708E+02  0.26020667856E+03  0.27936314739E+03  0.91965980308E+02 0.  0.
         23    2    1    2    0    0 -0.53301549533E+02  0.97833926313E+02  0.43530539106E+03  0.45856946192E+03  0.91556734332E+02 0.  0.
        -13    1    3    3    0    0  0.53441026819E+02  0.14158275709E+01  0.11837915640E+03  0.12989061778E+03  0.00000000000E+00 0.  1.
         13    1    3    3    0    0 -0.30943635098E+02  0.35629798137E+02  0.14182752216E+03  0.14947252962E+03  0.00000000000E+00 0. -1.
        -13    1    4    4    0    0 -0.16781993107E+02  0.10461164347E+03  0.29571580478E+03  0.31412269647E+03  0.00000000000E+00 0.  1.
         13    1    4    4    0    0 -0.36519556425E+02 -0.67777171559E+01  0.13958958629E+03  0.14444676546E+03  0.00000000000E+00 0. -1.
         21    1    1    2  503  501  0.39126669471E+02 -0.98193210042E+02  0.45671732188E+03  0.46878941420E+03  0.00000000000E+00 0. -1.
          1    1    1    2  501    0 -0.83225116599E+01 -0.36686341979E+02  0.18248942830E+03  0.18632644291E+03  0.00000000000E+00 0. -1.
<scales pt_clust_5="13000.00000" pt_clust_6="13000.00000" pt_clust_7="13000.00000" pt_clust_8="13000.00000" pt_clust_9="22.71764" pt_clust_10="127.11216"></scales>
<clustering>
<clus scale="   22.718">  9 10 -1 -1</clus>
<clus scale="   91.557">  7  8 -1 -1</clus>
<clus scale="   91.966">  5  6 -1 -1</clus>
<clus scale="  101.667">  1  5  2 -1</clus>
<clus scale="  127.112">  2  9  1 -1</clus>
<clus scale="  127.112">  2  5  1 -1</clus>
</clustering>
</event>
<event>
10    2  0.2421970E-006  0.9424674E+02  0.7546771E-02  0.1293036E+00
          1   -1    0    0  503    0 -0.00000000000E+00  0.00000000000E+00  0.35421078431E+03  0.35421078431E+03  0.00000000000E+00 0. -1.
         21   -1    0    0  501  502  0.00000000000E+00 -0.00000000000E+00 -0.32467614712E+03  0.32467614712E+03  0.00000000000E+00 0. -1.
         23    2    1    2    0    0 -0.19189850612E+02 -0.54778005280E+01  0.26920916967E+03  0.28485447573E+03  0.90940852441E+02 0.  0.
         23    2    1    2    0    0  0.46061170005E+02 -0.34500924262E+02  0.35095299300E+02  0.11342274332E+03  0.91220028021E+02 0.  0.
        -11    1    3    3    0    0  0.16173136114E+02 -0.34063457924E+02  0.18834127598E+03  0.19207895704E+03  0.00000000000E+00 0. -1.
         11    1    3    3    0    0 -0.35362986727E+02  0.28585657396E+02  0.80867893688E+02  0.92775518692E+02  0.00000000000E+00 0.  1.
        -13    1    4    4    0    0  0.43334610732E+02  0.23574297120E+02  0.11345450986E+02  0.50619711873E+02  0.00000000000E+00 0.  1.
         13    1    4    4    0    0  0.27265592726E+01 -0.58075221382E+02  0.23749848313E+02  0.62803031447E+02  0.00000000000E+00 0. -1.
         21    1    1    2  503  502 -0.28141687540E+02  0.19114876582E+02 -0.13178752363E+03  0.13610762091E+03  0.00000000000E+00 0.  1.
          1    1    1    2  501    0  0.12703681475E+01  0.20863848208E+02 -0.14298230814E+03  0.14450209147E+03  0.00000000000E+00 0. -1.
<scales pt_clust_5="13000.00000" pt_clust_6="13000.00000" pt_clust_7="13000.00000" pt_clust_8="13000.00000" pt_clust_9="43.98117" pt_clust_10="20.90249"></scales>
<clustering>
<clus scale="   20.902">  2 10  1 -1</clus>
<clus scale="   43.981">  2  9  1 -1</clus>
<clus scale="   90.941">  5  6 -1 -1</clus>
<clus scale="   91.220">  7  8 -1 -1</clus>
<clus scale="   93.977">  1  5  2 -1</clus>
<clus scale="   20.902">  2  5  1 -1</clus>
</clustering>
</event>
<event>
10    2  0.2421970E-006  0.9426227E+02  0.7546771E-02  0.1294202E+00
          3   -1    0    0  503    0 -0.00000000000E+00  0.00000000000E+00  0.65105096688E+02  0.65105096688E+02  0.00000000000E+00 0. -1.
         21   -1    0    0  501  502  0.00000000000E+00 -0.00000000000E+00 -0.29004346678E+03  0.29004346678E+03  0.00000000000E+00 0. -1.
         23    2    1    2    0    0  0.21241621708E+02  0.76512555675E+01 -0.65974286426E+02  0.11407428746E+03  0.90280609133E+02 0.  0.
         23    2    1    2    0    0  0.10257135703E+02 -0.49068097217E+02 -0.88762790015E+02  0.13455426356E+03  0.87824426857E+02 0.  0.
        -13    1    4    4    0    0  0.42968454087E+02 -0.52399455419E+02 -0.65757852673E+02  0.94425029325E+02  0.00000000000E+00 0. -1.
         13    1    4    4    0    0 -0.32711318384E+02  0.33313582027E+01 -0.23004937342E+02  0.40129234232E+02  0.00000000000E+00 0.  1.
        -13    1    3    3    0    0  0.41160425520E+02  0.38479740110E+02 -0.40819089200E+02  0.69577791508E+02  0.00000000000E+00 0.  1.
         13    1    3    3    0    0 -0.19918803812E+02 -0.30828484543E+02 -0.25155197226E+02  0.44496495952E+02  0.00000000000E+00 0. -1.
         21    1    1    2  503  502 -0.27358620154E+02 -0.23790025326E+01 -0.52210483754E+02  0.58992273762E+02  0.00000000000E+00 0. -1.
          3    1    1    2  501    0 -0.41401372563E+01  0.43795844182E+02 -0.17990809893E+02  0.47527738687E+02  0.00000000000E+00 0. -1.
<scales pt_clust_5="13000.00000" pt_clust_6="13000.00000" pt_clust_7="13000.00000" pt_clust_8="13000.00000" pt_clust_9="27.46186" pt_clust_10="44.18688"></scales>
<clustering>
<clus scale="   27.462">  2  9  1 -1</clus>
<clus scale="   44.187">  2 10  1 -1</clus>
<clus scale="   87.824">  5  6 -1 -1</clus>
<clus scale="   90.281">  7  8 -1 -1</clus>
<clus scale="   91.913">  2  5  1 -1</clus>
<clus scale="   27.462">  2  5  1 -1</clus>
</clustering>
</event>
<event>
10    2  0.2421970E-006  0.1268014E+03  0.7546771E-02  0.1232661E+00
         21   -1    0    0  503  502  0.00000000000E+00  0.00000000000E+00  0.98519663021E+02  0.98519663021E+02  0.00000000000E+00 0. -1.
          2   -1    0    0  502    0 -0.00000000000E+00 -0.00000000000E+00 -0.32419273202E+03  0.32419273202E+03  0.00000000000E+00 0. -1.
         23    2    1    2    0    0 -0.64613181070E+02  0.32562869318E+02 -0.11494036173E+03  0.16308771592E+03  0.90283512907E+02 0.  0.
         23    2    1    2    0    0  0.69740719371E+02 -0.90841308489E+02 -0.12493555519E+03  0.19267936902E+03  0.91654432682E+02 0.  0.
        -13    1    4    4    0    0  0.48505562585E+02  0.42632957697E+01 -0.33951385738E+02  0.59360440413E+02  0.00000000000E+00 0.  1.
         13    1    4    4    0    0  0.21235156785E+02 -0.95104604258E+02 -0.90984169454E+02  0.13331892861E+03  0.00000000000E+00 0. -1.
        -13    1    3    3    0    0  0.11577310998E+02  0.36952044818E+02 -0.47123741227E+02  0.60992907238E+02  0.00000000000E+00 0.  1.
         13    1    3    3    0    0 -0.76190492068E+02 -0.43891755004E+01 -0.67816620502E+02  0.10209480868E+03  0.00000000000E+00 0. -1.
         21    1    1    2  503  501  0.81040409076E+01  0.30908263468E+02  0.17388869407E+02  0.36378139162E+02  0.00000000000E+00 0.  1.
          2    1    1    2  501    0 -0.13231579208E+02  0.27370175703E+02 -0.31860214896E+01  0.30567170940E+02  0.00000000000E+00 0. -1.
<scales pt_clust_5="13000.00000" pt_clust_6="13000.00000" pt_clust_7="13000.00000" pt_clust_8="13000.00000" pt_clust_9="28.55935" pt_clust_10="65.42135"></scales>
<clustering>
<clus scale="   28.559">  9 10 -1 -1</clus>
<clus scale="   65.421">  1  9  2 -1</clus>
<clus scale="   90.284">  7  8 -1 -1</clus>
<clus scale="   91.654">  5  6 -1 -1</clus>
<clus scale="  125.814">  2  7  1 -1</clus>
<clus scale="   65.421">  1  5  2 -1</clus>
</clustering>
</event>
<event>
10    2  0.2421970E-006  0.1476481E+03  0.7546771E-02  0.1204121E+00
          2   -1    0    0  503    0 -0.00000000000E+00  0.00000000000E+00  0.85647140217E+03  0.85647140217E+03  0.00000000000E+00 0. -1.
         21   -1    0    0  501  502  0.00000000000E+00 -0.00000000000E+00 -0.20393356141E+03  0.20393356141E+03  0.00000000000E+00 0.  1.
         23    2    1    2    0    0 -0.10214131146E+03  0.37164215503E+02  0.64588798719E+03  0.66127905293E+03  0.91129948024E+02 0.  0.
         23    2    1    2    0    0  0.15363786921E+03 -0.58143597899E+02  0.17352656791E+02  0.19043450899E+03  0.94757135269E+02 0.  0.
        -11    1    3    3    0    0 -0.99497475777E+02  0.58759991986E+02  0.59186382588E+03  0.60303836754E+03  0.00000000000E+00 0. -1.
         11    1    3    3    0    0 -0.26438356831E+01 -0.21595776483E+02  0.54024161306E+02  0.58240685383E+02  0.00000000000E+00 0.  1.
        -13    1    4    4    0    0  0.45999639401E+02 -0.98043549562E+01 -0.37653706300E+02  0.60248599978E+02  0.00000000000E+00 0.  1.
         13    1    4    4    0    0  0.10763822981E+03 -0.48339242943E+02  0.55006363092E+02  0.13018590901E+03  0.00000000000E+00 0. -1.
         21    1    1    2  503  502 -0.10263969464E+03 -0.48475920009E+02  0.23474915376E+02  0.11591330117E+03  0.00000000000E+00 0. -1.
          2    1    1    2  501    0  0.51143136889E+02  0.69455302405E+02 -0.34177718587E+02  0.92778100492E+02  0.00000000000E+00 0. -1.
<scales pt_clust_5="13000.00000" pt_clust_6="13000.00000" pt_clust_7="13000.00000" pt_clust_8="13000.00000" pt_clust_9="89.55337" pt_clust_10="86.25346"></scales>
<clustering>
<clus scale="   86.253">  2 10  1 -1</clus>
<clus scale="   89.553">  2  9  1 -1</clus>
<clus scale="   91.130">  5  6 -1 -1</clus>
<clus scale="   94.757">  7  8 -1 -1</clus>
<clus scale="  145.347">  1  5  2 -1</clus>
<clus scale="   86.253">  2  5  1 -1</clus>
</clustering>
</event>
<event>
10    2  0.2421970E-006  0.9575510E+02  0.7546771E-02  0.1290874E+00
         21   -1    0    0  503  502  0.00000000000E+00  0.00000000000E+00  0.33765238296E+03  0.33765238296E+03  0.00000000000E+00 0. -1.
         -1   -1    0    0    0  501 -0.00000000000E+00 -0.00000000000E+00 -0.96629456698E+02  0.96629456698E+02  0.00000000000E+00 0.  1.
         23    2    1    2    0    0  0.31556307654E+02 -0.22438993339E+02 -0.26989378296E+02  0.99342124064E+02  0.87413512102E+02 0.  0.
         23    2    1    2    0    0 -0.20362451335E+02  0.67160574836E+01  0.40045742269E+02  0.10084325532E+03  0.90033137334E+02 0.  0.
        -13    1    3    3    0    0  0.50488668074E+02 -0.30837798839E+02 -0.43021871720E+02  0.73150235047E+02  0.00000000000E+00 0.  1.
         13    1    3    3    0    0 -0.18932360420E+02  0.83988054998E+01  0.16032493425E+02  0.26191889017E+02  0.00000000000E+00 0. -1.
        -13    1    4    4    0    0 -0.28029500163E+02  0.37655000326E+02  0.48876603761E+02  0.67767797103E+02  0.00000000000E+00 0. -1.
         13    1    4    4    0    0  0.76670488276E+01 -0.30938942842E+02 -0.88308614919E+01  0.33075458222E+02  0.00000000000E+00 0.  1.
         21    1    1    2  503  501  0.68274157569E+01  0.27855196079E+02  0.16533827485E+03  0.16780724264E+03  0.00000000000E+00 0. -1.
         -1    1    1    2    0  502 -0.18021272076E+02 -0.12132260223E+02  0.62628287444E+02  0.66289217626E+02  0.00000000000E+00 0.  1.
<scales pt_clust_5="13000.00000" pt_clust_6="13000.00000" pt_clust_7="13000.00000" pt_clust_8="13000.00000" pt_clust_9="20.87665" pt_clust_10="21.72459"></scales>
<clustering>
<clus scale="   21.725">  1 10  2 -1</clus>
<clus scale="   20.877">  1  9  2 -1</clus>
<clus scale="   87.414">  5  6 -1 -1</clus>
<clus scale="   90.033">  7  8 -1 -1</clus>
<clus scale="   93.296">  2  5  1 -1</clus>
<clus scale="   21.725">  1  5  2 -1</clus>
</clustering>
</event>
<event>
10    2  0.2421970E-006  0.1587773E+03  0.7546771E-02  0.1212146E+00
         21   -1    0    0  503  502  0.00000000000E+00  0.00000000000E+00  0.72560317808E+02  0.72560317808E+02  0.00000000000E+00 0.  1.
          2   -1    0    0  502    0 -0.00000000000E+00 -0.00000000000E+00 -0.74386792860E+03  0.74386792860E+03  0.00000000000E+00 0. -1.
         23    2    1    2    0    0 -0.24796132679E+02  0.21975874052E+02 -0.42251143888E+03  0.43382208649E+03  0.92670920498E+02 0.  0.
         23    2    1    2    0    0  0.33296706101E+02  0.10671090036E+03 -0.10284736044E+03  0.18486515245E+03  0.10536440645E+03 0.  0.
        -11    1    4    4    0    0 -0.31053796753E+02  0.67233232150E+02 -0.29841703556E+02  0.79844680908E+02  0.00000000000E+00 0.  1.
         11    1    4    4    0    0  0.64350502855E+02  0.39477668207E+02 -0.73005656889E+02  0.10502047154E+03  0.00000000000E+00 0. -1.
        -11    1    3    3    0    0 -0.50416063305E+01  0.56136049434E+02 -0.29530832625E+03  0.30063878890E+03  0.00000000000E+00 0.  1.
         11    1    3    3    0    0 -0.19754526348E+02 -0.34160175382E+02 -0.12720311263E+03  0.13318329759E+03  0.00000000000E+00 0. -1.
         21    1    1    2  503  501 -0.30084582121E+01 -0.88635190287E+02 -0.75290613761E+02  0.11633539572E+03  0.00000000000E+00 0.  1.
          2    1    1    2  501    0 -0.54921152108E+01 -0.40051584123E+02 -0.70658197702E+02  0.81405611740E+02  0.00000000000E+00 0. -1.
<scales pt_clust_5="13000.00000" pt_clust_6="13000.00000" pt_clust_7="13000.00000" pt_clust_8="13000.00000" pt_clust_9="23.07321" pt_clust_10="123.59805"></scales>
<clustering>
<clus scale="   23.073">  9 10 -1 -1</clus>
<clus scale="   92.671">  7  8 -1 -1</clus>
<clus scale="   98.416">  2  7  1 -1</clus>
<clus scale="  105.364">  5  6 -1 -1</clus>
<clus scale="  123.598">  1  9  2 -1</clus>
<clus scale="  123.598">  1  5  2 -1</clus>
</clustering>
</event>
<event>
10    2  0.2421970E-006  0.1177622E+03  0.7546771E-02  0.1254386E+00
         21   -1    0    0  501  502  0.00000000000E+00  0.00000000000E+00  0.64061673298E+03  0.64061673298E+03  0.00000000000E+00 0. -1.
          3   -1    0    0  503    0 -0.00000000000E+00 -0.00000000000E+00 -0.88920250233E+02  0.88920250233E+02  0.00000000000E+00 0. -1.
         23    2    1    2    0    0  0.19095859448E+02  0.43536981731E+02 -0.18250422460E+02  0.11983635301E+03  0.10847835248E+03 0.  0.
         23    2    1    2    0    0 -0.40581768268E+02 -0.13713248208E+02  0.46698012449E+03  0.47756066884E+03  0.90326201416E+02 0.  0.
        -11    1    3    3    0    0  0.57754621841E+02  0.50298576124E+02 -0.23801493652E+02  0.80200088555E+02  0.00000000000E+00 0. -1.
         11    1    3    3    0    0 -0.38658762394E+02 -0.67615943934E+01  0.55510711920E+01  0.39636264455E+02  0.00000000000E+00 0.  1.
        -11    1    4    4    0    0  0.26270659218E+02  0.10922382356E+02  0.11793080441E+03  0.12131414015E+03  0.00000000000E+00 0.  1.
         11    1    4    4    0    0 -0.66852427486E+02 -0.24635630564E+02  0.34904932008E+03  0.35624652869E+03  0.00000000000E+00 0. -1.
         21    1    1    2  503  502  0.11615667463E+02 -0.54454136968E+02  0.76925783480E+02  0.94961849853E+02  0.00000000000E+00 0.  1.
          3    1    1    2  501    0  0.98702413571E+01  0.24630403444E+02  0.26040997236E+02  0.37178111508E+02  0.00000000000E+00 0. -1.
<scales pt_clust_5="13000.00000" pt_clust_6="13000.00000" pt_clust_7="13000.00000" pt_clust_8="13000.00000" pt_clust_9="52.61185" pt_clust_10="26.53449"></scales>
<clustering>
<clus scale="   26.534">  1 10  2 -1</clus>
<clus scale="   52.612">  1  9  2 -1</clus>
<clus scale="   90.326">  7  8 -1 -1</clus>
<clus scale="  101.288">  1  7  2 -1</clus>
<clus scale="  108.478">  5  6 -1 -1</clus>
<clus scale="   26.534">  1  5  2 -1</clus>
</clustering>
</event>
<event>
10    2  0.2421970E-006  0.1011449E+03  0.7546771E-02  0.1282396E+00
          1   -1    0    0  503    0 -0.00000000000E+00  0.00000000000E+00  0.20108206865E+03  0.20108206865E+03  0.00000000000E+00 0. -1.
         21   -1    0    0  501  502  0.00000000000E+00 -0.00000000000E+00 -0.98081515254E+02  0.98081515254E+02  0.00000000000E+00 0.  1.
         23    2    1    2    0    0  0.27160746318E+01 -0.45139596962E+02  0.99166302267E+02  0.13955085363E+03  0.87152309029E+02 0.  0.
         23    2    1    2    0    0  0.35310527155E+02  0.61743630310E+02  0.21445483683E+02  0.10727518491E+03  0.77388289262E+02 0.  0.
        -11    1    4    4    0    0  0.57245773705E+02  0.42031775555E+02  0.35738869984E+00  0.71020254083E+02  0.00000000000E+00 0.  1.
         11    1    4    4    0    0 -0.21935246550E+02  0.19711854754E+02  0.21088094983E+02  0.36254930825E+02  0.00000000000E+00 0. -1.
        -13    1    3    3    0    0  0.38065911781E+02 -0.45871061948E+02  0.78602036700E+02  0.98648102554E+02  0.00000000000E+00 0.  1.
         13    1    3    3    0    0 -0.35349837150E+02  0.73146498678E+00  0.20564265567E+02  0.40902751079E+02  0.00000000000E+00 0. -1.
         21    1    1    2  503  502 -0.21929341310E+02  0.18371302604E+01  0.29613443956E+00  0.22008151978E+02  0.00000000000E+00 0. -1.
          1    1    1    2  501    0 -0.16097260477E+02 -0.18441163609E+02 -0.17907366997E+02  0.30329393381E+02  0.00000000000E+00 0. -1.
<scales pt_clust_5="13000.00000" pt_clust_6="13000.00000" pt_clust_7="13000.00000" pt_clust_8="13000.00000" pt_clust_9="22.00616" pt_clust_10="28.50794"></scales>
<clustering>
<clus scale="   22.006">  2  9  1 -1</clus>
<clus scale="   28.508">  2 10  1 -1</clus>
<clus scale="   77.388">  5  6 -1 -1</clus>
<clus scale="   87.152">  7  8 -1 -1</clus>
<clus scale="   92.864">  2  5  1 -1</clus>
<clus scale="   22.006">  2  5  1 -1</clus>
</clustering>
</event>
<event>
10    2  0.2421970E-006  0.6366490E+03  0.7546771E-02  0.1030812E+00
         21   -1    0    0  501  502  0.00000000000E+00  0.00000000000E+00  0.30463751735E+03  0.30463751735E+03  0.00000000000E+00 0. -1.
          3   -1    0    0  503    0 -0.00000000000E+00 -0.00000000000E+00 -0.30302614357E+04  0.30302614357E+04  0.00000000000E+00 0. -1.
         23    2    1    2    0    0 -0.11287118672E+03 -0.81394668097E+01 -0.17867419566E+03  0.23008751643E+03  0.90607070980E+02 0.  0.
         23    2    1    2    0    0 -0.14455283226E+03 -0.41740442128E+02 -0.52154220373E+03  0.55050389475E+03  0.91708680287E+02 0.  0.
        -11    1    3    3    0    0 -0.19494092354E+02 -0.16031101413E+02  0.32488917268E+01  0.25447419254E+02  0.00000000000E+00 0. -1.
         11    1    3    3    0    0 -0.93377094368E+02  0.78916346036E+01 -0.18192308738E+03  0.20464009718E+03  0.00000000000E+00 0.  1.
        -13    1    4    4    0    0 -0.11904480696E+03  0.62773906179E+01 -0.39929039739E+03  0.41670600325E+03  0.00000000000E+00 0.  1.
         13    1    4    4    0    0 -0.25508025298E+02 -0.48017832745E+02 -0.12225180634E+03  0.13379789150E+03  0.00000000000E+00 0. -1.
         21    1    1    2  503  502  0.48862041334E+03  0.60657457723E+03 -0.16984921324E+04  0.18685711520E+04  0.00000000000E+00 0. -1.
          3    1    1    2  501    0 -0.23119639436E+03 -0.55669466829E+03 -0.32691538654E+03  0.68573638990E+03  0.00000000000E+00 0. -1.
<scales pt_clust_5="13000.00000" pt_clust_6="13000.00000" pt_clust_7="13000.00000" pt_clust_8="13000.00000" pt_clust_9="13000.00000" pt_clust_10="636.64903"></scales>
<clustering>
<clus scale="   90.607">  5  6 -1 -1</clus>
<clus scale="   91.709">  7  8 -1 -1</clus>
<clus scale="  144.968">  2  5  1 -1</clus>
<clus scale="  194.493">  2  7  1 -1</clus>
<clus scale="  636.649">  1 10  2 -1</clus>
<clus scale="  636.649">  1  5  2 -1</clus>
</clustering>
</event>
<event>
10    2  0.2421970E-006  0.1040418E+03  0.7546771E-02  0.1272972E+00
          2   -1    0    0  502    0 -0.00000000000E+00  0.00000000000E+00  0.48833377112E+03  0.48833377112E+03  0.00000000000E+00 0. -1.
         21   -1    0    0  503  502  0.00000000000E+00 -0.00000000000E+00 -0.92743265935E+02  0.92743265935E+02  0.00000000000E+00 0. -1.
         23    2    1    2    0    0 -0.31230759381E+02  0.16148463534E+02  0.27583510213E+03  0.29282219652E+03  0.91780727823E+02 0.  0.
         23    2    1    2    0    0  0.77264012993E+02 -0.93851708569E+02  0.98176584804E+02  0.18013860072E+03  0.89629251705E+02 0.  0.
        -11    1    3    3    0    0  0.27124626418E+02 -0.15370772102E+02  0.10622604326E+03  0.11070672183E+03  0.00000000000E+00 0.  1.
         11    1    3    3    0    0 -0.58355385799E+02  0.31519235636E+02  0.16960905888E+03  0.18211547469E+03  0.00000000000E+00 0. -1.
        -11    1    4    4    0    0  0.32830998171E+02 -0.66858371792E+02  0.10389407256E+03  0.12783542010E+03  0.00000000000E+00 0.  1.
         11    1    4    4    0    0  0.44433014822E+02 -0.26993336777E+02 -0.57174877577E+01  0.52303180619E+02  0.00000000000E+00 0. -1.
         21    1    1    2  503  501 -0.45398779138E+02  0.23827699897E+02  0.39395945551E+01  0.51423037978E+02  0.00000000000E+00 0. -1.
          2    1    1    2  501    0 -0.63447447391E+00  0.53875545137E+02  0.17639223690E+02  0.56693201833E+02  0.00000000000E+00 0. -1.
<scales pt_clust_5="13000.00000" pt_clust_6="13000.00000" pt_clust_7="13000.00000" pt_clust_8="13000.00000" pt_clust_9="51.27191" pt_clust_10="62.09979"></scales>
<clustering>
<clus scale="   51.272">  2  9  1 -1</clus>
<clus scale="   62.100">  2 10  1 -1</clus>
<clus scale="   89.629">  7  8 -1 -1</clus>
<clus scale="   91.781">  5  6 -1 -1</clus>
<clus scale="  102.149">  2  7  1 -1</clus>
<clus scale="   51.272">  2  5  1 -1</clus>
</clustering>
</event>
<event>
10    2  0.2421970E-006  0.1585772E+03  0.7546771E-02  0.1209752E+00
          1   -1    0    0  502    0 -0.00000000000E+00  0.00000000000E+00  0.59018042481E+03  0.59018042481E+03  0.00000000000E+00 0. -1.
         21   -1    0    0  503  502  0.00000000000E+00 -0.00000000000E+00 -0.40310215189E+03  0.40310215189E+03  0.00000000000E+00 0. -1.
         23    2    1    2    0    0 -0.15831740869E+02 -0.46955665921E+02  0.37407810047E+03  0.38825556365E+03  0.91391897192E+02 0.  0.
         23    2    1    2    0    0  0.12024333273E+03  0.12197111818E+03  0.14841773689E+03  0.24357052500E+03  0.89237678643E+02 0.  0.
        -11    1    4    4    0    0  0.47934034357E+02  0.69867078895E+01  0.74682232740E+02  0.89016412105E+02  0.00000000000E+00 0.  1.
         11    1    4    4    0    0  0.72309298374E+02  0.11498441029E+03  0.73735504152E+02  0.15455411290E+03  0.00000000000E+00 0. -1.
        -11    1    3    3    0    0  0.33166035397E+02 -0.27900916540E+02  0.24631208454E+03  0.25009616158E+03  0.00000000000E+00 0.  1.
         11    1    3    3    0    0 -0.48997776266E+02 -0.19054749381E+02  0.12776601593E+03  0.13815940207E+03  0.00000000000E+00 0. -1.
         21    1    1    2  503  501 -0.31175760811E+02 -0.15394701021E+02 -0.14229039517E+03  0.14647689729E+03  0.00000000000E+00 0. -1.
          1    1    1    2  501    0 -0.73235831051E+02 -0.59620751238E+02 -0.19312716928E+03  0.21497959076E+03  0.00000000000E+00 0. -1.
<scales pt_clust_5="13000.00000" pt_clust_6="13000.00000" pt_clust_7="13000.00000" pt_clust_8="13000.00000" pt_clust_9="24.39794" pt_clust_10="137.11357"></scales>
<clustering>
<clus scale="   24.398">  9 10 -1 -1</clus>
<clus scale="   89.238">  5  6 -1 -1</clus>
<clus scale="   91.392">  7  8 -1 -1</clus>
<clus scale="  103.961">  1  7  2 -1</clus>
<clus scale="  137.114">  2  9  1 -1</clus>
<clus scale="  137.114">  2  5  1 -1</clus>
</clustering>
</event>
<event>
10    2  0.2421970E-006  0.1366783E+03  0.7546771E-02  0.1237384E+00
         -2   -1    0    0    0  501 -0.00000000000E+00  0.00000000000E+00  0.33082452320E+03  0.33082452320E+03  0.00000000000E+00 0.  1.
         21   -1    0    0  501  502  0.00000000000E+00 -0.00000000000E+00 -0.87807842244E+02  0.87807842244E+02  0.00000000000E+00 0. -1.
         23    2    1    2    0    0 -0.29393192647E+01 -0.62963863226E+01  0.11571726851E+03  0.14733606773E+03  0.90934847806E+02 0.  0.
         23    2    1    2    0    0  0.99885968813E+02  0.57598665881E+01  0.82175655433E+02  0.16067923859E+03  0.95155643754E+02 0.  0.
        -11    1    3    3    0    0  0.37993144400E+02 -0.10631074178E+02  0.22456983345E+02  0.45396198745E+02  0.00000000000E+00 0. -1.
         11    1    3    3    0    0 -0.40932463664E+02  0.43346878556E+01  0.93260285166E+02  0.10193986899E+03  0.00000000000E+00 0.  1.
        -13    1    4    4    0    0  0.92995668296E+02  0.30970247257E+02  0.90339487845E+02  0.13329881320E+03  0.00000000000E+00 0. -1.
         13    1    4    4    0    0  0.68903005177E+01 -0.25210380669E+02 -0.81638324112E+01  0.27380425386E+02  0.00000000000E+00 0.  1.
         21    1    1    2  503  502 -0.45023993739E+02  0.13173667411E+02  0.27340463924E+02  0.54297389374E+02  0.00000000000E+00 0.  1.
         -2    1    1    2    0  503 -0.51922655810E+02 -0.12637147677E+02  0.17783293091E+02  0.56319669751E+02  0.00000000000E+00 0.  1.
<scales pt_clust_5="13000.00000" pt_clust_6="13000.00000" pt_clust_7="13000.00000" pt_clust_8="13000.00000" pt_clust_9="26.51801" pt_clust_10="102.11460"></scales>
<clustering>
<clus scale="   26.518">  9 10 -1 -1</clus>
<clus scale="   90.935">  5  6 -1 -1</clus>
<clus scale="   91.200">  1  5  2 -1</clus>
<clus scale="   95.156">  7  8 -1 -1</clus>
<clus scale="  102.115">  2  9  1 -1</clus>
<clus scale="  102.115">  2  5  1 -1</clus>
</clustering>
</event>
<event>
10    2  0.2421970E-006  0.1372410E+03  0.7546771E-02  0.1227443E+00
         21   -1    0    0  503  502  0.00000000000E+00  0.00000000000E+00  0.33795241862E+03  0.33795241862E+03  0.00000000000E+00 0. -1.
          2   -1    0    0  502    0 -0.00000000000E+00 -0.00000000000E+00 -0.24676702298E+03  0.24676702298E+03  0.00000000000E+00 0. -1.
         23    2    1    2    0    0  0.49644765938E+02 -0.41541507319E+02  0.16821279896E+03  0.20127130837E+03  0.89578424986E+02 0.  0.
         23    2    1    2    0    0 -0.32396905735E+02 -0.69379471510E+02 -0.18755828861E+03  0.22016421084E+03  0.86203813956E+02 0.  0.
        -13    1    3    3    0    0  0.67191212801E+01 -0.27884647146E+02  0.16558805624E+01  0.28730507787E+02  0.00000000000E+00 0. -1.
         13    1    3    3    0    0  0.42925644658E+02 -0.13656860172E+02  0.16655691840E+03  0.17254080058E+03  0.00000000000E+00 0.  1.
        -13    1    4    4    0    0 -0.53084070268E+02 -0.52185475406E+02 -0.79927694847E+02  0.10922306882E+03  0.00000000000E+00 0. -1.
         13    1    4    4    0    0  0.20687164533E+02 -0.17193996104E+02 -0.10763059376E+03  0.11094114202E+03  0.00000000000E+00 0.  1.
         21    1    1    2  503  501  0.63743372642E+01  0.49133373871E+02  0.69813579203E+02  0.85607572356E+02  0.00000000000E+00 0. -1.
          2    1    1    2  501    0 -0.23622197467E+02  0.61787604958E+02  0.40717306092E+02  0.77676350036E+02  0.00000000000E+00 0. -1.
<scales pt_clust_5="13000.00000" pt_clust_6="13000.00000" pt_clust_7="13000.00000" pt_clust_8="13000.00000" pt_clust_9="37.15975" pt_clust_10="115.09823"></scales>
<clustering>
<clus scale="   37.160">  9 10 -1 -1</clus>
<clus scale="   86.204">  7  8 -1 -1</clus>
<clus scale="   89.578">  5  6 -1 -1</clus>
<clus scale="  110.520">  2  5  1 -1</clus>
<clus scale="  115.098">  1  9  2 -1</clus>
<clus scale="  115.098">  1  5  2 -1</clus>
</clustering>
</event>
<event>
10    2  0.2421970E-006  0.1614502E+03  0.7546771E-02  0.1211913E+00
         21   -1    0    0  503  502  0.00000000000E+00  0.00000000000E+00  0.36892681195E+02  0.36892681195E+02  0.00000000000E+00 0. -1.
          2   -1    0    0  502    0 -0.00000000000E+00 -0.00000000000E+00 -0.11529388485E+04  0.11529388485E+04  0.00000000000E+00 0. -1.
         23    2    1    2    0    0  0.14783799330E+02 -0.11599051024E+02 -0.24411134005E+03  0.26161065366E+03  0.92177486715E+02 0.  0.
         23    2    1    2    0    0 -0.23289458065E+02  0.13835651209E+03 -0.57680899647E+03  0.60097762676E+03  0.93704675239E+02 0.  0.
        -11    1    4    4    0    0  0.27957052388E+02  0.41070508769E+02 -0.10010021740E+03  0.11175167556E+03  0.00000000000E+00 0.  1.
         11    1    4    4    0    0 -0.51246510453E+02  0.97286003317E+02 -0.47670877908E+03  0.48922595120E+03  0.00000000000E+00 0. -1.
        -13    1    3    3    0    0 -0.34846265539E+02 -0.22216852382E+02 -0.83429579943E+02  0.93103950299E+02  0.00000000000E+00 0. -1.
         13    1    3    3    0    0  0.49630064869E+02  0.10617801358E+02 -0.16068176011E+03  0.16850670336E+03  0.00000000000E+00 0.  1.
         21    1    1    2  503  501 -0.23869128664E+02 -0.32880795334E+02 -0.10821045414E+03  0.11558712900E+03  0.00000000000E+00 0. -1.
          2    1    1    2  501    0  0.32374787398E+02 -0.93876665727E+02 -0.18691537663E+03  0.21165612027E+03  0.00000000000E+00 0. -1.
<scales pt_clust_5="13000.00000" pt_clust_6="13000.00000" pt_clust_7="13000.00000" pt_clust_8="13000.00000" pt_clust_9="39.68516" pt_clust_10="145.37770"></scales>
<clustering>
<clus scale="   39.685">  9 10 -1 -1</clus>
<clus scale="   92.177">  7  8 -1 -1</clus>
<clus scale="   93.705">  5  6 -1 -1</clus>
<clus scale="   94.073">  2  7  1 -1</clus>
<clus scale="  145.378">  1  9  2 -1</clus>
<clus scale="  145.378">  1  5  2 -1</clus>
</clustering>
</event>
<event>
10    2  0.2421970E-006  0.1893240E+03  0.7546771E-02  0.1161411E+00
         -2   -1    0    0    0  501 -0.00000000000E+00  0.00000000000E+00  0.51870367295E+03  0.51870367295E+03  0.00000000000E+00 0.  1.
         21   -1    0    0  503  502  0.00000000000E+00 -0.00000000000E+00 -0.18770079855E+03  0.18770079855E+03  0.00000000000E+00 0.  1.
         23    2    1    2    0    0 -0.10964543249E+03 -0.15925671618E+03  0.27058261614E+03  0.34509396819E+03  0.92141587861E+02 0.  0.
         23    2    1    2    0    0 -0.20866108101E+02  0.11326824076E+03  0.60077098186E+02  0.17047084255E+03  0.11039004303E+03 0.  0.
        -11    1    4    4    0    0  0.31368638587E+02  0.34817587182E+02 -0.15818698415E+02  0.49461976139E+02  0.00000000000E+00 0. -1.
         11    1    4    4    0    0 -0.52234746689E+02  0.78450653574E+02  0.75895796602E+02  0.12100886641E+03  0.00000000000E+00 0.  1.
        -13    1    3    3    0    0 -0.58960786780E+02 -0.11657520226E+03  0.10790551939E+03  0.16943952689E+03  0.00000000000E+00 0.  1.
         13    1    3    3    0    0 -0.50684645707E+02 -0.42681513917E+02  0.16267709675E+03  0.17565444130E+03  0.00000000000E+00 0. -1.
         21    1    1    2  503  501 -0.29955331333E+01 -0.27286954133E+02  0.24314467557E+02  0.36670756975E+02  0.00000000000E+00 0.  1.
         -2    1    1    2    0  502  0.13350707372E+03  0.73275429552E+02 -0.23971307478E+02  0.15416890378E+03  0.00000000000E+00 0.  1.
<scales pt_clust_5="13000.00000" pt_clust_6="13000.00000" pt_clust_7="13000.00000" pt_clust_8="13000.00000" pt_clust_9="27.45088" pt_clust_10="150.22300"></scales>
<clustering>
<clus scale="   27.451">  1  9  2 -1</clus>
<clus scale="   92.142">  7  8 -1 -1</clus>
<clus scale="  110.390">  5  6 -1 -1</clus>
<clus scale="  150.223">  2 10  1 -1</clus>
<clus scale="  179.298">  1  7  2 -1</clus>
<clus scale="  150.223">  2  5  1 -1</clus>
</clustering>
</event>
<event>
10    2  0.2421970E-006  0.1824826E+03  0.7546771E-02  0.1167734E+00
         21   -1    0    0  501  502  0.00000000000E+00  0.00000000000E+00  0.48916046196E+03  0.48916046196E+03  0.00000000000E+00 0.  1.
          1   -1    0    0  503    0 -0.00000000000E+00 -0.00000000000E+00 -0.16366706697E+03  0.16366706697E+03  0.00000000000E+00 0. -1.
         23    2    1    2    0    0  0.24987341072E+02 -0.15499989459E+03 -0.69978942463E+02  0.19473292143E+03  0.91512424107E+02 0.  0.
         23    2    1    2    0    0 -0.54828817861E+02  0.15547789826E+03  0.31564650435E+03  0.36307754363E+03  0.70802619085E+02 0.  0.
        -11    1    4    4    0    0 -0.27221050657E+02  0.14338620522E+03  0.23118087365E+03  0.27339565795E+03  0.00000000000E+00 0. -1.
         11    1    4    4    0    0 -0.27607767205E+02  0.12091693047E+02  0.84465630693E+02  0.89681885680E+02  0.00000000000E+00 0.  1.
        -13    1    3    3    0    0 -0.17314403253E+02 -0.13278458036E+03 -0.53268695862E+02  0.14411484067E+03  0.00000000000E+00 0.  1.
         13    1    3    3    0    0  0.42301744325E+02 -0.22215314229E+02 -0.16710246600E+02  0.50618080769E+02  0.00000000000E+00 0. -1.
         21    1    1    2  503  502  0.16253393231E+02 -0.20327607752E+02  0.30193710661E+02  0.39862822178E+02  0.00000000000E+00 0. -1.
          1    1    1    2  501    0  0.13588083558E+02  0.19849604076E+02  0.49632122445E+02  0.55154241678E+02  0.00000000000E+00 0. -1.
<scales pt_clust_5="13000.00000" pt_clust_6="13000.00000" pt_clust_7="13000.00000" pt_clust_8="13000.00000" pt_clust_9="25.53058" pt_clust_10="24.05500"></scales>
<clustering>
<clus scale="   24.055">  1 10  2 -1</clus>
<clus scale="   25.531">  1  9  2 -1</clus>
<clus scale="   70.803">  5  6 -1 -1</clus>
<clus scale="   91.512">  7  8 -1 -1</clus>
<clus scale="  173.027">  1  5  2 -1</clus>
<clus scale="   24.055">  1  5  2 -1</clus>
</clustering>
</event>
<event>
10    2  0.2421970E-006  0.1663250E+03  0.7546771E-02  0.1199699E+00
         -1   -1    0    0    0  501 -0.00000000000E+00  0.00000000000E+00  0.12734928371E+04  0.12734928371E+04  0.00000000000E+00 0.  1.
         21   -1    0    0  503  502  0.00000000000E+00 -0.00000000000E+00 -0.51375546177E+02  0.51375546177E+02  0.00000000000E+00 0.  1.
         23    2    1    2    0    0  0.59312095000E+02  0.81604656033E+01  0.22860797399E+03  0.25376927110E+03  0.92480913550E+02 0.  0.
         23    2    1    2    0    0 -0.17500833298E+03 -0.81579349890E+02  0.75073751664E+03  0.78025245484E+03  0.88904259991E+02 0.  0.
        -11    1    4    4    0    0 -0.60740308763E-02 -0.25792557007E+02  0.14508996710E+03  0.14736469926E+03  0.00000000000E+00 0. -1.
         11    1    4    4    0    0 -0.17500225895E+03 -0.55786792884E+02  0.60564754954E+03  0.63288775558E+03  0.00000000000E+00 0.  1.
        -11    1    3    3    0    0  0.46171795718E+01 -0.36356819693E+02  0.10809367965E+03  0.11413754976E+03  0.00000000000E+00 0.  1.
         11    1    3    3    0    0  0.54694915428E+02  0.44517285296E+02  0.12051429434E+03  0.13963172134E+03  0.00000000000E+00 0. -1.
         21    1    1    2  503  501  0.16239239262E+01  0.41487660206E+02  0.56920777519E+02  0.70454510087E+02  0.00000000000E+00 0. -1.
         -1    1    1    2    0  502  0.11407231406E+03  0.31931224081E+02  0.18585102279E+03  0.22039214727E+03  0.00000000000E+00 0.  1.
<scales pt_clust_5="13000.00000" pt_clust_6="13000.00000" pt_clust_7="13000.00000" pt_clust_8="13000.00000" pt_clust_9="41.51943" pt_clust_10="140.57043"></scales>
<clustering>
<clus scale="   41.519">  2  9  1 -1</clus>
<clus scale="   88.904">  5  6 -1 -1</clus>
<clus scale="   92.481">  7  8 -1 -1</clus>
<clus scale="  111.891">  1  7  2 -1</clus>
<clus scale="  140.570">  2 10  1 -1</clus>
<clus scale="   41.519">  2  5  1 -1</clus>
</clustering>
</event>
<event>
10    2  0.2421970E-006  0.9542468E+02  0.7546771E-02  0.1290425E+00
          2   -1    0    0  503    0 -0.00000000000E+00  0.00000000000E+00  0.40452604742E+03  0.40452604742E+03  0.00000000000E+00 0. -1.
         21   -1    0    0  501  502  0.00000000000E+00 -0.00000000000E+00 -0.87293885994E+02  0.87293885994E+02  0.00000000000E+00 0. -1.
         23    2    1    2    0    0 -0.64092241811E+01 -0.97765631714E+01  0.19856491073E+03  0.22026446534E+03  0.94613696550E+02 0.  0.
         23    2    1    2    0    0 -0.37921362785E+02 -0.13447153977E+02  0.16387250264E+03  0.19327717104E+03  0.94249732174E+02 0.  0.
        -11    1    3    3    0    0 -0.49527877683E+02 -0.15356628031E+02  0.10751641129E+03  0.11936756422E+03  0.00000000000E+00 0. -1.
         11    1    3    3    0    0  0.43118653502E+02  0.55800648597E+01  0.91048499442E+02  0.10089690111E+03  0.00000000000E+00 0.  1.
        -13    1    4    4    0    0 -0.10220346895E+02  0.39384546573E+02  0.47799943314E+02  0.62772865000E+02  0.00000000000E+00 0.  1.
         13    1    4    4    0    0 -0.27701015890E+02 -0.52831700550E+02  0.11607255933E+03  0.13050430604E+03  0.00000000000E+00 0. -1.
         21    1    1    2  503  502  0.28344510165E+02  0.26390376545E+00 -0.42250356197E+01  0.28658887412E+02  0.00000000000E+00 0.  1.
          2    1    1    2  501    0  0.15986076801E+02  0.22959813382E+02 -0.40980216327E+02  0.49619409632E+02  0.00000000000E+00 0. -1.
<scales pt_clust_5="13000.00000" pt_clust_6="13000.00000" pt_clust_7="13000.00000" pt_clust_8="13000.00000" pt_clust_9="35.81941" pt_clust_10="27.97691"></scales>
<clustering>
<clus scale="   27.977">  2 10  1 -1</clus>
<clus scale="   35.819">  2  9  1 -1</clus>
<clus scale="   94.250">  7  8 -1 -1</clus>
<clus scale="   94.614">  5  6 -1 -1</clus>
<clus scale="   95.064">  2  7  1 -1</clus>
<clus scale="   27.977">  2  5  1 -1</clus>
</clustering>
</event>
<event>
10    2  0.2421970E-006  0.1993466E+03  0.7546771E-02  0.1169505E+00
          3   -1    0    0  503    0 -0.00000000000E+00  0.00000000000E+00  0.52327173233E+03  0.52327173233E+03  0.00000000000E+00 0. -1.
         21   -1    0    0  501  502  0.00000000000E+00 -0.00000000000E+00 -0.23700686764E+03  0.23700686764E+03  0.00000000000E+00 0. -1.
         23    2    1    2    0    0  0.34914437696E+02 -0.80060305390E+02  0.87393833500E+02  0.15291849819E+03  0.90098360111E+02 0.  0.
         23    2    1    2    0    0 -0.17489388475E+03  0.40196418921E+02 -0.10469195110E+03  0.22691093144E+03  0.91238934477E+02 0.  0.
        -11    1    4    4    0    0 -0.31395840475E+02  0.36215428157E+02 -0.59518155292E+02  0.76417712902E+02  0.00000000000E+00 0.  1.
         11    1    4    4    0    0 -0.14349804427E+03  0.39809907632E+01 -0.45173795806E+02  0.15049321853E+03  0.00000000000E+00 0. -1.
        -11    1    3    3    0    0  0.30588047910E+02  0.11538236121E+02  0.32210340730E+02  0.45894069526E+02  0.00000000000E+00 0. -1.
         11    1    3    3    0    0  0.43263897859E+01 -0.91598541511E+02  0.55183492770E+02  0.10702442866E+03  0.00000000000E+00 0.  1.
         21    1    1    2  503  502  0.15083973052E+03  0.64574127172E+02  0.31170753755E+03  0.35225563327E+03  0.00000000000E+00 0. -1.
          3    1    1    2  501    0 -0.10860283471E+02 -0.24710240702E+02 -0.81445552664E+01  0.28193537080E+02  0.00000000000E+00 0. -1.
<scales pt_clust_5="13000.00000" pt_clust_6="13000.00000" pt_clust_7="13000.00000" pt_clust_8="13000.00000" pt_clust_9="177.24147" pt_clust_10="26.99151"></scales>
<clustering>
<clus scale="   26.992">  2 10  1 -1</clus>
<clus scale="   90.098">  7  8 -1 -1</clus>
<clus scale="   91.239">  5  6 -1 -1</clus>
<clus scale="  127.442">  1  7  2 -1</clus>
<clus scale="  177.241">  1  9  2 -1</clus>
<clus scale="   26.992">  2  5  1 -1</clus>
</clustering>
</event>
<event>
10    2  0.2421970E-006  0.1101800E+03  0.7546771E-02  0.1263709E+00
          3   -1    0    0  503    0 -0.00000000000E+00  0.00000000000E+00  0.76617660683E+02  0.76617660683E+02  0.00000000000E+00 0. -1.
         21   -1    0    0  501  502  0.00000000000E+00 -0.00000000000E+00 -0.37085431497E+03  0.37085431497E+03  0.00000000000E+00 0.  1.
         23    2    1    2    0    0 -0.72187464206E+02  0.11730769363E+02 -0.26656883312E+02  0.11522860601E+03  0.84961175110E+02 0.  0.
         23    2    1    2    0    0  0.51023441646E+02 -0.41682570764E+02 -0.25101174225E+03  0.27588116059E+03  0.93609250172E+02 0.  0.
        -11    1    4    4    0    0  0.29340595173E+02 -0.71551136119E+02 -0.17788514917E+03  0.19396794039E+03  0.00000000000E+00 0.  1.
         11    1    4    4    0    0  0.21682846472E+02  0.29868565354E+02 -0.73126593078E+02  0.81913220195E+02  0.00000000000E+00 0. -1.
        -13    1    3    3    0    0 -0.85082028691E+02  0.27731486901E+02 -0.30055315157E+02  0.94399729561E+02  0.00000000000E+00 0. -1.
         13    1    3    3    0    0  0.12894564485E+02 -0.16000717538E+02  0.33984318454E+01  0.20828876446E+02  0.00000000000E+00 0.  1.
         21    1    1    2  503  502  0.26326611328E+02  0.50013554224E+01 -0.16747996007E+01  0.26849748114E+02  0.00000000000E+00 0. -1.
          3    1    1    2  501    0 -0.51625887678E+01  0.24950445979E+02 -0.14893229129E+02  0.29512460949E+02  0.00000000000E+00 0. -1.
<scales pt_clust_5="13000.00000" pt_clust_6="13000.00000" pt_clust_7="13000.00000" pt_clust_8="13000.00000" pt_clust_9="26.80075" pt_clust_10="25.47897"></scales>
<clustering>
<clus scale="   25.479">  2 10  1 -1</clus>
<clus scale="   26.801">  1  9  2 -1</clus>
<clus scale="   84.961">  7  8 -1 -1</clus>
<clus scale="   93.609">  5  6 -1 -1</clus>
<clus scale="  102.934">  1  7  2 -1</clus>
<clus scale="   25.479">  2  5  1 -1</clus>
</clustering>
</event>
<event>
10    2  0.2421970E-006  0.2663315E+03  0.7546771E-02  0.1134915E+00
         21   -1    0    0  503  502  0.00000000000E+00  0.00000000000E+00  0.87381170698E+03  0.87381170698E+03  0.00000000000E+00 0. -1.
          2   -1    0    0  502    0 -0.00000000000E+00 -0.00000000000E+00 -0.19002120661E+03  0.19002120661E+03  0.00000000000E+00 0. -1.
         23    2    1    2    0    0  0.45000167375E+02 -0.63683018004E+02 -0.34781016503E+02  0.12582541583E+03  0.92421719928E+02 0.  0.
         23    2    1    2    0    0 -0.21991368871E+03  0.15297311409E+03  0.67287978286E+03  0.73047173354E+03  0.95178501771E+02 0.  0.
        -13    1    4    4    0    0 -0.22129372146E+03  0.12666797958E+03  0.57290889905E+03  0.62708874557E+03  0.00000000000E+00 0. -1.
         13    1    4    4    0    0  0.13800327445E+01  0.26305134511E+02  0.99970883811E+02  0.10338298797E+03  0.00000000000E+00 0.  1.
        -13    1    3    3    0    0  0.65066763398E+02 -0.13367290732E+02 -0.23752026539E+02  0.70544503154E+02  0.00000000000E+00 0.  1.
         13    1    3    3    0    0 -0.20066596023E+02 -0.50315727272E+02 -0.11028989964E+02  0.55280912678E+02  0.00000000000E+00 0. -1.
         21    1    1    2  503  501  0.23667414087E+02 -0.33945584469E+02  0.10070951356E+02  0.42589590932E+02  0.00000000000E+00 0.  1.
          2    1    1    2  501    0  0.15124610725E+03 -0.55344511616E+02  0.35620782654E+02  0.16494617328E+03  0.00000000000E+00 0. -1.
<scales pt_clust_5="13000.00000" pt_clust_6="13000.00000" pt_clust_7="13000.00000" pt_clust_8="13000.00000" pt_clust_9="24.91483" pt_clust_10="253.55370"></scales>
<clustering>
<clus scale="   24.915">  9 10 -1 -1</clus>
<clus scale="   92.422">  7  8 -1 -1</clus>
<clus scale="   95.179">  5  6 -1 -1</clus>
<clus scale="  120.923">  2  7  1 -1</clus>
<clus scale="  253.554">  1  9  2 -1</clus>
<clus scale="  253.554">  1  5  2 -1</clus>
</clustering>
</event>
<event>
10    2  0.2421970E-006  0.1629764E+03  0.7546771E-02  0.1201698E+00
         21   -1    0    0  501  502  0.00000000000E+00  0.00000000000E+00  0.62168251165E+03  0.62168251165E+03  0.00000000000E+00 0. -1.
          2   -1    0    0  503    0 -0.00000000000E+00 -0.00000000000E+00 -0.95102270024E+03  0.95102270024E+03  0.00000000000E+00 0. -1.
         23    2    1    2    0    0  0.28698005465E+02 -0.58470086524E+02 -0.16574990789E+02  0.11508154793E+03  0.93416839056E+02 0.  0.
         23    2    1    2    0    0 -0.13932801381E+03  0.13920680586E+03 -0.82479853522E+03  0.85292956224E+03  0.91680882514E+02 0.  0.
        -11    1    4    4    0    0 -0.66537190535E+02  0.24614827916E+02 -0.42062160019E+03  0.42656256050E+03  0.00000000000E+00 0. -1.
         11    1    4    4    0    0 -0.72790823276E+02  0.11459197794E+03 -0.40417693503E+03  0.42636700174E+03  0.00000000000E+00 0.  1.
        -11    1    3    3    0    0  0.32870823660E+02  0.17150417347E+02 -0.12902983760E+02  0.39257035715E+02  0.00000000000E+00 0.  1.
         11    1    3    3    0    0 -0.41728181953E+01 -0.75620503871E+02 -0.36720070289E+01  0.75824512217E+02  0.00000000000E+00 0. -1.
         21    1    1    2  503  502  0.10981603431E+03  0.62541400018E+02  0.80115530541E+02  0.14963116768E+03  0.00000000000E+00 0.  1.
          2    1    1    2  501    0  0.81397403834E+00 -0.14327811935E+03  0.43191780687E+03  0.45506293403E+03  0.00000000000E+00 0. -1.
<scales pt_clust_5="13000.00000" pt_clust_6="13000.00000" pt_clust_7="13000.00000" pt_clust_8="13000.00000" pt_clust_9="126.24519" pt_clust_10="134.74388"></scales>
<clustering>
<clus scale="   91.681">  5  6 -1 -1</clus>
<clus scale="   93.417">  7  8 -1 -1</clus>
<clus scale="  113.882">  2  7  1 -1</clus>
<clus scale="  126.245">  1  9  2 -1</clus>
<clus scale="  134.744">  1 10  2 -1</clus>
<clus scale="  126.245">  1  5  2 -1</clus>
</clustering>
</event>
<event>
10    2  0.2421970E-006  0.2344140E+03  0.7546771E-02  0.1162245E+00
          1   -1    0    0  502    0 -0.00000000000E+00  0.00000000000E+00  0.71315645262E+03  0.71315645262E+03  0.00000000000E+00 0. -1.
         21   -1    0    0  503  502  0.00000000000E+00 -0.00000000000E+00 -0.16062529587E+03  0.16062529587E+03  0.00000000000E+00 0. -1.
         23    2    1    2    0    0 -0.82238650175E+01  0.13456070415E+02 -0.10144448362E+02  0.93201648030E+02  0.91295890248E+02 0.  0.
         23    2    1    2    0    0 -0.71696267066E+02  0.19119582868E+03  0.49966681592E+03  0.54729892113E+03  0.90404549245E+02 0.  0.
        -11    1    4    4    0    0 -0.38810729955E+02  0.18912329278E+02  0.59829040583E+02  0.73779828242E+02  0.00000000000E+00 0.  1.
         11    1    4    4    0    0 -0.32885537111E+02  0.17228349940E+03  0.43983777533E+03  0.47351909288E+03  0.00000000000E+00 0. -1.
        -13    1    3    3    0    0 -0.46129646592E+02 -0.34336470977E+01 -0.20242306035E+02  0.50492426964E+02  0.00000000000E+00 0.  1.
         13    1    3    3    0    0  0.37905781575E+02  0.16889717513E+02  0.10097857673E+02  0.42709221066E+02  0.00000000000E+00 0. -1.
         21    1    1    2  503  501  0.49891321221E+02 -0.16261776173E+03  0.63652714914E+02  0.18161868979E+03  0.00000000000E+00 0. -1.
          1    1    1    2  501    0  0.30028810862E+02 -0.42034137357E+02 -0.64392571884E+00  0.51662489540E+02  0.00000000000E+00 0. -1.
<scales pt_clust_5="13000.00000" pt_clust_6="13000.00000" pt_clust_7="13000.00000" pt_clust_8="13000.00000" pt_clust_9="25.73270" pt_clust_10="221.26297"></scales>
<clustering>
<clus scale="   25.733">  9 10 -1 -1</clus>
<clus scale="   90.405">  5  6 -1 -1</clus>
<clus scale="   91.296">  7  8 -1 -1</clus>
<clus scale="   92.648">  1  7  2 -1</clus>
<clus scale="  221.263">  2  9  1 -1</clus>
<clus scale="  221.263">  2  5  1 -1</clus>
</clustering>
</event>
<event>
10    2  0.2421970E-006  0.2534479E+03  0.7546771E-02  0.1129721E+00
          3   -1    0    0  503    0 -0.00000000000E+00  0.00000000000E+00  0.25207120435E+03  0.25207120435E+03  0.00000000000E+00 0. -1.
         21   -1    0    0  501  502  0.00000000000E+00 -0.00000000000E+00 -0.64936075775E+03  0.64936075775E+03  0.00000000000E+00 0. -1.
         23    2    1    2    0    0 -0.29602291443E+03  0.53935185739E+01 -0.34744344049E+02  0.31205821471E+03  0.92274070099E+02 0.  0.
         23    2    1    2    0    0  0.92179555207E+02  0.38890868615E+02 -0.14169044272E+03  0.19513324820E+03  0.89393696294E+02 0.  0.
        -13    1    3    3    0    0 -0.17659765109E+03 -0.39716964071E+02 -0.35183242992E+02  0.18439638878E+03  0.00000000000E+00 0. -1.
         13    1    3    3    0    0 -0.11942526334E+03  0.45110482645E+02  0.43889894367E+00  0.12766182593E+03  0.00000000000E+00 0.  1.
        -13    1    4    4    0    0  0.75584654617E+01  0.32802027418E+02 -0.46844754088E+01  0.33985992890E+02  0.00000000000E+00 0.  1.
         13    1    4    4    0    0  0.84621089745E+02  0.60888411970E+01 -0.13700596731E+03  0.16114725531E+03  0.00000000000E+00 0. -1.
         21    1    1    2  503  502  0.14033010718E+03 -0.14720041680E+03 -0.16051933551E+03  0.25908870828E+03  0.00000000000E+00 0. -1.
          3    1    1    2  501    0  0.63513252041E+02  0.10291602961E+03 -0.60335431124E+02  0.13515179090E+03  0.00000000000E+00 0. -1.
<scales pt_clust_5="13000.00000" pt_clust_6="13000.00000" pt_clust_7="13000.00000" pt_clust_8="13000.00000" pt_clust_9="236.05365" pt_clust_10="120.93652"></scales>
<clustering>
<clus scale="   89.394">  7  8 -1 -1</clus>
<clus scale="   92.274">  5  6 -1 -1</clus>
<clus scale="  120.937">  2 10  1 -1</clus>
<clus scale="  159.320">  2  7  1 -1</clus>
<clus scale="  236.054">  2  9  1 -1</clus>
<clus scale="  120.937">  2  5  1 -1</clus>
</clustering>
</event>
<event>
10    2  0.2421970E-006  0.2847988E+03  0.7546771E-02  0.1093268E+00
         21   -1    0    0  503  502  0.00000000000E+00  0.00000000000E+00  0.22299543521E+03  0.22299543521E+03  0.00000000000E+00 0.  1.
         -3   -1    0    0    0  501 -0.00000000000E+00 -0.00000000000E+00 -0.65940868650E+03  0.65940868650E+03  0.00000000000E+00 0.  1.
         23    2    1    2    0    0  0.22172135530E+03  0.24191023261E+02 -0.18502984974E+03  0.30508176063E+03  0.95358640805E+02 0.  0.
         23    2    1    2    0    0 -0.32631616106E+03 -0.40426913494E+02 -0.28378710223E+03  0.44386639815E+03  0.91464133463E+02 0.  0.
        -11    1    4    4    0    0 -0.17871324993E+03 -0.65868157813E+02 -0.17602981426E+03  0.25935214560E+03  0.00000000000E+00 0. -1.
         11    1    4    4    0    0 -0.14760291112E+03  0.25441244319E+02 -0.10775728797E+03  0.18451425255E+03  0.00000000000E+00 0.  1.
        -13    1    3    3    0    0  0.13776670552E+03 -0.31120135861E+02 -0.12013133359E+03  0.18541754317E+03  0.00000000000E+00 0.  1.
         13    1    3    3    0    0  0.83954649780E+02  0.55311159122E+02 -0.64898516150E+02  0.11966421747E+03  0.00000000000E+00 0. -1.
         21    1    1    2  503  501  0.15334802526E+02 -0.14179531001E+02  0.33117680515E+02  0.39153493211E+02  0.00000000000E+00 0.  1.
         -3    1    1    2    0  502  0.89260003234E+02  0.30415421234E+02 -0.71397983946E+00  0.94302469710E+02  0.00000000000E+00 0.  1.
<scales pt_clust_5="13000.00000" pt_clust_6="13000.00000" pt_clust_7="13000.00000" pt_clust_8="13000.00000" pt_clust_9="20.88577" pt_clust_10="96.89867"></scales>
<clustering>
<clus scale="   20.886">  1  9  2 -1</clus>
<clus scale="   91.464">  5  6 -1 -1</clus>
<clus scale="   95.359">  7  8 -1 -1</clus>
<clus scale="   96.899">  1 10  2 -1</clus>
<clus scale="  283.519">  1  5  2 -1</clus>
<clus scale="   20.886">  1  5  2 -1</clus>
</clustering>
</event>
<event>
10    2  0.2421970E-006  0.1108815E+03  0.7546771E-02  0.1261351E+00
         21   -1    0    0  503  502  0.00000000000E+00  0.00000000000E+00  0.24057333026E+02  0.24057333026E+02  0.00000000000E+00 0. -1.
          1   -1    0    0  502    0 -0.00000000000E+00 -0.00000000000E+00 -0.14844200076E+04  0.14844200076E+04  0.00000000000E+00 0. -1.
         23    2    1    2    0    0 -0.39197600507E+02 -0.81691403478E+02 -0.70250093243E+03  0.71480966961E+03  0.96100813865E+02 0.  0.
         23    2    1    2    0    0 -0.34566582038E+02  0.18657564870E+02 -0.28450049695E+03  0.30101488680E+03  0.90146968857E+02 0.  0.
        -13    1    3    3    0    0  0.29032776795E+02 -0.47066379709E+02 -0.27253649012E+03  0.27809042535E+03  0.00000000000E+00 0.  1.
         13    1    3    3    0    0 -0.68230377302E+02 -0.34625023770E+02 -0.42996444231E+03  0.43671924426E+03  0.00000000000E+00 0. -1.
        -13    1    4    4    0    0 -0.50587948910E+02 -0.20264551609E+02 -0.18789487485E+03  0.19563812671E+03  0.00000000000E+00 0. -1.
         13    1    4    4    0    0  0.16021366872E+02  0.38922116479E+02 -0.96605622093E+02  0.10537676009E+03  0.00000000000E+00 0.  1.
         21    1    1    2  503  501  0.13299366241E+02  0.47811715122E+02 -0.78306412340E+02  0.92707752960E+02  0.00000000000E+00 0. -1.
          1    1    1    2  501    0  0.60464816304E+02  0.15222123486E+02 -0.39505483289E+03  0.39994503127E+03  0.00000000000E+00 0. -1.
<scales pt_clust_5="13000.00000" pt_clust_6="13000.00000" pt_clust_7="13000.00000" pt_clust_8="13000.00000" pt_clust_9="49.62694" pt_clust_10="66.21143"></scales>
<clustering>
<clus scale="   49.627">  1  9  2 -1</clus>
<clus scale="   66.211">  1 10  2 -1</clus>
<clus scale="   90.147">  7  8 -1 -1</clus>
<clus scale="   96.101">  5  6 -1 -1</clus>
<clus scale="  105.763">  1  7  2 -1</clus>
<clus scale="   49.627">  1  5  2 -1</clus>
</clustering>
</event>
<event>
10    2  0.2421970E-006  0.2069789E+03  0.7546771E-02  0.1144248E+00
          1   -1    0    0  503    0 -0.00000000000E+00  0.00000000000E+00  0.78691650724E+03  0.78691650724E+03  0.00000000000E+00 0. -1.
         21   -1    0    0  501  502  0.00000000000E+00 -0.00000000000E+00 -0.86532980859E+03  0.86532980859E+03  0.00000000000E+00 0. -1.
         23    2    1    2    0    0 -0.13956852406E+03  0.12067972479E+03  0.74114304793E+03  0.76952878187E+03  0.94013614725E+02 0.  0.
         23    2    1    2    0    0  0.17196388001E+03 -0.77826005863E+02 -0.37161417301E+03  0.42663676863E+03  0.91067972121E+02 0.  0.
        -11    1    4    4    0    0  0.79971642018E+02 -0.23131727319E+02 -0.77827621440E+02  0.11396349852E+03  0.00000000000E+00 0. -1.
         11    1    4    4    0    0  0.91992237989E+02 -0.54694278544E+02 -0.29378655157E+03  0.31267327011E+03  0.00000000000E+00 0.  1.
        -11    1    3    3    0    0 -0.31900929252E+02  0.59153172711E+02  0.13468086013E+03  0.15051810926E+03  0.00000000000E+00 0.  1.
         11    1    3    3    0    0 -0.10766759481E+03  0.61526552076E+02  0.60646218780E+03  0.61901067261E+03  0.00000000000E+00 0. -1.
         21    1    1    2  503  502 -0.33931597392E+02  0.65470962844E+01 -0.14027526832E+03  0.14446926550E+03  0.00000000000E+00 0.  1.
          1    1    1    2  501    0  0.15362414431E+01 -0.49400815209E+02 -0.30766690795E+03  0.31161149983E+03  0.00000000000E+00 0. -1.
<scales pt_clust_5="13000.00000" pt_clust_6="13000.00000" pt_clust_7="13000.00000" pt_clust_8="13000.00000" pt_clust_9="34.55746" pt_clust_10="48.37524"></scales>
<clustering>
<clus scale="   34.557">  2  9  1 -1</clus>
<clus scale="   48.375">  2 10  1 -1</clus>
<clus scale="   91.068">  5  6 -1 -1</clus>
<clus scale="   94.014">  7  8 -1 -1</clus>
<clus scale="  205.658">  2  5  1 -1</clus>
<clus scale="   34.557">  2  5  1 -1</clus>
</clustering>
</event>
<event>
10    2  0.2421970E-006  0.1221943E+03  0.7546771E-02  0.1242330E+00
         -3   -1    0    0    0  501 -0.00000000000E+00  0.00000000000E+00  0.66301399751E+02  0.66301399751E+02  0.00000000000E+00 0.  1.
         21   -1    0    0  503  502  0.00000000000E+00 -0.00000000000E+00 -0.47972609694E+03  0.47972609694E+03  0.00000000000E+00 0.  1.
         23    2    1    2    0    0 -0.86369689379E+02  0.25624070242E+01 -0.71522344218E+02  0.14743332815E+03  0.95680987421E+02 0.  0.
         23    2    1    2    0    0  0.28146142380E+02  0.23089748163E+02 -0.16050431778E+03  0.19455004151E+03  0.10374363029E+03 0.  0.
        -13    1    3    3    0    0 -0.88688387257E+02 -0.20875665725E+02 -0.23728433543E+02  0.94151271962E+02  0.00000000000E+00 0.  1.
         13    1    3    3    0    0  0.23186978778E+01  0.23438072749E+02 -0.47793910675E+02  0.53282056189E+02  0.00000000000E+00 0. -1.
        -13    1    4    4    0    0  0.33584040386E+02  0.61990805270E+02 -0.97932918611E+02  0.12067147241E+03  0.00000000000E+00 0.  1.
         13    1    4    4    0    0 -0.54378980057E+01 -0.38901057106E+02 -0.62571399165E+02  0.73878569099E+02  0.00000000000E+00 0. -1.
         21    1    1    2  503  501  0.48266730342E+02  0.62698027624E+00 -0.49325929051E+02  0.69015343504E+02  0.00000000000E+00 0.  1.
         -3    1    1    2    0  502  0.99568166566E+01 -0.26279135464E+02 -0.13207210614E+03  0.13502878352E+03  0.00000000000E+00 0.  1.
<scales pt_clust_5="13000.00000" pt_clust_6="13000.00000" pt_clust_7="13000.00000" pt_clust_8="13000.00000" pt_clust_9="50.11785" pt_clust_10="28.10216"></scales>
<clustering>
<clus scale="   28.102">  2 10  1 -1</clus>
<clus scale="   50.118">  2  9  1 -1</clus>
<clus scale="   95.681">  5  6 -1 -1</clus>
<clus scale="  103.744">  7  8 -1 -1</clus>
<clus scale="  115.428">  1  5  2 -1</clus>
<clus scale="   28.102">  2  5  1 -1</clus>
</clustering>
</event>
<event>
10    2  0.2421970E-006  0.1004939E+03  0.7546771E-02  0.1280234E+00
         -1   -1    0    0    0  501 -0.00000000000E+00  0.00000000000E+00  0.14300492096E+03  0.14300492096E+03  0.00000000000E+00 0.  1.
         21   -1    0    0  503  502  0.00000000000E+00 -0.00000000000E+00 -0.49426510035E+03  0.49426510035E+03  0.00000000000E+00 0. -1.
         23    2    1    2    0    0 -0.36604697010E+02 -0.22817825841E+02  0.14871781020E+02  0.99463723984E+02  0.88381590271E+02 0.  0.
         23    2    1    2    0    0  0.47780528667E+02 -0.47528015786E+02  0.30655693182E+02  0.11687818537E+03  0.90436980748E+02 0.  0.
        -13    1    3    3    0    0 -0.52081946425E+02 -0.44845806385E+02  0.44604321986E-01  0.68729014857E+02  0.00000000000E+00 0. -1.
         13    1    3    3    0    0  0.15477249415E+02  0.22027980544E+02  0.14827176698E+02  0.30734709127E+02  0.00000000000E+00 0.  1.
        -13    1    4    4    0    0  0.35197913797E+02  0.64356905721E+01  0.47033685976E+02  0.59097198456E+02  0.00000000000E+00 0.  1.
         13    1    4    4    0    0  0.12582614870E+02 -0.53963706358E+02 -0.16377992795E+02  0.57780986915E+02  0.00000000000E+00 0. -1.
         21    1    1    2  503  501 -0.23934953786E+02  0.10280216536E+03 -0.30401878509E+03  0.32182074032E+03  0.00000000000E+00 0. -1.
         -1    1    1    2    0  502  0.12759122129E+02 -0.32456323734E+02 -0.92768868504E+02  0.99107371630E+02  0.00000000000E+00 0.  1.
<scales pt_clust_5="13000.00000" pt_clust_6="13000.00000" pt_clust_7="13000.00000" pt_clust_8="13000.00000" pt_clust_9="78.54673" pt_clust_10="34.87418"></scales>
<clustering>
<clus scale="   34.874">  2 10  1 -1</clus>
<clus scale="   78.547">  2  9  1 -1</clus>
<clus scale="   88.382">  5  6 -1 -1</clus>
<clus scale="   90.437">  7  8 -1 -1</clus>
<clus scale="   98.648">  1  5  2 -1</clus>
<clus scale="   34.874">  2  5  1 -1</clus>
</clustering>
</event>
<event>
10    2  0.2421970E-006  0.1406344E+03  0.7546771E-02  0.1231746E+00
         21   -1    0    0  501  502  0.00000000000E+00  0.00000000000E+00  0.75213793207E+02  0.75213793207E+02  0.00000000000E+00 0.  1.
          1   -1    0    0  503    0 -0.00000000000E+00 -0.00000000000E+00 -0.59394139520E+03  0.59394139520E+03  0.00000000000E+00 0. -1.
         23    2    1    2    0    0 -0.38399879025E+02  0.11075747889E+03 -0.37489366840E+03  0.40312629153E+03  0.90685028976E+02 0.  0.
         23    2    1    2    0    0 -0.14128442466E+02 -0.14401630148E+02 -0.77039761691E+02  0.12187875012E+03  0.92262045347E+02 0.  0.
        -11    1    3    3    0    0 -0.35186396271E+02  0.55004926759E+02 -0.81332465276E+02  0.10430050028E+03  0.00000000000E+00 0.  1.
         11    1    3    3    0    0 -0.32134827541E+01  0.55752552134E+02 -0.29356120312E+03  0.29882579126E+03  0.00000000000E+00 0. -1.
        -13    1    4    4    0    0 -0.44205288913E+02 -0.36104676326E+02 -0.42092820174E+02  0.70918690983E+02  0.00000000000E+00 0.  1.
         13    1    4    4    0    0  0.30076846448E+02  0.21703046179E+02 -0.34946941517E+02  0.50960059135E+02  0.00000000000E+00 0. -1.
         21    1    1    2  503  502  0.15627141002E+02 -0.86417286940E+02 -0.35372898976E+02  0.94675218510E+02  0.00000000000E+00 0.  1.
          1    1    1    2  501    0  0.36901180489E+02 -0.99385618053E+01 -0.31421272923E+02  0.49474928239E+02  0.00000000000E+00 0. -1.
<scales pt_clust_5="13000.00000" pt_clust_6="13000.00000" pt_clust_7="13000.00000" pt_clust_8="13000.00000" pt_clust_9="107.49080" pt_clust_10="38.21612"></scales>
<clustering>
<clus scale="   38.216">  1 10  2 -1</clus>
<clus scale="   90.685">  5  6 -1 -1</clus>
<clus scale="   92.262">  7  8 -1 -1</clus>
<clus scale="   93.972">  1  7  2 -1</clus>
<clus scale="  107.491">  1  9  2 -1</clus>
<clus scale="   38.216">  1  5  2 -1</clus>
</clustering>
</event>
<event>
10    2  0.2421970E-006  0.2745891E+03  0.7546771E-02  0.1098752E+00
         21   -1    0    0  501  502  0.00000000000E+00  0.00000000000E+00  0.28772672822E+03  0.28772672822E+03  0.00000000000E+00 0. -1.
          1   -1    0    0  503    0 -0.00000000000E+00 -0.00000000000E+00 -0.46609057748E+03  0.46609057748E+03  0.00000000000E+00 0. -1.
         23    2    1    2    0    0  0.16047931154E+03 -0.19549165778E+03 -0.20404106764E+03  0.33688885537E+03  0.88829870522E+02 0.  0.
         23    2    1    2    0    0 -0.21877642194E+03  0.18525408641E+03  0.99159983113E+02  0.31651329484E+03  0.90364618268E+02 0.  0.
        -13    1    4    4    0    0 -0.19600546812E+03  0.17013420402E+03  0.56145224636E+02  0.26554863426E+03  0.00000000000E+00 0. -1.
         13    1    4    4    0    0 -0.22770953825E+02  0.15119882386E+02  0.43014758477E+02  0.50964660582E+02  0.00000000000E+00 0.  1.
        -13    1    3    3    0    0  0.16667488452E+03 -0.16822041567E+03 -0.19702930276E+03  0.30805709134E+03  0.00000000000E+00 0. -1.
         13    1    3    3    0    0 -0.61955729757E+01 -0.27271242109E+02 -0.70117648781E+01  0.28831764035E+02  0.00000000000E+00 0.  1.
         21    1    1    2  503  502  0.15006922210E+02  0.18160037519E+02 -0.18292060640E+02  0.29826065100E+02  0.00000000000E+00 0.  1.
          1    1    1    2  501    0  0.43290188193E+02 -0.79224661470E+01 -0.55190704091E+02  0.70589090387E+02  0.00000000000E+00 0. -1.
<scales pt_clust_5="13000.00000" pt_clust_6="13000.00000" pt_clust_7="13000.00000" pt_clust_8="13000.00000" pt_clust_9="23.55833" pt_clust_10="45.73797"></scales>
<clustering>
<clus scale="   23.558">  2  9  1 -1</clus>
<clus scale="   45.738">  1 10  2 -1</clus>
<clus scale="   88.830">  7  8 -1 -1</clus>
<clus scale="   90.365">  5  6 -1 -1</clus>
<clus scale="  274.088">  2  7  1 -1</clus>
<clus scale="   45.738">  1  5  2 -1</clus>
</clustering>
</event>
<event>
10    2  0.2421970E-006  0.1000997E+03  0.7546771E-02  0.1281062E+00
          2   -1    0    0  503    0 -0.00000000000E+00  0.00000000000E+00  0.33829001315E+03  0.33829001315E+03  0.00000000000E+00 0. -1.
         21   -1    0    0  501  502  0.00000000000E+00 -0.00000000000E+00 -0.54175044305E+03  0.54175044305E+03  0.00000000000E+00 0.  1.
         23    2    1    2    0    0  0.40214412003E+02 -0.28456794721E+02  0.19318721701E+03  0.22000640695E+03  0.93029727423E+02 0.  0.
         23    2    1    2    0    0 -0.22293629142E+02  0.41996403219E+01  0.11073567354E+03  0.14514324681E+03  0.91046855080E+02 0.  0.
        -11    1    4    4    0    0 -0.37539926630E+02  0.38176811969E+02  0.82741313602E+02  0.98553741888E+02  0.00000000000E+00 0.  1.
         11    1    4    4    0    0  0.15246297488E+02 -0.33977171647E+02  0.27994359940E+02  0.46589504920E+02  0.00000000000E+00 0. -1.
        -13    1    3    3    0    0  0.36048951300E+02 -0.53727152691E+02  0.17984276833E+03  0.19112706545E+03  0.00000000000E+00 0. -1.
         13    1    3    3    0    0  0.41654607025E+01  0.25270357970E+02  0.13344448672E+02  0.28879341494E+02  0.00000000000E+00 0.  1.
         21    1    1    2  503  502 -0.32031321470E+02  0.48809176391E+02 -0.30515434108E+03  0.31068877214E+03  0.00000000000E+00 0.  1.
          2    1    1    2  501    0  0.14110538609E+02 -0.24552021991E+02 -0.20222897936E+03  0.20420203030E+03  0.00000000000E+00 0. -1.
<scales pt_clust_5="13000.00000" pt_clust_6="13000.00000" pt_clust_7="13000.00000" pt_clust_8="13000.00000" pt_clust_9="32.70425" pt_clust_10="28.31800"></scales>
<clustering>
<clus scale="   28.318">  2 10  1 -1</clus>
<clus scale="   32.704">  2  9  1 -1</clus>
<clus scale="   91.047">  5  6 -1 -1</clus>
<clus scale="   93.030">  7  8 -1 -1</clus>
<clus scale="   98.260">  2  5  1 -1</clus>
<clus scale="   28.318">  2  5  1 -1</clus>
</clustering>
</event>
<event>
10    2  0.2421970E-006  0.9999699E+02  0.7546771E-02  0.1280357E+00
         21   -1    0    0  501  502  0.00000000000E+00  0.00000000000E+00  0.16296481730E+03  0.16296481730E+03  0.00000000000E+00 0.  1.
          1   -1    0    0  503    0 -0.00000000000E+00 -0.00000000000E+00 -0.45264812729E+03  0.45264812729E+03  0.00000000000E+00 0. -1.
         23    2    1    2    0    0  0.45446361946E+02  0.19666909689E+02 -0.28172360027E+03  0.29946223176E+03  0.88641311788E+02 0.  0.
         23    2    1    2    0    0 -0.44530924408E+02  0.68651101577E+01 -0.13559897463E+03  0.16808854539E+03  0.88524257716E+02 0.  0.
        -13    1    3    3    0    0  0.67024429774E+02 -0.26233859439E+01 -0.15307930071E+03  0.16712997530E+03  0.00000000000E+00 0. -1.
         13    1    3    3    0    0 -0.21578067829E+02  0.22290295633E+02 -0.12864429956E+03  0.13233225646E+03  0.00000000000E+00 0.  1.
        -13    1    4    4    0    0 -0.31136823973E+02  0.38257711386E+02 -0.12155368521E+03  0.13118099205E+03  0.00000000000E+00 0. -1.
         13    1    4    4    0    0 -0.13394100434E+02 -0.31392601228E+02 -0.14045289417E+02  0.36907553334E+02  0.00000000000E+00 0.  1.
         21    1    1    2  503  502  0.16567541255E+01 -0.48093444003E+02  0.59373038906E+02  0.76425662831E+02  0.00000000000E+00 0.  1.
          1    1    1    2  501    0 -0.25721916636E+01  0.21561424157E+02  0.68266225996E+02  0.71636504614E+02  0.00000000000E+00 0. -1.
<scales pt_clust_5="13000.00000" pt_clust_6="13000.00000" pt_clust_7="13000.00000" pt_clust_8="13000.00000" pt_clust_9="32.35447" pt_clust_10="21.71431"></scales>
<clustering>
<clus scale="   21.714">  1 10  2 -1</clus>
<clus scale="   32.354">  1  9  2 -1</clus>
<clus scale="   88.524">  7  8 -1 -1</clus>
<clus scale="   88.641">  5  6 -1 -1</clus>
<clus scale="   99.893">  1  7  2 -1</clus>
<clus scale="   21.714">  1  5  2 -1</clus>
</clustering>
</event>
<event>
10    2  0.2421970E-006  0.1064650E+03  0.7546771E-02  0.1267921E+00
         21   -1    0    0  501  502  0.00000000000E+00  0.00000000000E+00  0.28390409873E+03  0.28390409873E+03  0.00000000000E+00 0.  1.
         -3   -1    0    0    0  501 -0.00000000000E+00 -0.00000000000E+00 -0.46498856832E+03  0.46498856832E+03  0.00000000000E+00 0.  1.
         23    2    1    2    0    0  0.28016511608E+02 -0.49936514902E+02 -0.38621740465E+03  0.40122578255E+03  0.92410305079E+02 0.  0.
         23    2    1    2    0    0  0.21517037652E+02  0.23628722475E+02 -0.20825262326E+02  0.10140022316E+03  0.93952191413E+02 0.  0.
        -11    1    4    4    0    0 -0.36293535682E+02 -0.12142465480E+01 -0.72830737457E+01  0.37036985436E+02  0.00000000000E+00 0. -1.
         11    1    4    4    0    0  0.57810573335E+02  0.24842969023E+02 -0.13542188580E+02  0.64363237727E+02  0.00000000000E+00 0.  1.
        -13    1    3    3    0    0  0.31698985670E+02  0.20509529499E+02 -0.15177037975E+03  0.15639601869E+03  0.00000000000E+00 0.  1.
         13    1    3    3    0    0 -0.36824740622E+01 -0.70446044401E+02 -0.23444702490E+03  0.24482976386E+03  0.00000000000E+00 0. -1.
         21    1    1    2  503  502  0.14545163488E+02 -0.15621237842E+02  0.50509238249E+02  0.54834004059E+02  0.00000000000E+00 0. -1.
         -3    1    1    2    0  503 -0.64078712748E+02  0.41929030269E+02  0.17544895915E+03  0.19143265728E+03  0.00000000000E+00 0.  1.
<scales pt_clust_5="13000.00000" pt_clust_6="13000.00000" pt_clust_7="13000.00000" pt_clust_8="13000.00000" pt_clust_9="21.34443" pt_clust_10="60.27295"></scales>
<clustering>
<clus scale="   21.344">  1  9  2 -1</clus>
<clus scale="   60.273">  1 10  2 -1</clus>
<clus scale="   92.410">  7  8 -1 -1</clus>
<clus scale="   93.952">  5  6 -1 -1</clus>
<clus scale="  105.107">  2  7  1 -1</clus>
<clus scale="   21.344">  1  5  2 -1</clus>
</clustering>
</event>
<event>
10    2  0.2421970E-006  0.2045172E+03  0.7546771E-02  0.1173327E+00
         21   -1    0    0  501  502  0.00000000000E+00  0.00000000000E+00  0.67428718201E+03  0.67428718201E+03  0.00000000000E+00 0.  1.
         -3   -1    0    0    0  501 -0.00000000000E+00 -0.00000000000E+00 -0.49765280026E+03  0.49765280026E+03  0.00000000000E+00 0.  1.
         23    2    1    2    0    0  0.59686957176E+02  0.15889466104E+02 -0.40508350169E+03  0.41927580584E+03  0.88794988766E+02 0.  0.
         23    2    1    2    0    0  0.14248260221E+02  0.17849223211E+03  0.45848327350E+03  0.50001754970E+03  0.88023565506E+02 0.  0.
        -11    1    3    3    0    0 -0.35520607113E+01 -0.29260250205E+02 -0.87766833625E+02  0.92583996792E+02  0.00000000000E+00 0.  1.
         11    1    3    3    0    0  0.63239017887E+02  0.45149716310E+02 -0.31731666807E+03  0.32669180905E+03  0.00000000000E+00 0. -1.
        -13    1    4    4    0    0  0.12982207585E+02  0.12225117168E+03  0.40167940576E+03  0.42007169829E+03  0.00000000000E+00 0.  1.
         13    1    4    4    0    0  0.12660526362E+01  0.56241060430E+02  0.56803867742E+02  0.79945851412E+02  0.00000000000E+00 0. -1.
         21    1    1    2  503  502 -0.53731960815E+02 -0.10376779809E+03  0.10691437088E+03  0.15838422344E+03  0.00000000000E+00 0.  1.
         -3    1    1    2    0  503 -0.20203256582E+02 -0.90613900121E+02  0.16320239059E+02  0.94262403293E+02  0.00000000000E+00 0.  1.
<scales pt_clust_5="13000.00000" pt_clust_6="13000.00000" pt_clust_7="13000.00000" pt_clust_8="13000.00000" pt_clust_9="65.45662" pt_clust_10="198.67577"></scales>
<clustering>
<clus scale="   65.457">  9 10 -1 -1</clus>
<clus scale="   88.024">  7  8 -1 -1</clus>
<clus scale="   88.795">  5  6 -1 -1</clus>
<clus scale="  108.164">  2  5  1 -1</clus>
<clus scale="  198.676">  1  9  2 -1</clus>
<clus scale="  198.676">  1  5  2 -1</clus>
</clustering>
</event>
<event>
10    2  0.2421970E-006  0.1245274E+03  0.7546771E-02  0.1235999E+00
         21   -1    0    0  501  502  0.00000000000E+00  0.00000000000E+00  0.22213695067E+03  0.22213695067E+03  0.00000000000E+00 0. -1.
          1   -1    0    0  503    0 -0.00000000000E+00 -0.00000000000E+00 -0.30926552954E+03  0.30926552954E+03  0.00000000000E+00 0. -1.
         23    2    1    2    0    0  0.76194641990E+02  0.51162787392E+02 -0.24404579716E+03  0.27622125534E+03  0.91195265814E+02 0.  0.
         23    2    1    2    0    0 -0.37472230464E+02  0.12715068573E+02  0.12104652010E+03  0.15625268144E+03  0.90536177308E+02 0.  0.
        -11    1    4    4    0    0 -0.60469297929E+02  0.45137661229E+01  0.42630019592E+02  0.74123064204E+02  0.00000000000E+00 0.  1.
         11    1    4    4    0    0  0.22997067465E+02  0.82013024505E+01  0.78416500513E+02  0.82129617231E+02  0.00000000000E+00 0. -1.
        -13    1    3    3    0    0  0.32957050212E+01 -0.24181759676E+02 -0.51258962952E+02  0.56772356439E+02  0.00000000000E+00 0.  1.
         13    1    3    3    0    0  0.72898936969E+02  0.75344547068E+02 -0.19278683421E+03  0.21944889890E+03  0.00000000000E+00 0. -1.
         21    1    1    2  503  502 -0.19410329880E+02 -0.69381545495E+02  0.26448085622E+02  0.76746732793E+02  0.00000000000E+00 0. -1.
          1    1    1    2  501    0 -0.19312081646E+02  0.55036895297E+01  0.94226125697E+01  0.22181810647E+02  0.00000000000E+00 0. -1.
<scales pt_clust_5="13000.00000" pt_clust_6="13000.00000" pt_clust_7="13000.00000" pt_clust_8="13000.00000" pt_clust_9="72.19609" pt_clust_10="20.08101"></scales>
<clustering>
<clus scale="   20.081">  1 10  2 -1</clus>
<clus scale="   72.196">  1  9  2 -1</clus>
<clus scale="   90.536">  5  6 -1 -1</clus>
<clus scale="   91.195">  7  8 -1 -1</clus>
<clus scale="  124.046">  1  5  2 -1</clus>
<clus scale="   20.081">  1  5  2 -1</clus>
</clustering>
</event>
<event>
10    2  0.2421970E-006  0.2823710E+03  0.7546771E-02  0.1138847E+00
         -1   -1    0    0    0  501 -0.00000000000E+00  0.00000000000E+00  0.55498604729E+02  0.55498604729E+02  0.00000000000E+00 0.  1.
         21   -1    0    0  501  502  0.00000000000E+00 -0.00000000000E+00 -0.22787612127E+04  0.22787612127E+04  0.00000000000E+00 0.  1.
         23    2    1    2    0    0  0.28314400551E+02  0.97534927066E+01 -0.87476125358E+02  0.12711840836E+03  0.87236353309E+02 0.  0.
         23    2    1    2    0    0  0.17001227279E+03  0.18796461621E+03 -0.95596395984E+03  0.99318742000E+03  0.91210135825E+02 0.  0.
        -11    1    4    4    0    0  0.60677062569E+02  0.42902855638E+02 -0.15513758355E+03  0.17201753043E+03  0.00000000000E+00 0.  1.
         11    1    4    4    0    0  0.10933521022E+03  0.14506176057E+03 -0.80082637629E+03  0.82116988957E+03  0.00000000000E+00 0. -1.
        -11    1    3    3    0    0  0.15990841094E+02 -0.18848964101E+02  0.85600268857E+01  0.26158450009E+02  0.00000000000E+00 0.  1.
         11    1    3    3    0    0  0.12323559456E+02  0.28602456808E+02 -0.96036152244E+02  0.10095995835E+03  0.00000000000E+00 0. -1.
         21    1    1    2  503  502 -0.16599633566E+02 -0.33272983294E+02 -0.23181287461E+03  0.23477616593E+03  0.00000000000E+00 0. -1.
         -1    1    1    2    0  503 -0.18172703978E+03 -0.16444512562E+03 -0.94800964816E+03  0.97917782314E+03  0.00000000000E+00 0.  1.
<scales pt_clust_5="13000.00000" pt_clust_6="13000.00000" pt_clust_7="13000.00000" pt_clust_8="13000.00000" pt_clust_9="22.29814" pt_clust_10="273.29701"></scales>
<clustering>
<clus scale="   22.298">  9 10 -1 -1</clus>
<clus scale="   87.236">  7  8 -1 -1</clus>
<clus scale="   91.210">  5  6 -1 -1</clus>
<clus scale="   92.233">  1  7  2 -1</clus>
<clus scale="  273.297">  2  9  1 -1</clus>
<clus scale="  273.297">  2  5  1 -1</clus>
</clustering>
</event>
<event>
10    2  0.2421970E-006  0.2002498E+03  0.7546771E-02  0.1149625E+00
         21   -1    0    0  503  502  0.00000000000E+00  0.00000000000E+00  0.96702582032E+02  0.96702582032E+02  0.00000000000E+00 0.  1.
          1   -1    0    0  502    0 -0.00000000000E+00 -0.00000000000E+00 -0.73032262437E+03  0.73032262437E+03  0.00000000000E+00 0. -1.
         23    2    1    2    0    0  0.11827161652E+03  0.12543826334E+03 -0.41662114759E+03  0.46004393998E+03  0.91347210734E+02 0.  0.
         23    2    1    2    0    0 -0.15673035214E+03 -0.10949475412E+03 -0.20692637790E+03  0.29647891265E+03  0.92345629638E+02 0.  0.
        -13    1    3    3    0    0  0.48084354144E+02  0.11364814169E+03 -0.24750847813E+03  0.27656545694E+03  0.00000000000E+00 0. -1.
         13    1    3    3    0    0  0.70187262376E+02  0.11790121646E+02 -0.16911266946E+03  0.18347848304E+03  0.00000000000E+00 0.  1.
        -13    1    4    4    0    0 -0.60025635601E+02 -0.97983312769E+02 -0.10959538698E+03  0.15879217662E+03  0.00000000000E+00 0. -1.
         13    1    4    4    0    0 -0.96704716544E+02 -0.11511441350E+02 -0.97330990930E+02  0.13768673603E+03  0.00000000000E+00 0.  1.
         21    1    1    2  503  501  0.74516289899E+01 -0.27799078599E+02  0.11411760472E+02  0.30960358891E+02  0.00000000000E+00 0.  1.
          1    1    1    2  501    0  0.31007106636E+02  0.11855569379E+02 -0.21484277318E+02  0.39541994880E+02  0.00000000000E+00 0. -1.
<scales pt_clust_5="13000.00000" pt_clust_6="13000.00000" pt_clust_7="13000.00000" pt_clust_8="13000.00000" pt_clust_9="28.78047" pt_clust_10="33.01935"></scales>
<clustering>
<clus scale="   28.780">  1  9  2 -1</clus>
<clus scale="   33.019">  1 10  2 -1</clus>
<clus scale="   91.347">  5  6 -1 -1</clus>
<clus scale="   92.346">  7  8 -1 -1</clus>
<clus scale="  199.791">  2  5  1 -1</clus>
<clus scale="   28.780">  1  5  2 -1</clus>
</clustering>
</event>
<event>
10    2  0.2421970E-006  0.1003805E+03  0.7546771E-02  0.1279977E+00
          1   -1    0    0  503    0 -0.00000000000E+00  0.00000000000E+00  0.73334908551E+03  0.73334908551E+03  0.00000000000E+00 0. -1.
         21   -1    0    0  501  502  0.00000000000E+00 -0.00000000000E+00 -0.86516837713E+02  0.86516837713E+02  0.00000000000E+00 0. -1.
         23    2    1    2    0    0  0.60434554052E+02  0.12900629042E+02  0.39945199311E+03  0.41448723954E+03  0.91755192691E+02 0.  0.
         23    2    1    2    0    0  0.31501848577E+02 -0.43649998909E+02  0.12030561054E+03  0.16002507937E+03  0.90757353603E+02 0.  0.
        -13    1    4    4    0    0  0.51589724793E+02  0.59817978136E+01  0.61502588043E+02  0.80497515149E+02  0.00000000000E+00 0. -1.
         13    1    4    4    0    0 -0.20087876216E+02 -0.49631796722E+02  0.58803022495E+02  0.79527564224E+02  0.00000000000E+00 0.  1.
        -13    1    3    3    0    0  0.25811742970E+01  0.40172991469E+02  0.22731301134E+03  0.23085003103E+03  0.00000000000E+00 0. -1.
         13    1    3    3    0    0  0.57853379755E+02 -0.27272362428E+02  0.17213898178E+03  0.18363720851E+03  0.00000000000E+00 0.  1.
         21    1    1    2  503  502 -0.53493122563E+02  0.44736409111E+02  0.17139570092E+03  0.18503877095E+03  0.00000000000E+00 0. -1.
          1    1    1    2  501    0 -0.38443280066E+02 -0.13987039245E+02 -0.44321056776E+02  0.60314833356E+02  0.00000000000E+00 0. -1.
<scales pt_clust_5="13000.00000" pt_clust_6="13000.00000" pt_clust_7="13000.00000" pt_clust_8="13000.00000" pt_clust_9="74.16338" pt_clust_10="40.90872"></scales>
<clustering>
<clus scale="   40.909">  2 10  1 -1</clus>
<clus scale="   74.163">  1  9  2 -1</clus>
<clus scale="   90.757">  5  6 -1 -1</clus>
<clus scale="   91.755">  7  8 -1 -1</clus>
<clus scale="   99.469">  2  5  1 -1</clus>
<clus scale="   40.909">  2  5  1 -1</clus>
</clustering>
</event>
<event>
10    2  0.2421970E-006  0.1143370E+03  0.7546771E-02  0.1254382E+00
         21   -1    0    0  501  502  0.00000000000E+00  0.00000000000E+00  0.15725049937E+03  0.15725049937E+03  0.00000000000E+00 0.  1.
          1   -1    0    0  503    0 -0.00000000000E+00 -0.00000000000E+00 -0.21704530280E+03  0.21704530280E+03  0.00000000000E+00 0. -1.
         23    2    1    2    0    0  0.10617425483E+03 -0.45830805058E+02 -0.69649509521E+02  0.16535392382E+03  0.95485238993E+02 0.  0.
         23    2    1    2    0    0 -0.10627068518E+02  0.15524482208E+02 -0.42475241518E+01  0.93088739623E+02  0.91068808327E+02 0.  0.
        -11    1    4    4    0    0  0.11309729032E+02  0.46294908796E+02 -0.20593518121E+02  0.51915523110E+02  0.00000000000E+00 0. -1.
         11    1    4    4    0    0 -0.21936797550E+02 -0.30770426588E+02  0.16345993970E+02  0.41173216512E+02  0.00000000000E+00 0.  1.
        -11    1    3    3    0    0  0.45671201924E+02 -0.59691578286E+02 -0.70825369297E+02  0.10327233966E+03  0.00000000000E+00 0.  1.
         11    1    3    3    0    0  0.60503052902E+02  0.13860773229E+02  0.11758597761E+01  0.62081584155E+02  0.00000000000E+00 0. -1.
         21    1    1    2  503  502 -0.30138952113E+02  0.20713462496E+01 -0.20643418763E+02  0.36589583872E+02  0.00000000000E+00 0. -1.
          1    1    1    2  501    0 -0.65408234195E+02  0.28234976600E+02  0.34745649005E+02  0.79263554859E+02  0.00000000000E+00 0. -1.
<scales pt_clust_5="13000.00000" pt_clust_6="13000.00000" pt_clust_7="13000.00000" pt_clust_8="13000.00000" pt_clust_9="30.21005" pt_clust_10="74.61735"></scales>
<clustering>
<clus scale="   30.210">  2  9  1 -1</clus>
<clus scale="   74.617">  1 10  2 -1</clus>
<clus scale="   91.069">  5  6 -1 -1</clus>
<clus scale="   95.485">  7  8 -1 -1</clus>
<clus scale="  110.675">  1  5  2 -1</clus>
<clus scale="   74.617">  1  5  2 -1</clus>
</clustering>
</event>
<event>
10    2  0.2421970E-006  0.1400670E+03  0.7546771E-02  0.1213580E+00
         21   -1    0    0  503  502  0.00000000000E+00  0.00000000000E+00  0.58564449073E+02  0.58564449073E+02  0.00000000000E+00 0.  1.
          2   -1    0    0  502    0 -0.00000000000E+00 -0.00000000000E+00 -0.55498730068E+03  0.55498730068E+03  0.00000000000E+00 0. -1.
         23    2    1    2    0    0  0.15226184514E+02 -0.98660801717E+02 -0.22723154845E+03  0.26464405508E+03  0.91850469730E+02 0.  0.
         23    2    1    2    0    0 -0.68338396372E+02  0.10066519429E+03 -0.16730208951E+03  0.22571645744E+03  0.90301230568E+02 0.  0.
        -11    1    4    4    0    0 -0.78144800197E+02  0.77917049269E+02 -0.83650613506E+02  0.13847419075E+03  0.00000000000E+00 0.  1.
         11    1    4    4    0    0  0.98064038257E+01  0.22748145018E+02 -0.83651476007E+02  0.87242266683E+02  0.00000000000E+00 0. -1.
        -13    1    3    3    0    0 -0.17301047453E+02 -0.19597297149E+02 -0.51081545674E+01  0.26635944541E+02  0.00000000000E+00 0.  1.
         13    1    3    3    0    0  0.32527231967E+02 -0.79063504568E+02 -0.22212339388E+03  0.23800811054E+03  0.00000000000E+00 0. -1.
         21    1    1    2  503  501  0.20171614762E+02  0.94612875573E+01 -0.91069313374E+01  0.24069611603E+02  0.00000000000E+00 0.  1.
          2    1    1    2  501    0  0.32940597096E+02 -0.11465680128E+02 -0.92782282306E+02  0.99121625631E+02  0.00000000000E+00 0. -1.
<scales pt_clust_5="13000.00000" pt_clust_6="13000.00000" pt_clust_7="13000.00000" pt_clust_8="13000.00000" pt_clust_9="22.28026" pt_clust_10="35.88111"></scales>
<clustering>
<clus scale="   22.280">  1  9  2 -1</clus>
<clus scale="   35.881">  1 10  2 -1</clus>
<clus scale="   90.301">  5  6 -1 -1</clus>
<clus scale="   91.850">  7  8 -1 -1</clus>
<clus scale="  139.056">  1  5  2 -1</clus>
<clus scale="   22.280">  1  5  2 -1</clus>
</clustering>
</event>
<event>
10    2  0.2421970E-006  0.1942358E+03  0.7546771E-02  0.1183360E+00
          1   -1    0    0  502    0 -0.00000000000E+00  0.00000000000E+00  0.10541587439E+04  0.10541587439E+04  0.00000000000E+00 0. -1.
         21   -1    0    0  503  502  0.00000000000E+00 -0.00000000000E+00 -0.66443353849E+02  0.66443353849E+02  0.00000000000E+00 0. -1.
         23    2    1    2    0    0  0.26815099754E+02 -0.29527317603E+02  0.26590539116E+03  0.28433623181E+03  0.92468933245E+02 0.  0.
         23    2    1    2    0    0  0.14566517083E+03 -0.17860443952E+02  0.57566287724E+03  0.60125691496E+03  0.92654153186E+02 0.  0.
        -11    1    3    3    0    0 -0.28629539746E+02 -0.16174633537E+02  0.42326906162E+02  0.53598846083E+02  0.00000000000E+00 0.  1.
         11    1    3    3    0    0  0.55444639500E+02 -0.13352684066E+02  0.22357848499E+03  0.23073738573E+03  0.00000000000E+00 0. -1.
        -13    1    4    4    0    0  0.76889587078E+02 -0.55803821320E+02  0.31317849836E+03  0.32727182419E+03  0.00000000000E+00 0. -1.
         13    1    4    4    0    0  0.68775583749E+02  0.37943377368E+02  0.26248437888E+03  0.27398509077E+03  0.00000000000E+00 0.  1.
         21    1    1    2  503  501 -0.28630349907E+02  0.23661125523E+02  0.19824021302E+02  0.42101515618E+02  0.00000000000E+00 0. -1.
          1    1    1    2  501    0 -0.14384992067E+03  0.23726636032E+02  0.12632310036E+03  0.19290743537E+03  0.00000000000E+00 0. -1.
<scales pt_clust_5="13000.00000" pt_clust_6="13000.00000" pt_clust_7="13000.00000" pt_clust_8="13000.00000" pt_clust_9="21.85680" pt_clust_10="176.11914"></scales>
<clustering>
<clus scale="   21.857">  9 10 -1 -1</clus>
<clus scale="   92.469">  5  6 -1 -1</clus>
<clus scale="   92.654">  7  8 -1 -1</clus>
<clus scale="  100.705">  1  5  2 -1</clus>
<clus scale="  176.119">  2  9  1 -1</clus>
<clus scale="  176.119">  2  5  1 -1</clus>
</clustering>
</event>
<event>
10    2  0.2421970E-006  0.1055006E+03  0.7546771E-02  0.1272086E+00
          4   -1    0    0  502    0 -0.00000000000E+00  0.00000000000E+00  0.78394343907E+02  0.78394343907E+02  0.00000000000E+00 0.  1.
         21   -1    0    0  503  502  0.00000000000E+00 -0.00000000000E+00 -0.39256417363E+03  0.39256417363E+03  0.00000000000E+00 0. -1.
         23    2    1    2    0    0  0.33419835567E+02  0.42391983458E+02  0.12265533425E+02  0.10961665995E+03  0.94611855271E+02 0.  0.
         23    2    1    2    0    0 -0.21684522366E+02 -0.14362880082E+02 -0.13080847130E+03  0.15981134410E+03  0.88047139098E+02 0.  0.
        -11    1    4    4    0    0  0.26492864526E+02 -0.91642044816E+01 -0.96366311930E+02  0.10036095152E+03  0.00000000000E+00 0.  1.
         11    1    4    4    0    0 -0.48177386892E+02 -0.51986756002E+01 -0.34442159374E+02  0.59450392581E+02  0.00000000000E+00 0. -1.
        -13    1    3    3    0    0 -0.33047328062E+02  0.19945088879E+02  0.73183215356E+01  0.39287279017E+02  0.00000000000E+00 0. -1.
         13    1    3    3    0    0  0.66467163629E+02  0.22446894579E+02  0.49472118897E+01  0.70329380934E+02  0.00000000000E+00 0.  1.
         21    1    1    2  503  501 -0.21378113908E+02 -0.37645596013E+01 -0.73224918194E+02  0.76374631310E+02  0.00000000000E+00 0.  1.
          4    1    1    2  501    0  0.96428007075E+01 -0.24264543775E+02 -0.12240197365E+03  0.12515588218E+03  0.00000000000E+00 0.  1.
<scales pt_clust_5="13000.00000" pt_clust_6="13000.00000" pt_clust_7="13000.00000" pt_clust_8="13000.00000" pt_clust_9="21.70704" pt_clust_10="25.76455"></scales>
<clustering>
<clus scale="   21.707">  2  9  1 -1</clus>
<clus scale="   25.765">  2 10  1 -1</clus>
<clus scale="   88.047">  5  6 -1 -1</clus>
<clus scale="   94.612">  7  8 -1 -1</clus>
<clus scale="   99.656">  2  5  1 -1</clus>
<clus scale="   21.707">  2  5  1 -1</clus>
</clustering>
</event>
<event>
10    2  0.2421970E-006  0.1398625E+03  0.7546771E-02  0.1213657E+00
          3   -1    0    0  503    0 -0.00000000000E+00  0.00000000000E+00  0.29609753734E+03  0.29609753734E+03  0.00000000000E+00 0. -1.
         21   -1    0    0  501  502  0.00000000000E+00 -0.00000000000E+00 -0.16161751336E+03  0.16161751336E+03  0.00000000000E+00 0.  1.
         23    2    1    2    0    0  0.40339304285E+01  0.75647376262E+02  0.46889318676E+02  0.12712714149E+03  0.90685741802E+02 0.  0.
         23    2    1    2    0    0 -0.77875428232E+02 -0.14437512431E+03  0.27803819532E+02  0.18917574959E+03  0.90031400124E+02 0.  0.
        -11    1    4    4    0    0 -0.63923528964E+01 -0.32186369689E+02 -0.29693042027E+02  0.44254958074E+02  0.00000000000E+00 0. -1.
         11    1    4    4    0    0 -0.71483075336E+02 -0.11218875462E+03  0.57496861559E+02  0.14492079151E+03  0.00000000000E+00 0.  1.
        -11    1    3    3    0    0 -0.20497534920E+02  0.13483110818E+02 -0.20682864292E+02  0.32089314272E+02  0.00000000000E+00 0.  1.
         11    1    3    3    0    0  0.24531465348E+02  0.62164265444E+02  0.67572182968E+02  0.95037827213E+02  0.00000000000E+00 0. -1.
         21    1    1    2  503  502 -0.15192955958E+02  0.20860120267E+02  0.20507664212E+02  0.32962627621E+02  0.00000000000E+00 0.  1.
          3    1    1    2  501    0  0.89034453762E+02  0.47867627783E+02  0.39279221564E+02  0.10844953201E+03  0.00000000000E+00 0. -1.
<scales pt_clust_5="13000.00000" pt_clust_6="13000.00000" pt_clust_7="13000.00000" pt_clust_8="13000.00000" pt_clust_9="25.80640" pt_clust_10="100.37077"></scales>
<clustering>
<clus scale="   25.806">  1  9  2 -1</clus>
<clus scale="   90.031">  5  6 -1 -1</clus>
<clus scale="   90.686">  7  8 -1 -1</clus>
<clus scale="  100.371">  2 10  1 -1</clus>
<clus scale="  139.439">  2  5  1 -1</clus>
<clus scale="  100.371">  2  5  1 -1</clus>
</clustering>
</event>
<event>
10    2  0.2421970E-006  0.1691295E+03  0.7546771E-02  0.1205515E+00
         -3   -1    0    0    0  501 -0.00000000000E+00  0.00000000000E+00  0.10063605590E+03  0.10063605590E+03  0.00000000000E+00 0.  1.
         21   -1    0    0  503  502  0.00000000000E+00 -0.00000000000E+00 -0.81655145251E+03  0.81655145251E+03  0.00000000000E+00 0.  1.
         23    2    1    2    0    0 -0.26360372677E+02  0.17876103204E+01 -0.49426171987E+01  0.94460842429E+02  0.90555819743E+02 0.  0.
         23    2    1    2    0    0 -0.10496950760E+02 -0.14099372626E+03 -0.11836780135E+03  0.20484863855E+03  0.89233466255E+02 0.  0.
        -13    1    3    3    0    0  0.29065668987E+02 -0.13663777743E+02  0.12302323774E+02  0.34392718795E+02  0.00000000000E+00 0.  1.
         13    1    3    3    0    0 -0.55426041665E+02  0.15451388064E+02 -0.17244940973E+02  0.60068123633E+02  0.00000000000E+00 0. -1.
        -13    1    4    4    0    0  0.14499302381E+02 -0.40367970029E+02 -0.86212073662E+02  0.96292909494E+02  0.00000000000E+00 0. -1.
         13    1    4    4    0    0 -0.24996253140E+02 -0.10062575623E+03 -0.32155727692E+02  0.10855572906E+03  0.00000000000E+00 0.  1.
         21    1    1    2  503  501  0.24548060254E+02 -0.70332929312E+01 -0.13238579467E+03  0.13482608465E+03  0.00000000000E+00 0.  1.
         -3    1    1    2    0  502  0.12309263182E+02  0.14623940887E+03 -0.46021918338E+03  0.48305194278E+03  0.00000000000E+00 0.  1.
<scales pt_clust_5="13000.00000" pt_clust_6="13000.00000" pt_clust_7="13000.00000" pt_clust_8="13000.00000" pt_clust_9="25.53575" pt_clust_10="143.67380"></scales>
<clustering>
<clus scale="   25.536">  2  9  1 -1</clus>
<clus scale="   89.233">  7  8 -1 -1</clus>
<clus scale="   90.556">  5  6 -1 -1</clus>
<clus scale="   93.840">  1  5  2 -1</clus>
<clus scale="  143.674">  2 10  1 -1</clus>
<clus scale="   25.536">  2  5  1 -1</clus>
</clustering>
</event>
<event>
10    2  0.2421970E-006  0.1303039E+03  0.7546771E-02  0.1227050E+00
         -1   -1    0    0    0  501 -0.00000000000E+00  0.00000000000E+00  0.83584708501E+03  0.83584708501E+03  0.00000000000E+00 0.  1.
         21   -1    0    0  501  502  0.00000000000E+00 -0.00000000000E+00 -0.58709391978E+02  0.58709391978E+02  0.00000000000E+00 0. -1.
         23    2    1    2    0    0 -0.33950785129E+02  0.83338938020E+02  0.54947699005E+03  0.56404309623E+03  0.90120016694E+02 0.  0.
         23    2    1    2    0    0 -0.27298620067E+02 -0.12277250077E+03  0.18719766094E+03  0.24292871501E+03  0.90294488831E+02 0.  0.
        -13    1    3    3    0    0 -0.20669760284E+02 -0.97383691274E+01  0.40910612200E+02  0.46858862705E+02  0.00000000000E+00 0. -1.
         13    1    3    3    0    0 -0.13281024845E+02  0.93077307148E+02  0.50856637785E+03  0.51718423352E+03  0.00000000000E+00 0.  1.
        -13    1    4    4    0    0 -0.54410100183E+02 -0.55443685511E+02  0.67335931315E+02  0.10280364250E+03  0.00000000000E+00 0.  1.
         13    1    4    4    0    0  0.27111480116E+02 -0.67328815256E+02  0.11986172962E+03  0.14012507251E+03  0.00000000000E+00 0. -1.
         21    1    1    2  503  502  0.19917578055E+02  0.23484954022E+02  0.27856158933E+02  0.41523710955E+02  0.00000000000E+00 0. -1.
         -1    1    1    2    0  503  0.41331827141E+02  0.15948608724E+02  0.12606883117E+02  0.46060954799E+02  0.00000000000E+00 0.  1.
<scales pt_clust_5="13000.00000" pt_clust_6="13000.00000" pt_clust_7="13000.00000" pt_clust_8="13000.00000" pt_clust_9="22.48442" pt_clust_10="77.67764"></scales>
<clustering>
<clus scale="   22.484">  9 10 -1 -1</clus>
<clus scale="   77.678">  2  9  1 -1</clus>
<clus scale="   90.120">  5  6 -1 -1</clus>
<clus scale="   90.294">  7  8 -1 -1</clus>
<clus scale="  130.183">  1  5  2 -1</clus>
<clus scale="   77.678">  2  5  1 -1</clus>
</clustering>
</event>
<event>
10    2  0.2421970E-006  0.1306244E+03  0.7546771E-02  0.1228081E+00
         21   -1    0    0  503  502  0.00000000000E+00  0.00000000000E+00  0.14376013476E+03  0.14376013476E+03  0.00000000000E+00 0.  1.
          3   -1    0    0  502    0 -0.00000000000E+00 -0.00000000000E+00 -0.46323062839E+03  0.46323062839E+03  0.00000000000E+00 0. -1.
         23    2    1    2    0    0  0.94290700382E+02 -0.16400605000E+02 -0.35357620097E+03  0.37817918884E+03  0.94040698403E+02 0.  0.
         23    2    1    2    0    0 -0.56630609980E+02 -0.52764145010E+02  0.67545383273E+02  0.13540793128E+03  0.88214783723E+02 0.  0.
        -11    1    4    4    0    0 -0.48181321685E+02  0.10239657092E+00 -0.12961742938E+01  0.48198862146E+02  0.00000000000E+00 0. -1.
         11    1    4    4    0    0 -0.84492882952E+01 -0.52866541581E+02  0.68841557567E+02  0.87209069137E+02  0.00000000000E+00 0.  1.
        -13    1    3    3    0    0  0.58796729824E+02  0.35913538822E+02 -0.15117218021E+03  0.16613207329E+03  0.00000000000E+00 0. -1.
         13    1    3    3    0    0  0.35493970559E+02 -0.52314143822E+02 -0.20240402077E+03  0.21204711555E+03  0.00000000000E+00 0.  1.
         21    1    1    2  503  501 -0.40925666284E+02  0.37965379406E+02 -0.20469044506E+02  0.59458069067E+02  0.00000000000E+00 0. -1.
          3    1    1    2  501    0  0.32655758818E+01  0.31199370604E+02 -0.12970631422E+02  0.33945573960E+02  0.00000000000E+00 0. -1.
<scales pt_clust_5="13000.00000" pt_clust_6="13000.00000" pt_clust_7="13000.00000" pt_clust_8="13000.00000" pt_clust_9="28.08845" pt_clust_10="87.21255"></scales>
<clustering>
<clus scale="   28.088">  9 10 -1 -1</clus>
<clus scale="   87.213">  1  9  2 -1</clus>
<clus scale="   88.215">  5  6 -1 -1</clus>
<clus scale="   94.041">  7  8 -1 -1</clus>
<clus scale="  126.495">  1  5  2 -1</clus>
<clus scale="   87.213">  1  5  2 -1</clus>
</clustering>
</event>
<event>
10    2  0.2421970E-006  0.3124942E+03  0.7546771E-02  0.1079164E+00
         -1   -1    0    0    0  501 -0.00000000000E+00  0.00000000000E+00  0.83292046596E+03  0.83292046596E+03  0.00000000000E+00 0.  1.
         21   -1    0    0  503  502  0.00000000000E+00 -0.00000000000E+00 -0.23311927161E+03  0.23311927161E+03  0.00000000000E+00 0.  1.
         23    2    1    2    0    0 -0.19142056864E+03 -0.20666821897E+03  0.39860862870E+03  0.49670758653E+03  0.92065198668E+02 0.  0.
         23    2    1    2    0    0  0.31488824678E+03  0.18036766041E+03  0.78220323582E+02  0.38241781651E+03  0.91857860181E+02 0.  0.
        -11    1    4    4    0    0  0.22668391057E+03  0.88728215568E+02  0.76662104211E+02  0.25521631956E+03  0.00000000000E+00 0. -1.
         11    1    4    4    0    0  0.88204336216E+02  0.91639444838E+02  0.15582193712E+01  0.12720149695E+03  0.00000000000E+00 0.  1.
        -11    1    3    3    0    0 -0.16328751669E+03 -0.15292853231E+03  0.36290572332E+03  0.42632207675E+03  0.00000000000E+00 0.  1.
         11    1    3    3    0    0 -0.28133051942E+02 -0.53739686663E+02  0.35702905382E+02  0.70385509779E+02  0.00000000000E+00 0. -1.
         21    1    1    2  503  501 -0.45644534335E+02  0.12411831763E+02  0.89071932621E+01  0.48133306288E+02  0.00000000000E+00 0.  1.
         -1    1    1    2    0  502 -0.77823143812E+02  0.13888726804E+02  0.11406504880E+03  0.13878102825E+03  0.00000000000E+00 0.  1.
<scales pt_clust_5="13000.00000" pt_clust_6="13000.00000" pt_clust_7="13000.00000" pt_clust_8="13000.00000" pt_clust_9="47.30198" pt_clust_10="81.78024"></scales>
<clustering>
<clus scale="   47.302">  2  9  1 -1</clus>
<clus scale="   81.780">  2 10  1 -1</clus>
<clus scale="   91.858">  5  6 -1 -1</clus>
<clus scale="   92.065">  7  8 -1 -1</clus>
<clus scale="  312.433">  2  5  1 -1</clus>
<clus scale="   47.302">  2  5  1 -1</clus>
</clustering>
</event>
<event>
10    2  0.2421970E-006  0.1056006E+03  0.7546771E-02  0.1269252E+00
          1   -1    0    0  503    0 -0.00000000000E+00  0.00000000000E+00  0.11154406242E+03  0.11154406242E+03  0.00000000000E+00 0. -1.
         21   -1    0    0  501  502  0.00000000000E+00 -0.00000000000E+00 -0.19571698171E+03  0.19571698171E+03  0.00000000000E+00 0.  1.
         23    2    1    2    0    0  0.25345890527E+02  0.24754466521E+02 -0.27279958621E+02  0.10100777798E+03  0.90571393341E+02 0.  0.
         23    2    1    2    0    0 -0.82307366477E+02 -0.97875884669E+01 -0.28373424889E+02  0.12547938203E+03  0.89831645934E+02 0.  0.
        -13    1    4    4    0    0 -0.50612404227E+02 -0.49317401133E+02 -0.90141939783E+01  0.71239576144E+02  0.00000000000E+00 0.  1.
         13    1    4    4    0    0 -0.31694962250E+02  0.39529812666E+02 -0.19359230911E+02  0.54239805889E+02  0.00000000000E+00 0. -1.
        -13    1    3    3    0    0 -0.24757222397E+02 -0.67950933493E+01 -0.32674314128E+02  0.41553629904E+02  0.00000000000E+00 0.  1.
         13    1    3    3    0    0  0.50103112924E+02  0.31549559871E+02  0.53943555072E+01  0.59454148081E+02  0.00000000000E+00 0. -1.
         21    1    1    2  503  502  0.38799123795E+02  0.14032499388E+02 -0.17605879999E+02  0.44858110269E+02  0.00000000000E+00 0. -1.
          1    1    1    2  501    0  0.18162352155E+02 -0.28999377442E+02 -0.10913655782E+02  0.35915773838E+02  0.00000000000E+00 0. -1.
<scales pt_clust_5="13000.00000" pt_clust_6="13000.00000" pt_clust_7="13000.00000" pt_clust_8="13000.00000" pt_clust_9="42.99644" pt_clust_10="34.21747"></scales>
<clustering>
<clus scale="   34.217">  2 10  1 -1</clus>
<clus scale="   42.996">  2  9  1 -1</clus>
<clus scale="   89.832">  5  6 -1 -1</clus>
<clus scale="   90.571">  7  8 -1 -1</clus>
<clus scale="  104.967">  2  5  1 -1</clus>
<clus scale="   34.217">  2  5  1 -1</clus>
</clustering>
</event>
<event>
10    2  0.2421970E-006  0.1888832E+03  0.7546771E-02  0.1179074E+00
         -1   -1    0    0    0  501 -0.00000000000E+00  0.00000000000E+00  0.48922786465E+03  0.48922786465E+03  0.00000000000E+00 0.  1.
         21   -1    0    0  503  502  0.00000000000E+00 -0.00000000000E+00 -0.19550079680E+03  0.19550079680E+03  0.00000000000E+00 0.  1.
         23    2    1    2    0    0 -0.92898112428E+02 -0.12850846837E+02  0.13321813082E+03  0.18694054748E+03  0.91676029355E+02 0.  0.
         23    2    1    2    0    0  0.16658067264E+02  0.19280891974E+03  0.87498610576E+02  0.24098031837E+03  0.11385401289E+03 0.  0.
        -11    1    4    4    0    0  0.28770495887E+02 -0.24122893594E+01  0.13228822346E+02  0.31757870115E+02  0.00000000000E+00 0. -1.
         11    1    4    4    0    0 -0.12112428623E+02  0.19522120910E+03  0.74269788229E+02  0.20922244826E+03  0.00000000000E+00 0.  1.
        -13    1    3    3    0    0 -0.74755587372E+02  0.26871696346E+02  0.11466338721E+03  0.13949257427E+03  0.00000000000E+00 0.  1.
         13    1    3    3    0    0 -0.18142525056E+02 -0.39722543184E+02  0.18554743604E+02  0.47447973219E+02  0.00000000000E+00 0. -1.
         21    1    1    2  503  501  0.94325680309E+02 -0.57992049265E+02 -0.51080548762E+01  0.11084450356E+03  0.00000000000E+00 0.  1.
         -1    1    1    2    0  502 -0.18085635146E+02 -0.12196602364E+03  0.78118381328E+02  0.14596329204E+03  0.00000000000E+00 0.  1.
<scales pt_clust_5="13000.00000" pt_clust_6="13000.00000" pt_clust_7="13000.00000" pt_clust_8="13000.00000" pt_clust_9="110.72674" pt_clust_10="150.71209"></scales>
<clustering>
<clus scale="   91.676">  7  8 -1 -1</clus>
<clus scale="  110.727">  2  9  1 -1</clus>
<clus scale="  113.854">  5  6 -1 -1</clus>
<clus scale="  120.563">  1  7  2 -1</clus>
<clus scale="  150.712">  2 10  1 -1</clus>
<clus scale="  110.727">  2  5  1 -1</clus>
</clustering>
</event>
<event>
10    2  0.2421970E-006  0.1174245E+03  0.7546771E-02  0.1254342E+00
         21   -1    0    0  501  502  0.00000000000E+00  0.00000000000E+00  0.91670761885E+02  0.91670761885E+02  0.00000000000E+00 0. -1.
          2   -1    0    0  503    0 -0.00000000000E+00 -0.00000000000E+00 -0.83244843811E+03  0.83244843811E+03  0.00000000000E+00 0. -1.
         23    2    1    2    0    0 -0.26002532636E+02 -0.20787234430E+01 -0.42307722143E+03  0.43411851422E+03  0.93723509825E+02 0.  0.
         23    2    1    2    0    0  0.68960142084E+02  0.76363765900E+02 -0.29376906846E+03  0.33015793340E+03  0.11007756113E+03 0.  0.
        -11    1    3    3    0    0  0.24153593047E+02  0.29018228798E+02 -0.18736005254E+03  0.19112624872E+03  0.00000000000E+00 0.  1.
         11    1    3    3    0    0 -0.50156125684E+02 -0.31096952241E+02 -0.23571716889E+03  0.24299226550E+03  0.00000000000E+00 0. -1.
        -13    1    4    4    0    0  0.21543983055E+02 -0.14046147554E+02 -0.83650975516E+01  0.27044635772E+02  0.00000000000E+00 0.  1.
         13    1    4    4    0    0  0.47416159029E+02  0.90409913454E+02 -0.28540397091E+03  0.30311329762E+03  0.00000000000E+00 0. -1.
         21    1    1    2  503  502  0.25452389973E+02  0.25855224071E+02 -0.10816587486E+02  0.37859151231E+02  0.00000000000E+00 0. -1.
          2    1    1    2  501    0 -0.68409999421E+02 -0.10014026653E+03 -0.13114798847E+02  0.12198360115E+03  0.00000000000E+00 0. -1.
<scales pt_clust_5="13000.00000" pt_clust_6="13000.00000" pt_clust_7="13000.00000" pt_clust_8="13000.00000" pt_clust_9="36.28108" pt_clust_10="96.50959"></scales>
<clustering>
<clus scale="   36.281">  1  9  2 -1</clus>
<clus scale="   93.724">  5  6 -1 -1</clus>
<clus scale="   96.510">  1 10  2 -1</clus>
<clus scale="  102.252">  2  5  1 -1</clus>
<clus scale="  110.078">  7  8 -1 -1</clus>
<clus scale="   36.281">  1  5  2 -1</clus>
</clustering>
</event>
