<event>
 9    1  0.5981539E-005  0.9282688E+02  0.7546771E-02  0.1300871E+00
          1   -1    0    0  502    0 -0.00000000000E+00  0.00000000000E+00  0.31868322944E+03  0.31868322944E+03  0.00000000000E+00 0. -1.
         21   -1    0    0  501  502  0.00000000000E+00 -0.00000000000E+00 -0.10480837367E+03  0.10480837367E+03  0.00000000000E+00 0.  1.
         23    2    1    2    0    0 -0.21522024642E+02  0.20937265975E+02  0.24930442017E+03  0.26617245772E+03  0.88280896483E+02 0.  0.
        -24    2    1    2    0    0  0.43180231502E+02  0.21716758356E+02  0.64238445123E+01  0.93756958880E+02  0.80080906426E+02 0.  0.
         11    1    4    4    0    0 -0.31989171898E+01  0.39543395185E+02  0.16656037480E+02  0.43027163031E+02  0.00000000000E+00 0. -1.
        -12    1    4    4    0    0  0.46379148692E+02 -0.17826636829E+02 -0.10232192968E+02  0.50729795849E+02  0.00000000000E+00 0.  1.
        -13    1    3    3    0    0  0.31678853743E+01 -0.21114876015E+02  0.13238169743E+02  0.25122154068E+02  0.00000000000E+00 0.  1.
         13    1    3    3    0    0 -0.24689910016E+02  0.42052141990E+02  0.23606625043E+03  0.24105030366E+03  0.00000000000E+00 0. -1.
          2    1    1    2  501    0 -0.21658206860E+02 -0.42654024331E+02 -0.41853408915E+02  0.63562186509E+02  0.00000000000E+00 0. -1.
<scales pt_clust_5="13000.00000" pt_clust_6="13000.00000" pt_clust_7="13000.00000" pt_clust_8="13000.00000" pt_clust_9="47.83768"></scales>
<clustering>
<clus scale="   47.838">  2  9  1 -1</clus>
<clus scale="   80.081">  5  6 -1 -1</clus>
<clus scale="   85.066">  2  5  1 -1</clus>
<clus scale="   88.281">  7  8 -1 -1</clus>
<clus scale="   47.838">  2  5  1 -1</clus>
</clustering>
</event>
<event>
 9    1  0.5981539E-005  0.3609654E+03  0.7546771E-02  0.1058202E+00
          3   -1    0    0  502    0 -0.00000000000E+00  0.00000000000E+00  0.76204258332E+03  0.76204258332E+03  0.00000000000E+00 0. -1.
         21   -1    0    0  501  502  0.00000000000E+00 -0.00000000000E+00 -0.13837687475E+03  0.13837687475E+03  0.00000000000E+00 0. -1.
        -24    2    1    2    0    0 -0.14973203415E+02  0.12478361519E+03  0.18281736557E+03  0.23592708184E+03  0.80276094506E+02 0.  0.
         23    2    1    2    0    0 -0.13942641165E+03  0.11588554328E+03  0.12527318035E+03  0.23864197029E+03  0.91582950699E+02 0.  0.
         13    1    3    3    0    0 -0.29648746753E+02  0.11482879493E+03  0.11270403303E+03  0.16360592712E+03  0.00000000000E+00 0. -1.
        -14    1    3    3    0    0  0.14675543339E+02  0.99548202604E+01  0.70113332546E+02  0.72321154716E+02  0.00000000000E+00 0.  1.
        -13    1    4    4    0    0 -0.78336753004E+02  0.36277074034E+02  0.10558004851E+03  0.13638115564E+03  0.00000000000E+00 0. -1.
         13    1    4    4    0    0 -0.61089658647E+02  0.79608469250E+02  0.19693131846E+02  0.10226081464E+03  0.00000000000E+00 0.  1.
          4    1    1    2  501    0  0.15439961507E+03 -0.24066915847E+03  0.31557516264E+03  0.42585040595E+03  0.00000000000E+00 0. -1.
<scales pt_clust_5="13000.00000" pt_clust_6="13000.00000" pt_clust_7="13000.00000" pt_clust_8="13000.00000" pt_clust_9="285.93875"></scales>
<clustering>
<clus scale="   80.276">  5  6 -1 -1</clus>
<clus scale="   91.583">  7  8 -1 -1</clus>
<clus scale="  145.942">  5  7 -1 -1</clus>
<clus scale="  285.939">  2  9  1 -1</clus>
<clus scale="  285.939">  2  5  1 -1</clus>
</clustering>
</event>
<event>
 9    1  0.5981539E-005  0.8575796E+02  0.7546771E-02  0.1314940E+00
         21   -1    0    0  501  502  0.00000000000E+00  0.00000000000E+00  0.42201728407E+02  0.42201728407E+02  0.00000000000E+00 0. -1.
          1   -1    0    0  502    0 -0.00000000000E+00 -0.00000000000E+00 -0.33670522879E+03  0.33670522879E+03  0.00000000000E+00 0. -1.
         23    2    1    2    0    0 -0.21902038020E+01  0.68350417696E+01 -0.16748620361E+03  0.18761834649E+03  0.84246666104E+02 0.  0.
        -24    2    1    2    0    0  0.46244266129E+02  0.12203756466E+02 -0.80129109098E+02  0.12419361545E+03  0.81950693540E+02 0.  0.
         13    1    4    4    0    0  0.53148794908E+02  0.29302595950E+02 -0.24260807470E+02  0.65360716862E+02  0.00000000000E+00 0. -1.
        -14    1    4    4    0    0 -0.69045287787E+01 -0.17098839485E+02 -0.55868301628E+02  0.58832898587E+02  0.00000000000E+00 0.  1.
        -13    1    3    3    0    0  0.29769522945E+02  0.32039902846E+02 -0.91605451849E+02  0.10151028854E+03  0.00000000000E+00 0. -1.
         13    1    3    3    0    0 -0.31959726747E+02 -0.25204861076E+02 -0.75880751763E+02  0.86108057949E+02  0.00000000000E+00 0.  1.
          2    1    1    2  501    0 -0.44054062327E+02 -0.19038798236E+02 -0.46888187675E+02  0.67094995262E+02  0.00000000000E+00 0. -1.
<scales pt_clust_5="13000.00000" pt_clust_6="13000.00000" pt_clust_7="13000.00000" pt_clust_8="13000.00000" pt_clust_9="47.99204"></scales>
<clustering>
<clus scale="   47.992">  1  9  2 -1</clus>
<clus scale="   81.951">  5  6 -1 -1</clus>
<clus scale="   83.504">  1  5  2 -1</clus>
<clus scale="   84.247">  7  8 -1 -1</clus>
<clus scale="   47.992">  1  5  2 -1</clus>
</clustering>
</event>
<event>
 9    1  0.5981539E-005  0.8781659E+02  0.7546771E-02  0.1312920E+00
         21   -1    0    0  501  502  0.00000000000E+00  0.00000000000E+00  0.19638272285E+03  0.19638272285E+03  0.00000000000E+00 0.  1.
         -2   -1    0    0    0  501 -0.00000000000E+00 -0.00000000000E+00 -0.15476928393E+03  0.15476928393E+03  0.00000000000E+00 0.  1.
        -24    2    1    2    0    0 -0.24806874022E+00  0.13468672104E+02 -0.11468623478E+03  0.14039017610E+03  0.79843612342E+02 0.  0.
         23    2    1    2    0    0 -0.18870515630E+02  0.29933337429E+01  0.51467490435E+02  0.10293648787E+03  0.87074459838E+02 0.  0.
         13    1    3    3    0    0 -0.89268588509E+01  0.41582372025E+02 -0.33820068673E+02  0.54337643649E+02  0.00000000000E+00 0. -1.
        -14    1    3    3    0    0  0.86787901107E+01 -0.28113699921E+02 -0.80866166106E+02  0.86052532454E+02  0.00000000000E+00 0.  1.
        -11    1    4    4    0    0 -0.17722852868E+02 -0.17438669262E+02 -0.17884787283E+02  0.30627966233E+02  0.00000000000E+00 0.  1.
         11    1    4    4    0    0 -0.11476627615E+01  0.20432003005E+02  0.69352277718E+02  0.72308521637E+02  0.00000000000E+00 0. -1.
         -1    1    1    2    0  502  0.19118584370E+02 -0.16462005847E+02  0.10483218326E+03  0.10782534281E+03  0.00000000000E+00 0.  1.
<scales pt_clust_5="13000.00000" pt_clust_6="13000.00000" pt_clust_7="13000.00000" pt_clust_8="13000.00000" pt_clust_9="25.22931"></scales>
<clustering>
<clus scale="   25.229">  1  9  2 -1</clus>
<clus scale="   79.844">  5  6 -1 -1</clus>
<clus scale="   80.652">  2  5  1 -1</clus>
<clus scale="   87.074">  7  8 -1 -1</clus>
<clus scale="   25.229">  1  5  2 -1</clus>
</clustering>
</event>
<event>
 9    1  0.5981539E-005  0.1893936E+03  0.7546771E-02  0.1185802E+00
         21   -1    0    0  501  502  0.00000000000E+00  0.00000000000E+00  0.18936514207E+03  0.18936514207E+03  0.00000000000E+00 0.  1.
         -2   -1    0    0    0  501 -0.00000000000E+00 -0.00000000000E+00 -0.72813631963E+03  0.72813631963E+03  0.00000000000E+00 0.  1.
         23    2    1    2    0    0  0.41496061916E+02 -0.32662804161E+02 -0.86182936692E+02  0.13420024012E+03  0.88280371214E+02 0.  0.
        -24    2    1    2    0    0 -0.20721712385E+03  0.55637886359E+02 -0.54557637939E+03  0.59189035804E+03  0.81523612378E+02 0.  0.
         13    1    4    4    0    0 -0.15660698906E+02  0.32062294596E+02 -0.68096846962E+02  0.76879313155E+02  0.00000000000E+00 0. -1.
        -14    1    4    4    0    0 -0.19155642495E+03  0.23575591764E+02 -0.47747953243E+03  0.51501104489E+03  0.00000000000E+00 0.  1.
        -11    1    3    3    0    0  0.38841771666E+02  0.22839021000E+02 -0.52657557233E+02  0.69304562910E+02  0.00000000000E+00 0.  1.
         11    1    3    3    0    0  0.26542902499E+01 -0.55501825161E+02 -0.33525379459E+02  0.64895677212E+02  0.00000000000E+00 0. -1.
         -1    1    1    2    0  502  0.16572106194E+03 -0.22975082198E+02  0.92988138532E+02  0.19141086354E+03  0.00000000000E+00 0.  1.
<scales pt_clust_5="13000.00000" pt_clust_6="13000.00000" pt_clust_7="13000.00000" pt_clust_8="13000.00000" pt_clust_9="170.94978"></scales>
<clustering>
<clus scale="   81.524">  5  6 -1 -1</clus>
<clus scale="   88.280">  7  8 -1 -1</clus>
<clus scale="  102.870">  2  7  1 -1</clus>
<clus scale="  170.950">  1  9  2 -1</clus>
<clus scale="  170.950">  1  5  2 -1</clus>
</clustering>
</event>
<event>
 9    1  0.5981539E-005  0.1510524E+03  0.7546771E-02  0.1201194E+00
         21   -1    0    0  501  502  0.00000000000E+00  0.00000000000E+00  0.22065000852E+02  0.22065000852E+02  0.00000000000E+00 0.  1.
          1   -1    0    0  502    0 -0.00000000000E+00 -0.00000000000E+00 -0.12207425259E+04  0.12207425259E+04  0.00000000000E+00 0. -1.
        -24    2    1    2    0    0 -0.11243266495E+03 -0.22732565571E+01 -0.55532409267E+03  0.57220584169E+03  0.79927501613E+02 0.  0.
         23    2    1    2    0    0  0.13140653541E+03 -0.18449206859E+02 -0.53687378476E+03  0.56047746608E+03  0.91068537054E+02 0.  0.
         11    1    3    3    0    0 -0.10529387111E+03 -0.19428608204E+02 -0.53050228525E+03  0.54119954246E+03  0.00000000000E+00 0. -1.
        -12    1    3    3    0    0 -0.71387938444E+01  0.17155351647E+02 -0.24821807427E+02  0.31006299225E+02  0.00000000000E+00 0.  1.
        -13    1    4    4    0    0  0.53887847573E+02  0.33080919988E+02 -0.28561613510E+03  0.29253174872E+03  0.00000000000E+00 0. -1.
         13    1    4    4    0    0  0.77518687838E+02 -0.51530126847E+02 -0.25125764967E+03  0.26794571736E+03  0.00000000000E+00 0.  1.
          2    1    1    2  501    0 -0.18973870457E+02  0.20722463416E+02 -0.10647964760E+03  0.11012421897E+03  0.00000000000E+00 0. -1.
<scales pt_clust_5="13000.00000" pt_clust_6="13000.00000" pt_clust_7="13000.00000" pt_clust_8="13000.00000" pt_clust_9="28.09678"></scales>
<clustering>
<clus scale="   28.097">  1  9  2 -1</clus>
<clus scale="   79.928">  5  6 -1 -1</clus>
<clus scale="   91.069">  7  8 -1 -1</clus>
<clus scale="  144.609">  2  5  1 -1</clus>
<clus scale="   28.097">  1  5  2 -1</clus>
</clustering>
</event>
<event>
 9    1  0.5981539E-005  0.9368520E+02  0.7546771E-02  0.1299341E+00
         21   -1    0    0  501  502  0.00000000000E+00  0.00000000000E+00  0.42286426395E+02  0.42286426395E+02  0.00000000000E+00 0. -1.
         -2   -1    0    0    0  501 -0.00000000000E+00 -0.00000000000E+00 -0.39683784228E+03  0.39683784228E+03  0.00000000000E+00 0.  1.
        -24    2    1    2    0    0 -0.18275329770E+02 -0.19559241163E+02 -0.24346512008E+03  0.25810678136E+03  0.81408195502E+02 0.  0.
         23    2    1    2    0    0  0.36701964943E+02 -0.19699524983E+02 -0.74453155117E+02  0.12424796557E+03  0.90328174594E+02 0.  0.
         11    1    3    3    0    0  0.22766517028E+02 -0.33072855401E+02 -0.87602095555E+02  0.96365217831E+02  0.00000000000E+00 0. -1.
        -12    1    3    3    0    0 -0.41041846799E+02  0.13513614238E+02 -0.15586302452E+03  0.16174156353E+03  0.00000000000E+00 0.  1.
        -13    1    4    4    0    0  0.19129106580E+02 -0.49413579602E+02 -0.14283338691E+02  0.54878395857E+02  0.00000000000E+00 0. -1.
         13    1    4    4    0    0  0.17572858362E+02  0.29714054620E+02 -0.60169816427E+02  0.69369569710E+02  0.00000000000E+00 0.  1.
         -1    1    1    2    0  502 -0.18426635172E+02  0.39258766146E+02 -0.36633140689E+02  0.56769521750E+02  0.00000000000E+00 0.  1.
<scales pt_clust_5="13000.00000" pt_clust_6="13000.00000" pt_clust_7="13000.00000" pt_clust_8="13000.00000" pt_clust_9="43.36809"></scales>
<clustering>
<clus scale="   43.368">  1  9  2 -1</clus>
<clus scale="   81.408">  5  6 -1 -1</clus>
<clus scale="   85.118">  2  5  1 -1</clus>
<clus scale="   90.328">  7  8 -1 -1</clus>
<clus scale="   43.368">  1  5  2 -1</clus>
</clustering>
</event>
<event>
 9    1  0.5981539E-005  0.9880783E+02  0.7546771E-02  0.1290326E+00
         21   -1    0    0  501  502  0.00000000000E+00  0.00000000000E+00  0.60677937047E+02  0.60677937047E+02  0.00000000000E+00 0.  1.
         -4   -1    0    0    0  501 -0.00000000000E+00 -0.00000000000E+00 -0.20425657966E+03  0.20425657966E+03  0.00000000000E+00 0.  1.
        -24    2    1    2    0    0  0.18894009025E+02 -0.37398516753E+02 -0.74639254917E+02  0.11800488797E+03  0.81231167531E+02 0.  0.
         23    2    1    2    0    0 -0.10155280971E+02  0.43160452725E+01 -0.51825748606E+02  0.10867140178E+03  0.94877854986E+02 0.  0.
         11    1    3    3    0    0  0.52829163750E+01  0.23815170265E+02 -0.61772965865E+01  0.25164072272E+02  0.00000000000E+00 0. -1.
        -12    1    3    3    0    0  0.13611092650E+02 -0.61213687018E+02 -0.68461958330E+02  0.92840815700E+02  0.00000000000E+00 0.  1.
        -13    1    4    4    0    0  0.24864616741E+02  0.36535201363E+02 -0.40069502404E+02  0.59654296804E+02  0.00000000000E+00 0. -1.
         13    1    4    4    0    0 -0.35019897712E+02 -0.32219156091E+02 -0.11756246202E+02  0.49017104971E+02  0.00000000000E+00 0.  1.
         -3    1    1    2    0  502 -0.87387280543E+01  0.33082471480E+02 -0.17113639091E+02  0.38258226961E+02  0.00000000000E+00 0.  1.
<scales pt_clust_5="13000.00000" pt_clust_6="13000.00000" pt_clust_7="13000.00000" pt_clust_8="13000.00000" pt_clust_9="34.21718"></scales>
<clustering>
<clus scale="   34.217">  1  9  2 -1</clus>
<clus scale="   81.231">  5  6 -1 -1</clus>
<clus scale="   85.789">  2  5  1 -1</clus>
<clus scale="   94.878">  7  8 -1 -1</clus>
<clus scale="   34.217">  1  5  2 -1</clus>
</clustering>
</event>
<event>
 9    1  0.5981539E-005  0.3616296E+03  0.7546771E-02  0.1057940E+00
         21   -1    0    0  501  502  0.00000000000E+00  0.00000000000E+00  0.52566264119E+02  0.52566264119E+02  0.00000000000E+00 0.  1.
          1   -1    0    0  502    0 -0.00000000000E+00 -0.00000000000E+00 -0.21990783183E+04  0.21990783183E+04  0.00000000000E+00 0. -1.
        -24    2    1    2    0    0  0.13886880776E+03  0.53275694688E+02 -0.51743512280E+03  0.54607078671E+03  0.91276242138E+02 0.  0.
         23    2    1    2    0    0  0.15668576215E+03 -0.18937202794E+02 -0.37865145298E+03  0.42023511938E+03  0.91167905588E+02 0.  0.
         11    1    3    3    0    0  0.92624428412E+02  0.35100019802E+02 -0.45806302484E+03  0.46865022229E+03  0.00000000000E+00 0. -1.
        -12    1    3    3    0    0  0.46244379345E+02  0.18175674886E+02 -0.59372097958E+02  0.77420564416E+02  0.00000000000E+00 0.  1.
        -13    1    4    4    0    0  0.86663443077E+01 -0.27626094556E+02 -0.10589305799E+03  0.10977999068E+03  0.00000000000E+00 0. -1.
         13    1    4    4    0    0  0.14801941785E+03  0.86888917629E+01 -0.27275839499E+03  0.31045512870E+03  0.00000000000E+00 0.  1.
          2    1    1    2  501    0 -0.29555456991E+03 -0.34338491894E+02 -0.12504254784E+04  0.12853386763E+04  0.00000000000E+00 0. -1.
<scales pt_clust_5="13000.00000" pt_clust_6="13000.00000" pt_clust_7="13000.00000" pt_clust_8="13000.00000" pt_clust_9="297.54281"></scales>
<clustering>
<clus scale="   91.168">  7  8 -1 -1</clus>
<clus scale="   91.276">  5  6 -1 -1</clus>
<clus scale="  128.967">  5  7 -1 -1</clus>
<clus scale="  297.543">  1  9  2 -1</clus>
<clus scale="  297.543">  1  5  2 -1</clus>
</clustering>
</event>
<event>
 9    1  0.5981539E-005  0.1563720E+03  0.7546771E-02  0.1209919E+00
         21   -1    0    0  501  502  0.00000000000E+00  0.00000000000E+00  0.19551512035E+03  0.19551512035E+03  0.00000000000E+00 0.  1.
          3   -1    0    0  502    0 -0.00000000000E+00 -0.00000000000E+00 -0.68296666053E+03  0.68296666053E+03  0.00000000000E+00 0. -1.
        -24    2    1    2    0    0  0.32021379806E+02  0.54620755137E+02  0.14045318153E+03  0.17719766831E+03  0.87539258595E+02 0.  0.
         23    2    1    2    0    0 -0.52223762857E+02  0.10607743729E+03 -0.22767212701E+03  0.26952240145E+03  0.82631612341E+02 0.  0.
         13    1    3    3    0    0 -0.30296509953E+02  0.16601997706E+02  0.53220687037E+02  0.63450345718E+02  0.00000000000E+00 0. -1.
        -14    1    3    3    0    0  0.62317889759E+02  0.38018757431E+02  0.87232494493E+02  0.11374732259E+03  0.00000000000E+00 0.  1.
        -11    1    4    4    0    0  0.18232639452E+02  0.34573773434E+02 -0.98203413055E+02  0.10569619334E+03  0.00000000000E+00 0.  1.
         11    1    4    4    0    0 -0.70456402309E+02  0.71503663854E+02 -0.12946871395E+03  0.16382620811E+03  0.00000000000E+00 0. -1.
          4    1    1    2  501    0  0.20202383050E+02 -0.16069819243E+03 -0.40023259470E+03  0.43176171112E+03  0.00000000000E+00 0. -1.
<scales pt_clust_5="13000.00000" pt_clust_6="13000.00000" pt_clust_7="13000.00000" pt_clust_8="13000.00000" pt_clust_9="132.75627"></scales>
<clustering>
<clus scale="   82.632">  7  8 -1 -1</clus>
<clus scale="   87.539">  5  6 -1 -1</clus>
<clus scale="  108.037">  2  5  1 -1</clus>
<clus scale="  132.756">  1  9  2 -1</clus>
<clus scale="  132.756">  1  5  2 -1</clus>
</clustering>
</event>
<event>
 9    1  0.5981539E-005  0.9909606E+02  0.7546771E-02  0.1288272E+00
         21   -1    0    0  501  502  0.00000000000E+00  0.00000000000E+00  0.96070238623E+02  0.96070238623E+02  0.00000000000E+00 0. -1.
          1   -1    0    0  502    0 -0.00000000000E+00 -0.00000000000E+00 -0.15163528740E+03  0.15163528740E+03  0.00000000000E+00 0. -1.
         23    2    1    2    0    0 -0.25341139765E+02  0.14931270792E+02 -0.57097032393E+02  0.11289307212E+03  0.92842115506E+02 0.  0.
        -24    2    1    2    0    0  0.30391793774E+02 -0.37729724725E+02  0.28781969981E+02  0.98925961121E+02  0.81306523299E+02 0.  0.
         13    1    4    4    0    0  0.19284889716E+02 -0.62639127133E+02  0.28955730168E+02  0.71651947139E+02  0.00000000000E+00 0. -1.
        -14    1    4    4    0    0  0.11106904058E+02  0.24909402407E+02 -0.17376018717E+00  0.27274013981E+02  0.00000000000E+00 0.  1.
        -13    1    3    3    0    0 -0.17850918660E+02  0.46741930235E+02 -0.35491664572E+01  0.50160342120E+02  0.00000000000E+00 0. -1.
         13    1    3    3    0    0 -0.74902211049E+01 -0.31810659443E+02 -0.53547865936E+02  0.62732729995E+02  0.00000000000E+00 0.  1.
          2    1    1    2  501    0 -0.50506540093E+01  0.22798453934E+02 -0.27249986366E+02  0.35886492788E+02  0.00000000000E+00 0. -1.
<scales pt_clust_5="13000.00000" pt_clust_6="13000.00000" pt_clust_7="13000.00000" pt_clust_8="13000.00000" pt_clust_9="23.35121"></scales>
<clustering>
<clus scale="   23.351">  1  9  2 -1</clus>
<clus scale="   81.307">  5  6 -1 -1</clus>
<clus scale="   88.381">  1  5  2 -1</clus>
<clus scale="   92.842">  7  8 -1 -1</clus>
<clus scale="   23.351">  1  5  2 -1</clus>
</clustering>
</event>
<event>
 9    1  0.5981539E-005  0.1451388E+03  0.7546771E-02  0.1208884E+00
         -4   -1    0    0    0  501 -0.00000000000E+00  0.00000000000E+00  0.89369174571E+03  0.89369174571E+03  0.00000000000E+00 0.  1.
         21   -1    0    0  501  502  0.00000000000E+00 -0.00000000000E+00 -0.12900372776E+03  0.12900372776E+03  0.00000000000E+00 0. -1.
        -24    2    1    2    0    0  0.58625358291E+02 -0.96250174801E+02  0.81164413718E+03  0.82350493565E+03  0.81811642527E+02 0.  0.
         23    2    1    2    0    0 -0.63492469732E+02  0.74535605780E+02  0.12484958696E+02  0.13572044228E+03  0.93152101522E+02 0.  0.
         13    1    3    3    0    0 -0.27476900881E+01 -0.52604009705E+02  0.18504915772E+03  0.19240042206E+03  0.00000000000E+00 0. -1.
        -14    1    3    3    0    0  0.61373048379E+02 -0.43646165095E+02  0.62659497946E+03  0.63110451359E+03  0.00000000000E+00 0.  1.
        -11    1    4    4    0    0 -0.27644715567E+02  0.67183869394E+02  0.46091137403E+02  0.86036594265E+02  0.00000000000E+00 0.  1.
         11    1    4    4    0    0 -0.35847754165E+02  0.73517363860E+01 -0.33606178707E+02  0.49683848018E+02  0.00000000000E+00 0. -1.
         -3    1    1    2    0  502  0.48671114410E+01  0.21714569021E+02 -0.59441077921E+02  0.63470095525E+02  0.00000000000E+00 0.  1.
<scales pt_clust_5="13000.00000" pt_clust_6="13000.00000" pt_clust_7="13000.00000" pt_clust_8="13000.00000" pt_clust_9="22.25334"></scales>
<clustering>
<clus scale="   22.253">  2  9  1 -1</clus>
<clus scale="   81.812">  5  6 -1 -1</clus>
<clus scale="   93.152">  7  8 -1 -1</clus>
<clus scale="  138.134">  1  5  2 -1</clus>
<clus scale="   22.253">  2  5  1 -1</clus>
</clustering>
</event>
<event>
 9    1  0.7317197E-005  0.1086763E+03  0.7546771E-02  0.1263904E+00
          3   -1    0    0  502    0 -0.00000000000E+00  0.00000000000E+00  0.20369639183E+03  0.20369639183E+03  0.00000000000E+00 0. -1.
         21   -1    0    0  501  502  0.00000000000E+00 -0.00000000000E+00 -0.80781208720E+03  0.80781208720E+03  0.00000000000E+00 0.  1.
        -24    2    1    2    0    0  0.40756782693E+02  0.58435736585E+02  0.17640213577E+03  0.20674297004E+03  0.80926457426E+02 0.  0.
         23    2    1    2    0    0 -0.85602950529E+02 -0.79307090504E+02 -0.47892839892E+03  0.49914650138E+03  0.78468712261E+02 0.  0.
         11    1    3    3    0    0  0.47868141867E+02  0.50586817779E+02  0.18192357390E+03  0.19479879846E+03  0.00000000000E+00 0. -1.
        -12    1    3    3    0    0 -0.71113591733E+01  0.78489188054E+01 -0.55214381349E+01  0.11944171582E+02  0.00000000000E+00 0.  1.
        -13    1    4    4    0    0 -0.72207345346E+02 -0.28178366173E+02 -0.18626639862E+03  0.20175007385E+03  0.00000000000E+00 0. -1.
         13    1    4    4    0    0 -0.13395605183E+02 -0.51128724331E+02 -0.29266200030E+03  0.29739642754E+03  0.00000000000E+00 0.  1.
          4    1    1    2  501    0  0.44846167835E+02  0.20871353919E+02 -0.30158943222E+03  0.30561900761E+03  0.00000000000E+00 0. -1.
<scales pt_clust_5="13000.00000" pt_clust_6="13000.00000" pt_clust_7="13000.00000" pt_clust_8="13000.00000" pt_clust_9="49.46506"></scales>
<clustering>
<clus scale="   49.465">  2  9  1 -1</clus>
<clus scale="   78.469">  7  8 -1 -1</clus>
<clus scale="   80.926">  5  6 -1 -1</clus>
<clus scale="  106.859">  2  7  1 -1</clus>
<clus scale="   49.465">  2  5  1 -1</clus>
</clustering>
</event>
<event>
 9    1  0.5981539E-005  0.1752633E+03  0.7546771E-02  0.1200768E+00
         21   -1    0    0  501  502  0.00000000000E+00  0.00000000000E+00  0.15431578750E+03  0.15431578750E+03  0.00000000000E+00 0. -1.
          1   -1    0    0  502    0 -0.00000000000E+00 -0.00000000000E+00 -0.45256709240E+03  0.45256709240E+03  0.00000000000E+00 0. -1.
        -24    2    1    2    0    0 -0.37326276028E+02 -0.14410840915E+02 -0.25048087705E+03  0.26734052166E+03  0.84435546665E+02 0.  0.
         23    2    1    2    0    0  0.16554673898E+03  0.54892307932E+02  0.12071535301E+02  0.19236798260E+03  0.80254784955E+02 0.  0.
         13    1    3    3    0    0  0.11906118221E+02  0.26739085661E+02 -0.79037407554E+02  0.84283130850E+02  0.00000000000E+00 0. -1.
        -14    1    3    3    0    0 -0.49232394248E+02 -0.41149926576E+02 -0.17144346949E+03  0.18305739081E+03  0.00000000000E+00 0.  1.
        -11    1    4    4    0    0  0.14014918397E+03  0.70684773362E+02 -0.66118811948E+01  0.15710457640E+03  0.00000000000E+00 0. -1.
         11    1    4    4    0    0  0.25397555003E+02 -0.15792465430E+02  0.18683416496E+02  0.35263406195E+02  0.00000000000E+00 0.  1.
          2    1    1    2  501    0 -0.12822046295E+03 -0.40481467017E+02 -0.59841963155E+02  0.14717437564E+03  0.00000000000E+00 0. -1.
<scales pt_clust_5="13000.00000" pt_clust_6="13000.00000" pt_clust_7="13000.00000" pt_clust_8="13000.00000" pt_clust_9="155.80887"></scales>
<clustering>
<clus scale="   80.255">  7  8 -1 -1</clus>
<clus scale="   84.436">  5  6 -1 -1</clus>
<clus scale="   93.436">  2  5  1 -1</clus>
<clus scale="  155.809">  1  9  2 -1</clus>
<clus scale="  155.809">  1  5  2 -1</clus>
</clustering>
</event>
<event>
 9    1  0.5981539E-005  0.1321752E+03  0.7546771E-02  0.1228377E+00
         21   -1    0    0  501  502  0.00000000000E+00  0.00000000000E+00  0.37065954622E+02  0.37065954622E+02  0.00000000000E+00 0. -1.
         -2   -1    0    0    0  501 -0.00000000000E+00 -0.00000000000E+00 -0.55777139013E+03  0.55777139013E+03  0.00000000000E+00 0.  1.
         23    2    1    2    0    0 -0.80528926508E+02  0.31620711274E+02 -0.31864270395E+03  0.34439126380E+03  0.97915230790E+02 0.  0.
        -24    2    1    2    0    0  0.78155350843E+02 -0.52185942357E+02 -0.15661590040E+03  0.20050634673E+03  0.82720150969E+02 0.  0.
         11    1    4    4    0    0  0.53317781817E+02  0.90257823310E+01 -0.43027659928E+02  0.69105934069E+02  0.00000000000E+00 0. -1.
        -12    1    4    4    0    0  0.24837569025E+02 -0.61211724688E+02 -0.11358824047E+03  0.13140041266E+03  0.00000000000E+00 0.  1.
        -13    1    3    3    0    0 -0.62680480665E+02 -0.27708990083E+02 -0.15850070624E+03  0.17268209134E+03  0.00000000000E+00 0. -1.
         13    1    3    3    0    0 -0.17848445843E+02  0.59329701358E+02 -0.16014199770E+03  0.17170917247E+03  0.00000000000E+00 0.  1.
         -1    1    1    2    0  502  0.23735756657E+01  0.20565231083E+02 -0.45446831164E+02  0.49939734218E+02  0.00000000000E+00 0.  1.
<scales pt_clust_5="13000.00000" pt_clust_6="13000.00000" pt_clust_7="13000.00000" pt_clust_8="13000.00000" pt_clust_9="20.70176"></scales>
<clustering>
<clus scale="   20.702">  1  9  2 -1</clus>
<clus scale="   82.720">  5  6 -1 -1</clus>
<clus scale="   97.915">  7  8 -1 -1</clus>
<clus scale="  121.349">  1  5  2 -1</clus>
<clus scale="   20.702">  1  5  2 -1</clus>
</clustering>
</event>
<event>
 9    1  0.5981539E-005  0.9425966E+02  0.7546771E-02  0.1299835E+00
         21   -1    0    0  501  502  0.00000000000E+00  0.00000000000E+00  0.14394709313E+03  0.14394709313E+03  0.00000000000E+00 0. -1.
          1   -1    0    0  502    0 -0.00000000000E+00 -0.00000000000E+00 -0.24589250938E+03  0.24589250938E+03  0.00000000000E+00 0. -1.
         23    2    1    2    0    0  0.10000794506E+02 -0.14151235349E+02 -0.19444723707E+03  0.21575966840E+03  0.91881625769E+02 0.  0.
        -24    2    1    2    0    0 -0.34573056059E+02  0.22549789684E+02  0.13739283325E+02  0.91147015048E+02  0.80095076164E+02 0.  0.
         11    1    4    4    0    0 -0.18814718787E+02  0.52241556200E+02  0.20705730746E+01  0.55564926978E+02  0.00000000000E+00 0. -1.
        -12    1    4    4    0    0 -0.15758337272E+02 -0.29691766517E+02  0.11668710250E+02  0.35582088069E+02  0.00000000000E+00 0.  1.
        -11    1    3    3    0    0 -0.35746017933E+02 -0.42848941599E+01 -0.13706060695E+03  0.14171008466E+03  0.00000000000E+00 0. -1.
         11    1    3    3    0    0  0.45746812439E+02 -0.98663411890E+01 -0.57386630115E+02  0.74049583745E+02  0.00000000000E+00 0.  1.
          2    1    1    2  501    0  0.24572261553E+02 -0.83985543347E+01  0.78762537489E+02  0.82932919064E+02  0.00000000000E+00 0. -1.
<scales pt_clust_5="13000.00000" pt_clust_6="13000.00000" pt_clust_7="13000.00000" pt_clust_8="13000.00000" pt_clust_9="25.96790"></scales>
<clustering>
<clus scale="   25.968">  1  9  2 -1</clus>
<clus scale="   80.095">  5  6 -1 -1</clus>
<clus scale="   82.812">  1  5  2 -1</clus>
<clus scale="   91.882">  7  8 -1 -1</clus>
<clus scale="   25.968">  1  5  2 -1</clus>
</clustering>
</event>
<event>
 9    1  0.5981539E-005  0.2038621E+03  0.7546771E-02  0.1147698E+00
          3   -1    0    0  502    0 -0.00000000000E+00  0.00000000000E+00  0.22643463196E+03  0.22643463196E+03  0.00000000000E+00 0. -1.
         21   -1    0    0  501  502  0.00000000000E+00 -0.00000000000E+00 -0.54334879060E+03  0.54334879060E+03  0.00000000000E+00 0. -1.
         23    2    1    2    0    0  0.17405668359E+03  0.64219549295E+02  0.14983793833E+03  0.25591746383E+03  0.92857207143E+02 0.  0.
        -24    2    1    2    0    0 -0.15107195784E+03 -0.32424319065E+02 -0.35214439741E+03  0.39272901523E+03  0.79726594464E+02 0.  0.
         11    1    4    4    0    0 -0.13694771945E+03 -0.23297867401E+01 -0.24674704677E+03  0.28221305933E+03  0.00000000000E+00 0. -1.
        -12    1    4    4    0    0 -0.14124238392E+02 -0.30094532325E+02 -0.10539735064E+03  0.11051595590E+03  0.00000000000E+00 0.  1.
        -11    1    3    3    0    0  0.95755707017E+01  0.38121593052E+02  0.41946207861E+02  0.57484187086E+02  0.00000000000E+00 0.  1.
         11    1    3    3    0    0  0.16448111289E+03  0.26097956243E+02  0.10789173046E+03  0.19843327675E+03  0.00000000000E+00 0. -1.
          4    1    1    2  501    0 -0.22984725748E+02 -0.31795230230E+02 -0.11460769955E+03  0.12113694349E+03  0.00000000000E+00 0. -1.
<scales pt_clust_5="13000.00000" pt_clust_6="13000.00000" pt_clust_7="13000.00000" pt_clust_8="13000.00000" pt_clust_9="39.23308"></scales>
<clustering>
<clus scale="   39.233">  2  9  1 -1</clus>
<clus scale="   79.727">  5  6 -1 -1</clus>
<clus scale="   92.857">  7  8 -1 -1</clus>
<clus scale="  198.226">  2  5  1 -1</clus>
<clus scale="   39.233">  2  5  1 -1</clus>
</clustering>
</event>
<event>
 9    1  0.5981539E-005  0.1747328E+03  0.7546771E-02  0.1194657E+00
         -2   -1    0    0    0  501 -0.00000000000E+00  0.00000000000E+00  0.46108719398E+03  0.46108719398E+03  0.00000000000E+00 0.  1.
         21   -1    0    0  501  502  0.00000000000E+00 -0.00000000000E+00 -0.11393902044E+03  0.11393902044E+03  0.00000000000E+00 0.  1.
         23    2    1    2    0    0 -0.34134329344E+02 -0.48398559176E+02  0.15397053976E+03  0.18791529898E+03  0.89986996339E+02 0.  0.
        -24    2    1    2    0    0  0.17145769801E+03  0.12673262612E+02  0.82580049553E+02  0.20720585704E+03  0.80971901396E+02 0.  0.
         11    1    4    4    0    0  0.15037659391E+02  0.21217647888E+02 -0.67563043139E+01  0.26869451610E+02  0.00000000000E+00 0. -1.
        -12    1    4    4    0    0  0.15642003862E+03 -0.85443852755E+01  0.89336353867E+02  0.18033640543E+03  0.00000000000E+00 0.  1.
        -13    1    3    3    0    0 -0.54922489642E+02 -0.39223212781E+02  0.57066750269E+02  0.88382997661E+02  0.00000000000E+00 0. -1.
         13    1    3    3    0    0  0.20788160298E+02 -0.91753463950E+01  0.96903789487E+02  0.99532301324E+02  0.00000000000E+00 0.  1.
         -1    1    1    2    0  502 -0.13732336867E+03  0.35725296563E+02  0.11059758424E+03  0.17990505839E+03  0.00000000000E+00 0.  1.
<scales pt_clust_5="13000.00000" pt_clust_6="13000.00000" pt_clust_7="13000.00000" pt_clust_8="13000.00000" pt_clust_9="154.83905"></scales>
<clustering>
<clus scale="   80.972">  5  6 -1 -1</clus>
<clus scale="   89.987">  7  8 -1 -1</clus>
<clus scale="  107.728">  1  7  2 -1</clus>
<clus scale="  154.839">  2  9  1 -1</clus>
<clus scale="  154.839">  2  5  1 -1</clus>
</clustering>
</event>
<event>
 9    1  0.5981539E-005  0.1183080E+03  0.7546771E-02  0.1249848E+00
          1   -1    0    0  502    0 -0.00000000000E+00  0.00000000000E+00  0.68747276022E+03  0.68747276022E+03  0.00000000000E+00 0. -1.
         21   -1    0    0  501  502  0.00000000000E+00 -0.00000000000E+00 -0.30928540476E+03  0.30928540476E+03  0.00000000000E+00 0. -1.
        -24    2    1    2    0    0  0.80046127483E+02 -0.56784689652E+02  0.53882317862E+03  0.55330364690E+03  0.78629665880E+02 0.  0.
         23    2    1    2    0    0 -0.30759257032E+02 -0.25607182805E+01  0.11934608068E+03  0.15303940223E+03  0.90691137875E+02 0.  0.
         13    1    3    3    0    0  0.36668473137E+02 -0.71162244150E+02  0.34104007232E+03  0.35030982407E+03  0.00000000000E+00 0. -1.
        -14    1    3    3    0    0  0.43377654346E+02  0.14377554499E+02  0.19778310630E+03  0.20299382283E+03  0.00000000000E+00 0.  1.
        -11    1    4    4    0    0 -0.14349679055E+02 -0.35315011294E+02  0.12545850478E+02  0.40130557882E+02  0.00000000000E+00 0.  1.
         11    1    4    4    0    0 -0.16409577977E+02  0.32754293013E+02  0.10680023020E+03  0.11290884434E+03  0.00000000000E+00 0. -1.
          2    1    1    2  501    0 -0.49286870451E+02  0.59345407932E+02 -0.27998190384E+03  0.29041511585E+03  0.00000000000E+00 0. -1.
<scales pt_clust_5="13000.00000" pt_clust_6="13000.00000" pt_clust_7="13000.00000" pt_clust_8="13000.00000" pt_clust_9="77.14320"></scales>
<clustering>
<clus scale="   77.143">  2  9  1 -1</clus>
<clus scale="   78.630">  5  6 -1 -1</clus>
<clus scale="   90.691">  7  8 -1 -1</clus>
<clus scale="  109.337">  1  5  2 -1</clus>
<clus scale="   77.143">  2  5  1 -1</clus>
</clustering>
</event>
<event>
 9    1  0.5981539E-005  0.9453947E+02  0.7546771E-02  0.1299649E+00
         21   -1    0    0  501  502  0.00000000000E+00  0.00000000000E+00  0.14109984397E+02  0.14109984397E+02  0.00000000000E+00 0.  1.
          1   -1    0    0  502    0 -0.00000000000E+00 -0.00000000000E+00 -0.90060221647E+03  0.90060221647E+03  0.00000000000E+00 0. -1.
         23    2    1    2    0    0  0.15643972428E+02 -0.16562018129E+02 -0.42921070830E+03  0.43984926829E+03  0.93415803674E+02 0.  0.
        -24    2    1    2    0    0  0.23692542583E+02  0.11730813873E+02 -0.25954406896E+03  0.27319289766E+03  0.81069643098E+02 0.  0.
         13    1    4    4    0    0  0.96263737351E+01 -0.34431563378E+02 -0.13417945320E+03  0.13886081265E+03  0.00000000000E+00 0. -1.
        -14    1    4    4    0    0  0.14066168848E+02  0.46162377251E+02 -0.12536461575E+03  0.13433208501E+03  0.00000000000E+00 0.  1.
        -13    1    3    3    0    0 -0.11625764959E+02 -0.50935908077E+02 -0.23882388075E+03  0.24447182079E+03  0.00000000000E+00 0. -1.
         13    1    3    3    0    0  0.27269737387E+02  0.34373889948E+02 -0.19038682755E+03  0.19537744750E+03  0.00000000000E+00 0.  1.
          2    1    1    2  501    0 -0.39336515011E+02  0.48312042552E+01 -0.19773745481E+03  0.20167003492E+03  0.00000000000E+00 0. -1.
<scales pt_clust_5="13000.00000" pt_clust_6="13000.00000" pt_clust_7="13000.00000" pt_clust_8="13000.00000" pt_clust_9="39.63210"></scales>
<clustering>
<clus scale="   39.632">  1  9  2 -1</clus>
<clus scale="   81.070">  5  6 -1 -1</clus>
<clus scale="   82.362">  1  5  2 -1</clus>
<clus scale="   93.416">  7  8 -1 -1</clus>
<clus scale="   39.632">  1  5  2 -1</clus>
</clustering>
</event>
<event>
 9    1  0.5981539E-005  0.9664720E+02  0.7546771E-02  0.1301590E+00
         21   -1    0    0  501  502  0.00000000000E+00  0.00000000000E+00  0.55755177530E+03  0.55755177530E+03  0.00000000000E+00 0. -1.
          1   -1    0    0  502    0 -0.00000000000E+00 -0.00000000000E+00 -0.37733073064E+02  0.37733073064E+02  0.00000000000E+00 0. -1.
         23    2    1    2    0    0 -0.23787396061E+02  0.48682375675E+01  0.51669921738E+02  0.11032736813E+03  0.94407665988E+02 0.  0.
        -24    2    1    2    0    0 -0.54512751770E+01 -0.25274613037E+02  0.40816163148E+03  0.41517368482E+03  0.71447524015E+02 0.  0.
         13    1    4    4    0    0 -0.30921609048E+02 -0.36592340181E+02  0.24313480953E+03  0.24780976750E+03  0.00000000000E+00 0. -1.
        -14    1    4    4    0    0  0.25470333871E+02  0.11317727144E+02  0.16502682195E+03  0.16736391732E+03  0.00000000000E+00 0.  1.
        -11    1    3    3    0    0 -0.46714688553E+02 -0.12909847481E+02 -0.28703598289E+01  0.48550646280E+02  0.00000000000E+00 0. -1.
         11    1    3    3    0    0  0.22927292492E+02  0.17778085048E+02  0.54540281567E+02  0.61776721849E+02  0.00000000000E+00 0.  1.
          2    1    1    2  501    0  0.29238671238E+02  0.20406375469E+02  0.59987149022E+02  0.69783795421E+02  0.00000000000E+00 0. -1.
<scales pt_clust_5="13000.00000" pt_clust_6="13000.00000" pt_clust_7="13000.00000" pt_clust_8="13000.00000" pt_clust_9="35.65559"></scales>
<clustering>
<clus scale="   35.656">  1  9  2 -1</clus>
<clus scale="   71.448">  5  6 -1 -1</clus>
<clus scale="   74.382">  1  5  2 -1</clus>
<clus scale="   94.408">  7  8 -1 -1</clus>
<clus scale="   35.656">  1  5  2 -1</clus>
</clustering>
</event>
<event>
 9    1  0.5981539E-005  0.1634208E+03  0.7546771E-02  0.1205153E+00
         21   -1    0    0  501  502  0.00000000000E+00  0.00000000000E+00  0.17407661908E+03  0.17407661908E+03  0.00000000000E+00 0. -1.
          1   -1    0    0  502    0 -0.00000000000E+00 -0.00000000000E+00 -0.25191257614E+03  0.25191257614E+03  0.00000000000E+00 0. -1.
         23    2    1    2    0    0 -0.49605665297E+02 -0.82908299308E+01 -0.53049554677E+01  0.10497035470E+03  0.91984634166E+02 0.  0.
        -24    2    1    2    0    0 -0.61020432330E+02  0.11966004891E+03 -0.29845045019E+02  0.15834331286E+03  0.78357243118E+02 0.  0.
         11    1    4    4    0    0 -0.30268755839E+02  0.11416944771E+03 -0.46402445927E+01  0.11820487401E+03  0.00000000000E+00 0. -1.
        -12    1    4    4    0    0 -0.30751676491E+02  0.54906011962E+01 -0.25204800427E+02  0.40138438846E+02  0.00000000000E+00 0.  1.
        -13    1    3    3    0    0 -0.71957612514E+02 -0.25799584526E+02 -0.37645971576E+01  0.76535539145E+02  0.00000000000E+00 0.  1.
         13    1    3    3    0    0  0.22351947217E+02  0.17508754595E+02 -0.15403583101E+01  0.28434815554E+02  0.00000000000E+00 0. -1.
          2    1    1    2  501    0  0.11062609763E+03 -0.11136921898E+03 -0.42685956571E+02  0.16267552766E+03  0.00000000000E+00 0. -1.
<scales pt_clust_5="13000.00000" pt_clust_6="13000.00000" pt_clust_7="13000.00000" pt_clust_8="13000.00000" pt_clust_9="143.41027"></scales>
<clustering>
<clus scale="   78.357">  5  6 -1 -1</clus>
<clus scale="   91.985">  7  8 -1 -1</clus>
<clus scale="  104.836">  2  7  1 -1</clus>
<clus scale="  143.410">  1  9  2 -1</clus>
<clus scale="  143.410">  1  5  2 -1</clus>
</clustering>
</event>
<event>
 9    1  0.5981539E-005  0.9336023E+02  0.7546771E-02  0.1304728E+00
         21   -1    0    0  501  502  0.00000000000E+00  0.00000000000E+00  0.91490507565E+02  0.91490507565E+02  0.00000000000E+00 0. -1.
          1   -1    0    0  502    0 -0.00000000000E+00 -0.00000000000E+00 -0.28778606614E+03  0.28778606614E+03  0.00000000000E+00 0. -1.
         23    2    1    2    0    0 -0.12188321953E+02 -0.27262139550E+02 -0.18477461048E+03  0.20892622525E+03  0.92826351187E+02 0.  0.
        -24    2    1    2    0    0 -0.17040726818E+02 -0.42403277197E+02 -0.25939880537E+02  0.93437974967E+02  0.77261591210E+02 0.  0.
         13    1    4    4    0    0  0.23931965940E+02 -0.37136224186E+02  0.87484882836E+00  0.44188273343E+02  0.00000000000E+00 0. -1.
        -14    1    4    4    0    0 -0.40972692757E+02 -0.52670530101E+01 -0.26814729365E+02  0.49249701625E+02  0.00000000000E+00 0.  1.
        -11    1    3    3    0    0 -0.26881819803E+02  0.19462839479E+02 -0.24272793612E+02  0.41116941353E+02  0.00000000000E+00 0.  1.
         11    1    3    3    0    0  0.14693497851E+02 -0.46724979029E+02 -0.16050181687E+03  0.16780928390E+03  0.00000000000E+00 0. -1.
          2    1    1    2  501    0  0.29229048770E+02  0.69665416746E+02  0.14418932442E+02  0.76912373486E+02  0.00000000000E+00 0. -1.
<scales pt_clust_5="13000.00000" pt_clust_6="13000.00000" pt_clust_7="13000.00000" pt_clust_8="13000.00000" pt_clust_9="75.54871"></scales>
<clustering>
<clus scale="   75.549">  1  9  2 -1</clus>
<clus scale="   77.262">  5  6 -1 -1</clus>
<clus scale="   77.902">  1  5  2 -1</clus>
<clus scale="   92.826">  7  8 -1 -1</clus>
<clus scale="   75.549">  1  5  2 -1</clus>
</clustering>
</event>
<event>
 9    1  0.5981539E-005  0.1448070E+03  0.7546771E-02  0.1216387E+00
         -4   -1    0    0    0  501 -0.00000000000E+00  0.00000000000E+00  0.34822382324E+03  0.34822382324E+03  0.00000000000E+00 0.  1.
         21   -1    0    0  501  502  0.00000000000E+00 -0.00000000000E+00 -0.14014328115E+03  0.14014328115E+03  0.00000000000E+00 0. -1.
        -24    2    1    2    0    0  0.74263567734E+02 -0.38613150707E+02  0.25357629868E+03  0.27943712824E+03  0.82329317300E+02 0.  0.
         23    2    1    2    0    0 -0.67174648139E+02  0.82322091424E+02 -0.46180663738E+02  0.16464461313E+03  0.11698647290E+03 0.  0.
         13    1    3    3    0    0  0.36274982413E+02 -0.23363428497E+01  0.23141475012E+02  0.43091306695E+02  0.00000000000E+00 0. -1.
        -14    1    3    3    0    0  0.37988585321E+02 -0.36276807858E+02  0.23043482367E+03  0.23634582155E+03  0.00000000000E+00 0.  1.
        -13    1    4    4    0    0 -0.33600439094E+02 -0.14347695854E+02  0.21084419099E+02  0.42182918490E+02  0.00000000000E+00 0.  1.
         13    1    4    4    0    0 -0.33574209045E+02  0.96669787277E+02 -0.67265082837E+02  0.12246169464E+03  0.00000000000E+00 0. -1.
         -3    1    1    2    0  502 -0.70889195958E+01 -0.43708940716E+02  0.68490715500E+00  0.44285363015E+02  0.00000000000E+00 0.  1.
<scales pt_clust_5="13000.00000" pt_clust_6="13000.00000" pt_clust_7="13000.00000" pt_clust_8="13000.00000" pt_clust_9="44.28007"></scales>
<clustering>
<clus scale="   44.280">  2  9  1 -1</clus>
<clus scale="   82.329">  5  6 -1 -1</clus>
<clus scale="  116.986">  7  8 -1 -1</clus>
<clus scale="  118.581">  1  5  2 -1</clus>
<clus scale="   44.280">  2  5  1 -1</clus>
</clustering>
</event>
<event>
 9    1  0.5981539E-005  0.1686594E+03  0.7546771E-02  0.1200188E+00
         21   -1    0    0  501  502  0.00000000000E+00  0.00000000000E+00  0.17151249006E+03  0.17151249006E+03  0.00000000000E+00 0. -1.
          1   -1    0    0  502    0 -0.00000000000E+00 -0.00000000000E+00 -0.34197361031E+03  0.34197361031E+03  0.00000000000E+00 0. -1.
         23    2    1    2    0    0 -0.15973422689E+02 -0.48947740001E+02 -0.63298455892E+02  0.12361204357E+03  0.92855863110E+02 0.  0.
        -24    2    1    2    0    0  0.80795296901E+02 -0.93435391086E+02 -0.16676384719E+03  0.22246099760E+03  0.80129036020E+02 0.  0.
         11    1    4    4    0    0  0.83592469392E+02 -0.10351444741E+03 -0.13728255081E+03  0.19117907971E+03  0.00000000000E+00 0. -1.
        -12    1    4    4    0    0 -0.27971724907E+01  0.10079056328E+02 -0.29481296376E+02  0.31281917882E+02  0.00000000000E+00 0.  1.
        -13    1    3    3    0    0  0.24098924681E+02 -0.25066129084E+02  0.10485556911E+02  0.36318258518E+02  0.00000000000E+00 0. -1.
         13    1    3    3    0    0 -0.40072347370E+02 -0.23881610917E+02 -0.73784012803E+02  0.87293785054E+02  0.00000000000E+00 0.  1.
          2    1    1    2  501    0 -0.64821874212E+02  0.14238313109E+03  0.59601182838E+02  0.16741305920E+03  0.00000000000E+00 0. -1.
<scales pt_clust_5="13000.00000" pt_clust_6="13000.00000" pt_clust_7="13000.00000" pt_clust_8="13000.00000" pt_clust_9="148.40931"></scales>
<clustering>
<clus scale="   80.129">  5  6 -1 -1</clus>
<clus scale="   92.856">  7  8 -1 -1</clus>
<clus scale="  106.176">  2  7  1 -1</clus>
<clus scale="  148.409">  1  9  2 -1</clus>
<clus scale="  148.409">  1  5  2 -1</clus>
</clustering>
</event>
<event>
 9    1  0.5981539E-005  0.1049589E+03  0.7546771E-02  0.1275837E+00
          1   -1    0    0  502    0 -0.00000000000E+00  0.00000000000E+00  0.16264507571E+03  0.16264507571E+03  0.00000000000E+00 0. -1.
         21   -1    0    0  501  502  0.00000000000E+00 -0.00000000000E+00 -0.90445745742E+02  0.90445745742E+02  0.00000000000E+00 0. -1.
         23    2    1    2    0    0  0.59705005459E+02  0.84789223115E+00  0.65495719916E+02  0.12768772595E+03  0.91918765401E+02 0.  0.
        -24    2    1    2    0    0 -0.34435932637E+02 -0.20325157692E+02 -0.99140858173E+01  0.89430359618E+02  0.79376033108E+02 0.  0.
         11    1    4    4    0    0 -0.49573843724E+02 -0.39148073956E+02 -0.14581467180E+02  0.64828673141E+02  0.00000000000E+00 0. -1.
        -12    1    4    4    0    0  0.15137911087E+02  0.18822916264E+02  0.46673813625E+01  0.24601686478E+02  0.00000000000E+00 0.  1.
        -13    1    3    3    0    0  0.17133243925E+02  0.26660420580E+02  0.70849937825E+02  0.77614687803E+02  0.00000000000E+00 0. -1.
         13    1    3    3    0    0  0.42571761534E+02 -0.25812528348E+02 -0.53542179095E+01  0.50073038147E+02  0.00000000000E+00 0.  1.
          2    1    1    2  501    0 -0.25269072822E+02  0.19477265461E+02  0.16617695872E+02  0.35972735887E+02  0.00000000000E+00 0. -1.
<scales pt_clust_5="13000.00000" pt_clust_6="13000.00000" pt_clust_7="13000.00000" pt_clust_8="13000.00000" pt_clust_9="31.90440"></scales>
<clustering>
<clus scale="   31.904">  2  9  1 -1</clus>
<clus scale="   79.376">  5  6 -1 -1</clus>
<clus scale="   91.919">  7  8 -1 -1</clus>
<clus scale="   94.169">  2  5  1 -1</clus>
<clus scale="   31.904">  2  5  1 -1</clus>
</clustering>
</event>
<event>
 9    1  0.5981539E-005  0.1371832E+03  0.7546771E-02  0.1219675E+00
          1   -1    0    0  502    0 -0.00000000000E+00  0.00000000000E+00  0.90419411870E+03  0.90419411870E+03  0.00000000000E+00 0. -1.
         21   -1    0    0  501  502  0.00000000000E+00 -0.00000000000E+00 -0.55260639353E+02  0.55260639353E+02  0.00000000000E+00 0. -1.
        -24    2    1    2    0    0  0.66077041880E+02  0.25891662651E+02  0.31367733141E+03  0.33145709486E+03  0.80210871055E+02 0.  0.
         23    2    1    2    0    0 -0.15920931513E+03 -0.73283132546E+02  0.45562268698E+03  0.49661631047E+03  0.91201444038E+02 0.  0.
         13    1    3    3    0    0 -0.14410452880E+02  0.22069320271E+02  0.69652395479E+02  0.74472627491E+02  0.00000000000E+00 0. -1.
        -14    1    3    3    0    0  0.80487494760E+02  0.38223423806E+01  0.24402493593E+03  0.25698446737E+03  0.00000000000E+00 0.  1.
        -11    1    4    4    0    0 -0.14440552060E+03 -0.39774318293E+02  0.28347001921E+03  0.32060911179E+03  0.00000000000E+00 0. -1.
         11    1    4    4    0    0 -0.14803794530E+02 -0.33508814252E+02  0.17215266777E+03  0.17600719868E+03  0.00000000000E+00 0.  1.
          2    1    1    2  501    0  0.93132273248E+02  0.47391469895E+02  0.79633460959E+02  0.13138135272E+03  0.00000000000E+00 0. -1.
<scales pt_clust_5="13000.00000" pt_clust_6="13000.00000" pt_clust_7="13000.00000" pt_clust_8="13000.00000" pt_clust_9="104.49675"></scales>
<clustering>
<clus scale="   80.211">  5  6 -1 -1</clus>
<clus scale="   91.201">  7  8 -1 -1</clus>
<clus scale="  104.497">  2  9  1 -1</clus>
<clus scale="  130.136">  1  5  2 -1</clus>
<clus scale="  104.497">  2  5  1 -1</clus>
</clustering>
</event>
<event>
 9    1  0.5981539E-005  0.9203109E+02  0.7546771E-02  0.1304100E+00
          1   -1    0    0  502    0 -0.00000000000E+00  0.00000000000E+00  0.69824386609E+02  0.69824386609E+02  0.00000000000E+00 0. -1.
         21   -1    0    0  501  502  0.00000000000E+00 -0.00000000000E+00 -0.41348608294E+03  0.41348608294E+03  0.00000000000E+00 0.  1.
         23    2    1    2    0    0 -0.16977485262E+02 -0.18950927381E+02  0.14226745097E+01  0.94073983081E+02  0.90556709501E+02 0.  0.
        -24    2    1    2    0    0 -0.32827041556E+02 -0.25598404950E+02 -0.28597861369E+03  0.30002536366E+03  0.80613636334E+02 0.  0.
         13    1    4    4    0    0 -0.11656410500E+02  0.25090703692E+02 -0.44672883896E+02  0.52545997689E+02  0.00000000000E+00 0. -1.
        -14    1    4    4    0    0 -0.21170631056E+02 -0.50689108643E+02 -0.24130572979E+03  0.24747936598E+03  0.00000000000E+00 0.  1.
        -13    1    3    3    0    0  0.92697415891E+01 -0.51449092262E+02  0.45523387284E-01  0.52277521709E+02  0.00000000000E+00 0.  1.
         13    1    3    3    0    0 -0.26247226852E+02  0.32498164880E+02  0.13771511224E+01  0.41796461372E+02  0.00000000000E+00 0. -1.
          2    1    1    2  501    0  0.49804526819E+02  0.44549332332E+02 -0.59105757152E+02  0.89211122800E+02  0.00000000000E+00 0. -1.
<scales pt_clust_5="13000.00000" pt_clust_6="13000.00000" pt_clust_7="13000.00000" pt_clust_8="13000.00000" pt_clust_9="66.82169"></scales>
<clustering>
<clus scale="   66.822">  2  9  1 -1</clus>
<clus scale="   80.614">  5  6 -1 -1</clus>
<clus scale="   82.266">  2  5  1 -1</clus>
<clus scale="   90.557">  7  8 -1 -1</clus>
<clus scale="   66.822">  2  5  1 -1</clus>
</clustering>
</event>
<event>
 9    1  0.5981539E-005  0.1568172E+03  0.7546771E-02  0.1217451E+00
         21   -1    0    0  501  502  0.00000000000E+00  0.00000000000E+00  0.10468995526E+03  0.10468995526E+03  0.00000000000E+00 0. -1.
         -2   -1    0    0    0  501 -0.00000000000E+00 -0.00000000000E+00 -0.36737170912E+03  0.36737170912E+03  0.00000000000E+00 0.  1.
        -24    2    1    2    0    0 -0.27049226770E+02  0.32017159660E+02 -0.82410558327E+02  0.12298983963E+03  0.81106358234E+02 0.  0.
         23    2    1    2    0    0  0.89633029875E+02 -0.12824649651E+03 -0.13522335625E+03  0.22575870498E+03  0.90556020713E+02 0.  0.
         13    1    3    3    0    0 -0.10369011718E+02  0.20472281937E+02 -0.95913698701E+02  0.98620831117E+02  0.00000000000E+00 0. -1.
        -14    1    3    3    0    0 -0.16680215051E+02  0.11544877723E+02  0.13503140373E+02  0.24369008510E+02  0.00000000000E+00 0.  1.
        -11    1    4    4    0    0 -0.18091056281E+02 -0.25123752456E+02 -0.16106575677E+02  0.34898582133E+02  0.00000000000E+00 0.  1.
         11    1    4    4    0    0  0.10772408616E+03 -0.10312274405E+03 -0.11911678058E+03  0.19086012285E+03  0.00000000000E+00 0. -1.
         -1    1    1    2    0  502 -0.62583803105E+02  0.96229336850E+02 -0.45047839277E+02  0.12331311976E+03  0.00000000000E+00 0.  1.
<scales pt_clust_5="13000.00000" pt_clust_6="13000.00000" pt_clust_7="13000.00000" pt_clust_8="13000.00000" pt_clust_9="128.02823"></scales>
<clustering>
<clus scale="   81.106">  5  6 -1 -1</clus>
<clus scale="   90.556">  7  8 -1 -1</clus>
<clus scale="   91.296">  2  5  1 -1</clus>
<clus scale="  128.028">  1  9  2 -1</clus>
<clus scale="  128.028">  1  5  2 -1</clus>
</clustering>
</event>
<event>
 9    1  0.5981539E-005  0.1166411E+03  0.7546771E-02  0.1249986E+00
          1   -1    0    0  502    0 -0.00000000000E+00  0.00000000000E+00  0.50904973761E+03  0.50904973761E+03  0.00000000000E+00 0. -1.
         21   -1    0    0  501  502  0.00000000000E+00 -0.00000000000E+00 -0.73841867745E+02  0.73841867745E+02  0.00000000000E+00 0.  1.
         23    2    1    2    0    0 -0.59663911712E+02 -0.38377459333E+02  0.42501402167E+03  0.44084731979E+03  0.93149498104E+02 0.  0.
        -24    2    1    2    0    0  0.67580043025E+02  0.13715367390E+02 -0.28333329379E+01  0.11305133190E+03  0.89539948356E+02 0.  0.
         11    1    4    4    0    0  0.21081802635E+02  0.30597370379E+02  0.34789813429E+02  0.50901597174E+02  0.00000000000E+00 0. -1.
        -12    1    4    4    0    0  0.46498240391E+02 -0.16882002989E+02 -0.37623146367E+02  0.62149734729E+02  0.00000000000E+00 0.  1.
        -11    1    3    3    0    0 -0.16750475704E+02 -0.59849131901E+02  0.31096417473E+03  0.31711388332E+03  0.00000000000E+00 0. -1.
         11    1    3    3    0    0 -0.42913436008E+02  0.21471672568E+02  0.11404984694E+03  0.12373343647E+03  0.00000000000E+00 0.  1.
          2    1    1    2  501    0 -0.79161313129E+01  0.24662091943E+02  0.13027181125E+02  0.28992953662E+02  0.00000000000E+00 0. -1.
<scales pt_clust_5="13000.00000" pt_clust_6="13000.00000" pt_clust_7="13000.00000" pt_clust_8="13000.00000" pt_clust_9="25.90143"></scales>
<clustering>
<clus scale="   25.901">  2  9  1 -1</clus>
<clus scale="   89.540">  5  6 -1 -1</clus>
<clus scale="   93.149">  7  8 -1 -1</clus>
<clus scale="  113.779">  2  5  1 -1</clus>
<clus scale="   25.901">  2  5  1 -1</clus>
</clustering>
</event>
<event>
 9    1  0.5981539E-005  0.1254267E+03  0.7546771E-02  0.1237306E+00
         21   -1    0    0  501  502  0.00000000000E+00  0.00000000000E+00  0.15431518591E+03  0.15431518591E+03  0.00000000000E+00 0.  1.
         -2   -1    0    0    0  501 -0.00000000000E+00 -0.00000000000E+00 -0.24166754019E+03  0.24166754019E+03  0.00000000000E+00 0.  1.
         23    2    1    2    0    0  0.68299258000E+02  0.51192518336E+02 -0.91970956197E+02  0.15515383056E+03  0.91261118653E+02 0.  0.
        -24    2    1    2    0    0 -0.31025228568E+02 -0.90057158181E+02 -0.74164822209E+02  0.14540017126E+03  0.81042781302E+02 0.  0.
         11    1    4    4    0    0 -0.16615565756E+02 -0.47615569058E+02  0.87133470915E+01  0.51178529284E+02  0.00000000000E+00 0. -1.
        -12    1    4    4    0    0 -0.14409662813E+02 -0.42441589123E+02 -0.82878169300E+02  0.94221641974E+02  0.00000000000E+00 0.  1.
        -13    1    3    3    0    0  0.38375415319E+02  0.19843751720E+02 -0.10191136429E+03  0.11069043841E+03  0.00000000000E+00 0. -1.
         13    1    3    3    0    0  0.29923842682E+02  0.31348766616E+02  0.99404080922E+01  0.44463392158E+02  0.00000000000E+00 0.  1.
         -1    1    1    2    0  502 -0.37274029432E+02  0.38864639846E+02  0.78783424131E+02  0.95428724283E+02  0.00000000000E+00 0.  1.
<scales pt_clust_5="13000.00000" pt_clust_6="13000.00000" pt_clust_7="13000.00000" pt_clust_8="13000.00000" pt_clust_9="53.84992"></scales>
<clustering>
<clus scale="   53.850">  1  9  2 -1</clus>
<clus scale="   81.043">  5  6 -1 -1</clus>
<clus scale="   91.261">  7  8 -1 -1</clus>
<clus scale="  118.200">  1  5  2 -1</clus>
<clus scale="   53.850">  1  5  2 -1</clus>
</clustering>
</event>
<event>
 9    1  0.5981539E-005  0.1141987E+03  0.7546771E-02  0.1256756E+00
         21   -1    0    0  501  502  0.00000000000E+00  0.00000000000E+00  0.25199373893E+02  0.25199373893E+02  0.00000000000E+00 0. -1.
          1   -1    0    0  502    0 -0.00000000000E+00 -0.00000000000E+00 -0.65721911331E+03  0.65721911331E+03  0.00000000000E+00 0. -1.
        -24    2    1    2    0    0 -0.62681658845E+02  0.45138785659E+01 -0.28450827450E+03  0.30193943871E+03  0.79202909875E+02 0.  0.
         23    2    1    2    0    0  0.76792792658E+02 -0.32151871865E+02 -0.29575188227E+03  0.32012975548E+03  0.89905553848E+02 0.  0.
         13    1    3    3    0    0 -0.22429438784E+02  0.25613214553E+01 -0.10349306604E+02  0.24834416420E+02  0.00000000000E+00 0. -1.
        -14    1    3    3    0    0 -0.40252220061E+02  0.19525571107E+01 -0.27415896790E+03  0.27710502229E+03  0.00000000000E+00 0.  1.
        -13    1    4    4    0    0  0.58454391199E+02 -0.63115746472E+02 -0.22143094635E+03  0.23755457752E+03  0.00000000000E+00 0. -1.
         13    1    4    4    0    0  0.18338401459E+02  0.30963874607E+02 -0.74320935922E+02  0.82575177960E+02  0.00000000000E+00 0.  1.
          2    1    1    2  501    0 -0.14111133813E+02  0.27637993299E+02 -0.51759582652E+02  0.60349293015E+02  0.00000000000E+00 0. -1.
<scales pt_clust_5="13000.00000" pt_clust_6="13000.00000" pt_clust_7="13000.00000" pt_clust_8="13000.00000" pt_clust_9="31.03196"></scales>
<clustering>
<clus scale="   31.032">  1  9  2 -1</clus>
<clus scale="   79.203">  5  6 -1 -1</clus>
<clus scale="   89.906">  7  8 -1 -1</clus>
<clus scale="  105.978">  2  5  1 -1</clus>
<clus scale="   31.032">  1  5  2 -1</clus>
</clustering>
</event>
<event>
 9    1  0.5981539E-005  0.2083196E+03  0.7546771E-02  0.1153163E+00
         21   -1    0    0  501  502  0.00000000000E+00  0.00000000000E+00  0.16409341115E+03  0.16409341115E+03  0.00000000000E+00 0. -1.
          1   -1    0    0  502    0 -0.00000000000E+00 -0.00000000000E+00 -0.62415186853E+03  0.62415186853E+03  0.00000000000E+00 0. -1.
         23    2    1    2    0    0 -0.43303969540E+02  0.12685866514E+03 -0.17611022829E+03  0.24011896000E+03  0.93134031074E+02 0.  0.
        -24    2    1    2    0    0  0.14426565405E+03  0.61086149038E+02 -0.28436714788E+03  0.33477991027E+03  0.81662824975E+02 0.  0.
         13    1    4    4    0    0  0.11231289236E+03  0.55561585951E+01 -0.18782353479E+03  0.21891262391E+03  0.00000000000E+00 0. -1.
        -14    1    4    4    0    0  0.31952761689E+02  0.55529990443E+02 -0.96543613097E+02  0.11586728636E+03  0.00000000000E+00 0.  1.
        -11    1    3    3    0    0 -0.17960391819E+02  0.13045483810E+03 -0.11880869050E+03  0.17735993177E+03  0.00000000000E+00 0. -1.
         11    1    3    3    0    0 -0.25343577721E+02 -0.35961729596E+01 -0.57301537789E+02  0.62759028232E+02  0.00000000000E+00 0.  1.
          2    1    1    2  501    0 -0.10096168451E+03 -0.18794481418E+03  0.41891879691E+00  0.21334640941E+03  0.00000000000E+00 0. -1.
<scales pt_clust_5="13000.00000" pt_clust_6="13000.00000" pt_clust_7="13000.00000" pt_clust_8="13000.00000" pt_clust_9="191.64613"></scales>
<clustering>
<clus scale="   81.663">  5  6 -1 -1</clus>
<clus scale="   93.134">  7  8 -1 -1</clus>
<clus scale="  163.225">  2  7  1 -1</clus>
<clus scale="  191.646">  1  9  2 -1</clus>
<clus scale="  191.646">  1  5  2 -1</clus>
</clustering>
</event>
<event>
 9    1  0.5981539E-005  0.1117800E+03  0.7546771E-02  0.1263681E+00
         21   -1    0    0  501  502  0.00000000000E+00  0.00000000000E+00  0.43708094998E+03  0.43708094998E+03  0.00000000000E+00 0.  1.
          1   -1    0    0  502    0 -0.00000000000E+00 -0.00000000000E+00 -0.10544434719E+03  0.10544434719E+03  0.00000000000E+00 0. -1.
         23    2    1    2    0    0  0.44302913070E+02  0.39172064386E+02 -0.52683278821E+02  0.12520634534E+03  0.96973719697E+02 0.  0.
        -24    2    1    2    0    0 -0.13591348226E+01 -0.29112759616E+02  0.35241848666E+03  0.36288498539E+03  0.81469766549E+02 0.  0.
         13    1    4    4    0    0 -0.27031818662E+02 -0.14578040862E+02  0.47637688534E+02  0.56679695345E+02  0.00000000000E+00 0. -1.
        -14    1    4    4    0    0  0.25672683840E+02 -0.14534718753E+02  0.30478079813E+03  0.30620529004E+03  0.00000000000E+00 0.  1.
        -11    1    3    3    0    0 -0.61680716689E+01  0.57961767536E+02 -0.37282439360E+02  0.69192426527E+02  0.00000000000E+00 0.  1.
         11    1    3    3    0    0  0.50470984739E+02 -0.18789703150E+02 -0.15400839461E+02  0.56013918816E+02  0.00000000000E+00 0. -1.
          2    1    1    2  501    0 -0.42943778248E+02 -0.10059304771E+02  0.31901394947E+02  0.54433966438E+02  0.00000000000E+00 0. -1.
<scales pt_clust_5="13000.00000" pt_clust_6="13000.00000" pt_clust_7="13000.00000" pt_clust_8="13000.00000" pt_clust_9="44.10623"></scales>
<clustering>
<clus scale="   44.106">  1  9  2 -1</clus>
<clus scale="   81.470">  5  6 -1 -1</clus>
<clus scale="   96.974">  7  8 -1 -1</clus>
<clus scale="   98.632">  1  5  2 -1</clus>
<clus scale="   44.106">  1  5  2 -1</clus>
</clustering>
</event>
<event>
 9    1  0.5981539E-005  0.9082549E+02  0.7546771E-02  0.1305974E+00
         -2   -1    0    0    0  501 -0.00000000000E+00  0.00000000000E+00  0.99708673407E+02  0.99708673407E+02  0.00000000000E+00 0.  1.
         21   -1    0    0  501  502  0.00000000000E+00 -0.00000000000E+00 -0.23013549737E+03  0.23013549737E+03  0.00000000000E+00 0. -1.
         23    2    1    2    0    0 -0.56645130923E+01  0.49840487381E+01 -0.52478013579E+02  0.10331839901E+03  0.88678194694E+02 0.  0.
        -24    2    1    2    0    0  0.26095822517E+02 -0.33733378988E+02 -0.13301017219E+03  0.16113681277E+03  0.80339490381E+02 0.  0.
         13    1    4    4    0    0  0.21467396112E+02 -0.19841529075E+02 -0.14131241651E+03  0.14430431190E+03  0.00000000000E+00 0. -1.
        -14    1    4    4    0    0  0.46284264045E+01 -0.13891849913E+02  0.83022443229E+01  0.16832500877E+02  0.00000000000E+00 0.  1.
        -13    1    3    3    0    0 -0.41482931530E+02 -0.80544621975E+01 -0.49500396062E+02  0.65084538716E+02  0.00000000000E+00 0.  1.
         13    1    3    3    0    0  0.35818418438E+02  0.13038510936E+02 -0.29776175176E+01  0.38233860293E+02  0.00000000000E+00 0. -1.
         -1    1    1    2    0  502 -0.20431309424E+02  0.28749330250E+02  0.55061361804E+02  0.65388958994E+02  0.00000000000E+00 0.  1.
<scales pt_clust_5="13000.00000" pt_clust_6="13000.00000" pt_clust_7="13000.00000" pt_clust_8="13000.00000" pt_clust_9="35.26987"></scales>
<clustering>
<clus scale="   35.270">  2  9  1 -1</clus>
<clus scale="   80.339">  5  6 -1 -1</clus>
<clus scale="   82.704">  2  5  1 -1</clus>
<clus scale="   88.678">  7  8 -1 -1</clus>
<clus scale="   35.270">  2  5  1 -1</clus>
</clustering>
</event>
<event>
 9    1  0.5981539E-005  0.9220563E+02  0.7546771E-02  0.1300524E+00
         -2   -1    0    0    0  501 -0.00000000000E+00  0.00000000000E+00  0.43751734736E+02  0.43751734736E+02  0.00000000000E+00 0.  1.
         21   -1    0    0  501  502  0.00000000000E+00 -0.00000000000E+00 -0.37338924477E+03  0.37338924477E+03  0.00000000000E+00 0.  1.
         23    2    1    2    0    0 -0.22691408682E+02  0.14916729570E+02 -0.42656441325E+02  0.99635907470E+02  0.85850644853E+02 0.  0.
        -24    2    1    2    0    0  0.39122458253E+02 -0.26529857031E+02 -0.13495778405E+03  0.16415604792E+03  0.80617644089E+02 0.  0.
         11    1    4    4    0    0  0.94763956080E+01  0.27056861983E+02 -0.23864953836E+02  0.37301633686E+02  0.00000000000E+00 0. -1.
        -12    1    4    4    0    0  0.29646062645E+02 -0.53586719014E+02 -0.11109283021E+03  0.12685441423E+03  0.00000000000E+00 0.  1.
        -11    1    3    3    0    0  0.25346336699E+02 -0.11480903721E+02  0.34130164687E+01  0.28033847680E+02  0.00000000000E+00 0.  1.
         11    1    3    3    0    0 -0.48037745381E+02  0.26397633292E+02 -0.46069457794E+02  0.71602059790E+02  0.00000000000E+00 0. -1.
         -1    1    1    2    0  502 -0.16431049571E+02  0.11613127461E+02 -0.15202328466E+03  0.15334902412E+03  0.00000000000E+00 0.  1.
<scales pt_clust_5="13000.00000" pt_clust_6="13000.00000" pt_clust_7="13000.00000" pt_clust_8="13000.00000" pt_clust_9="20.12074"></scales>
<clustering>
<clus scale="   20.121">  2  9  1 -1</clus>
<clus scale="   80.618">  5  6 -1 -1</clus>
<clus scale="   85.851">  7  8 -1 -1</clus>
<clus scale="   87.354">  2  5  1 -1</clus>
<clus scale="   20.121">  2  5  1 -1</clus>
</clustering>
</event>
<event>
 9    1  0.5981539E-005  0.1489861E+03  0.7546771E-02  0.1221374E+00
          1   -1    0    0  502    0 -0.00000000000E+00  0.00000000000E+00  0.29177962139E+03  0.29177962139E+03  0.00000000000E+00 0. -1.
         21   -1    0    0  501  502  0.00000000000E+00 -0.00000000000E+00 -0.16569908311E+03  0.16569908311E+03  0.00000000000E+00 0. -1.
        -24    2    1    2    0    0 -0.57908832182E+02 -0.35090672306E+01 -0.50739619845E+02  0.11038761223E+03  0.79026384930E+02 0.  0.
         23    2    1    2    0    0 -0.42902312023E+02  0.81881510350E+02  0.17658777955E+03  0.21939935159E+03  0.91693192089E+02 0.  0.
         13    1    3    3    0    0 -0.70632403413E+02 -0.21562079104E+02 -0.48125667201E+02  0.88147260370E+02  0.00000000000E+00 0. -1.
        -14    1    3    3    0    0  0.12723571231E+02  0.18053011874E+02 -0.26139526440E+01  0.22240351863E+02  0.00000000000E+00 0.  1.
        -13    1    4    4    0    0 -0.45634307226E+02  0.82560143677E+01  0.11274623060E+03  0.12191129679E+03  0.00000000000E+00 0.  1.
         13    1    4    4    0    0  0.27319952033E+01  0.73625495982E+02  0.63841548953E+02  0.97488054802E+02  0.00000000000E+00 0. -1.
          2    1    1    2  501    0  0.10081114421E+03 -0.78372443119E+02  0.23237857524E+00  0.12769174067E+03  0.00000000000E+00 0. -1.
<scales pt_clust_5="13000.00000" pt_clust_6="13000.00000" pt_clust_7="13000.00000" pt_clust_8="13000.00000" pt_clust_9="117.42750"></scales>
<clustering>
<clus scale="   79.026">  5  6 -1 -1</clus>
<clus scale="   91.693">  7  8 -1 -1</clus>
<clus scale="   98.035">  1  5  2 -1</clus>
<clus scale="  117.428">  2  9  1 -1</clus>
<clus scale="  117.428">  2  5  1 -1</clus>
</clustering>
</event>
<event>
 9    1  0.5981539E-005  0.1161854E+03  0.7546771E-02  0.1253431E+00
          1   -1    0    0  502    0 -0.00000000000E+00  0.00000000000E+00  0.25500424712E+03  0.25500424712E+03  0.00000000000E+00 0. -1.
         21   -1    0    0  501  502  0.00000000000E+00 -0.00000000000E+00 -0.30204827664E+03  0.30204827664E+03  0.00000000000E+00 0. -1.
         23    2    1    2    0    0  0.42536905173E+02 -0.59254671974E+02  0.34538729191E+02  0.12195379365E+03  0.91429204953E+02 0.  0.
        -24    2    1    2    0    0 -0.85394824384E+02  0.13231713531E+02 -0.23851944230E+03  0.26603058824E+03  0.80083676545E+02 0.  0.
         13    1    4    4    0    0 -0.97272050419E+02  0.99072277141E+01 -0.23267146668E+03  0.25238069728E+03  0.00000000000E+00 0. -1.
        -14    1    4    4    0    0  0.11877226035E+02  0.33244858170E+01 -0.58479756170E+01  0.13649890954E+02  0.00000000000E+00 0.  1.
        -13    1    3    3    0    0 -0.94706533405E+01 -0.63745090628E+02  0.23518949701E+02  0.68602265625E+02  0.00000000000E+00 0. -1.
         13    1    3    3    0    0  0.52007558513E+02  0.44904186547E+01  0.11019779491E+02  0.53351528021E+02  0.00000000000E+00 0.  1.
          2    1    1    2  501    0  0.42857919212E+02  0.46022958442E+02  0.15693668358E+03  0.16906814187E+03  0.00000000000E+00 0. -1.
<scales pt_clust_5="13000.00000" pt_clust_6="13000.00000" pt_clust_7="13000.00000" pt_clust_8="13000.00000" pt_clust_9="62.88814"></scales>
<clustering>
<clus scale="   62.888">  2  9  1 -1</clus>
<clus scale="   80.084">  5  6 -1 -1</clus>
<clus scale="   91.429">  7  8 -1 -1</clus>
<clus scale="  107.486">  2  5  1 -1</clus>
<clus scale="   62.888">  2  5  1 -1</clus>
</clustering>
</event>
<event>
 9    1  0.5981539E-005  0.1029002E+03  0.7546771E-02  0.1280095E+00
         21   -1    0    0  501  502  0.00000000000E+00  0.00000000000E+00  0.98728298418E+02  0.98728298418E+02  0.00000000000E+00 0. -1.
          1   -1    0    0  502    0 -0.00000000000E+00 -0.00000000000E+00 -0.37193755518E+03  0.37193755518E+03  0.00000000000E+00 0. -1.
        -24    2    1    2    0    0 -0.46284375148E+02  0.69200327567E+01 -0.29240976635E+03  0.30670099814E+03  0.79824185329E+02 0.  0.
         23    2    1    2    0    0  0.31029690814E+02 -0.34394085831E+02  0.54612348963E+02  0.11662008432E+03  0.92043145079E+02 0.  0.
         11    1    3    3    0    0 -0.42045616983E+02  0.33990392436E+02 -0.11366884800E+03  0.12587210847E+03  0.00000000000E+00 0. -1.
        -12    1    3    3    0    0 -0.42387581650E+01 -0.27070359680E+02 -0.17874091835E+03  0.18082888967E+03  0.00000000000E+00 0.  1.
        -11    1    4    4    0    0 -0.11685067323E+02  0.25438954472E+02  0.24410869031E+02  0.37142586472E+02  0.00000000000E+00 0.  1.
         11    1    4    4    0    0  0.42714758137E+02 -0.59833040303E+02  0.30201479932E+02  0.79477497851E+02  0.00000000000E+00 0. -1.
          2    1    1    2  501    0  0.15254684334E+02  0.27474053074E+02 -0.35411839376E+02  0.47344771141E+02  0.00000000000E+00 0. -1.
<scales pt_clust_5="13000.00000" pt_clust_6="13000.00000" pt_clust_7="13000.00000" pt_clust_8="13000.00000" pt_clust_9="31.42499"></scales>
<clustering>
<clus scale="   31.425">  1  9  2 -1</clus>
<clus scale="   79.824">  5  6 -1 -1</clus>
<clus scale="   92.043">  7  8 -1 -1</clus>
<clus scale="   92.133">  2  5  1 -1</clus>
<clus scale="   31.425">  1  5  2 -1</clus>
</clustering>
</event>
<event>
 9    1  0.5981539E-005  0.3329592E+03  0.7546771E-02  0.1113653E+00
          1   -1    0    0  502    0 -0.00000000000E+00  0.00000000000E+00  0.22142655410E+03  0.22142655410E+03  0.00000000000E+00 0. -1.
         21   -1    0    0  501  502  0.00000000000E+00 -0.00000000000E+00 -0.22131411056E+04  0.22131411056E+04  0.00000000000E+00 0. -1.
         23    2    1    2    0    0  0.51576366239E+02  0.48157203945E+01  0.74647658767E+02  0.12874678943E+03  0.91214856864E+02 0.  0.
        -24    2    1    2    0    0 -0.36557133866E+03 -0.50122429105E+02 -0.22979799525E+03  0.44205756545E+03  0.80331257905E+02 0.  0.
         11    1    4    4    0    0 -0.24565679932E+03 -0.71310526899E+02 -0.15184535914E+03  0.29747179260E+03  0.00000000000E+00 0. -1.
        -12    1    4    4    0    0 -0.11991453934E+03  0.21188097793E+02 -0.77952636116E+02  0.14458577285E+03  0.00000000000E+00 0.  1.
        -11    1    3    3    0    0  0.84311660846E+01 -0.24974837749E+02  0.71519850927E+02  0.76222806028E+02  0.00000000000E+00 0.  1.
         11    1    3    3    0    0  0.43145200154E+02  0.29790558144E+02  0.31278078393E+01  0.52523983405E+02  0.00000000000E+00 0. -1.
          2    1    1    2  501    0  0.31399497242E+03  0.45306708711E+02 -0.18365642150E+04  0.18637633048E+04  0.00000000000E+00 0. -1.
<scales pt_clust_5="13000.00000" pt_clust_6="13000.00000" pt_clust_7="13000.00000" pt_clust_8="13000.00000" pt_clust_9="323.12336"></scales>
<clustering>
<clus scale="   80.331">  5  6 -1 -1</clus>
<clus scale="   91.215">  7  8 -1 -1</clus>
<clus scale="  104.897">  1  7  2 -1</clus>
<clus scale="  323.123">  2  9  1 -1</clus>
<clus scale="  323.123">  2  5  1 -1</clus>
</clustering>
</event>
<event>
 9    1  0.5981539E-005  0.1380101E+03  0.7546771E-02  0.1218427E+00
         21   -1    0    0  501  502  0.00000000000E+00  0.00000000000E+00  0.88488197086E+02  0.88488197086E+02  0.00000000000E+00 0.  1.
          1   -1    0    0  502    0 -0.00000000000E+00 -0.00000000000E+00 -0.36271166779E+03  0.36271166779E+03  0.00000000000E+00 0. -1.
        -24    2    1    2    0    0 -0.78168931099E+02 -0.46858984739E+02 -0.18520689249E+03  0.22203336626E+03  0.81799000415E+02 0.  0.
         23    2    1    2    0    0  0.11420087445E+03  0.62246634093E+02 -0.10027957607E+03  0.18839965160E+03  0.92314420127E+02 0.  0.
         11    1    3    3    0    0 -0.60364195294E+02 -0.29402053735E+02 -0.18530886698E+03  0.19709818116E+03  0.00000000000E+00 0. -1.
        -12    1    3    3    0    0 -0.17804735805E+02 -0.17456931004E+02  0.10197448943E+00  0.24935185100E+02  0.00000000000E+00 0.  1.
        -13    1    4    4    0    0  0.81887936386E+02  0.49969742669E+02 -0.15932349662E+02  0.97244275274E+02  0.00000000000E+00 0.  1.
         13    1    4    4    0    0  0.32312938068E+02  0.12276891424E+02 -0.84347226412E+02  0.91155376325E+02  0.00000000000E+00 0. -1.
          2    1    1    2  501    0 -0.36031943354E+02 -0.15387649353E+02  0.11262997859E+02  0.40766847012E+02  0.00000000000E+00 0. -1.
<scales pt_clust_5="13000.00000" pt_clust_6="13000.00000" pt_clust_7="13000.00000" pt_clust_8="13000.00000" pt_clust_9="39.18011"></scales>
<clustering>
<clus scale="   39.180">  1  9  2 -1</clus>
<clus scale="   81.799">  5  6 -1 -1</clus>
<clus scale="   92.314">  7  8 -1 -1</clus>
<clus scale="  131.209">  2  5  1 -1</clus>
<clus scale="   39.180">  1  5  2 -1</clus>
</clustering>
</event>
<event>
 9    1  0.5981539E-005  0.1150973E+03  0.7546771E-02  0.1251917E+00
         21   -1    0    0  501  502  0.00000000000E+00  0.00000000000E+00  0.24652879014E+03  0.24652879014E+03  0.00000000000E+00 0. -1.
          1   -1    0    0  502    0 -0.00000000000E+00 -0.00000000000E+00 -0.13854925612E+03  0.13854925612E+03  0.00000000000E+00 0. -1.
        -24    2    1    2    0    0 -0.54539219624E+02  0.39892658053E+02 -0.12450506794E+02  0.11023965125E+03  0.86207974950E+02 0.  0.
         23    2    1    2    0    0  0.10489278860E+03  0.32415066565E+02  0.21179611111E+02  0.14211862728E+03  0.87726248380E+02 0.  0.
         13    1    3    3    0    0  0.95878560854E+01  0.28985573995E+02  0.21038524668E+02  0.37077081929E+02  0.00000000000E+00 0. -1.
        -14    1    3    3    0    0 -0.64127075710E+02  0.10907084058E+02 -0.33489031462E+02  0.73162569324E+02  0.00000000000E+00 0.  1.
        -11    1    4    4    0    0  0.72414501350E+02  0.16028875309E+02  0.55088375227E+02  0.92387845167E+02  0.00000000000E+00 0.  1.
         11    1    4    4    0    0  0.32478287245E+02  0.16386191256E+02 -0.33908764115E+02  0.49730782118E+02  0.00000000000E+00 0. -1.
          2    1    1    2  501    0 -0.50353568971E+02 -0.72307724618E+02  0.99250429704E+02  0.13271976772E+03  0.00000000000E+00 0. -1.
<scales pt_clust_5="13000.00000" pt_clust_6="13000.00000" pt_clust_7="13000.00000" pt_clust_8="13000.00000" pt_clust_9="88.11293"></scales>
<clustering>
<clus scale="   86.208">  5  6 -1 -1</clus>
<clus scale="   87.726">  7  8 -1 -1</clus>
<clus scale="   88.113">  1  9  2 -1</clus>
<clus scale="  113.944">  2  5  1 -1</clus>
<clus scale="   88.113">  1  5  2 -1</clus>
</clustering>
</event>
<event>
 9    1  0.5981539E-005  0.1035807E+03  0.7546771E-02  0.1278547E+00
         21   -1    0    0  501  502  0.00000000000E+00  0.00000000000E+00  0.35181371556E+02  0.35181371556E+02  0.00000000000E+00 0.  1.
         -2   -1    0    0    0  501 -0.00000000000E+00 -0.00000000000E+00 -0.50076648643E+03  0.50076648643E+03  0.00000000000E+00 0.  1.
        -24    2    1    2    0    0  0.15307302310E+02  0.70175218486E+02 -0.21015684506E+03  0.23597824847E+03  0.79755623186E+02 0.  0.
         23    2    1    2    0    0  0.19627985128E+02 -0.21863589808E+02 -0.13912010576E+03  0.16927119025E+03  0.91842569993E+02 0.  0.
         13    1    3    3    0    0  0.22153829686E+02  0.51954758809E+01 -0.13272851432E+03  0.13466493104E+03  0.00000000000E+00 0. -1.
        -14    1    3    3    0    0 -0.68465273764E+01  0.64979742605E+02 -0.77428330747E+02  0.10131331743E+03  0.00000000000E+00 0.  1.
        -13    1    4    4    0    0  0.43840313769E+02 -0.24316182647E+02 -0.32122264234E+02  0.59540655937E+02  0.00000000000E+00 0.  1.
         13    1    4    4    0    0 -0.24212328641E+02  0.24525928391E+01 -0.10699784152E+03  0.10973053431E+03  0.00000000000E+00 0. -1.
         -1    1    1    2    0  502 -0.34935287438E+02 -0.48311628678E+02 -0.11630816405E+03  0.13069841927E+03  0.00000000000E+00 0.  1.
<scales pt_clust_5="13000.00000" pt_clust_6="13000.00000" pt_clust_7="13000.00000" pt_clust_8="13000.00000" pt_clust_9="59.61955"></scales>
<clustering>
<clus scale="   59.620">  1  9  2 -1</clus>
<clus scale="   79.756">  5  6 -1 -1</clus>
<clus scale="   91.843">  7  8 -1 -1</clus>
<clus scale="   93.032">  2  5  1 -1</clus>
<clus scale="   59.620">  1  5  2 -1</clus>
</clustering>
</event>
<event>
 9    1  0.5981539E-005  0.9292306E+02  0.7546771E-02  0.1302508E+00
          3   -1    0    0  502    0 -0.00000000000E+00  0.00000000000E+00  0.45231954630E+02  0.45231954630E+02  0.00000000000E+00 0. -1.
         21   -1    0    0  501  502  0.00000000000E+00 -0.00000000000E+00 -0.65920035982E+03  0.65920035982E+03  0.00000000000E+00 0. -1.
        -24    2    1    2    0    0  0.10639973947E+02 -0.16834005805E+02 -0.25927789928E+02  0.87316208193E+02  0.80964665908E+02 0.  0.
         23    2    1    2    0    0 -0.15469036925E+02 -0.50589269608E+02 -0.46315738084E+03  0.47511244378E+03  0.91752435966E+02 0.  0.
         11    1    3    3    0    0  0.13049019372E+02 -0.42096363049E+02 -0.38928290308E+02  0.58802997158E+02  0.00000000000E+00 0. -1.
        -12    1    3    3    0    0 -0.24090454249E+01  0.25262357243E+02  0.13000500380E+02  0.28513211034E+02  0.00000000000E+00 0.  1.
        -13    1    4    4    0    0  0.38328401183E+02 -0.16915458791E+02 -0.20829081674E+03  0.21246238119E+03  0.00000000000E+00 0. -1.
         13    1    4    4    0    0 -0.53797438107E+02 -0.33673810817E+02 -0.25486656410E+03  0.26265006259E+03  0.00000000000E+00 0.  1.
          4    1    1    2  501    0  0.48290629773E+01  0.67423275413E+02 -0.12488323442E+03  0.14200366247E+03  0.00000000000E+00 0. -1.
<scales pt_clust_5="13000.00000" pt_clust_6="13000.00000" pt_clust_7="13000.00000" pt_clust_8="13000.00000" pt_clust_9="67.59599"></scales>
<clustering>
<clus scale="   67.596">  2  9  1 -1</clus>
<clus scale="   80.965">  5  6 -1 -1</clus>
<clus scale="   82.289">  1  5  2 -1</clus>
<clus scale="   91.752">  7  8 -1 -1</clus>
<clus scale="   67.596">  2  5  1 -1</clus>
</clustering>
</event>
<event>
 9    1  0.5981539E-005  0.1411241E+03  0.7546771E-02  0.1213975E+00
         21   -1    0    0  501  502  0.00000000000E+00  0.00000000000E+00  0.27254310986E+02  0.27254310986E+02  0.00000000000E+00 0. -1.
          1   -1    0    0  502    0 -0.00000000000E+00 -0.00000000000E+00 -0.91127835587E+03  0.91127835587E+03  0.00000000000E+00 0. -1.
        -24    2    1    2    0    0 -0.88519520832E+01  0.95548560060E+02 -0.35954857581E+03  0.38059543128E+03  0.79811149340E+02 0.  0.
         23    2    1    2    0    0  0.49245304451E+01 -0.12666676306E+03 -0.39006190096E+03  0.41991269249E+03  0.90053666633E+02 0.  0.
         11    1    3    3    0    0 -0.41110125738E+02  0.38837713919E+02 -0.12610283346E+03  0.13820396183E+03  0.00000000000E+00 0. -1.
        -12    1    3    3    0    0  0.32258173654E+02  0.56710846141E+02 -0.23344574236E+03  0.24239146945E+03  0.00000000000E+00 0.  1.
        -11    1    4    4    0    0 -0.42439133083E+02 -0.64431052730E+02 -0.18501722841E+03  0.20045901173E+03  0.00000000000E+00 0.  1.
         11    1    4    4    0    0  0.47363663528E+02 -0.62235710334E+02 -0.20504467254E+03  0.21945368077E+03  0.00000000000E+00 0. -1.
          2    1    1    2  501    0  0.39274216382E+01  0.31118203004E+02 -0.13441356811E+03  0.13802454308E+03  0.00000000000E+00 0. -1.
<scales pt_clust_5="13000.00000" pt_clust_6="13000.00000" pt_clust_7="13000.00000" pt_clust_8="13000.00000" pt_clust_9="31.36508"></scales>
<clustering>
<clus scale="   31.365">  1  9  2 -1</clus>
<clus scale="   79.811">  5  6 -1 -1</clus>
<clus scale="   90.054">  7  8 -1 -1</clus>
<clus scale="  134.819">  2  5  1 -1</clus>
<clus scale="   31.365">  1  5  2 -1</clus>
</clustering>
</event>
<event>
 9    1  0.5981539E-005  0.1183540E+03  0.7546771E-02  0.1252870E+00
         21   -1    0    0  501  502  0.00000000000E+00  0.00000000000E+00  0.50465254314E+02  0.50465254314E+02  0.00000000000E+00 0. -1.
          1   -1    0    0  502    0 -0.00000000000E+00 -0.00000000000E+00 -0.65452430932E+03  0.65452430932E+03  0.00000000000E+00 0. -1.
        -24    2    1    2    0    0 -0.63416294773E+02  0.10034062180E+01 -0.29152091148E+03  0.30836359936E+03  0.77980986867E+02 0.  0.
         23    2    1    2    0    0  0.69687840018E+02 -0.22519011761E+02 -0.33997739796E+03  0.36119763881E+03  0.97547948341E+02 0.  0.
         11    1    3    3    0    0 -0.55988006544E+02  0.26275761517E+02 -0.26014762152E+03  0.26739831245E+03  0.00000000000E+00 0. -1.
        -12    1    3    3    0    0 -0.74282882290E+01 -0.25272355299E+02 -0.31373289958E+02  0.40965286905E+02  0.00000000000E+00 0.  1.
        -11    1    4    4    0    0  0.43981085679E+02  0.35030948536E+02 -0.12283717459E+03  0.13509431784E+03  0.00000000000E+00 0.  1.
         11    1    4    4    0    0  0.25706754338E+02 -0.57549960297E+02 -0.21714022337E+03  0.22610332097E+03  0.00000000000E+00 0. -1.
          2    1    1    2  501    0 -0.62715452452E+01  0.21515605543E+02  0.27439254429E+02  0.35428325465E+02  0.00000000000E+00 0. -1.
<scales pt_clust_5="13000.00000" pt_clust_6="13000.00000" pt_clust_7="13000.00000" pt_clust_8="13000.00000" pt_clust_9="22.41101"></scales>
<clustering>
<clus scale="   22.411">  1  9  2 -1</clus>
<clus scale="   77.981">  5  6 -1 -1</clus>
<clus scale="   97.548">  7  8 -1 -1</clus>
<clus scale="  102.826">  2  5  1 -1</clus>
<clus scale="   22.411">  1  5  2 -1</clus>
</clustering>
</event>
<event>
 9    1  0.5981539E-005  0.9570025E+02  0.7546771E-02  0.1296304E+00
         21   -1    0    0  501  502  0.00000000000E+00  0.00000000000E+00  0.33285887015E+02  0.33285887015E+02  0.00000000000E+00 0. -1.
          1   -1    0    0  502    0 -0.00000000000E+00 -0.00000000000E+00 -0.39688452728E+03  0.39688452728E+03  0.00000000000E+00 0. -1.
        -24    2    1    2    0    0  0.38198789895E+01  0.26925667827E+02 -0.23125586018E+03  0.24601982226E+03  0.79415974540E+02 0.  0.
         23    2    1    2    0    0 -0.27710023986E+02 -0.25805389058E+02 -0.12456783740E+03  0.15900215697E+03  0.91273086251E+02 0.  0.
         13    1    3    3    0    0  0.23220600401E+02  0.49168448999E+02 -0.14569384467E+03  0.15551022164E+03  0.00000000000E+00 0. -1.
        -14    1    3    3    0    0 -0.19400721411E+02 -0.22242781172E+02 -0.85562015514E+02  0.90509600620E+02  0.00000000000E+00 0.  1.
        -13    1    4    4    0    0  0.17388671740E+02  0.18513399427E+02 -0.84195835630E+01  0.26758199689E+02  0.00000000000E+00 0. -1.
         13    1    4    4    0    0 -0.45098695726E+02 -0.44318788484E+02 -0.11614825384E+03  0.13224395728E+03  0.00000000000E+00 0.  1.
          2    1    1    2  501    0  0.23890144997E+02 -0.11202787690E+01 -0.77749426865E+01  0.25148435066E+02  0.00000000000E+00 0. -1.
<scales pt_clust_5="13000.00000" pt_clust_6="13000.00000" pt_clust_7="13000.00000" pt_clust_8="13000.00000" pt_clust_9="23.91640"></scales>
<clustering>
<clus scale="   23.916">  1  9  2 -1</clus>
<clus scale="   79.416">  5  6 -1 -1</clus>
<clus scale="   84.467">  2  5  1 -1</clus>
<clus scale="   91.273">  7  8 -1 -1</clus>
<clus scale="   23.916">  1  5  2 -1</clus>
</clustering>
</event>
<event>
 9    1  0.5981539E-005  0.9536976E+02  0.7546771E-02  0.1299203E+00
         21   -1    0    0  501  502  0.00000000000E+00  0.00000000000E+00  0.15701075706E+03  0.15701075706E+03  0.00000000000E+00 0.  1.
          1   -1    0    0  502    0 -0.00000000000E+00 -0.00000000000E+00 -0.15939618163E+03  0.15939618163E+03  0.00000000000E+00 0. -1.
         23    2    1    2    0    0  0.39552494502E+01 -0.32363104534E+02 -0.95671257959E+02  0.13750621492E+03  0.93230654873E+02 0.  0.
        -24    2    1    2    0    0 -0.90704836743E+01 -0.33234322611E+02  0.64015890939E+02  0.10688740833E+03  0.78358725706E+02 0.  0.
         13    1    4    4    0    0 -0.22576877206E+02  0.43866777065E+00 -0.98164387943E+01  0.24622556415E+02  0.00000000000E+00 0. -1.
        -14    1    4    4    0    0  0.13506393532E+02 -0.33672990381E+02  0.73832329733E+02  0.82264851919E+02  0.00000000000E+00 0.  1.
        -13    1    3    3    0    0  0.31067351882E+02  0.19057686162E+02 -0.57108362848E+02  0.67747626246E+02  0.00000000000E+00 0.  1.
         13    1    3    3    0    0 -0.27112102431E+02 -0.51420790695E+02 -0.38562895110E+02  0.69758588670E+02  0.00000000000E+00 0. -1.
          2    1    1    2  501    0  0.51152342241E+01  0.65597427144E+02  0.29269942447E+02  0.72013315435E+02  0.00000000000E+00 0. -1.
<scales pt_clust_5="13000.00000" pt_clust_6="13000.00000" pt_clust_7="13000.00000" pt_clust_8="13000.00000" pt_clust_9="65.79657"></scales>
<clustering>
<clus scale="   65.797">  1  9  2 -1</clus>
<clus scale="   78.359">  5  6 -1 -1</clus>
<clus scale="   80.892">  1  5  2 -1</clus>
<clus scale="   93.231">  7  8 -1 -1</clus>
<clus scale="   65.797">  1  5  2 -1</clus>
</clustering>
</event>
<event>
 9    1  0.5981539E-005  0.1983464E+03  0.7546771E-02  0.1184320E+00
          1   -1    0    0  502    0 -0.00000000000E+00  0.00000000000E+00  0.62432524564E+03  0.62432524564E+03  0.00000000000E+00 0. -1.
         21   -1    0    0  501  502  0.00000000000E+00 -0.00000000000E+00 -0.10571820409E+03  0.10571820409E+03  0.00000000000E+00 0. -1.
        -24    2    1    2    0    0  0.23759458859E+02  0.34227734814E+02  0.25237799298E+03  0.26881870616E+03  0.82660726639E+02 0.  0.
         23    2    1    2    0    0 -0.14093204623E+03 -0.13861724900E+03  0.13190831112E+03  0.25466083962E+03  0.91519163674E+02 0.  0.
         11    1    3    3    0    0  0.34011303932E+02 -0.17733840118E+02  0.12826553501E+03  0.13387794946E+03  0.00000000000E+00 0. -1.
        -12    1    3    3    0    0 -0.10251845073E+02  0.51961574932E+02  0.12411245796E+03  0.13494075670E+03  0.00000000000E+00 0.  1.
        -11    1    4    4    0    0 -0.90127368814E+02 -0.59999114242E+02  0.22340009167E+02  0.11055275812E+03  0.00000000000E+00 0. -1.
         11    1    4    4    0    0 -0.50804677413E+02 -0.78618134759E+02  0.10956830195E+03  0.14410808150E+03  0.00000000000E+00 0.  1.
          2    1    1    2  501    0  0.11717258737E+03  0.10438951419E+03  0.13432073745E+03  0.20656390394E+03  0.00000000000E+00 0. -1.
<scales pt_clust_5="13000.00000" pt_clust_6="13000.00000" pt_clust_7="13000.00000" pt_clust_8="13000.00000" pt_clust_9="175.97031"></scales>
<clustering>
<clus scale="   82.661">  5  6 -1 -1</clus>
<clus scale="   91.519">  7  8 -1 -1</clus>
<clus scale="   92.568">  1  5  2 -1</clus>
<clus scale="  175.970">  2  9  1 -1</clus>
<clus scale="  175.970">  2  5  1 -1</clus>
</clustering>
</event>
<event>
 9    1  0.5981539E-005  0.9873098E+02  0.7546771E-02  0.1284200E+00
         21   -1    0    0  501  502  0.00000000000E+00  0.00000000000E+00  0.12655754730E+03  0.12655754730E+03  0.00000000000E+00 0. -1.
          1   -1    0    0  502    0 -0.00000000000E+00 -0.00000000000E+00 -0.41650429124E+03  0.41650429124E+03  0.00000000000E+00 0. -1.
        -24    2    1    2    0    0  0.21358758541E+02 -0.53922420536E+02 -0.37451515769E+03  0.38728874494E+03  0.79794389628E+02 0.  0.
         23    2    1    2    0    0 -0.13533568839E+02  0.95462176189E+01  0.43082792346E+02  0.94523295535E+02  0.82487809075E+02 0.  0.
         11    1    3    3    0    0 -0.27604908505E+02 -0.38347020337E+02 -0.18276818617E+03  0.18877694461E+03  0.00000000000E+00 0. -1.
        -12    1    3    3    0    0  0.48963667046E+02 -0.15575400199E+02 -0.19174697152E+03  0.19851180033E+03  0.00000000000E+00 0.  1.
        -13    1    4    4    0    0 -0.38570583662E+02  0.27275554648E+02  0.42947067322E+02  0.63844313740E+02  0.00000000000E+00 0.  1.
         13    1    4    4    0    0  0.25037014823E+02 -0.17729337029E+02  0.13572502485E+00  0.30678981795E+02  0.00000000000E+00 0. -1.
          2    1    1    2  501    0 -0.78251897016E+01  0.44376202917E+02  0.41485621402E+02  0.61249798059E+02  0.00000000000E+00 0. -1.
<scales pt_clust_5="13000.00000" pt_clust_6="13000.00000" pt_clust_7="13000.00000" pt_clust_8="13000.00000" pt_clust_9="45.06086"></scales>
<clustering>
<clus scale="   45.061">  1  9  2 -1</clus>
<clus scale="   79.794">  5  6 -1 -1</clus>
<clus scale="   82.488">  7  8 -1 -1</clus>
<clus scale="   96.492">  2  5  1 -1</clus>
<clus scale="   45.061">  1  5  2 -1</clus>
</clustering>
</event>
<event>
 9    1  0.5981539E-005  0.1043708E+03  0.7546771E-02  0.1277069E+00
         21   -1    0    0  501  502  0.00000000000E+00  0.00000000000E+00  0.34661706632E+02  0.34661706632E+02  0.00000000000E+00 0. -1.
          1   -1    0    0  502    0 -0.00000000000E+00 -0.00000000000E+00 -0.47227818869E+03  0.47227818869E+03  0.00000000000E+00 0. -1.
        -24    2    1    2    0    0 -0.25639680379E+02 -0.44195829808E+02 -0.31064165681E+03  0.32472426098E+03  0.79604912806E+02 0.  0.
         23    2    1    2    0    0  0.37417616775E+02  0.25913753835E+02 -0.79157384784E+02  0.12968505562E+03  0.92090832353E+02 0.  0.
         13    1    3    3    0    0 -0.37122907622E+02 -0.40102658072E+02 -0.30724775616E+03  0.31206973118E+03  0.00000000000E+00 0. -1.
        -14    1    3    3    0    0  0.11483227243E+02 -0.40931717364E+01 -0.33939006459E+01  0.12654529797E+02  0.00000000000E+00 0.  1.
        -13    1    4    4    0    0  0.41024093592E+02  0.57590674284E+02 -0.57591310905E+02  0.91194413816E+02  0.00000000000E+00 0.  1.
         13    1    4    4    0    0 -0.36064768171E+01 -0.31676920449E+02 -0.21566073880E+02  0.38490641808E+02  0.00000000000E+00 0. -1.
          2    1    1    2  501    0 -0.11777936396E+02  0.18282075973E+02 -0.47817440463E+02  0.52530578714E+02  0.00000000000E+00 0. -1.
<scales pt_clust_5="13000.00000" pt_clust_6="13000.00000" pt_clust_7="13000.00000" pt_clust_8="13000.00000" pt_clust_9="21.74752"></scales>
<clustering>
<clus scale="   21.748">  1  9  2 -1</clus>
<clus scale="   79.605">  5  6 -1 -1</clus>
<clus scale="   92.091">  7  8 -1 -1</clus>
<clus scale="   93.539">  2  5  1 -1</clus>
<clus scale="   21.748">  1  5  2 -1</clus>
</clustering>
</event>
<event>
 9    1  0.5981539E-005  0.1934319E+03  0.7546771E-02  0.1174530E+00
          1   -1    0    0  502    0 -0.00000000000E+00  0.00000000000E+00  0.14977788200E+03  0.14977788200E+03  0.00000000000E+00 0. -1.
         21   -1    0    0  501  502  0.00000000000E+00 -0.00000000000E+00 -0.50144401294E+03  0.50144401294E+03  0.00000000000E+00 0. -1.
         23    2    1    2    0    0 -0.16388407002E+02 -0.83635142917E+02 -0.12955074636E+03  0.17960593963E+03  0.90617220509E+02 0.  0.
        -24    2    1    2    0    0 -0.17058659367E+03  0.36077405845E+02 -0.20031268080E+03  0.27745945369E+03  0.80356786901E+02 0.  0.
         11    1    4    4    0    0 -0.16885800388E+03  0.15841868560E+02 -0.16440014713E+03  0.23620202931E+03  0.00000000000E+00 0. -1.
        -12    1    4    4    0    0 -0.17285897873E+01  0.20235537286E+02 -0.35912533669E+02  0.41257424379E+02  0.00000000000E+00 0.  1.
        -11    1    3    3    0    0  0.12828705697E+01 -0.97314030971E+02 -0.82762081137E+02  0.12775456334E+03  0.00000000000E+00 0.  1.
         11    1    3    3    0    0 -0.17671277572E+02  0.13678888054E+02 -0.46788665227E+02  0.51851376289E+02  0.00000000000E+00 0. -1.
          2    1    1    2  501    0  0.18697500067E+03  0.47557737072E+02 -0.21802703775E+02  0.19415650162E+03  0.00000000000E+00 0. -1.
<scales pt_clust_5="13000.00000" pt_clust_6="13000.00000" pt_clust_7="13000.00000" pt_clust_8="13000.00000" pt_clust_9="175.95094"></scales>
<clustering>
<clus scale="   80.357">  5  6 -1 -1</clus>
<clus scale="   90.617">  7  8 -1 -1</clus>
<clus scale="  124.398">  1  7  2 -1</clus>
<clus scale="  175.951">  2  9  1 -1</clus>
<clus scale="  175.951">  2  5  1 -1</clus>
</clustering>
</event>
<event>
 9    1  0.5981539E-005  0.1295022E+03  0.7546771E-02  0.1248044E+00
         21   -1    0    0  501  502  0.00000000000E+00  0.00000000000E+00  0.18553264595E+03  0.18553264595E+03  0.00000000000E+00 0. -1.
          1   -1    0    0  502    0 -0.00000000000E+00 -0.00000000000E+00 -0.46320306502E+03  0.46320306502E+03  0.00000000000E+00 0. -1.
        -24    2    1    2    0    0 -0.33205173476E+02 -0.72779184299E+01 -0.36040931793E+03  0.37062751598E+03  0.79462742866E+02 0.  0.
         23    2    1    2    0    0 -0.65830807953E+02  0.74239266854E+01 -0.41544355237E+02  0.11919163139E+03  0.89954997515E+02 0.  0.
         11    1    3    3    0    0 -0.20769270287E+02  0.34700878242E+02 -0.21497716456E+03  0.21874801673E+03  0.00000000000E+00 0. -1.
        -12    1    3    3    0    0 -0.12435903189E+02 -0.41978796671E+02 -0.14543215337E+03  0.15187949925E+03  0.00000000000E+00 0.  1.
        -13    1    4    4    0    0 -0.76514779366E+02 -0.20088780035E+02 -0.17255546674E+02  0.80968045769E+02  0.00000000000E+00 0. -1.
         13    1    4    4    0    0  0.10683971413E+02  0.27512706720E+02 -0.24288808563E+02  0.38223585620E+02  0.00000000000E+00 0.  1.
          2    1    1    2  501    0  0.99035981430E+02 -0.14600825544E+00  0.12428325411E+03  0.15891656360E+03  0.00000000000E+00 0. -1.
<scales pt_clust_5="13000.00000" pt_clust_6="13000.00000" pt_clust_7="13000.00000" pt_clust_8="13000.00000" pt_clust_9="93.16074"></scales>
<clustering>
<clus scale="   79.463">  5  6 -1 -1</clus>
<clus scale="   86.428">  2  5  1 -1</clus>
<clus scale="   89.955">  7  8 -1 -1</clus>
<clus scale="   93.161">  1  9  2 -1</clus>
<clus scale="   93.161">  1  5  2 -1</clus>
</clustering>
</event>
<event>
 9    1  0.5981539E-005  0.1142753E+03  0.7546771E-02  0.1257347E+00
          1   -1    0    0  502    0 -0.00000000000E+00  0.00000000000E+00  0.10732744429E+04  0.10732744429E+04  0.00000000000E+00 0. -1.
         21   -1    0    0  501  502  0.00000000000E+00 -0.00000000000E+00 -0.72723827343E+02  0.72723827343E+02  0.00000000000E+00 0. -1.
        -24    2    1    2    0    0 -0.15865614289E+02  0.68573192216E+02  0.99129253836E+03  0.99703320599E+03  0.80376096149E+02 0.  0.
         23    2    1    2    0    0  0.13896313492E+01 -0.19020658402E+02  0.18763737008E+02  0.96473491051E+02  0.92689482293E+02 0.  0.
         13    1    3    3    0    0 -0.30059910030E+02  0.44966383976E+02  0.27822402089E+03  0.28343284862E+03  0.00000000000E+00 0. -1.
        -14    1    3    3    0    0  0.14194295741E+02  0.23606808240E+02  0.71306851747E+03  0.71360035737E+03  0.00000000000E+00 0.  1.
        -13    1    4    4    0    0 -0.51565947742E+01  0.27938357379E+02 -0.20401153040E+02  0.34976411023E+02  0.00000000000E+00 0. -1.
         13    1    4    4    0    0  0.65462261234E+01 -0.46959015781E+02  0.39164890048E+02  0.61497080028E+02  0.00000000000E+00 0.  1.
          2    1    1    2  501    0  0.14475982940E+02 -0.49552533814E+02 -0.95056598045E+01  0.52491573207E+02  0.00000000000E+00 0. -1.
<scales pt_clust_5="13000.00000" pt_clust_6="13000.00000" pt_clust_7="13000.00000" pt_clust_8="13000.00000" pt_clust_9="51.62371"></scales>
<clustering>
<clus scale="   51.624">  2  9  1 -1</clus>
<clus scale="   80.376">  5  6 -1 -1</clus>
<clus scale="   92.689">  7  8 -1 -1</clus>
<clus scale="  104.536">  1  5  2 -1</clus>
<clus scale="   51.624">  2  5  1 -1</clus>
</clustering>
</event>
<event>
 9    1  0.5981539E-005  0.1376002E+03  0.7546771E-02  0.1219194E+00
         -2   -1    0    0    0  501 -0.00000000000E+00  0.00000000000E+00  0.16412416746E+03  0.16412416746E+03  0.00000000000E+00 0.  1.
         21   -1    0    0  501  502  0.00000000000E+00 -0.00000000000E+00 -0.52304458564E+03  0.52304458564E+03  0.00000000000E+00 0. -1.
        -24    2    1    2    0    0 -0.78476383570E+02 -0.62129288853E+02  0.11435723334E+03  0.17180302663E+03  0.80125600348E+02 0.  0.
         23    2    1    2    0    0  0.11164706391E+03  0.79166520685E+02 -0.35466422960E+03  0.39102866376E+03  0.91565797381E+02 0.  0.
         11    1    3    3    0    0 -0.49682336684E+02  0.93189389930E+01  0.37087150449E+02  0.62694767970E+02  0.00000000000E+00 0. -1.
        -12    1    3    3    0    0 -0.28794046886E+02 -0.71448227846E+02  0.77270082887E+02  0.10910825866E+03  0.00000000000E+00 0.  1.
        -11    1    4    4    0    0  0.31341481309E+02  0.26949216594E+02 -0.26333802801E+02  0.49010385590E+02  0.00000000000E+00 0.  1.
         11    1    4    4    0    0  0.80305582599E+02  0.52217304091E+02 -0.32833042680E+03  0.34201827817E+03  0.00000000000E+00 0. -1.
         -1    1    1    2    0  502 -0.33170680337E+02 -0.17037231831E+02 -0.11861342192E+03  0.12433706271E+03  0.00000000000E+00 0.  1.
<scales pt_clust_5="13000.00000" pt_clust_6="13000.00000" pt_clust_7="13000.00000" pt_clust_8="13000.00000" pt_clust_9="37.29023"></scales>
<clustering>
<clus scale="   37.290">  2  9  1 -1</clus>
<clus scale="   80.126">  5  6 -1 -1</clus>
<clus scale="   91.566">  7  8 -1 -1</clus>
<clus scale="  130.268">  1  5  2 -1</clus>
<clus scale="   37.290">  2  5  1 -1</clus>
</clustering>
</event>
<event>
 9    1  0.1080223E-004  0.1094095E+03  0.7546771E-02  0.1265605E+00
         -2   -1    0    0    0  501 -0.00000000000E+00  0.00000000000E+00  0.15733149068E+04  0.15733149068E+04  0.00000000000E+00 0.  1.
         21   -1    0    0  501  502  0.00000000000E+00 -0.00000000000E+00 -0.75066210129E+02  0.75066210129E+02  0.00000000000E+00 0.  1.
        -24    2    1    2    0    0  0.49036552935E+02 -0.34251922639E+02  0.14483542213E+04  0.14518855203E+04  0.81632322122E+02 0.  0.
         23    2    1    2    0    0 -0.74820985434E+02  0.93936292279E+01 -0.17816159175E+02  0.11989597690E+03  0.91494314673E+02 0.  0.
         11    1    3    3    0    0  0.16123456713E+02 -0.18724843438E+02  0.98882070202E+02  0.10192276206E+03  0.00000000000E+00 0. -1.
        -12    1    3    3    0    0  0.32913096222E+02 -0.15527079200E+02  0.13494721511E+04  0.13499627582E+04  0.00000000000E+00 0.  1.
        -13    1    4    4    0    0 -0.39455785344E+02 -0.28852691206E+02 -0.40114505896E+02  0.63232984827E+02  0.00000000000E+00 0. -1.
         13    1    4    4    0    0 -0.35365200090E+02  0.38246320434E+02  0.22298346720E+02  0.56662992072E+02  0.00000000000E+00 0.  1.
         -1    1    1    2    0  502  0.25784432500E+02  0.24858293411E+02  0.67710634598E+02  0.76599619766E+02  0.00000000000E+00 0.  1.
<scales pt_clust_5="13000.00000" pt_clust_6="13000.00000" pt_clust_7="13000.00000" pt_clust_8="13000.00000" pt_clust_9="35.81580"></scales>
<clustering>
<clus scale="   35.816">  2  9  1 -1</clus>
<clus scale="   81.632">  5  6 -1 -1</clus>
<clus scale="   91.494">  7  8 -1 -1</clus>
<clus scale="  101.307">  1  5  2 -1</clus>
<clus scale="   35.816">  2  5  1 -1</clus>
</clustering>
</event>
<event>
 9    1  0.5981539E-005  0.2311276E+03  0.7546771E-02  0.1126816E+00
         21   -1    0    0  501  502  0.00000000000E+00  0.00000000000E+00  0.23263847128E+03  0.23263847128E+03  0.00000000000E+00 0. -1.
          1   -1    0    0  502    0 -0.00000000000E+00 -0.00000000000E+00 -0.39578414421E+03  0.39578414421E+03  0.00000000000E+00 0. -1.
         23    2    1    2    0    0  0.81234614760E+02  0.18620451827E+03 -0.11760954658E+03  0.25351006106E+03  0.95729621071E+02 0.  0.
        -24    2    1    2    0    0 -0.32891570701E+02 -0.23012643440E+03  0.57412836710E+02  0.25299178663E+03  0.81661368166E+02 0.  0.
         11    1    4    4    0    0 -0.58490906292E+02 -0.12289439378E+03  0.29392574254E+02  0.13924130696E+03  0.00000000000E+00 0. -1.
        -12    1    4    4    0    0  0.25599335591E+02 -0.10723204062E+03  0.28020262456E+02  0.11375047968E+03  0.00000000000E+00 0.  1.
        -13    1    3    3    0    0  0.84473067316E+02  0.13861670552E+03 -0.48276306657E+02  0.16935433840E+03  0.00000000000E+00 0. -1.
         13    1    3    3    0    0 -0.32384525561E+01  0.47587812752E+02 -0.69333239923E+02  0.84155722656E+02  0.00000000000E+00 0.  1.
          2    1    1    2  501    0 -0.48343044060E+02  0.43921916132E+02 -0.10294896307E+03  0.12192076780E+03  0.00000000000E+00 0. -1.
<scales pt_clust_5="13000.00000" pt_clust_6="13000.00000" pt_clust_7="13000.00000" pt_clust_8="13000.00000" pt_clust_9="65.31607"></scales>
<clustering>
<clus scale="   65.316">  1  9  2 -1</clus>
<clus scale="   81.661">  5  6 -1 -1</clus>
<clus scale="   95.730">  7  8 -1 -1</clus>
<clus scale="  225.664">  1  5  2 -1</clus>
<clus scale="   65.316">  1  5  2 -1</clus>
</clustering>
</event>
<event>
 9    1  0.5981539E-005  0.1921510E+03  0.7546771E-02  0.1189326E+00
         21   -1    0    0  501  502  0.00000000000E+00  0.00000000000E+00  0.62359919681E+02  0.62359919681E+02  0.00000000000E+00 0. -1.
          1   -1    0    0  502    0 -0.00000000000E+00 -0.00000000000E+00 -0.91236764191E+03  0.91236764191E+03  0.00000000000E+00 0. -1.
        -24    2    1    2    0    0 -0.31034961183E+02  0.23869291254E+02 -0.11147383801E+03  0.14396192325E+03  0.82253917268E+02 0.  0.
         23    2    1    2    0    0 -0.31137486346E+02  0.15571898239E+03 -0.27433361005E+03  0.32916893201E+03  0.88742952741E+02 0.  0.
         13    1    3    3    0    0  0.23982962670E+02  0.19876746784E+02 -0.64024001300E+02  0.71199299881E+02  0.00000000000E+00 0. -1.
        -14    1    3    3    0    0 -0.55017923852E+02  0.39925444705E+01 -0.47449836710E+02  0.72762623373E+02  0.00000000000E+00 0.  1.
        -13    1    4    4    0    0 -0.12928684354E+02  0.11565479850E+03 -0.11401180673E+03  0.16291677436E+03  0.00000000000E+00 0. -1.
         13    1    4    4    0    0 -0.18208801992E+02  0.40064183895E+02 -0.16032180332E+03  0.16625215765E+03  0.00000000000E+00 0.  1.
          2    1    1    2  501    0  0.62172447529E+02 -0.17958827365E+03 -0.46420027416E+03  0.50159670632E+03  0.00000000000E+00 0. -1.
<scales pt_clust_5="13000.00000" pt_clust_6="13000.00000" pt_clust_7="13000.00000" pt_clust_8="13000.00000" pt_clust_9="170.43104"></scales>
<clustering>
<clus scale="   82.254">  5  6 -1 -1</clus>
<clus scale="   88.743">  7  8 -1 -1</clus>
<clus scale="   91.097">  2  5  1 -1</clus>
<clus scale="  170.431">  1  9  2 -1</clus>
<clus scale="  170.431">  1  5  2 -1</clus>
</clustering>
</event>
<event>
 9    1  0.5981539E-005  0.1214228E+03  0.7546771E-02  0.1244121E+00
          1   -1    0    0  502    0 -0.00000000000E+00  0.00000000000E+00  0.63142978864E+03  0.63142978864E+03  0.00000000000E+00 0. -1.
         21   -1    0    0  501  502  0.00000000000E+00 -0.00000000000E+00 -0.35977096998E+02  0.35977096998E+02  0.00000000000E+00 0.  1.
        -24    2    1    2    0    0 -0.34468008653E+02  0.71217468727E+02  0.23680748003E+03  0.26190097510E+03  0.79084554026E+02 0.  0.
         23    2    1    2    0    0  0.83526744731E+02 -0.42351893228E+02  0.27696859725E+03  0.30595165213E+03  0.90135507059E+02 0.  0.
         11    1    3    3    0    0 -0.53775679031E+02  0.45575016833E+02  0.20471385033E+03  0.21651019914E+03  0.00000000000E+00 0. -1.
        -12    1    3    3    0    0  0.19307670378E+02  0.25642451894E+02  0.32093629700E+02  0.45390775956E+02  0.00000000000E+00 0.  1.
        -13    1    4    4    0    0  0.56540802222E+02 -0.48577684190E+02  0.26585897244E+03  0.27611165666E+03  0.00000000000E+00 0. -1.
         13    1    4    4    0    0  0.26985942508E+02  0.62257909617E+01  0.11109624810E+02  0.29839995469E+02  0.00000000000E+00 0.  1.
          2    1    1    2  501    0 -0.49058736078E+02 -0.28865575499E+02  0.81676614361E+02  0.99554258412E+02  0.00000000000E+00 0. -1.
<scales pt_clust_5="13000.00000" pt_clust_6="13000.00000" pt_clust_7="13000.00000" pt_clust_8="13000.00000" pt_clust_9="56.92083"></scales>
<clustering>
<clus scale="   56.921">  2  9  1 -1</clus>
<clus scale="   79.085">  5  6 -1 -1</clus>
<clus scale="   90.136">  7  8 -1 -1</clus>
<clus scale="  113.461">  1  5  2 -1</clus>
<clus scale="   56.921">  2  5  1 -1</clus>
</clustering>
</event>
<event>
 9    1  0.5981539E-005  0.1603099E+03  0.7546771E-02  0.1214177E+00
          3   -1    0    0  502    0 -0.00000000000E+00  0.00000000000E+00  0.43518364784E+03  0.43518364784E+03  0.00000000000E+00 0. -1.
         21   -1    0    0  501  502  0.00000000000E+00 -0.00000000000E+00 -0.18762927109E+03  0.18762927109E+03  0.00000000000E+00 0. -1.
        -24    2    1    2    0    0  0.32033397012E+01 -0.51266856487E+02 -0.85204702491E+00  0.91586559371E+02  0.75820972785E+02 0.  0.
         23    2    1    2    0    0 -0.89096934229E+02 -0.51847935273E+02  0.34106978011E+03  0.36814089893E+03  0.92588630426E+02 0.  0.
         11    1    3    3    0    0 -0.76277502476E+01 -0.58748675301E+02  0.23637330365E+02  0.63783327055E+02  0.00000000000E+00 0. -1.
        -12    1    3    3    0    0  0.10831089949E+02  0.74818188144E+01 -0.24489377390E+02  0.27803232316E+02  0.00000000000E+00 0.  1.
        -11    1    4    4    0    0 -0.54627574171E+02 -0.46158152491E+02  0.31877119582E+03  0.32669530481E+03  0.00000000000E+00 0. -1.
         11    1    4    4    0    0 -0.34469360058E+02 -0.56897827822E+01  0.22298584287E+02  0.41445594122E+02  0.00000000000E+00 0.  1.
          4    1    1    2  501    0  0.85893594528E+02  0.10311479176E+03 -0.92663356334E+02  0.16308546063E+03  0.00000000000E+00 0. -1.
<scales pt_clust_5="13000.00000" pt_clust_6="13000.00000" pt_clust_7="13000.00000" pt_clust_8="13000.00000" pt_clust_9="130.86863"></scales>
<clustering>
<clus scale="   75.821">  5  6 -1 -1</clus>
<clus scale="   91.583">  1  5  2 -1</clus>
<clus scale="   92.589">  7  8 -1 -1</clus>
<clus scale="  130.869">  2  9  1 -1</clus>
<clus scale="  130.869">  2  5  1 -1</clus>
</clustering>
</event>
<event>
 9    1  0.5981539E-005  0.1511243E+03  0.7546771E-02  0.1200570E+00
          3   -1    0    0  502    0 -0.00000000000E+00  0.00000000000E+00  0.61630284228E+02  0.61630284228E+02  0.00000000000E+00 0. -1.
         21   -1    0    0  501  502  0.00000000000E+00 -0.00000000000E+00 -0.86407837992E+03  0.86407837992E+03  0.00000000000E+00 0. -1.
        -24    2    1    2    0    0 -0.13508258328E+03 -0.30723507696E+02 -0.20120023447E+03  0.25709420019E+03  0.80153946797E+02 0.  0.
         23    2    1    2    0    0  0.49107063199E+02  0.12764266351E+03 -0.33639707902E+03  0.37377374485E+03  0.88541879119E+02 0.  0.
         13    1    3    3    0    0 -0.11174039171E+03  0.22403607527E+01 -0.10755634810E+03  0.15511061334E+03  0.00000000000E+00 0. -1.
        -14    1    3    3    0    0 -0.23342191573E+02 -0.32963868449E+02 -0.93643886372E+02  0.10198358684E+03  0.00000000000E+00 0.  1.
        -13    1    4    4    0    0  0.65168399255E+02  0.61638395639E+02 -0.14312360297E+03  0.16890996953E+03  0.00000000000E+00 0.  1.
         13    1    4    4    0    0 -0.16061336056E+02  0.66004267874E+02 -0.19327347605E+03  0.20486377532E+03  0.00000000000E+00 0. -1.
          4    1    1    2  501    0  0.85975520080E+02 -0.96919155817E+02 -0.26485078220E+03  0.29484071911E+03  0.00000000000E+00 0. -1.
<scales pt_clust_5="13000.00000" pt_clust_6="13000.00000" pt_clust_7="13000.00000" pt_clust_8="13000.00000" pt_clust_9="129.55737"></scales>
<clustering>
<clus scale="   80.154">  5  6 -1 -1</clus>
<clus scale="   88.542">  7  8 -1 -1</clus>
<clus scale="  129.557">  2  9  1 -1</clus>
<clus scale="  146.368">  1  5  2 -1</clus>
<clus scale="  129.557">  2  5  1 -1</clus>
</clustering>
</event>
<event>
 9    1  0.5981539E-005  0.1139452E+03  0.7546771E-02  0.1257200E+00
         -2   -1    0    0    0  501 -0.00000000000E+00  0.00000000000E+00  0.65152108064E+03  0.65152108064E+03  0.00000000000E+00 0.  1.
         21   -1    0    0  501  502  0.00000000000E+00 -0.00000000000E+00 -0.30856009665E+02  0.30856009665E+02  0.00000000000E+00 0.  1.
        -24    2    1    2    0    0  0.13110833692E+02 -0.74751224435E+02  0.43504014735E+03  0.44887328281E+03  0.80421730262E+02 0.  0.
         23    2    1    2    0    0 -0.20701771972E+02  0.50285763718E+02  0.17734916825E+03  0.20658412624E+03  0.90923332213E+02 0.  0.
         11    1    3    3    0    0 -0.21313842798E+02 -0.25053159032E+02  0.55239676805E+02  0.64291232418E+02  0.00000000000E+00 0. -1.
        -12    1    3    3    0    0  0.34424676490E+02 -0.49698065402E+02  0.37980047055E+03  0.38458205039E+03  0.00000000000E+00 0.  1.
        -11    1    4    4    0    0  0.12411381176E+02  0.37789152262E+02  0.18549020217E+02  0.43887681215E+02  0.00000000000E+00 0.  1.
         11    1    4    4    0    0 -0.33113153148E+02  0.12496611456E+02  0.15880014803E+03  0.16269644502E+03  0.00000000000E+00 0. -1.
         -1    1    1    2    0  502  0.75909382793E+01  0.24465460717E+02  0.82757553824E+01  0.26919681261E+02  0.00000000000E+00 0.  1.
<scales pt_clust_5="13000.00000" pt_clust_6="13000.00000" pt_clust_7="13000.00000" pt_clust_8="13000.00000" pt_clust_9="25.61603"></scales>
<clustering>
<clus scale="   25.616">  2  9  1 -1</clus>
<clus scale="   80.422">  5  6 -1 -1</clus>
<clus scale="   90.923">  7  8 -1 -1</clus>
<clus scale="  105.755">  1  5  2 -1</clus>
<clus scale="   25.616">  2  5  1 -1</clus>
</clustering>
</event>
<event>
 9    1  0.5981539E-005  0.2041818E+03  0.7546771E-02  0.1169741E+00
         21   -1    0    0  501  502  0.00000000000E+00  0.00000000000E+00  0.20873387690E+03  0.20873387690E+03  0.00000000000E+00 0. -1.
         -4   -1    0    0    0  501 -0.00000000000E+00 -0.00000000000E+00 -0.46867271373E+03  0.46867271373E+03  0.00000000000E+00 0.  1.
         23    2    1    2    0    0  0.52486258276E+01 -0.74619205750E+02 -0.16781898485E+02  0.11914955853E+03  0.91210806600E+02 0.  0.
        -24    2    1    2    0    0 -0.15898979546E+03  0.11700670066E+03  0.55081188451E+02  0.22005734664E+03  0.80143467807E+02 0.  0.
         11    1    4    4    0    0 -0.11582630903E+03  0.42606099099E+02  0.52185695985E+02  0.13399388198E+03  0.00000000000E+00 0. -1.
        -12    1    4    4    0    0 -0.43163486434E+02  0.74400601556E+02  0.28954924659E+01  0.86063464662E+02  0.00000000000E+00 0.  1.
        -11    1    3    3    0    0  0.47374283660E+02 -0.29638806322E+02 -0.27706988663E+01  0.55950499236E+02  0.00000000000E+00 0. -1.
         11    1    3    3    0    0 -0.42125657833E+02 -0.44980399428E+02 -0.14011199618E+02  0.63199059291E+02  0.00000000000E+00 0.  1.
         -3    1    1    2    0  502  0.15374116963E+03 -0.42387494906E+02 -0.29823812680E+03  0.33819968546E+03  0.00000000000E+00 0.  1.
<scales pt_clust_5="13000.00000" pt_clust_6="13000.00000" pt_clust_7="13000.00000" pt_clust_8="13000.00000" pt_clust_9="187.79583"></scales>
<clustering>
<clus scale="   80.143">  5  6 -1 -1</clus>
<clus scale="   91.211">  7  8 -1 -1</clus>
<clus scale="  117.962">  2  7  1 -1</clus>
<clus scale="  187.796">  1  9  2 -1</clus>
<clus scale="  187.796">  1  5  2 -1</clus>
</clustering>
</event>
<event>
 9    1  0.5981539E-005  0.1797093E+03  0.7546771E-02  0.1194592E+00
         21   -1    0    0  501  502  0.00000000000E+00  0.00000000000E+00  0.25887359440E+03  0.25887359440E+03  0.00000000000E+00 0. -1.
          1   -1    0    0  502    0 -0.00000000000E+00 -0.00000000000E+00 -0.20469522700E+03  0.20469522700E+03  0.00000000000E+00 0. -1.
         23    2    1    2    0    0 -0.22845713482E+02  0.30780287116E+02 -0.63439670758E+02  0.11772094345E+03  0.91456415855E+02 0.  0.
        -24    2    1    2    0    0 -0.80521529079E+02 -0.12421954680E+03  0.83915521589E+02  0.20248978887E+03  0.10975466905E+03 0.  0.
         11    1    4    4    0    0 -0.10328274568E+03 -0.11836845500E+03  0.57882463354E+02  0.16741802847E+03  0.00000000000E+00 0. -1.
        -12    1    4    4    0    0  0.22761216597E+02 -0.58510918032E+01  0.26033058235E+02  0.35071760397E+02  0.00000000000E+00 0.  1.
        -11    1    3    3    0    0  0.23742920608E+01 -0.21516062281E+02  0.10213585076E+02  0.23935235929E+02  0.00000000000E+00 0.  1.
         11    1    3    3    0    0 -0.25220005543E+02  0.52296349398E+02 -0.73653255834E+02  0.93785707519E+02  0.00000000000E+00 0. -1.
          2    1    1    2  501    0  0.10336724256E+03  0.93439259686E+02  0.33702516569E+02  0.14335808909E+03  0.00000000000E+00 0. -1.
<scales pt_clust_5="13000.00000" pt_clust_6="13000.00000" pt_clust_7="13000.00000" pt_clust_8="13000.00000" pt_clust_9="142.30029"></scales>
<clustering>
<clus scale="   91.456">  7  8 -1 -1</clus>
<clus scale="   99.165">  2  7  1 -1</clus>
<clus scale="  109.755">  5  6 -1 -1</clus>
<clus scale="  142.300">  1  9  2 -1</clus>
<clus scale="  142.300">  1  5  2 -1</clus>
</clustering>
</event>
<event>
 9    1  0.5981539E-005  0.1389760E+03  0.7546771E-02  0.1233153E+00
         21   -1    0    0  501  502  0.00000000000E+00  0.00000000000E+00  0.33997472420E+03  0.33997472420E+03  0.00000000000E+00 0. -1.
          1   -1    0    0  502    0 -0.00000000000E+00 -0.00000000000E+00 -0.12870348702E+03  0.12870348702E+03  0.00000000000E+00 0. -1.
         23    2    1    2    0    0  0.24769138307E+02  0.15419201213E+02  0.17053159838E+03  0.19501340047E+03  0.89988545602E+02 0.  0.
        -24    2    1    2    0    0 -0.20778929863E+02  0.10709276600E+03  0.62475149903E+02  0.14917570955E+03  0.80309548055E+02 0.  0.
         13    1    4    4    0    0  0.13774153519E+02  0.97763673674E+02  0.53431963659E+02  0.11226058051E+03  0.00000000000E+00 0. -1.
        -14    1    4    4    0    0 -0.34553083382E+02  0.93290923259E+01  0.90431862438E+01  0.36915129043E+02  0.00000000000E+00 0.  1.
        -11    1    3    3    0    0 -0.27219334020E+02 -0.42131991659E+01  0.10754515561E+03  0.11101623164E+03  0.00000000000E+00 0. -1.
         11    1    3    3    0    0  0.51988472327E+02  0.19632400379E+02  0.62986442766E+02  0.83997168832E+02  0.00000000000E+00 0.  1.
          2    1    1    2  501    0 -0.39902084437E+01 -0.12251196721E+03 -0.21735511107E+02  0.12448910120E+03  0.00000000000E+00 0. -1.
<scales pt_clust_5="13000.00000" pt_clust_6="13000.00000" pt_clust_7="13000.00000" pt_clust_8="13000.00000" pt_clust_9="113.42279"></scales>
<clustering>
<clus scale="   80.310">  5  6 -1 -1</clus>
<clus scale="   89.989">  7  8 -1 -1</clus>
<clus scale="   94.600">  2  7  1 -1</clus>
<clus scale="  113.423">  1  9  2 -1</clus>
<clus scale="  113.423">  1  5  2 -1</clus>
</clustering>
</event>
<event>
 9    1  0.5981539E-005  0.1285580E+03  0.7546771E-02  0.1244635E+00
         21   -1    0    0  501  502  0.00000000000E+00  0.00000000000E+00  0.80278513131E+02  0.80278513131E+02  0.00000000000E+00 0.  1.
          1   -1    0    0  502    0 -0.00000000000E+00 -0.00000000000E+00 -0.35624284422E+03  0.35624284422E+03  0.00000000000E+00 0. -1.
        -24    2    1    2    0    0  0.18808011811E+02  0.42899871218E+02 -0.27710179161E+02  0.98586174878E+02  0.82202430555E+02 0.  0.
         23    2    1    2    0    0 -0.30990460675E+02  0.67397160541E+02 -0.11459989420E+03  0.16421901200E+03  0.91279582876E+02 0.  0.
         13    1    3    3    0    0  0.13012098884E+02  0.36669281405E+02 -0.56479419802E+02  0.68584807190E+02  0.00000000000E+00 0. -1.
        -14    1    3    3    0    0  0.57959129271E+01  0.62305898130E+01  0.28769240641E+02  0.30001367688E+02  0.00000000000E+00 0.  1.
        -11    1    4    4    0    0  0.21993047102E+02 -0.83720224177E+01 -0.35234171031E+02  0.42370174515E+02  0.00000000000E+00 0. -1.
         11    1    4    4    0    0 -0.52983507777E+02  0.75769182959E+02 -0.79365723170E+02  0.12184883749E+03  0.00000000000E+00 0.  1.
          2    1    1    2  501    0  0.12182448864E+02 -0.11029703176E+03 -0.13365425773E+03  0.17371617048E+03  0.00000000000E+00 0. -1.
<scales pt_clust_5="13000.00000" pt_clust_6="13000.00000" pt_clust_7="13000.00000" pt_clust_8="13000.00000" pt_clust_9="90.52744"></scales>
<clustering>
<clus scale="   82.202">  5  6 -1 -1</clus>
<clus scale="   91.280">  7  8 -1 -1</clus>
<clus scale="   94.612">  2  5  1 -1</clus>
<clus scale="   90.527">  1  9  2 -1</clus>
<clus scale="   90.527">  1  5  2 -1</clus>
</clustering>
</event>
<event>
 9    1  0.5981539E-005  0.1021058E+03  0.7546771E-02  0.1282695E+00
         21   -1    0    0  501  502  0.00000000000E+00  0.00000000000E+00  0.57076024960E+03  0.57076024960E+03  0.00000000000E+00 0.  1.
          3   -1    0    0  502    0 -0.00000000000E+00 -0.00000000000E+00 -0.51971545469E+02  0.51971545469E+02  0.00000000000E+00 0. -1.
        -24    2    1    2    0    0 -0.93697508412E+01 -0.41354910641E+02  0.15866101320E+03  0.18278802109E+03  0.80250374958E+02 0.  0.
         23    2    1    2    0    0 -0.72714894398E+02  0.25061862664E+02  0.32898477202E+03  0.35065080788E+03  0.93858702417E+02 0.  0.
         11    1    3    3    0    0 -0.16009262870E+02  0.21662178663E+02  0.39213419665E+02  0.47573509056E+02  0.00000000000E+00 0. -1.
        -12    1    3    3    0    0  0.66395120293E+01 -0.63017089304E+02  0.11944759353E+03  0.13521451203E+03  0.00000000000E+00 0.  1.
        -13    1    4    4    0    0 -0.46437439332E+02  0.51942195561E+02  0.28199748103E+03  0.29047720523E+03  0.00000000000E+00 0.  1.
         13    1    4    4    0    0 -0.26277455066E+02 -0.26880332898E+02  0.46987290993E+02  0.60173602653E+02  0.00000000000E+00 0. -1.
          4    1    1    2  501    0  0.82084645239E+02  0.16293047977E+02  0.31142918919E+02  0.89292966101E+02  0.00000000000E+00 0. -1.
<scales pt_clust_5="13000.00000" pt_clust_6="13000.00000" pt_clust_7="13000.00000" pt_clust_8="13000.00000" pt_clust_9="83.68608"></scales>
<clustering>
<clus scale="   80.250">  5  6 -1 -1</clus>
<clus scale="   83.686">  1  9  2 -1</clus>
<clus scale="   89.757">  2  5  1 -1</clus>
<clus scale="   93.859">  7  8 -1 -1</clus>
<clus scale="   83.686">  1  5  2 -1</clus>
</clustering>
</event>
<event>
 9    1  0.5981539E-005  0.9707327E+02  0.7546771E-02  0.1291549E+00
         -4   -1    0    0    0  501 -0.00000000000E+00  0.00000000000E+00  0.14960455614E+03  0.14960455614E+03  0.00000000000E+00 0.  1.
         21   -1    0    0  501  502  0.00000000000E+00 -0.00000000000E+00 -0.16332150146E+03  0.16332150146E+03  0.00000000000E+00 0. -1.
         23    2    1    2    0    0 -0.24725762984E+02 -0.10455268481E+02  0.35592831526E+02  0.10080870888E+03  0.90414988443E+02 0.  0.
        -24    2    1    2    0    0  0.54262393864E+02  0.42033791677E+02 -0.99729211353E+02  0.14569645543E+03  0.81057353130E+02 0.  0.
         11    1    4    4    0    0  0.39792046837E+02  0.38525575640E+02 -0.11294083611E+03  0.12579053793E+03  0.00000000000E+00 0. -1.
        -12    1    4    4    0    0  0.14470347027E+02  0.35082160368E+01  0.13211624759E+02  0.19905917502E+02  0.00000000000E+00 0.  1.
        -13    1    3    3    0    0  0.28182702946E+02  0.18502156791E+02  0.16570533004E+02  0.37565637427E+02  0.00000000000E+00 0. -1.
         13    1    3    3    0    0 -0.52908465930E+02 -0.28957425272E+02  0.19022298523E+02  0.63243071450E+02  0.00000000000E+00 0.  1.
         -3    1    1    2    0  502 -0.29536630880E+02 -0.31578523196E+02  0.50419434499E+02  0.66420893295E+02  0.00000000000E+00 0.  1.
<scales pt_clust_5="13000.00000" pt_clust_6="13000.00000" pt_clust_7="13000.00000" pt_clust_8="13000.00000" pt_clust_9="43.23907"></scales>
<clustering>
<clus scale="   43.239">  2  9  1 -1</clus>
<clus scale="   81.057">  5  6 -1 -1</clus>
<clus scale="   88.423">  2  5  1 -1</clus>
<clus scale="   90.415">  7  8 -1 -1</clus>
<clus scale="   43.239">  2  5  1 -1</clus>
</clustering>
</event>
<event>
 9    1  0.5981539E-005  0.2057522E+03  0.7546771E-02  0.1163552E+00
         21   -1    0    0  501  502  0.00000000000E+00  0.00000000000E+00  0.16076447196E+03  0.16076447196E+03  0.00000000000E+00 0. -1.
          1   -1    0    0  502    0 -0.00000000000E+00 -0.00000000000E+00 -0.52404197244E+03  0.52404197244E+03  0.00000000000E+00 0. -1.
         23    2    1    2    0    0 -0.85269203131E+02 -0.46667951302E+02 -0.79117686588E+02  0.15468977525E+03  0.90667433820E+02 0.  0.
        -24    2    1    2    0    0 -0.57898726652E+02  0.18385638776E+03 -0.35343056799E+02  0.21195397204E+03  0.80746026114E+02 0.  0.
         11    1    4    4    0    0 -0.52163168762E+02  0.19203595229E+03 -0.33847282278E+02  0.20185252454E+03  0.00000000000E+00 0. -1.
        -12    1    4    4    0    0 -0.57355578897E+01 -0.81795645291E+01 -0.14957745207E+01  0.10101447501E+02  0.00000000000E+00 0.  1.
        -11    1    3    3    0    0 -0.83543700114E+02  0.71444540303E+00 -0.37400684658E+02  0.91536175766E+02  0.00000000000E+00 0. -1.
         11    1    3    3    0    0 -0.17255030173E+01 -0.47382396705E+02 -0.41717001930E+02  0.63153599487E+02  0.00000000000E+00 0.  1.
          2    1    1    2  501    0  0.14316792978E+03 -0.13718843646E+03 -0.24881675709E+03  0.31816269710E+03  0.00000000000E+00 0. -1.
<scales pt_clust_5="13000.00000" pt_clust_6="13000.00000" pt_clust_7="13000.00000" pt_clust_8="13000.00000" pt_clust_9="189.24604"></scales>
<clustering>
<clus scale="   80.746">  5  6 -1 -1</clus>
<clus scale="   90.667">  7  8 -1 -1</clus>
<clus scale="  132.926">  2  7  1 -1</clus>
<clus scale="  189.246">  1  9  2 -1</clus>
<clus scale="  189.246">  1  5  2 -1</clus>
</clustering>
</event>
<event>
 9    1  0.5981539E-005  0.9486389E+02  0.7546771E-02  0.1295414E+00
          1   -1    0    0  502    0 -0.00000000000E+00  0.00000000000E+00  0.58424994362E+03  0.58424994362E+03  0.00000000000E+00 0. -1.
         21   -1    0    0  501  502  0.00000000000E+00 -0.00000000000E+00 -0.55100782485E+02  0.55100782485E+02  0.00000000000E+00 0.  1.
         23    2    1    2    0    0  0.21106687669E+02 -0.25642722433E+02  0.42117683750E+03  0.43207764355E+03  0.90543470986E+02 0.  0.
        -24    2    1    2    0    0 -0.34184366088E+02 -0.17806122370E+02  0.12805170664E+03  0.15765444281E+03  0.83498831655E+02 0.  0.
         13    1    4    4    0    0  0.18264734109E+02 -0.25884521852E+02  0.20531153558E+02  0.37750990053E+02  0.00000000000E+00 0. -1.
        -14    1    4    4    0    0 -0.52449100197E+02  0.80783994818E+01  0.10752055308E+03  0.11990345276E+03  0.00000000000E+00 0.  1.
        -11    1    3    3    0    0  0.48853288848E+02  0.11313716583E+02  0.22813280227E+03  0.23357915037E+03  0.00000000000E+00 0.  1.
         11    1    3    3    0    0 -0.27746601178E+02 -0.36956439016E+02  0.19304403523E+03  0.19849849319E+03  0.00000000000E+00 0. -1.
          2    1    1    2  501    0  0.13077678419E+02  0.43448844803E+02 -0.20079382999E+02  0.49618639735E+02  0.00000000000E+00 0. -1.
<scales pt_clust_5="13000.00000" pt_clust_6="13000.00000" pt_clust_7="13000.00000" pt_clust_8="13000.00000" pt_clust_9="45.37431"></scales>
<clustering>
<clus scale="   45.374">  2  9  1 -1</clus>
<clus scale="   83.499">  5  6 -1 -1</clus>
<clus scale="   88.165">  2  5  1 -1</clus>
<clus scale="   90.543">  7  8 -1 -1</clus>
<clus scale="   45.374">  2  5  1 -1</clus>
</clustering>
</event>
<event>
 9    1  0.5981539E-005  0.1807779E+03  0.7546771E-02  0.1168443E+00
         -2   -1    0    0    0  501 -0.00000000000E+00  0.00000000000E+00  0.61028543348E+03  0.61028543348E+03  0.00000000000E+00 0.  1.
         21   -1    0    0  501  502  0.00000000000E+00 -0.00000000000E+00 -0.10611005767E+03  0.10611005767E+03  0.00000000000E+00 0.  1.
        -24    2    1    2    0    0 -0.53289024699E+01 -0.16485664638E+03  0.44531872011E+03  0.48161252440E+03  0.80223127115E+02 0.  0.
         23    2    1    2    0    0  0.65264843295E+01  0.13183900469E+03  0.94178177501E+02  0.18641759930E+03  0.91966700805E+02 0.  0.
         13    1    3    3    0    0  0.24056249155E+02 -0.41805424092E+02  0.65951227222E+02  0.81706554076E+02  0.00000000000E+00 0. -1.
        -14    1    3    3    0    0 -0.29385151625E+02 -0.12305122229E+03  0.37936749289E+03  0.39990597033E+03  0.00000000000E+00 0.  1.
        -11    1    4    4    0    0  0.38020660630E+02  0.30303605851E+02  0.54275770104E+02  0.72867951685E+02  0.00000000000E+00 0.  1.
         11    1    4    4    0    0 -0.31494176301E+02  0.10153539884E+03  0.39902407397E+02  0.11354964762E+03  0.00000000000E+00 0. -1.
         -1    1    1    2    0  502 -0.11975818596E+01  0.33017641692E+02 -0.35321521806E+02  0.48365367443E+02  0.00000000000E+00 0.  1.
<scales pt_clust_5="13000.00000" pt_clust_6="13000.00000" pt_clust_7="13000.00000" pt_clust_8="13000.00000" pt_clust_9="33.03935"></scales>
<clustering>
<clus scale="   33.039">  2  9  1 -1</clus>
<clus scale="   80.223">  5  6 -1 -1</clus>
<clus scale="   91.967">  7  8 -1 -1</clus>
<clus scale="  175.096">  1  5  2 -1</clus>
<clus scale="   33.039">  2  5  1 -1</clus>
</clustering>
</event>
<event>
 9    1  0.5981539E-005  0.1053956E+03  0.7546771E-02  0.1273598E+00
         21   -1    0    0  501  502  0.00000000000E+00  0.00000000000E+00  0.59385544677E+02  0.59385544677E+02  0.00000000000E+00 0. -1.
          1   -1    0    0  502    0 -0.00000000000E+00 -0.00000000000E+00 -0.52302249549E+03  0.52302249549E+03  0.00000000000E+00 0. -1.
         23    2    1    2    0    0 -0.37313000008E+02 -0.22112359157E+02 -0.35796167633E+03  0.37213422632E+03  0.92011435594E+02 0.  0.
        -24    2    1    2    0    0  0.50330381271E+02  0.70553433008E+02 -0.10648778377E+03  0.16010758993E+03  0.82364179537E+02 0.  0.
         13    1    4    4    0    0  0.24861400781E+02  0.12626546517E+02  0.82485843989E+01  0.29078481224E+02  0.00000000000E+00 0. -1.
        -14    1    4    4    0    0  0.25468980490E+02  0.57926886491E+02 -0.11473636817E+03  0.13102910870E+03  0.00000000000E+00 0.  1.
        -13    1    3    3    0    0  0.29528697305E+02  0.42909102757E+01 -0.10209396619E+03  0.10636509676E+03  0.00000000000E+00 0.  1.
         13    1    3    3    0    0 -0.66841697313E+02 -0.26403269433E+02 -0.25586771014E+03  0.26576912957E+03  0.00000000000E+00 0. -1.
          2    1    1    2  501    0 -0.13017381263E+02 -0.48441073851E+02  0.81250929497E+00  0.50166223917E+02  0.00000000000E+00 0. -1.
<scales pt_clust_5="13000.00000" pt_clust_6="13000.00000" pt_clust_7="13000.00000" pt_clust_8="13000.00000" pt_clust_9="50.15964"></scales>
<clustering>
<clus scale="   50.160">  1  9  2 -1</clus>
<clus scale="   82.364">  5  6 -1 -1</clus>
<clus scale="   92.011">  7  8 -1 -1</clus>
<clus scale="   97.088">  1  5  2 -1</clus>
<clus scale="   50.160">  1  5  2 -1</clus>
</clustering>
</event>
<event>
 9    1  0.5981539E-005  0.1711990E+03  0.7546771E-02  0.1191955E+00
          1   -1    0    0  502    0 -0.00000000000E+00  0.00000000000E+00  0.38096414993E+03  0.38096414993E+03  0.00000000000E+00 0. -1.
         21   -1    0    0  501  502  0.00000000000E+00 -0.00000000000E+00 -0.16434175706E+03  0.16434175706E+03  0.00000000000E+00 0.  1.
        -24    2    1    2    0    0  0.85709973305E+02 -0.21543478641E+02  0.17715314281E+03  0.21483894141E+03  0.83439881004E+02 0.  0.
         23    2    1    2    0    0 -0.30015468895E+02  0.15522692309E+03  0.12277445688E+02  0.18311522528E+03  0.91564862437E+02 0.  0.
         13    1    3    3    0    0  0.69417167623E+02 -0.42125036751E+02  0.79194232887E+02  0.11342393224E+03  0.00000000000E+00 0. -1.
        -14    1    3    3    0    0  0.16292805681E+02  0.20581558110E+02  0.97958909927E+02  0.10141500917E+03  0.00000000000E+00 0.  1.
        -13    1    4    4    0    0 -0.23150968090E+02  0.65941706377E+02  0.50014074219E+02  0.85939999904E+02  0.00000000000E+00 0. -1.
         13    1    4    4    0    0 -0.68645008052E+01  0.89285216714E+02 -0.37736628531E+02  0.97175225381E+02  0.00000000000E+00 0.  1.
          2    1    1    2  501    0 -0.55694504409E+02 -0.13368344445E+03  0.27191804367E+02  0.14735174029E+03  0.00000000000E+00 0. -1.
<scales pt_clust_5="13000.00000" pt_clust_6="13000.00000" pt_clust_7="13000.00000" pt_clust_8="13000.00000" pt_clust_9="144.65478"></scales>
<clustering>
<clus scale="   83.440">  5  6 -1 -1</clus>
<clus scale="   91.565">  7  8 -1 -1</clus>
<clus scale="  121.542">  1  5  2 -1</clus>
<clus scale="  144.655">  2  9  1 -1</clus>
<clus scale="  144.655">  2  5  1 -1</clus>
</clustering>
</event>
<event>
 9    1  0.5981539E-005  0.1395665E+03  0.7546771E-02  0.1231416E+00
          1   -1    0    0  502    0 -0.00000000000E+00  0.00000000000E+00  0.29161478912E+03  0.29161478912E+03  0.00000000000E+00 0. -1.
         21   -1    0    0  501  502  0.00000000000E+00 -0.00000000000E+00 -0.12359217881E+03  0.12359217881E+03  0.00000000000E+00 0.  1.
         23    2    1    2    0    0 -0.34398626322E+02 -0.14203812598E+01  0.91422552932E+02  0.13314935263E+03  0.90473111723E+02 0.  0.
        -24    2    1    2    0    0  0.12100722482E+03 -0.44127011001E+02 -0.11539956799E+02  0.15035994495E+03  0.76713759424E+02 0.  0.
         11    1    4    4    0    0  0.14331735781E+02  0.20573936132E+02 -0.37645006486E+01  0.25354624107E+02  0.00000000000E+00 0. -1.
        -12    1    4    4    0    0  0.10667548904E+03 -0.64700947133E+02 -0.77754561505E+01  0.12500532085E+03  0.00000000000E+00 0.  1.
        -11    1    3    3    0    0 -0.87204544213E+01 -0.31982902491E+02  0.86860677711E+02  0.92971660787E+02  0.00000000000E+00 0. -1.
         11    1    3    3    0    0 -0.25678171901E+02  0.30562521231E+02  0.45618752210E+01  0.40177691841E+02  0.00000000000E+00 0.  1.
          2    1    1    2  501    0 -0.86608598498E+02  0.45547392261E+02  0.88140014182E+02  0.13169767035E+03  0.00000000000E+00 0. -1.
<scales pt_clust_5="13000.00000" pt_clust_6="13000.00000" pt_clust_7="13000.00000" pt_clust_8="13000.00000" pt_clust_9="116.59258"></scales>
<clustering>
<clus scale="   76.714">  5  6 -1 -1</clus>
<clus scale="   90.473">  7  8 -1 -1</clus>
<clus scale="   96.802">  1  7  2 -1</clus>
<clus scale="  116.593">  2  9  1 -1</clus>
<clus scale="  116.593">  2  5  1 -1</clus>
</clustering>
</event>
<event>
 9    1  0.5981539E-005  0.1383828E+03  0.7546771E-02  0.1218115E+00
         21   -1    0    0  501  502  0.00000000000E+00  0.00000000000E+00  0.90959338581E+02  0.90959338581E+02  0.00000000000E+00 0.  1.
         -2   -1    0    0    0  501 -0.00000000000E+00 -0.00000000000E+00 -0.58614618006E+03  0.58614618006E+03  0.00000000000E+00 0.  1.
        -24    2    1    2    0    0  0.10457926416E+03 -0.23640766057E+02 -0.44117242205E+03  0.46093800750E+03  0.79592917205E+02 0.  0.
         23    2    1    2    0    0 -0.66004387144E+02  0.78807667140E+02 -0.14716340785E+02  0.13822043232E+03  0.91220007131E+02 0.  0.
         11    1    3    3    0    0  0.73397090215E+02 -0.39990655797E+02 -0.19357643886E+03  0.21085118706E+03  0.00000000000E+00 0. -1.
        -12    1    3    3    0    0  0.31182173949E+02  0.16349889740E+02 -0.24759598318E+03  0.25008682044E+03  0.00000000000E+00 0.  1.
        -13    1    4    4    0    0 -0.46231338241E+02 -0.20551132768E+01 -0.27752426431E+02  0.53960701431E+02  0.00000000000E+00 0. -1.
         13    1    4    4    0    0 -0.19773048904E+02  0.80862780417E+02  0.13036085646E+02  0.84259730884E+02  0.00000000000E+00 0.  1.
         -1    1    1    2    0  502 -0.38574877020E+02 -0.55166901083E+02 -0.39298078647E+02  0.77947078826E+02  0.00000000000E+00 0.  1.
<scales pt_clust_5="13000.00000" pt_clust_6="13000.00000" pt_clust_7="13000.00000" pt_clust_8="13000.00000" pt_clust_9="67.31573"></scales>
<clustering>
<clus scale="   67.316">  1  9  2 -1</clus>
<clus scale="   79.593">  5  6 -1 -1</clus>
<clus scale="   91.220">  7  8 -1 -1</clus>
<clus scale="  131.010">  2  5  1 -1</clus>
<clus scale="   67.316">  1  5  2 -1</clus>
</clustering>
</event>
<event>
 9    1  0.5981539E-005  0.9840109E+02  0.7546771E-02  0.1289321E+00
         21   -1    0    0  501  502  0.00000000000E+00  0.00000000000E+00  0.27806843371E+03  0.27806843371E+03  0.00000000000E+00 0.  1.
          1   -1    0    0  502    0 -0.00000000000E+00 -0.00000000000E+00 -0.12004402459E+03  0.12004402459E+03  0.00000000000E+00 0. -1.
        -24    2    1    2    0    0 -0.53494497199E+01 -0.39843718002E+02 -0.88115819969E+02  0.12535508181E+03  0.79582412191E+02 0.  0.
         23    2    1    2    0    0  0.45112656861E+01  0.19735120576E+02  0.22606163216E+03  0.24432837197E+03  0.90458085959E+02 0.  0.
         13    1    3    3    0    0  0.31986084872E+02 -0.32876450665E+02 -0.68949198064E+02  0.82812816324E+02  0.00000000000E+00 0. -1.
        -14    1    3    3    0    0 -0.37335534592E+02 -0.69672673366E+01 -0.19166621905E+02  0.42542265486E+02  0.00000000000E+00 0.  1.
        -11    1    4    4    0    0  0.38004940012E+02 -0.56133706833E+01  0.48531164685E+02  0.61896359679E+02  0.00000000000E+00 0. -1.
         11    1    4    4    0    0 -0.33493674326E+02  0.25348491260E+02  0.17753046747E+03  0.18243201229E+03  0.00000000000E+00 0.  1.
          2    1    1    2  501    0  0.83818403381E+00  0.20108597425E+02  0.20078596935E+02  0.28429004516E+02  0.00000000000E+00 0. -1.
<scales pt_clust_5="13000.00000" pt_clust_6="13000.00000" pt_clust_7="13000.00000" pt_clust_8="13000.00000" pt_clust_9="20.12606"></scales>
<clustering>
<clus scale="   20.126">  1  9  2 -1</clus>
<clus scale="   79.582">  5  6 -1 -1</clus>
<clus scale="   88.507">  2  5  1 -1</clus>
<clus scale="   90.458">  7  8 -1 -1</clus>
<clus scale="   20.126">  1  5  2 -1</clus>
</clustering>
</event>
<event>
 9    1  0.5981539E-005  0.1932907E+03  0.7546771E-02  0.1170973E+00
          1   -1    0    0  502    0 -0.00000000000E+00  0.00000000000E+00  0.61042212966E+03  0.61042212966E+03  0.00000000000E+00 0. -1.
         21   -1    0    0  501  502  0.00000000000E+00 -0.00000000000E+00 -0.43214998403E+03  0.43214998403E+03  0.00000000000E+00 0. -1.
         23    2    1    2    0    0 -0.42809101049E+02 -0.90161160358E+02  0.34830440710E+03  0.37361958605E+03  0.91181034772E+02 0.  0.
        -24    2    1    2    0    0 -0.11562706900E+03  0.15719570676E+03  0.17942046308E+03  0.27944918095E+03  0.88430949657E+02 0.  0.
         13    1    4    4    0    0 -0.12900691763E+03  0.15129294015E+03  0.16042844958E+03  0.25547920849E+03  0.00000000000E+00 0. -1.
        -14    1    4    4    0    0  0.13379848636E+02  0.59027666040E+01  0.18992013500E+02  0.23969972463E+02  0.00000000000E+00 0.  1.
        -11    1    3    3    0    0  0.10280528405E+02 -0.19339433598E+02  0.10271939912E+02  0.24191232001E+02  0.00000000000E+00 0.  1.
         11    1    3    3    0    0 -0.53089629454E+02 -0.70821726760E+02  0.33803246719E+03  0.34942835405E+03  0.00000000000E+00 0. -1.
          2    1    1    2  501    0  0.15843617004E+03 -0.67034546398E+02 -0.34945272454E+03  0.38950334669E+03  0.00000000000E+00 0. -1.
<scales pt_clust_5="13000.00000" pt_clust_6="13000.00000" pt_clust_7="13000.00000" pt_clust_8="13000.00000" pt_clust_9="171.87572"></scales>
<clustering>
<clus scale="   88.431">  5  6 -1 -1</clus>
<clus scale="   91.181">  7  8 -1 -1</clus>
<clus scale="  135.187">  1  7  2 -1</clus>
<clus scale="  171.876">  2  9  1 -1</clus>
<clus scale="  171.876">  2  5  1 -1</clus>
</clustering>
</event>
<event>
 9    1  0.5981539E-005  0.9974587E+02  0.7546771E-02  0.1285921E+00
         21   -1    0    0  501  502  0.00000000000E+00  0.00000000000E+00  0.30723900628E+02  0.30723900628E+02  0.00000000000E+00 0.  1.
         -2   -1    0    0    0  501 -0.00000000000E+00 -0.00000000000E+00 -0.57204756761E+03  0.57204756761E+03  0.00000000000E+00 0.  1.
         23    2    1    2    0    0 -0.26582760203E+02  0.25517828359E+02 -0.36541668242E+03  0.37810516224E+03  0.89868566353E+02 0.  0.
        -24    2    1    2    0    0  0.35178520649E+02 -0.55662353186E+02 -0.10574127855E+03  0.14781706543E+03  0.79579149073E+02 0.  0.
         13    1    4    4    0    0  0.33989322045E+01  0.20459415991E+02 -0.19258536629E+02  0.28302502997E+02  0.00000000000E+00 0. -1.
        -14    1    4    4    0    0  0.31779588445E+02 -0.76121769178E+02 -0.86482741919E+02  0.11951456244E+03  0.00000000000E+00 0.  1.
        -11    1    3    3    0    0 -0.34834464765E+02  0.55773253756E+02 -0.25009576684E+03  0.25859618783E+03  0.00000000000E+00 0. -1.
         11    1    3    3    0    0  0.82517045620E+01 -0.30255425397E+02 -0.11532091558E+03  0.11950897441E+03  0.00000000000E+00 0.  1.
         -1    1    1    2    0  502 -0.85957604465E+01  0.30144524827E+02 -0.70165706020E+02  0.76849240569E+02  0.00000000000E+00 0.  1.
<scales pt_clust_5="13000.00000" pt_clust_6="13000.00000" pt_clust_7="13000.00000" pt_clust_8="13000.00000" pt_clust_9="31.34614"></scales>
<clustering>
<clus scale="   31.346">  1  9  2 -1</clus>
<clus scale="   79.579">  5  6 -1 -1</clus>
<clus scale="   89.869">  7  8 -1 -1</clus>
<clus scale="   90.585">  1  5  2 -1</clus>
<clus scale="   31.346">  1  5  2 -1</clus>
</clustering>
</event>
<event>
 9    1  0.5981539E-005  0.3137360E+03  0.7546771E-02  0.1078970E+00
          1   -1    0    0  502    0 -0.00000000000E+00  0.00000000000E+00  0.28825507902E+04  0.28825507902E+04  0.00000000000E+00 0. -1.
         21   -1    0    0  501  502  0.00000000000E+00 -0.00000000000E+00 -0.64158425295E+02  0.64158425295E+02  0.00000000000E+00 0. -1.
        -24    2    1    2    0    0 -0.24087395857E+03 -0.26878145259E+03  0.20178117743E+04  0.20514752159E+04  0.81990681224E+02 0.  0.
         23    2    1    2    0    0  0.12032565472E+03  0.13707291185E+03  0.29737964730E+03  0.36129559246E+03  0.93981935274E+02 0.  0.
         11    1    3    3    0    0 -0.24201983299E+03 -0.25666111148E+03  0.19912354660E+04  0.20222431126E+04  0.00000000000E+00 0. -1.
        -12    1    3    3    0    0  0.11458744254E+01 -0.12120341106E+02  0.26576308354E+02  0.29232103284E+02  0.00000000000E+00 0.  1.
        -11    1    4    4    0    0  0.45969662023E+02  0.14595141163E+02  0.14185618970E+03  0.14983126019E+03  0.00000000000E+00 0.  1.
         11    1    4    4    0    0  0.74355992696E+02  0.12247777068E+03  0.15552345760E+03  0.21146433228E+03  0.00000000000E+00 0. -1.
          2    1    1    2  501    0  0.12054830385E+03  0.13170854074E+03  0.50320094333E+03  0.53393840715E+03  0.00000000000E+00 0. -1.
<scales pt_clust_5="13000.00000" pt_clust_6="13000.00000" pt_clust_7="13000.00000" pt_clust_8="13000.00000" pt_clust_9="178.54701"></scales>
<clustering>
<clus scale="   81.991">  5  6 -1 -1</clus>
<clus scale="   93.982">  7  8 -1 -1</clus>
<clus scale="  178.547">  2  9  1 -1</clus>
<clus scale="  310.355">  1  5  2 -1</clus>
<clus scale="  178.547">  2  5  1 -1</clus>
</clustering>
</event>
<event>
 9    1  0.5981539E-005  0.1813628E+03  0.7546771E-02  0.1168523E+00
         -2   -1    0    0    0  501 -0.00000000000E+00  0.00000000000E+00  0.84299888388E+03  0.84299888388E+03  0.00000000000E+00 0.  1.
         21   -1    0    0  501  502  0.00000000000E+00 -0.00000000000E+00 -0.14024358304E+03  0.14024358304E+03  0.00000000000E+00 0.  1.
        -24    2    1    2    0    0  0.16584428070E+03  0.10859574950E+02  0.67973460801E+03  0.70371446602E+03  0.74516149608E+02 0.  0.
         23    2    1    2    0    0 -0.12287164579E+03  0.11299731482E+02  0.10357787761E+03  0.18557512851E+03  0.92112031360E+02 0.  0.
         11    1    3    3    0    0  0.33227905134E+02  0.19095397601E+01  0.49722351405E+02  0.59833537844E+02  0.00000000000E+00 0. -1.
        -12    1    3    3    0    0  0.13261637556E+03  0.89500351901E+01  0.63001225661E+03  0.64388092818E+03  0.00000000000E+00 0.  1.
        -11    1    4    4    0    0 -0.93387531975E+02 -0.33851591208E+02  0.75557784215E+02  0.12480440742E+03  0.00000000000E+00 0. -1.
         11    1    4    4    0    0 -0.29484113813E+02  0.45151322691E+02  0.28020093391E+02  0.60770721089E+02  0.00000000000E+00 0.  1.
         -1    1    1    2    0  502 -0.42972634909E+02 -0.22159306433E+02 -0.80557184775E+02  0.93952872396E+02  0.00000000000E+00 0.  1.
<scales pt_clust_5="13000.00000" pt_clust_6="13000.00000" pt_clust_7="13000.00000" pt_clust_8="13000.00000" pt_clust_9="48.34958"></scales>
<clustering>
<clus scale="   48.350">  2  9  1 -1</clus>
<clus scale="   74.516">  5  6 -1 -1</clus>
<clus scale="   92.112">  7  8 -1 -1</clus>
<clus scale="  173.091">  1  5  2 -1</clus>
<clus scale="   48.350">  2  5  1 -1</clus>
</clustering>
</event>
<event>
 9    1  0.5981539E-005  0.1003727E+03  0.7546771E-02  0.1283230E+00
         21   -1    0    0  501  502  0.00000000000E+00  0.00000000000E+00  0.63049602627E+02  0.63049602627E+02  0.00000000000E+00 0. -1.
         -2   -1    0    0    0  501 -0.00000000000E+00 -0.00000000000E+00 -0.26424352343E+03  0.26424352343E+03  0.00000000000E+00 0.  1.
        -24    2    1    2    0    0 -0.34357817573E+02  0.21015124549E+02 -0.13631301305E+03  0.16493350260E+03  0.83664375125E+02 0.  0.
         23    2    1    2    0    0  0.12692268347E+02 -0.55800229409E+02 -0.43746409654E+02  0.11625033423E+03  0.91244904365E+02 0.  0.
         13    1    3    3    0    0 -0.27448001593E+02 -0.11907941830E+02 -0.12635670297E+03  0.12985071526E+03  0.00000000000E+00 0. -1.
        -14    1    3    3    0    0 -0.69098159801E+01  0.32923066379E+02 -0.99563100800E+01  0.35082787333E+02  0.00000000000E+00 0.  1.
        -11    1    4    4    0    0 -0.29493649346E+02 -0.56543561350E+02 -0.36377679316E+02  0.73419242943E+02  0.00000000000E+00 0.  1.
         11    1    4    4    0    0  0.42185917692E+02  0.74333194132E+00 -0.73687303387E+01  0.42831091285E+02  0.00000000000E+00 0. -1.
         -1    1    1    2    0  502  0.21665549226E+02  0.34785104861E+02 -0.21134498102E+02  0.46109289232E+02  0.00000000000E+00 0.  1.
<scales pt_clust_5="13000.00000" pt_clust_6="13000.00000" pt_clust_7="13000.00000" pt_clust_8="13000.00000" pt_clust_9="40.98048"></scales>
<clustering>
<clus scale="   40.980">  1  9  2 -1</clus>
<clus scale="   83.664">  5  6 -1 -1</clus>
<clus scale="   91.245">  7  8 -1 -1</clus>
<clus scale="   93.535">  2  5  1 -1</clus>
<clus scale="   40.980">  1  5  2 -1</clus>
</clustering>
</event>
<event>
 9    1  0.5981539E-005  0.1137178E+03  0.7546771E-02  0.1258246E+00
         -4   -1    0    0    0  501 -0.00000000000E+00  0.00000000000E+00  0.28642763560E+03  0.28642763560E+03  0.00000000000E+00 0.  1.
         21   -1    0    0  501  502  0.00000000000E+00 -0.00000000000E+00 -0.22687281906E+03  0.22687281906E+03  0.00000000000E+00 0.  1.
        -24    2    1    2    0    0  0.42747391787E+02  0.49222362449E+02  0.21353139365E+03  0.23633017144E+03  0.77499118636E+02 0.  0.
         23    2    1    2    0    0 -0.11177974968E+03 -0.58292663940E+02 -0.76117223686E+02  0.17252021993E+03  0.89870169893E+02 0.  0.
         13    1    3    3    0    0  0.11757124266E+02  0.18870799824E+02  0.42950511842E+01  0.22644746006E+02  0.00000000000E+00 0. -1.
        -14    1    3    3    0    0  0.30990267521E+02  0.30351562625E+02  0.20923634246E+03  0.21368542543E+03  0.00000000000E+00 0.  1.
        -11    1    4    4    0    0 -0.52248384211E+02 -0.20422891713E+02  0.14242108432E+02  0.57877679732E+02  0.00000000000E+00 0.  1.
         11    1    4    4    0    0 -0.59531365469E+02 -0.37869772227E+02 -0.90359332118E+02  0.11464254020E+03  0.00000000000E+00 0. -1.
         -3    1    1    2    0  502  0.69032357894E+02  0.90703014907E+01 -0.77859353421E+02  0.10445006329E+03  0.00000000000E+00 0.  1.
<scales pt_clust_5="13000.00000" pt_clust_6="13000.00000" pt_clust_7="13000.00000" pt_clust_8="13000.00000" pt_clust_9="69.62569"></scales>
<clustering>
<clus scale="   69.626">  2  9  1 -1</clus>
<clus scale="   77.499">  5  6 -1 -1</clus>
<clus scale="   89.870">  7  8 -1 -1</clus>
<clus scale="  104.217">  1  5  2 -1</clus>
<clus scale="   69.626">  2  5  1 -1</clus>
</clustering>
</event>
<event>
 9    1  0.5981539E-005  0.3787203E+03  0.7546771E-02  0.1051426E+00
         21   -1    0    0  501  502  0.00000000000E+00  0.00000000000E+00  0.95762557348E+03  0.95762557348E+03  0.00000000000E+00 0.  1.
          1   -1    0    0  502    0 -0.00000000000E+00 -0.00000000000E+00 -0.34915039003E+03  0.34915039003E+03  0.00000000000E+00 0. -1.
         23    2    1    2    0    0 -0.23880177185E+03  0.26812230767E+03 -0.79971974272E+02  0.37654835682E+03  0.80481614307E+02 0.  0.
        -24    2    1    2    0    0  0.27415129470E+03 -0.32981209616E+03  0.72814458317E+03  0.84879601358E+03  0.79531047489E+02 0.  0.
         13    1    4    4    0    0  0.37881057264E+02 -0.72970987740E+02  0.19457267587E+03  0.21123036180E+03  0.00000000000E+00 0. -1.
        -14    1    4    4    0    0  0.23627023744E+03 -0.25684110842E+03  0.53357190730E+03  0.63756565178E+03  0.00000000000E+00 0.  1.
        -11    1    3    3    0    0 -0.96562016456E+02  0.62843670326E+02 -0.31379080416E+01  0.11525361768E+03  0.00000000000E+00 0.  1.
         11    1    3    3    0    0 -0.14223975540E+03  0.20527863734E+03 -0.76834066230E+02  0.26129473913E+03  0.00000000000E+00 0. -1.
          2    1    1    2  501    0 -0.35349522848E+02  0.61689788490E+02 -0.39697425445E+02  0.81431593110E+02  0.00000000000E+00 0. -1.
<scales pt_clust_5="13000.00000" pt_clust_6="13000.00000" pt_clust_7="13000.00000" pt_clust_8="13000.00000" pt_clust_9="71.10010"></scales>
<clustering>
<clus scale="   71.100">  1  9  2 -1</clus>
<clus scale="   79.531">  5  6 -1 -1</clus>
<clus scale="   80.482">  7  8 -1 -1</clus>
<clus scale="  378.519">  1  5  2 -1</clus>
<clus scale="   71.100">  1  5  2 -1</clus>
</clustering>
</event>
<event>
 9    1  0.5981539E-005  0.1124324E+03  0.7546771E-02  0.1270814E+00
         21   -1    0    0  501  502  0.00000000000E+00  0.00000000000E+00  0.68547485192E+03  0.68547485192E+03  0.00000000000E+00 0.  1.
          1   -1    0    0  502    0 -0.00000000000E+00 -0.00000000000E+00 -0.32304289267E+02  0.32304289267E+02  0.00000000000E+00 0. -1.
        -24    2    1    2    0    0 -0.28586770479E+02  0.25854440534E+01  0.73151130465E+02  0.11189381428E+03  0.79657076382E+02 0.  0.
         23    2    1    2    0    0  0.14879212041E+02 -0.41687174831E+02  0.51883291048E+03  0.53198923130E+03  0.10892998542E+03 0.  0.
         13    1    3    3    0    0 -0.39095716509E+02 -0.21831097150E+02  0.72609106605E+02  0.85306237838E+02  0.00000000000E+00 0. -1.
        -14    1    3    3    0    0  0.10508946031E+02  0.24416541203E+02  0.54202385945E+00  0.26587576438E+02  0.00000000000E+00 0.  1.
        -11    1    4    4    0    0 -0.66902175226E+01 -0.76389192486E+02  0.33191684815E+03  0.34065945140E+03  0.00000000000E+00 0.  1.
         11    1    4    4    0    0  0.21569429564E+02  0.34702017655E+02  0.18691606233E+03  0.19132977990E+03  0.00000000000E+00 0. -1.
          2    1    1    2  501    0  0.13707558437E+02  0.39101730778E+02  0.61186521716E+02  0.73896095619E+02  0.00000000000E+00 0. -1.
<scales pt_clust_5="13000.00000" pt_clust_6="13000.00000" pt_clust_7="13000.00000" pt_clust_8="13000.00000" pt_clust_9="41.43482"></scales>
<clustering>
<clus scale="   41.435">  1  9  2 -1</clus>
<clus scale="   79.657">  5  6 -1 -1</clus>
<clus scale="   84.383">  2  5  1 -1</clus>
<clus scale="  108.930">  7  8 -1 -1</clus>
<clus scale="   41.435">  1  5  2 -1</clus>
</clustering>
</event>
<event>
 9    1  0.5981539E-005  0.3146547E+03  0.7546771E-02  0.1091766E+00
         21   -1    0    0  501  502  0.00000000000E+00  0.00000000000E+00  0.33717017592E+03  0.33717017592E+03  0.00000000000E+00 0. -1.
          1   -1    0    0  502    0 -0.00000000000E+00 -0.00000000000E+00 -0.86053304301E+03  0.86053304301E+03  0.00000000000E+00 0. -1.
        -24    2    1    2    0    0 -0.13306723480E+03 -0.16551575703E+03  0.12586664882E+03  0.25233657653E+03  0.52239637898E+02 0.  0.
         23    2    1    2    0    0  0.30097323838E+03  0.32704129800E+03 -0.44473078654E+03  0.63536235736E+03  0.91427303528E+02 0.  0.
         11    1    3    3    0    0 -0.70690208133E+02 -0.47646350406E+02  0.45404170527E+02  0.96585811247E+02  0.00000000000E+00 0. -1.
        -12    1    3    3    0    0 -0.62377026667E+02 -0.11786940662E+03  0.80462478298E+02  0.15575076529E+03  0.00000000000E+00 0.  1.
        -13    1    4    4    0    0  0.83161261908E+02  0.15612561210E+03 -0.17471721928E+03  0.24863046666E+03  0.00000000000E+00 0.  1.
         13    1    4    4    0    0  0.21781197647E+03  0.17091568590E+03 -0.27001356726E+03  0.38673189070E+03  0.00000000000E+00 0. -1.
          2    1    1    2  501    0 -0.16790600358E+03 -0.16152554097E+03 -0.20449872938E+03  0.31000428504E+03  0.00000000000E+00 0. -1.
<scales pt_clust_5="13000.00000" pt_clust_6="13000.00000" pt_clust_7="13000.00000" pt_clust_8="13000.00000" pt_clust_9="301.07915"></scales>
<clustering>
<clus scale="   52.240">  5  6 -1 -1</clus>
<clus scale="   91.427">  7  8 -1 -1</clus>
<clus scale="  218.704">  2  5  1 -1</clus>
<clus scale="  301.079">  1  9  2 -1</clus>
<clus scale="  301.079">  1  5  2 -1</clus>
</clustering>
</event>
<event>
 9    1  0.5981539E-005  0.9489135E+02  0.7546771E-02  0.1301750E+00
         21   -1    0    0  501  502  0.00000000000E+00  0.00000000000E+00  0.82502344386E+02  0.82502344386E+02  0.00000000000E+00 0. -1.
          1   -1    0    0  502    0 -0.00000000000E+00 -0.00000000000E+00 -0.25690595395E+03  0.25690595395E+03  0.00000000000E+00 0. -1.
        -24    2    1    2    0    0  0.69471253591E+01  0.11958624341E+02 -0.98323532631E+02  0.12303313831E+03  0.72652355817E+02 0.  0.
         23    2    1    2    0    0 -0.36268379059E+00 -0.58607940242E+02 -0.11336152886E+03  0.15629670964E+03  0.90237481239E+02 0.  0.
         11    1    3    3    0    0 -0.25629356304E+02  0.16783787237E+02 -0.79275629265E+02  0.84989321764E+02  0.00000000000E+00 0. -1.
        -12    1    3    3    0    0  0.32576481663E+02 -0.48251628954E+01 -0.19047903365E+02  0.38043816542E+02  0.00000000000E+00 0.  1.
        -13    1    4    4    0    0 -0.41238386205E+02 -0.93926863903E+01 -0.33404870601E+02  0.53895384165E+02  0.00000000000E+00 0.  1.
         13    1    4    4    0    0  0.40875702414E+02 -0.49215253851E+02 -0.79956658255E+02  0.10240132547E+03  0.00000000000E+00 0. -1.
          2    1    1    2  501    0 -0.65844415685E+01  0.46649315900E+02  0.37281451918E+02  0.60078450395E+02  0.00000000000E+00 0. -1.
<scales pt_clust_5="13000.00000" pt_clust_6="13000.00000" pt_clust_7="13000.00000" pt_clust_8="13000.00000" pt_clust_9="47.11171"></scales>
<clustering>
<clus scale="   47.112">  1  9  2 -1</clus>
<clus scale="   72.652">  5  6 -1 -1</clus>
<clus scale="   78.358">  2  5  1 -1</clus>
<clus scale="   90.237">  7  8 -1 -1</clus>
<clus scale="   47.112">  1  5  2 -1</clus>
</clustering>
</event>
<event>
 9    1  0.5981539E-005  0.1507058E+03  0.7546771E-02  0.1217061E+00
          3   -1    0    0  502    0 -0.00000000000E+00  0.00000000000E+00  0.17542128022E+03  0.17542128022E+03  0.00000000000E+00 0. -1.
         21   -1    0    0  501  502  0.00000000000E+00 -0.00000000000E+00 -0.56432133885E+03  0.56432133885E+03  0.00000000000E+00 0. -1.
        -24    2    1    2    0    0  0.51726950216E+02  0.44743643856E+02 -0.30059670315E+03  0.31798385619E+03  0.77959501059E+02 0.  0.
         23    2    1    2    0    0  0.55969213613E+02 -0.56018349195E+02  0.12444216951E+03  0.18304085177E+03  0.10838584568E+03 0.  0.
         13    1    3    3    0    0  0.16056168007E+02  0.62025130858E+02 -0.18663464098E+03  0.19732563595E+03  0.00000000000E+00 0. -1.
        -14    1    3    3    0    0  0.35670782209E+02 -0.17281487002E+02 -0.11396206217E+03  0.12065822023E+03  0.00000000000E+00 0.  1.
        -11    1    4    4    0    0  0.27239497967E+02  0.25316560845E+02  0.74755253413E+02  0.83494110063E+02  0.00000000000E+00 0.  1.
         11    1    4    4    0    0  0.28729715646E+02 -0.81334910040E+02  0.49686916101E+02  0.99546741705E+02  0.00000000000E+00 0. -1.
          4    1    1    2  501    0 -0.10769616383E+03  0.11274705339E+02 -0.21274552499E+03  0.23871791112E+03  0.00000000000E+00 0. -1.
<scales pt_clust_5="13000.00000" pt_clust_6="13000.00000" pt_clust_7="13000.00000" pt_clust_8="13000.00000" pt_clust_9="104.71267"></scales>
<clustering>
<clus scale="   77.960">  5  6 -1 -1</clus>
<clus scale="  103.708">  1  5  2 -1</clus>
<clus scale="  104.713">  2  9  1 -1</clus>
<clus scale="  108.386">  7  8 -1 -1</clus>
<clus scale="  104.713">  2  5  1 -1</clus>
</clustering>
</event>
<event>
 9    1  0.5981539E-005  0.1774238E+03  0.7546771E-02  0.1171545E+00
         21   -1    0    0  501  502  0.00000000000E+00  0.00000000000E+00  0.23806505258E+03  0.23806505258E+03  0.00000000000E+00 0. -1.
          1   -1    0    0  502    0 -0.00000000000E+00 -0.00000000000E+00 -0.21389822767E+03  0.21389822767E+03  0.00000000000E+00 0. -1.
         23    2    1    2    0    0  0.21938397427E+02 -0.14439157181E+03  0.19493884579E+02  0.17288686676E+03  0.90441350457E+02 0.  0.
        -24    2    1    2    0    0 -0.78596431429E+02  0.14713909283E+03  0.65008028869E+02  0.19626334328E+03  0.80411096418E+02 0.  0.
         11    1    4    4    0    0 -0.89225716312E+02  0.10227201651E+03  0.31682755684E+02  0.13937213071E+03  0.00000000000E+00 0. -1.
        -12    1    4    4    0    0  0.10629284883E+02  0.44867076317E+02  0.33325273186E+02  0.56891212566E+02  0.00000000000E+00 0.  1.
        -11    1    3    3    0    0  0.51429688547E+02 -0.12804459459E+03  0.17736032293E+02  0.13912224088E+03  0.00000000000E+00 0. -1.
         11    1    3    3    0    0 -0.29491291120E+02 -0.16346977222E+02  0.17578522858E+01  0.33764625881E+02  0.00000000000E+00 0.  1.
          2    1    1    2  501    0  0.56658034002E+02 -0.27475210165E+01 -0.60335088531E+02  0.82813070205E+02  0.00000000000E+00 0. -1.
<scales pt_clust_5="13000.00000" pt_clust_6="13000.00000" pt_clust_7="13000.00000" pt_clust_8="13000.00000" pt_clust_9="56.72464"></scales>
<clustering>
<clus scale="   56.725">  1  9  2 -1</clus>
<clus scale="   80.411">  5  6 -1 -1</clus>
<clus scale="   90.441">  7  8 -1 -1</clus>
<clus scale="  172.527">  1  5  2 -1</clus>
<clus scale="   56.725">  1  5  2 -1</clus>
</clustering>
</event>
<event>
 9    1  0.5981539E-005  0.1042876E+03  0.7546771E-02  0.1276117E+00
         21   -1    0    0  501  502  0.00000000000E+00  0.00000000000E+00  0.69386050645E+03  0.69386050645E+03  0.00000000000E+00 0. -1.
          1   -1    0    0  502    0 -0.00000000000E+00 -0.00000000000E+00 -0.18552038589E+03  0.18552038589E+03  0.00000000000E+00 0. -1.
        -24    2    1    2    0    0 -0.84412395724E+01 -0.64095560127E+02 -0.14185413616E+03  0.17553777967E+03  0.80693375142E+02 0.  0.
         23    2    1    2    0    0 -0.52884860645E+01 -0.27671070199E+02  0.74952850373E+02  0.12116627653E+03  0.90937784105E+02 0.  0.
         13    1    3    3    0    0 -0.51681231726E+01 -0.43780338362E+02 -0.14770622204E+03  0.15414459301E+03  0.00000000000E+00 0. -1.
        -14    1    3    3    0    0 -0.32731163998E+01 -0.20315221765E+02  0.58520858812E+01  0.21393186660E+02  0.00000000000E+00 0.  1.
        -11    1    4    4    0    0  0.63317212316E+01 -0.52615802698E+02  0.14808603308E+02  0.55025522435E+02  0.00000000000E+00 0. -1.
         11    1    4    4    0    0 -0.11620207296E+02  0.24944732499E+02  0.60144247065E+02  0.66140754094E+02  0.00000000000E+00 0.  1.
          2    1    1    2  501    0  0.13729725637E+02  0.91766630326E+02  0.57524140635E+03  0.58267683615E+03  0.00000000000E+00 0. -1.
<scales pt_clust_5="13000.00000" pt_clust_6="13000.00000" pt_clust_7="13000.00000" pt_clust_8="13000.00000" pt_clust_9="92.78804"></scales>
<clustering>
<clus scale="   80.693">  5  6 -1 -1</clus>
<clus scale="   90.938">  7  8 -1 -1</clus>
<clus scale="   92.788">  1  9  2 -1</clus>
<clus scale="   95.486">  2  5  1 -1</clus>
<clus scale="   92.788">  1  5  2 -1</clus>
</clustering>
</event>
<event>
 9    1  0.7475977E-005  0.3789393E+03  0.7546771E-02  0.1089878E+00
         21   -1    0    0  501  502  0.00000000000E+00  0.00000000000E+00  0.34400928441E+03  0.34400928441E+03  0.00000000000E+00 0. -1.
          1   -1    0    0  502    0 -0.00000000000E+00 -0.00000000000E+00 -0.64843260026E+03  0.64843260026E+03  0.00000000000E+00 0. -1.
         23    2    1    2    0    0 -0.69682859583E+02  0.59448008700E+02 -0.16465900639E+03  0.21079424393E+03  0.94508508775E+02 0.  0.
        -24    2    1    2    0    0  0.39015047987E+03  0.11208084989E+02  0.42543510849E+02  0.40624396391E+03  0.10431294159E+03 0.  0.
         13    1    4    4    0    0  0.27451692225E+03  0.45164040280E+01 -0.18760059898E+02  0.27519425567E+03  0.00000000000E+00 0. -1.
        -14    1    4    4    0    0  0.11563355762E+03  0.66916809609E+01  0.61303570747E+02  0.13104970823E+03  0.00000000000E+00 0.  1.
        -13    1    3    3    0    0 -0.20302751044E+02 -0.19856398919E+02 -0.99967955753E+01  0.30106713533E+02  0.00000000000E+00 0. -1.
         13    1    3    3    0    0 -0.49380108540E+02  0.79304407619E+02 -0.15466221081E+03  0.18068753040E+03  0.00000000000E+00 0.  1.
          2    1    1    2  501    0 -0.32046762029E+03 -0.70656093689E+02 -0.18230782031E+03  0.37540367682E+03  0.00000000000E+00 0. -1.
<scales pt_clust_5="13000.00000" pt_clust_6="13000.00000" pt_clust_7="13000.00000" pt_clust_8="13000.00000" pt_clust_9="364.29923"></scales>
<clustering>
<clus scale="   94.509">  7  8 -1 -1</clus>
<clus scale="  104.313">  5  6 -1 -1</clus>
<clus scale="  131.612">  2  7  1 -1</clus>
<clus scale="  364.299">  1  9  2 -1</clus>
<clus scale="  364.299">  1  5  2 -1</clus>
</clustering>
</event>
<event>
 9    1  0.5981539E-005  0.1364676E+03  0.7546771E-02  0.1219131E+00
         21   -1    0    0  501  502  0.00000000000E+00  0.00000000000E+00  0.50855358900E+02  0.50855358900E+02  0.00000000000E+00 0. -1.
          1   -1    0    0  502    0 -0.00000000000E+00 -0.00000000000E+00 -0.93509615669E+03  0.93509615669E+03  0.00000000000E+00 0. -1.
        -24    2    1    2    0    0 -0.50440088156E+02  0.64756649625E+02 -0.36155893838E+03  0.37948728923E+03  0.80920396699E+02 0.  0.
         23    2    1    2    0    0  0.15047479374E+03 -0.10045546602E+03 -0.36723278179E+03  0.41819377316E+03  0.85394096338E+02 0.  0.
         11    1    3    3    0    0 -0.32534864924E+02  0.23435538046E+02 -0.47257141969E+02  0.61975635101E+02  0.00000000000E+00 0. -1.
        -12    1    3    3    0    0 -0.17905223232E+02  0.41321111579E+02 -0.31430179641E+03  0.31751165413E+03  0.00000000000E+00 0.  1.
        -11    1    4    4    0    0  0.42025663974E+02 -0.10756122193E+02 -0.29919170126E+02  0.52697318130E+02  0.00000000000E+00 0.  1.
         11    1    4    4    0    0  0.10844912976E+03 -0.89699343826E+02 -0.33731361166E+03  0.36549645503E+03  0.00000000000E+00 0. -1.
          2    1    1    2  501    0 -0.10003470558E+03  0.35698816394E+02 -0.15544907762E+03  0.18827045319E+03  0.00000000000E+00 0. -1.
<scales pt_clust_5="13000.00000" pt_clust_6="13000.00000" pt_clust_7="13000.00000" pt_clust_8="13000.00000" pt_clust_9="106.21369"></scales>
<clustering>
<clus scale="   80.920">  5  6 -1 -1</clus>
<clus scale="   85.394">  7  8 -1 -1</clus>
<clus scale="  106.214">  1  9  2 -1</clus>
<clus scale="  133.714">  2  5  1 -1</clus>
<clus scale="  106.214">  1  5  2 -1</clus>
</clustering>
</event>
<event>
 9    1  0.5981539E-005  0.1525472E+03  0.7546771E-02  0.1224439E+00
         21   -1    0    0  501  502  0.00000000000E+00  0.00000000000E+00  0.18269984237E+03  0.18269984237E+03  0.00000000000E+00 0.  1.
         -2   -1    0    0    0  501 -0.00000000000E+00 -0.00000000000E+00 -0.22146818370E+03  0.22146818370E+03  0.00000000000E+00 0.  1.
        -24    2    1    2    0    0  0.20011700049E+02  0.17119648250E+02  0.51512085924E+02  0.99958964475E+02  0.81515330384E+02 0.  0.
         23    2    1    2    0    0 -0.10144413795E+02  0.10830605488E+03 -0.10477148585E+03  0.17756404146E+03  0.93374589254E+02 0.  0.
         11    1    3    3    0    0  0.26239654500E+02  0.37631539170E+02  0.61157909296E+02  0.76452220884E+02  0.00000000000E+00 0. -1.
        -12    1    3    3    0    0 -0.62279544504E+01 -0.20511890920E+02 -0.96458233716E+01  0.23506743591E+02  0.00000000000E+00 0.  1.
        -13    1    4    4    0    0  0.19428108000E+02  0.11163392203E+03 -0.78282248301E+02  0.13772325268E+03  0.00000000000E+00 0.  1.
         13    1    4    4    0    0 -0.29572521795E+02 -0.33278671528E+01 -0.26489237549E+02  0.39840788785E+02  0.00000000000E+00 0. -1.
         -1    1    1    2    0  502 -0.98672862541E+01 -0.12542570313E+03  0.14491058601E+02  0.12664502013E+03  0.00000000000E+00 0.  1.
<scales pt_clust_5="13000.00000" pt_clust_6="13000.00000" pt_clust_7="13000.00000" pt_clust_8="13000.00000" pt_clust_9="120.63093"></scales>
<clustering>
<clus scale="   81.515">  5  6 -1 -1</clus>
<clus scale="   85.664">  2  5  1 -1</clus>
<clus scale="   93.375">  7  8 -1 -1</clus>
<clus scale="  120.631">  1  9  2 -1</clus>
<clus scale="  120.631">  1  5  2 -1</clus>
</clustering>
</event>
<event>
 9    1  0.5981539E-005  0.1255598E+03  0.7546771E-02  0.1236040E+00
         21   -1    0    0  501  502  0.00000000000E+00  0.00000000000E+00  0.31596569422E+02  0.31596569422E+02  0.00000000000E+00 0. -1.
          1   -1    0    0  502    0 -0.00000000000E+00 -0.00000000000E+00 -0.84549805259E+03  0.84549805259E+03  0.00000000000E+00 0. -1.
         23    2    1    2    0    0  0.71527961088E+02 -0.32613419342E+02 -0.28502518213E+03  0.30852200465E+03  0.88128250666E+02 0.  0.
        -24    2    1    2    0    0 -0.79910390152E+02  0.74567638590E+02 -0.23537958456E+03  0.27197399260E+03  0.81365229937E+02 0.  0.
         13    1    4    4    0    0 -0.52922086147E+02  0.71809768036E+02 -0.10043777339E+03  0.13433218643E+03  0.00000000000E+00 0. -1.
        -14    1    4    4    0    0 -0.26988304005E+02  0.27578705545E+01 -0.13494181117E+03  0.13764180617E+03  0.00000000000E+00 0.  1.
        -13    1    3    3    0    0  0.25141912969E+02  0.19080804655E+02 -0.17907875154E+03  0.18183891813E+03  0.00000000000E+00 0. -1.
         13    1    3    3    0    0  0.46386048119E+02 -0.51694223997E+02 -0.10594643059E+03  0.12668308652E+03  0.00000000000E+00 0.  1.
          2    1    1    2  501    0  0.83824290639E+01 -0.41954219248E+02 -0.29349671648E+03  0.29659862477E+03  0.00000000000E+00 0. -1.
<scales pt_clust_5="13000.00000" pt_clust_6="13000.00000" pt_clust_7="13000.00000" pt_clust_8="13000.00000" pt_clust_9="42.78345"></scales>
<clustering>
<clus scale="   42.783">  1  9  2 -1</clus>
<clus scale="   81.365">  5  6 -1 -1</clus>
<clus scale="   88.128">  7  8 -1 -1</clus>
<clus scale="  120.909">  1  5  2 -1</clus>
<clus scale="   42.783">  1  5  2 -1</clus>
</clustering>
</event>
<event>
 9    1  0.5981539E-005  0.9545095E+02  0.7546771E-02  0.1297180E+00
         21   -1    0    0  501  502  0.00000000000E+00  0.00000000000E+00  0.15011419855E+03  0.15011419855E+03  0.00000000000E+00 0.  1.
         -4   -1    0    0    0  501 -0.00000000000E+00 -0.00000000000E+00 -0.19485454910E+03  0.19485454910E+03  0.00000000000E+00 0.  1.
        -24    2    1    2    0    0 -0.55868180660E+01 -0.20539202531E+02 -0.10510639350E+03  0.13381584193E+03  0.80039079330E+02 0.  0.
         23    2    1    2    0    0  0.50262172029E+02  0.39188117013E+02  0.98741562609E+02  0.14937629386E+03  0.92202963782E+02 0.  0.
         13    1    3    3    0    0 -0.28837559231E+02 -0.41683631286E+02 -0.73154293611E+02  0.88998205675E+02  0.00000000000E+00 0. -1.
        -14    1    3    3    0    0  0.23250741165E+02  0.21144428755E+02 -0.31952099886E+02  0.44817636252E+02  0.00000000000E+00 0.  1.
        -11    1    4    4    0    0  0.45595479596E+02  0.62779867978E+02  0.98418270135E+02  0.12532523880E+03  0.00000000000E+00 0.  1.
         11    1    4    4    0    0  0.46666924330E+01 -0.23591750965E+02  0.32329247396E+00  0.24051055068E+02  0.00000000000E+00 0. -1.
         -3    1    1    2    0  502 -0.44675353963E+02 -0.18648914482E+02 -0.38375519662E+02  0.61776611856E+02  0.00000000000E+00 0.  1.
<scales pt_clust_5="13000.00000" pt_clust_6="13000.00000" pt_clust_7="13000.00000" pt_clust_8="13000.00000" pt_clust_9="48.41148"></scales>
<clustering>
<clus scale="   48.411">  1  9  2 -1</clus>
<clus scale="   80.039">  5  6 -1 -1</clus>
<clus scale="   83.760">  2  5  1 -1</clus>
<clus scale="   92.203">  7  8 -1 -1</clus>
<clus scale="   48.411">  1  5  2 -1</clus>
</clustering>
</event>
<event>
 9    1  0.1404156E-004  0.1184880E+03  0.7546771E-02  0.1249617E+00
         21   -1    0    0  501  502  0.00000000000E+00  0.00000000000E+00  0.16874804094E+03  0.16874804094E+03  0.00000000000E+00 0.  1.
         -2   -1    0    0    0  501 -0.00000000000E+00 -0.00000000000E+00 -0.88535927412E+03  0.88535927412E+03  0.00000000000E+00 0.  1.
        -24    2    1    2    0    0 -0.44548935628E+02 -0.44036567081E+02 -0.85348253890E+03  0.86174560973E+03  0.10123845499E+03 0.  0.
         23    2    1    2    0    0  0.29194281495E+02  0.23138133594E+02  0.68827569755E+02  0.11954371352E+03  0.90364737517E+02 0.  0.
         11    1    3    3    0    0 -0.44579109003E+02 -0.61624631229E+00 -0.13965592803E+03  0.14659964172E+03  0.00000000000E+00 0. -1.
        -12    1    3    3    0    0  0.30173374686E-01 -0.43420320768E+02 -0.71382661087E+03  0.71514596800E+03  0.00000000000E+00 0.  1.
        -11    1    4    4    0    0  0.61693369396E+02  0.17614060065E+02  0.38967269945E+02  0.75065138822E+02  0.00000000000E+00 0.  1.
         11    1    4    4    0    0 -0.32499087901E+02  0.55240735293E+01  0.29860299810E+02  0.44478574702E+02  0.00000000000E+00 0. -1.
         -1    1    1    2    0  502  0.15354654133E+02  0.20898433486E+02  0.68043735973E+02  0.72817991808E+02  0.00000000000E+00 0.  1.
<scales pt_clust_5="13000.00000" pt_clust_6="13000.00000" pt_clust_7="13000.00000" pt_clust_8="13000.00000" pt_clust_9="25.93280"></scales>
<clustering>
<clus scale="   25.933">  1  9  2 -1</clus>
<clus scale="   90.365">  7  8 -1 -1</clus>
<clus scale="  101.238">  5  6 -1 -1</clus>
<clus scale="  109.343">  1  7  2 -1</clus>
<clus scale="   25.933">  1  5  2 -1</clus>
</clustering>
</event>
<event>
 9    1  0.5981539E-005  0.9641832E+02  0.7546771E-02  0.1293709E+00
         21   -1    0    0  501  502  0.00000000000E+00  0.00000000000E+00  0.49598613522E+02  0.49598613522E+02  0.00000000000E+00 0.  1.
         -4   -1    0    0    0  501 -0.00000000000E+00 -0.00000000000E+00 -0.49483583043E+03  0.49483583043E+03  0.00000000000E+00 0.  1.
        -24    2    1    2    0    0 -0.10275413518E+02  0.72061521225E+01 -0.21522777298E+03  0.23011827054E+03  0.80460620337E+02 0.  0.
         23    2    1    2    0    0  0.35013150990E+02 -0.59946533867E+02 -0.22910022377E+03  0.25605529285E+03  0.90872948682E+02 0.  0.
         11    1    3    3    0    0 -0.47664086022E+01  0.21117787392E+02 -0.91585931352E+01  0.23506582557E+02  0.00000000000E+00 0. -1.
        -12    1    3    3    0    0 -0.55090049158E+01 -0.13911635270E+02 -0.20606917984E+03  0.20661168798E+03  0.00000000000E+00 0.  1.
        -11    1    4    4    0    0  0.20014161223E+02  0.58148070422E+01 -0.42032141723E+01  0.21261364955E+02  0.00000000000E+00 0.  1.
         11    1    4    4    0    0  0.14998989767E+02 -0.65761340909E+02 -0.22489700960E+03  0.23479392790E+03  0.00000000000E+00 0. -1.
         -3    1    1    2    0  502 -0.24737737472E+02  0.52740381745E+02 -0.90922015956E+00  0.58260880555E+02  0.00000000000E+00 0.  1.
<scales pt_clust_5="13000.00000" pt_clust_6="13000.00000" pt_clust_7="13000.00000" pt_clust_8="13000.00000" pt_clust_9="58.25379"></scales>
<clustering>
<clus scale="   58.254">  1  9  2 -1</clus>
<clus scale="   80.461">  5  6 -1 -1</clus>
<clus scale="   86.675">  2  5  1 -1</clus>
<clus scale="   90.873">  7  8 -1 -1</clus>
<clus scale="   58.254">  1  5  2 -1</clus>
</clustering>
</event>
<event>
 9    1  0.5981539E-005  0.2017172E+03  0.7546771E-02  0.1149103E+00
         21   -1    0    0  501  502  0.00000000000E+00  0.00000000000E+00  0.17547376642E+03  0.17547376642E+03  0.00000000000E+00 0.  1.
          1   -1    0    0  502    0 -0.00000000000E+00 -0.00000000000E+00 -0.58432650106E+03  0.58432650106E+03  0.00000000000E+00 0. -1.
         23    2    1    2    0    0 -0.16927238866E+03  0.24697193233E+02 -0.39524753843E+03  0.44024349361E+03  0.91272252715E+02 0.  0.
        -24    2    1    2    0    0  0.20552010283E+03 -0.64153393862E+02 -0.70800443945E+02  0.24118595714E+03  0.82485104407E+02 0.  0.
         13    1    4    4    0    0  0.46401932122E+02 -0.40830370218E+02 -0.49044556264E+02  0.78902642135E+02  0.00000000000E+00 0. -1.
        -14    1    4    4    0    0  0.15911817070E+03 -0.23323023644E+02 -0.21755887681E+02  0.16228331500E+03  0.00000000000E+00 0.  1.
        -13    1    3    3    0    0 -0.15827023838E+02 -0.26769836132E+02 -0.48973267938E+02  0.58012927720E+02  0.00000000000E+00 0.  1.
         13    1    3    3    0    0 -0.15344536482E+03  0.51467029365E+02 -0.34627427049E+03  0.38223056589E+03  0.00000000000E+00 0. -1.
          2    1    1    2  501    0 -0.36247714165E+02  0.39456200629E+02  0.57195247741E+02  0.78370816727E+02  0.00000000000E+00 0. -1.
<scales pt_clust_5="13000.00000" pt_clust_6="13000.00000" pt_clust_7="13000.00000" pt_clust_8="13000.00000" pt_clust_9="53.57881"></scales>
<clustering>
<clus scale="   53.579">  1  9  2 -1</clus>
<clus scale="   82.485">  5  6 -1 -1</clus>
<clus scale="   91.272">  7  8 -1 -1</clus>
<clus scale="  197.896">  1  5  2 -1</clus>
<clus scale="   53.579">  1  5  2 -1</clus>
</clustering>
</event>
<event>
 9    1  0.5981539E-005  0.9945357E+02  0.7546771E-02  0.1285663E+00
         21   -1    0    0  501  502  0.00000000000E+00  0.00000000000E+00  0.43747541911E+03  0.43747541911E+03  0.00000000000E+00 0.  1.
          3   -1    0    0  502    0 -0.00000000000E+00 -0.00000000000E+00 -0.56499641586E+02  0.56499641586E+02  0.00000000000E+00 0. -1.
         23    2    1    2    0    0 -0.36700011529E+02 -0.39758853651E+02  0.70211250865E+02  0.12474386275E+03  0.87771033119E+02 0.  0.
        -24    2    1    2    0    0  0.43303538673E+02 -0.13856574907E+02  0.30078023740E+03  0.31429571959E+03  0.79030671353E+02 0.  0.
         11    1    4    4    0    0  0.65927850642E+02 -0.29163303668E+01  0.22253821953E+03  0.23211687923E+03  0.00000000000E+00 0. -1.
        -12    1    4    4    0    0 -0.22624311969E+02 -0.10940244540E+02  0.78242017870E+02  0.82178840361E+02  0.00000000000E+00 0.  1.
        -13    1    3    3    0    0 -0.32775155891E+01 -0.47072068219E+02  0.61200508434E+00  0.47190001749E+02  0.00000000000E+00 0.  1.
         13    1    3    3    0    0 -0.33422495940E+02  0.73132145682E+01  0.69599245781E+02  0.77553860997E+02  0.00000000000E+00 0. -1.
          4    1    1    2  501    0 -0.66035271434E+01  0.53615428557E+02  0.99842892554E+01  0.54935478355E+02  0.00000000000E+00 0. -1.
<scales pt_clust_5="13000.00000" pt_clust_6="13000.00000" pt_clust_7="13000.00000" pt_clust_8="13000.00000" pt_clust_9="54.02059"></scales>
<clustering>
<clus scale="   54.021">  1  9  2 -1</clus>
<clus scale="   79.031">  5  6 -1 -1</clus>
<clus scale="   87.771">  7  8 -1 -1</clus>
<clus scale="   91.832">  1  5  2 -1</clus>
<clus scale="   54.021">  1  5  2 -1</clus>
</clustering>
</event>
<event>
 9    1  0.5981539E-005  0.1954283E+03  0.7546771E-02  0.1176346E+00
         21   -1    0    0  501  502  0.00000000000E+00  0.00000000000E+00  0.11917444583E+03  0.11917444583E+03  0.00000000000E+00 0. -1.
          1   -1    0    0  502    0 -0.00000000000E+00 -0.00000000000E+00 -0.68851170101E+03  0.68851170101E+03  0.00000000000E+00 0. -1.
         23    2    1    2    0    0 -0.64839178938E+02 -0.30619026283E+02 -0.47597061865E+02  0.12516675042E+03  0.90882293198E+02 0.  0.
        -24    2    1    2    0    0  0.22056332912E+03  0.72121614037E+02 -0.43395349190E+03  0.49900105759E+03  0.82684418037E+02 0.  0.
         11    1    4    4    0    0  0.12182249237E+03  0.68464097551E+02 -0.19048939906E+03  0.23625042530E+03  0.00000000000E+00 0. -1.
        -12    1    4    4    0    0  0.98740836750E+02  0.36575164863E+01 -0.24346409284E+03  0.26275063230E+03  0.00000000000E+00 0.  1.
        -13    1    3    3    0    0 -0.79186135778E+02  0.70817556362E+00 -0.43818020466E+02  0.90503947591E+02  0.00000000000E+00 0.  1.
         13    1    3    3    0    0  0.14346956840E+02 -0.31327201847E+02 -0.37790413991E+01  0.34662802830E+02  0.00000000000E+00 0. -1.
          2    1    1    2  501    0 -0.15572415018E+03 -0.41502587754E+02 -0.87786701412E+02  0.18351833882E+03  0.00000000000E+00 0. -1.
<scales pt_clust_5="13000.00000" pt_clust_6="13000.00000" pt_clust_7="13000.00000" pt_clust_8="13000.00000" pt_clust_9="177.07481"></scales>
<clustering>
<clus scale="   82.684">  5  6 -1 -1</clus>
<clus scale="   90.882">  7  8 -1 -1</clus>
<clus scale="  115.764">  2  7  1 -1</clus>
<clus scale="  177.075">  1  9  2 -1</clus>
<clus scale="  177.075">  1  5  2 -1</clus>
</clustering>
</event>
<event>
 9    1  0.5981539E-005  0.2699921E+03  0.7546771E-02  0.1146594E+00
          1   -1    0    0  502    0 -0.00000000000E+00  0.00000000000E+00  0.20414041403E+03  0.20414041403E+03  0.00000000000E+00 0. -1.
         21   -1    0    0  501  502  0.00000000000E+00 -0.00000000000E+00 -0.49679507426E+03  0.49679507426E+03  0.00000000000E+00 0. -1.
        -24    2    1    2    0    0  0.15342596693E+02 -0.34374501362E+02 -0.14205171128E+01  0.87618133224E+02  0.79107002115E+02 0.  0.
         23    2    1    2    0    0  0.22791933703E+03  0.11250717607E+03 -0.21915670214E+03  0.34784373915E+03  0.91435867757E+02 0.  0.
         11    1    3    3    0    0  0.25950969273E+02 -0.45091223719E+02 -0.26475912517E+02  0.58375039240E+02  0.00000000000E+00 0. -1.
        -12    1    3    3    0    0 -0.10608372580E+02  0.10716722358E+02  0.25055395404E+02  0.29243093984E+02  0.00000000000E+00 0.  1.
        -13    1    4    4    0    0  0.10672089455E+03  0.27294665255E+02 -0.14519435167E+03  0.18225188021E+03  0.00000000000E+00 0.  1.
         13    1    4    4    0    0  0.12119844247E+03  0.85212510813E+02 -0.73962350476E+02  0.16559185893E+03  0.00000000000E+00 0. -1.
          2    1    1    2  501    0 -0.24326193372E+03 -0.78132674706E+02 -0.72077440977E+02  0.26547361592E+03  0.00000000000E+00 0. -1.
<scales pt_clust_5="13000.00000" pt_clust_6="13000.00000" pt_clust_7="13000.00000" pt_clust_8="13000.00000" pt_clust_9="254.03798"></scales>
<clustering>
<clus scale="   79.107">  5  6 -1 -1</clus>
<clus scale="   87.607">  1  5  2 -1</clus>
<clus scale="   91.436">  7  8 -1 -1</clus>
<clus scale="  254.038">  2  9  1 -1</clus>
<clus scale="  254.038">  2  5  1 -1</clus>
</clustering>
</event>
<event>
 9    1  0.5981539E-005  0.1983428E+03  0.7546771E-02  0.1152381E+00
         21   -1    0    0  501  502  0.00000000000E+00  0.00000000000E+00  0.38296711658E+02  0.38296711658E+02  0.00000000000E+00 0. -1.
          1   -1    0    0  502    0 -0.00000000000E+00 -0.00000000000E+00 -0.13168375412E+04  0.13168375412E+04  0.00000000000E+00 0. -1.
         23    2    1    2    0    0  0.14239452008E+03 -0.97964310112E+02 -0.75286921409E+03  0.77799264876E+03  0.92667699828E+02 0.  0.
        -24    2    1    2    0    0 -0.16199618410E+03  0.81658286752E+02 -0.37312161102E+03  0.42247546210E+03  0.79717877571E+02 0.  0.
         13    1    4    4    0    0 -0.55029345084E+02  0.63203191585E+02 -0.11358391910E+03  0.14115303371E+03  0.00000000000E+00 0. -1.
        -14    1    4    4    0    0 -0.10696683902E+03  0.18455095166E+02 -0.25953769192E+03  0.28132242839E+03  0.00000000000E+00 0.  1.
        -11    1    3    3    0    0  0.11333342710E+03 -0.11380195139E+03 -0.66435605520E+03  0.68349419743E+03  0.00000000000E+00 0. -1.
         11    1    3    3    0    0  0.29061092985E+02  0.15837641281E+02 -0.88513158892E+02  0.94498451331E+02  0.00000000000E+00 0.  1.
          2    1    1    2  501    0  0.19601664022E+02  0.16306023360E+02 -0.15255000447E+03  0.15466614204E+03  0.00000000000E+00 0. -1.
<scales pt_clust_5="13000.00000" pt_clust_6="13000.00000" pt_clust_7="13000.00000" pt_clust_8="13000.00000" pt_clust_9="25.49730"></scales>
<clustering>
<clus scale="   25.497">  1  9  2 -1</clus>
<clus scale="   79.718">  5  6 -1 -1</clus>
<clus scale="   92.668">  7  8 -1 -1</clus>
<clus scale="  192.633">  1  5  2 -1</clus>
<clus scale="   25.497">  1  5  2 -1</clus>
</clustering>
</event>
<event>
 9    1  0.5981539E-005  0.2240658E+03  0.7546771E-02  0.1131534E+00
         21   -1    0    0  501  502  0.00000000000E+00  0.00000000000E+00  0.94262064933E+02  0.94262064933E+02  0.00000000000E+00 0.  1.
          1   -1    0    0  502    0 -0.00000000000E+00 -0.00000000000E+00 -0.11874853537E+04  0.11874853537E+04  0.00000000000E+00 0. -1.
        -24    2    1    2    0    0  0.73437072575E+02  0.15552516763E+03 -0.44059940068E+03  0.48344835209E+03  0.10006695690E+03 0.  0.
         23    2    1    2    0    0 -0.60755203410E+01 -0.28847655122E+03 -0.36426532260E+03  0.47370037368E+03  0.91908575365E+02 0.  0.
         11    1    3    3    0    0  0.84737796457E+02  0.97439333539E+02 -0.36672550338E+03  0.38879623545E+03  0.00000000000E+00 0. -1.
        -12    1    3    3    0    0 -0.11300723881E+02  0.58085834093E+02 -0.73873897294E+02  0.94652116637E+02  0.00000000000E+00 0.  1.
        -11    1    4    4    0    0  0.99231125485E+01 -0.18634520701E+03 -0.16446407214E+03  0.24873969399E+03  0.00000000000E+00 0.  1.
         11    1    4    4    0    0 -0.15998632889E+02 -0.10213134421E+03 -0.19980125046E+03  0.22496067970E+03  0.00000000000E+00 0. -1.
          2    1    1    2  501    0 -0.67361552234E+02  0.13295138359E+03 -0.28835856551E+03  0.32459869288E+03  0.00000000000E+00 0. -1.
<scales pt_clust_5="13000.00000" pt_clust_6="13000.00000" pt_clust_7="13000.00000" pt_clust_8="13000.00000" pt_clust_9="149.04252"></scales>
<clustering>
<clus scale="   91.909">  7  8 -1 -1</clus>
<clus scale="  100.067">  5  6 -1 -1</clus>
<clus scale="  149.043">  1  9  2 -1</clus>
<clus scale="  220.543">  1  7  2 -1</clus>
<clus scale="  149.043">  1  5  2 -1</clus>
</clustering>
</event>
<event>
 9    1  0.5981539E-005  0.1170917E+03  0.7546771E-02  0.1251893E+00
         21   -1    0    0  501  502  0.00000000000E+00  0.00000000000E+00  0.61647837863E+02  0.61647837863E+02  0.00000000000E+00 0. -1.
          1   -1    0    0  502    0 -0.00000000000E+00 -0.00000000000E+00 -0.55287891368E+03  0.55287891368E+03  0.00000000000E+00 0. -1.
        -24    2    1    2    0    0 -0.62641100235E+02 -0.50558798286E+02 -0.41795088708E+03  0.43306072426E+03  0.79865808494E+02 0.  0.
         23    2    1    2    0    0  0.54733687442E+02  0.54838386119E+01 -0.82353047806E+02  0.13481202490E+03  0.91468073924E+02 0.  0.
         11    1    3    3    0    0 -0.82046632603E+02 -0.40747544990E+02 -0.33296478175E+03  0.34533687644E+03  0.00000000000E+00 0. -1.
        -12    1    3    3    0    0  0.19405532368E+02 -0.98112532955E+01 -0.84986105332E+02  0.87723847825E+02  0.00000000000E+00 0.  1.
        -11    1    4    4    0    0 -0.23147268766E+02  0.44785489165E+01 -0.39267961495E+02  0.45802033270E+02  0.00000000000E+00 0.  1.
         11    1    4    4    0    0  0.77880956208E+02  0.10052896954E+01 -0.43085086312E+02  0.89009991628E+02  0.00000000000E+00 0. -1.
          2    1    1    2  501    0  0.79074127935E+01  0.45074959674E+02  0.90728590660E+01  0.46654002383E+02  0.00000000000E+00 0. -1.
<scales pt_clust_5="13000.00000" pt_clust_6="13000.00000" pt_clust_7="13000.00000" pt_clust_8="13000.00000" pt_clust_9="45.76329"></scales>
<clustering>
<clus scale="   45.763">  1  9  2 -1</clus>
<clus scale="   79.866">  5  6 -1 -1</clus>
<clus scale="   91.468">  7  8 -1 -1</clus>
<clus scale="  108.271">  2  5  1 -1</clus>
<clus scale="   45.763">  1  5  2 -1</clus>
</clustering>
</event>
<event>
 9    1  0.5981539E-005  0.1114485E+03  0.7546771E-02  0.1268859E+00
          1   -1    0    0  502    0 -0.00000000000E+00  0.00000000000E+00  0.92701786883E+03  0.92701786883E+03  0.00000000000E+00 0. -1.
         21   -1    0    0  501  502  0.00000000000E+00 -0.00000000000E+00 -0.25940447086E+02  0.25940447086E+02  0.00000000000E+00 0. -1.
         23    2    1    2    0    0  0.52864457353E+02  0.42888312759E+02  0.48658011680E+03  0.50236835003E+03  0.10478401986E+03 0.  0.
        -24    2    1    2    0    0 -0.65323079503E+01  0.25126997904E+02  0.14075236763E+03  0.16474203210E+03  0.81576167313E+02 0.  0.
         11    1    4    4    0    0  0.10307254791E+02  0.52067768147E+02  0.98337350546E+02  0.11174760174E+03  0.00000000000E+00 0. -1.
        -12    1    4    4    0    0 -0.16839562741E+02 -0.26940770243E+02  0.42415017088E+02  0.52994430360E+02  0.00000000000E+00 0.  1.
        -11    1    3    3    0    0 -0.42861382823E+01 -0.29847075282E+02  0.82559202112E+02  0.87893348654E+02  0.00000000000E+00 0.  1.
         11    1    3    3    0    0  0.57150595636E+02  0.72735388041E+02  0.40402091469E+03  0.41447500137E+03  0.00000000000E+00 0. -1.
          2    1    1    2  501    0 -0.46332149403E+02 -0.68015310663E+02  0.27374493730E+03  0.28584793379E+03  0.00000000000E+00 0. -1.
<scales pt_clust_5="13000.00000" pt_clust_6="13000.00000" pt_clust_7="13000.00000" pt_clust_8="13000.00000" pt_clust_9="82.29676"></scales>
<clustering>
<clus scale="   81.576">  5  6 -1 -1</clus>
<clus scale="   82.297">  2  9  1 -1</clus>
<clus scale="   89.976">  2  5  1 -1</clus>
<clus scale="  104.784">  7  8 -1 -1</clus>
<clus scale="   82.297">  2  5  1 -1</clus>
</clustering>
</event>
<event>
 9    1  0.5981539E-005  0.1419292E+03  0.7546771E-02  0.1230650E+00
         21   -1    0    0  501  502  0.00000000000E+00  0.00000000000E+00  0.35094525948E+03  0.35094525948E+03  0.00000000000E+00 0. -1.
          1   -1    0    0  502    0 -0.00000000000E+00 -0.00000000000E+00 -0.14052189301E+03  0.14052189301E+03  0.00000000000E+00 0. -1.
         23    2    1    2    0    0  0.89643905843E+01  0.66875148641E+01  0.11233175771E+03  0.14616078688E+03  0.92841093685E+02 0.  0.
        -24    2    1    2    0    0  0.57336571798E+01  0.11055432534E+03 -0.58760214073E+02  0.14892872934E+03  0.80447933410E+02 0.  0.
         11    1    4    4    0    0 -0.11706183746E+02  0.37335464374E+02 -0.62311494082E+02  0.73577808697E+02  0.00000000000E+00 0. -1.
        -12    1    4    4    0    0  0.17439840925E+02  0.73218860962E+02  0.35512800091E+01  0.75350920644E+02  0.00000000000E+00 0.  1.
        -11    1    3    3    0    0  0.38449946103E+02 -0.25410971842E+02  0.78323124832E+02  0.90876992296E+02  0.00000000000E+00 0.  1.
         11    1    3    3    0    0 -0.29485555519E+02  0.32098486706E+02  0.34008632876E+02  0.55283794579E+02  0.00000000000E+00 0. -1.
          2    1    1    2  501    0 -0.14698047764E+02 -0.11724184020E+03  0.15685182283E+03  0.19637763627E+03  0.00000000000E+00 0. -1.
<scales pt_clust_5="13000.00000" pt_clust_6="13000.00000" pt_clust_7="13000.00000" pt_clust_8="13000.00000" pt_clust_9="116.92745"></scales>
<clustering>
<clus scale="   80.448">  5  6 -1 -1</clus>
<clus scale="   92.841">  7  8 -1 -1</clus>
<clus scale="   93.512">  2  7  1 -1</clus>
<clus scale="  116.927">  1  9  2 -1</clus>
<clus scale="  116.927">  1  5  2 -1</clus>
</clustering>
</event>
<event>
 9    1  0.5981539E-005  0.1583472E+03  0.7546771E-02  0.1212861E+00
          3   -1    0    0  502    0 -0.00000000000E+00  0.00000000000E+00  0.65107838269E+03  0.65107838269E+03  0.00000000000E+00 0. -1.
         21   -1    0    0  501  502  0.00000000000E+00 -0.00000000000E+00 -0.98548345104E+02  0.98548345104E+02  0.00000000000E+00 0. -1.
        -24    2    1    2    0    0  0.18424423239E+02 -0.52335662085E+02  0.36761185313E+03  0.38037940907E+03  0.80445878606E+02 0.  0.
         23    2    1    2    0    0 -0.11092957703E+03 -0.57671904981E+02  0.30106748989E+02  0.15799995462E+03  0.91794061031E+02 0.  0.
         11    1    3    3    0    0  0.30529740330E+02 -0.67979415551E+02  0.24182028724E+03  0.25304212556E+03  0.00000000000E+00 0. -1.
        -12    1    3    3    0    0 -0.12105317090E+02  0.15643753467E+02  0.12579156589E+03  0.12733728352E+03  0.00000000000E+00 0.  1.
        -13    1    4    4    0    0 -0.96680778960E+02 -0.75928869557E+02  0.44492892200E+02  0.13073631366E+03  0.00000000000E+00 0. -1.
         13    1    4    4    0    0 -0.14248798072E+02  0.18256964576E+02 -0.14386143212E+02  0.27263640962E+02  0.00000000000E+00 0.  1.
          4    1    1    2  501    0  0.92505153792E+02  0.11000756707E+03  0.15481143547E+03  0.21124736411E+03  0.00000000000E+00 0. -1.
<scales pt_clust_5="13000.00000" pt_clust_6="13000.00000" pt_clust_7="13000.00000" pt_clust_8="13000.00000" pt_clust_9="129.02597"></scales>
<clustering>
<clus scale="   80.446">  5  6 -1 -1</clus>
<clus scale="   91.794">  7  8 -1 -1</clus>
<clus scale="   97.724">  1  5  2 -1</clus>
<clus scale="  129.026">  2  9  1 -1</clus>
<clus scale="  129.026">  2  5  1 -1</clus>
</clustering>
</event>
<event>
 9    1  0.5981539E-005  0.1316709E+03  0.7546771E-02  0.1242222E+00
         -2   -1    0    0    0  501 -0.00000000000E+00  0.00000000000E+00  0.10441185224E+04  0.10441185224E+04  0.00000000000E+00 0.  1.
         21   -1    0    0  501  502  0.00000000000E+00 -0.00000000000E+00 -0.51061429275E+02  0.51061429275E+02  0.00000000000E+00 0.  1.
         23    2    1    2    0    0 -0.19936578326E+02 -0.24825784641E+02  0.23514802976E+03  0.25267181947E+03  0.86802452260E+02 0.  0.
        -24    2    1    2    0    0  0.33481936564E+02  0.12672559343E+03  0.71488992108E+03  0.73107342326E+03  0.78869099370E+02 0.  0.
         11    1    4    4    0    0  0.13200017876E+02  0.11171197187E+03  0.41032540672E+03  0.42546532706E+03  0.00000000000E+00 0. -1.
        -12    1    4    4    0    0  0.20281918688E+02  0.15013621560E+02  0.30456451436E+03  0.30560809620E+03  0.00000000000E+00 0.  1.
        -13    1    3    3    0    0 -0.46289378297E+02 -0.23864000291E+02  0.81089985649E+02  0.96373143695E+02  0.00000000000E+00 0.  1.
         13    1    3    3    0    0  0.26352799971E+02 -0.96178435009E+00  0.15405804411E+03  0.15629867578E+03  0.00000000000E+00 0. -1.
         -1    1    1    2    0  502 -0.13545358238E+02 -0.10189980879E+03  0.43019142339E+02  0.11143470899E+03  0.00000000000E+00 0.  1.
<scales pt_clust_5="13000.00000" pt_clust_6="13000.00000" pt_clust_7="13000.00000" pt_clust_8="13000.00000" pt_clust_9="105.43670"></scales>
<clustering>
<clus scale="   78.869">  5  6 -1 -1</clus>
<clus scale="   86.802">  7  8 -1 -1</clus>
<clus scale="   92.458">  1  7  2 -1</clus>
<clus scale="  105.437">  2  9  1 -1</clus>
<clus scale="  105.437">  2  5  1 -1</clus>
</clustering>
</event>
<event>
 9    1  0.8005816E-005  0.2717207E+03  0.7546771E-02  0.1142303E+00
          1   -1    0    0  502    0 -0.00000000000E+00  0.00000000000E+00  0.17121751332E+04  0.17121751332E+04  0.00000000000E+00 0. -1.
         21   -1    0    0  501  502  0.00000000000E+00 -0.00000000000E+00 -0.10489075366E+03  0.10489075366E+03  0.00000000000E+00 0.  1.
        -24    2    1    2    0    0  0.36657640794E+02 -0.38244669666E+02  0.15364314597E+03  0.18076649214E+03  0.79144620741E+02 0.  0.
         23    2    1    2    0    0  0.23363017878E+03  0.97409130412E+02  0.15887964576E+03  0.31230411222E+03  0.90661554956E+02 0.  0.
         13    1    3    3    0    0  0.53972312139E+01  0.24402680128E+02  0.35037076605E+02  0.43037398146E+02  0.00000000000E+00 0. -1.
        -14    1    3    3    0    0  0.31260409580E+02 -0.62647349794E+02  0.11860606936E+03  0.13772909400E+03  0.00000000000E+00 0.  1.
        -11    1    4    4    0    0  0.21794833971E+03  0.83027868487E+02  0.10773200488E+03  0.25690716339E+03  0.00000000000E+00 0.  1.
         11    1    4    4    0    0  0.15681839070E+02  0.14381261925E+02  0.51147640883E+02  0.55396948824E+02  0.00000000000E+00 0. -1.
          2    1    1    2  501    0 -0.27028781957E+03 -0.59164460746E+02  0.12947615878E+04  0.13239952825E+04  0.00000000000E+00 0. -1.
<scales pt_clust_5="13000.00000" pt_clust_6="13000.00000" pt_clust_7="13000.00000" pt_clust_8="13000.00000" pt_clust_9="256.14977"></scales>
<clustering>
<clus scale="   79.145">  5  6 -1 -1</clus>
<clus scale="   90.662">  7  8 -1 -1</clus>
<clus scale="   95.238">  1  5  2 -1</clus>
<clus scale="  256.150">  2  9  1 -1</clus>
<clus scale="  256.150">  2  5  1 -1</clus>
</clustering>
</event>
<event>
 9    1  0.5981539E-005  0.1247452E+03  0.7546771E-02  0.1238138E+00
          1   -1    0    0  502    0 -0.00000000000E+00  0.00000000000E+00  0.59616074534E+03  0.59616074534E+03  0.00000000000E+00 0. -1.
         21   -1    0    0  501  502  0.00000000000E+00 -0.00000000000E+00 -0.52325587086E+02  0.52325587086E+02  0.00000000000E+00 0.  1.
         23    2    1    2    0    0  0.77239287036E+02 -0.33323289115E+02  0.44499545607E+03  0.46176311642E+03  0.90154704241E+02 0.  0.
        -24    2    1    2    0    0 -0.74672737107E+02  0.62447302329E+02  0.92796883876E+02  0.15686838429E+03  0.80751130620E+02 0.  0.
         11    1    4    4    0    0  0.73588891248E+01  0.22617990871E+02  0.51573131760E+02  0.56793614779E+02  0.00000000000E+00 0. -1.
        -12    1    4    4    0    0 -0.82031626231E+02  0.39829311458E+02  0.41223752116E+02  0.10007476951E+03  0.00000000000E+00 0.  1.
        -13    1    3    3    0    0  0.69102412579E+02  0.16176001541E+02  0.21686255939E+03  0.22818013962E+03  0.00000000000E+00 0.  1.
         13    1    3    3    0    0  0.81368744566E+01 -0.49499290656E+02  0.22813289668E+03  0.23358297680E+03  0.00000000000E+00 0. -1.
          2    1    1    2  501    0 -0.25665499289E+01 -0.29124013215E+02  0.60428183066E+01  0.29854831725E+02  0.00000000000E+00 0. -1.
<scales pt_clust_5="13000.00000" pt_clust_6="13000.00000" pt_clust_7="13000.00000" pt_clust_8="13000.00000" pt_clust_9="29.23688"></scales>
<clustering>
<clus scale="   29.237">  2  9  1 -1</clus>
<clus scale="   80.751">  5  6 -1 -1</clus>
<clus scale="   90.155">  7  8 -1 -1</clus>
<clus scale="  118.128">  2  5  1 -1</clus>
<clus scale="   29.237">  2  5  1 -1</clus>
</clustering>
</event>
<event>
 9    1  0.5981539E-005  0.1005384E+03  0.7546771E-02  0.1284670E+00
         -2   -1    0    0    0  501 -0.00000000000E+00  0.00000000000E+00  0.75872483511E+02  0.75872483511E+02  0.00000000000E+00 0.  1.
         21   -1    0    0  501  502  0.00000000000E+00 -0.00000000000E+00 -0.18902910493E+03  0.18902910493E+03  0.00000000000E+00 0.  1.
         23    2    1    2    0    0 -0.14527442716E+02 -0.24457345655E+02 -0.32349643688E+02  0.10141725148E+03  0.91813676016E+02 0.  0.
        -24    2    1    2    0    0  0.79997493440E+01  0.53458526360E+02 -0.25165736380E+02  0.10040005205E+03  0.80777757669E+02 0.  0.
         13    1    4    4    0    0  0.43215942696E+02  0.41669510159E+02 -0.16649169395E+02  0.62298961641E+02  0.00000000000E+00 0. -1.
        -14    1    4    4    0    0 -0.35216193352E+02  0.11789016202E+02 -0.85165669849E+01  0.38101090410E+02  0.00000000000E+00 0.  1.
        -13    1    3    3    0    0  0.34307401653E+02  0.94418446977E+01 -0.48308368496E+01  0.35909375157E+02  0.00000000000E+00 0.  1.
         13    1    3    3    0    0 -0.48834844370E+02 -0.33899190352E+02 -0.27518806839E+02  0.65507876328E+02  0.00000000000E+00 0. -1.
         -1    1    1    2    0  502  0.65276933724E+01 -0.29001180706E+02 -0.55641241354E+02  0.63084284909E+02  0.00000000000E+00 0.  1.
<scales pt_clust_5="13000.00000" pt_clust_6="13000.00000" pt_clust_7="13000.00000" pt_clust_8="13000.00000" pt_clust_9="29.72674"></scales>
<clustering>
<clus scale="   29.727">  2  9  1 -1</clus>
<clus scale="   80.778">  5  6 -1 -1</clus>
<clus scale="   90.572">  2  5  1 -1</clus>
<clus scale="   91.814">  7  8 -1 -1</clus>
<clus scale="   29.727">  2  5  1 -1</clus>
</clustering>
</event>
<event>
 9    1  0.5981539E-005  0.1486615E+03  0.7546771E-02  0.1204491E+00
          3   -1    0    0  502    0 -0.00000000000E+00  0.00000000000E+00  0.82685071359E+03  0.82685071359E+03  0.00000000000E+00 0. -1.
         21   -1    0    0  501  502  0.00000000000E+00 -0.00000000000E+00 -0.36923972329E+02  0.36923972329E+02  0.00000000000E+00 0. -1.
        -24    2    1    2    0    0  0.30807306138E+02  0.11411622183E+03  0.42529603709E+03  0.44850874200E+03  0.79446650545E+02 0.  0.
         23    2    1    2    0    0  0.79505558764E+01 -0.11808432436E+03  0.22536558729E+03  0.27065373668E+03  0.91960199245E+02 0.  0.
         13    1    3    3    0    0 -0.11287643727E+01  0.10272568285E+03  0.36661006449E+03  0.38073189965E+03  0.00000000000E+00 0. -1.
        -14    1    3    3    0    0  0.31936070511E+02  0.11390538979E+02  0.58685972609E+02  0.67776842351E+02  0.00000000000E+00 0.  1.
        -11    1    4    4    0    0 -0.20995752366E+02 -0.92944211776E+02  0.20754854148E+03  0.22837654256E+03  0.00000000000E+00 0. -1.
         11    1    4    4    0    0  0.28946308242E+02 -0.25140112581E+02  0.17817045815E+02  0.42277194124E+02  0.00000000000E+00 0.  1.
          4    1    1    2  501    0 -0.38757862015E+02  0.39681025264E+01  0.13926511687E+03  0.14461220724E+03  0.00000000000E+00 0. -1.
<scales pt_clust_5="13000.00000" pt_clust_6="13000.00000" pt_clust_7="13000.00000" pt_clust_8="13000.00000" pt_clust_9="38.96048"></scales>
<clustering>
<clus scale="   38.960">  2  9  1 -1</clus>
<clus scale="   79.447">  5  6 -1 -1</clus>
<clus scale="   91.960">  7  8 -1 -1</clus>
<clus scale="  141.263">  1  5  2 -1</clus>
<clus scale="   38.960">  2  5  1 -1</clus>
</clustering>
</event>
<event>
 9    1  0.5981539E-005  0.1146069E+03  0.7546771E-02  0.1255593E+00
         -2   -1    0    0    0  501 -0.00000000000E+00  0.00000000000E+00  0.11648222966E+03  0.11648222966E+03  0.00000000000E+00 0.  1.
         21   -1    0    0  501  502  0.00000000000E+00 -0.00000000000E+00 -0.26847046203E+03  0.26847046203E+03  0.00000000000E+00 0. -1.
        -24    2    1    2    0    0 -0.52982826008E+02  0.46227392502E+02  0.58945840265E+02  0.12199530875E+03  0.80399574648E+02 0.  0.
         23    2    1    2    0    0  0.38453333265E+02 -0.67849446629E+02 -0.12268795076E+03  0.17094652809E+03  0.89934286876E+02 0.  0.
         11    1    3    3    0    0 -0.41783209521E+02  0.51757402268E+02  0.50929015715E+01  0.66712839348E+02  0.00000000000E+00 0. -1.
        -12    1    3    3    0    0 -0.11199616487E+02 -0.55300097655E+01  0.53852938694E+02  0.55282469404E+02  0.00000000000E+00 0.  1.
        -13    1    4    4    0    0  0.15894607953E+02 -0.20980293724E+02  0.10209754182E+02  0.28232080461E+02  0.00000000000E+00 0.  1.
         13    1    4    4    0    0  0.22558725312E+02 -0.46869152906E+02 -0.13289770495E+03  0.14271444763E+03  0.00000000000E+00 0. -1.
         -1    1    1    2    0  502  0.14529492743E+02  0.21622054127E+02 -0.88246121877E+02  0.92010854850E+02  0.00000000000E+00 0.  1.
<scales pt_clust_5="13000.00000" pt_clust_6="13000.00000" pt_clust_7="13000.00000" pt_clust_8="13000.00000" pt_clust_9="26.05032"></scales>
<clustering>
<clus scale="   26.050">  2  9  1 -1</clus>
<clus scale="   80.400">  5  6 -1 -1</clus>
<clus scale="   89.934">  7  8 -1 -1</clus>
<clus scale="  107.288">  1  5  2 -1</clus>
<clus scale="   26.050">  2  5  1 -1</clus>
</clustering>
</event>
<event>
 9    1  0.5981539E-005  0.1536794E+03  0.7546771E-02  0.1210573E+00
         21   -1    0    0  501  502  0.00000000000E+00  0.00000000000E+00  0.47002475014E+02  0.47002475014E+02  0.00000000000E+00 0. -1.
          1   -1    0    0  502    0 -0.00000000000E+00 -0.00000000000E+00 -0.10604754170E+04  0.10604754170E+04  0.00000000000E+00 0. -1.
         23    2    1    2    0    0  0.34294215478E+02  0.56695568162E+02 -0.10910678961E+03  0.15652927790E+03  0.90590521783E+02 0.  0.
        -24    2    1    2    0    0  0.64202010062E+02 -0.13010716394E+03 -0.43055625435E+03  0.46147278396E+03  0.80800185431E+02 0.  0.
         13    1    4    4    0    0  0.27197982958E+02 -0.11576309474E+03 -0.25324963850E+03  0.27977884799E+03  0.00000000000E+00 0. -1.
        -14    1    4    4    0    0  0.37004027103E+02 -0.14344069203E+02 -0.17730661585E+03  0.18169393597E+03  0.00000000000E+00 0.  1.
        -13    1    3    3    0    0  0.46952654620E+02  0.75837401905E+02 -0.84162191177E+02  0.12263416215E+03  0.00000000000E+00 0. -1.
         13    1    3    3    0    0 -0.12658439142E+02 -0.19141833743E+02 -0.24944598431E+02  0.33895115746E+02  0.00000000000E+00 0.  1.
          2    1    1    2  501    0 -0.98496225539E+02  0.73411595779E+02 -0.47380989799E+03  0.48947583012E+03  0.00000000000E+00 0. -1.
<scales pt_clust_5="13000.00000" pt_clust_6="13000.00000" pt_clust_7="13000.00000" pt_clust_8="13000.00000" pt_clust_9="130.72383"></scales>
<clustering>
<clus scale="   80.800">  5  6 -1 -1</clus>
<clus scale="   90.591">  7  8 -1 -1</clus>
<clus scale="  112.237">  2  7  1 -1</clus>
<clus scale="  130.724">  1  9  2 -1</clus>
<clus scale="  130.724">  1  5  2 -1</clus>
</clustering>
</event>
<event>
 9    1  0.5981539E-005  0.2318798E+03  0.7546771E-02  0.1125931E+00
          1   -1    0    0  502    0 -0.00000000000E+00  0.00000000000E+00  0.50622325971E+03  0.50622325971E+03  0.00000000000E+00 0. -1.
         21   -1    0    0  501  502  0.00000000000E+00 -0.00000000000E+00 -0.15350474506E+03  0.15350474506E+03  0.00000000000E+00 0. -1.
        -24    2    1    2    0    0  0.18302867313E+03 -0.14981302727E+03  0.27419665363E+03  0.37077127095E+03  0.79649809600E+02 0.  0.
         23    2    1    2    0    0 -0.11939250290E+03  0.12515030919E+03  0.14039597561E+02  0.19506437990E+03  0.89083288936E+02 0.  0.
         13    1    3    3    0    0  0.17460891555E+03 -0.15405905105E+03  0.27606626095E+03  0.36115792256E+03  0.00000000000E+00 0. -1.
        -14    1    3    3    0    0  0.84197575835E+01  0.42460237770E+01 -0.18696073116E+01  0.96133483854E+01  0.00000000000E+00 0.  1.
        -11    1    4    4    0    0 -0.60986129728E+02  0.11836921258E+03 -0.50284418138E+01  0.13325113032E+03  0.00000000000E+00 0. -1.
         11    1    4    4    0    0 -0.58406373168E+02  0.67810966169E+01  0.19068039374E+02  0.61813249579E+02  0.00000000000E+00 0.  1.
          2    1    1    2  501    0 -0.63636170235E+02  0.24662718078E+02  0.64482263457E+02  0.93892353926E+02  0.00000000000E+00 0. -1.
<scales pt_clust_5="13000.00000" pt_clust_6="13000.00000" pt_clust_7="13000.00000" pt_clust_8="13000.00000" pt_clust_9="68.24820"></scales>
<clustering>
<clus scale="   68.248">  2  9  1 -1</clus>
<clus scale="   79.650">  5  6 -1 -1</clus>
<clus scale="   89.083">  7  8 -1 -1</clus>
<clus scale="  228.422">  1  5  2 -1</clus>
<clus scale="   68.248">  2  5  1 -1</clus>
</clustering>
</event>
<event>
 9    1  0.5981539E-005  0.1051616E+03  0.7546771E-02  0.1274029E+00
         21   -1    0    0  501  502  0.00000000000E+00  0.00000000000E+00  0.14227176379E+03  0.14227176379E+03  0.00000000000E+00 0. -1.
          1   -1    0    0  502    0 -0.00000000000E+00 -0.00000000000E+00 -0.50345110764E+03  0.50345110764E+03  0.00000000000E+00 0. -1.
        -24    2    1    2    0    0 -0.22692414803E+02  0.30724869767E+02 -0.28103123904E+03  0.29493252608E+03  0.80917700845E+02 0.  0.
         23    2    1    2    0    0  0.77057020858E+02 -0.73046584661E+02 -0.18104900240E+03  0.22861166849E+03  0.90614379133E+02 0.  0.
         11    1    3    3    0    0  0.19669003764E+01  0.53828758993E+02 -0.20025992059E+03  0.20737752961E+03  0.00000000000E+00 0. -1.
        -12    1    3    3    0    0 -0.24659315179E+02 -0.23103889226E+02 -0.80771318452E+02  0.87554996471E+02  0.00000000000E+00 0.  1.
        -11    1    4    4    0    0  0.19420117227E+02 -0.19552601401E+02  0.37174469385E+01  0.27807635397E+02  0.00000000000E+00 0.  1.
         11    1    4    4    0    0  0.57636903632E+02 -0.53493983260E+02 -0.18476644934E+03  0.20080403309E+03  0.00000000000E+00 0. -1.
          2    1    1    2  501    0 -0.54364606055E+02  0.42321714894E+02  0.10090089760E+03  0.12217867686E+03  0.00000000000E+00 0. -1.
<scales pt_clust_5="13000.00000" pt_clust_6="13000.00000" pt_clust_7="13000.00000" pt_clust_8="13000.00000" pt_clust_9="68.89585"></scales>
<clustering>
<clus scale="   68.896">  1  9  2 -1</clus>
<clus scale="   80.918">  5  6 -1 -1</clus>
<clus scale="   90.614">  7  8 -1 -1</clus>
<clus scale="   96.931">  2  5  1 -1</clus>
<clus scale="   68.896">  1  5  2 -1</clus>
</clustering>
</event>
<event>
 9    1  0.5981539E-005  0.1194002E+03  0.7546771E-02  0.1247975E+00
         -2   -1    0    0    0  501 -0.00000000000E+00  0.00000000000E+00  0.59926922624E+03  0.59926922624E+03  0.00000000000E+00 0.  1.
         21   -1    0    0  501  502  0.00000000000E+00 -0.00000000000E+00 -0.97220332139E+02  0.97220332139E+02  0.00000000000E+00 0. -1.
         23    2    1    2    0    0  0.78120990863E+01 -0.84581371769E+02  0.32259105886E+03  0.34577867781E+03  0.91010249036E+02 0.  0.
        -24    2    1    2    0    0 -0.84394431314E+01  0.22649042799E+02 -0.60877988095E+02  0.10252281697E+03  0.78870750128E+02 0.  0.
         13    1    4    4    0    0 -0.23408968507E+02 -0.19445734819E+02 -0.46530001239E+02  0.55598178249E+02  0.00000000000E+00 0. -1.
        -14    1    4    4    0    0  0.14969525376E+02  0.42094777618E+02 -0.14347986855E+02  0.46924638725E+02  0.00000000000E+00 0.  1.
        -11    1    3    3    0    0  0.47012928924E+02 -0.26187342044E+02  0.12721808131E+03  0.13813193903E+03  0.00000000000E+00 0.  1.
         11    1    3    3    0    0 -0.39200829838E+02 -0.58394029725E+02  0.19537297755E+03  0.20764673878E+03  0.00000000000E+00 0. -1.
         -1    1    1    2    0  502  0.62734404513E+00  0.61932328970E+02  0.24033582334E+03  0.24818806360E+03  0.00000000000E+00 0.  1.
<scales pt_clust_5="13000.00000" pt_clust_6="13000.00000" pt_clust_7="13000.00000" pt_clust_8="13000.00000" pt_clust_9="61.93554"></scales>
<clustering>
<clus scale="   61.936">  2  9  1 -1</clus>
<clus scale="   78.871">  5  6 -1 -1</clus>
<clus scale="   91.010">  7  8 -1 -1</clus>
<clus scale="  110.427">  2  5  1 -1</clus>
<clus scale="   61.936">  2  5  1 -1</clus>
</clustering>
</event>
<event>
 9    1  0.5981539E-005  0.9165441E+02  0.7546771E-02  0.1306930E+00
         21   -1    0    0  501  502  0.00000000000E+00  0.00000000000E+00  0.12751832726E+03  0.12751832726E+03  0.00000000000E+00 0. -1.
          1   -1    0    0  502    0 -0.00000000000E+00 -0.00000000000E+00 -0.24879081921E+03  0.24879081921E+03  0.00000000000E+00 0. -1.
         23    2    1    2    0    0  0.92792295781E+01  0.62672303259E+01 -0.19171892167E+03  0.21262199476E+03  0.91250125768E+02 0.  0.
        -24    2    1    2    0    0  0.23976336283E+02 -0.10462601973E+01  0.92266113600E+02  0.12357119734E+03  0.78618354929E+02 0.  0.
         11    1    4    4    0    0  0.27034350871E+02  0.34466526886E+02  0.34785547722E+02  0.55935962787E+02  0.00000000000E+00 0. -1.
        -12    1    4    4    0    0 -0.30580145875E+01 -0.35512787084E+02  0.57480565877E+02  0.67635234555E+02  0.00000000000E+00 0.  1.
        -11    1    3    3    0    0  0.20835745076E+02  0.43241216326E+02 -0.14002957532E+03  0.14802774411E+03  0.00000000000E+00 0.  1.
         11    1    3    3    0    0 -0.11556515498E+02 -0.36973986000E+02 -0.51689346356E+02  0.64594250657E+02  0.00000000000E+00 0. -1.
          2    1    1    2  501    0 -0.33255565861E+02 -0.52209701286E+01 -0.21819683877E+02  0.40115954362E+02  0.00000000000E+00 0. -1.
<scales pt_clust_5="13000.00000" pt_clust_6="13000.00000" pt_clust_7="13000.00000" pt_clust_8="13000.00000" pt_clust_9="33.66292"></scales>
<clustering>
<clus scale="   33.663">  1  9  2 -1</clus>
<clus scale="   78.618">  5  6 -1 -1</clus>
<clus scale="   79.087">  1  5  2 -1</clus>
<clus scale="   91.250">  7  8 -1 -1</clus>
<clus scale="   33.663">  1  5  2 -1</clus>
</clustering>
</event>
<event>
 9    1  0.5981539E-005  0.1446775E+03  0.7546771E-02  0.1208927E+00
          1   -1    0    0  502    0 -0.00000000000E+00  0.00000000000E+00  0.89911893444E+02  0.89911893444E+02  0.00000000000E+00 0. -1.
         21   -1    0    0  501  502  0.00000000000E+00 -0.00000000000E+00 -0.30707834462E+03  0.30707834462E+03  0.00000000000E+00 0.  1.
        -24    2    1    2    0    0  0.76181926322E+02 -0.92142566579E+02 -0.36264017681E+02  0.14900898382E+03  0.81207510777E+02 0.  0.
         23    2    1    2    0    0 -0.44711426435E+02  0.92425189217E+02 -0.15916496560E+03  0.20973220525E+03  0.90069886126E+02 0.  0.
         13    1    3    3    0    0  0.53904096630E+02 -0.77076108419E+02  0.10931677615E+02  0.94688329259E+02  0.00000000000E+00 0. -1.
        -14    1    3    3    0    0  0.22277829693E+02 -0.15066458160E+02 -0.47195695297E+02  0.54320654560E+02  0.00000000000E+00 0.  1.
        -11    1    4    4    0    0  0.24536333792E+02  0.21352567308E+02 -0.66193679892E+02  0.73753420695E+02  0.00000000000E+00 0.  1.
         11    1    4    4    0    0 -0.69247760227E+02  0.71072621909E+02 -0.92971285712E+02  0.13597878455E+03  0.00000000000E+00 0. -1.
          2    1    1    2  501    0 -0.31470499887E+02 -0.28262263808E+00 -0.21737467886E+02  0.38249048993E+02  0.00000000000E+00 0. -1.
<scales pt_clust_5="13000.00000" pt_clust_6="13000.00000" pt_clust_7="13000.00000" pt_clust_8="13000.00000" pt_clust_9="31.47177"></scales>
<clustering>
<clus scale="   31.472">  2  9  1 -1</clus>
<clus scale="   81.208">  5  6 -1 -1</clus>
<clus scale="   90.070">  7  8 -1 -1</clus>
<clus scale="  139.333">  1  5  2 -1</clus>
<clus scale="   31.472">  2  5  1 -1</clus>
</clustering>
</event>
<event>
 9    1  0.5981539E-005  0.1085129E+03  0.7546771E-02  0.1267666E+00
         21   -1    0    0  501  502  0.00000000000E+00  0.00000000000E+00  0.88977265825E+02  0.88977265825E+02  0.00000000000E+00 0. -1.
          1   -1    0    0  502    0 -0.00000000000E+00 -0.00000000000E+00 -0.16370260893E+03  0.16370260893E+03  0.00000000000E+00 0. -1.
         23    2    1    2    0    0 -0.24819745065E+02  0.44285279695E+02 -0.29552468367E+02  0.10823338808E+03  0.90906062315E+02 0.  0.
        -24    2    1    2    0    0  0.23638485101E+02 -0.65545162872E+02 -0.14733671634E+02  0.10729917058E+03  0.80256367804E+02 0.  0.
         11    1    4    4    0    0 -0.16854251263E+02 -0.18946234644E+02  0.23592288499E+02  0.34635554990E+02  0.00000000000E+00 0. -1.
        -12    1    4    4    0    0  0.40492736365E+02 -0.46598928227E+02 -0.38325960133E+02  0.72663615588E+02  0.00000000000E+00 0.  1.
        -11    1    3    3    0    0  0.31146656799E+02  0.70484920314E+01  0.55265045372E+01  0.32408914238E+02  0.00000000000E+00 0. -1.
         11    1    3    3    0    0 -0.55966401865E+02  0.37236787664E+02 -0.35078972904E+02  0.75824473840E+02  0.00000000000E+00 0.  1.
          2    1    1    2  501    0  0.11812599638E+01  0.21259883177E+02 -0.30439203107E+02  0.37147316102E+02  0.00000000000E+00 0. -1.
<scales pt_clust_5="13000.00000" pt_clust_6="13000.00000" pt_clust_7="13000.00000" pt_clust_8="13000.00000" pt_clust_9="21.29269"></scales>
<clustering>
<clus scale="   21.293">  1  9  2 -1</clus>
<clus scale="   80.256">  5  6 -1 -1</clus>
<clus scale="   90.906">  7  8 -1 -1</clus>
<clus scale="   99.761">  1  5  2 -1</clus>
<clus scale="   21.293">  1  5  2 -1</clus>
</clustering>
</event>
<event>
 9    1  0.5981539E-005  0.1033989E+03  0.7546771E-02  0.1278766E+00
         21   -1    0    0  501  502  0.00000000000E+00  0.00000000000E+00  0.23524903603E+03  0.23524903603E+03  0.00000000000E+00 0. -1.
         -4   -1    0    0    0  501 -0.00000000000E+00 -0.00000000000E+00 -0.25750232906E+03  0.25750232906E+03  0.00000000000E+00 0.  1.
        -24    2    1    2    0    0  0.38998124375E+02 -0.31626735376E+02 -0.22483339532E+03  0.24330827334E+03  0.78279985492E+02 0.  0.
         23    2    1    2    0    0 -0.55593926801E+02  0.16622249507E+02  0.10794025656E+03  0.15219466937E+03  0.90250399017E+02 0.  0.
         13    1    3    3    0    0  0.35860677909E+02  0.17143809512E+02 -0.65191186316E+02  0.76353056245E+02  0.00000000000E+00 0. -1.
        -14    1    3    3    0    0  0.31374464655E+01 -0.48770544888E+02 -0.15964220900E+03  0.16695521709E+03  0.00000000000E+00 0.  1.
        -11    1    4    4    0    0 -0.49064067780E+02  0.46014963695E+02  0.40952524150E+02  0.78751310245E+02  0.00000000000E+00 0.  1.
         11    1    4    4    0    0 -0.65298590204E+01 -0.29392714188E+02  0.66987732412E+02  0.73443359127E+02  0.00000000000E+00 0. -1.
         -3    1    1    2    0  502  0.16595802426E+02  0.15004485869E+02  0.94639845735E+02  0.97248422379E+02  0.00000000000E+00 0.  1.
<scales pt_clust_5="13000.00000" pt_clust_6="13000.00000" pt_clust_7="13000.00000" pt_clust_8="13000.00000" pt_clust_9="22.37309"></scales>
<clustering>
<clus scale="   22.373">  1  9  2 -1</clus>
<clus scale="   78.280">  5  6 -1 -1</clus>
<clus scale="   90.250">  7  8 -1 -1</clus>
<clus scale="   93.134">  2  5  1 -1</clus>
<clus scale="   22.373">  1  5  2 -1</clus>
</clustering>
</event>
<event>
 9    1  0.5981539E-005  0.1519949E+03  0.7546771E-02  0.1200055E+00
         21   -1    0    0  501  502  0.00000000000E+00  0.00000000000E+00  0.26136999435E+03  0.26136999435E+03  0.00000000000E+00 0.  1.
          1   -1    0    0  502    0 -0.00000000000E+00 -0.00000000000E+00 -0.28227122560E+03  0.28227122560E+03  0.00000000000E+00 0. -1.
        -24    2    1    2    0    0 -0.14906315820E+02 -0.11943051882E+03 -0.20220971341E+03  0.24885085684E+03  0.80945251095E+02 0.  0.
         23    2    1    2    0    0 -0.23028790489E+02  0.12923255423E+03  0.19572710163E+03  0.25304052747E+03  0.92135942863E+02 0.  0.
         11    1    3    3    0    0 -0.27677732283E+02 -0.31711813215E+02 -0.12289512493E+03  0.12990345528E+03  0.00000000000E+00 0. -1.
        -12    1    3    3    0    0  0.12771416463E+02 -0.87718705610E+02 -0.79314588476E+02  0.11894740156E+03  0.00000000000E+00 0.  1.
        -11    1    4    4    0    0 -0.34690043602E+02  0.81964182762E+02  0.18177562340E+03  0.20239541408E+03  0.00000000000E+00 0.  1.
         11    1    4    4    0    0  0.11661253112E+02  0.47268371465E+02  0.13951478232E+02  0.50645113387E+02  0.00000000000E+00 0. -1.
          2    1    1    2  501    0  0.37935106309E+02 -0.98020354023E+01 -0.14418619473E+02  0.41749835643E+02  0.00000000000E+00 0. -1.
<scales pt_clust_5="13000.00000" pt_clust_6="13000.00000" pt_clust_7="13000.00000" pt_clust_8="13000.00000" pt_clust_9="39.18104"></scales>
<clustering>
<clus scale="   39.181">  1  9  2 -1</clus>
<clus scale="   80.945">  5  6 -1 -1</clus>
<clus scale="   92.136">  7  8 -1 -1</clus>
<clus scale="  145.484">  2  5  1 -1</clus>
<clus scale="   39.181">  1  5  2 -1</clus>
</clustering>
</event>
<event>
 9    1  0.5981539E-005  0.1115444E+03  0.7546771E-02  0.1262015E+00
          1   -1    0    0  502    0 -0.00000000000E+00  0.00000000000E+00  0.14536463967E+03  0.14536463967E+03  0.00000000000E+00 0. -1.
         21   -1    0    0  501  502  0.00000000000E+00 -0.00000000000E+00 -0.46954171845E+03  0.46954171845E+03  0.00000000000E+00 0. -1.
        -24    2    1    2    0    0 -0.36530999122E+02 -0.64011685418E+02  0.10087526716E+03  0.14848958005E+03  0.80257872456E+02 0.  0.
         23    2    1    2    0    0  0.23882090106E+02 -0.45206646153E+01 -0.11655285637E+03  0.15014377422E+03  0.91475646882E+02 0.  0.
         13    1    3    3    0    0 -0.47036369862E+02 -0.60298476921E+02  0.11007994227E+03  0.13403701019E+03  0.00000000000E+00 0. -1.
        -14    1    3    3    0    0  0.10505370740E+02 -0.37132084972E+01 -0.92046751113E+01  0.14452569862E+02  0.00000000000E+00 0.  1.
        -13    1    4    4    0    0  0.39648399330E+02  0.23037743164E+02 -0.10789456702E+03  0.11723468246E+03  0.00000000000E+00 0.  1.
         13    1    4    4    0    0 -0.15766309223E+02 -0.27558407780E+02 -0.86582893507E+01  0.32909091758E+02  0.00000000000E+00 0. -1.
          2    1    1    2  501    0  0.12648909016E+02  0.68532350033E+02 -0.30849948958E+03  0.31627300386E+03  0.00000000000E+00 0. -1.
<scales pt_clust_5="13000.00000" pt_clust_6="13000.00000" pt_clust_7="13000.00000" pt_clust_8="13000.00000" pt_clust_9="69.68987"></scales>
<clustering>
<clus scale="   69.690">  2  9  1 -1</clus>
<clus scale="   80.258">  5  6 -1 -1</clus>
<clus scale="   91.476">  7  8 -1 -1</clus>
<clus scale="  102.546">  1  5  2 -1</clus>
<clus scale="   69.690">  2  5  1 -1</clus>
</clustering>
</event>
<event>
 9    1  0.5981539E-005  0.1811805E+03  0.7546771E-02  0.1167996E+00
         21   -1    0    0  501  502  0.00000000000E+00  0.00000000000E+00  0.45117919876E+02  0.45117919876E+02  0.00000000000E+00 0. -1.
          1   -1    0    0  502    0 -0.00000000000E+00 -0.00000000000E+00 -0.15865364657E+04  0.15865364657E+04  0.00000000000E+00 0. -1.
        -24    2    1    2    0    0 -0.17224790141E+03  0.12058964865E+03 -0.10331915903E+04  0.10574900869E+04  0.81174002801E+02 0.  0.
         23    2    1    2    0    0  0.98228619461E+02 -0.24743563728E+02 -0.34236966345E+03  0.36880128488E+03  0.92392075681E+02 0.  0.
         13    1    3    3    0    0 -0.12100940379E+03  0.11945780051E+03 -0.69860198258E+03  0.71899803336E+03  0.00000000000E+00 0. -1.
        -14    1    3    3    0    0 -0.51238497625E+02  0.11318481389E+01 -0.33458960775E+03  0.33849205358E+03  0.00000000000E+00 0.  1.
        -11    1    4    4    0    0  0.45220815068E+02  0.34937431148E+02 -0.15099783353E+03  0.16144934791E+03  0.00000000000E+00 0. -1.
         11    1    4    4    0    0  0.53007804392E+02 -0.59680994875E+02 -0.19137182992E+03  0.20735193697E+03  0.00000000000E+00 0.  1.
          2    1    1    2  501    0  0.74019281954E+02 -0.95846084926E+02 -0.16585729202E+03  0.20536301374E+03  0.00000000000E+00 0. -1.
<scales pt_clust_5="13000.00000" pt_clust_6="13000.00000" pt_clust_7="13000.00000" pt_clust_8="13000.00000" pt_clust_9="121.10048"></scales>
<clustering>
<clus scale="   81.174">  5  6 -1 -1</clus>
<clus scale="   92.392">  7  8 -1 -1</clus>
<clus scale="  121.100">  1  9  2 -1</clus>
<clus scale="  175.725">  2  5  1 -1</clus>
<clus scale="  121.100">  1  5  2 -1</clus>
</clustering>
</event>
<event>
 9    1  0.5981539E-005  0.3921458E+03  0.7546771E-02  0.1086553E+00
         21   -1    0    0  501  502  0.00000000000E+00  0.00000000000E+00  0.10861334861E+04  0.10861334861E+04  0.00000000000E+00 0. -1.
          1   -1    0    0  502    0 -0.00000000000E+00 -0.00000000000E+00 -0.22296927866E+03  0.22296927866E+03  0.00000000000E+00 0. -1.
         23    2    1    2    0    0  0.46028010337E+02 -0.78792547631E+02  0.59402912964E+01  0.12984207604E+03  0.92178274832E+02 0.  0.
        -24    2    1    2    0    0 -0.15185688121E+03  0.41395041109E+03  0.38672192011E+03  0.59197653976E+03  0.80417192964E+02 0.  0.
         11    1    4    4    0    0 -0.14065852725E+03  0.31316226453E+03  0.26586994282E+03  0.43421452268E+03  0.00000000000E+00 0. -1.
        -12    1    4    4    0    0 -0.11198353961E+02  0.10078814656E+03  0.12085197729E+03  0.15776201708E+03  0.00000000000E+00 0.  1.
        -13    1    3    3    0    0  0.44938169591E+02 -0.32746318409E+02  0.43349565604E+02  0.70504930988E+02  0.00000000000E+00 0. -1.
         13    1    3    3    0    0  0.10898407464E+01 -0.46046229221E+02 -0.37409274307E+02  0.59337145049E+02  0.00000000000E+00 0.  1.
          2    1    1    2  501    0  0.10582887088E+03 -0.33515786346E+03  0.47050199603E+03  0.58728414896E+03  0.00000000000E+00 0. -1.
<scales pt_clust_5="13000.00000" pt_clust_6="13000.00000" pt_clust_7="13000.00000" pt_clust_8="13000.00000" pt_clust_9="383.81164"></scales>
<clustering>
<clus scale="   80.417">  5  6 -1 -1</clus>
<clus scale="   92.178">  7  8 -1 -1</clus>
<clus scale="  129.706">  2  7  1 -1</clus>
<clus scale="  383.812">  1  9  2 -1</clus>
<clus scale="  383.812">  1  5  2 -1</clus>
</clustering>
</event>
<event>
 9    1  0.5981539E-005  0.2343177E+03  0.7546771E-02  0.1142603E+00
          3   -1    0    0  502    0 -0.00000000000E+00  0.00000000000E+00  0.60502876343E+02  0.60502876343E+02  0.00000000000E+00 0. -1.
         21   -1    0    0  501  502  0.00000000000E+00 -0.00000000000E+00 -0.15793814373E+04  0.15793814373E+04  0.00000000000E+00 0. -1.
        -24    2    1    2    0    0 -0.49360612747E+02 -0.11505375292E+03 -0.39327676823E+03  0.42000894626E+03  0.77891349727E+02 0.  0.
         23    2    1    2    0    0 -0.24476886566E+01  0.28018097298E+03 -0.76735519112E+03  0.82201643954E+03  0.91485893594E+02 0.  0.
         13    1    3    3    0    0  0.12242097488E+02 -0.55211897769E+02 -0.10564988336E+03  0.11983372005E+03  0.00000000000E+00 0. -1.
        -14    1    3    3    0    0 -0.61602710235E+02 -0.59841855151E+02 -0.28762688486E+03  0.30017522621E+03  0.00000000000E+00 0.  1.
        -13    1    4    4    0    0  0.34476180649E+02  0.13939348435E+03 -0.46096197295E+03  0.48280958050E+03  0.00000000000E+00 0.  1.
         13    1    4    4    0    0 -0.36923869306E+02  0.14078748863E+03 -0.30639321817E+03  0.33920685904E+03  0.00000000000E+00 0. -1.
          4    1    1    2  501    0  0.51808301403E+02 -0.16512722006E+03 -0.35824660160E+03  0.39785892783E+03  0.00000000000E+00 0. -1.
<scales pt_clust_5="13000.00000" pt_clust_6="13000.00000" pt_clust_7="13000.00000" pt_clust_8="13000.00000" pt_clust_9="215.71995"></scales>
<clustering>
<clus scale="   77.891">  5  6 -1 -1</clus>
<clus scale="   91.486">  7  8 -1 -1</clus>
<clus scale="  147.448">  1  5  2 -1</clus>
<clus scale="  215.720">  2  9  1 -1</clus>
<clus scale="  215.720">  2  5  1 -1</clus>
</clustering>
</event>
<event>
 9    1  0.5981539E-005  0.1731661E+03  0.7546771E-02  0.1202340E+00
         21   -1    0    0  501  502  0.00000000000E+00  0.00000000000E+00  0.95825485865E+02  0.95825485865E+02  0.00000000000E+00 0.  1.
          1   -1    0    0  502    0 -0.00000000000E+00 -0.00000000000E+00 -0.56448957147E+03  0.56448957147E+03  0.00000000000E+00 0. -1.
         23    2    1    2    0    0  0.12460053272E+01  0.22386382205E+02 -0.33430437691E+02  0.99418604080E+02  0.90905236568E+02 0.  0.
        -24    2    1    2    0    0 -0.78710314931E+02 -0.14955161213E+03 -0.32902389180E+03  0.37799695283E+03  0.77871539122E+02 0.  0.
         11    1    4    4    0    0 -0.60427954800E+02 -0.14218707417E+03 -0.23027314463E+03  0.27729843656E+03  0.00000000000E+00 0. -1.
        -12    1    4    4    0    0 -0.18282360131E+02 -0.73645379584E+01 -0.98750747176E+02  0.10069851627E+03  0.00000000000E+00 0.  1.
        -11    1    3    3    0    0  0.18034627259E+02  0.40424355750E+02  0.13614018538E+02  0.46311098227E+02  0.00000000000E+00 0.  1.
         11    1    3    3    0    0 -0.16788621932E+02 -0.18037973545E+02 -0.47044456230E+02  0.53107505853E+02  0.00000000000E+00 0. -1.
          2    1    1    2  501    0  0.77464309604E+02  0.12716522992E+03 -0.10620975611E+03  0.18289950043E+03  0.00000000000E+00 0. -1.
<scales pt_clust_5="13000.00000" pt_clust_6="13000.00000" pt_clust_7="13000.00000" pt_clust_8="13000.00000" pt_clust_9="154.66912"></scales>
<clustering>
<clus scale="   77.872">  5  6 -1 -1</clus>
<clus scale="   90.905">  7  8 -1 -1</clus>
<clus scale="   93.629">  2  7  1 -1</clus>
<clus scale="  154.669">  1  9  2 -1</clus>
<clus scale="  154.669">  1  5  2 -1</clus>
</clustering>
</event>
<event>
 9    1  0.5981539E-005  0.1099125E+03  0.7546771E-02  0.1265070E+00
          1   -1    0    0  502    0 -0.00000000000E+00  0.00000000000E+00  0.38160232071E+03  0.38160232071E+03  0.00000000000E+00 0. -1.
         21   -1    0    0  501  502  0.00000000000E+00 -0.00000000000E+00 -0.88961913175E+02  0.88961913175E+02  0.00000000000E+00 0. -1.
         23    2    1    2    0    0  0.66624678972E+02 -0.31221648152E+02  0.29725558147E+03  0.31969819585E+03  0.91828190409E+02 0.  0.
        -24    2    1    2    0    0 -0.27148291235E+02 -0.67507700020E+01  0.24210402652E+02  0.88969320874E+02  0.80912260180E+02 0.  0.
         13    1    4    4    0    0 -0.46394247367E+02 -0.23224502631E+02  0.33755735893E+02  0.61897119617E+02  0.00000000000E+00 0. -1.
        -14    1    4    4    0    0  0.19245956132E+02  0.16473732629E+02 -0.95453332404E+01  0.27072201256E+02  0.00000000000E+00 0.  1.
        -13    1    3    3    0    0 -0.22176132656E+02 -0.51936634882E+01  0.36645278639E+02  0.43146627291E+02  0.00000000000E+00 0.  1.
         13    1    3    3    0    0  0.88800811629E+02 -0.26027984664E+02  0.26061030283E+03  0.27655156856E+03  0.00000000000E+00 0. -1.
          2    1    1    2  501    0 -0.39476387738E+02  0.37972418154E+02 -0.28825576589E+02  0.61896717158E+02  0.00000000000E+00 0. -1.
<scales pt_clust_5="13000.00000" pt_clust_6="13000.00000" pt_clust_7="13000.00000" pt_clust_8="13000.00000" pt_clust_9="54.77490"></scales>
<clustering>
<clus scale="   54.775">  2  9  1 -1</clus>
<clus scale="   80.912">  5  6 -1 -1</clus>
<clus scale="   91.828">  7  8 -1 -1</clus>
<clus scale="  100.971">  2  5  1 -1</clus>
<clus scale="   54.775">  2  5  1 -1</clus>
</clustering>
</event>
<event>
 9    1  0.5981539E-005  0.1098920E+03  0.7546771E-02  0.1264540E+00
          1   -1    0    0  502    0 -0.00000000000E+00  0.00000000000E+00  0.24468402534E+03  0.24468402534E+03  0.00000000000E+00 0. -1.
         21   -1    0    0  501  502  0.00000000000E+00 -0.00000000000E+00 -0.15662755925E+03  0.15662755925E+03  0.00000000000E+00 0. -1.
        -24    2    1    2    0    0 -0.56894972664E+02 -0.23615669645E+02  0.13746524611E+03  0.17029573626E+03  0.79430511342E+02 0.  0.
         23    2    1    2    0    0  0.70964334390E+02  0.84006259314E+01  0.53363922229E+02  0.12617466929E+03  0.89251508128E+02 0.  0.
         13    1    3    3    0    0 -0.68092450766E+02 -0.40977309130E+02  0.10273500596E+03  0.12988534622E+03  0.00000000000E+00 0. -1.
        -14    1    3    3    0    0  0.11197478102E+02  0.17361639485E+02  0.34730240157E+02  0.40410390035E+02  0.00000000000E+00 0.  1.
        -11    1    4    4    0    0  0.74480822488E+02  0.35880295354E+02  0.24637225652E+02  0.86265760305E+02  0.00000000000E+00 0.  1.
         11    1    4    4    0    0 -0.35164880976E+01 -0.27479669423E+02  0.28726696577E+02  0.39908908985E+02  0.00000000000E+00 0. -1.
          2    1    1    2  501    0 -0.14069361726E+02  0.15215043714E+02 -0.10277270225E+03  0.10484117904E+03  0.00000000000E+00 0. -1.
<scales pt_clust_5="13000.00000" pt_clust_6="13000.00000" pt_clust_7="13000.00000" pt_clust_8="13000.00000" pt_clust_9="20.72304"></scales>
<clustering>
<clus scale="   20.723">  2  9  1 -1</clus>
<clus scale="   79.431">  5  6 -1 -1</clus>
<clus scale="   89.252">  7  8 -1 -1</clus>
<clus scale="  102.077">  1  5  2 -1</clus>
<clus scale="   20.723">  2  5  1 -1</clus>
</clustering>
</event>
<event>
 9    1  0.5981539E-005  0.1343909E+03  0.7546771E-02  0.1223780E+00
          1   -1    0    0  502    0 -0.00000000000E+00  0.00000000000E+00  0.98551112283E+03  0.98551112283E+03  0.00000000000E+00 0. -1.
         21   -1    0    0  501  502  0.00000000000E+00 -0.00000000000E+00 -0.40282861665E+02  0.40282861665E+02  0.00000000000E+00 0. -1.
        -24    2    1    2    0    0 -0.91376334702E+02  0.69907713054E+02  0.33094177911E+03  0.35948790939E+03  0.80451059334E+02 0.  0.
         23    2    1    2    0    0  0.79310107781E+01 -0.93139449737E+02  0.17491616484E+03  0.21847897530E+03  0.91649003791E+02 0.  0.
         13    1    3    3    0    0 -0.10318152804E+03  0.45730042862E+02  0.25297105563E+03  0.27700545037E+03  0.00000000000E+00 0. -1.
        -14    1    3    3    0    0  0.11805193336E+02  0.24177670192E+02  0.77970723485E+02  0.82482459022E+02  0.00000000000E+00 0.  1.
        -13    1    4    4    0    0 -0.19658345063E+02 -0.10038564131E+03  0.14009657813E+03  0.17346693839E+03  0.00000000000E+00 0.  1.
         13    1    4    4    0    0  0.27589355841E+02  0.72461915681E+01  0.34819586711E+02  0.45012036909E+02  0.00000000000E+00 0. -1.
          2    1    1    2  501    0  0.83445323924E+02  0.23231736683E+02  0.43937031721E+03  0.44782709980E+03  0.00000000000E+00 0. -1.
<scales pt_clust_5="13000.00000" pt_clust_6="13000.00000" pt_clust_7="13000.00000" pt_clust_8="13000.00000" pt_clust_9="86.61895"></scales>
<clustering>
<clus scale="   80.451">  5  6 -1 -1</clus>
<clus scale="   86.619">  2  9  1 -1</clus>
<clus scale="   91.649">  7  8 -1 -1</clus>
<clus scale="  127.019">  1  5  2 -1</clus>
<clus scale="   86.619">  2  5  1 -1</clus>
</clustering>
</event>
<event>
 9    1  0.5981539E-005  0.1049791E+03  0.7546771E-02  0.1275041E+00
         21   -1    0    0  501  502  0.00000000000E+00  0.00000000000E+00  0.67847202312E+02  0.67847202312E+02  0.00000000000E+00 0. -1.
          1   -1    0    0  502    0 -0.00000000000E+00 -0.00000000000E+00 -0.33862853900E+03  0.33862853900E+03  0.00000000000E+00 0. -1.
        -24    2    1    2    0    0  0.12285422384E+02 -0.65418855296E+02 -0.22382756499E+03  0.24709864302E+03  0.80798529079E+02 0.  0.
         23    2    1    2    0    0 -0.18421675520E+01  0.59988898571E+01 -0.29465938034E+02  0.96562942325E+02  0.91743010989E+02 0.  0.
         11    1    3    3    0    0  0.14997194467E+02 -0.56775250089E+02 -0.22917521096E+03  0.23657899776E+03  0.00000000000E+00 0. -1.
        -12    1    3    3    0    0 -0.27117720833E+01 -0.86436052069E+01  0.53476459723E+01  0.10519645253E+02  0.00000000000E+00 0.  1.
        -13    1    4    4    0    0  0.75312685978E+01  0.33416841979E+02 -0.50312881742E+02  0.60866997656E+02  0.00000000000E+00 0.  1.
         13    1    4    4    0    0 -0.93734361498E+01 -0.27417952122E+02  0.20846943707E+02  0.35695944668E+02  0.00000000000E+00 0. -1.
          2    1    1    2  501    0 -0.10443254832E+02  0.59419965439E+02 -0.17487833670E+02  0.62814155974E+02  0.00000000000E+00 0. -1.
<scales pt_clust_5="13000.00000" pt_clust_6="13000.00000" pt_clust_7="13000.00000" pt_clust_8="13000.00000" pt_clust_9="60.33070"></scales>
<clustering>
<clus scale="   60.331">  1  9  2 -1</clus>
<clus scale="   80.799">  5  6 -1 -1</clus>
<clus scale="   91.743">  7  8 -1 -1</clus>
<clus scale="   95.563">  2  5  1 -1</clus>
<clus scale="   60.331">  1  5  2 -1</clus>
</clustering>
</event>
<event>
 9    1  0.5981539E-005  0.9210572E+02  0.7546771E-02  0.1303538E+00
         21   -1    0    0  501  502  0.00000000000E+00  0.00000000000E+00  0.97501198137E+03  0.97501198137E+03  0.00000000000E+00 0. -1.
          1   -1    0    0  502    0 -0.00000000000E+00 -0.00000000000E+00 -0.31108518623E+02  0.31108518623E+02  0.00000000000E+00 0. -1.
         23    2    1    2    0    0  0.14640615176E+01 -0.50251839004E+01  0.98072299784E+02  0.13373805060E+03  0.90776066477E+02 0.  0.
        -24    2    1    2    0    0 -0.25211547224E+02  0.74466753677E+02  0.70034619539E+03  0.70943475692E+03  0.81436855381E+02 0.  0.
         11    1    4    4    0    0 -0.40250699570E+02  0.74004453856E+02  0.40313451544E+03  0.41184246448E+03  0.00000000000E+00 0. -1.
        -12    1    4    4    0    0  0.15039152346E+02  0.46229982137E+00  0.29721167995E+03  0.29759229245E+03  0.00000000000E+00 0.  1.
        -13    1    3    3    0    0 -0.62170089129E+01 -0.43808020826E+02  0.77323058187E+02  0.89087873563E+02  0.00000000000E+00 0.  1.
         13    1    3    3    0    0  0.76810704305E+01  0.38782836926E+02  0.20749241597E+02  0.44650177041E+02  0.00000000000E+00 0. -1.
          2    1    1    2  501    0  0.23747485707E+02 -0.69441569777E+02  0.14548496757E+03  0.16294769246E+03  0.00000000000E+00 0. -1.
<scales pt_clust_5="13000.00000" pt_clust_6="13000.00000" pt_clust_7="13000.00000" pt_clust_8="13000.00000" pt_clust_9="73.38992"></scales>
<clustering>
<clus scale="   73.390">  1  9  2 -1</clus>
<clus scale="   81.437">  5  6 -1 -1</clus>
<clus scale="   82.916">  1  5  2 -1</clus>
<clus scale="   90.776">  7  8 -1 -1</clus>
<clus scale="   73.390">  1  5  2 -1</clus>
</clustering>
</event>
<event>
 9    1  0.5981539E-005  0.9475884E+02  0.7546771E-02  0.1300981E+00
         21   -1    0    0  501  502  0.00000000000E+00  0.00000000000E+00  0.31545197546E+03  0.31545197546E+03  0.00000000000E+00 0.  1.
          1   -1    0    0  502    0 -0.00000000000E+00 -0.00000000000E+00 -0.59238410146E+02  0.59238410146E+02  0.00000000000E+00 0. -1.
         23    2    1    2    0    0 -0.16405800208E+02 -0.17279512795E+02  0.33070597884E+02  0.10030646952E+03  0.91651467748E+02 0.  0.
        -24    2    1    2    0    0  0.37890936836E+02 -0.90858491709E+01  0.22462277409E+03  0.24034080760E+03  0.76092295321E+02 0.  0.
         13    1    4    4    0    0 -0.62158537894E+01 -0.33398658204E+02  0.71765072050E+02  0.79399828554E+02  0.00000000000E+00 0. -1.
        -14    1    4    4    0    0  0.44106790625E+02  0.24312809033E+02  0.15285770204E+03  0.16094097905E+03  0.00000000000E+00 0.  1.
        -13    1    3    3    0    0  0.44646000452E+01 -0.52152975267E+02  0.27964621230E+02  0.59345476014E+02  0.00000000000E+00 0.  1.
         13    1    3    3    0    0 -0.20870400253E+02  0.34873462471E+02  0.51059766537E+01  0.40960993507E+02  0.00000000000E+00 0. -1.
          2    1    1    2  501    0 -0.21485136628E+02  0.26365361966E+02 -0.14798066641E+01  0.34043108485E+02  0.00000000000E+00 0. -1.
<scales pt_clust_5="13000.00000" pt_clust_6="13000.00000" pt_clust_7="13000.00000" pt_clust_8="13000.00000" pt_clust_9="34.01095"></scales>
<clustering>
<clus scale="   34.011">  1  9  2 -1</clus>
<clus scale="   76.092">  5  6 -1 -1</clus>
<clus scale="   79.808">  1  5  2 -1</clus>
<clus scale="   91.651">  7  8 -1 -1</clus>
<clus scale="   34.011">  1  5  2 -1</clus>
</clustering>
</event>
<event>
 9    1  0.5981539E-005  0.1079872E+03  0.7546771E-02  0.1266763E+00
          1   -1    0    0  502    0 -0.00000000000E+00  0.00000000000E+00  0.76077859288E+03  0.76077859288E+03  0.00000000000E+00 0. -1.
         21   -1    0    0  501  502  0.00000000000E+00 -0.00000000000E+00 -0.29949017424E+02  0.29949017424E+02  0.00000000000E+00 0. -1.
         23    2    1    2    0    0  0.56793450013E+02  0.11674633166E+02  0.44784548845E+03  0.46097724038E+03  0.92588560833E+02 0.  0.
        -24    2    1    2    0    0 -0.29957032198E+02 -0.61555286439E+02  0.21070801042E+03  0.23792388062E+03  0.86737709487E+02 0.  0.
         13    1    4    4    0    0 -0.37157731806E+02 -0.38510004488E+02  0.20661843817E+03  0.21343593059E+03  0.00000000000E+00 0. -1.
        -14    1    4    4    0    0  0.72006996082E+01 -0.23045281951E+02  0.40895722500E+01  0.24487950021E+02  0.00000000000E+00 0.  1.
        -13    1    3    3    0    0 -0.14960924287E+02 -0.20884103469E+02  0.61008410762E+02  0.66196685845E+02  0.00000000000E+00 0.  1.
         13    1    3    3    0    0  0.71754374300E+02  0.32558736635E+02  0.38683707769E+03  0.39478055453E+03  0.00000000000E+00 0. -1.
          2    1    1    2  501    0 -0.26836417815E+02  0.49880653273E+02  0.72276076594E+02  0.91826489314E+02  0.00000000000E+00 0. -1.
<scales pt_clust_5="13000.00000" pt_clust_6="13000.00000" pt_clust_7="13000.00000" pt_clust_8="13000.00000" pt_clust_9="56.64162"></scales>
<clustering>
<clus scale="   56.642">  2  9  1 -1</clus>
<clus scale="   86.738">  5  6 -1 -1</clus>
<clus scale="   92.589">  7  8 -1 -1</clus>
<clus scale="  103.015">  2  5  1 -1</clus>
<clus scale="   56.642">  2  5  1 -1</clus>
</clustering>
</event>
<event>
 9    1  0.5981539E-005  0.9473839E+02  0.7546771E-02  0.1297918E+00
         -2   -1    0    0    0  501 -0.00000000000E+00  0.00000000000E+00  0.14882712752E+03  0.14882712752E+03  0.00000000000E+00 0.  1.
         21   -1    0    0  501  502  0.00000000000E+00 -0.00000000000E+00 -0.17148647825E+03  0.17148647825E+03  0.00000000000E+00 0.  1.
         23    2    1    2    0    0  0.64003610227E+01  0.46528414001E+02  0.77644490003E+02  0.12820096016E+03  0.90559159815E+02 0.  0.
        -24    2    1    2    0    0  0.20242221987E+02  0.25958964963E+02 -0.47061398885E+02  0.98309634186E+02  0.79789682892E+02 0.  0.
         11    1    4    4    0    0  0.10906038655E+02 -0.26053436851E+02 -0.10850990805E+01  0.28264831344E+02  0.00000000000E+00 0. -1.
        -12    1    4    4    0    0  0.93361833320E+01  0.52012401814E+02 -0.45976299804E+02  0.70044802843E+02  0.00000000000E+00 0.  1.
        -11    1    3    3    0    0 -0.22172763684E+02 -0.15256163141E+02  0.28457465848E+01  0.27064372093E+02  0.00000000000E+00 0.  1.
         11    1    3    3    0    0  0.28573124707E+02  0.61784577141E+02  0.74798743418E+02  0.10113658806E+03  0.00000000000E+00 0. -1.
         -1    1    1    2    0  502 -0.26642583009E+02 -0.72487378964E+02 -0.53242441850E+02  0.93803011426E+02  0.00000000000E+00 0.  1.
<scales pt_clust_5="13000.00000" pt_clust_6="13000.00000" pt_clust_7="13000.00000" pt_clust_8="13000.00000" pt_clust_9="77.22854"></scales>
<clustering>
<clus scale="   77.229">  2  9  1 -1</clus>
<clus scale="   79.790">  5  6 -1 -1</clus>
<clus scale="   84.503">  2  5  1 -1</clus>
<clus scale="   90.559">  7  8 -1 -1</clus>
<clus scale="   77.229">  2  5  1 -1</clus>
</clustering>
</event>
<event>
 9    1  0.5981539E-005  0.3930605E+03  0.7546771E-02  0.1066147E+00
         21   -1    0    0  501  502  0.00000000000E+00  0.00000000000E+00  0.22051401949E+03  0.22051401949E+03  0.00000000000E+00 0. -1.
          1   -1    0    0  502    0 -0.00000000000E+00 -0.00000000000E+00 -0.12331997747E+04  0.12331997747E+04  0.00000000000E+00 0. -1.
         23    2    1    2    0    0  0.17091760707E+03  0.10993375541E+03 -0.12677595992E+03  0.25742488928E+03  0.94324814452E+02 0.  0.
        -24    2    1    2    0    0  0.24401484351E+02  0.31133796053E+03 -0.48671095911E+03  0.58393352039E+03  0.81018765778E+02 0.  0.
         11    1    4    4    0    0  0.44768902612E+02  0.12035363689E+03 -0.22867458489E+03  0.26226192695E+03  0.00000000000E+00 0. -1.
        -12    1    4    4    0    0 -0.20367418261E+02  0.19098432364E+03 -0.25803637422E+03  0.32167159344E+03  0.00000000000E+00 0.  1.
        -11    1    3    3    0    0  0.59080084617E+02  0.91911904316E+02 -0.47388168582E+02  0.11909615055E+03  0.00000000000E+00 0. -1.
         11    1    3    3    0    0  0.11183752246E+03  0.18021851092E+02 -0.79387791343E+02  0.13832873874E+03  0.00000000000E+00 0.  1.
          2    1    1    2  501    0 -0.19531909143E+03 -0.42127171594E+03 -0.39919883613E+03  0.61235538447E+03  0.00000000000E+00 0. -1.
<scales pt_clust_5="13000.00000" pt_clust_6="13000.00000" pt_clust_7="13000.00000" pt_clust_8="13000.00000" pt_clust_9="384.61994"></scales>
<clustering>
<clus scale="   81.019">  5  6 -1 -1</clus>
<clus scale="   94.325">  7  8 -1 -1</clus>
<clus scale="  224.043">  2  7  1 -1</clus>
<clus scale="  384.620">  1  9  2 -1</clus>
<clus scale="  384.620">  1  5  2 -1</clus>
</clustering>
</event>
<event>
 9    1  0.5981539E-005  0.1508889E+03  0.7546771E-02  0.1228326E+00
         21   -1    0    0  501  502  0.00000000000E+00  0.00000000000E+00  0.11504924878E+04  0.11504924878E+04  0.00000000000E+00 0.  1.
          1   -1    0    0  502    0 -0.00000000000E+00 -0.00000000000E+00 -0.41792994701E+02  0.41792994701E+02  0.00000000000E+00 0. -1.
        -24    2    1    2    0    0 -0.18857261454E+02 -0.14523583782E+02  0.54673594237E+02  0.98266939277E+02  0.78106713237E+02 0.  0.
         23    2    1    2    0    0 -0.95770072314E+02  0.60470226360E+02  0.34528962759E+03  0.37460376591E+03  0.90964275851E+02 0.  0.
         13    1    3    3    0    0 -0.26478089070E+02  0.16090293652E+02 -0.44024045899E+01  0.31294854477E+02  0.00000000000E+00 0. -1.
        -14    1    3    3    0    0  0.76208276158E+01 -0.30613877433E+02  0.59075998827E+02  0.66972084800E+02  0.00000000000E+00 0.  1.
        -13    1    4    4    0    0 -0.19026137077E+02  0.65233974210E+02  0.14775632740E+03  0.16263270757E+03  0.00000000000E+00 0.  1.
         13    1    4    4    0    0 -0.76743935237E+02 -0.47637478500E+01  0.19753330019E+03  0.21197105834E+03  0.00000000000E+00 0. -1.
          2    1    1    2  501    0  0.11462733377E+03 -0.45946642579E+02  0.70873627129E+03  0.71941477734E+03  0.00000000000E+00 0. -1.
<scales pt_clust_5="13000.00000" pt_clust_6="13000.00000" pt_clust_7="13000.00000" pt_clust_8="13000.00000" pt_clust_9="120.38666"></scales>
<clustering>
<clus scale="   78.107">  5  6 -1 -1</clus>
<clus scale="   81.653">  2  5  1 -1</clus>
<clus scale="   90.964">  7  8 -1 -1</clus>
<clus scale="  120.387">  1  9  2 -1</clus>
<clus scale="  120.387">  1  5  2 -1</clus>
</clustering>
</event>
<event>
 9    1  0.5981539E-005  0.1064163E+03  0.7546771E-02  0.1269208E+00
          1   -1    0    0  502    0 -0.00000000000E+00  0.00000000000E+00  0.40103203778E+02  0.40103203778E+02  0.00000000000E+00 0. -1.
         21   -1    0    0  501  502  0.00000000000E+00 -0.00000000000E+00 -0.88234605114E+03  0.88234605114E+03  0.00000000000E+00 0. -1.
         23    2    1    2    0    0 -0.33096337959E+02 -0.57304064272E+02 -0.10920798955E+03  0.15718579288E+03  0.91661688465E+02 0.  0.
        -24    2    1    2    0    0  0.56598738597E+02 -0.48462513972E+02 -0.41622027990E+03  0.43043453754E+03  0.80514205155E+02 0.  0.
         13    1    4    4    0    0  0.32735278312E+02 -0.69997686028E+02 -0.30761544295E+03  0.31717272146E+03  0.00000000000E+00 0. -1.
        -14    1    4    4    0    0  0.23863460286E+02  0.21535172056E+02 -0.10860483695E+03  0.11326181608E+03  0.00000000000E+00 0.  1.
        -13    1    3    3    0    0 -0.86707746226E+01 -0.57866931064E+02 -0.15762109739E+02  0.60598747072E+02  0.00000000000E+00 0. -1.
         13    1    3    3    0    0 -0.24425563336E+02  0.56286679235E+00 -0.93445879815E+02  0.96587045807E+02  0.00000000000E+00 0.  1.
          2    1    1    2  501    0 -0.23502400639E+02  0.10576657824E+03 -0.31681457791E+03  0.33482892450E+03  0.00000000000E+00 0. -1.
<scales pt_clust_5="13000.00000" pt_clust_6="13000.00000" pt_clust_7="13000.00000" pt_clust_8="13000.00000" pt_clust_9="108.34635"></scales>
<clustering>
<clus scale="   80.514">  5  6 -1 -1</clus>
<clus scale="   91.662">  7  8 -1 -1</clus>
<clus scale="  108.346">  2  9  1 -1</clus>
<clus scale="  108.346">  2  5  1 -1</clus>
<clus scale="  106.416">  2  5  1 -1</clus>
</clustering>
</event>
<event>
 9    1  0.5981539E-005  0.1536432E+03  0.7546771E-02  0.1218144E+00
         21   -1    0    0  501  502  0.00000000000E+00  0.00000000000E+00  0.44241734239E+03  0.44241734239E+03  0.00000000000E+00 0. -1.
          1   -1    0    0  502    0 -0.00000000000E+00 -0.00000000000E+00 -0.20254280918E+03  0.20254280918E+03  0.00000000000E+00 0. -1.
         23    2    1    2    0    0  0.90897949692E+01  0.22577712047E+02 -0.10332037755E+03  0.14080728820E+03  0.92516023149E+02 0.  0.
        -24    2    1    2    0    0  0.12775078160E+03 -0.26779782591E+02  0.33357590921E+03  0.36691028257E+03  0.79453441061E+02 0.  0.
         13    1    4    4    0    0  0.81233649964E+02 -0.43033700254E+02  0.14246877772E+03  0.16955281735E+03  0.00000000000E+00 0. -1.
        -14    1    4    4    0    0  0.46517131634E+02  0.16253917664E+02  0.19110713149E+03  0.19735746523E+03  0.00000000000E+00 0.  1.
        -13    1    3    3    0    0 -0.38864917632E+02  0.46717924500E+01 -0.22529700389E+02  0.45165195304E+02  0.00000000000E+00 0. -1.
         13    1    3    3    0    0  0.47954712601E+02  0.17905919597E+02 -0.80790677159E+02  0.95642092894E+02  0.00000000000E+00 0.  1.
          2    1    1    2  501    0 -0.13684057657E+03  0.42020705437E+01  0.96190015409E+01  0.13724258079E+03  0.00000000000E+00 0. -1.
<scales pt_clust_5="13000.00000" pt_clust_6="13000.00000" pt_clust_7="13000.00000" pt_clust_8="13000.00000" pt_clust_9="131.50433"></scales>
<clustering>
<clus scale="   79.453">  5  6 -1 -1</clus>
<clus scale="   92.516">  7  8 -1 -1</clus>
<clus scale="   95.664">  2  7  1 -1</clus>
<clus scale="  131.504">  1  9  2 -1</clus>
<clus scale="  131.504">  1  5  2 -1</clus>
</clustering>
</event>
<event>
 9    1  0.5981539E-005  0.1717556E+03  0.7546771E-02  0.1176083E+00
         21   -1    0    0  501  502  0.00000000000E+00  0.00000000000E+00  0.52744125737E+03  0.52744125737E+03  0.00000000000E+00 0. -1.
          1   -1    0    0  502    0 -0.00000000000E+00 -0.00000000000E+00 -0.73308504769E+02  0.73308504769E+02  0.00000000000E+00 0. -1.
        -24    2    1    2    0    0  0.13206595932E+03 -0.44935306620E+02  0.16267402750E+03  0.23218352862E+03  0.89363036787E+02 0.  0.
         23    2    1    2    0    0 -0.13436798023E+03  0.85073545827E+02  0.25893195841E+03  0.31685194054E+03  0.89761521984E+02 0.  0.
         13    1    3    3    0    0  0.35905256161E+02 -0.18169106371E+01 -0.27354021021E+01  0.36055110719E+02  0.00000000000E+00 0. -1.
        -14    1    3    3    0    0  0.96160703162E+02 -0.43118395982E+02  0.16540942961E+03  0.19612841790E+03  0.00000000000E+00 0.  1.
        -13    1    4    4    0    0  0.92334891614E+01  0.25552330942E+02  0.38779054338E+02  0.47349698986E+02  0.00000000000E+00 0.  1.
         13    1    4    4    0    0 -0.14360146940E+03  0.59521214885E+02  0.22015290407E+03  0.26950224156E+03  0.00000000000E+00 0. -1.
          2    1    1    2  501    0  0.23020209113E+01 -0.40138239208E+02  0.32526766688E+02  0.51714292978E+02  0.00000000000E+00 0. -1.
<scales pt_clust_5="13000.00000" pt_clust_6="13000.00000" pt_clust_7="13000.00000" pt_clust_8="13000.00000" pt_clust_9="40.20422"></scales>
<clustering>
<clus scale="   40.204">  1  9  2 -1</clus>
<clus scale="   89.363">  5  6 -1 -1</clus>
<clus scale="   89.762">  7  8 -1 -1</clus>
<clus scale="  171.548">  2  5  1 -1</clus>
<clus scale="   40.204">  1  5  2 -1</clus>
</clustering>
</event>
<event>
 9    1  0.5981539E-005  0.1213324E+03  0.7546771E-02  0.1243254E+00
          1   -1    0    0  502    0 -0.00000000000E+00  0.00000000000E+00  0.39099438678E+03  0.39099438678E+03  0.00000000000E+00 0. -1.
         21   -1    0    0  501  502  0.00000000000E+00 -0.00000000000E+00 -0.10856950770E+03  0.10856950770E+03  0.00000000000E+00 0.  1.
         23    2    1    2    0    0 -0.84562030020E+02 -0.38510924665E+02  0.29509367883E+03  0.32166373574E+03  0.88053684557E+02 0.  0.
        -24    2    1    2    0    0  0.15711188838E+02  0.38686473079E+02 -0.46000855181E+02  0.10140509310E+03  0.80146301072E+02 0.  0.
         11    1    4    4    0    0  0.40594888015E+02 -0.26053273897E+00 -0.75669781068E+01  0.41294938769E+02  0.00000000000E+00 0. -1.
        -12    1    4    4    0    0 -0.24883699177E+02  0.38947005818E+02 -0.38433877074E+02  0.60110154332E+02  0.00000000000E+00 0.  1.
        -11    1    3    3    0    0 -0.16182470727E+02  0.27098111839E+02  0.98284574753E+02  0.10322808561E+03  0.00000000000E+00 0.  1.
         11    1    3    3    0    0 -0.68379559293E+02 -0.65609036503E+02  0.19680910408E+03  0.21843565013E+03  0.00000000000E+00 0. -1.
          2    1    1    2  501    0  0.68850841182E+02 -0.17554841397E+00  0.33332055432E+02  0.76495065645E+02  0.00000000000E+00 0. -1.
<scales pt_clust_5="13000.00000" pt_clust_6="13000.00000" pt_clust_7="13000.00000" pt_clust_8="13000.00000" pt_clust_9="68.85106"></scales>
<clustering>
<clus scale="   68.851">  2  9  1 -1</clus>
<clus scale="   80.146">  5  6 -1 -1</clus>
<clus scale="   88.054">  7  8 -1 -1</clus>
<clus scale="  115.722">  2  5  1 -1</clus>
<clus scale="   68.851">  2  5  1 -1</clus>
</clustering>
</event>
<event>
 9    1  0.5981539E-005  0.1045364E+03  0.7546771E-02  0.1276577E+00
         21   -1    0    0  501  502  0.00000000000E+00  0.00000000000E+00  0.21814587805E+02  0.21814587805E+02  0.00000000000E+00 0. -1.
          1   -1    0    0  502    0 -0.00000000000E+00 -0.00000000000E+00 -0.85374782306E+03  0.85374782306E+03  0.00000000000E+00 0. -1.
         23    2    1    2    0    0  0.10891234892E+02  0.63062400187E+02 -0.42526526045E+03  0.43957459870E+03  0.90993410561E+02 0.  0.
        -24    2    1    2    0    0  0.28230343304E+02 -0.31333094638E+02 -0.15090838955E+03  0.17531519726E+03  0.78634351587E+02 0.  0.
         11    1    4    4    0    0  0.54698917985E+02 -0.25382480115E+02 -0.11920127492E+03  0.13358587451E+03  0.00000000000E+00 0. -1.
        -12    1    4    4    0    0 -0.26468574681E+02 -0.59506145233E+01 -0.31707114633E+02  0.41729322750E+02  0.00000000000E+00 0.  1.
        -11    1    3    3    0    0 -0.40335130739E+02  0.29627798903E+02 -0.18673786280E+03  0.19332811136E+03  0.00000000000E+00 0. -1.
         11    1    3    3    0    0  0.51226365631E+02  0.33434601284E+02 -0.23852739765E+03  0.24624648734E+03  0.00000000000E+00 0.  1.
          2    1    1    2  501    0 -0.39121578196E+02 -0.31729305549E+02 -0.25575958525E+03  0.26067261490E+03  0.00000000000E+00 0. -1.
<scales pt_clust_5="13000.00000" pt_clust_6="13000.00000" pt_clust_7="13000.00000" pt_clust_8="13000.00000" pt_clust_9="50.37112"></scales>
<clustering>
<clus scale="   50.371">  1  9  2 -1</clus>
<clus scale="   78.634">  5  6 -1 -1</clus>
<clus scale="   90.993">  7  8 -1 -1</clus>
<clus scale="   93.976">  1  5  2 -1</clus>
<clus scale="   50.371">  1  5  2 -1</clus>
</clustering>
</event>
<event>
 9    1  0.5981539E-005  0.8899736E+02  0.7546771E-02  0.1329709E+00
         -2   -1    0    0    0  501 -0.00000000000E+00  0.00000000000E+00  0.40299752325E+03  0.40299752325E+03  0.00000000000E+00 0.  1.
         21   -1    0    0  501  502  0.00000000000E+00 -0.00000000000E+00 -0.33040746394E+02  0.33040746394E+02  0.00000000000E+00 0.  1.
        -24    2    1    2    0    0 -0.10561122407E+02 -0.23850601301E+02  0.99260875383E+02  0.11597668550E+03  0.54013717782E+02 0.  0.
         23    2    1    2    0    0 -0.22227805232E+02  0.73101525370E+01  0.64608541521E+02  0.11072764004E+03  0.86826453209E+02 0.  0.
         11    1    3    3    0    0 -0.22708805661E+02  0.92621475280E+01  0.45262811127E+02  0.51480086465E+02  0.00000000000E+00 0. -1.
        -12    1    3    3    0    0  0.12147683254E+02 -0.33112748829E+02  0.53998064256E+02  0.64496599033E+02  0.00000000000E+00 0.  1.
        -13    1    4    4    0    0  0.33594812627E+02  0.52599074387E+01  0.22500156766E+02  0.40774196696E+02  0.00000000000E+00 0. -1.
         13    1    4    4    0    0 -0.55822617859E+02  0.20502450984E+01  0.42108384756E+02  0.69953443349E+02  0.00000000000E+00 0.  1.
         -1    1    1    2    0  502  0.32788927638E+02  0.16540448764E+02  0.20608735995E+03  0.20933394410E+03  0.00000000000E+00 0.  1.
<scales pt_clust_5="13000.00000" pt_clust_6="13000.00000" pt_clust_7="13000.00000" pt_clust_8="13000.00000" pt_clust_9="36.72467"></scales>
<clustering>
<clus scale="   36.725">  2  9  1 -1</clus>
<clus scale="   54.014">  5  6 -1 -1</clus>
<clus scale="   57.438">  1  5  2 -1</clus>
<clus scale="   86.826">  7  8 -1 -1</clus>
<clus scale="   36.725">  2  5  1 -1</clus>
</clustering>
</event>
<event>
 9    1  0.5981539E-005  0.1308173E+03  0.7546771E-02  0.1242114E+00
         21   -1    0    0  501  502  0.00000000000E+00  0.00000000000E+00  0.55830505589E+03  0.55830505589E+03  0.00000000000E+00 0.  1.
          3   -1    0    0  502    0 -0.00000000000E+00 -0.00000000000E+00 -0.84919472761E+02  0.84919472761E+02  0.00000000000E+00 0. -1.
         23    2    1    2    0    0  0.11558440546E+02 -0.36312421232E+02  0.81052904758E+02  0.15064860486E+03  0.12113314697E+03 0.  0.
        -24    2    1    2    0    0 -0.10245488339E+03  0.40350730093E+02  0.37619590902E+03  0.40016993597E+03  0.80544590998E+02 0.  0.
         11    1    4    4    0    0 -0.55652561852E+02 -0.17680091723E+02  0.12178536957E+03  0.13506098447E+03  0.00000000000E+00 0. -1.
        -12    1    4    4    0    0 -0.46802321537E+02  0.58030821816E+02  0.25441053945E+03  0.26510895150E+03  0.00000000000E+00 0.  1.
        -11    1    3    3    0    0 -0.38857646058E+02  0.25959533700E+02  0.33198542556E+02  0.57323269925E+02  0.00000000000E+00 0.  1.
         11    1    3    3    0    0  0.50416086604E+02 -0.62271954932E+02  0.47854362202E+02  0.93325334938E+02  0.00000000000E+00 0. -1.
          4    1    1    2  501    0  0.90896442844E+02 -0.40383088615E+01  0.16136769351E+02  0.92405987821E+02  0.00000000000E+00 0. -1.
<scales pt_clust_5="13000.00000" pt_clust_6="13000.00000" pt_clust_7="13000.00000" pt_clust_8="13000.00000" pt_clust_9="90.98615"></scales>
<clustering>
<clus scale="   80.545">  5  6 -1 -1</clus>
<clus scale="   90.986">  1  9  2 -1</clus>
<clus scale="   94.485">  1  5  2 -1</clus>
<clus scale="  121.133">  7  8 -1 -1</clus>
<clus scale="   90.986">  1  5  2 -1</clus>
</clustering>
</event>
<event>
 9    1  0.5981539E-005  0.1639531E+03  0.7546771E-02  0.1207718E+00
         21   -1    0    0  501  502  0.00000000000E+00  0.00000000000E+00  0.39309651495E+03  0.39309651495E+03  0.00000000000E+00 0. -1.
          1   -1    0    0  502    0 -0.00000000000E+00 -0.00000000000E+00 -0.22413834914E+03  0.22413834914E+03  0.00000000000E+00 0. -1.
         23    2    1    2    0    0  0.17800555549E+01  0.39171270537E+02 -0.56568277210E+02  0.11337268278E+03  0.90087946921E+02 0.  0.
        -24    2    1    2    0    0  0.13511686951E+03 -0.46255279096E+02 -0.66443900294E+02  0.18131352972E+03  0.89798022831E+02 0.  0.
         13    1    4    4    0    0  0.48253635726E+02 -0.53393734756E+02 -0.60388798035E+02  0.93947385276E+02  0.00000000000E+00 0. -1.
        -14    1    4    4    0    0  0.86863233782E+02  0.71384556600E+01 -0.60551022593E+01  0.87366144448E+02  0.00000000000E+00 0.  1.
        -13    1    3    3    0    0 -0.23086017581E+02 -0.15282668545E+02 -0.44339727488E+02  0.52273660665E+02  0.00000000000E+00 0.  1.
         13    1    3    3    0    0  0.24866073136E+02  0.54453939083E+02 -0.12228549723E+02  0.61099022113E+02  0.00000000000E+00 0. -1.
          2    1    1    2  501    0 -0.13689692506E+03  0.70840085587E+01  0.29197034331E+03  0.32254865159E+03  0.00000000000E+00 0. -1.
<scales pt_clust_5="13000.00000" pt_clust_6="13000.00000" pt_clust_7="13000.00000" pt_clust_8="13000.00000" pt_clust_9="137.17484"></scales>
<clustering>
<clus scale="   89.798">  5  6 -1 -1</clus>
<clus scale="   90.088">  7  8 -1 -1</clus>
<clus scale="   98.252">  2  7  1 -1</clus>
<clus scale="  137.175">  1  9  2 -1</clus>
<clus scale="  137.175">  1  5  2 -1</clus>
</clustering>
</event>
<event>
 9    1  0.5981539E-005  0.1138570E+03  0.7546771E-02  0.1257288E+00
         -4   -1    0    0    0  501 -0.00000000000E+00  0.00000000000E+00  0.10743912378E+04  0.10743912378E+04  0.00000000000E+00 0.  1.
         21   -1    0    0  501  502  0.00000000000E+00 -0.00000000000E+00 -0.46448062225E+02  0.46448062225E+02  0.00000000000E+00 0. -1.
        -24    2    1    2    0    0  0.66514560763E+02 -0.37908781637E+01  0.87352596264E+03  0.87969671011E+03  0.79875758653E+02 0.  0.
         23    2    1    2    0    0 -0.88034122517E+02  0.31779891257E+02  0.15916041398E+03  0.20551992369E+03  0.90257594924E+02 0.  0.
         11    1    3    3    0    0  0.35863663946E+02  0.13071301727E+02  0.13365039555E+03  0.13899456662E+03  0.00000000000E+00 0. -1.
        -12    1    3    3    0    0  0.30650896817E+02 -0.16862179890E+02  0.73987556709E+03  0.74070214348E+03  0.00000000000E+00 0.  1.
        -11    1    4    4    0    0 -0.10268616275E+03  0.12923753881E+02  0.14363106136E+03  0.17703489267E+03  0.00000000000E+00 0. -1.
         11    1    4    4    0    0  0.14652040232E+02  0.18856137376E+02  0.15529352615E+02  0.28485031022E+02  0.00000000000E+00 0.  1.
         -3    1    1    2    0  502  0.21519561753E+02 -0.27989013093E+02 -0.47432010522E+01  0.35622666214E+02  0.00000000000E+00 0.  1.
<scales pt_clust_5="13000.00000" pt_clust_6="13000.00000" pt_clust_7="13000.00000" pt_clust_8="13000.00000" pt_clust_9="35.30547"></scales>
<clustering>
<clus scale="   35.305">  2  9  1 -1</clus>
<clus scale="   79.876">  5  6 -1 -1</clus>
<clus scale="   90.258">  7  8 -1 -1</clus>
<clus scale="  105.816">  1  5  2 -1</clus>
<clus scale="   35.305">  2  5  1 -1</clus>
</clustering>
</event>
<event>
 9    1  0.5981539E-005  0.1608132E+03  0.7546771E-02  0.1215857E+00
         -4   -1    0    0    0  501 -0.00000000000E+00  0.00000000000E+00  0.68719542018E+03  0.68719542018E+03  0.00000000000E+00 0.  1.
         21   -1    0    0  501  502  0.00000000000E+00 -0.00000000000E+00 -0.11704153473E+03  0.11704153473E+03  0.00000000000E+00 0.  1.
        -24    2    1    2    0    0  0.18019839954E+02  0.20914946590E+02  0.24491031342E+03  0.26009066205E+03  0.83089958737E+02 0.  0.
         23    2    1    2    0    0 -0.11635902203E+03  0.65353836217E+02 -0.31214990164E+02  0.16444166532E+03  0.90863302633E+02 0.  0.
         13    1    3    3    0    0  0.44994474159E+02  0.17904710261E+02  0.84435735385E+02  0.97336913678E+02  0.00000000000E+00 0. -1.
        -14    1    3    3    0    0 -0.26974634205E+02  0.30102363290E+01  0.16047457804E+03  0.16275374838E+03  0.00000000000E+00 0.  1.
        -13    1    4    4    0    0 -0.32631946218E+02  0.68756823578E+02 -0.26217414181E+02  0.80496568304E+02  0.00000000000E+00 0.  1.
         13    1    4    4    0    0 -0.83727075810E+02 -0.34029873602E+01 -0.49975759833E+01  0.83945097012E+02  0.00000000000E+00 0. -1.
         -3    1    1    2    0  502  0.98339182074E+02 -0.86268782807E+02  0.35645856219E+03  0.37970462754E+03  0.00000000000E+00 0.  1.
<scales pt_clust_5="13000.00000" pt_clust_6="13000.00000" pt_clust_7="13000.00000" pt_clust_8="13000.00000" pt_clust_9="132.68293"></scales>
<clustering>
<clus scale="   83.090">  5  6 -1 -1</clus>
<clus scale="   87.556">  1  5  2 -1</clus>
<clus scale="   90.863">  7  8 -1 -1</clus>
<clus scale="  132.683">  2  9  1 -1</clus>
<clus scale="  132.683">  2  5  1 -1</clus>
</clustering>
</event>
<event>
 9    1  0.5981539E-005  0.1663720E+03  0.7546771E-02  0.1183499E+00
         21   -1    0    0  501  502  0.00000000000E+00  0.00000000000E+00  0.13213351675E+03  0.13213351675E+03  0.00000000000E+00 0.  1.
         -4   -1    0    0    0  501 -0.00000000000E+00 -0.00000000000E+00 -0.47903182327E+03  0.47903182327E+03  0.00000000000E+00 0.  1.
        -24    2    1    2    0    0 -0.13891255084E+03  0.39519223215E+02 -0.38087611829E+03  0.41533348866E+03  0.81097617306E+02 0.  0.
         23    2    1    2    0    0  0.10638583953E+03 -0.54122389555E+00  0.31085071986E+02  0.14498266923E+03  0.93463644813E+02 0.  0.
         13    1    3    3    0    0 -0.44242569066E+02  0.22205411985E+02 -0.48489508412E+02  0.69294427374E+02  0.00000000000E+00 0. -1.
        -14    1    3    3    0    0 -0.94669981774E+02  0.17313811230E+02 -0.33238660988E+03  0.34603906128E+03  0.00000000000E+00 0.  1.
        -13    1    4    4    0    0  0.83218840505E+02  0.41559864534E+02  0.14475693293E+02  0.94138958203E+02  0.00000000000E+00 0. -1.
         13    1    4    4    0    0  0.23166999024E+02 -0.42101088430E+02  0.16609378693E+02  0.50843711030E+02  0.00000000000E+00 0.  1.
         -3    1    1    2    0  502  0.32526711311E+02 -0.38977999319E+02  0.28927397779E+01  0.50849182128E+02  0.00000000000E+00 0.  1.
<scales pt_clust_5="13000.00000" pt_clust_6="13000.00000" pt_clust_7="13000.00000" pt_clust_8="13000.00000" pt_clust_9="50.76683"></scales>
<clustering>
<clus scale="   50.767">  1  9  2 -1</clus>
<clus scale="   81.098">  5  6 -1 -1</clus>
<clus scale="   93.464">  7  8 -1 -1</clus>
<clus scale="  159.753">  2  5  1 -1</clus>
<clus scale="   50.767">  1  5  2 -1</clus>
</clustering>
</event>
<event>
 9    1  0.5981539E-005  0.1520319E+03  0.7546771E-02  0.1215677E+00
          1   -1    0    0  502    0 -0.00000000000E+00  0.00000000000E+00  0.32685448495E+03  0.32685448495E+03  0.00000000000E+00 0. -1.
         21   -1    0    0  501  502  0.00000000000E+00 -0.00000000000E+00 -0.12394053444E+03  0.12394053444E+03  0.00000000000E+00 0.  1.
         23    2    1    2    0    0 -0.34560510110E+02 -0.34871582622E+02  0.12087084433E+02  0.10471506238E+03  0.91698912458E+02 0.  0.
        -24    2    1    2    0    0  0.94839123642E+02  0.12759107937E+03  0.11766295297E+03  0.21347763989E+03  0.80337969375E+02 0.  0.
         13    1    4    4    0    0  0.16788236498E+01  0.63249690638E+02  0.28646414795E+02  0.69454725507E+02  0.00000000000E+00 0. -1.
        -14    1    4    4    0    0  0.93160299992E+02  0.64341388731E+02  0.89016538179E+02  0.14402291438E+03  0.00000000000E+00 0.  1.
        -11    1    3    3    0    0 -0.64006870571E+02 -0.10171862476E+02  0.14090033102E+01  0.64825392840E+02  0.00000000000E+00 0.  1.
         11    1    3    3    0    0  0.29446360461E+02 -0.24699720146E+02  0.10678081123E+02  0.39889669542E+02  0.00000000000E+00 0. -1.
          2    1    1    2  501    0 -0.60278613531E+02 -0.92719496746E+02  0.73163913103E+02  0.13260231712E+03  0.00000000000E+00 0. -1.
<scales pt_clust_5="13000.00000" pt_clust_6="13000.00000" pt_clust_7="13000.00000" pt_clust_8="13000.00000" pt_clust_9="129.07174"></scales>
<clustering>
<clus scale="   80.338">  5  6 -1 -1</clus>
<clus scale="   91.699">  7  8 -1 -1</clus>
<clus scale="  104.015">  1  7  2 -1</clus>
<clus scale="  129.072">  2  9  1 -1</clus>
<clus scale="  129.072">  2  5  1 -1</clus>
</clustering>
</event>
<event>
 9    1  0.5981539E-005  0.1012459E+03  0.7546771E-02  0.1282387E+00
          1   -1    0    0  502    0 -0.00000000000E+00  0.00000000000E+00  0.22504552323E+03  0.22504552323E+03  0.00000000000E+00 0. -1.
         21   -1    0    0  501  502  0.00000000000E+00 -0.00000000000E+00 -0.87492533891E+02  0.87492533891E+02  0.00000000000E+00 0. -1.
         23    2    1    2    0    0 -0.29004095479E+02  0.22359285788E+02  0.10902349625E+03  0.14492344989E+03  0.88178843133E+02 0.  0.
        -24    2    1    2    0    0  0.76794834931E+02 -0.28206325716E+02  0.36419620571E+02  0.11882529728E+03  0.78102618585E+02 0.  0.
         11    1    4    4    0    0  0.72573669227E+02 -0.51383881616E+02  0.23585033732E+02  0.91997253063E+02  0.00000000000E+00 0. -1.
        -12    1    4    4    0    0  0.42211657037E+01  0.23177555900E+02  0.12834586838E+02  0.26828044221E+02  0.00000000000E+00 0.  1.
        -13    1    3    3    0    0 -0.53039380306E+01 -0.31675363274E+02  0.60636094917E+02  0.68616298385E+02  0.00000000000E+00 0. -1.
         13    1    3    3    0    0 -0.23700157448E+02  0.54034649062E+02  0.48387401336E+02  0.76307151502E+02  0.00000000000E+00 0.  1.
          2    1    1    2  501    0 -0.47790739452E+02  0.58470399281E+01 -0.78901274877E+01  0.48789309946E+02  0.00000000000E+00 0. -1.
<scales pt_clust_5="13000.00000" pt_clust_6="13000.00000" pt_clust_7="13000.00000" pt_clust_8="13000.00000" pt_clust_9="48.14709"></scales>
<clustering>
<clus scale="   48.147">  2  9  1 -1</clus>
<clus scale="   78.103">  5  6 -1 -1</clus>
<clus scale="   88.179">  7  8 -1 -1</clus>
<clus scale="   92.603">  2  5  1 -1</clus>
<clus scale="   48.147">  2  5  1 -1</clus>
</clustering>
</event>
<event>
 9    1  0.5981539E-005  0.1361289E+03  0.7546771E-02  0.1221822E+00
          1   -1    0    0  502    0 -0.00000000000E+00  0.00000000000E+00  0.16396048644E+03  0.16396048644E+03  0.00000000000E+00 0. -1.
         21   -1    0    0  501  502  0.00000000000E+00 -0.00000000000E+00 -0.23637212059E+03  0.23637212059E+03  0.00000000000E+00 0.  1.
        -24    2    1    2    0    0  0.76508908250E+02  0.70699236921E+02  0.10122071121E+03  0.16462381703E+03  0.77481440444E+02 0.  0.
         23    2    1    2    0    0 -0.50920869715E+02 -0.72509771495E+02 -0.11399897612E+03  0.17079219367E+03  0.91233792689E+02 0.  0.
         13    1    3    3    0    0  0.92462450840E+02  0.59871990841E+02  0.81355601240E+02  0.13694047596E+03  0.00000000000E+00 0. -1.
        -14    1    3    3    0    0 -0.15953542590E+02  0.10827246080E+02  0.19865109968E+02  0.27683341071E+02  0.00000000000E+00 0.  1.
        -11    1    4    4    0    0  0.20396899179E+02 -0.42339229838E+02 -0.26518102509E+02  0.53961594121E+02  0.00000000000E+00 0.  1.
         11    1    4    4    0    0 -0.71317768894E+02 -0.30170541657E+02 -0.87480873612E+02  0.11683059955E+03  0.00000000000E+00 0. -1.
          2    1    1    2  501    0 -0.25588038535E+02  0.18105345747E+01 -0.59633369238E+02  0.64916596323E+02  0.00000000000E+00 0. -1.
<scales pt_clust_5="13000.00000" pt_clust_6="13000.00000" pt_clust_7="13000.00000" pt_clust_8="13000.00000" pt_clust_9="25.65201"></scales>
<clustering>
<clus scale="   25.652">  2  9  1 -1</clus>
<clus scale="   77.481">  5  6 -1 -1</clus>
<clus scale="   91.234">  7  8 -1 -1</clus>
<clus scale="  127.322">  1  5  2 -1</clus>
<clus scale="   25.652">  2  5  1 -1</clus>
</clustering>
</event>
<event>
 9    1  0.5981539E-005  0.1352258E+03  0.7546771E-02  0.1223964E+00
         -2   -1    0    0    0  501 -0.00000000000E+00  0.00000000000E+00  0.21835441702E+03  0.21835441702E+03  0.00000000000E+00 0.  1.
         21   -1    0    0  501  502  0.00000000000E+00 -0.00000000000E+00 -0.60501159441E+03  0.60501159441E+03  0.00000000000E+00 0.  1.
         23    2    1    2    0    0 -0.90479164098E+02  0.32400333862E+02  0.18661337499E+03  0.23135566266E+03  0.97286330743E+02 0.  0.
        -24    2    1    2    0    0  0.62216192664E+02  0.69999465764E+00 -0.35592183497E+03  0.37034643141E+03  0.81269810049E+02 0.  0.
         11    1    4    4    0    0  0.67293606293E+02 -0.28059110804E+02 -0.24231471259E+03  0.25304577271E+03  0.00000000000E+00 0. -1.
        -12    1    4    4    0    0 -0.50774136290E+01  0.28759105462E+02 -0.11360712238E+03  0.11730065870E+03  0.00000000000E+00 0.  1.
        -13    1    3    3    0    0 -0.19494148157E+02  0.41095259557E+02  0.19320565195E+02  0.49417875409E+02  0.00000000000E+00 0. -1.
         13    1    3    3    0    0 -0.70985015941E+02 -0.86949256955E+01  0.16729280979E+03  0.18193778725E+03  0.00000000000E+00 0.  1.
         -1    1    1    2    0  502  0.28262971434E+02 -0.33100328519E+02 -0.21734871741E+03  0.22166391736E+03  0.00000000000E+00 0.  1.
<scales pt_clust_5="13000.00000" pt_clust_6="13000.00000" pt_clust_7="13000.00000" pt_clust_8="13000.00000" pt_clust_9="43.52502"></scales>
<clustering>
<clus scale="   43.525">  2  9  1 -1</clus>
<clus scale="   81.270">  5  6 -1 -1</clus>
<clus scale="   97.286">  7  8 -1 -1</clus>
<clus scale="  124.202">  2  5  1 -1</clus>
<clus scale="   43.525">  2  5  1 -1</clus>
</clustering>
</event>
<event>
 9    1  0.5981539E-005  0.1415410E+03  0.7546771E-02  0.1213466E+00
         21   -1    0    0  501  502  0.00000000000E+00  0.00000000000E+00  0.13432595690E+03  0.13432595690E+03  0.00000000000E+00 0. -1.
          1   -1    0    0  502    0 -0.00000000000E+00 -0.00000000000E+00 -0.41517736521E+03  0.41517736521E+03  0.00000000000E+00 0. -1.
         23    2    1    2    0    0 -0.10331876280E+03  0.45644120885E+02 -0.33668668229E+03  0.36677835794E+03  0.91707629444E+02 0.  0.
        -24    2    1    2    0    0  0.87697517400E+02 -0.14313606205E+02  0.44904434036E+01  0.12058064758E+03  0.81386697978E+02 0.  0.
         11    1    4    4    0    0  0.29977455986E+02 -0.27377809794E+01 -0.37634272449E+02  0.48192133952E+02  0.00000000000E+00 0. -1.
        -12    1    4    4    0    0  0.57720061414E+02 -0.11575825226E+02  0.42124715853E+02  0.72388513626E+02  0.00000000000E+00 0.  1.
        -11    1    3    3    0    0 -0.85472203747E+02 -0.15268314208E+01 -0.26972935700E+03  0.28295185961E+03  0.00000000000E+00 0. -1.
         11    1    3    3    0    0 -0.17846559056E+02  0.47170952306E+02 -0.66957325290E+02  0.83826498325E+02  0.00000000000E+00 0.  1.
          2    1    1    2  501    0  0.15621245404E+02 -0.31330514680E+02  0.51344830578E+02  0.62144316595E+02  0.00000000000E+00 0. -1.
<scales pt_clust_5="13000.00000" pt_clust_6="13000.00000" pt_clust_7="13000.00000" pt_clust_8="13000.00000" pt_clust_9="35.00892"></scales>
<clustering>
<clus scale="   35.009">  1  9  2 -1</clus>
<clus scale="   81.387">  5  6 -1 -1</clus>
<clus scale="   91.708">  7  8 -1 -1</clus>
<clus scale="  135.083">  1  5  2 -1</clus>
<clus scale="   35.009">  1  5  2 -1</clus>
</clustering>
</event>
<event>
 9    1  0.5981539E-005  0.2094750E+03  0.7546771E-02  0.1143660E+00
          1   -1    0    0  502    0 -0.00000000000E+00  0.00000000000E+00  0.67153585273E+03  0.67153585273E+03  0.00000000000E+00 0. -1.
         21   -1    0    0  501  502  0.00000000000E+00 -0.00000000000E+00 -0.11636455965E+03  0.11636455965E+03  0.00000000000E+00 0.  1.
        -24    2    1    2    0    0 -0.92745880371E+02 -0.14131853643E+03  0.25713144574E+03  0.31512537429E+03  0.67931539584E+02 0.  0.
         23    2    1    2    0    0  0.19163358242E+03  0.15384540701E+03  0.17619130900E+03  0.31534960685E+03  0.89499486068E+02 0.  0.
         13    1    3    3    0    0 -0.97660927705E+02 -0.11188380028E+03  0.18620314370E+03  0.23817483554E+03  0.00000000000E+00 0. -1.
        -14    1    3    3    0    0  0.49150473335E+01 -0.29434736151E+02  0.70928302046E+02  0.76950538748E+02  0.00000000000E+00 0.  1.
        -11    1    4    4    0    0  0.10612947751E+03  0.91991633811E+02  0.15224828154E+03  0.20713634621E+03  0.00000000000E+00 0.  1.
         11    1    4    4    0    0  0.85504104912E+02  0.61853773201E+02  0.23943027456E+02  0.10821326065E+03  0.00000000000E+00 0. -1.
          2    1    1    2  501    0 -0.98887702048E+02 -0.12526870584E+02  0.12184853834E+03  0.15742543123E+03  0.00000000000E+00 0. -1.
<scales pt_clust_5="13000.00000" pt_clust_6="13000.00000" pt_clust_7="13000.00000" pt_clust_8="13000.00000" pt_clust_9="99.67803"></scales>
<clustering>
<clus scale="   67.932">  5  6 -1 -1</clus>
<clus scale="   89.499">  7  8 -1 -1</clus>
<clus scale="   99.678">  2  9  1 -1</clus>
<clus scale="  201.207">  1  5  2 -1</clus>
<clus scale="   99.678">  2  5  1 -1</clus>
</clustering>
</event>
<event>
 9    1  0.5981539E-005  0.3716213E+03  0.7546771E-02  0.1054476E+00
          1   -1    0    0  502    0 -0.00000000000E+00  0.00000000000E+00  0.10326416066E+04  0.10326416066E+04  0.00000000000E+00 0. -1.
         21   -1    0    0  501  502  0.00000000000E+00 -0.00000000000E+00 -0.46419500147E+03  0.46419500147E+03  0.00000000000E+00 0.  1.
         23    2    1    2    0    0 -0.25371381187E+03 -0.24414652346E+03  0.86577543244E+03  0.93897031689E+03  0.90110672658E+02 0.  0.
        -24    2    1    2    0    0  0.30818294820E+03  0.24949582282E+03 -0.22788254133E+03  0.46944520516E+03  0.10594079872E+03 0.  0.
         11    1    4    4    0    0  0.10691157254E+03  0.15435999605E+03 -0.10130504860E+03  0.21335371006E+03  0.00000000000E+00 0. -1.
        -12    1    4    4    0    0  0.20127137566E+03  0.95135826771E+02 -0.12657749273E+03  0.25609149510E+03  0.00000000000E+00 0.  1.
        -11    1    3    3    0    0 -0.12833122363E+03 -0.68933414077E+02  0.29826700588E+03  0.33193964109E+03  0.00000000000E+00 0.  1.
         11    1    3    3    0    0 -0.12538258824E+03 -0.17521310938E+03  0.56750842657E+03  0.60703067580E+03  0.00000000000E+00 0. -1.
          2    1    1    2  501    0 -0.54469136332E+02 -0.53492993595E+01 -0.69446285979E+02  0.88421086019E+02  0.00000000000E+00 0. -1.
<scales pt_clust_5="13000.00000" pt_clust_6="13000.00000" pt_clust_7="13000.00000" pt_clust_8="13000.00000" pt_clust_9="54.73118"></scales>
<clustering>
<clus scale="   54.731">  2  9  1 -1</clus>
<clus scale="   90.111">  7  8 -1 -1</clus>
<clus scale="  105.941">  5  6 -1 -1</clus>
<clus scale="  367.422">  1  7  2 -1</clus>
<clus scale="   54.731">  2  5  1 -1</clus>
</clustering>
</event>
<event>
 9    1  0.5981539E-005  0.1668575E+03  0.7546771E-02  0.1213859E+00
         21   -1    0    0  501  502  0.00000000000E+00  0.00000000000E+00  0.75608935141E+02  0.75608935141E+02  0.00000000000E+00 0. -1.
          1   -1    0    0  502    0 -0.00000000000E+00 -0.00000000000E+00 -0.55989295016E+03  0.55989295016E+03  0.00000000000E+00 0. -1.
        -24    2    1    2    0    0 -0.40749909031E+01 -0.21146693269E+02 -0.52603458419E+02  0.97228764482E+02  0.78882955180E+02 0.  0.
         23    2    1    2    0    0  0.35459728170E+02 -0.12106969939E+03 -0.31575310404E+03  0.35212888016E+03  0.91539396445E+02 0.  0.
         13    1    3    3    0    0 -0.40606595977E+02 -0.14572191238E+02 -0.37475326235E+02  0.57145817614E+02  0.00000000000E+00 0. -1.
        -14    1    3    3    0    0  0.36531605074E+02 -0.65745020317E+01 -0.15128132184E+02  0.40082946868E+02  0.00000000000E+00 0.  1.
        -13    1    4    4    0    0  0.55990831658E+02 -0.11689532391E+03 -0.23154626875E+03  0.26535478995E+03  0.00000000000E+00 0. -1.
         13    1    4    4    0    0 -0.20531103489E+02 -0.41743754772E+01 -0.84206835290E+02  0.86774090203E+02  0.00000000000E+00 0.  1.
          2    1    1    2  501    0 -0.31384737267E+02  0.14221639265E+03 -0.11592745256E+03  0.18614424066E+03  0.00000000000E+00 0. -1.
<scales pt_clust_5="13000.00000" pt_clust_6="13000.00000" pt_clust_7="13000.00000" pt_clust_8="13000.00000" pt_clust_9="139.50612"></scales>
<clustering>
<clus scale="   78.883">  5  6 -1 -1</clus>
<clus scale="   81.770">  2  5  1 -1</clus>
<clus scale="   91.539">  7  8 -1 -1</clus>
<clus scale="  139.506">  1  9  2 -1</clus>
<clus scale="  139.506">  1  5  2 -1</clus>
</clustering>
</event>
<event>
 9    1  0.5981539E-005  0.1194399E+03  0.7546771E-02  0.1263993E+00
         21   -1    0    0  501  502  0.00000000000E+00  0.00000000000E+00  0.16432985329E+03  0.16432985329E+03  0.00000000000E+00 0. -1.
          1   -1    0    0  502    0 -0.00000000000E+00 -0.00000000000E+00 -0.43952662238E+03  0.43952662238E+03  0.00000000000E+00 0. -1.
        -24    2    1    2    0    0  0.38260108307E+02 -0.82553809440E+01 -0.35928285527E+03  0.36815905361E+03  0.70177855931E+02 0.  0.
         23    2    1    2    0    0  0.62530128009E+01  0.76927918083E+02 -0.35405550799E+00  0.11810714680E+03  0.89398926281E+02 0.  0.
         11    1    3    3    0    0  0.49522668225E+02 -0.21012498179E+02 -0.17474623352E+03  0.18283945383E+03  0.00000000000E+00 0. -1.
        -12    1    3    3    0    0 -0.11262559917E+02  0.12757117235E+02 -0.18453662174E+03  0.18531959977E+03  0.00000000000E+00 0.  1.
        -11    1    4    4    0    0 -0.26985563885E+02 -0.11003943439E+01  0.16481183657E+02  0.31639547099E+02  0.00000000000E+00 0.  1.
         11    1    4    4    0    0  0.33238576686E+02  0.78028312427E+02 -0.16835239165E+02  0.86467599701E+02  0.00000000000E+00 0. -1.
          2    1    1    2  501    0 -0.44513121108E+02 -0.68672537139E+02  0.84440141687E+02  0.11759027526E+03  0.00000000000E+00 0. -1.
<scales pt_clust_5="13000.00000" pt_clust_6="13000.00000" pt_clust_7="13000.00000" pt_clust_8="13000.00000" pt_clust_9="79.20689"></scales>
<clustering>
<clus scale="   70.178">  5  6 -1 -1</clus>
<clus scale="   80.355">  2  5  1 -1</clus>
<clus scale="   79.207">  1  9  2 -1</clus>
<clus scale="   89.399">  7  8 -1 -1</clus>
<clus scale="   79.207">  1  5  2 -1</clus>
</clustering>
</event>
<event>
 9    1  0.5981539E-005  0.1551674E+03  0.7546771E-02  0.1223446E+00
          1   -1    0    0  502    0 -0.00000000000E+00  0.00000000000E+00  0.21725271683E+03  0.21725271683E+03  0.00000000000E+00 0. -1.
         21   -1    0    0  501  502  0.00000000000E+00 -0.00000000000E+00 -0.84138846763E+03  0.84138846763E+03  0.00000000000E+00 0.  1.
        -24    2    1    2    0    0  0.12595262521E+01  0.20710372444E+02 -0.71807775140E+03  0.72287030155E+03  0.80469310099E+02 0.  0.
         23    2    1    2    0    0 -0.39322195454E+02  0.10306024247E+03  0.13802735085E+03  0.19898108062E+03  0.91511049758E+02 0.  0.
         13    1    3    3    0    0  0.12480010616E+02  0.16153678139E+02 -0.42137648212E+02  0.46821719098E+02  0.00000000000E+00 0. -1.
        -14    1    3    3    0    0 -0.11220484364E+02  0.45566943050E+01 -0.67594010319E+03  0.67604858245E+03  0.00000000000E+00 0.  1.
        -11    1    4    4    0    0 -0.21863803138E+02  0.51220317389E+02  0.13283178994E+03  0.14403413213E+03  0.00000000000E+00 0. -1.
         11    1    4    4    0    0 -0.17458392316E+02  0.51839925081E+02  0.51955609132E+01  0.54946948486E+02  0.00000000000E+00 0.  1.
          2    1    1    2  501    0  0.38062669202E+02 -0.12377061491E+03 -0.44085350254E+02  0.13678980229E+03  0.00000000000E+00 0. -1.
<scales pt_clust_5="13000.00000" pt_clust_6="13000.00000" pt_clust_7="13000.00000" pt_clust_8="13000.00000" pt_clust_9="125.31020"></scales>
<clustering>
<clus scale="   80.469">  5  6 -1 -1</clus>
<clus scale="   83.101">  1  5  2 -1</clus>
<clus scale="   91.511">  7  8 -1 -1</clus>
<clus scale="  125.310">  2  9  1 -1</clus>
<clus scale="  125.310">  2  5  1 -1</clus>
</clustering>
</event>
<event>
 9    1  0.5981539E-005  0.1567986E+03  0.7546771E-02  0.1197309E+00
          1   -1    0    0  502    0 -0.00000000000E+00  0.00000000000E+00  0.11210441795E+04  0.11210441795E+04  0.00000000000E+00 0. -1.
         21   -1    0    0  501  502  0.00000000000E+00 -0.00000000000E+00 -0.57056320473E+02  0.57056320473E+02  0.00000000000E+00 0. -1.
        -24    2    1    2    0    0  0.36027756200E+02  0.10949117472E+03  0.60272931743E+03  0.61892999384E+03  0.80656001827E+02 0.  0.
         23    2    1    2    0    0 -0.11196767681E+03  0.18762691321E+02  0.32953525345E+03  0.36025607645E+03  0.91116179227E+02 0.  0.
         13    1    3    3    0    0 -0.24193437609E+02  0.35348704395E+02  0.24238388724E+03  0.24613980198E+03  0.00000000000E+00 0. -1.
        -14    1    3    3    0    0  0.60221193809E+02  0.74142470326E+02  0.36034543019E+03  0.37279019186E+03  0.00000000000E+00 0.  1.
        -13    1    4    4    0    0 -0.54653585809E+02 -0.14652124299E+02  0.59172369019E+02  0.81872269075E+02  0.00000000000E+00 0. -1.
         13    1    4    4    0    0 -0.57314090999E+02  0.33414815620E+02  0.27036288444E+03  0.27838380738E+03  0.00000000000E+00 0.  1.
          2    1    1    2  501    0  0.75939920607E+02 -0.12825386604E+03  0.13172328816E+03  0.19891442969E+03  0.00000000000E+00 0. -1.
<scales pt_clust_5="13000.00000" pt_clust_6="13000.00000" pt_clust_7="13000.00000" pt_clust_8="13000.00000" pt_clust_9="127.60744"></scales>
<clustering>
<clus scale="   80.656">  5  6 -1 -1</clus>
<clus scale="   91.116">  7  8 -1 -1</clus>
<clus scale="  140.683">  1  5  2 -1</clus>
<clus scale="  127.607">  2  9  1 -1</clus>
<clus scale="  127.607">  2  5  1 -1</clus>
</clustering>
</event>
<event>
 9    1  0.5981539E-005  0.2680504E+03  0.7546771E-02  0.1129110E+00
         21   -1    0    0  501  502  0.00000000000E+00  0.00000000000E+00  0.69544615479E+02  0.69544615479E+02  0.00000000000E+00 0. -1.
          1   -1    0    0  502    0 -0.00000000000E+00 -0.00000000000E+00 -0.17868003981E+04  0.17868003981E+04  0.00000000000E+00 0. -1.
        -24    2    1    2    0    0 -0.46230493751E+02  0.10862085335E+03 -0.50486750415E+03  0.52305091592E+03  0.68958796109E+02 0.  0.
         23    2    1    2    0    0  0.17265073288E+03 -0.23904636705E+03 -0.42511125553E+03  0.52533493883E+03  0.91136036846E+02 0.  0.
         11    1    3    3    0    0 -0.57361229519E+02  0.49997702712E+02 -0.25195527896E+03  0.26319487747E+03  0.00000000000E+00 0. -1.
        -12    1    3    3    0    0  0.11130735768E+02  0.58623150635E+02 -0.25291222519E+03  0.25985603845E+03  0.00000000000E+00 0.  1.
        -11    1    4    4    0    0  0.14632783296E+03 -0.23367461902E+03 -0.41121235305E+03  0.49508712524E+03  0.00000000000E+00 0. -1.
         11    1    4    4    0    0  0.26322899918E+02 -0.53717480307E+01 -0.13898902480E+02  0.30247813593E+02  0.00000000000E+00 0.  1.
          2    1    1    2  501    0 -0.12642023913E+03  0.13042551371E+03 -0.78727702292E+03  0.80795915881E+03  0.00000000000E+00 0. -1.
<scales pt_clust_5="13000.00000" pt_clust_6="13000.00000" pt_clust_7="13000.00000" pt_clust_8="13000.00000" pt_clust_9="252.08197"></scales>
<clustering>
<clus scale="   68.959">  5  6 -1 -1</clus>
<clus scale="   91.136">  7  8 -1 -1</clus>
<clus scale="  136.715">  2  5  1 -1</clus>
<clus scale="  252.082">  1  9  2 -1</clus>
<clus scale="  252.082">  1  5  2 -1</clus>
</clustering>
</event>
<event>
 9    1  0.5981539E-005  0.9909588E+02  0.7546771E-02  0.1288087E+00
         21   -1    0    0  501  502  0.00000000000E+00  0.00000000000E+00  0.11418840871E+03  0.11418840871E+03  0.00000000000E+00 0.  1.
          1   -1    0    0  502    0 -0.00000000000E+00 -0.00000000000E+00 -0.22535251669E+03  0.22535251669E+03  0.00000000000E+00 0. -1.
         23    2    1    2    0    0 -0.26271298265E+02  0.14947087517E+02 -0.93098780391E+02  0.13371575299E+03  0.91098425618E+02 0.  0.
        -24    2    1    2    0    0  0.83376307511E+02  0.28813121605E+02  0.25717959935E+02  0.12160573137E+03  0.79653849922E+02 0.  0.
         13    1    4    4    0    0  0.20926910874E+02 -0.23286570851E+02  0.25337591636E+02  0.40276463730E+02  0.00000000000E+00 0. -1.
        -14    1    4    4    0    0  0.62449396637E+02  0.52099692456E+02  0.38036829927E+00  0.81329267637E+02  0.00000000000E+00 0.  1.
        -11    1    3    3    0    0  0.19514539345E+02 -0.26561336906E+02 -0.42883499066E+02  0.54086193767E+02  0.00000000000E+00 0.  1.
         11    1    3    3    0    0 -0.45785837610E+02  0.41508424423E+02 -0.50215281325E+02  0.79629559225E+02  0.00000000000E+00 0. -1.
          2    1    1    2  501    0 -0.57105009246E+02 -0.43760209122E+02 -0.43783287526E+02  0.84219441045E+02  0.00000000000E+00 0. -1.
<scales pt_clust_5="13000.00000" pt_clust_6="13000.00000" pt_clust_7="13000.00000" pt_clust_8="13000.00000" pt_clust_9="71.94403"></scales>
<clustering>
<clus scale="   71.944">  1  9  2 -1</clus>
<clus scale="   79.654">  5  6 -1 -1</clus>
<clus scale="   88.689">  1  5  2 -1</clus>
<clus scale="   91.098">  7  8 -1 -1</clus>
<clus scale="   71.944">  1  5  2 -1</clus>
</clustering>
</event>
<event>
 9    1  0.5981539E-005  0.1104114E+03  0.7546771E-02  0.1265524E+00
          1   -1    0    0  502    0 -0.00000000000E+00  0.00000000000E+00  0.20132438868E+03  0.20132438868E+03  0.00000000000E+00 0. -1.
         21   -1    0    0  501  502  0.00000000000E+00 -0.00000000000E+00 -0.28120799714E+03  0.28120799714E+03  0.00000000000E+00 0. -1.
         23    2    1    2    0    0 -0.68328635876E+02 -0.12050164195E+01  0.14308250461E+03  0.18398667069E+03  0.93317936759E+02 0.  0.
        -24    2    1    2    0    0  0.35479306115E+02 -0.35717811913E+01 -0.15187534774E+02  0.88132232067E+02  0.79152323613E+02 0.  0.
         13    1    4    4    0    0  0.33152818391E+01  0.21376408055E+02  0.23524081157E+02  0.31958164987E+02  0.00000000000E+00 0. -1.
        -14    1    4    4    0    0  0.32164024276E+02 -0.24948189246E+02 -0.38711615932E+02  0.56174067080E+02  0.00000000000E+00 0.  1.
        -11    1    3    3    0    0  0.11948201430E+02 -0.22798151199E+02  0.11155507760E+02  0.28052817486E+02  0.00000000000E+00 0.  1.
         11    1    3    3    0    0 -0.80276837306E+02  0.21593134780E+02  0.13192699685E+03  0.15593385320E+03  0.00000000000E+00 0. -1.
          2    1    1    2  501    0  0.32849329761E+02  0.47767976108E+01 -0.20777857829E+03  0.21041348307E+03  0.00000000000E+00 0. -1.
<scales pt_clust_5="13000.00000" pt_clust_6="13000.00000" pt_clust_7="13000.00000" pt_clust_8="13000.00000" pt_clust_9="33.19482"></scales>
<clustering>
<clus scale="   33.195">  2  9  1 -1</clus>
<clus scale="   79.152">  5  6 -1 -1</clus>
<clus scale="   93.318">  7  8 -1 -1</clus>
<clus scale="   98.730">  2  5  1 -1</clus>
<clus scale="   33.195">  2  5  1 -1</clus>
</clustering>
</event>
<event>
 9    1  0.9143693E-005  0.9608637E+02  0.7546771E-02  0.1301894E+00
          1   -1    0    0  502    0 -0.00000000000E+00  0.00000000000E+00  0.35440340022E+03  0.35440340022E+03  0.00000000000E+00 0. -1.
         21   -1    0    0  501  502  0.00000000000E+00 -0.00000000000E+00 -0.10208070245E+03  0.10208070245E+03  0.00000000000E+00 0. -1.
         23    2    1    2    0    0  0.13806146624E+02  0.23434463712E+02  0.31644140010E+03  0.33098559920E+03  0.93147857790E+02 0.  0.
        -24    2    1    2    0    0 -0.53384580803E+01  0.46954127472E+01 -0.23924293800E+02  0.75713142412E+02  0.71481200777E+02 0.  0.
         11    1    4    4    0    0  0.29467523755E+02  0.14774916873E+02 -0.21583530684E+02  0.39401547199E+02  0.00000000000E+00 0. -1.
        -12    1    4    4    0    0 -0.34805981836E+02 -0.10079504125E+02 -0.23407631154E+01  0.36311595213E+02  0.00000000000E+00 0.  1.
        -11    1    3    3    0    0 -0.25417624688E+02  0.33769268979E+02  0.74387038654E+02  0.85556125975E+02  0.00000000000E+00 0.  1.
         11    1    3    3    0    0  0.39223771312E+02 -0.10334805267E+02  0.24205436144E+03  0.24542947323E+03  0.00000000000E+00 0. -1.
          2    1    1    2  501    0 -0.84676885435E+01 -0.28129876459E+02 -0.40194408522E+02  0.49785361054E+02  0.00000000000E+00 0. -1.
<scales pt_clust_5="13000.00000" pt_clust_6="13000.00000" pt_clust_7="13000.00000" pt_clust_8="13000.00000" pt_clust_9="29.37672"></scales>
<clustering>
<clus scale="   29.377">  2  9  1 -1</clus>
<clus scale="   71.481">  5  6 -1 -1</clus>
<clus scale="   75.270">  2  5  1 -1</clus>
<clus scale="   93.148">  7  8 -1 -1</clus>
<clus scale="   29.377">  2  5  1 -1</clus>
</clustering>
</event>
<event>
 9    1  0.5981539E-005  0.2264375E+03  0.7546771E-02  0.1130335E+00
         21   -1    0    0  501  502  0.00000000000E+00  0.00000000000E+00  0.14599111070E+03  0.14599111070E+03  0.00000000000E+00 0. -1.
          3   -1    0    0  502    0 -0.00000000000E+00 -0.00000000000E+00 -0.74676475029E+03  0.74676475029E+03  0.00000000000E+00 0. -1.
         23    2    1    2    0    0 -0.10396458807E+03 -0.22703589395E+03 -0.27871893505E+03  0.38656670653E+03  0.96931115363E+02 0.  0.
        -24    2    1    2    0    0  0.13043294018E+03  0.87976260315E+02 -0.27046940841E+02  0.17897708865E+03  0.80923958074E+02 0.  0.
         13    1    4    4    0    0  0.40525642927E+02  0.25126036700E+02  0.28981852598E+02  0.55799580956E+02  0.00000000000E+00 0. -1.
        -14    1    4    4    0    0  0.89907297252E+02  0.62850223616E+02 -0.56028793439E+02  0.12317750770E+03  0.00000000000E+00 0.  1.
        -13    1    3    3    0    0  0.99193511567E+01 -0.80010298705E+02 -0.10205776565E+03  0.13006086635E+03  0.00000000000E+00 0. -1.
         13    1    3    3    0    0 -0.11388393923E+03 -0.14702559525E+03 -0.17666116940E+03  0.25650584018E+03  0.00000000000E+00 0.  1.
          4    1    1    2  501    0 -0.26468352105E+02  0.13905963364E+03 -0.29500776369E+03  0.32721206581E+03  0.00000000000E+00 0. -1.
<scales pt_clust_5="13000.00000" pt_clust_6="13000.00000" pt_clust_7="13000.00000" pt_clust_8="13000.00000" pt_clust_9="141.55626"></scales>
<clustering>
<clus scale="   80.924">  5  6 -1 -1</clus>
<clus scale="   96.931">  7  8 -1 -1</clus>
<clus scale="  141.556">  1  9  2 -1</clus>
<clus scale="  220.061">  1  5  2 -1</clus>
<clus scale="  141.556">  1  5  2 -1</clus>
</clustering>
</event>
<event>
 9    1  0.5981539E-005  0.1003850E+03  0.7546771E-02  0.1291481E+00
         21   -1    0    0  501  502  0.00000000000E+00  0.00000000000E+00  0.19281950889E+03  0.19281950889E+03  0.00000000000E+00 0.  1.
         -2   -1    0    0    0  501 -0.00000000000E+00 -0.00000000000E+00 -0.56074717672E+03  0.56074717672E+03  0.00000000000E+00 0.  1.
        -24    2    1    2    0    0 -0.21085690073E+01 -0.39923553294E+01 -0.43836206279E+03  0.44556814163E+03  0.79682405660E+02 0.  0.
         23    2    1    2    0    0  0.17637869984E+02  0.22636252691E+02 -0.94909544201E+02  0.14088369630E+03  0.10008446388E+03 0.  0.
         13    1    3    3    0    0 -0.21031288945E+02 -0.20832586302E+02 -0.65874241580E+02  0.72219993565E+02  0.00000000000E+00 0. -1.
        -14    1    3    3    0    0  0.18922719938E+02  0.16840230973E+02 -0.37248782121E+03  0.37334814806E+03  0.00000000000E+00 0.  1.
        -13    1    4    4    0    0  0.45584074450E+02  0.26830850315E+02 -0.99083325695E+02  0.11231788728E+03  0.00000000000E+00 0.  1.
         13    1    4    4    0    0 -0.27946204466E+02 -0.41945976240E+01  0.41737814948E+01  0.28565809025E+02  0.00000000000E+00 0. -1.
         -1    1    1    2    0  502 -0.15529300977E+02 -0.18643897361E+02  0.16534393916E+03  0.16711484768E+03  0.00000000000E+00 0.  1.
<scales pt_clust_5="13000.00000" pt_clust_6="13000.00000" pt_clust_7="13000.00000" pt_clust_8="13000.00000" pt_clust_9="24.26426"></scales>
<clustering>
<clus scale="   24.264">  1  9  2 -1</clus>
<clus scale="   79.682">  5  6 -1 -1</clus>
<clus scale="   80.060">  2  5  1 -1</clus>
<clus scale="  100.084">  7  8 -1 -1</clus>
<clus scale="   24.264">  1  5  2 -1</clus>
</clustering>
</event>
<event>
 9    1  0.5981539E-005  0.4361867E+03  0.7546771E-02  0.1081446E+00
          1   -1    0    0  502    0 -0.00000000000E+00  0.00000000000E+00  0.46385675127E+03  0.46385675127E+03  0.00000000000E+00 0. -1.
         21   -1    0    0  501  502  0.00000000000E+00 -0.00000000000E+00 -0.51894825427E+03  0.51894825427E+03  0.00000000000E+00 0. -1.
         23    2    1    2    0    0 -0.34684795958E+02  0.46563921597E+02 -0.21740946550E+02  0.11020443791E+03  0.91110457753E+02 0.  0.
        -24    2    1    2    0    0 -0.37121642905E+03 -0.20572685077E+03 -0.58276278553E+02  0.43589708230E+03  0.80529295215E+02 0.  0.
         11    1    4    4    0    0 -0.23405880450E+03 -0.10229367870E+03 -0.30587193690E+01  0.25545425506E+03  0.00000000000E+00 0. -1.
        -12    1    4    4    0    0 -0.13715762454E+03 -0.10343317208E+03 -0.55217559184E+02  0.18044282723E+03  0.00000000000E+00 0.  1.
        -13    1    3    3    0    0 -0.66019711795E+02  0.30007494948E+02 -0.16581700386E+02  0.74390892495E+02  0.00000000000E+00 0. -1.
         13    1    3    3    0    0  0.31334915836E+02  0.16556426649E+02 -0.51592461633E+01  0.35813545410E+02  0.00000000000E+00 0.  1.
          2    1    1    2  501    0  0.40590122501E+03  0.15916292918E+03  0.24925722103E+02  0.43670348534E+03  0.00000000000E+00 0. -1.
<scales pt_clust_5="13000.00000" pt_clust_6="13000.00000" pt_clust_7="13000.00000" pt_clust_8="13000.00000" pt_clust_9="428.68877"></scales>
<clustering>
<clus scale="   80.529">  5  6 -1 -1</clus>
<clus scale="   91.110">  7  8 -1 -1</clus>
<clus scale="  108.039">  1  7  2 -1</clus>
<clus scale="  428.689">  2  9  1 -1</clus>
<clus scale="  428.689">  2  5  1 -1</clus>
</clustering>
</event>
<event>
 9    1  0.5981539E-005  0.1398933E+03  0.7546771E-02  0.1215983E+00
         21   -1    0    0  501  502  0.00000000000E+00  0.00000000000E+00  0.13116531779E+03  0.13116531779E+03  0.00000000000E+00 0. -1.
          3   -1    0    0  502    0 -0.00000000000E+00 -0.00000000000E+00 -0.41568409833E+03  0.41568409833E+03  0.00000000000E+00 0. -1.
        -24    2    1    2    0    0  0.72926801792E+02 -0.17153122310E+01 -0.39367335076E+02  0.11520625514E+03  0.80008958485E+02 0.  0.
         23    2    1    2    0    0 -0.17265319095E+03  0.37919452513E+02 -0.43453336562E+02  0.20374357870E+03  0.91521823506E+02 0.  0.
         13    1    3    3    0    0  0.74393875287E+02 -0.25164222448E+02 -0.12513549272E+02  0.79525314756E+02  0.00000000000E+00 0. -1.
        -14    1    3    3    0    0 -0.14670734951E+01  0.23448910217E+02 -0.26853785804E+02  0.35680940389E+02  0.00000000000E+00 0.  1.
        -13    1    4    4    0    0 -0.44156304886E+02 -0.17689335677E+02 -0.42406713682E+02  0.63726142385E+02  0.00000000000E+00 0.  1.
         13    1    4    4    0    0 -0.12849688606E+03  0.55608788191E+02 -0.10466228802E+01  0.14001743631E+03  0.00000000000E+00 0. -1.
          4    1    1    2  501    0  0.99726389157E+02 -0.36204140282E+02 -0.20169810890E+03  0.22789958227E+03  0.00000000000E+00 0. -1.
<scales pt_clust_5="13000.00000" pt_clust_6="13000.00000" pt_clust_7="13000.00000" pt_clust_8="13000.00000" pt_clust_9="106.09479"></scales>
<clustering>
<clus scale="   80.009">  5  6 -1 -1</clus>
<clus scale="   91.522">  7  8 -1 -1</clus>
<clus scale="  106.095">  1  9  2 -1</clus>
<clus scale="  132.647">  2  5  1 -1</clus>
<clus scale="  106.095">  1  5  2 -1</clus>
</clustering>
</event>
<event>
 9    1  0.5981539E-005  0.1931181E+03  0.7546771E-02  0.1157187E+00
         21   -1    0    0  501  502  0.00000000000E+00  0.00000000000E+00  0.10035077694E+03  0.10035077694E+03  0.00000000000E+00 0.  1.
         -4   -1    0    0    0  501 -0.00000000000E+00 -0.00000000000E+00 -0.70778331539E+03  0.70778331539E+03  0.00000000000E+00 0.  1.
         23    2    1    2    0    0 -0.15981166352E+03 -0.74662264429E+02 -0.43039329477E+03  0.47467179797E+03  0.94661006138E+02 0.  0.
        -24    2    1    2    0    0  0.11646556578E+03  0.82547317486E+02 -0.13675855652E+02  0.16426225061E+03  0.80104745883E+02 0.  0.
         13    1    4    4    0    0  0.30360531818E+02  0.68310308491E+02 -0.17968808778E+02  0.76882626303E+02  0.00000000000E+00 0. -1.
        -14    1    4    4    0    0  0.86105033958E+02  0.14237008995E+02  0.42929531258E+01  0.87379624310E+02  0.00000000000E+00 0.  1.
        -13    1    3    3    0    0 -0.37333914227E+02  0.22408306321E+02 -0.82397184541E+02  0.93194685277E+02  0.00000000000E+00 0. -1.
         13    1    3    3    0    0 -0.12247774930E+03 -0.97070570750E+02 -0.34799611023E+03  0.38147711270E+03  0.00000000000E+00 0.  1.
         -3    1    1    2    0  502  0.43346097747E+02 -0.78850530575E+01 -0.16336338804E+03  0.16920004374E+03  0.00000000000E+00 0.  1.
<scales pt_clust_5="13000.00000" pt_clust_6="13000.00000" pt_clust_7="13000.00000" pt_clust_8="13000.00000" pt_clust_9="44.05746"></scales>
<clustering>
<clus scale="   44.057">  1  9  2 -1</clus>
<clus scale="   80.105">  5  6 -1 -1</clus>
<clus scale="   94.661">  7  8 -1 -1</clus>
<clus scale="  186.415">  1  5  2 -1</clus>
<clus scale="   44.057">  1  5  2 -1</clus>
</clustering>
</event>
<event>
 9    1  0.5981539E-005  0.9796029E+02  0.7546771E-02  0.1290374E+00
         21   -1    0    0  501  502  0.00000000000E+00  0.00000000000E+00  0.67793938906E+02  0.67793938906E+02  0.00000000000E+00 0. -1.
         -4   -1    0    0    0  501 -0.00000000000E+00 -0.00000000000E+00 -0.45497368548E+03  0.45497368548E+03  0.00000000000E+00 0.  1.
         23    2    1    2    0    0 -0.84229012816E+01  0.27286500644E+02 -0.12876287717E+03  0.16042613145E+03  0.91329988133E+02 0.  0.
        -24    2    1    2    0    0 -0.31194903582E+02 -0.60700333495E+02 -0.71465483214E+01  0.10578189178E+03  0.80505173620E+02 0.  0.
         13    1    4    4    0    0  0.25877805253E+02 -0.10419747484E+02  0.61493544875E+01  0.28566527667E+02  0.00000000000E+00 0. -1.
        -14    1    4    4    0    0 -0.57072708835E+02 -0.50280586011E+02 -0.13295902809E+02  0.77215364112E+02  0.00000000000E+00 0.  1.
        -13    1    3    3    0    0  0.26252834174E+02  0.47009183750E+02 -0.89535527283E+02  0.10447815707E+03  0.00000000000E+00 0. -1.
         13    1    3    3    0    0 -0.34675735456E+02 -0.19722683106E+02 -0.39227349888E+02  0.55947974383E+02  0.00000000000E+00 0.  1.
         -3    1    1    2    0  502  0.39617804864E+02  0.33413832851E+02 -0.25127032108E+03  0.25655960115E+03  0.00000000000E+00 0.  1.
<scales pt_clust_5="13000.00000" pt_clust_6="13000.00000" pt_clust_7="13000.00000" pt_clust_8="13000.00000" pt_clust_9="51.82719"></scales>
<clustering>
<clus scale="   51.827">  1  9  2 -1</clus>
<clus scale="   80.505">  5  6 -1 -1</clus>
<clus scale="   87.955">  1  5  2 -1</clus>
<clus scale="   91.330">  7  8 -1 -1</clus>
<clus scale="   51.827">  1  5  2 -1</clus>
</clustering>
</event>
<event>
 9    1  0.5981539E-005  0.1507368E+03  0.7546771E-02  0.1200942E+00
         21   -1    0    0  501  502  0.00000000000E+00  0.00000000000E+00  0.13882970291E+04  0.13882970291E+04  0.00000000000E+00 0.  1.
          3   -1    0    0  502    0 -0.00000000000E+00 -0.00000000000E+00 -0.26242677260E+02  0.26242677260E+02  0.00000000000E+00 0. -1.
         23    2    1    2    0    0  0.10613616237E+03 -0.34967545153E+02  0.29955423797E+03  0.33226755103E+03  0.90450924823E+02 0.  0.
        -24    2    1    2    0    0 -0.14283605814E+03  0.24563939533E+02  0.82432771447E+03  0.84106434203E+03  0.82870501228E+02 0.  0.
         13    1    4    4    0    0 -0.32017616538E+02 -0.21454066188E+02  0.10612433078E+03  0.11290605966E+03  0.00000000000E+00 0. -1.
        -14    1    4    4    0    0 -0.11081844160E+03  0.46018005721E+02  0.71820338369E+03  0.72815828237E+03  0.00000000000E+00 0.  1.
        -11    1    3    3    0    0  0.27015756515E+02 -0.55739516502E+02  0.12608478077E+03  0.14047817176E+03  0.00000000000E+00 0.  1.
         11    1    3    3    0    0  0.79120405854E+02  0.20771971349E+02  0.17346945720E+03  0.19178937926E+03  0.00000000000E+00 0. -1.
          4    1    1    2  501    0  0.36699895773E+02  0.10403605620E+02  0.23817239939E+03  0.24120781329E+03  0.00000000000E+00 0. -1.
<scales pt_clust_5="13000.00000" pt_clust_6="13000.00000" pt_clust_7="13000.00000" pt_clust_8="13000.00000" pt_clust_9="38.14600"></scales>
<clustering>
<clus scale="   38.146">  1  9  2 -1</clus>
<clus scale="   82.871">  5  6 -1 -1</clus>
<clus scale="   90.451">  7  8 -1 -1</clus>
<clus scale="  146.314">  1  5  2 -1</clus>
<clus scale="   38.146">  1  5  2 -1</clus>
</clustering>
</event>
<event>
 9    1  0.5981539E-005  0.1083792E+03  0.7546771E-02  0.1266512E+00
         21   -1    0    0  501  502  0.00000000000E+00  0.00000000000E+00  0.32676626574E+03  0.32676626574E+03  0.00000000000E+00 0.  1.
          3   -1    0    0  502    0 -0.00000000000E+00 -0.00000000000E+00 -0.10419494503E+03  0.10419494503E+03  0.00000000000E+00 0. -1.
         23    2    1    2    0    0 -0.44984199916E+02 -0.33827192156E+02 -0.54204152876E+02  0.11977401110E+03  0.90773709714E+02 0.  0.
        -24    2    1    2    0    0  0.66407511987E+02  0.47180903992E+02  0.23503781882E+03  0.26240901044E+03  0.83544701405E+02 0.  0.
         11    1    4    4    0    0 -0.80307677831E+01  0.27013323471E+02  0.21727369576E+02  0.35584989319E+02  0.00000000000E+00 0. -1.
        -12    1    4    4    0    0  0.74438279770E+02  0.20167580520E+02  0.21331044924E+03  0.22682402112E+03  0.00000000000E+00 0.  1.
        -13    1    3    3    0    0 -0.18502646095E+02 -0.43440289365E+02  0.11229206160E+02  0.48533511347E+02  0.00000000000E+00 0.  1.
         13    1    3    3    0    0 -0.26481553822E+02  0.96130972093E+01 -0.65433359035E+02  0.71240499755E+02  0.00000000000E+00 0. -1.
          4    1    1    2  501    0 -0.21423312071E+02 -0.13353711836E+02  0.41737654761E+02  0.48778189233E+02  0.00000000000E+00 0. -1.
<scales pt_clust_5="13000.00000" pt_clust_6="13000.00000" pt_clust_7="13000.00000" pt_clust_8="13000.00000" pt_clust_9="25.24440"></scales>
<clustering>
<clus scale="   25.244">  1  9  2 -1</clus>
<clus scale="   83.545">  5  6 -1 -1</clus>
<clus scale="   90.774">  7  8 -1 -1</clus>
<clus scale="  102.401">  1  5  2 -1</clus>
<clus scale="   25.244">  1  5  2 -1</clus>
</clustering>
</event>
<event>
 9    1  0.5981539E-005  0.2112523E+03  0.7546771E-02  0.1160552E+00
         21   -1    0    0  501  502  0.00000000000E+00  0.00000000000E+00  0.11457488451E+03  0.11457488451E+03  0.00000000000E+00 0.  1.
          1   -1    0    0  502    0 -0.00000000000E+00 -0.00000000000E+00 -0.67399068365E+03  0.67399068365E+03  0.00000000000E+00 0. -1.
        -24    2    1    2    0    0 -0.10428295517E+03  0.24285933265E+01 -0.79421436481E+02  0.15376003319E+03  0.80333992989E+02 0.  0.
         23    2    1    2    0    0 -0.13151509829E+03  0.32617884436E+02 -0.27809831012E+03  0.32240996258E+03  0.90826022783E+02 0.  0.
         13    1    3    3    0    0 -0.18037866668E+02 -0.26559772293E+02 -0.47507460686E+02  0.57338860811E+02  0.00000000000E+00 0. -1.
        -14    1    3    3    0    0 -0.86245088505E+02  0.28988365620E+02 -0.31913975795E+02  0.96421172383E+02  0.00000000000E+00 0.  1.
        -13    1    4    4    0    0 -0.95825380922E+02  0.55158203041E+02 -0.14232235370E+03  0.18022370364E+03  0.00000000000E+00 0. -1.
         13    1    4    4    0    0 -0.35689717369E+02 -0.22540318605E+02 -0.13577595642E+03  0.14218625893E+03  0.00000000000E+00 0.  1.
          2    1    1    2  501    0  0.23579805346E+03 -0.35046477763E+02 -0.20189605254E+03  0.31239557239E+03  0.00000000000E+00 0. -1.
<scales pt_clust_5="13000.00000" pt_clust_6="13000.00000" pt_clust_7="13000.00000" pt_clust_8="13000.00000" pt_clust_9="190.73065"></scales>
<clustering>
<clus scale="   80.334">  5  6 -1 -1</clus>
<clus scale="   90.826">  7  8 -1 -1</clus>
<clus scale="  131.660">  2  5  1 -1</clus>
<clus scale="  190.731">  1  9  2 -1</clus>
<clus scale="  190.731">  1  5  2 -1</clus>
</clustering>
</event>
<event>
 9    1  0.5981539E-005  0.2262345E+03  0.7546771E-02  0.1171086E+00
         21   -1    0    0  501  502  0.00000000000E+00  0.00000000000E+00  0.37423509432E+03  0.37423509432E+03  0.00000000000E+00 0.  1.
         -2   -1    0    0    0  501 -0.00000000000E+00 -0.00000000000E+00 -0.25630739135E+03  0.25630739135E+03  0.00000000000E+00 0.  1.
        -24    2    1    2    0    0 -0.24514529850E+02 -0.12573721535E+02  0.30066428782E+01  0.84148462569E+02  0.79453528583E+02 0.  0.
         23    2    1    2    0    0 -0.51514059478E+02 -0.18480293799E+03 -0.10904333721E+03  0.23833892514E+03  0.90050927994E+02 0.  0.
         13    1    3    3    0    0 -0.21597382506E+01 -0.28609704038E+02  0.32812014261E+02  0.43586786006E+02  0.00000000000E+00 0. -1.
        -14    1    3    3    0    0 -0.22354791600E+02  0.16035982503E+02 -0.29805371383E+02  0.40561676563E+02  0.00000000000E+00 0.  1.
        -13    1    4    4    0    0 -0.66827714556E+02 -0.97614661766E+02 -0.36243864301E+02  0.12372624347E+03  0.00000000000E+00 0. -1.
         13    1    4    4    0    0  0.15313655078E+02 -0.87188276226E+02 -0.72799472908E+02  0.11461268167E+03  0.00000000000E+00 0.  1.
         -1    1    1    2    0  502  0.76028589329E+02  0.19737665953E+03  0.22396439730E+03  0.30805509796E+03  0.00000000000E+00 0.  1.
<scales pt_clust_5="13000.00000" pt_clust_6="13000.00000" pt_clust_7="13000.00000" pt_clust_8="13000.00000" pt_clust_9="207.54009"></scales>
<clustering>
<clus scale="   79.454">  5  6 -1 -1</clus>
<clus scale="   84.095">  2  5  1 -1</clus>
<clus scale="   90.051">  7  8 -1 -1</clus>
<clus scale="  207.540">  1  9  2 -1</clus>
<clus scale="  207.540">  1  5  2 -1</clus>
</clustering>
</event>
<event>
 9    1  0.5981539E-005  0.1382394E+03  0.7546771E-02  0.1218746E+00
          1   -1    0    0  502    0 -0.00000000000E+00  0.00000000000E+00  0.50270772144E+03  0.50270772144E+03  0.00000000000E+00 0. -1.
         21   -1    0    0  501  502  0.00000000000E+00 -0.00000000000E+00 -0.53998644443E+02  0.53998644443E+02  0.00000000000E+00 0. -1.
        -24    2    1    2    0    0  0.51363035853E+02  0.90242918239E+02  0.21531443452E+03  0.25221377242E+03  0.80433423035E+02 0.  0.
         23    2    1    2    0    0 -0.39277224285E+01 -0.10570437041E+03  0.19844146426E+03  0.24357551761E+03  0.93601159796E+02 0.  0.
         13    1    3    3    0    0  0.73135870601E+02  0.70567463966E+02  0.17462754426E+03  0.20204801843E+03  0.00000000000E+00 0. -1.
        -14    1    3    3    0    0 -0.21772834749E+02  0.19675454273E+02  0.40686890265E+02  0.50165753989E+02  0.00000000000E+00 0.  1.
        -11    1    4    4    0    0 -0.18975665074E+02 -0.88785242924E+02  0.74104768222E+02  0.11719390726E+03  0.00000000000E+00 0. -1.
         11    1    4    4    0    0  0.15047942646E+02 -0.16919127482E+02  0.12433669604E+03  0.12638161035E+03  0.00000000000E+00 0.  1.
          2    1    1    2  501    0 -0.47435313424E+02  0.15461452168E+02  0.34953178215E+02  0.60917075850E+02  0.00000000000E+00 0. -1.
<scales pt_clust_5="13000.00000" pt_clust_6="13000.00000" pt_clust_7="13000.00000" pt_clust_8="13000.00000" pt_clust_9="49.89154"></scales>
<clustering>
<clus scale="   49.892">  2  9  1 -1</clus>
<clus scale="   80.433">  5  6 -1 -1</clus>
<clus scale="   93.601">  7  8 -1 -1</clus>
<clus scale="  129.686">  1  5  2 -1</clus>
<clus scale="   49.892">  2  5  1 -1</clus>
</clustering>
</event>
<event>
 9    1  0.5981539E-005  0.1406490E+03  0.7546771E-02  0.1227891E+00
         21   -1    0    0  501  502  0.00000000000E+00  0.00000000000E+00  0.40986885619E+03  0.40986885619E+03  0.00000000000E+00 0. -1.
          1   -1    0    0  502    0 -0.00000000000E+00 -0.00000000000E+00 -0.10133568155E+03  0.10133568155E+03  0.00000000000E+00 0. -1.
         23    2    1    2    0    0  0.49827990464E+02  0.18763523188E+02  0.13074261230E+02  0.10256579480E+03  0.86682798294E+02 0.  0.
        -24    2    1    2    0    0  0.91787732742E+02 -0.42482918485E+02  0.19210215023E+03  0.23171999530E+03  0.81000826235E+02 0.  0.
         11    1    4    4    0    0  0.79673506698E+02  0.42167570700E+01  0.13647638827E+03  0.15808685355E+03  0.00000000000E+00 0. -1.
        -12    1    4    4    0    0  0.12114226045E+02 -0.46699675555E+02  0.55625761961E+02  0.73633141746E+02  0.00000000000E+00 0.  1.
        -11    1    3    3    0    0  0.12706887451E+02  0.49833787827E+02  0.16569728818E+02  0.54031725042E+02  0.00000000000E+00 0.  1.
         11    1    3    3    0    0  0.37121103012E+02 -0.31070264639E+02 -0.34954675883E+01  0.48534069757E+02  0.00000000000E+00 0. -1.
          2    1    1    2  501    0 -0.14161572321E+03  0.23719395296E+02  0.10335676318E+03  0.17691874764E+03  0.00000000000E+00 0. -1.
<scales pt_clust_5="13000.00000" pt_clust_6="13000.00000" pt_clust_7="13000.00000" pt_clust_8="13000.00000" pt_clust_9="114.98268"></scales>
<clustering>
<clus scale="   81.001">  5  6 -1 -1</clus>
<clus scale="   86.683">  7  8 -1 -1</clus>
<clus scale="  101.729">  2  7  1 -1</clus>
<clus scale="  114.983">  1  9  2 -1</clus>
<clus scale="  114.983">  1  5  2 -1</clus>
</clustering>
</event>
<event>
 9    1  0.5981539E-005  0.1985576E+03  0.7546771E-02  0.1184710E+00
         21   -1    0    0  501  502  0.00000000000E+00  0.00000000000E+00  0.32574244577E+03  0.32574244577E+03  0.00000000000E+00 0. -1.
          1   -1    0    0  502    0 -0.00000000000E+00 -0.00000000000E+00 -0.17081524747E+03  0.17081524747E+03  0.00000000000E+00 0. -1.
        -24    2    1    2    0    0 -0.13934176803E+02 -0.41039253620E+02  0.19852422206E+02  0.93601955518E+02  0.80553248156E+02 0.  0.
         23    2    1    2    0    0 -0.11476663976E+03  0.15061117597E+03  0.63801860197E+02  0.21951709704E+03  0.90895382728E+02 0.  0.
         13    1    3    3    0    0  0.10204941394E+02  0.21805713559E+02  0.69114999324E+01  0.25047930134E+02  0.00000000000E+00 0. -1.
        -14    1    3    3    0    0 -0.24139118197E+02 -0.62844967179E+02  0.12940922274E+02  0.68554025384E+02  0.00000000000E+00 0.  1.
        -13    1    4    4    0    0 -0.90831673394E+02  0.15130654222E+03  0.31433289315E+02  0.17925432851E+03  0.00000000000E+00 0. -1.
         13    1    4    4    0    0 -0.23934966370E+02 -0.69536625610E+00  0.32368570883E+02  0.40262768539E+02  0.00000000000E+00 0.  1.
          2    1    1    2  501    0  0.12870081657E+03 -0.10957192235E+03  0.71272915903E+02  0.18343864068E+03  0.00000000000E+00 0. -1.
<scales pt_clust_5="13000.00000" pt_clust_6="13000.00000" pt_clust_7="13000.00000" pt_clust_8="13000.00000" pt_clust_9="176.53086"></scales>
<clustering>
<clus scale="   80.553">  5  6 -1 -1</clus>
<clus scale="   90.895">  7  8 -1 -1</clus>
<clus scale="   91.472">  2  5  1 -1</clus>
<clus scale="  176.531">  1  9  2 -1</clus>
<clus scale="  176.531">  1  5  2 -1</clus>
</clustering>
</event>
<event>
 9    1  0.5981539E-005  0.1778382E+03  0.7546771E-02  0.1170983E+00
         -4   -1    0    0    0  501 -0.00000000000E+00  0.00000000000E+00  0.22922132671E+03  0.22922132671E+03  0.00000000000E+00 0.  1.
         21   -1    0    0  501  502  0.00000000000E+00 -0.00000000000E+00 -0.42586011130E+03  0.42586011130E+03  0.00000000000E+00 0.  1.
         23    2    1    2    0    0  0.64801971108E+02  0.13373535369E+03  0.12759977384E+03  0.21446100018E+03  0.87334861489E+02 0.  0.
        -24    2    1    2    0    0 -0.91810849150E+02 -0.15485116413E+03 -0.11271635556E+03  0.22633791578E+03  0.78203326391E+02 0.  0.
         13    1    4    4    0    0 -0.72721836585E+02 -0.15442125155E+03 -0.11678337382E+03  0.20681572679E+03  0.00000000000E+00 0. -1.
        -14    1    4    4    0    0 -0.19089012565E+02 -0.42991257345E+00  0.40670182626E+01  0.19522188993E+02  0.00000000000E+00 0.  1.
        -11    1    3    3    0    0  0.87386774720E+00  0.45393106723E+02 -0.15549910202E+01  0.45428138636E+02  0.00000000000E+00 0. -1.
         11    1    3    3    0    0  0.63928103361E+02  0.88342246965E+02  0.12915476486E+03  0.16903286155E+03  0.00000000000E+00 0.  1.
         -3    1    1    2    0  502  0.27008878042E+02  0.21115810439E+02 -0.21152220287E+03  0.21428252204E+03  0.00000000000E+00 0.  1.
<scales pt_clust_5="13000.00000" pt_clust_6="13000.00000" pt_clust_7="13000.00000" pt_clust_8="13000.00000" pt_clust_9="34.28348"></scales>
<clustering>
<clus scale="   34.283">  2  9  1 -1</clus>
<clus scale="   78.203">  5  6 -1 -1</clus>
<clus scale="   87.335">  7  8 -1 -1</clus>
<clus scale="  173.536">  2  5  1 -1</clus>
<clus scale="   34.283">  2  5  1 -1</clus>
</clustering>
</event>
<event>
 9    1  0.5981539E-005  0.1143419E+03  0.7546771E-02  0.1255438E+00
         21   -1    0    0  501  502  0.00000000000E+00  0.00000000000E+00  0.16473889271E+03  0.16473889271E+03  0.00000000000E+00 0. -1.
          1   -1    0    0  502    0 -0.00000000000E+00 -0.00000000000E+00 -0.52445939976E+03  0.52445939976E+03  0.00000000000E+00 0. -1.
        -24    2    1    2    0    0  0.32274103226E+02 -0.61891162379E+02 -0.45137490256E+03  0.46436624574E+03  0.83812730562E+02 0.  0.
         23    2    1    2    0    0 -0.88304477756E+02  0.11622410810E+02  0.40793248080E+02  0.13398488622E+03  0.91406232950E+02 0.  0.
         13    1    3    3    0    0  0.73699429802E+01 -0.75786754037E+02 -0.26145893711E+03  0.27232099431E+03  0.00000000000E+00 0. -1.
        -14    1    3    3    0    0  0.24904160246E+02  0.13895591659E+02 -0.18991596545E+03  0.19204525143E+03  0.00000000000E+00 0.  1.
        -11    1    4    4    0    0 -0.75132818375E+02 -0.12131904227E+02 -0.96284621766E+01  0.76712650724E+02  0.00000000000E+00 0. -1.
         11    1    4    4    0    0 -0.13171659380E+02  0.23754315036E+02  0.50421710257E+02  0.57272235497E+02  0.00000000000E+00 0.  1.
          2    1    1    2  501    0  0.56030374530E+02  0.50268751569E+02  0.50861147430E+02  0.90847160507E+02  0.00000000000E+00 0. -1.
<scales pt_clust_5="13000.00000" pt_clust_6="13000.00000" pt_clust_7="13000.00000" pt_clust_8="13000.00000" pt_clust_9="75.27516"></scales>
<clustering>
<clus scale="   75.275">  1  9  2 -1</clus>
<clus scale="   83.813">  5  6 -1 -1</clus>
<clus scale="   91.406">  7  8 -1 -1</clus>
<clus scale="  108.368">  2  5  1 -1</clus>
<clus scale="   75.275">  1  5  2 -1</clus>
</clustering>
</event>
<event>
 9    1  0.5981539E-005  0.1327522E+03  0.7546771E-02  0.1225557E+00
         -4   -1    0    0    0  501 -0.00000000000E+00  0.00000000000E+00  0.65982505262E+02  0.65982505262E+02  0.00000000000E+00 0.  1.
         21   -1    0    0  501  502  0.00000000000E+00 -0.00000000000E+00 -0.55553306205E+03  0.55553306205E+03  0.00000000000E+00 0.  1.
        -24    2    1    2    0    0 -0.31852397011E+01 -0.10692831743E+03 -0.62627595717E+02  0.14749631042E+03  0.79932065034E+02 0.  0.
         23    2    1    2    0    0  0.31741428692E+02  0.64587566311E+02 -0.40055474916E+03  0.41654336861E+03  0.88798642079E+02 0.  0.
         13    1    3    3    0    0 -0.29036768632E+02 -0.10613371420E+02 -0.28630773363E+02  0.42136667747E+02  0.00000000000E+00 0. -1.
        -14    1    3    3    0    0  0.25851528931E+02 -0.96314946014E+02 -0.33996822354E+02  0.10535964267E+03  0.00000000000E+00 0.  1.
        -13    1    4    4    0    0 -0.31194291400E+02  0.23784113014E+02 -0.13088073090E+03  0.13663284220E+03  0.00000000000E+00 0. -1.
         13    1    4    4    0    0  0.62935720092E+02  0.40803453297E+02 -0.26967401826E+03  0.27991052640E+03  0.00000000000E+00 0.  1.
         -3    1    1    2    0  502 -0.28556188991E+02  0.42340751123E+02 -0.26368211909E+02  0.57475888289E+02  0.00000000000E+00 0.  1.
<scales pt_clust_5="13000.00000" pt_clust_6="13000.00000" pt_clust_7="13000.00000" pt_clust_8="13000.00000" pt_clust_9="51.07052"></scales>
<clustering>
<clus scale="   51.071">  2  9  1 -1</clus>
<clus scale="   79.932">  5  6 -1 -1</clus>
<clus scale="   88.799">  7  8 -1 -1</clus>
<clus scale="  126.992">  1  5  2 -1</clus>
<clus scale="   51.071">  2  5  1 -1</clus>
</clustering>
</event>
<event>
 9    1  0.5981539E-005  0.1065228E+03  0.7546771E-02  0.1271418E+00
         -2   -1    0    0    0  501 -0.00000000000E+00  0.00000000000E+00  0.53111501057E+03  0.53111501057E+03  0.00000000000E+00 0.  1.
         21   -1    0    0  501  502  0.00000000000E+00 -0.00000000000E+00 -0.75030710760E+02  0.75030710760E+02  0.00000000000E+00 0.  1.
        -24    2    1    2    0    0  0.37974785413E+02  0.68092251395E+02  0.34071517340E+03  0.35903937087E+03  0.82120651606E+02 0.  0.
         23    2    1    2    0    0 -0.36444152281E+02  0.30692009601E+02  0.10537239602E+03  0.14780575793E+03  0.92049033365E+02 0.  0.
         13    1    3    3    0    0  0.27916710784E+02 -0.16504763640E+01  0.32516591784E+02  0.42888174996E+02  0.00000000000E+00 0. -1.
        -14    1    3    3    0    0  0.10058074629E+02  0.69742727759E+02  0.30819858162E+03  0.31615119588E+03  0.00000000000E+00 0.  1.
        -11    1    4    4    0    0  0.29491207070E+02  0.76094235069E+01  0.16106184341E+02  0.34453501920E+02  0.00000000000E+00 0.  1.
         11    1    4    4    0    0 -0.65935359350E+02  0.23082586094E+02  0.89266211683E+02  0.11335225601E+03  0.00000000000E+00 0. -1.
         -1    1    1    2    0  502 -0.15306331320E+01 -0.98784260996E+02  0.99967303776E+01  0.99300592529E+02  0.00000000000E+00 0.  1.
<scales pt_clust_5="13000.00000" pt_clust_6="13000.00000" pt_clust_7="13000.00000" pt_clust_8="13000.00000" pt_clust_9="98.79612"></scales>
<clustering>
<clus scale="   82.121">  5  6 -1 -1</clus>
<clus scale="   92.049">  7  8 -1 -1</clus>
<clus scale="   98.796">  2  9  1 -1</clus>
<clus scale="   98.071">  1  5  2 -1</clus>
<clus scale="   98.796">  2  5  1 -1</clus>
</clustering>
</event>
<event>
 9    1  0.5981539E-005  0.1177628E+03  0.7546771E-02  0.1251234E+00
          1   -1    0    0  502    0 -0.00000000000E+00  0.00000000000E+00  0.54801921658E+03  0.54801921658E+03  0.00000000000E+00 0. -1.
         21   -1    0    0  501  502  0.00000000000E+00 -0.00000000000E+00 -0.53747268767E+02  0.53747268767E+02  0.00000000000E+00 0.  1.
        -24    2    1    2    0    0  0.80360969489E+02 -0.22393136472E+01  0.41252053244E+03  0.42758407394E+03  0.78689584166E+02 0.  0.
         23    2    1    2    0    0 -0.46272142644E+02 -0.29333663088E+02  0.62802544594E+02  0.12400312605E+03  0.91820698578E+02 0.  0.
         13    1    3    3    0    0  0.84822976505E+02 -0.25271547282E+02  0.30811617607E+03  0.32057630356E+03  0.00000000000E+00 0. -1.
        -14    1    3    3    0    0 -0.44620070155E+01  0.23032233635E+02  0.10440435637E+03  0.10700777038E+03  0.00000000000E+00 0.  1.
        -13    1    4    4    0    0 -0.18345711518E+02 -0.22272536559E+02  0.83622730698E+02  0.88461246347E+02  0.00000000000E+00 0. -1.
         13    1    4    4    0    0 -0.27926431126E+02 -0.70611265287E+01 -0.20820186104E+02  0.35541879702E+02  0.00000000000E+00 0.  1.
          2    1    1    2  501    0 -0.34088826845E+02  0.31572976735E+02  0.18948870776E+02  0.50179285360E+02  0.00000000000E+00 0. -1.
<scales pt_clust_5="13000.00000" pt_clust_6="13000.00000" pt_clust_7="13000.00000" pt_clust_8="13000.00000" pt_clust_9="46.46398"></scales>
<clustering>
<clus scale="   46.464">  2  9  1 -1</clus>
<clus scale="   78.690">  5  6 -1 -1</clus>
<clus scale="   91.821">  7  8 -1 -1</clus>
<clus scale="  107.838">  1  5  2 -1</clus>
<clus scale="   46.464">  2  5  1 -1</clus>
</clustering>
</event>
<event>
 9    1  0.5981539E-005  0.3092451E+03  0.7546771E-02  0.1080708E+00
         21   -1    0    0  501  502  0.00000000000E+00  0.00000000000E+00  0.85881682120E+03  0.85881682120E+03  0.00000000000E+00 0.  1.
          1   -1    0    0  502    0 -0.00000000000E+00 -0.00000000000E+00 -0.10528111501E+03  0.10528111501E+03  0.00000000000E+00 0. -1.
        -24    2    1    2    0    0  0.16866216341E+02 -0.13868884208E+03  0.38360060682E+03  0.41563559443E+03  0.78002933493E+02 0.  0.
         23    2    1    2    0    0 -0.68341111853E+02 -0.90047854955E+02  0.23994073665E+03  0.28037900440E+03  0.90893923073E+02 0.  0.
         13    1    3    3    0    0  0.20199433807E+02 -0.14390832107E+03  0.38272000882E+03  0.40938029649E+03  0.00000000000E+00 0. -1.
        -14    1    3    3    0    0 -0.33332174666E+01  0.52194789820E+01  0.88059799474E+00  0.62552979427E+01  0.00000000000E+00 0.  1.
        -13    1    4    4    0    0 -0.30321224699E+02 -0.23722760204E+02  0.12568228791E+02  0.40498227046E+02  0.00000000000E+00 0. -1.
         13    1    4    4    0    0 -0.38019887154E+02 -0.66325094752E+02  0.22737250786E+03  0.23988077735E+03  0.00000000000E+00 0.  1.
          2    1    1    2  501    0  0.51474895512E+02  0.22873669704E+03  0.12999436273E+03  0.26808333738E+03  0.00000000000E+00 0. -1.
<scales pt_clust_5="13000.00000" pt_clust_6="13000.00000" pt_clust_7="13000.00000" pt_clust_8="13000.00000" pt_clust_9="234.45724"></scales>
<clustering>
<clus scale="   78.003">  5  6 -1 -1</clus>
<clus scale="   90.894">  7  8 -1 -1</clus>
<clus scale="  130.272">  5  7 -1 -1</clus>
<clus scale="  234.457">  1  9  2 -1</clus>
<clus scale="  234.457">  1  5  2 -1</clus>
</clustering>
</event>
<event>
 9    1  0.5981539E-005  0.1589950E+03  0.7546771E-02  0.1215241E+00
         21   -1    0    0  501  502  0.00000000000E+00  0.00000000000E+00  0.63120426631E+03  0.63120426631E+03  0.00000000000E+00 0.  1.
         -2   -1    0    0    0  501 -0.00000000000E+00 -0.00000000000E+00 -0.10092685211E+03  0.10092685211E+03  0.00000000000E+00 0.  1.
         23    2    1    2    0    0 -0.76780006708E+00 -0.30197491452E+01  0.73161855398E+02  0.11737387012E+03  0.91729275046E+02 0.  0.
        -24    2    1    2    0    0 -0.12627168485E+02  0.13669935948E+03  0.26068205529E+02  0.16325809640E+03  0.84424489541E+02 0.  0.
         11    1    4    4    0    0  0.25390851415E+02  0.80965725972E+01  0.86936497584E+01  0.28032648279E+02  0.00000000000E+00 0. -1.
        -12    1    4    4    0    0 -0.38018019900E+02  0.12860278688E+03  0.17374555771E+02  0.13522544812E+03  0.00000000000E+00 0.  1.
        -11    1    3    3    0    0 -0.37651727439E+02  0.25109846600E+02  0.32900482179E+02  0.55951753351E+02  0.00000000000E+00 0.  1.
         11    1    3    3    0    0  0.36883927372E+02 -0.28129595746E+02  0.40261373219E+02  0.61422116771E+02  0.00000000000E+00 0. -1.
         -1    1    1    2    0  502  0.13394968552E+02 -0.13367961034E+03  0.43104735327E+03  0.45149915190E+03  0.00000000000E+00 0.  1.
<scales pt_clust_5="13000.00000" pt_clust_6="13000.00000" pt_clust_7="13000.00000" pt_clust_8="13000.00000" pt_clust_9="134.72899"></scales>
<clustering>
<clus scale="   84.424">  5  6 -1 -1</clus>
<clus scale="   91.729">  7  8 -1 -1</clus>
<clus scale="   91.782">  2  7  1 -1</clus>
<clus scale="  134.729">  1  9  2 -1</clus>
<clus scale="  134.729">  1  5  2 -1</clus>
</clustering>
</event>
<event>
 9    1  0.5981539E-005  0.1026687E+03  0.7546771E-02  0.1281003E+00
         21   -1    0    0  501  502  0.00000000000E+00  0.00000000000E+00  0.68202750863E+02  0.68202750863E+02  0.00000000000E+00 0. -1.
          1   -1    0    0  502    0 -0.00000000000E+00 -0.00000000000E+00 -0.23914862756E+03  0.23914862756E+03  0.00000000000E+00 0. -1.
         23    2    1    2    0    0 -0.33228450098E+02 -0.16871421454E+02 -0.15274054380E+03  0.18291009719E+03  0.93475425515E+02 0.  0.
        -24    2    1    2    0    0  0.43339237105E+02  0.36936071196E+02 -0.23173062108E+02  0.10143048992E+03  0.80675836845E+02 0.  0.
         13    1    4    4    0    0  0.23649742811E+02  0.24607137630E+02  0.28700212579E+02  0.44592866688E+02  0.00000000000E+00 0. -1.
        -14    1    4    4    0    0  0.19689494294E+02  0.12328933566E+02 -0.51873274687E+02  0.56837623237E+02  0.00000000000E+00 0.  1.
        -13    1    3    3    0    0  0.22521275152E+02 -0.32112893759E+02 -0.38916887115E+02  0.55253686599E+02  0.00000000000E+00 0.  1.
         13    1    3    3    0    0 -0.55749725250E+02  0.15241472305E+02 -0.11382365668E+03  0.12765641059E+03  0.00000000000E+00 0. -1.
          2    1    1    2  501    0 -0.10110787007E+02 -0.20064649743E+02  0.49677292119E+01  0.23010791310E+02  0.00000000000E+00 0. -1.
<scales pt_clust_5="13000.00000" pt_clust_6="13000.00000" pt_clust_7="13000.00000" pt_clust_8="13000.00000" pt_clust_9="22.46816"></scales>
<clustering>
<clus scale="   22.468">  1  9  2 -1</clus>
<clus scale="   80.676">  5  6 -1 -1</clus>
<clus scale="   91.169">  1  5  2 -1</clus>
<clus scale="   93.475">  7  8 -1 -1</clus>
<clus scale="   22.468">  1  5  2 -1</clus>
</clustering>
</event>
<event>
 9    1  0.5981539E-005  0.1149669E+03  0.7546771E-02  0.1258900E+00
          1   -1    0    0  502    0 -0.00000000000E+00  0.00000000000E+00  0.59479770019E+03  0.59479770019E+03  0.00000000000E+00 0. -1.
         21   -1    0    0  501  502  0.00000000000E+00 -0.00000000000E+00 -0.37473822587E+02  0.37473822587E+02  0.00000000000E+00 0.  1.
         23    2    1    2    0    0 -0.38179668327E+02 -0.55388998753E+02  0.45425554853E+03  0.46937211891E+03  0.97141414354E+02 0.  0.
        -24    2    1    2    0    0  0.28033188015E+02  0.30312407139E+02  0.46046924538E+02  0.99786591500E+02  0.78309277401E+02 0.  0.
         13    1    4    4    0    0  0.17083494668E+02 -0.23088529463E+02  0.46003710563E+00  0.28725208737E+02  0.00000000000E+00 0. -1.
        -14    1    4    4    0    0  0.10949693346E+02  0.53400936602E+02  0.45586887432E+02  0.71061382763E+02  0.00000000000E+00 0.  1.
        -11    1    3    3    0    0  0.16265962047E+01  0.25965884579E+02  0.13666318479E+03  0.13911757277E+03  0.00000000000E+00 0.  1.
         11    1    3    3    0    0 -0.39806264532E+02 -0.81354883332E+02  0.31759236374E+03  0.33025454614E+03  0.00000000000E+00 0. -1.
          2    1    1    2  501    0  0.10146480313E+02  0.25076591614E+02  0.57021404529E+02  0.63112812362E+02  0.00000000000E+00 0. -1.
<scales pt_clust_5="13000.00000" pt_clust_6="13000.00000" pt_clust_7="13000.00000" pt_clust_8="13000.00000" pt_clust_9="27.05157"></scales>
<clustering>
<clus scale="   27.052">  2  9  1 -1</clus>
<clus scale="   78.309">  5  6 -1 -1</clus>
<clus scale="   97.141">  7  8 -1 -1</clus>
<clus scale="   99.565">  2  5  1 -1</clus>
<clus scale="   27.052">  2  5  1 -1</clus>
</clustering>
</event>
<event>
 9    1  0.5981539E-005  0.1129495E+03  0.7546771E-02  0.1260390E+00
         -4   -1    0    0    0  501 -0.00000000000E+00  0.00000000000E+00  0.12352858347E+03  0.12352858347E+03  0.00000000000E+00 0.  1.
         21   -1    0    0  501  502  0.00000000000E+00 -0.00000000000E+00 -0.32943457275E+03  0.32943457275E+03  0.00000000000E+00 0.  1.
        -24    2    1    2    0    0 -0.90829142534E+00 -0.69034198483E+02 -0.21770806157E+01  0.10385800441E+03  0.77557719456E+02 0.  0.
         23    2    1    2    0    0  0.38313347697E+02  0.49487129568E+02 -0.25773104392E+03  0.28056715687E+03  0.91519123189E+02 0.  0.
         11    1    3    3    0    0  0.25431361707E+02 -0.68015594856E+02  0.12508169810E+02  0.73683984785E+02  0.00000000000E+00 0. -1.
        -12    1    3    3    0    0 -0.26339653132E+02 -0.10186036276E+01 -0.14685250426E+02  0.30174019628E+02  0.00000000000E+00 0.  1.
        -11    1    4    4    0    0 -0.27258232253E+02  0.98892031091E+01 -0.37554331779E+02  0.47446131550E+02  0.00000000000E+00 0. -1.
         11    1    4    4    0    0  0.65571579950E+02  0.39597926459E+02 -0.22017671214E+03  0.23312102532E+03  0.00000000000E+00 0.  1.
         -3    1    1    2    0  502 -0.37405056271E+02  0.19547068915E+02  0.54002135254E+02  0.68537994936E+02  0.00000000000E+00 0.  1.
<scales pt_clust_5="13000.00000" pt_clust_6="13000.00000" pt_clust_7="13000.00000" pt_clust_8="13000.00000" pt_clust_9="42.20460"></scales>
<clustering>
<clus scale="   42.205">  2  9  1 -1</clus>
<clus scale="   77.558">  5  6 -1 -1</clus>
<clus scale="   91.519">  7  8 -1 -1</clus>
<clus scale="  101.966">  1  5  2 -1</clus>
<clus scale="   42.205">  2  5  1 -1</clus>
</clustering>
</event>
<event>
 9    1  0.5981539E-005  0.9478602E+02  0.7546771E-02  0.1295767E+00
         21   -1    0    0  501  502  0.00000000000E+00  0.00000000000E+00  0.41908844861E+02  0.41908844861E+02  0.00000000000E+00 0. -1.
          1   -1    0    0  502    0 -0.00000000000E+00 -0.00000000000E+00 -0.29982823281E+03  0.29982823281E+03  0.00000000000E+00 0. -1.
         23    2    1    2    0    0  0.33090267713E+02 -0.35522898600E+01 -0.99987566168E+02  0.13962517347E+03  0.91597440451E+02 0.  0.
        -24    2    1    2    0    0 -0.12972695909E+02 -0.20188629234E+02 -0.82054121238E+02  0.12010109166E+03  0.84353552479E+02 0.  0.
         11    1    4    4    0    0  0.30356443484E+02 -0.29476196864E+02 -0.30733323115E+02  0.52296242621E+02  0.00000000000E+00 0. -1.
        -12    1    4    4    0    0 -0.43329139393E+02  0.92875676300E+01 -0.51320798123E+02  0.67804849037E+02  0.00000000000E+00 0.  1.
        -11    1    3    3    0    0 -0.77450950282E+01  0.36009866494E+02 -0.21309496277E+02  0.42553397202E+02  0.00000000000E+00 0. -1.
         11    1    3    3    0    0  0.40835362741E+02 -0.39562156354E+02 -0.78678069891E+02  0.97071776265E+02  0.00000000000E+00 0.  1.
          2    1    1    2  501    0 -0.20117571804E+02  0.23740919094E+02 -0.75877700545E+02  0.82010812547E+02  0.00000000000E+00 0. -1.
<scales pt_clust_5="13000.00000" pt_clust_6="13000.00000" pt_clust_7="13000.00000" pt_clust_8="13000.00000" pt_clust_9="31.11830"></scales>
<clustering>
<clus scale="   31.118">  1  9  2 -1</clus>
<clus scale="   84.354">  5  6 -1 -1</clus>
<clus scale="   87.806">  1  5  2 -1</clus>
<clus scale="   91.597">  7  8 -1 -1</clus>
<clus scale="   31.118">  1  5  2 -1</clus>
</clustering>
</event>
<event>
 9    1  0.5981539E-005  0.1160338E+03  0.7546771E-02  0.1253836E+00
         -2   -1    0    0    0  501 -0.00000000000E+00  0.00000000000E+00  0.87505524204E+02  0.87505524204E+02  0.00000000000E+00 0.  1.
         21   -1    0    0  501  502  0.00000000000E+00 -0.00000000000E+00 -0.46175505994E+03  0.46175505994E+03  0.00000000000E+00 0. -1.
         23    2    1    2    0    0  0.30923537401E+01 -0.72847372371E+02  0.23778878445E+02  0.12090708398E+03  0.93470773952E+02 0.  0.
        -24    2    1    2    0    0  0.34328763763E+02  0.50978576524E+02 -0.19032097058E+03  0.21617205330E+03  0.82042705336E+02 0.  0.
         13    1    4    4    0    0  0.40029702623E+02  0.31659778630E+02 -0.18923933420E+03  0.19600062317E+03  0.00000000000E+00 0. -1.
        -14    1    4    4    0    0 -0.57009388599E+01  0.19318797894E+02 -0.10816363752E+01  0.20171430123E+02  0.00000000000E+00 0.  1.
        -11    1    3    3    0    0 -0.23392116950E+02 -0.13711344661E+02  0.45160106912E+02  0.52674731742E+02  0.00000000000E+00 0.  1.
         11    1    3    3    0    0  0.26484470690E+02 -0.59136027710E+02 -0.21381228466E+02  0.68232352237E+02  0.00000000000E+00 0. -1.
         -1    1    1    2    0  502 -0.37421117503E+02  0.21868795847E+02 -0.20770744360E+03  0.21218144687E+03  0.00000000000E+00 0.  1.
<scales pt_clust_5="13000.00000" pt_clust_6="13000.00000" pt_clust_7="13000.00000" pt_clust_8="13000.00000" pt_clust_9="43.34264"></scales>
<clustering>
<clus scale="   43.343">  2  9  1 -1</clus>
<clus scale="   82.043">  5  6 -1 -1</clus>
<clus scale="   93.471">  7  8 -1 -1</clus>
<clus scale="  107.042">  2  5  1 -1</clus>
<clus scale="   43.343">  2  5  1 -1</clus>
</clustering>
</event>
<event>
 9    1  0.5981539E-005  0.1550199E+03  0.7546771E-02  0.1196278E+00
         21   -1    0    0  501  502  0.00000000000E+00  0.00000000000E+00  0.51340010627E+03  0.51340010627E+03  0.00000000000E+00 0. -1.
          1   -1    0    0  502    0 -0.00000000000E+00 -0.00000000000E+00 -0.20153472019E+03  0.20153472019E+03  0.00000000000E+00 0. -1.
         23    2    1    2    0    0  0.36067091958E+02 -0.12456721516E+03 -0.39274556934E+02  0.16367563074E+03  0.91811737049E+02 0.  0.
        -24    2    1    2    0    0 -0.10973990086E+03  0.60189334609E+02  0.41055467379E+03  0.43679389745E+03  0.81044227673E+02 0.  0.
         11    1    4    4    0    0 -0.84852087492E+02  0.21039395701E+02  0.34860554748E+03  0.35940000092E+03  0.00000000000E+00 0. -1.
        -12    1    4    4    0    0 -0.24887813366E+02  0.39149938907E+02  0.61949126306E+02  0.77393896534E+02  0.00000000000E+00 0.  1.
        -13    1    3    3    0    0  0.15887701241E+02 -0.12674870646E+03 -0.53912006095E+02  0.13865121003E+03  0.00000000000E+00 0. -1.
         13    1    3    3    0    0  0.20179390717E+02  0.21814913011E+01  0.14637449161E+02  0.25024420712E+02  0.00000000000E+00 0.  1.
          2    1    1    2  501    0  0.73672808900E+02  0.64377880554E+02 -0.59414730778E+02  0.11446529828E+03  0.00000000000E+00 0. -1.
<scales pt_clust_5="13000.00000" pt_clust_6="13000.00000" pt_clust_7="13000.00000" pt_clust_8="13000.00000" pt_clust_9="97.83764"></scales>
<clustering>
<clus scale="   81.044">  5  6 -1 -1</clus>
<clus scale="   91.812">  7  8 -1 -1</clus>
<clus scale="   97.838">  1  9  2 -1</clus>
<clus scale="  148.896">  1  5  2 -1</clus>
<clus scale="   97.838">  1  5  2 -1</clus>
</clustering>
</event>
<event>
 9    1  0.5981539E-005  0.1502791E+03  0.7546771E-02  0.1201959E+00
         21   -1    0    0  501  502  0.00000000000E+00  0.00000000000E+00  0.90393372074E+02  0.90393372074E+02  0.00000000000E+00 0.  1.
          1   -1    0    0  502    0 -0.00000000000E+00 -0.00000000000E+00 -0.38877829480E+03  0.38877829480E+03  0.00000000000E+00 0. -1.
         23    2    1    2    0    0 -0.77085110746E+02  0.92232197523E+02 -0.14940187243E+03  0.21224940840E+03  0.90994501613E+02 0.  0.
        -24    2    1    2    0    0  0.28860711804E+02 -0.12359275878E+03 -0.62406970863E+02  0.16297758576E+03  0.80987361590E+02 0.  0.
         13    1    4    4    0    0  0.20933894688E+02 -0.10640330203E+03 -0.81832472650E+02  0.13585449647E+03  0.00000000000E+00 0. -1.
        -14    1    4    4    0    0  0.79268171161E+01 -0.17189456749E+02  0.19425501787E+02  0.27123089289E+02  0.00000000000E+00 0.  1.
        -11    1    3    3    0    0 -0.33056649391E+02 -0.67536310332E+01 -0.70718722437E+02  0.78354906064E+02  0.00000000000E+00 0.  1.
         11    1    3    3    0    0 -0.44028461354E+02  0.98985828556E+02 -0.78683149989E+02  0.13389450234E+03  0.00000000000E+00 0. -1.
          2    1    1    2  501    0  0.48224398942E+02  0.31360561259E+02 -0.86576079439E+02  0.10394467272E+03  0.00000000000E+00 0. -1.
<scales pt_clust_5="13000.00000" pt_clust_6="13000.00000" pt_clust_7="13000.00000" pt_clust_8="13000.00000" pt_clust_9="57.52461"></scales>
<clustering>
<clus scale="   57.525">  1  9  2 -1</clus>
<clus scale="   80.987">  5  6 -1 -1</clus>
<clus scale="   90.995">  7  8 -1 -1</clus>
<clus scale="  144.439">  1  5  2 -1</clus>
<clus scale="   57.525">  1  5  2 -1</clus>
</clustering>
</event>
<event>
 9    1  0.5981539E-005  0.1069803E+03  0.7546771E-02  0.1271331E+00
         -2   -1    0    0    0  501 -0.00000000000E+00  0.00000000000E+00  0.27984112843E+03  0.27984112843E+03  0.00000000000E+00 0.  1.
         21   -1    0    0  501  502  0.00000000000E+00 -0.00000000000E+00 -0.81011234214E+02  0.81011234214E+02  0.00000000000E+00 0.  1.
        -24    2    1    2    0    0 -0.46963854134E+02 -0.36869718019E+02  0.16111663689E+03  0.18897026544E+03  0.78652468722E+02 0.  0.
         23    2    1    2    0    0  0.40619640927E+02  0.17172307948E+02 -0.26618313298E+02  0.10430408315E+03  0.90697099012E+02 0.  0.
         13    1    3    3    0    0 -0.66400095504E+02 -0.19119877119E+02  0.92355027554E+02  0.11534293866E+03  0.00000000000E+00 0. -1.
        -14    1    3    3    0    0  0.19436241370E+02 -0.17749840900E+02  0.68761609337E+02  0.73627326783E+02  0.00000000000E+00 0.  1.
        -11    1    4    4    0    0  0.21343497662E+02  0.27354965154E+02  0.28583202644E+02  0.44953737157E+02  0.00000000000E+00 0. -1.
         11    1    4    4    0    0  0.19276143264E+02 -0.10182657206E+02 -0.55201515942E+02  0.59350345991E+02  0.00000000000E+00 0.  1.
         -1    1    1    2    0  502  0.63442132071E+01  0.19697410071E+02  0.64331570625E+02  0.67578014056E+02  0.00000000000E+00 0.  1.
<scales pt_clust_5="13000.00000" pt_clust_6="13000.00000" pt_clust_7="13000.00000" pt_clust_8="13000.00000" pt_clust_9="20.69390"></scales>
<clustering>
<clus scale="   20.694">  2  9  1 -1</clus>
<clus scale="   78.652">  5  6 -1 -1</clus>
<clus scale="   90.697">  7  8 -1 -1</clus>
<clus scale="   96.980">  1  5  2 -1</clus>
<clus scale="   20.694">  2  5  1 -1</clus>
</clustering>
</event>
<event>
 9    1  0.1998235E-004  0.1575065E+03  0.7546771E-02  0.1212267E+00
         21   -1    0    0  501  502  0.00000000000E+00  0.00000000000E+00  0.24038169052E+03  0.24038169052E+03  0.00000000000E+00 0. -1.
          1   -1    0    0  502    0 -0.00000000000E+00 -0.00000000000E+00 -0.12760162791E+04  0.12760162791E+04  0.00000000000E+00 0. -1.
         23    2    1    2    0    0  0.15867622180E+02  0.42176448270E+02  0.21147347585E+03  0.23416448599E+03  0.89896280717E+02 0.  0.
        -24    2    1    2    0    0 -0.69715781044E+02  0.96053176834E+02 -0.74375097441E+03  0.75747123885E+03  0.80688678529E+02 0.  0.
         11    1    4    4    0    0 -0.87004586773E+02  0.89904006157E+02 -0.65554719301E+03  0.66737894086E+03  0.00000000000E+00 0. -1.
        -12    1    4    4    0    0  0.17288805729E+02  0.61491706767E+01 -0.88203781404E+02  0.90092297992E+02  0.00000000000E+00 0.  1.
        -13    1    3    3    0    0  0.50879946515E+02  0.34551248333E+02  0.10343333073E+03  0.12033707502E+03  0.00000000000E+00 0. -1.
         13    1    3    3    0    0 -0.35012324335E+02  0.76251999371E+01  0.10804014512E+03  0.11382741097E+03  0.00000000000E+00 0.  1.
          2    1    1    2  501    0  0.53848158865E+02 -0.13822962510E+03 -0.50335709006E+03  0.52476224481E+03  0.00000000000E+00 0. -1.
<scales pt_clust_5="13000.00000" pt_clust_6="13000.00000" pt_clust_7="13000.00000" pt_clust_8="13000.00000" pt_clust_9="135.26875"></scales>
<clustering>
<clus scale="   80.689">  5  6 -1 -1</clus>
<clus scale="   89.896">  7  8 -1 -1</clus>
<clus scale="  100.558">  2  7  1 -1</clus>
<clus scale="  135.269">  1  9  2 -1</clus>
<clus scale="  135.269">  1  5  2 -1</clus>
</clustering>
</event>
<event>
 9    1  0.5981539E-005  0.1188244E+03  0.7546771E-02  0.1262462E+00
         -2   -1    0    0    0  501 -0.00000000000E+00  0.00000000000E+00  0.50024446834E+03  0.50024446834E+03  0.00000000000E+00 0.  1.
         21   -1    0    0  501  502  0.00000000000E+00 -0.00000000000E+00 -0.10063535310E+03  0.10063535310E+03  0.00000000000E+00 0.  1.
        -24    2    1    2    0    0  0.15843443871E+02  0.17350000657E+02 -0.95526062039E+01  0.84630326315E+02  0.80740340664E+02 0.  0.
         23    2    1    2    0    0 -0.92775151763E+02  0.24485426579E+02  0.41012253148E+03  0.42867316381E+03  0.79708378764E+02 0.  0.
         13    1    3    3    0    0 -0.31543524418E+02 -0.11279931932E+01  0.44500572144E+01  0.31875842116E+02  0.00000000000E+00 0. -1.
        -14    1    3    3    0    0  0.47386968289E+02  0.18477993850E+02 -0.14002663418E+02  0.52754484200E+02  0.00000000000E+00 0.  1.
        -11    1    4    4    0    0 -0.29318549936E+02 -0.22260463757E+02  0.21677784802E+03  0.21988119748E+03  0.00000000000E+00 0.  1.
         11    1    4    4    0    0 -0.63456601826E+02  0.46745890336E+02  0.19334468347E+03  0.20879196633E+03  0.00000000000E+00 0. -1.
         -1    1    1    2    0  502  0.76931707892E+02 -0.41835427236E+02 -0.96081004075E+00  0.87576331318E+02  0.00000000000E+00 0.  1.
<scales pt_clust_5="13000.00000" pt_clust_6="13000.00000" pt_clust_7="13000.00000" pt_clust_8="13000.00000" pt_clust_9="88.12387"></scales>
<clustering>
<clus scale="   79.708">  7  8 -1 -1</clus>
<clus scale="   80.740">  5  6 -1 -1</clus>
<clus scale="   84.090">  1  5  2 -1</clus>
<clus scale="   88.124">  2  9  1 -1</clus>
<clus scale="   88.124">  2  5  1 -1</clus>
</clustering>
</event>
<event>
 9    1  0.5981539E-005  0.1012311E+03  0.7546771E-02  0.1282817E+00
         21   -1    0    0  501  502  0.00000000000E+00  0.00000000000E+00  0.12717921532E+03  0.12717921532E+03  0.00000000000E+00 0. -1.
          1   -1    0    0  502    0 -0.00000000000E+00 -0.00000000000E+00 -0.18825300787E+03  0.18825300787E+03  0.00000000000E+00 0. -1.
         23    2    1    2    0    0 -0.11923154975E+02 -0.42738124401E+02 -0.11602734497E+03  0.15344689423E+03  0.90082715691E+02 0.  0.
        -24    2    1    2    0    0  0.31942209855E+02  0.42167395096E+02 -0.81385104220E+01  0.95790943375E+02  0.79443536560E+02 0.  0.
         13    1    4    4    0    0  0.14067893155E+01  0.43080674917E+02 -0.34679652004E+02  0.55322706645E+02  0.00000000000E+00 0. -1.
        -14    1    4    4    0    0  0.30535420539E+02 -0.91327982060E+00  0.26541141582E+02  0.40468236730E+02  0.00000000000E+00 0.  1.
        -13    1    3    3    0    0 -0.13708096338E+02  0.20490921554E+02 -0.42558124302E+01  0.25018027716E+02  0.00000000000E+00 0. -1.
         13    1    3    3    0    0  0.17849413625E+01 -0.63229045955E+02 -0.11177153254E+03  0.12842886651E+03  0.00000000000E+00 0.  1.
          2    1    1    2  501    0 -0.20019054880E+02  0.57072930508E+00  0.63092062839E+02  0.66194385589E+02  0.00000000000E+00 0. -1.
<scales pt_clust_5="13000.00000" pt_clust_6="13000.00000" pt_clust_7="13000.00000" pt_clust_8="13000.00000" pt_clust_9="20.02719"></scales>
<clustering>
<clus scale="   20.027">  1  9  2 -1</clus>
<clus scale="   79.444">  5  6 -1 -1</clus>
<clus scale="   90.083">  7  8 -1 -1</clus>
<clus scale="   91.892">  1  5  2 -1</clus>
<clus scale="   20.027">  1  5  2 -1</clus>
</clustering>
</event>
<event>
 9    1  0.5981539E-005  0.9608340E+02  0.7546771E-02  0.1294694E+00
         -4   -1    0    0    0  501 -0.00000000000E+00  0.00000000000E+00  0.27155493956E+03  0.27155493956E+03  0.00000000000E+00 0.  1.
         21   -1    0    0  501  502  0.00000000000E+00 -0.00000000000E+00 -0.10971891317E+03  0.10971891317E+03  0.00000000000E+00 0. -1.
        -24    2    1    2    0    0 -0.29871796857E+02 -0.75520519332E+01  0.19663875956E+03  0.21433109827E+03  0.79508868614E+02 0.  0.
         23    2    1    2    0    0  0.45012602848E+02 -0.14245667208E+02  0.21979731012E+02  0.10426394781E+03  0.90326013904E+02 0.  0.
         11    1    3    3    0    0 -0.87018023528E+01  0.35896519271E+02  0.84375772315E+02  0.92106201820E+02  0.00000000000E+00 0. -1.
        -12    1    3    3    0    0 -0.21169994504E+02 -0.43448571204E+02  0.11226298725E+03  0.12222489645E+03  0.00000000000E+00 0.  1.
        -11    1    4    4    0    0  0.38583086672E+02  0.16278107453E+02 -0.24327754398E+02  0.48430062910E+02  0.00000000000E+00 0. -1.
         11    1    4    4    0    0  0.64295161764E+01 -0.30523774661E+02  0.46307485410E+02  0.55833884899E+02  0.00000000000E+00 0.  1.
         -3    1    1    2    0  502 -0.15140805991E+02  0.21797719141E+02 -0.56782464175E+02  0.62678806655E+02  0.00000000000E+00 0.  1.
<scales pt_clust_5="13000.00000" pt_clust_6="13000.00000" pt_clust_7="13000.00000" pt_clust_8="13000.00000" pt_clust_9="26.54024"></scales>
<clustering>
<clus scale="   26.540">  2  9  1 -1</clus>
<clus scale="   79.509">  5  6 -1 -1</clus>
<clus scale="   85.994">  1  5  2 -1</clus>
<clus scale="   90.326">  7  8 -1 -1</clus>
<clus scale="   26.540">  2  5  1 -1</clus>
</clustering>
</event>
<event>
 9    1  0.5981539E-005  0.3662488E+03  0.7546771E-02  0.1056137E+00
         21   -1    0    0  501  502  0.00000000000E+00  0.00000000000E+00  0.11695241692E+04  0.11695241692E+04  0.00000000000E+00 0. -1.
          1   -1    0    0  502    0 -0.00000000000E+00 -0.00000000000E+00 -0.95009431786E+02  0.95009431786E+02  0.00000000000E+00 0. -1.
        -24    2    1    2    0    0  0.43470861606E+02  0.85292535908E+02  0.15464883369E+03  0.19913515078E+03  0.81080293665E+02 0.  0.
         23    2    1    2    0    0 -0.77190763751E+02  0.20717838632E+03  0.35567190799E+03  0.42900931064E+03  0.93086973926E+02 0.  0.
         11    1    3    3    0    0  0.41435048857E+02  0.83285626675E+01  0.86680478717E+02  0.96435126486E+02  0.00000000000E+00 0. -1.
        -12    1    3    3    0    0  0.20358127487E+01  0.76963973240E+02  0.67968354978E+02  0.10270002429E+03  0.00000000000E+00 0.  1.
        -11    1    4    4    0    0  0.19816462292E+02  0.30798637376E+02  0.76705567330E+02  0.84999954714E+02  0.00000000000E+00 0.  1.
         11    1    4    4    0    0 -0.97007226043E+02  0.17637974895E+03  0.27896634066E+03  0.34400935593E+03  0.00000000000E+00 0. -1.
          2    1    1    2  501    0  0.33719902145E+02 -0.29247092223E+03  0.56419399575E+03  0.63638913959E+03  0.00000000000E+00 0. -1.
<scales pt_clust_5="13000.00000" pt_clust_6="13000.00000" pt_clust_7="13000.00000" pt_clust_8="13000.00000" pt_clust_9="294.40834"></scales>
<clustering>
<clus scale="   81.080">  5  6 -1 -1</clus>
<clus scale="   93.087">  7  8 -1 -1</clus>
<clus scale="  122.465">  5  7 -1 -1</clus>
<clus scale="  294.408">  1  9  2 -1</clus>
<clus scale="  294.408">  1  5  2 -1</clus>
</clustering>
</event>
<event>
 9    1  0.5981539E-005  0.1789537E+03  0.7546771E-02  0.1202548E+00
          1   -1    0    0  502    0 -0.00000000000E+00  0.00000000000E+00  0.20446858514E+03  0.20446858514E+03  0.00000000000E+00 0. -1.
         21   -1    0    0  501  502  0.00000000000E+00 -0.00000000000E+00 -0.51975898836E+03  0.51975898836E+03  0.00000000000E+00 0. -1.
        -24    2    1    2    0    0  0.12662927337E+02  0.24245653391E+02 -0.18751544447E+03  0.20565624914E+03  0.79901498480E+02 0.  0.
         23    2    1    2    0    0  0.37104787158E+02  0.14796899727E+03 -0.24715177018E+03  0.30319831209E+03  0.87026602650E+02 0.  0.
         11    1    3    3    0    0 -0.32588222144E+02  0.17769026766E+02 -0.64437134653E+02  0.74363128343E+02  0.00000000000E+00 0. -1.
        -12    1    3    3    0    0  0.45251149481E+02  0.64766266242E+01 -0.12307830981E+03  0.13129312080E+03  0.00000000000E+00 0.  1.
        -11    1    4    4    0    0  0.57369536069E+02  0.14048547346E+03 -0.23030281228E+03  0.27580213427E+03  0.00000000000E+00 0. -1.
         11    1    4    4    0    0 -0.20264748911E+02  0.74835238102E+01 -0.16848957895E+02  0.27396177821E+02  0.00000000000E+00 0.  1.
          2    1    1    2  501    0 -0.49767714495E+02 -0.17221465066E+03  0.11937681143E+03  0.21537301227E+03  0.00000000000E+00 0. -1.
<scales pt_clust_5="13000.00000" pt_clust_6="13000.00000" pt_clust_7="13000.00000" pt_clust_8="13000.00000" pt_clust_9="156.36756"></scales>
<clustering>
<clus scale="   79.901">  5  6 -1 -1</clus>
<clus scale="   84.454">  1  5  2 -1</clus>
<clus scale="   87.027">  7  8 -1 -1</clus>
<clus scale="  156.368">  2  9  1 -1</clus>
<clus scale="  156.368">  2  5  1 -1</clus>
</clustering>
</event>
<event>
 9    1  0.5981539E-005  0.1612689E+03  0.7546771E-02  0.1203737E+00
         21   -1    0    0  501  502  0.00000000000E+00  0.00000000000E+00  0.97455415803E+02  0.97455415803E+02  0.00000000000E+00 0. -1.
          1   -1    0    0  502    0 -0.00000000000E+00 -0.00000000000E+00 -0.81388369423E+03  0.81388369423E+03  0.00000000000E+00 0. -1.
         23    2    1    2    0    0 -0.33097120573E+02 -0.35329848055E+02 -0.24088882982E+03  0.26585130896E+03  0.10151784370E+03 0.  0.
        -24    2    1    2    0    0  0.16416714848E+03 -0.10987504589E+01 -0.47524937333E+03  0.50944928024E+03  0.82003307243E+02 0.  0.
         11    1    4    4    0    0  0.14529408612E+03 -0.12718600431E+02 -0.30856922128E+03  0.34130206354E+03  0.00000000000E+00 0. -1.
        -12    1    4    4    0    0  0.18873062356E+02  0.11619849972E+02 -0.16668015205E+03  0.16814721670E+03  0.00000000000E+00 0.  1.
        -13    1    3    3    0    0  0.76153186649E+01 -0.43954428731E+02 -0.20821852835E+03  0.21294351465E+03  0.00000000000E+00 0. -1.
         13    1    3    3    0    0 -0.40712439238E+02  0.86245806767E+01 -0.32670301466E+02  0.52907794307E+02  0.00000000000E+00 0.  1.
          2    1    1    2  501    0 -0.13107002791E+03  0.36428598514E+02 -0.29007527918E+00  0.13603852083E+03  0.00000000000E+00 0. -1.
<scales pt_clust_5="13000.00000" pt_clust_6="13000.00000" pt_clust_7="13000.00000" pt_clust_8="13000.00000" pt_clust_9="138.86370"></scales>
<clustering>
<clus scale="   82.003">  5  6 -1 -1</clus>
<clus scale="  101.518">  7  8 -1 -1</clus>
<clus scale="  112.470">  2  7  1 -1</clus>
<clus scale="  138.864">  1  9  2 -1</clus>
<clus scale="  138.864">  1  5  2 -1</clus>
</clustering>
</event>
<event>
 9    1  0.5981539E-005  0.1717303E+03  0.7546771E-02  0.1213611E+00
         21   -1    0    0  501  502  0.00000000000E+00  0.00000000000E+00  0.12726592173E+03  0.12726592173E+03  0.00000000000E+00 0. -1.
          3   -1    0    0  502    0 -0.00000000000E+00 -0.00000000000E+00 -0.42538350710E+03  0.42538350710E+03  0.00000000000E+00 0. -1.
        -24    2    1    2    0    0 -0.13198685308E+02  0.12850940448E+02 -0.80604466092E+02  0.11037320856E+03  0.73115068557E+02 0.  0.
         23    2    1    2    0    0 -0.55996531688E+02 -0.13424349003E+03  0.12096220702E+02  0.17349270485E+03  0.93789519165E+02 0.  0.
         11    1    3    3    0    0 -0.36202151398E+02  0.27674907896E+02 -0.63295839908E+02  0.77992689674E+02  0.00000000000E+00 0. -1.
        -12    1    3    3    0    0  0.23003466090E+02 -0.14823967448E+02 -0.17308626183E+02  0.32380518887E+02  0.00000000000E+00 0.  1.
        -11    1    4    4    0    0 -0.30527628533E+02 -0.13576372946E+02  0.34636380726E+02  0.48124140263E+02  0.00000000000E+00 0.  1.
         11    1    4    4    0    0 -0.25468903155E+02 -0.12066711709E+03 -0.22540160024E+02  0.12536856459E+03  0.00000000000E+00 0. -1.
          4    1    1    2  501    0  0.69195216996E+02  0.12139254958E+03 -0.22960933998E+03  0.26878351541E+03  0.00000000000E+00 0. -1.
<scales pt_clust_5="13000.00000" pt_clust_6="13000.00000" pt_clust_7="13000.00000" pt_clust_8="13000.00000" pt_clust_9="143.85698"></scales>
<clustering>
<clus scale="   73.115">  5  6 -1 -1</clus>
<clus scale="   75.400">  2  5  1 -1</clus>
<clus scale="   93.790">  7  8 -1 -1</clus>
<clus scale="  143.857">  1  9  2 -1</clus>
<clus scale="  143.857">  1  5  2 -1</clus>
</clustering>
</event>
<event>
 9    1  0.5981539E-005  0.2243433E+03  0.7546771E-02  0.1130686E+00
         21   -1    0    0  501  502  0.00000000000E+00  0.00000000000E+00  0.25355435181E+02  0.25355435181E+02  0.00000000000E+00 0. -1.
          1   -1    0    0  502    0 -0.00000000000E+00 -0.00000000000E+00 -0.12649177817E+04  0.12649177817E+04  0.00000000000E+00 0. -1.
        -24    2    1    2    0    0 -0.86233888825E+02  0.47615187868E+02 -0.42399803767E+03  0.44259178344E+03  0.80060359223E+02 0.  0.
         23    2    1    2    0    0 -0.27705555231E+02  0.20192411528E+02 -0.40590919337E+03  0.41710347177E+03  0.89653229833E+02 0.  0.
         11    1    3    3    0    0 -0.10026636488E+03  0.30635790597E+02 -0.34475133568E+03  0.36034064307E+03  0.00000000000E+00 0. -1.
        -12    1    3    3    0    0  0.14032476054E+02  0.16979397271E+02 -0.79246701990E+02  0.82251140370E+02  0.00000000000E+00 0.  1.
        -13    1    4    4    0    0  0.16057680625E+02  0.43188359688E+02 -0.21649444982E+03  0.22134346686E+03  0.00000000000E+00 0.  1.
         13    1    4    4    0    0 -0.43763235856E+02 -0.22995948160E+02 -0.18941474356E+03  0.19576000491E+03  0.00000000000E+00 0. -1.
          2    1    1    2  501    0  0.11393944406E+03 -0.67807599396E+02 -0.40965511545E+03  0.43057796165E+03  0.00000000000E+00 0. -1.
<scales pt_clust_5="13000.00000" pt_clust_6="13000.00000" pt_clust_7="13000.00000" pt_clust_8="13000.00000" pt_clust_9="132.58985"></scales>
<clustering>
<clus scale="   80.060">  5  6 -1 -1</clus>
<clus scale="   89.653">  7  8 -1 -1</clus>
<clus scale="   91.885">  5  7 -1 -1</clus>
<clus scale="  132.590">  1  9  2 -1</clus>
<clus scale="  132.590">  1  5  2 -1</clus>
</clustering>
</event>
<event>
 9    1  0.5981539E-005  0.1390821E+03  0.7546771E-02  0.1217337E+00
          1   -1    0    0  502    0 -0.00000000000E+00  0.00000000000E+00  0.40645194358E+03  0.40645194358E+03  0.00000000000E+00 0. -1.
         21   -1    0    0  501  502  0.00000000000E+00 -0.00000000000E+00 -0.10590459723E+03  0.10590459723E+03  0.00000000000E+00 0.  1.
        -24    2    1    2    0    0  0.16350501322E+02  0.12280808024E+03  0.25969377747E+03  0.29810540640E+03  0.77953908210E+02 0.  0.
         23    2    1    2    0    0 -0.63893136226E+02 -0.49762658795E+02  0.36863530460E+02  0.12700518244E+03  0.90624176810E+02 0.  0.
         13    1    3    3    0    0  0.37698163419E+02  0.85215042134E+02  0.12033359508E+03  0.15219372206E+03  0.00000000000E+00 0. -1.
        -14    1    3    3    0    0 -0.21347662097E+02  0.37593038106E+02  0.13936018239E+03  0.14591168434E+03  0.00000000000E+00 0.  1.
        -13    1    4    4    0    0 -0.84441576545E+02 -0.22943836631E+02  0.30203002733E+02  0.92569005951E+02  0.00000000000E+00 0. -1.
         13    1    4    4    0    0  0.20548440319E+02 -0.26818822164E+02  0.66605277265E+01  0.34436176492E+02  0.00000000000E+00 0.  1.
          2    1    1    2  501    0  0.47542634904E+02 -0.73045421446E+02  0.39900384345E+01  0.87245951966E+02  0.00000000000E+00 0. -1.
<scales pt_clust_5="13000.00000" pt_clust_6="13000.00000" pt_clust_7="13000.00000" pt_clust_8="13000.00000" pt_clust_9="87.15467"></scales>
<clustering>
<clus scale="   77.954">  5  6 -1 -1</clus>
<clus scale="   87.155">  2  9  1 -1</clus>
<clus scale="   90.624">  7  8 -1 -1</clus>
<clus scale="  131.179">  1  5  2 -1</clus>
<clus scale="   87.155">  2  5  1 -1</clus>
</clustering>
</event>
<event>
 9    1  0.5981539E-005  0.1254510E+03  0.7546771E-02  0.1237348E+00
         -2   -1    0    0    0  501 -0.00000000000E+00  0.00000000000E+00  0.35062707128E+03  0.35062707128E+03  0.00000000000E+00 0.  1.
         21   -1    0    0  501  502  0.00000000000E+00 -0.00000000000E+00 -0.80666061332E+02  0.80666061332E+02  0.00000000000E+00 0. -1.
         23    2    1    2    0    0 -0.35482583895E+01  0.78152607196E+02  0.22128652683E+03  0.25279772018E+03  0.93907082932E+02 0.  0.
        -24    2    1    2    0    0 -0.10936893796E+02 -0.94980841767E+02  0.72180489444E+02  0.14616057911E+03  0.83737183380E+02 0.  0.
         13    1    4    4    0    0 -0.26158476720E+02 -0.16122384691E+02  0.56521633050E+02  0.64334222581E+02  0.00000000000E+00 0. -1.
        -14    1    4    4    0    0  0.15221582924E+02 -0.78858457076E+02  0.15658856394E+02  0.81826356528E+02  0.00000000000E+00 0.  1.
        -13    1    3    3    0    0 -0.20186660898E+02  0.95688042987E+02  0.18369968498E+03  0.20810881075E+03  0.00000000000E+00 0. -1.
         13    1    3    3    0    0  0.16638402508E+02 -0.17535435791E+02  0.37586841847E+02  0.44688909434E+02  0.00000000000E+00 0.  1.
         -1    1    1    2    0  502  0.14485152185E+02  0.16828234572E+02 -0.23506006323E+02  0.32334833321E+02  0.00000000000E+00 0.  1.
<scales pt_clust_5="13000.00000" pt_clust_6="13000.00000" pt_clust_7="13000.00000" pt_clust_8="13000.00000" pt_clust_9="22.20381"></scales>
<clustering>
<clus scale="   22.204">  2  9  1 -1</clus>
<clus scale="   83.737">  5  6 -1 -1</clus>
<clus scale="   93.907">  7  8 -1 -1</clus>
<clus scale="  118.031">  2  5  1 -1</clus>
<clus scale="   22.204">  2  5  1 -1</clus>
</clustering>
</event>
<event>
 9    1  0.5981539E-005  0.1141759E+03  0.7546771E-02  0.1257001E+00
          1   -1    0    0  502    0 -0.00000000000E+00  0.00000000000E+00  0.12503540946E+03  0.12503540946E+03  0.00000000000E+00 0. -1.
         21   -1    0    0  501  502  0.00000000000E+00 -0.00000000000E+00 -0.22183982670E+03  0.22183982670E+03  0.00000000000E+00 0. -1.
         23    2    1    2    0    0  0.77779836510E+02 -0.39494921211E+01  0.63958481665E+02  0.13518369215E+03  0.90103505984E+02 0.  0.
        -24    2    1    2    0    0 -0.38565726417E+02  0.26195789893E+02 -0.11950313521E+03  0.15057679705E+03  0.78859608309E+02 0.  0.
         11    1    4    4    0    0 -0.26372409256E-01  0.26862897800E+02 -0.10659496818E+03  0.10992771814E+03  0.00000000000E+00 0. -1.
        -12    1    4    4    0    0 -0.38539354008E+02 -0.66710790754E+00 -0.12908167030E+02  0.40649078912E+02  0.00000000000E+00 0.  1.
        -11    1    3    3    0    0 -0.37502485568E+00 -0.24305287531E+02 -0.94153134816E+01  0.26067906966E+02  0.00000000000E+00 0.  1.
         11    1    3    3    0    0  0.78154861366E+02  0.20355795410E+02  0.73373795147E+02  0.10911578518E+03  0.00000000000E+00 0. -1.
          2    1    1    2  501    0 -0.39214110093E+02 -0.22246297772E+02 -0.41259763696E+02  0.61114746953E+02  0.00000000000E+00 0. -1.
<scales pt_clust_5="13000.00000" pt_clust_6="13000.00000" pt_clust_7="13000.00000" pt_clust_8="13000.00000" pt_clust_9="45.08486"></scales>
<clustering>
<clus scale="   45.085">  2  9  1 -1</clus>
<clus scale="   78.860">  5  6 -1 -1</clus>
<clus scale="   90.104">  7  8 -1 -1</clus>
<clus scale="  105.529">  2  5  1 -1</clus>
<clus scale="   45.085">  2  5  1 -1</clus>
</clustering>
</event>
<event>
 9    1  0.5981539E-005  0.8988368E+02  0.7546771E-02  0.1306804E+00
          1   -1    0    0  502    0 -0.00000000000E+00  0.00000000000E+00  0.72652827239E+03  0.72652827239E+03  0.00000000000E+00 0. -1.
         21   -1    0    0  501  502  0.00000000000E+00 -0.00000000000E+00 -0.18458331512E+03  0.18458331512E+03  0.00000000000E+00 0. -1.
        -24    2    1    2    0    0  0.11945839627E+01  0.25213724475E+02  0.65333039913E+03  0.65871652226E+03  0.80185331195E+02 0.  0.
         23    2    1    2    0    0  0.24258424825E+02 -0.24648244082E+02  0.38316310036E+02  0.10054385537E+03  0.86283950572E+02 0.  0.
         13    1    3    3    0    0  0.27683788767E+02  0.40320080372E+00  0.88694774980E+02  0.92915649060E+02  0.00000000000E+00 0. -1.
        -14    1    3    3    0    0 -0.26489204804E+02  0.24810523671E+02  0.56463562415E+03  0.56580087320E+03  0.00000000000E+00 0.  1.
        -11    1    4    4    0    0  0.45753940119E+02 -0.29089572808E+02  0.51633063725E+02  0.74870551969E+02  0.00000000000E+00 0. -1.
         11    1    4    4    0    0 -0.21495515294E+02  0.44413287262E+01 -0.13316753689E+02  0.25673303399E+02  0.00000000000E+00 0.  1.
          2    1    1    2  501    0 -0.25453008788E+02 -0.56548039263E+00 -0.14970175189E+03  0.15185120988E+03  0.00000000000E+00 0. -1.
<scales pt_clust_5="13000.00000" pt_clust_6="13000.00000" pt_clust_7="13000.00000" pt_clust_8="13000.00000" pt_clust_9="25.45929"></scales>
<clustering>
<clus scale="   25.459">  2  9  1 -1</clus>
<clus scale="   80.185">  5  6 -1 -1</clus>
<clus scale="   84.047">  1  5  2 -1</clus>
<clus scale="   86.284">  7  8 -1 -1</clus>
<clus scale="   25.459">  2  5  1 -1</clus>
</clustering>
</event>
<event>
 9    1  0.5981539E-005  0.1005319E+03  0.7546771E-02  0.1281362E+00
         21   -1    0    0  501  502  0.00000000000E+00  0.00000000000E+00  0.10348863969E+03  0.10348863969E+03  0.00000000000E+00 0. -1.
          1   -1    0    0  502    0 -0.00000000000E+00 -0.00000000000E+00 -0.29607378194E+03  0.29607378194E+03  0.00000000000E+00 0. -1.
        -24    2    1    2    0    0  0.48230333580E+02 -0.23145475254E+02 -0.22131281800E+03  0.24358107969E+03  0.86547679756E+02 0.  0.
         23    2    1    2    0    0 -0.44741201373E+00  0.45872855337E+01 -0.99941071831E+01  0.91739685106E+02  0.91077133677E+02 0.  0.
         13    1    3    3    0    0  0.49981903722E+02 -0.51020184911E+02 -0.18058852213E+03  0.19419954761E+03  0.00000000000E+00 0. -1.
        -14    1    3    3    0    0 -0.17515701419E+01  0.27874709657E+02 -0.40724295870E+02  0.49381532079E+02  0.00000000000E+00 0.  1.
        -11    1    4    4    0    0 -0.49314704339E+01  0.34996624542E+02 -0.36750816629E+02  0.50987308743E+02  0.00000000000E+00 0.  1.
         11    1    4    4    0    0  0.44840584202E+01 -0.30409339009E+02  0.26756709445E+02  0.40752376363E+02  0.00000000000E+00 0. -1.
          2    1    1    2  501    0 -0.47782921566E+02  0.18558189720E+02  0.38721782934E+02  0.64241656833E+02  0.00000000000E+00 0. -1.
<scales pt_clust_5="13000.00000" pt_clust_6="13000.00000" pt_clust_7="13000.00000" pt_clust_8="13000.00000" pt_clust_9="51.26026"></scales>
<clustering>
<clus scale="   51.260">  1  9  2 -1</clus>
<clus scale="   86.548">  5  6 -1 -1</clus>
<clus scale="   91.077">  7  8 -1 -1</clus>
<clus scale="   96.447">  2  5  1 -1</clus>
<clus scale="   51.260">  1  5  2 -1</clus>
</clustering>
</event>
<event>
 9    1  0.5981539E-005  0.1205520E+03  0.7546771E-02  0.1245465E+00
          1   -1    0    0  502    0 -0.00000000000E+00  0.00000000000E+00  0.24628274797E+03  0.24628274797E+03  0.00000000000E+00 0. -1.
         21   -1    0    0  501  502  0.00000000000E+00 -0.00000000000E+00 -0.13173727306E+03  0.13173727306E+03  0.00000000000E+00 0. -1.
         23    2    1    2    0    0  0.38699761695E+02  0.80406670257E+02  0.15942816764E+03  0.20350064825E+03  0.89622926898E+02 0.  0.
        -24    2    1    2    0    0 -0.44760027416E+02 -0.27021948007E+02 -0.67437643531E+02  0.11624947321E+03  0.78945921545E+02 0.  0.
         13    1    4    4    0    0  0.29549389639E+01  0.24373751999E+02 -0.18116339231E+02  0.30512508876E+02  0.00000000000E+00 0. -1.
        -14    1    4    4    0    0 -0.47714966380E+02 -0.51395700006E+02 -0.49321304301E+02  0.85736964336E+02  0.00000000000E+00 0.  1.
        -11    1    3    3    0    0 -0.17739432872E+02  0.13848261224E+02  0.87874754637E+00  0.22521856380E+02  0.00000000000E+00 0.  1.
         11    1    3    3    0    0  0.56439194567E+02  0.66558409033E+02  0.15854942009E+03  0.18097879187E+03  0.00000000000E+00 0. -1.
          2    1    1    2  501    0  0.60602657204E+01 -0.53384722250E+02  0.22554950798E+02  0.58269899569E+02  0.00000000000E+00 0. -1.
<scales pt_clust_5="13000.00000" pt_clust_6="13000.00000" pt_clust_7="13000.00000" pt_clust_8="13000.00000" pt_clust_9="53.72763"></scales>
<clustering>
<clus scale="   53.728">  2  9  1 -1</clus>
<clus scale="   78.946">  5  6 -1 -1</clus>
<clus scale="   89.623">  7  8 -1 -1</clus>
<clus scale="  112.841">  2  5  1 -1</clus>
<clus scale="   53.728">  2  5  1 -1</clus>
</clustering>
</event>
<event>
 9    1  0.5981539E-005  0.4323774E+03  0.7546771E-02  0.1033326E+00
          3   -1    0    0  502    0 -0.00000000000E+00  0.00000000000E+00  0.31900869649E+03  0.31900869649E+03  0.00000000000E+00 0. -1.
         21   -1    0    0  501  502  0.00000000000E+00 -0.00000000000E+00 -0.96858171080E+03  0.96858171080E+03  0.00000000000E+00 0. -1.
        -24    2    1    2    0    0  0.31226839041E+03  0.27249688223E+03 -0.30324209127E+03  0.51940518958E+03  0.77845273254E+02 0.  0.
         23    2    1    2    0    0 -0.17154136991E+03 -0.42189186121E+03 -0.31319509039E+03  0.56028875922E+03  0.91723197273E+02 0.  0.
         11    1    3    3    0    0  0.19602448691E+03  0.12754085774E+03 -0.14358255581E+03  0.27442343230E+03  0.00000000000E+00 0. -1.
        -12    1    3    3    0    0  0.11624390350E+03  0.14495602448E+03 -0.15965953546E+03  0.24498175727E+03  0.00000000000E+00 0.  1.
        -11    1    4    4    0    0 -0.31235073504E+02 -0.19200049399E+03 -0.14689717925E+03  0.24375930911E+03  0.00000000000E+00 0.  1.
         11    1    4    4    0    0 -0.14030629641E+03 -0.22989136723E+03 -0.16629791114E+03  0.31652945011E+03  0.00000000000E+00 0. -1.
          4    1    1    2  501    0 -0.14072702050E+03  0.14939497899E+03 -0.33135832648E+02  0.20789645848E+03  0.00000000000E+00 0. -1.
<scales pt_clust_5="13000.00000" pt_clust_6="13000.00000" pt_clust_7="13000.00000" pt_clust_8="13000.00000" pt_clust_9="205.23888"></scales>
<clustering>
<clus scale="   77.845">  5  6 -1 -1</clus>
<clus scale="   91.723">  7  8 -1 -1</clus>
<clus scale="  205.239">  2  9  1 -1</clus>
<clus scale="  429.647">  1  5  2 -1</clus>
<clus scale="  205.239">  2  5  1 -1</clus>
</clustering>
</event>
<event>
 9    1  0.5981539E-005  0.9444424E+02  0.7546771E-02  0.1295774E+00
          1   -1    0    0  502    0 -0.00000000000E+00  0.00000000000E+00  0.16591774634E+03  0.16591774634E+03  0.00000000000E+00 0. -1.
         21   -1    0    0  501  502  0.00000000000E+00 -0.00000000000E+00 -0.17562750175E+03  0.17562750175E+03  0.00000000000E+00 0. -1.
         23    2    1    2    0    0  0.35429648892E+02  0.42896235342E+02 -0.16462442093E+02  0.10449584686E+03  0.86908129569E+02 0.  0.
        -24    2    1    2    0    0 -0.29899571966E+02  0.29670545450E+02 -0.81837091296E+02  0.12239920197E+03  0.80684133880E+02 0.  0.
         13    1    4    4    0    0 -0.42374741077E+02 -0.13610122594E+01 -0.77943529572E+02  0.88728038623E+02  0.00000000000E+00 0. -1.
        -14    1    4    4    0    0  0.12475169111E+02  0.31031557710E+02 -0.38935617237E+01  0.33671163347E+02  0.00000000000E+00 0.  1.
        -11    1    3    3    0    0  0.51529195962E+01  0.63908722071E+02 -0.20757650787E+02  0.67392561929E+02  0.00000000000E+00 0.  1.
         11    1    3    3    0    0  0.30276729295E+02 -0.21012486729E+02  0.42952086939E+01  0.37103284936E+02  0.00000000000E+00 0. -1.
          2    1    1    2  501    0 -0.55300769258E+01 -0.72566780792E+02  0.88589777978E+02  0.11465019925E+03  0.00000000000E+00 0. -1.
<scales pt_clust_5="13000.00000" pt_clust_6="13000.00000" pt_clust_7="13000.00000" pt_clust_8="13000.00000" pt_clust_9="72.77723"></scales>
<clustering>
<clus scale="   72.777">  2  9  1 -1</clus>
<clus scale="   80.684">  5  6 -1 -1</clus>
<clus scale="   86.908">  7  8 -1 -1</clus>
<clus scale="   88.750">  2  5  1 -1</clus>
<clus scale="   72.777">  2  5  1 -1</clus>
</clustering>
</event>
<event>
 9    1  0.5981539E-005  0.1035682E+03  0.7546771E-02  0.1278688E+00
         21   -1    0    0  501  502  0.00000000000E+00  0.00000000000E+00  0.67767594613E+03  0.67767594613E+03  0.00000000000E+00 0. -1.
          1   -1    0    0  502    0 -0.00000000000E+00 -0.00000000000E+00 -0.33342036707E+02  0.33342036707E+02  0.00000000000E+00 0. -1.
        -24    2    1    2    0    0  0.32347296580E+02 -0.30890362865E+02  0.54741144053E+02  0.10731893868E+03  0.80747753119E+02 0.  0.
         23    2    1    2    0    0 -0.51377322714E+02  0.20874703166E+02  0.49706062291E+03  0.50870087195E+03  0.92908189920E+02 0.  0.
         11    1    3    3    0    0 -0.11947345747E+01 -0.50715047601E+02  0.18179379350E+02  0.53888155261E+02  0.00000000000E+00 0. -1.
        -12    1    3    3    0    0  0.33542031155E+02  0.19824684736E+02  0.36561764703E+02  0.53430783422E+02  0.00000000000E+00 0.  1.
        -11    1    4    4    0    0 -0.36746624512E+02 -0.34799514511E+02  0.23815658223E+03  0.24347459473E+03  0.00000000000E+00 0.  1.
         11    1    4    4    0    0 -0.14630698202E+02  0.55674217677E+02  0.25890404068E+03  0.26522627722E+03  0.00000000000E+00 0. -1.
          2    1    1    2  501    0  0.19030026134E+02  0.10015659699E+02  0.92532142463E+02  0.94998172207E+02  0.00000000000E+00 0. -1.
<scales pt_clust_5="13000.00000" pt_clust_6="13000.00000" pt_clust_7="13000.00000" pt_clust_8="13000.00000" pt_clust_9="21.50477"></scales>
<clustering>
<clus scale="   21.505">  1  9  2 -1</clus>
<clus scale="   80.748">  5  6 -1 -1</clus>
<clus scale="   92.815">  2  5  1 -1</clus>
<clus scale="   92.908">  7  8 -1 -1</clus>
<clus scale="   21.505">  1  5  2 -1</clus>
</clustering>
</event>
<event>
 9    1  0.5981539E-005  0.1287095E+03  0.7546771E-02  0.1231455E+00
         -2   -1    0    0    0  501 -0.00000000000E+00  0.00000000000E+00  0.17460907034E+03  0.17460907034E+03  0.00000000000E+00 0.  1.
         21   -1    0    0  501  502  0.00000000000E+00 -0.00000000000E+00 -0.29783010561E+03  0.29783010561E+03  0.00000000000E+00 0. -1.
        -24    2    1    2    0    0  0.73659932682E+02 -0.48017659591E+02  0.11314846987E+03  0.16596744805E+03  0.83732528119E+02 0.  0.
         23    2    1    2    0    0 -0.77483930157E+02  0.72694336192E+02 -0.11151412836E+03  0.17914370100E+03  0.91481357867E+02 0.  0.
         11    1    3    3    0    0  0.28452457204E+02  0.17598865254E+02  0.86505797869E+01  0.34555678402E+02  0.00000000000E+00 0. -1.
        -12    1    3    3    0    0  0.45207475477E+02 -0.65616524846E+02  0.10449789008E+03  0.13141176965E+03  0.00000000000E+00 0.  1.
        -13    1    4    4    0    0 -0.52753932828E+02  0.14265572072E+02 -0.46270051132E+01  0.54844262705E+02  0.00000000000E+00 0. -1.
         13    1    4    4    0    0 -0.24729997328E+02  0.58428764120E+02 -0.10688712324E+03  0.12429943829E+03  0.00000000000E+00 0.  1.
         -1    1    1    2    0  502  0.38239974749E+01 -0.24676676600E+02 -0.12485537678E+03  0.12732802690E+03  0.00000000000E+00 0.  1.
<scales pt_clust_5="13000.00000" pt_clust_6="13000.00000" pt_clust_7="13000.00000" pt_clust_8="13000.00000" pt_clust_9="24.97121"></scales>
<clustering>
<clus scale="   24.971">  2  9  1 -1</clus>
<clus scale="   83.733">  5  6 -1 -1</clus>
<clus scale="   91.481">  7  8 -1 -1</clus>
<clus scale="  123.322">  1  5  2 -1</clus>
<clus scale="   24.971">  2  5  1 -1</clus>
</clustering>
</event>
<event>
 9    1  0.5981539E-005  0.2647250E+03  0.7546771E-02  0.1105121E+00
         21   -1    0    0  501  502  0.00000000000E+00  0.00000000000E+00  0.35177900763E+03  0.35177900763E+03  0.00000000000E+00 0. -1.
          1   -1    0    0  502    0 -0.00000000000E+00 -0.00000000000E+00 -0.13087316443E+04  0.13087316443E+04  0.00000000000E+00 0. -1.
        -24    2    1    2    0    0 -0.21602938495E+03  0.12146465276E+03 -0.10484293693E+04  0.10800534633E+04  0.76739717052E+02 0.  0.
         23    2    1    2    0    0 -0.36173283540E+02 -0.26113343504E+03  0.91334072854E+00  0.27827300197E+03  0.89083399691E+02 0.  0.
         13    1    3    3    0    0 -0.10844526162E+03  0.10177876223E+03 -0.54897062943E+03  0.56876009282E+03  0.00000000000E+00 0. -1.
        -14    1    3    3    0    0 -0.10758412333E+03  0.19685890539E+02 -0.49945873983E+03  0.51129337045E+03  0.00000000000E+00 0.  1.
        -13    1    4    4    0    0 -0.42800181565E+02 -0.11400920243E+03  0.35785364420E+02  0.12692732600E+03  0.00000000000E+00 0. -1.
         13    1    4    4    0    0  0.66268980243E+01 -0.14712423261E+03 -0.34872023692E+02  0.15134567597E+03  0.00000000000E+00 0.  1.
          2    1    1    2  501    0  0.25220266849E+03  0.13966878227E+03  0.90563391866E+02  0.30218418668E+03  0.00000000000E+00 0. -1.
<scales pt_clust_5="13000.00000" pt_clust_6="13000.00000" pt_clust_7="13000.00000" pt_clust_8="13000.00000" pt_clust_9="249.28594"></scales>
<clustering>
<clus scale="   76.740">  5  6 -1 -1</clus>
<clus scale="   89.083">  7  8 -1 -1</clus>
<clus scale="  259.444">  2  5  1 -1</clus>
<clus scale="  249.286">  1  9  2 -1</clus>
<clus scale="  249.286">  1  5  2 -1</clus>
</clustering>
</event>
<event>
 9    1  0.5981539E-005  0.2208896E+03  0.7546771E-02  0.1134004E+00
         -2   -1    0    0    0  501 -0.00000000000E+00  0.00000000000E+00  0.13107011056E+04  0.13107011056E+04  0.00000000000E+00 0.  1.
         21   -1    0    0  501  502  0.00000000000E+00 -0.00000000000E+00 -0.52266342011E+02  0.52266342011E+02  0.00000000000E+00 0.  1.
         23    2    1    2    0    0  0.25183994635E+02  0.22805259708E+03  0.69752126211E+03  0.73986985958E+03  0.90715364726E+02 0.  0.
        -24    2    1    2    0    0  0.22673918089E+01 -0.16648417756E+03  0.28931456005E+03  0.34325793058E+03  0.80006061031E+02 0.  0.
         11    1    4    4    0    0 -0.13363031448E+02 -0.81607277171E+02  0.21135385766E+03  0.22695543934E+03  0.00000000000E+00 0. -1.
        -12    1    4    4    0    0  0.15630423256E+02 -0.84876900392E+02  0.77960702391E+02  0.11630249124E+03  0.00000000000E+00 0.  1.
        -11    1    3    3    0    0  0.10548355363E+02  0.34076914088E+02  0.37404453444E+02  0.51687493768E+02  0.00000000000E+00 0. -1.
         11    1    3    3    0    0  0.14635639271E+02  0.19397568299E+03  0.66011680866E+03  0.68818236581E+03  0.00000000000E+00 0.  1.
         -1    1    1    2    0  502 -0.27451386444E+02 -0.61568419516E+02  0.27159894141E+03  0.27983965743E+03  0.00000000000E+00 0.  1.
<scales pt_clust_5="13000.00000" pt_clust_6="13000.00000" pt_clust_7="13000.00000" pt_clust_8="13000.00000" pt_clust_9="67.41108"></scales>
<clustering>
<clus scale="   67.411">  2  9  1 -1</clus>
<clus scale="   80.006">  5  6 -1 -1</clus>
<clus scale="   90.715">  7  8 -1 -1</clus>
<clus scale="  216.712">  2  5  1 -1</clus>
<clus scale="   67.411">  2  5  1 -1</clus>
</clustering>
</event>
<event>
 9    1  0.5981539E-005  0.1380260E+03  0.7546771E-02  0.1235017E+00
         21   -1    0    0  501  502  0.00000000000E+00  0.00000000000E+00  0.71118705684E+02  0.71118705684E+02  0.00000000000E+00 0.  1.
         -2   -1    0    0    0  501 -0.00000000000E+00 -0.00000000000E+00 -0.46568269464E+03  0.46568269464E+03  0.00000000000E+00 0.  1.
         23    2    1    2    0    0  0.16655847655E+02  0.30931530507E+00 -0.50682905779E+02  0.10586536215E+03  0.91439625045E+02 0.  0.
        -24    2    1    2    0    0 -0.62972289239E+02 -0.99752463201E+02 -0.24330366041E+03  0.28210737697E+03  0.80447733625E+02 0.  0.
         11    1    4    4    0    0 -0.49819113563E+02 -0.40475404162E+02 -0.55916811505E+02  0.85128680404E+02  0.00000000000E+00 0. -1.
        -12    1    4    4    0    0 -0.13153175675E+02 -0.59277059039E+02 -0.18738684890E+03  0.19697869657E+03  0.00000000000E+00 0.  1.
        -11    1    3    3    0    0  0.10393625861E+02 -0.20181145534E+02  0.21076092276E+02  0.30975922249E+02  0.00000000000E+00 0.  1.
         11    1    3    3    0    0  0.62622217937E+01  0.20490460839E+02 -0.71758998054E+02  0.74889439903E+02  0.00000000000E+00 0. -1.
         -1    1    1    2    0  502  0.46316441584E+02  0.99443147896E+02 -0.10057742277E+03  0.14882866120E+03  0.00000000000E+00 0.  1.
<scales pt_clust_5="13000.00000" pt_clust_6="13000.00000" pt_clust_7="13000.00000" pt_clust_8="13000.00000" pt_clust_9="112.15769"></scales>
<clustering>
<clus scale="   80.448">  5  6 -1 -1</clus>
<clus scale="   91.440">  7  8 -1 -1</clus>
<clus scale="   92.945">  2  7  1 -1</clus>
<clus scale="  112.158">  1  9  2 -1</clus>
<clus scale="  112.158">  1  5  2 -1</clus>
</clustering>
</event>
<event>
 9    1  0.5981539E-005  0.1574618E+03  0.7546771E-02  0.1221078E+00
         21   -1    0    0  501  502  0.00000000000E+00  0.00000000000E+00  0.25681253834E+03  0.25681253834E+03  0.00000000000E+00 0. -1.
          3   -1    0    0  502    0 -0.00000000000E+00 -0.00000000000E+00 -0.15941445846E+03  0.15941445846E+03  0.00000000000E+00 0. -1.
        -24    2    1    2    0    0 -0.21726775713E+02 -0.23446079368E+01 -0.28571477161E+02  0.88308103765E+02  0.80650120360E+02 0.  0.
         23    2    1    2    0    0 -0.11096347544E+03 -0.37416699445E+02  0.11310483745E+03  0.18880323855E+03  0.95608871719E+02 0.  0.
         11    1    3    3    0    0 -0.21176985844E+02 -0.21185918165E+02 -0.50916559632E+02  0.59074562230E+02  0.00000000000E+00 0. -1.
        -12    1    3    3    0    0 -0.54978986886E+00  0.18841310228E+02  0.22345082471E+02  0.29233541535E+02  0.00000000000E+00 0.  1.
        -13    1    4    4    0    0 -0.31965089609E+02 -0.56602304974E+02  0.27011115415E+02  0.70393097943E+02  0.00000000000E+00 0.  1.
         13    1    4    4    0    0 -0.78998385829E+02  0.19185605529E+02  0.86093722038E+02  0.11841014060E+03  0.00000000000E+00 0. -1.
          4    1    1    2  501    0  0.13269025115E+03  0.39761307382E+02  0.12864719587E+02  0.13911565449E+03  0.00000000000E+00 0. -1.
<scales pt_clust_5="13000.00000" pt_clust_6="13000.00000" pt_clust_7="13000.00000" pt_clust_8="13000.00000" pt_clust_9="125.11260"></scales>
<clustering>
<clus scale="   80.650">  5  6 -1 -1</clus>
<clus scale="   83.558">  2  5  1 -1</clus>
<clus scale="   95.609">  7  8 -1 -1</clus>
<clus scale="  125.113">  1  9  2 -1</clus>
<clus scale="  125.113">  1  5  2 -1</clus>
</clustering>
</event>
<event>
 9    1  0.5981539E-005  0.1166325E+03  0.7546771E-02  0.1252864E+00
         21   -1    0    0  501  502  0.00000000000E+00  0.00000000000E+00  0.28125352856E+03  0.28125352856E+03  0.00000000000E+00 0.  1.
         -2   -1    0    0    0  501 -0.00000000000E+00 -0.00000000000E+00 -0.17861291896E+03  0.17861291896E+03  0.00000000000E+00 0.  1.
         23    2    1    2    0    0  0.60094089697E+02 -0.50146837794E+01 -0.81806200734E+02  0.13675993692E+03  0.91512726971E+02 0.  0.
        -24    2    1    2    0    0 -0.12089604393E+03  0.79491950176E+02  0.88652022407E+02  0.18738480179E+03  0.79492510870E+02 0.  0.
         11    1    4    4    0    0 -0.93298530286E+02  0.56535634077E+02  0.21426749169E+02  0.11117553352E+03  0.00000000000E+00 0. -1.
        -12    1    4    4    0    0 -0.27597513646E+02  0.22956316099E+02  0.67225273238E+02  0.76209268269E+02  0.00000000000E+00 0.  1.
        -11    1    3    3    0    0  0.11045251946E+02 -0.31409615109E+02  0.49513157498E+01  0.33661209715E+02  0.00000000000E+00 0. -1.
         11    1    3    3    0    0  0.49048837751E+02  0.26394931330E+02 -0.86757516483E+02  0.10309872720E+03  0.00000000000E+00 0.  1.
         -1    1    1    2    0  502  0.60801954235E+02 -0.74477266397E+02  0.95794787922E+02  0.13572170881E+03  0.00000000000E+00 0.  1.
<scales pt_clust_5="13000.00000" pt_clust_6="13000.00000" pt_clust_7="13000.00000" pt_clust_8="13000.00000" pt_clust_9="96.14438"></scales>
<clustering>
<clus scale="   79.493">  5  6 -1 -1</clus>
<clus scale="   91.513">  7  8 -1 -1</clus>
<clus scale="   96.144">  1  9  2 -1</clus>
<clus scale="  107.460">  1  5  2 -1</clus>
<clus scale="   96.144">  1  5  2 -1</clus>
</clustering>
</event>
<event>
 9    1  0.5981539E-005  0.1399366E+03  0.7546771E-02  0.1213457E+00
          1   -1    0    0  502    0 -0.00000000000E+00  0.00000000000E+00  0.10034829108E+03  0.10034829108E+03  0.00000000000E+00 0. -1.
         21   -1    0    0  501  502  0.00000000000E+00 -0.00000000000E+00 -0.36991950110E+03  0.36991950110E+03  0.00000000000E+00 0. -1.
        -24    2    1    2    0    0 -0.65552293451E+02  0.52971561049E+02 -0.48349177562E+02  0.13489298327E+03  0.93570211654E+02 0.  0.
         23    2    1    2    0    0  0.70365541665E+02 -0.12353820512E+03 -0.10677020941E+03  0.20083099295E+03  0.93382078226E+02 0.  0.
         11    1    3    3    0    0  0.10888991775E+02  0.32286379304E+02 -0.43908222623E+02  0.55577985249E+02  0.00000000000E+00 0. -1.
        -12    1    3    3    0    0 -0.76441285227E+02  0.20685181745E+02 -0.44409549393E+01  0.79314998025E+02  0.00000000000E+00 0.  1.
        -11    1    4    4    0    0  0.66922526064E+02 -0.25891778009E+02 -0.36710889956E+02  0.80602097396E+02  0.00000000000E+00 0.  1.
         11    1    4    4    0    0  0.34430156016E+01 -0.97646427112E+02 -0.70059319450E+02  0.12022889555E+03  0.00000000000E+00 0. -1.
          2    1    1    2  501    0 -0.48132482137E+01  0.70566644072E+02 -0.11445182305E+03  0.13454381596E+03  0.00000000000E+00 0. -1.
<scales pt_clust_5="13000.00000" pt_clust_6="13000.00000" pt_clust_7="13000.00000" pt_clust_8="13000.00000" pt_clust_9="70.73061"></scales>
<clustering>
<clus scale="   70.731">  2  9  1 -1</clus>
<clus scale="   93.382">  7  8 -1 -1</clus>
<clus scale="   93.570">  5  6 -1 -1</clus>
<clus scale="  139.811">  2  7  1 -1</clus>
<clus scale="   70.731">  2  5  1 -1</clus>
</clustering>
</event>
<event>
 9    1  0.5981539E-005  0.9245132E+02  0.7546771E-02  0.1303360E+00
         21   -1    0    0  501  502  0.00000000000E+00  0.00000000000E+00  0.12392667266E+03  0.12392667266E+03  0.00000000000E+00 0. -1.
          1   -1    0    0  502    0 -0.00000000000E+00 -0.00000000000E+00 -0.32771012437E+03  0.32771012437E+03  0.00000000000E+00 0. -1.
        -24    2    1    2    0    0 -0.18306198401E+02  0.12799911214E+00 -0.23978487458E+03  0.25323173752E+03  0.79337214019E+02 0.  0.
         23    2    1    2    0    0  0.35404458088E+02 -0.22115359532E+02 -0.47860651398E+02  0.11003853868E+03  0.89862524236E+02 0.  0.
         11    1    3    3    0    0 -0.38691842737E+02 -0.11270601774E+02 -0.21661794485E+03  0.22033478887E+03  0.00000000000E+00 0. -1.
        -12    1    3    3    0    0  0.20385644336E+02  0.11398600886E+02 -0.23166929731E+02  0.32896948647E+02  0.00000000000E+00 0.  1.
        -13    1    4    4    0    0  0.46648876154E+02 -0.48749029594E+02 -0.44745020626E+02  0.80961116615E+02  0.00000000000E+00 0. -1.
         13    1    4    4    0    0 -0.11244418066E+02  0.26633670062E+02 -0.31156307723E+01  0.29077422061E+02  0.00000000000E+00 0.  1.
          2    1    1    2  501    0 -0.17098259686E+02  0.21987360420E+02  0.83862074274E+02  0.88366520833E+02  0.00000000000E+00 0. -1.
<scales pt_clust_5="13000.00000" pt_clust_6="13000.00000" pt_clust_7="13000.00000" pt_clust_8="13000.00000" pt_clust_9="27.85309"></scales>
<clustering>
<clus scale="   27.853">  1  9  2 -1</clus>
<clus scale="   79.337">  5  6 -1 -1</clus>
<clus scale="   82.258">  2  5  1 -1</clus>
<clus scale="   89.863">  7  8 -1 -1</clus>
<clus scale="   27.853">  1  5  2 -1</clus>
</clustering>
</event>
<event>
 9    1  0.5981539E-005  0.9638831E+02  0.7546771E-02  0.1291199E+00
          3   -1    0    0  502    0 -0.00000000000E+00  0.00000000000E+00  0.23356164446E+02  0.23356164446E+02  0.00000000000E+00 0. -1.
         21   -1    0    0  501  502  0.00000000000E+00 -0.00000000000E+00 -0.10756802869E+04  0.10756802869E+04  0.00000000000E+00 0. -1.
         23    2    1    2    0    0 -0.91225759443E+01  0.13497067277E+02 -0.24756542997E+03  0.26343772175E+03  0.88574256454E+02 0.  0.
        -24    2    1    2    0    0 -0.17970023485E+01 -0.96414782871E+02 -0.61892417728E+03  0.63181194938E+03  0.82584275641E+02 0.  0.
         13    1    4    4    0    0 -0.89288495201E+01 -0.87899288278E+02 -0.30112843445E+03  0.31382215229E+03  0.00000000000E+00 0. -1.
        -14    1    4    4    0    0  0.71318471716E+01 -0.85154945937E+01 -0.31779574283E+03  0.31798979709E+03  0.00000000000E+00 0.  1.
        -11    1    3    3    0    0 -0.47877279167E+02  0.61040911393E+01 -0.16527587491E+03  0.17217900167E+03  0.00000000000E+00 0. -1.
         11    1    3    3    0    0  0.38754703223E+02  0.73929761375E+01 -0.82289555059E+02  0.91258720076E+02  0.00000000000E+00 0.  1.
          4    1    1    2  501    0  0.10919578293E+02  0.82917715595E+02 -0.18583451517E+03  0.20378678019E+03  0.00000000000E+00 0. -1.
<scales pt_clust_5="13000.00000" pt_clust_6="13000.00000" pt_clust_7="13000.00000" pt_clust_8="13000.00000" pt_clust_9="83.63368"></scales>
<clustering>
<clus scale="   82.584">  5  6 -1 -1</clus>
<clus scale="   83.634">  2  9  1 -1</clus>
<clus scale="   88.574">  7  8 -1 -1</clus>
<clus scale="   90.915">  2  5  1 -1</clus>
<clus scale="   83.634">  2  5  1 -1</clus>
</clustering>
</event>
<event>
 9    1  0.5981539E-005  0.2051858E+03  0.7546771E-02  0.1146440E+00
          3   -1    0    0  502    0 -0.00000000000E+00  0.00000000000E+00  0.18406683353E+03  0.18406683353E+03  0.00000000000E+00 0. -1.
         21   -1    0    0  501  502  0.00000000000E+00 -0.00000000000E+00 -0.38439322455E+03  0.38439322455E+03  0.00000000000E+00 0. -1.
         23    2    1    2    0    0  0.10543433777E+03  0.10588920058E+03 -0.83151621383E+02  0.19432743309E+03  0.92304045054E+02 0.  0.
        -24    2    1    2    0    0 -0.17640646265E+03 -0.15549106297E+03 -0.13891663146E+03  0.28485723186E+03  0.80926518005E+02 0.  0.
         11    1    4    4    0    0 -0.18322376393E+03 -0.13642536085E+03 -0.12808257527E+03  0.26189305611E+03  0.00000000000E+00 0. -1.
        -12    1    4    4    0    0  0.68173012807E+01 -0.19065702119E+02 -0.10834056196E+02  0.22964175747E+02  0.00000000000E+00 0.  1.
        -11    1    3    3    0    0  0.57576191317E+02  0.27611014766E+00 -0.42090606855E+02  0.71321197612E+02  0.00000000000E+00 0.  1.
         11    1    3    3    0    0  0.47858146448E+02  0.10561309044E+03 -0.41061014528E+02  0.12300623548E+03  0.00000000000E+00 0. -1.
          4    1    1    2  501    0  0.70972124888E+02  0.49601862381E+02  0.21741861832E+02  0.89275393131E+02  0.00000000000E+00 0. -1.
<scales pt_clust_5="13000.00000" pt_clust_6="13000.00000" pt_clust_7="13000.00000" pt_clust_8="13000.00000" pt_clust_9="86.58750"></scales>
<clustering>
<clus scale="   80.927">  5  6 -1 -1</clus>
<clus scale="   86.587">  2  9  1 -1</clus>
<clus scale="   92.304">  7  8 -1 -1</clus>
<clus scale="  200.325">  2  5  1 -1</clus>
<clus scale="   86.587">  2  5  1 -1</clus>
</clustering>
</event>
<event>
 9    1  0.5981539E-005  0.1366572E+03  0.7546771E-02  0.1222048E+00
         21   -1    0    0  501  502  0.00000000000E+00  0.00000000000E+00  0.65838978265E+02  0.65838978265E+02  0.00000000000E+00 0. -1.
          1   -1    0    0  502    0 -0.00000000000E+00 -0.00000000000E+00 -0.40132177024E+03  0.40132177024E+03  0.00000000000E+00 0. -1.
        -24    2    1    2    0    0 -0.74025085099E+02  0.61192661469E+02 -0.17458266552E+03  0.21303960825E+03  0.75382441861E+02 0.  0.
         23    2    1    2    0    0  0.68445236085E+02 -0.87391927855E+02 -0.73008751351E+02  0.16223844280E+03  0.93107116544E+02 0.  0.
         13    1    3    3    0    0 -0.61985396359E+02  0.11748412853E+02 -0.13342974386E+03  0.14759305916E+03  0.00000000000E+00 0. -1.
        -14    1    3    3    0    0 -0.12039688740E+02  0.49444248615E+02 -0.41152921659E+02  0.65446549085E+02  0.00000000000E+00 0.  1.
        -11    1    4    4    0    0 -0.99382216260E+01 -0.44348531340E+02 -0.54420965318E+02  0.70902764032E+02  0.00000000000E+00 0.  1.
         11    1    4    4    0    0  0.78383457711E+02 -0.43043396515E+02 -0.18587786032E+02  0.91335678767E+02  0.00000000000E+00 0. -1.
          2    1    1    2  501    0  0.55798490140E+01  0.26199266387E+02 -0.87891375109E+02  0.91882697461E+02  0.00000000000E+00 0. -1.
<scales pt_clust_5="13000.00000" pt_clust_6="13000.00000" pt_clust_7="13000.00000" pt_clust_8="13000.00000" pt_clust_9="26.78688"></scales>
<clustering>
<clus scale="   26.787">  1  9  2 -1</clus>
<clus scale="   75.382">  5  6 -1 -1</clus>
<clus scale="   93.107">  7  8 -1 -1</clus>
<clus scale="  125.255">  2  5  1 -1</clus>
<clus scale="   26.787">  1  5  2 -1</clus>
</clustering>
</event>
<event>
 9    1  0.5981539E-005  0.1754798E+03  0.7546771E-02  0.1194635E+00
          1   -1    0    0  502    0 -0.00000000000E+00  0.00000000000E+00  0.43422608258E+03  0.43422608258E+03  0.00000000000E+00 0. -1.
         21   -1    0    0  501  502  0.00000000000E+00 -0.00000000000E+00 -0.12883885623E+03  0.12883885623E+03  0.00000000000E+00 0. -1.
         23    2    1    2    0    0  0.51687423708E+02 -0.27503499447E+02  0.11139785309E+01  0.10641490361E+03  0.88853016328E+02 0.  0.
        -24    2    1    2    0    0 -0.43930664356E+02  0.17245217518E+03  0.18646911029E+03  0.26970592395E+03  0.79378210657E+02 0.  0.
         11    1    4    4    0    0 -0.32889856660E+02  0.15586711141E+03  0.19156025906E+03  0.24914179084E+03  0.00000000000E+00 0. -1.
        -12    1    4    4    0    0 -0.11040807696E+02  0.16585063766E+02 -0.50911487730E+01  0.20564133109E+02  0.00000000000E+00 0.  1.
        -11    1    3    3    0    0  0.53275685297E+01 -0.44008448630E+02 -0.24803317046E+02  0.50796959296E+02  0.00000000000E+00 0.  1.
         11    1    3    3    0    0  0.46359855178E+02  0.16504949182E+02  0.25917295576E+02  0.55617944313E+02  0.00000000000E+00 0. -1.
          2    1    1    2  501    0 -0.77567593518E+01 -0.14494867573E+03  0.11780413753E+03  0.18694411125E+03  0.00000000000E+00 0. -1.
<scales pt_clust_5="13000.00000" pt_clust_6="13000.00000" pt_clust_7="13000.00000" pt_clust_8="13000.00000" pt_clust_9="156.49998"></scales>
<clustering>
<clus scale="   79.378">  5  6 -1 -1</clus>
<clus scale="   88.853">  7  8 -1 -1</clus>
<clus scale="  106.409">  1  7  2 -1</clus>
<clus scale="  156.500">  2  9  1 -1</clus>
<clus scale="  156.500">  2  5  1 -1</clus>
</clustering>
</event>
<event>
 9    1  0.5981539E-005  0.9397582E+02  0.7546771E-02  0.1299341E+00
          1   -1    0    0  502    0 -0.00000000000E+00  0.00000000000E+00  0.55328420767E+02  0.55328420767E+02  0.00000000000E+00 0. -1.
         21   -1    0    0  501  502  0.00000000000E+00 -0.00000000000E+00 -0.27618626023E+03  0.27618626023E+03  0.00000000000E+00 0.  1.
        -24    2    1    2    0    0 -0.28403992232E+02 -0.10971185594E+02 -0.39311066255E+01  0.85981705074E+02  0.80313425528E+02 0.  0.
         23    2    1    2    0    0  0.46204141825E+01  0.71005545025E+01 -0.16640942782E+03  0.18956299758E+03  0.90389525286E+02 0.  0.
         11    1    3    3    0    0 -0.10473380694E+01 -0.38366660097E+02  0.16991920247E+02  0.41974073875E+02  0.00000000000E+00 0. -1.
        -12    1    3    3    0    0 -0.27356654163E+02  0.27395474503E+02 -0.20923026873E+02  0.44007631199E+02  0.00000000000E+00 0.  1.
        -13    1    4    4    0    0 -0.35021932726E+02  0.37694166806E+01 -0.13308515249E+03  0.13766772348E+03  0.00000000000E+00 0.  1.
         13    1    4    4    0    0  0.39642346909E+02  0.33311378219E+01 -0.33324275331E+02  0.51895274101E+02  0.00000000000E+00 0. -1.
          2    1    1    2  501    0  0.23783578050E+02  0.38706310913E+01 -0.50517305017E+02  0.55969978347E+02  0.00000000000E+00 0. -1.
<scales pt_clust_5="13000.00000" pt_clust_6="13000.00000" pt_clust_7="13000.00000" pt_clust_8="13000.00000" pt_clust_9="24.09648"></scales>
<clustering>
<clus scale="   24.096">  2  9  1 -1</clus>
<clus scale="   80.313">  5  6 -1 -1</clus>
<clus scale="   84.329">  1  5  2 -1</clus>
<clus scale="   90.390">  7  8 -1 -1</clus>
<clus scale="   24.096">  2  5  1 -1</clus>
</clustering>
</event>
<event>
 9    1  0.5981539E-005  0.1211843E+03  0.7546771E-02  0.1244204E+00
          1   -1    0    0  502    0 -0.00000000000E+00  0.00000000000E+00  0.16129892531E+03  0.16129892531E+03  0.00000000000E+00 0. -1.
         21   -1    0    0  501  502  0.00000000000E+00 -0.00000000000E+00 -0.22713486324E+03  0.22713486324E+03  0.00000000000E+00 0. -1.
         23    2    1    2    0    0  0.65989465364E+02  0.59437452009E+02  0.81182057225E+02  0.15123907708E+03  0.91625934000E+02 0.  0.
        -24    2    1    2    0    0 -0.49546659159E+02 -0.38776485545E+02 -0.17088109487E+02  0.10460882759E+03  0.81807799505E+02 0.  0.
         13    1    4    4    0    0 -0.20858954816E+02 -0.33751147563E+02  0.29655237659E+02  0.49534524106E+02  0.00000000000E+00 0. -1.
        -14    1    4    4    0    0 -0.28687704343E+02 -0.50253379816E+01 -0.46743347145E+02  0.55074303488E+02  0.00000000000E+00 0.  1.
        -13    1    3    3    0    0  0.32091112486E+02  0.25206005491E+02  0.93066117534E+02  0.10161931138E+03  0.00000000000E+00 0. -1.
         13    1    3    3    0    0  0.33898352878E+02  0.34231446518E+02 -0.11884060309E+02  0.49619765699E+02  0.00000000000E+00 0.  1.
          2    1    1    2  501    0 -0.16442806205E+02 -0.20660966464E+02 -0.12992988567E+03  0.13258588387E+03  0.00000000000E+00 0. -1.
<scales pt_clust_5="13000.00000" pt_clust_6="13000.00000" pt_clust_7="13000.00000" pt_clust_8="13000.00000" pt_clust_9="26.40533"></scales>
<clustering>
<clus scale="   26.405">  2  9  1 -1</clus>
<clus scale="   81.808">  5  6 -1 -1</clus>
<clus scale="   91.626">  7  8 -1 -1</clus>
<clus scale="  113.942">  2  5  1 -1</clus>
<clus scale="   26.405">  2  5  1 -1</clus>
</clustering>
</event>
<event>
 9    1  0.5981539E-005  0.2549226E+03  0.7546771E-02  0.1110705E+00
         21   -1    0    0  501  502  0.00000000000E+00  0.00000000000E+00  0.21409490976E+03  0.21409490976E+03  0.00000000000E+00 0.  1.
          1   -1    0    0  502    0 -0.00000000000E+00 -0.00000000000E+00 -0.42776583288E+03  0.42776583288E+03  0.00000000000E+00 0. -1.
         23    2    1    2    0    0  0.13940114598E+03 -0.19039729646E+03 -0.24016260631E+03  0.34794077023E+03  0.87754727026E+02 0.  0.
        -24    2    1    2    0    0 -0.16262615174E+03  0.18926538211E+03  0.43410229956E+02  0.26516376705E+03  0.78477545787E+02 0.  0.
         11    1    4    4    0    0 -0.10467945675E+03  0.16341225969E+03  0.12192982719E+02  0.19444799848E+03  0.00000000000E+00 0. -1.
        -12    1    4    4    0    0 -0.57946694996E+02  0.25853122418E+02  0.31217247237E+02  0.70715768572E+02  0.00000000000E+00 0.  1.
        -13    1    3    3    0    0  0.15437096406E+02 -0.92489406314E+02 -0.86910729306E+02  0.12785174654E+03  0.00000000000E+00 0.  1.
         13    1    3    3    0    0  0.12396404958E+03 -0.97907890147E+02 -0.15325187700E+03  0.22008902368E+03  0.00000000000E+00 0. -1.
          2    1    1    2  501    0  0.23225005760E+02  0.11319143475E+01 -0.16918546762E+02  0.28756205369E+02  0.00000000000E+00 0. -1.
<scales pt_clust_5="13000.00000" pt_clust_6="13000.00000" pt_clust_7="13000.00000" pt_clust_8="13000.00000" pt_clust_9="23.25258"></scales>
<clustering>
<clus scale="   23.253">  1  9  2 -1</clus>
<clus scale="   78.478">  5  6 -1 -1</clus>
<clus scale="   87.755">  7  8 -1 -1</clus>
<clus scale="  251.880">  1  5  2 -1</clus>
<clus scale="   23.253">  1  5  2 -1</clus>
</clustering>
</event>
<event>
 9    1  0.5981539E-005  0.1181638E+03  0.7546771E-02  0.1249621E+00
          1   -1    0    0  502    0 -0.00000000000E+00  0.00000000000E+00  0.48972318607E+03  0.48972318607E+03  0.00000000000E+00 0. -1.
         21   -1    0    0  501  502  0.00000000000E+00 -0.00000000000E+00 -0.84174931166E+02  0.84174931166E+02  0.00000000000E+00 0.  1.
        -24    2    1    2    0    0 -0.69918702875E+02 -0.28637646198E+02  0.33830845315E+03  0.35576231052E+03  0.80034194717E+02 0.  0.
         23    2    1    2    0    0  0.84425134780E+02 -0.29112212931E+01 -0.18829438552E+02  0.12532588411E+03  0.90641882594E+02 0.  0.
         11    1    3    3    0    0  0.64252873200E+01 -0.29700904074E+02  0.61220060316E+02  0.68347083369E+02  0.00000000000E+00 0. -1.
        -12    1    3    3    0    0 -0.76343990195E+02  0.10632578759E+01  0.27708839283E+03  0.28741522715E+03  0.00000000000E+00 0.  1.
        -11    1    4    4    0    0  0.57626318125E+02 -0.45609620725E+02 -0.11178772779E+02  0.74337036557E+02  0.00000000000E+00 0.  1.
         11    1    4    4    0    0  0.26798816655E+02  0.42698399432E+02 -0.76506657731E+01  0.50988847554E+02  0.00000000000E+00 0. -1.
          2    1    1    2  501    0 -0.14506431905E+02  0.31548867492E+02  0.86069240310E+02  0.92809922606E+02  0.00000000000E+00 0. -1.
<scales pt_clust_5="13000.00000" pt_clust_6="13000.00000" pt_clust_7="13000.00000" pt_clust_8="13000.00000" pt_clust_9="34.72418"></scales>
<clustering>
<clus scale="   34.724">  2  9  1 -1</clus>
<clus scale="   80.034">  5  6 -1 -1</clus>
<clus scale="   90.642">  7  8 -1 -1</clus>
<clus scale="  110.237">  1  5  2 -1</clus>
<clus scale="   34.724">  2  5  1 -1</clus>
</clustering>
</event>
<event>
 9    1  0.5981539E-005  0.9062273E+02  0.7546771E-02  0.1304984E+00
         -2   -1    0    0    0  501 -0.00000000000E+00  0.00000000000E+00  0.55145660381E+02  0.55145660381E+02  0.00000000000E+00 0.  1.
         21   -1    0    0  501  502  0.00000000000E+00 -0.00000000000E+00 -0.49516649903E+03  0.49516649903E+03  0.00000000000E+00 0.  1.
         23    2    1    2    0    0 -0.15824107150E+02  0.31870696442E+02 -0.54379377494E+01  0.93342435710E+02  0.86122560799E+02 0.  0.
        -24    2    1    2    0    0 -0.29865729882E+02 -0.48963525009E+01 -0.22268753621E+03  0.23853249698E+03  0.79950467446E+02 0.  0.
         13    1    4    4    0    0  0.18080940681E+02 -0.26825726243E+02 -0.73564103422E+02  0.80363034517E+02  0.00000000000E+00 0. -1.
        -14    1    4    4    0    0 -0.47946670562E+02  0.21929373742E+02 -0.14912343279E+03  0.15816946247E+03  0.00000000000E+00 0.  1.
        -11    1    3    3    0    0 -0.40005468727E+02  0.18606653164E+02 -0.32425752469E+02  0.54754675537E+02  0.00000000000E+00 0.  1.
         11    1    3    3    0    0  0.24181361577E+02  0.13264043278E+02  0.26987814720E+02  0.38587760173E+02  0.00000000000E+00 0. -1.
         -1    1    1    2    0  502  0.45689837031E+02 -0.26974343941E+02 -0.21189536469E+03  0.21843722672E+03  0.00000000000E+00 0.  1.
<scales pt_clust_5="13000.00000" pt_clust_6="13000.00000" pt_clust_7="13000.00000" pt_clust_8="13000.00000" pt_clust_9="53.05824"></scales>
<clustering>
<clus scale="   53.058">  2  9  1 -1</clus>
<clus scale="   79.950">  5  6 -1 -1</clus>
<clus scale="   84.779">  2  5  1 -1</clus>
<clus scale="   86.123">  7  8 -1 -1</clus>
<clus scale="   53.058">  2  5  1 -1</clus>
</clustering>
</event>
<event>
 9    1  0.5981539E-005  0.1546496E+03  0.7546771E-02  0.1197388E+00
         21   -1    0    0  501  502  0.00000000000E+00  0.00000000000E+00  0.65638664342E+02  0.65638664342E+02  0.00000000000E+00 0. -1.
          1   -1    0    0  502    0 -0.00000000000E+00 -0.00000000000E+00 -0.12209439859E+04  0.12209439859E+04  0.00000000000E+00 0. -1.
        -24    2    1    2    0    0 -0.12585565538E+03 -0.38988690535E+02 -0.70116496685E+03  0.71795353007E+03  0.80406446318E+02 0.  0.
         23    2    1    2    0    0  0.29673510696E+02  0.11537935961E+03 -0.74095507094E+02  0.16922878784E+03  0.94632576853E+02 0.  0.
         11    1    3    3    0    0 -0.11195992411E+03 -0.57428305703E+02 -0.50525571372E+03  0.52068836279E+03  0.00000000000E+00 0. -1.
        -12    1    3    3    0    0 -0.13895731270E+02  0.18439615167E+02 -0.19590925314E+03  0.19726516727E+03  0.00000000000E+00 0.  1.
        -11    1    4    4    0    0  0.29929700800E+02  0.78639028300E+02  0.26050596825E+01  0.84182362154E+02  0.00000000000E+00 0. -1.
         11    1    4    4    0    0 -0.25619010370E+00  0.36740331305E+02 -0.76700566777E+02  0.85046425684E+02  0.00000000000E+00 0.  1.
          2    1    1    2  501    0  0.96182144686E+02 -0.76390669070E+02 -0.38004484762E+03  0.39940033235E+03  0.00000000000E+00 0. -1.
<scales pt_clust_5="13000.00000" pt_clust_6="13000.00000" pt_clust_7="13000.00000" pt_clust_8="13000.00000" pt_clust_9="122.82734"></scales>
<clustering>
<clus scale="   80.406">  5  6 -1 -1</clus>
<clus scale="   94.633">  7  8 -1 -1</clus>
<clus scale="  122.827">  1  9  2 -1</clus>
<clus scale="  146.377">  2  5  1 -1</clus>
<clus scale="  122.827">  1  5  2 -1</clus>
</clustering>
</event>
<event>
 9    1  0.5981539E-005  0.1097353E+03  0.7546771E-02  0.1265259E+00
         -2   -1    0    0    0  501 -0.00000000000E+00  0.00000000000E+00  0.31914295823E+03  0.31914295823E+03  0.00000000000E+00 0.  1.
         21   -1    0    0  501  502  0.00000000000E+00 -0.00000000000E+00 -0.58415342765E+02  0.58415342765E+02  0.00000000000E+00 0.  1.
        -24    2    1    2    0    0  0.18908323558E+02  0.72646865563E+02  0.15870076793E+03  0.19316335142E+03  0.80567082706E+02 0.  0.
         23    2    1    2    0    0  0.21019489852E+02 -0.43675806648E+02  0.78643846246E+02  0.12980266726E+03  0.91183786040E+02 0.  0.
         13    1    3    3    0    0  0.21791494128E+01  0.87120638971E+02  0.13550935092E+03  0.16111343400E+03  0.00000000000E+00 0. -1.
        -14    1    3    3    0    0  0.16729174145E+02 -0.14473773408E+02  0.23191417007E+02  0.32049917426E+02  0.00000000000E+00 0.  1.
        -11    1    4    4    0    0 -0.35425404677E+02 -0.83909532624E+01  0.32553331740E+02  0.48837350466E+02  0.00000000000E+00 0. -1.
         11    1    4    4    0    0  0.56444894529E+02 -0.35284853385E+02  0.46090514506E+02  0.80965316799E+02  0.00000000000E+00 0.  1.
         -1    1    1    2    0  502 -0.39927813410E+02 -0.28971058916E+02  0.23383001295E+02  0.54592282312E+02  0.00000000000E+00 0.  1.
<scales pt_clust_5="13000.00000" pt_clust_6="13000.00000" pt_clust_7="13000.00000" pt_clust_8="13000.00000" pt_clust_9="49.33105"></scales>
<clustering>
<clus scale="   49.331">  2  9  1 -1</clus>
<clus scale="   80.567">  5  6 -1 -1</clus>
<clus scale="   91.184">  7  8 -1 -1</clus>
<clus scale="  101.086">  1  5  2 -1</clus>
<clus scale="   49.331">  2  5  1 -1</clus>
</clustering>
</event>
<event>
 9    1  0.5981539E-005  0.3509185E+03  0.7546771E-02  0.1094761E+00
         21   -1    0    0  501  502  0.00000000000E+00  0.00000000000E+00  0.88067702842E+02  0.88067702842E+02  0.00000000000E+00 0. -1.
          1   -1    0    0  502    0 -0.00000000000E+00 -0.00000000000E+00 -0.23491612477E+04  0.23491612477E+04  0.00000000000E+00 0. -1.
         23    2    1    2    0    0  0.88028477323E+02 -0.69080861070E+02 -0.44992072161E+03  0.47293416616E+03  0.93364295117E+02 0.  0.
        -24    2    1    2    0    0 -0.10531378714E+03 -0.28960849053E+03 -0.13063026667E+04  0.13447379203E+04  0.83242691301E+02 0.  0.
         13    1    4    4    0    0 -0.84849024361E+02 -0.27762596428E+03 -0.12561821542E+04  0.12892901680E+04  0.00000000000E+00 0. -1.
        -14    1    4    4    0    0 -0.20464762780E+02 -0.11982526251E+02 -0.50120512566E+02  0.55447752261E+02  0.00000000000E+00 0.  1.
        -11    1    3    3    0    0 -0.16544390963E+02 -0.14411142849E+02 -0.32938888533E+02  0.39577370913E+02  0.00000000000E+00 0. -1.
         11    1    3    3    0    0  0.10457286829E+03 -0.54669718221E+02 -0.41698183307E+03  0.43335679525E+03  0.00000000000E+00 0.  1.
          2    1    1    2  501    0  0.17285309818E+02  0.35868935160E+03 -0.50487015654E+03  0.61955686410E+03  0.00000000000E+00 0. -1.
<scales pt_clust_5="13000.00000" pt_clust_6="13000.00000" pt_clust_7="13000.00000" pt_clust_8="13000.00000" pt_clust_9="340.90242"></scales>
<clustering>
<clus scale="   83.243">  5  6 -1 -1</clus>
<clus scale="   93.364">  7  8 -1 -1</clus>
<clus scale="  145.733">  2  7  1 -1</clus>
<clus scale="  340.902">  1  9  2 -1</clus>
<clus scale="  340.902">  1  5  2 -1</clus>
</clustering>
</event>
<event>
 9    1  0.5981539E-005  0.1529458E+03  0.7546771E-02  0.1217565E+00
          1   -1    0    0  502    0 -0.00000000000E+00  0.00000000000E+00  0.21966909753E+03  0.21966909753E+03  0.00000000000E+00 0. -1.
         21   -1    0    0  501  502  0.00000000000E+00 -0.00000000000E+00 -0.17011867877E+03  0.17011867877E+03  0.00000000000E+00 0.  1.
         23    2    1    2    0    0  0.35522180670E+02 -0.17330485096E+02  0.25386417054E+02  0.10139791043E+03  0.89860419734E+02 0.  0.
        -24    2    1    2    0    0 -0.13615960547E+03  0.70968472083E+02  0.11017026635E+02  0.17359540663E+03  0.80237323824E+02 0.  0.
         11    1    4    4    0    0  0.26922205345E+01  0.26772414186E+02 -0.36044053074E+01  0.27147779843E+02  0.00000000000E+00 0. -1.
        -12    1    4    4    0    0 -0.13885182601E+03  0.44196057897E+02  0.14621431943E+02  0.14644762679E+03  0.00000000000E+00 0.  1.
        -13    1    3    3    0    0  0.42546096662E+02  0.18484693049E+02  0.40801367701E+02  0.61778684224E+02  0.00000000000E+00 0.  1.
         13    1    3    3    0    0 -0.70239159915E+01 -0.35815178145E+02 -0.15414950647E+02  0.39619226202E+02  0.00000000000E+00 0. -1.
          2    1    1    2  501    0  0.10063742480E+03 -0.53637986986E+02  0.13146975073E+02  0.11479445924E+03  0.00000000000E+00 0. -1.
<scales pt_clust_5="13000.00000" pt_clust_6="13000.00000" pt_clust_7="13000.00000" pt_clust_8="13000.00000" pt_clust_9="130.20903"></scales>
<clustering>
<clus scale="   80.237">  5  6 -1 -1</clus>
<clus scale="   89.860">  7  8 -1 -1</clus>
<clus scale="   98.169">  1  7  2 -1</clus>
<clus scale="  130.209">  2  9  1 -1</clus>
<clus scale="  130.209">  2  5  1 -1</clus>
</clustering>
</event>
<event>
 9    1  0.7498344E-005  0.1439142E+03  0.7546771E-02  0.1224249E+00
         21   -1    0    0  501  502  0.00000000000E+00  0.00000000000E+00  0.11024276704E+03  0.11024276704E+03  0.00000000000E+00 0.  1.
          1   -1    0    0  502    0 -0.00000000000E+00 -0.00000000000E+00 -0.75934777331E+03  0.75934777331E+03  0.00000000000E+00 0. -1.
         23    2    1    2    0    0 -0.24864570445E+02 -0.40713727093E+02 -0.10069431399E+03  0.14363443698E+03  0.90640234882E+02 0.  0.
        -24    2    1    2    0    0 -0.99856357863E+02  0.67772725076E+02  0.18180068027E+02  0.14516992155E+03  0.78608884864E+02 0.  0.
         13    1    4    4    0    0 -0.40577399372E+02  0.40948151531E+02 -0.29257569275E+02  0.64647365093E+02  0.00000000000E+00 0. -1.
        -14    1    4    4    0    0 -0.59278958491E+02  0.26824573545E+02  0.47437637301E+02  0.80522556457E+02  0.00000000000E+00 0.  1.
        -13    1    3    3    0    0 -0.59002314545E+02 -0.24472230089E+02 -0.54693490447E+02  0.84092455455E+02  0.00000000000E+00 0.  1.
         13    1    3    3    0    0  0.34137744100E+02 -0.16241497004E+02 -0.46000823547E+02  0.59541981527E+02  0.00000000000E+00 0. -1.
          2    1    1    2  501    0  0.12472092831E+03 -0.27058997983E+02 -0.56659076030E+03  0.58078618182E+03  0.00000000000E+00 0. -1.
<scales pt_clust_5="13000.00000" pt_clust_6="13000.00000" pt_clust_7="13000.00000" pt_clust_8="13000.00000" pt_clust_9="120.54859"></scales>
<clustering>
<clus scale="   78.609">  5  6 -1 -1</clus>
<clus scale="   90.640">  7  8 -1 -1</clus>
<clus scale="  102.428">  2  7  1 -1</clus>
<clus scale="  120.549">  1  9  2 -1</clus>
<clus scale="  120.549">  1  5  2 -1</clus>
</clustering>
</event>
<event>
 9    1  0.5981539E-005  0.1521344E+03  0.7546771E-02  0.1210897E+00
          1   -1    0    0  502    0 -0.00000000000E+00  0.00000000000E+00  0.41606179075E+03  0.41606179075E+03  0.00000000000E+00 0. -1.
         21   -1    0    0  501  502  0.00000000000E+00 -0.00000000000E+00 -0.14643923968E+03  0.14643923968E+03  0.00000000000E+00 0. -1.
        -24    2    1    2    0    0 -0.53055328422E+02 -0.63092302105E+02  0.16710615962E+03  0.20279448833E+03  0.80035176363E+02 0.  0.
         23    2    1    2    0    0 -0.10534720372E+03 -0.28345284355E+01 -0.28609850789E+02  0.14376256655E+03  0.93504460301E+02 0.  0.
         11    1    3    3    0    0 -0.71798972544E+02 -0.49009345441E+02  0.15137670565E+03  0.17456206750E+03  0.00000000000E+00 0. -1.
        -12    1    3    3    0    0  0.18743644122E+02 -0.14082956664E+02  0.15729453971E+02  0.28232420824E+02  0.00000000000E+00 0.  1.
        -11    1    4    4    0    0 -0.20230106030E+02 -0.35177696210E+02  0.14402195813E+02  0.43059850730E+02  0.00000000000E+00 0.  1.
         11    1    4    4    0    0 -0.85117097693E+02  0.32343167774E+02 -0.43012046603E+02  0.10070271582E+03  0.00000000000E+00 0. -1.
          2    1    1    2  501    0  0.15840253214E+03  0.65926830541E+02  0.13112624224E+03  0.21594397556E+03  0.00000000000E+00 0. -1.
<scales pt_clust_5="13000.00000" pt_clust_6="13000.00000" pt_clust_7="13000.00000" pt_clust_8="13000.00000" pt_clust_9="120.00758"></scales>
<clustering>
<clus scale="   80.035">  5  6 -1 -1</clus>
<clus scale="   93.504">  7  8 -1 -1</clus>
<clus scale="  114.896">  1  5  2 -1</clus>
<clus scale="  120.008">  2  9  1 -1</clus>
<clus scale="  120.008">  2  5  1 -1</clus>
</clustering>
</event>
<event>
 9    1  0.5981539E-005  0.4144282E+03  0.7546771E-02  0.1038895E+00
          1   -1    0    0  502    0 -0.00000000000E+00  0.00000000000E+00  0.19132419397E+04  0.19132419397E+04  0.00000000000E+00 0. -1.
         21   -1    0    0  501  502  0.00000000000E+00 -0.00000000000E+00 -0.91006614755E+02  0.91006614755E+02  0.00000000000E+00 0. -1.
        -24    2    1    2    0    0 -0.19648030916E+03  0.58420225691E+01  0.95273757436E+03  0.97625794985E+03  0.82049119052E+02 0.  0.
         23    2    1    2    0    0 -0.15654921240E+03  0.83520406562E+01  0.41157246370E+03  0.44960761480E+03  0.90430647076E+02 0.  0.
         13    1    3    3    0    0 -0.19780920507E+03  0.14859677343E+02  0.83796745718E+03  0.86112644305E+03  0.00000000000E+00 0. -1.
        -14    1    3    3    0    0  0.13288959089E+01 -0.90176547741E+01  0.11477011718E+03  0.11513150680E+03  0.00000000000E+00 0.  1.
        -11    1    4    4    0    0 -0.12200200066E+03  0.45211532658E+02  0.30875146695E+03  0.33504632395E+03  0.00000000000E+00 0. -1.
         11    1    4    4    0    0 -0.34547211737E+02 -0.36859492001E+02  0.10282099675E+03  0.11456129085E+03  0.00000000000E+00 0.  1.
          2    1    1    2  501    0  0.35302952156E+03 -0.14194063225E+02  0.45792528692E+03  0.57838298983E+03  0.00000000000E+00 0. -1.
<scales pt_clust_5="13000.00000" pt_clust_6="13000.00000" pt_clust_7="13000.00000" pt_clust_8="13000.00000" pt_clust_9="353.31475"></scales>
<clustering>
<clus scale="   82.049">  5  6 -1 -1</clus>
<clus scale="   90.431">  7  8 -1 -1</clus>
<clus scale="  142.267">  5  7 -1 -1</clus>
<clus scale="  353.315">  2  9  1 -1</clus>
<clus scale="  353.315">  2  5  1 -1</clus>
</clustering>
</event>
<event>
 9    1  0.5981539E-005  0.1625345E+03  0.7546771E-02  0.1206035E+00
         21   -1    0    0  501  502  0.00000000000E+00  0.00000000000E+00  0.91039571774E+02  0.91039571774E+02  0.00000000000E+00 0. -1.
          1   -1    0    0  502    0 -0.00000000000E+00 -0.00000000000E+00 -0.11502581550E+04  0.11502581550E+04  0.00000000000E+00 0. -1.
        -24    2    1    2    0    0  0.62714891072E+02 -0.41143355062E+02 -0.33142350024E+03  0.34752526462E+03  0.72844627851E+02 0.  0.
         23    2    1    2    0    0 -0.19096518295E+03  0.26221181583E+01 -0.73039368950E+03  0.75983674690E+03  0.86036990128E+02 0.  0.
         11    1    3    3    0    0  0.55334526077E+02 -0.18057412911E+02 -0.30923577901E+03  0.31466608803E+03  0.00000000000E+00 0. -1.
        -12    1    3    3    0    0  0.73803649942E+01 -0.23085942151E+02 -0.22187721233E+02  0.32859176587E+02  0.00000000000E+00 0.  1.
        -11    1    4    4    0    0 -0.17890859746E+03  0.20068998692E+02 -0.69996950809E+03  0.72275055393E+03  0.00000000000E+00 0. -1.
         11    1    4    4    0    0 -0.12056585496E+02 -0.17446880534E+02 -0.30424181406E+02  0.37086192962E+02  0.00000000000E+00 0.  1.
          2    1    1    2  501    0  0.12825029188E+03  0.38521236904E+02  0.25986065392E+01  0.13393571524E+03  0.00000000000E+00 0. -1.
<scales pt_clust_5="13000.00000" pt_clust_6="13000.00000" pt_clust_7="13000.00000" pt_clust_8="13000.00000" pt_clust_9="137.89524"></scales>
<clustering>
<clus scale="   72.845">  5  6 -1 -1</clus>
<clus scale="   86.037">  7  8 -1 -1</clus>
<clus scale="  104.558">  2  5  1 -1</clus>
<clus scale="  137.895">  1  9  2 -1</clus>
<clus scale="  137.895">  1  5  2 -1</clus>
</clustering>
</event>
<event>
 9    1  0.5981539E-005  0.1666848E+03  0.7546771E-02  0.1183061E+00
         -2   -1    0    0    0  501 -0.00000000000E+00  0.00000000000E+00  0.68018982916E+03  0.68018982916E+03  0.00000000000E+00 0.  1.
         21   -1    0    0  501  502  0.00000000000E+00 -0.00000000000E+00 -0.12069462448E+03  0.12069462448E+03  0.00000000000E+00 0. -1.
        -24    2    1    2    0    0  0.13312921355E+03 -0.14914531401E+02  0.47908479598E+03  0.50395900471E+03  0.80663535442E+02 0.  0.
         23    2    1    2    0    0 -0.15647581455E+03 -0.27947488517E+01  0.14070659851E+03  0.22988581222E+03  0.92502154757E+02 0.  0.
         13    1    3    3    0    0  0.84242102345E+02 -0.28237631936E+01  0.15922582617E+03  0.18015984338E+03  0.00000000000E+00 0. -1.
        -14    1    3    3    0    0  0.48887111209E+02 -0.12090768208E+02  0.31985896981E+03  0.32379916134E+03  0.00000000000E+00 0.  1.
        -11    1    4    4    0    0 -0.12327326165E+03  0.38184778855E+02  0.10006633460E+03  0.16330231381E+03  0.00000000000E+00 0. -1.
         11    1    4    4    0    0 -0.33202552900E+02 -0.40979527706E+02  0.40640263906E+02  0.66583498410E+02  0.00000000000E+00 0.  1.
         -1    1    1    2    0  502  0.23346600999E+02  0.17709280253E+02 -0.60296189806E+02  0.67039636711E+02  0.00000000000E+00 0.  1.
<scales pt_clust_5="13000.00000" pt_clust_6="13000.00000" pt_clust_7="13000.00000" pt_clust_8="13000.00000" pt_clust_9="29.30328"></scales>
<clustering>
<clus scale="   29.303">  2  9  1 -1</clus>
<clus scale="   80.664">  5  6 -1 -1</clus>
<clus scale="   92.502">  7  8 -1 -1</clus>
<clus scale="  160.418">  1  5  2 -1</clus>
<clus scale="   29.303">  2  5  1 -1</clus>
</clustering>
</event>
<event>
 9    1  0.5981539E-005  0.1225210E+03  0.7546771E-02  0.1263803E+00
         21   -1    0    0  501  502  0.00000000000E+00  0.00000000000E+00  0.50865557097E+02  0.50865557097E+02  0.00000000000E+00 0.  1.
          3   -1    0    0  502    0 -0.00000000000E+00 -0.00000000000E+00 -0.10044481475E+04  0.10044481475E+04  0.00000000000E+00 0. -1.
        -24    2    1    2    0    0 -0.63986464846E+01  0.42263441500E+02 -0.40301140460E+03  0.40987965952E+03  0.61286229214E+02 0.  0.
         23    2    1    2    0    0  0.25826377471E+02  0.67461046407E+02 -0.44456054389E+02  0.12719720132E+03  0.94788146386E+02 0.  0.
         13    1    3    3    0    0  0.14686986925E+01  0.55883793860E+02 -0.25620496138E+03  0.26223298368E+03  0.00000000000E+00 0. -1.
        -14    1    3    3    0    0 -0.78673451771E+01 -0.13620352361E+02 -0.14680644322E+03  0.14764667585E+03  0.00000000000E+00 0.  1.
        -13    1    4    4    0    0 -0.11362901983E+02 -0.19883401271E+02 -0.16527292232E+02  0.28242106439E+02  0.00000000000E+00 0. -1.
         13    1    4    4    0    0  0.37189279455E+02  0.87344447678E+02 -0.27928762156E+02  0.98955094877E+02  0.00000000000E+00 0.  1.
          4    1    1    2  501    0 -0.19427730987E+02 -0.10972448791E+03 -0.50611513143E+03  0.51823684376E+03  0.00000000000E+00 0. -1.
<scales pt_clust_5="13000.00000" pt_clust_6="13000.00000" pt_clust_7="13000.00000" pt_clust_8="13000.00000" pt_clust_9="77.63121"></scales>
<clustering>
<clus scale="   61.286">  5  6 -1 -1</clus>
<clus scale="   74.720">  2  5  1 -1</clus>
<clus scale="   77.631">  1  9  2 -1</clus>
<clus scale="   94.788">  7  8 -1 -1</clus>
<clus scale="   77.631">  1  5  2 -1</clus>
</clustering>
</event>
<event>
 9    1  0.5981539E-005  0.1121438E+03  0.7546771E-02  0.1262433E+00
         21   -1    0    0  501  502  0.00000000000E+00  0.00000000000E+00  0.14806812986E+03  0.14806812986E+03  0.00000000000E+00 0.  1.
         -2   -1    0    0    0  501 -0.00000000000E+00 -0.00000000000E+00 -0.14041842850E+03  0.14041842850E+03  0.00000000000E+00 0.  1.
        -24    2    1    2    0    0  0.58620639370E+02  0.29301343890E+02 -0.80773813911E+02  0.13095077305E+03  0.79553427551E+02 0.  0.
         23    2    1    2    0    0 -0.32046888235E+02 -0.27997490638E+02  0.74798418401E+02  0.12764418870E+03  0.94272864525E+02 0.  0.
         11    1    3    3    0    0  0.20922457682E+02  0.50256422451E+02 -0.23600395651E+02  0.59333261396E+02  0.00000000000E+00 0. -1.
        -12    1    3    3    0    0  0.37698181688E+02 -0.20955078562E+02 -0.57173418260E+02  0.71617511655E+02  0.00000000000E+00 0.  1.
        -11    1    4    4    0    0 -0.46073985269E+02  0.97941263792E+01  0.54323904571E+01  0.47415692510E+02  0.00000000000E+00 0. -1.
         11    1    4    4    0    0  0.14027097034E+02 -0.37791617018E+02  0.69366027944E+02  0.80228496189E+02  0.00000000000E+00 0.  1.
         -1    1    1    2    0  502 -0.26573751135E+02 -0.13038532512E+01  0.13625096871E+02  0.29891596602E+02  0.00000000000E+00 0.  1.
<scales pt_clust_5="13000.00000" pt_clust_6="13000.00000" pt_clust_7="13000.00000" pt_clust_8="13000.00000" pt_clust_9="26.60572"></scales>
<clustering>
<clus scale="   26.606">  1  9  2 -1</clus>
<clus scale="   79.553">  5  6 -1 -1</clus>
<clus scale="   94.273">  7  8 -1 -1</clus>
<clus scale="  100.088">  2  5  1 -1</clus>
<clus scale="   26.606">  1  5  2 -1</clus>
</clustering>
</event>
<event>
 9    1  0.5981539E-005  0.1064054E+03  0.7546771E-02  0.1271175E+00
         21   -1    0    0  501  502  0.00000000000E+00  0.00000000000E+00  0.79621958089E+02  0.79621958089E+02  0.00000000000E+00 0.  1.
          1   -1    0    0  502    0 -0.00000000000E+00 -0.00000000000E+00 -0.49496441151E+03  0.49496441151E+03  0.00000000000E+00 0. -1.
         23    2    1    2    0    0 -0.50865405066E+02  0.23910715132E+02 -0.35660209588E+03  0.37173696832E+03  0.88680928618E+02 0.  0.
        -24    2    1    2    0    0  0.51724105516E+02 -0.74749273690E+02  0.55685044489E+01  0.12086814651E+03  0.79468632743E+02 0.  0.
         11    1    4    4    0    0 -0.20849296770E+02 -0.86478184554E+01  0.68108961899E+00  0.22581891482E+02  0.00000000000E+00 0. -1.
        -12    1    4    4    0    0  0.72573402286E+02 -0.66101455234E+02  0.48874148299E+01  0.98286255027E+02  0.00000000000E+00 0.  1.
        -11    1    3    3    0    0 -0.71925250973E+02 -0.15578992092E+01 -0.24539444039E+03  0.25572270167E+03  0.00000000000E+00 0. -1.
         11    1    3    3    0    0  0.21059845907E+02  0.25468614342E+02 -0.11120765549E+03  0.11601426665E+03  0.00000000000E+00 0.  1.
          2    1    1    2  501    0 -0.85870044992E+00  0.50838558557E+02 -0.64308861985E+02  0.81981254763E+02  0.00000000000E+00 0. -1.
<scales pt_clust_5="13000.00000" pt_clust_6="13000.00000" pt_clust_7="13000.00000" pt_clust_8="13000.00000" pt_clust_9="50.84584"></scales>
<clustering>
<clus scale="   50.846">  1  9  2 -1</clus>
<clus scale="   79.469">  5  6 -1 -1</clus>
<clus scale="   88.681">  7  8 -1 -1</clus>
<clus scale="   98.859">  1  5  2 -1</clus>
<clus scale="   50.846">  1  5  2 -1</clus>
</clustering>
</event>
<event>
 9    1  0.5981539E-005  0.9262211E+02  0.7546771E-02  0.1302238E+00
         -2   -1    0    0    0  501 -0.00000000000E+00  0.00000000000E+00  0.31584146968E+03  0.31584146968E+03  0.00000000000E+00 0.  1.
         21   -1    0    0  501  502  0.00000000000E+00 -0.00000000000E+00 -0.55920698535E+02  0.55920698535E+02  0.00000000000E+00 0. -1.
         23    2    1    2    0    0 -0.16803030418E+02  0.13703903242E+02  0.19461612542E+03  0.21589027999E+03  0.90901253700E+02 0.  0.
        -24    2    1    2    0    0  0.25212802077E+01  0.54031656142E+00 -0.59180387928E+01  0.81847993594E+02  0.81593027131E+02 0.  0.
         11    1    4    4    0    0  0.40011733043E+02  0.75794373508E+01 -0.13604659896E+02  0.42935689380E+02  0.00000000000E+00 0. -1.
        -12    1    4    4    0    0 -0.37490452835E+02 -0.70391207893E+01  0.76866211032E+01  0.38912304214E+02  0.00000000000E+00 0.  1.
        -11    1    3    3    0    0 -0.31048402175E+02 -0.29315107211E+02  0.13100202377E+03  0.13778573591E+03  0.00000000000E+00 0.  1.
         11    1    3    3    0    0  0.14245371756E+02  0.43019010452E+02  0.63614101645E+02  0.78104544073E+02  0.00000000000E+00 0. -1.
         -1    1    1    2    0  502  0.14281750211E+02 -0.14244219803E+02  0.71222684521E+02  0.74023894638E+02  0.00000000000E+00 0.  1.
<scales pt_clust_5="13000.00000" pt_clust_6="13000.00000" pt_clust_7="13000.00000" pt_clust_8="13000.00000" pt_clust_9="20.17093"></scales>
<clustering>
<clus scale="   20.171">  2  9  1 -1</clus>
<clus scale="   81.593">  5  6 -1 -1</clus>
<clus scale="   83.506">  2  5  1 -1</clus>
<clus scale="   90.901">  7  8 -1 -1</clus>
<clus scale="   20.171">  2  5  1 -1</clus>
</clustering>
</event>
<event>
 9    1  0.5981539E-005  0.4853039E+03  0.7546771E-02  0.1017688E+00
         21   -1    0    0  501  502  0.00000000000E+00  0.00000000000E+00  0.38223596498E+03  0.38223596498E+03  0.00000000000E+00 0. -1.
          1   -1    0    0  502    0 -0.00000000000E+00 -0.00000000000E+00 -0.60168086263E+03  0.60168086263E+03  0.00000000000E+00 0. -1.
        -24    2    1    2    0    0  0.20838396949E+03 -0.22320823810E+03  0.49654951172E+02  0.31942256671E+03  0.79494437872E+02 0.  0.
         23    2    1    2    0    0  0.11099510101E+03 -0.76882625860E+02 -0.31958961302E+02  0.16620386581E+03  0.91495897151E+02 0.  0.
         13    1    3    3    0    0  0.18440525463E+03 -0.16641395727E+03  0.15337277127E+02  0.24886569707E+03  0.00000000000E+00 0. -1.
        -14    1    3    3    0    0  0.23978714857E+02 -0.56794280833E+02  0.34317674044E+02  0.70556869640E+02  0.00000000000E+00 0.  1.
        -13    1    4    4    0    0  0.85629015554E+02 -0.39454839560E+02 -0.61159056673E+02  0.11238079410E+03  0.00000000000E+00 0.  1.
         13    1    4    4    0    0  0.25366085454E+02 -0.37427786299E+02  0.29200095371E+02  0.53823071709E+02  0.00000000000E+00 0. -1.
          2    1    1    2  501    0 -0.31937907049E+03  0.30009086396E+03 -0.23714088752E+03  0.49829039509E+03  0.00000000000E+00 0. -1.
<scales pt_clust_5="13000.00000" pt_clust_6="13000.00000" pt_clust_7="13000.00000" pt_clust_8="13000.00000" pt_clust_9="438.24389"></scales>
<clustering>
<clus scale="   79.494">  5  6 -1 -1</clus>
<clus scale="   91.496">  7  8 -1 -1</clus>
<clus scale="  107.471">  5  7 -1 -1</clus>
<clus scale="  438.244">  1  9  2 -1</clus>
<clus scale="  438.244">  1  5  2 -1</clus>
</clustering>
</event>
<event>
 9    1  0.5981539E-005  0.9668092E+02  0.7546771E-02  0.1293350E+00
         -4   -1    0    0    0  501 -0.00000000000E+00  0.00000000000E+00  0.85563808577E+02  0.85563808577E+02  0.00000000000E+00 0.  1.
         21   -1    0    0  501  502  0.00000000000E+00 -0.00000000000E+00 -0.27917564842E+03  0.27917564842E+03  0.00000000000E+00 0.  1.
        -24    2    1    2    0    0 -0.25943852785E+02  0.23254813954E+02  0.36726329591E+02  0.94644884563E+02  0.79968500170E+02 0.  0.
         23    2    1    2    0    0  0.39249852889E+02  0.12876044968E+02 -0.14030161467E+03  0.17217077656E+03  0.90839912676E+02 0.  0.
         11    1    3    3    0    0 -0.41970853020E+02 -0.12049622776E+02  0.38949060644E+01  0.43839664751E+02  0.00000000000E+00 0. -1.
        -12    1    3    3    0    0  0.16027000234E+02  0.35304436730E+02  0.32831423527E+02  0.50805219812E+02  0.00000000000E+00 0.  1.
        -11    1    4    4    0    0  0.56472715771E+02  0.34415677827E+02 -0.12289225371E+03  0.13955684336E+03  0.00000000000E+00 0.  1.
         11    1    4    4    0    0 -0.17222862882E+02 -0.21539632859E+02 -0.17409360967E+02  0.32613933201E+02  0.00000000000E+00 0. -1.
         -3    1    1    2    0  502 -0.13306000104E+02 -0.36130858922E+02 -0.90036554758E+02  0.97923795871E+02  0.00000000000E+00 0.  1.
<scales pt_clust_5="13000.00000" pt_clust_6="13000.00000" pt_clust_7="13000.00000" pt_clust_8="13000.00000" pt_clust_9="38.50310"></scales>
<clustering>
<clus scale="   38.503">  2  9  1 -1</clus>
<clus scale="   79.969">  5  6 -1 -1</clus>
<clus scale="   86.546">  1  5  2 -1</clus>
<clus scale="   90.840">  7  8 -1 -1</clus>
<clus scale="   38.503">  2  5  1 -1</clus>
</clustering>
</event>
<event>
 9    1  0.5981539E-005  0.9340085E+02  0.7546771E-02  0.1296896E+00
         21   -1    0    0  501  502  0.00000000000E+00  0.00000000000E+00  0.22274257289E+03  0.22274257289E+03  0.00000000000E+00 0.  1.
          1   -1    0    0  502    0 -0.00000000000E+00 -0.00000000000E+00 -0.74240813467E+02  0.74240813467E+02  0.00000000000E+00 0. -1.
         23    2    1    2    0    0  0.35724790388E+01  0.16149886529E+02 -0.15786981885E+01  0.93905282263E+02  0.92423635005E+02 0.  0.
        -24    2    1    2    0    0  0.25602299574E+02 -0.28487058309E+01  0.14288105377E+03  0.17021595975E+03  0.88853162901E+02 0.  0.
         13    1    4    4    0    0  0.37982660184E+02 -0.13937765792E+02  0.18083561846E+02  0.44316577022E+02  0.00000000000E+00 0. -1.
        -14    1    4    4    0    0 -0.12380360610E+02  0.11089059961E+02  0.12479749193E+03  0.12589938273E+03  0.00000000000E+00 0.  1.
        -11    1    3    3    0    0  0.75761513693E+00 -0.26445615092E+02  0.30596994534E+02  0.40448987785E+02  0.00000000000E+00 0. -1.
         11    1    3    3    0    0  0.28148639019E+01  0.42595501621E+02 -0.32175692723E+02  0.53456294478E+02  0.00000000000E+00 0.  1.
          2    1    1    2  501    0 -0.29174778613E+02 -0.13301180698E+02  0.71994038320E+01  0.32862144340E+02  0.00000000000E+00 0. -1.
<scales pt_clust_5="13000.00000" pt_clust_6="13000.00000" pt_clust_7="13000.00000" pt_clust_8="13000.00000" pt_clust_9="32.06384"></scales>
<clustering>
<clus scale="   32.064">  1  9  2 -1</clus>
<clus scale="   88.853">  5  6 -1 -1</clus>
<clus scale="   89.869">  1  5  2 -1</clus>
<clus scale="   92.424">  7  8 -1 -1</clus>
<clus scale="   32.064">  1  5  2 -1</clus>
</clustering>
</event>
<event>
 9    1  0.5981539E-005  0.1173159E+03  0.7546771E-02  0.1252715E+00
          1   -1    0    0  502    0 -0.00000000000E+00  0.00000000000E+00  0.72056797381E+03  0.72056797381E+03  0.00000000000E+00 0. -1.
         21   -1    0    0  501  502  0.00000000000E+00 -0.00000000000E+00 -0.10663969062E+03  0.10663969062E+03  0.00000000000E+00 0. -1.
        -24    2    1    2    0    0  0.15466052739E+01  0.78384324032E+02  0.14531365781E+03  0.18398306642E+03  0.81161661769E+02 0.  0.
         23    2    1    2    0    0 -0.35005684679E+02 -0.20068358503E+02 -0.53551011117E+02  0.11674837464E+03  0.95573716141E+02 0.  0.
         11    1    3    3    0    0  0.12072835906E+02  0.69681716297E+02  0.15282592201E+03  0.16839553851E+03  0.00000000000E+00 0. -1.
        -12    1    3    3    0    0 -0.10526230632E+02  0.87026077350E+01 -0.75122642029E+01  0.15587527904E+02  0.00000000000E+00 0.  1.
        -13    1    4    4    0    0  0.32990971235E+02 -0.10683806579E+02 -0.13067496306E+02  0.37058161932E+02  0.00000000000E+00 0.  1.
         13    1    4    4    0    0 -0.67996655914E+02 -0.93845519235E+01 -0.40483514811E+02  0.79690212710E+02  0.00000000000E+00 0. -1.
          2    1    1    2  501    0  0.33459079405E+02 -0.58315965530E+02  0.52216563650E+03  0.52647622336E+03  0.00000000000E+00 0. -1.
<scales pt_clust_5="13000.00000" pt_clust_6="13000.00000" pt_clust_7="13000.00000" pt_clust_8="13000.00000" pt_clust_9="67.23293"></scales>
<clustering>
<clus scale="   67.233">  2  9  1 -1</clus>
<clus scale="   81.162">  5  6 -1 -1</clus>
<clus scale="   95.574">  7  8 -1 -1</clus>
<clus scale="  105.905">  1  5  2 -1</clus>
<clus scale="   67.233">  2  5  1 -1</clus>
</clustering>
</event>
<event>
 9    1  0.5981539E-005  0.1002337E+03  0.7546771E-02  0.1280417E+00
          3   -1    0    0  502    0 -0.00000000000E+00  0.00000000000E+00  0.97638268562E+02  0.97638268562E+02  0.00000000000E+00 0. -1.
         21   -1    0    0  501  502  0.00000000000E+00 -0.00000000000E+00 -0.29343289461E+03  0.29343289461E+03  0.00000000000E+00 0. -1.
         23    2    1    2    0    0 -0.35186898687E+02  0.24932741425E+02 -0.16853460792E+02  0.10912301982E+03  0.98813131107E+02 0.  0.
        -24    2    1    2    0    0 -0.33375954515E+02  0.46585303183E+02 -0.14758338059E+03  0.17802987642E+03  0.81422588144E+02 0.  0.
         11    1    4    4    0    0 -0.59191330244E+02  0.41023490748E+02 -0.11915921329E+03  0.13923167198E+03  0.00000000000E+00 0. -1.
        -12    1    4    4    0    0  0.25815375729E+02  0.55618124352E+01 -0.28424167298E+02  0.38798204445E+02  0.00000000000E+00 0.  1.
        -11    1    3    3    0    0 -0.63280729411E+02  0.92123504333E+01  0.12957346651E+02  0.65247306056E+02  0.00000000000E+00 0.  1.
         11    1    3    3    0    0  0.28093830724E+02  0.15720390992E+02 -0.29810807443E+02  0.43875713761E+02  0.00000000000E+00 0. -1.
          4    1    1    2  501    0  0.68562853202E+02 -0.71518044608E+02 -0.31357784669E+02  0.10391826694E+03  0.00000000000E+00 0. -1.
<scales pt_clust_5="13000.00000" pt_clust_6="13000.00000" pt_clust_7="13000.00000" pt_clust_8="13000.00000" pt_clust_9="99.07424"></scales>
<clustering>
<clus scale="   81.423">  5  6 -1 -1</clus>
<clus scale="   98.813">  7  8 -1 -1</clus>
<clus scale="   99.074">  2  9  1 -1</clus>
<clus scale="   99.074">  2  5  1 -1</clus>
<clus scale="   99.074">  2  5  1 -1</clus>
</clustering>
</event>
<event>
 9    1  0.5981539E-005  0.1299321E+03  0.7546771E-02  0.1229728E+00
          1   -1    0    0  502    0 -0.00000000000E+00  0.00000000000E+00  0.86224426300E+03  0.86224426300E+03  0.00000000000E+00 0. -1.
         21   -1    0    0  501  502  0.00000000000E+00 -0.00000000000E+00 -0.42116530754E+02  0.42116530754E+02  0.00000000000E+00 0. -1.
        -24    2    1    2    0    0  0.10812686009E+03 -0.51840073915E+01  0.49533388832E+03  0.51392139256E+03  0.83912126713E+02 0.  0.
         23    2    1    2    0    0 -0.47458168036E+02 -0.60675300532E+02  0.13572588677E+03  0.18123894455E+03  0.92153507117E+02 0.  0.
         11    1    3    3    0    0  0.89984200200E+02 -0.26188830560E+02  0.45748948864E+03  0.46698998206E+03  0.00000000000E+00 0. -1.
        -12    1    3    3    0    0  0.18142659889E+02  0.21004823169E+02  0.37844399677E+02  0.46931410495E+02  0.00000000000E+00 0.  1.
        -13    1    4    4    0    0 -0.65366488407E+02 -0.29120307747E+02  0.47623311897E+02  0.85957838304E+02  0.00000000000E+00 0. -1.
         13    1    4    4    0    0  0.17908320371E+02 -0.31554992785E+02  0.88102574869E+02  0.95281106242E+02  0.00000000000E+00 0.  1.
          2    1    1    2  501    0 -0.60668692054E+02  0.65859307923E+02  0.18906795716E+03  0.20920045665E+03  0.00000000000E+00 0. -1.
<scales pt_clust_5="13000.00000" pt_clust_6="13000.00000" pt_clust_7="13000.00000" pt_clust_8="13000.00000" pt_clust_9="89.54406"></scales>
<clustering>
<clus scale="   83.912">  5  6 -1 -1</clus>
<clus scale="   89.544">  2  9  1 -1</clus>
<clus scale="   92.154">  7  8 -1 -1</clus>
<clus scale="  124.223">  1  5  2 -1</clus>
<clus scale="   89.544">  2  5  1 -1</clus>
</clustering>
</event>
<event>
 9    1  0.5981539E-005  0.2589230E+03  0.7546771E-02  0.1108296E+00
         21   -1    0    0  501  502  0.00000000000E+00  0.00000000000E+00  0.10438947568E+04  0.10438947568E+04  0.00000000000E+00 0. -1.
          3   -1    0    0  502    0 -0.00000000000E+00 -0.00000000000E+00 -0.18019751023E+03  0.18019751023E+03  0.00000000000E+00 0. -1.
        -24    2    1    2    0    0  0.20928744292E+03  0.14134543568E+03 -0.37264080190E+02  0.26923453544E+03  0.85550321153E+02 0.  0.
         23    2    1    2    0    0 -0.13627711786E+03 -0.85419553957E+02  0.78465727512E+03  0.80658486072E+03  0.94995500379E+02 0.  0.
         11    1    3    3    0    0  0.95045860743E+02  0.61296545702E+02 -0.59794947796E+02  0.12793130165E+03  0.00000000000E+00 0. -1.
        -12    1    3    3    0    0  0.11424158218E+03  0.80048889978E+02  0.22530867606E+02  0.14130323379E+03  0.00000000000E+00 0.  1.
        -11    1    4    4    0    0 -0.65984702890E+02  0.60566478073E+01  0.20115694759E+03  0.21178947462E+03  0.00000000000E+00 0.  1.
         11    1    4    4    0    0 -0.70292414972E+02 -0.91476201765E+02  0.58350032753E+03  0.59479538610E+03  0.00000000000E+00 0. -1.
          4    1    1    2  501    0 -0.73010325056E+02 -0.55925881723E+02  0.11630405168E+03  0.14827287091E+03  0.00000000000E+00 0. -1.
<scales pt_clust_5="13000.00000" pt_clust_6="13000.00000" pt_clust_7="13000.00000" pt_clust_8="13000.00000" pt_clust_9="91.96854"></scales>
<clustering>
<clus scale="   85.550">  5  6 -1 -1</clus>
<clus scale="   91.969">  1  9  2 -1</clus>
<clus scale="   94.996">  7  8 -1 -1</clus>
<clus scale="  255.609">  2  5  1 -1</clus>
<clus scale="   91.969">  1  5  2 -1</clus>
</clustering>
</event>
<event>
 9    1  0.5981539E-005  0.9245535E+02  0.7546771E-02  0.1302846E+00
          3   -1    0    0  502    0 -0.00000000000E+00  0.00000000000E+00  0.33259109796E+03  0.33259109796E+03  0.00000000000E+00 0. -1.
         21   -1    0    0  501  502  0.00000000000E+00 -0.00000000000E+00 -0.43619530268E+02  0.43619530268E+02  0.00000000000E+00 0.  1.
        -24    2    1    2    0    0  0.72553456327E+01  0.29713600338E+02  0.21420775995E+03  0.23059230845E+03  0.79701381481E+02 0.  0.
         23    2    1    2    0    0 -0.98915536561E+01  0.42389441438E+01  0.46792810262E+02  0.10154903830E+03  0.89480884028E+02 0.  0.
         11    1    3    3    0    0  0.35256375843E+02  0.29580041486E+02  0.18284711292E+03  0.18854988092E+03  0.00000000000E+00 0. -1.
        -12    1    3    3    0    0 -0.28001030211E+02  0.13355885212E+00  0.31360647032E+02  0.42042427536E+02  0.00000000000E+00 0.  1.
        -13    1    4    4    0    0 -0.38026066489E+02  0.29600842451E+02  0.40918089269E+02  0.63217731973E+02  0.00000000000E+00 0.  1.
         13    1    4    4    0    0  0.28134512833E+02 -0.25361898307E+02  0.58747209936E+01  0.38331306328E+02  0.00000000000E+00 0. -1.
          4    1    1    2  501    0  0.26362080234E+01 -0.33952544481E+02  0.27970997480E+02  0.44069281473E+02  0.00000000000E+00 0. -1.
<scales pt_clust_5="13000.00000" pt_clust_6="13000.00000" pt_clust_7="13000.00000" pt_clust_8="13000.00000" pt_clust_9="34.05473"></scales>
<clustering>
<clus scale="   34.055">  2  9  1 -1</clus>
<clus scale="   79.701">  5  6 -1 -1</clus>
<clus scale="   83.027">  1  5  2 -1</clus>
<clus scale="   89.481">  7  8 -1 -1</clus>
<clus scale="   34.055">  2  5  1 -1</clus>
</clustering>
</event>
<event>
 9    1  0.5981539E-005  0.1873459E+03  0.7546771E-02  0.1169473E+00
          1   -1    0    0  502    0 -0.00000000000E+00  0.00000000000E+00  0.12065196367E+04  0.12065196367E+04  0.00000000000E+00 0. -1.
         21   -1    0    0  501  502  0.00000000000E+00 -0.00000000000E+00 -0.81301155468E+02  0.81301155468E+02  0.00000000000E+00 0. -1.
         23    2    1    2    0    0 -0.93943456242E+02 -0.83756024326E+02  0.13287197071E+03  0.20313283744E+03  0.88133673832E+02 0.  0.
        -24    2    1    2    0    0 -0.12788993289E+03  0.94723907043E+02  0.23427176706E+03  0.29474639761E+03  0.81631639484E+02 0.  0.
         13    1    4    4    0    0 -0.61002249597E+02  0.66444217879E+02  0.66908688075E+02  0.11230708386E+03  0.00000000000E+00 0. -1.
        -14    1    4    4    0    0 -0.66887683292E+02  0.28279689164E+02  0.16736307898E+03  0.18243931375E+03  0.00000000000E+00 0.  1.
        -11    1    3    3    0    0 -0.74985045267E+02 -0.91351636066E+02  0.70759967315E+02  0.13774923376E+03  0.00000000000E+00 0. -1.
         11    1    3    3    0    0 -0.18958410975E+02  0.75956117406E+01  0.62112003400E+02  0.65383603685E+02  0.00000000000E+00 0.  1.
          2    1    1    2  501    0  0.22183338913E+03 -0.10967882718E+02  0.75807474341E+03  0.78994155707E+03  0.00000000000E+00 0. -1.
<scales pt_clust_5="13000.00000" pt_clust_6="13000.00000" pt_clust_7="13000.00000" pt_clust_8="13000.00000" pt_clust_9="168.62617"></scales>
<clustering>
<clus scale="   81.632">  5  6 -1 -1</clus>
<clus scale="   88.134">  7  8 -1 -1</clus>
<clus scale="  153.649">  1  7  2 -1</clus>
<clus scale="  168.626">  2  9  1 -1</clus>
<clus scale="  168.626">  2  5  1 -1</clus>
</clustering>
</event>
<event>
 9    1  0.5981539E-005  0.1137121E+03  0.7546771E-02  0.1255659E+00
         21   -1    0    0  501  502  0.00000000000E+00  0.00000000000E+00  0.24360546324E+03  0.24360546324E+03  0.00000000000E+00 0. -1.
          1   -1    0    0  502    0 -0.00000000000E+00 -0.00000000000E+00 -0.22268765500E+03  0.22268765500E+03  0.00000000000E+00 0. -1.
         23    2    1    2    0    0  0.39046090363E+02 -0.62490208648E+02 -0.16719101279E+03  0.20316971467E+03  0.88856484586E+02 0.  0.
        -24    2    1    2    0    0 -0.10442232149E+02  0.62570508643E+02  0.40116696016E+02  0.11239233108E+03  0.83657504277E+02 0.  0.
         13    1    4    4    0    0  0.26265061036E+02  0.27719134478E+01 -0.76663937624E+01  0.27501100500E+02  0.00000000000E+00 0. -1.
        -14    1    4    4    0    0 -0.36707293185E+02  0.59798595195E+02  0.47783089779E+02  0.84891230578E+02  0.00000000000E+00 0.  1.
        -11    1    3    3    0    0  0.26507014338E+02 -0.80105877074E+02 -0.15908665180E+03  0.18007813896E+03  0.00000000000E+00 0. -1.
         11    1    3    3    0    0  0.12539076024E+02  0.17615668426E+02 -0.81043609836E+01  0.23091575706E+02  0.00000000000E+00 0.  1.
          2    1    1    2  501    0 -0.28603858214E+02 -0.80299994825E-01  0.14799212501E+03  0.15073107250E+03  0.00000000000E+00 0. -1.
<scales pt_clust_5="13000.00000" pt_clust_6="13000.00000" pt_clust_7="13000.00000" pt_clust_8="13000.00000" pt_clust_9="28.60397"></scales>
<clustering>
<clus scale="   28.604">  1  9  2 -1</clus>
<clus scale="   83.658">  5  6 -1 -1</clus>
<clus scale="   88.856">  7  8 -1 -1</clus>
<clus scale="  109.698">  1  5  2 -1</clus>
<clus scale="   28.604">  1  5  2 -1</clus>
</clustering>
</event>
<event>
 9    1  0.5981539E-005  0.1198781E+03  0.7546771E-02  0.1246520E+00
          1   -1    0    0  502    0 -0.00000000000E+00  0.00000000000E+00  0.13394772555E+03  0.13394772555E+03  0.00000000000E+00 0. -1.
         21   -1    0    0  501  502  0.00000000000E+00 -0.00000000000E+00 -0.24015924145E+03  0.24015924145E+03  0.00000000000E+00 0. -1.
        -24    2    1    2    0    0  0.86248842347E+02 -0.51620226870E+02  0.52402202646E+02  0.13922430146E+03  0.80832571693E+02 0.  0.
         23    2    1    2    0    0 -0.18507915289E+02  0.28741017543E+02 -0.64422520473E+02  0.11662754636E+03  0.91011726766E+02 0.  0.
         13    1    3    3    0    0  0.79404640117E+02 -0.71122091337E+02  0.34977480740E+02  0.11219123365E+03  0.00000000000E+00 0. -1.
        -14    1    3    3    0    0  0.68442022299E+01  0.19501864468E+02  0.17424721906E+02  0.27033067813E+02  0.00000000000E+00 0.  1.
        -13    1    4    4    0    0 -0.42118633973E+02 -0.41166774113E+01 -0.21616220057E+01  0.42374508497E+02  0.00000000000E+00 0.  1.
         13    1    4    4    0    0  0.23610718683E+02  0.32857694955E+02 -0.62260898467E+02  0.74253037867E+02  0.00000000000E+00 0. -1.
          2    1    1    2  501    0 -0.67740927058E+02  0.22879209326E+02 -0.94191198076E+02  0.11825511918E+03  0.00000000000E+00 0. -1.
<scales pt_clust_5="13000.00000" pt_clust_6="13000.00000" pt_clust_7="13000.00000" pt_clust_8="13000.00000" pt_clust_9="71.50029"></scales>
<clustering>
<clus scale="   71.500">  2  9  1 -1</clus>
<clus scale="   80.833">  5  6 -1 -1</clus>
<clus scale="   91.012">  7  8 -1 -1</clus>
<clus scale="  112.346">  1  5  2 -1</clus>
<clus scale="   71.500">  2  5  1 -1</clus>
</clustering>
</event>
<event>
 9    1  0.5981539E-005  0.1035770E+03  0.7546771E-02  0.1279077E+00
         21   -1    0    0  501  502  0.00000000000E+00  0.00000000000E+00  0.47146165214E+03  0.47146165214E+03  0.00000000000E+00 0. -1.
         -2   -1    0    0    0  501 -0.00000000000E+00 -0.00000000000E+00 -0.53862337970E+02  0.53862337970E+02  0.00000000000E+00 0.  1.
         23    2    1    2    0    0  0.57918992930E+01 -0.18001033169E+02  0.90127195348E+02  0.13227490823E+03  0.94953444979E+02 0.  0.
        -24    2    1    2    0    0 -0.77635505071E+02  0.60514027911E+02  0.23996217226E+03  0.27210757056E+03  0.82288921603E+02 0.  0.
         13    1    4    4    0    0 -0.58669871422E+02  0.60034106682E+02  0.23877327949E+03  0.25309865029E+03  0.00000000000E+00 0. -1.
        -14    1    4    4    0    0 -0.18965633650E+02  0.47992122934E+00  0.11888927739E+01  0.19008920278E+02  0.00000000000E+00 0.  1.
        -11    1    3    3    0    0 -0.23269607611E+02  0.68264416130E+01 -0.91303741661E+01  0.25912133758E+02  0.00000000000E+00 0. -1.
         11    1    3    3    0    0  0.29061506904E+02 -0.24827474782E+02  0.99257569514E+02  0.10636277447E+03  0.00000000000E+00 0.  1.
         -1    1    1    2    0  502  0.71843605779E+02 -0.42512994742E+02  0.87509946560E+02  0.12094151132E+03  0.00000000000E+00 0.  1.
<scales pt_clust_5="13000.00000" pt_clust_6="13000.00000" pt_clust_7="13000.00000" pt_clust_8="13000.00000" pt_clust_9="83.47973"></scales>
<clustering>
<clus scale="   82.289">  5  6 -1 -1</clus>
<clus scale="   83.480">  1  9  2 -1</clus>
<clus scale="   92.106">  1  5  2 -1</clus>
<clus scale="   94.953">  7  8 -1 -1</clus>
<clus scale="   83.480">  1  5  2 -1</clus>
</clustering>
</event>
<event>
 9    1  0.5981539E-005  0.1089789E+03  0.7546771E-02  0.1268318E+00
          3   -1    0    0  502    0 -0.00000000000E+00  0.00000000000E+00  0.61496540837E+02  0.61496540837E+02  0.00000000000E+00 0. -1.
         21   -1    0    0  501  502  0.00000000000E+00 -0.00000000000E+00 -0.41419338691E+03  0.41419338691E+03  0.00000000000E+00 0.  1.
        -24    2    1    2    0    0 -0.19216448508E+02  0.66083430237E+02 -0.23672769355E+02  0.10889235556E+03  0.80999095339E+02 0.  0.
         23    2    1    2    0    0  0.19470223044E+02 -0.70712066557E+00 -0.19605174604E+03  0.21862278695E+03  0.94763105912E+02 0.  0.
         13    1    3    3    0    0  0.22864839572E+02  0.45485013034E+02 -0.33603788541E+02  0.60999195926E+02  0.00000000000E+00 0. -1.
        -14    1    3    3    0    0 -0.42081288080E+02  0.20598417204E+02  0.99310191863E+01  0.47893159636E+02  0.00000000000E+00 0.  1.
        -11    1    4    4    0    0  0.11954611323E+02 -0.40608354085E+02 -0.43250825255E+02  0.60519294763E+02  0.00000000000E+00 0. -1.
         11    1    4    4    0    0  0.75156117212E+01  0.39901233419E+02 -0.15280092079E+03  0.15810349219E+03  0.00000000000E+00 0.  1.
          4    1    1    2  501    0 -0.25377453571E+00 -0.65376309572E+02 -0.13297233067E+03  0.14817478523E+03  0.00000000000E+00 0. -1.
<scales pt_clust_5="13000.00000" pt_clust_6="13000.00000" pt_clust_7="13000.00000" pt_clust_8="13000.00000" pt_clust_9="65.37680"></scales>
<clustering>
<clus scale="   65.377">  2  9  1 -1</clus>
<clus scale="   80.999">  5  6 -1 -1</clus>
<clus scale="   94.763">  7  8 -1 -1</clus>
<clus scale="   97.248">  1  5  2 -1</clus>
<clus scale="   65.377">  2  5  1 -1</clus>
</clustering>
</event>
<event>
 9    1  0.5981539E-005  0.1369777E+03  0.7546771E-02  0.1222077E+00
         21   -1    0    0  501  502  0.00000000000E+00  0.00000000000E+00  0.26327291136E+03  0.26327291136E+03  0.00000000000E+00 0. -1.
          1   -1    0    0  502    0 -0.00000000000E+00 -0.00000000000E+00 -0.35036177451E+03  0.35036177451E+03  0.00000000000E+00 0. -1.
        -24    2    1    2    0    0 -0.10919190653E+03  0.44730808514E+02 -0.28061724243E+03  0.31266691702E+03  0.71350168659E+02 0.  0.
         23    2    1    2    0    0  0.21363544723E+02 -0.45191061118E+02  0.19757646646E+02  0.10626209229E+03  0.91665885737E+02 0.  0.
         13    1    3    3    0    0 -0.10764007710E+03  0.17937690322E+02 -0.20194447489E+03  0.22954240975E+03  0.00000000000E+00 0. -1.
        -14    1    3    3    0    0 -0.15518294213E+01  0.26793118192E+02 -0.78672767535E+02  0.83124507269E+02  0.00000000000E+00 0.  1.
        -11    1    4    4    0    0  0.24187955549E+02 -0.72043667512E+02  0.22143747290E+02  0.79156129050E+02  0.00000000000E+00 0.  1.
         11    1    4    4    0    0 -0.28244108257E+01  0.26852606394E+02 -0.23861006446E+01  0.27105963236E+02  0.00000000000E+00 0. -1.
          2    1    1    2  501    0  0.87828361802E+02  0.46025260421E+00  0.17377073263E+03  0.19470567657E+03  0.00000000000E+00 0. -1.
<scales pt_clust_5="13000.00000" pt_clust_6="13000.00000" pt_clust_7="13000.00000" pt_clust_8="13000.00000" pt_clust_9="87.82957"></scales>
<clustering>
<clus scale="   71.350">  5  6 -1 -1</clus>
<clus scale="   87.830">  1  9  2 -1</clus>
<clus scale="   91.666">  7  8 -1 -1</clus>
<clus scale="  124.302">  2  5  1 -1</clus>
<clus scale="   87.830">  1  5  2 -1</clus>
</clustering>
</event>
<event>
 9    1  0.5981539E-005  0.2012109E+03  0.7546771E-02  0.1149651E+00
          1   -1    0    0  502    0 -0.00000000000E+00  0.00000000000E+00  0.31846491916E+03  0.31846491916E+03  0.00000000000E+00 0. -1.
         21   -1    0    0  501  502  0.00000000000E+00 -0.00000000000E+00 -0.30388438085E+03  0.30388438085E+03  0.00000000000E+00 0.  1.
        -24    2    1    2    0    0 -0.10073194818E+03  0.10208238640E+03 -0.26430839195E+02  0.16683557492E+03  0.81041845976E+02 0.  0.
         23    2    1    2    0    0  0.25338704350E+03 -0.52702352319E+02 -0.37389489525E+02  0.27693975767E+03  0.91187300088E+02 0.  0.
         13    1    3    3    0    0 -0.93929389609E+02  0.11565276637E+03 -0.27914396143E+02  0.15158333060E+03  0.00000000000E+00 0. -1.
        -14    1    3    3    0    0 -0.68025585706E+01 -0.13570379970E+02  0.14835569480E+01  0.15252244322E+02  0.00000000000E+00 0.  1.
        -13    1    4    4    0    0  0.19173038083E+03  0.19682578285E+01 -0.31660762622E+02  0.19433686440E+03  0.00000000000E+00 0.  1.
         13    1    4    4    0    0  0.61656662663E+02 -0.54670610148E+02 -0.57287269026E+01  0.82602893270E+02  0.00000000000E+00 0. -1.
          2    1    1    2  501    0 -0.15265509532E+03 -0.49380034085E+02  0.78400867026E+02  0.17857396743E+03  0.00000000000E+00 0. -1.
<scales pt_clust_5="13000.00000" pt_clust_6="13000.00000" pt_clust_7="13000.00000" pt_clust_8="13000.00000" pt_clust_9="160.44311"></scales>
<clustering>
<clus scale="   81.042">  5  6 -1 -1</clus>
<clus scale="   91.187">  7  8 -1 -1</clus>
<clus scale="  160.443">  2  9  1 -1</clus>
<clus scale="  196.821">  1  5  2 -1</clus>
<clus scale="  160.443">  2  5  1 -1</clus>
</clustering>
</event>
<event>
 9    1  0.5981539E-005  0.1171353E+03  0.7546771E-02  0.1252711E+00
         21   -1    0    0  501  502  0.00000000000E+00  0.00000000000E+00  0.76715917321E+02  0.76715917321E+02  0.00000000000E+00 0. -1.
          1   -1    0    0  502    0 -0.00000000000E+00 -0.00000000000E+00 -0.38804416206E+03  0.38804416206E+03  0.00000000000E+00 0. -1.
         23    2    1    2    0    0 -0.70880473933E+02  0.43041864804E+02 -0.24441009264E+03  0.27466252696E+03  0.93949809058E+02 0.  0.
        -24    2    1    2    0    0  0.58250723427E+02  0.29703883616E+02 -0.46953949608E+02  0.11361210353E+03  0.80172122353E+02 0.  0.
         13    1    4    4    0    0 -0.65784432300E+01  0.23970066184E+02  0.10323457694E+02  0.26914935760E+02  0.00000000000E+00 0. -1.
        -14    1    4    4    0    0  0.64829166657E+02  0.57338174326E+01 -0.57277407302E+02  0.86697167768E+02  0.00000000000E+00 0.  1.
        -11    1    3    3    0    0 -0.24883608109E+02  0.34333667640E+02 -0.21552020580E+03  0.21965189231E+03  0.00000000000E+00 0. -1.
         11    1    3    3    0    0 -0.45996865824E+02  0.87081971645E+01 -0.28889886840E+02  0.55010634655E+02  0.00000000000E+00 0.  1.
          2    1    1    2  501    0  0.12629750506E+02 -0.72745748421E+02 -0.19964202491E+02  0.76485448892E+02  0.00000000000E+00 0. -1.
<scales pt_clust_5="13000.00000" pt_clust_6="13000.00000" pt_clust_7="13000.00000" pt_clust_8="13000.00000" pt_clust_9="73.83397"></scales>
<clustering>
<clus scale="   73.834">  1  9  2 -1</clus>
<clus scale="   80.172">  5  6 -1 -1</clus>
<clus scale="   93.950">  7  8 -1 -1</clus>
<clus scale="  106.403">  1  5  2 -1</clus>
<clus scale="   73.834">  1  5  2 -1</clus>
</clustering>
</event>
<event>
 9    1  0.5981539E-005  0.1200918E+03  0.7546771E-02  0.1246396E+00
         21   -1    0    0  501  502  0.00000000000E+00  0.00000000000E+00  0.10715471331E+03  0.10715471331E+03  0.00000000000E+00 0. -1.
         -2   -1    0    0    0  501 -0.00000000000E+00 -0.00000000000E+00 -0.28492170047E+03  0.28492170047E+03  0.00000000000E+00 0.  1.
         23    2    1    2    0    0 -0.53435419786E+02 -0.59533855164E+02 -0.14910054162E+03  0.19232579748E+03  0.91425471649E+02 0.  0.
        -24    2    1    2    0    0  0.82617412937E+02  0.15430221152E+02  0.30561051197E+02  0.12034900658E+03  0.80536804563E+02 0.  0.
         13    1    4    4    0    0  0.38561693028E+02  0.35973280788E+02  0.45334721820E+02  0.69543641710E+02  0.00000000000E+00 0. -1.
        -14    1    4    4    0    0  0.44055719909E+02 -0.20543059635E+02 -0.14773670622E+02  0.50805364870E+02  0.00000000000E+00 0.  1.
        -13    1    3    3    0    0  0.21075159710E+02 -0.36780537478E+02 -0.65783955889E+02  0.78259179310E+02  0.00000000000E+00 0. -1.
         13    1    3    3    0    0 -0.74510579496E+02 -0.22753317685E+02 -0.83316585727E+02  0.11406661817E+03  0.00000000000E+00 0.  1.
         -1    1    1    2    0  502 -0.29181993151E+02  0.44103634011E+02 -0.59227496735E+02  0.79401609724E+02  0.00000000000E+00 0.  1.
<scales pt_clust_5="13000.00000" pt_clust_6="13000.00000" pt_clust_7="13000.00000" pt_clust_8="13000.00000" pt_clust_9="52.88404"></scales>
<clustering>
<clus scale="   52.884">  1  9  2 -1</clus>
<clus scale="   80.537">  5  6 -1 -1</clus>
<clus scale="   91.425">  7  8 -1 -1</clus>
<clus scale="  112.025">  1  5  2 -1</clus>
<clus scale="   52.884">  1  5  2 -1</clus>
</clustering>
</event>
<event>
 9    1  0.5981539E-005  0.1445707E+03  0.7546771E-02  0.1209284E+00
          1   -1    0    0  502    0 -0.00000000000E+00  0.00000000000E+00  0.41251060341E+03  0.41251060341E+03  0.00000000000E+00 0. -1.
         21   -1    0    0  501  502  0.00000000000E+00 -0.00000000000E+00 -0.89737306829E+02  0.89737306829E+02  0.00000000000E+00 0. -1.
         23    2    1    2    0    0  0.73966420367E+02  0.88333737819E+02  0.31122591021E+03  0.34411123697E+03  0.90978544962E+02 0.  0.
        -24    2    1    2    0    0 -0.48603194241E+02 -0.90745782897E+02  0.24630711193E+01  0.13108790279E+03  0.81122770749E+02 0.  0.
         11    1    4    4    0    0  0.60375951167E+01 -0.70772197373E+02 -0.95951629081E+01  0.71674427985E+02  0.00000000000E+00 0. -1.
        -12    1    4    4    0    0 -0.54640789358E+02 -0.19973585524E+02  0.12058234027E+02  0.59413474803E+02  0.00000000000E+00 0.  1.
        -11    1    3    3    0    0  0.43501230830E+02  0.10289825243E+03  0.21799528546E+03  0.24495377506E+03  0.00000000000E+00 0. -1.
         11    1    3    3    0    0  0.30465189537E+02 -0.14564514613E+02  0.93230624751E+02  0.99157461902E+02  0.00000000000E+00 0.  1.
          2    1    1    2  501    0 -0.25363226126E+02  0.24120450786E+01  0.90843152504E+01  0.27048770481E+02  0.00000000000E+00 0. -1.
<scales pt_clust_5="13000.00000" pt_clust_6="13000.00000" pt_clust_7="13000.00000" pt_clust_8="13000.00000" pt_clust_9="25.47766"></scales>
<clustering>
<clus scale="   25.478">  2  9  1 -1</clus>
<clus scale="   81.123">  5  6 -1 -1</clus>
<clus scale="   90.979">  7  8 -1 -1</clus>
<clus scale="  138.580">  2  5  1 -1</clus>
<clus scale="   25.478">  2  5  1 -1</clus>
</clustering>
</event>
<event>
 9    1  0.5981539E-005  0.1865246E+03  0.7546771E-02  0.1181899E+00
         21   -1    0    0  501  502  0.00000000000E+00  0.00000000000E+00  0.14915539484E+03  0.14915539484E+03  0.00000000000E+00 0.  1.
          1   -1    0    0  502    0 -0.00000000000E+00 -0.00000000000E+00 -0.53423010506E+03  0.53423010506E+03  0.00000000000E+00 0. -1.
         23    2    1    2    0    0  0.73454471879E+02  0.24545841678E+00  0.18611767034E+02  0.11896266390E+03  0.91706585588E+02 0.  0.
        -24    2    1    2    0    0 -0.16658171597E+03 -0.12448017749E+03 -0.31409174113E+03  0.38516278537E+03  0.80324135264E+02 0.  0.
         11    1    4    4    0    0 -0.30451488270E+02 -0.50372488129E+01 -0.10047484407E+03  0.10510880698E+03  0.00000000000E+00 0. -1.
        -12    1    4    4    0    0 -0.13613022770E+03 -0.11944292867E+03 -0.21361689705E+03  0.28005397839E+03  0.00000000000E+00 0.  1.
        -13    1    3    3    0    0  0.27533481873E+02  0.39348808936E+02 -0.14487943306E+02  0.50162953362E+02  0.00000000000E+00 0. -1.
         13    1    3    3    0    0  0.45920990006E+02 -0.39103350519E+02  0.33099710340E+02  0.68799710534E+02  0.00000000000E+00 0.  1.
          2    1    1    2  501    0  0.93127244088E+02  0.12423471907E+03 -0.89594736126E+02  0.17926005064E+03  0.00000000000E+00 0. -1.
<scales pt_clust_5="13000.00000" pt_clust_6="13000.00000" pt_clust_7="13000.00000" pt_clust_8="13000.00000" pt_clust_9="168.34323"></scales>
<clustering>
<clus scale="   80.324">  5  6 -1 -1</clus>
<clus scale="   91.707">  7  8 -1 -1</clus>
<clus scale="  117.498">  2  7  1 -1</clus>
<clus scale="  168.343">  1  9  2 -1</clus>
<clus scale="  168.343">  1  5  2 -1</clus>
</clustering>
</event>
<event>
 9    1  0.5981539E-005  0.2055487E+03  0.7546771E-02  0.1157492E+00
          1   -1    0    0  502    0 -0.00000000000E+00  0.00000000000E+00  0.65709137868E+03  0.65709137868E+03  0.00000000000E+00 0. -1.
         21   -1    0    0  501  502  0.00000000000E+00 -0.00000000000E+00 -0.30295444810E+03  0.30295444810E+03  0.00000000000E+00 0. -1.
        -24    2    1    2    0    0 -0.97166301615E+02 -0.72133635488E+02 -0.99221919666E+02  0.18277562902E+03  0.94431931475E+02 0.  0.
         23    2    1    2    0    0  0.24403661836E+03 -0.31036732628E+02  0.52256523667E+03  0.58490455966E+03  0.92313419733E+02 0.  0.
         11    1    3    3    0    0  0.12215910945E+02 -0.33025076698E+02 -0.10938541173E+02  0.36871884331E+02  0.00000000000E+00 0. -1.
        -12    1    3    3    0    0 -0.10938221256E+03 -0.39108558789E+02 -0.88283378493E+02  0.14590374469E+03  0.00000000000E+00 0.  1.
        -11    1    4    4    0    0  0.52486940250E+02  0.13721927763E+02  0.19877014268E+03  0.20604062663E+03  0.00000000000E+00 0.  1.
         11    1    4    4    0    0  0.19154967811E+03 -0.44758660391E+02  0.32379509399E+03  0.37886393304E+03  0.00000000000E+00 0. -1.
          2    1    1    2  501    0 -0.14687031675E+03  0.10317036812E+03 -0.69206386428E+02  0.19236563810E+03  0.00000000000E+00 0. -1.
<scales pt_clust_5="13000.00000" pt_clust_6="13000.00000" pt_clust_7="13000.00000" pt_clust_8="13000.00000" pt_clust_9="183.65325"></scales>
<clustering>
<clus scale="   92.313">  7  8 -1 -1</clus>
<clus scale="   94.432">  5  6 -1 -1</clus>
<clus scale="  153.499">  1  5  2 -1</clus>
<clus scale="  183.653">  2  9  1 -1</clus>
<clus scale="  183.653">  2  5  1 -1</clus>
</clustering>
</event>
<event>
 9    1  0.5981539E-005  0.9089005E+02  0.7546771E-02  0.1306715E+00
         -2   -1    0    0    0  501 -0.00000000000E+00  0.00000000000E+00  0.15748860063E+03  0.15748860063E+03  0.00000000000E+00 0.  1.
         21   -1    0    0  501  502  0.00000000000E+00 -0.00000000000E+00 -0.15020202649E+03  0.15020202649E+03  0.00000000000E+00 0. -1.
         23    2    1    2    0    0 -0.10050394507E+02 -0.86765379631E+01  0.12075716903E+03  0.15136337009E+03  0.90289994962E+02 0.  0.
        -24    2    1    2    0    0 -0.10544807447E+02  0.24278219946E+01 -0.68377362993E+02  0.10636118496E+03  0.80747449567E+02 0.  0.
         13    1    4    4    0    0 -0.25299038040E+02  0.34629938043E+02 -0.51808872354E+02  0.67256473214E+02  0.00000000000E+00 0. -1.
        -14    1    4    4    0    0  0.14754230593E+02 -0.32202116048E+02 -0.16568490639E+02  0.39104711742E+02  0.00000000000E+00 0.  1.
        -13    1    3    3    0    0  0.25774751934E+02  0.39906449151E+01  0.14176766252E+01  0.26120353963E+02  0.00000000000E+00 0.  1.
         13    1    3    3    0    0 -0.35825146441E+02 -0.12667182878E+02  0.11933949241E+03  0.12524301612E+03  0.00000000000E+00 0. -1.
         -1    1    1    2    0  502  0.20595201954E+02  0.62487159685E+01 -0.45093231904E+02  0.49966072072E+02  0.00000000000E+00 0.  1.
<scales pt_clust_5="13000.00000" pt_clust_6="13000.00000" pt_clust_7="13000.00000" pt_clust_8="13000.00000" pt_clust_9="21.52229"></scales>
<clustering>
<clus scale="   21.522">  2  9  1 -1</clus>
<clus scale="   80.747">  5  6 -1 -1</clus>
<clus scale="   81.418">  2  5  1 -1</clus>
<clus scale="   90.290">  7  8 -1 -1</clus>
<clus scale="   21.522">  2  5  1 -1</clus>
</clustering>
</event>
<event>
 9    1  0.5981539E-005  0.9882258E+02  0.7546771E-02  0.1289661E+00
         21   -1    0    0  501  502  0.00000000000E+00  0.00000000000E+00  0.77942836495E+02  0.77942836495E+02  0.00000000000E+00 0. -1.
         -2   -1    0    0    0  501 -0.00000000000E+00 -0.00000000000E+00 -0.33937296895E+03  0.33937296895E+03  0.00000000000E+00 0.  1.
        -24    2    1    2    0    0  0.31554046749E+02 -0.69019765739E+01 -0.18440090296E+03  0.20362408186E+03  0.80098555262E+02 0.  0.
         23    2    1    2    0    0 -0.46106234559E+02 -0.30792864872E+02  0.18640608789E+02  0.10983901443E+03  0.92968550608E+02 0.  0.
         11    1    3    3    0    0 -0.37032842260E+01  0.28828461408E+02 -0.32290357470E+02  0.43444927054E+02  0.00000000000E+00 0. -1.
        -12    1    3    3    0    0  0.35257330975E+02 -0.35730437982E+02 -0.15211054549E+03  0.16017915481E+03  0.00000000000E+00 0.  1.
        -13    1    4    4    0    0  0.26060656967E+02 -0.78619044487E+01 -0.98298446707E+01  0.28941202970E+02  0.00000000000E+00 0.  1.
         13    1    4    4    0    0 -0.72166891525E+02 -0.22930960423E+02  0.28470453460E+02  0.80897811457E+02  0.00000000000E+00 0. -1.
         -1    1    1    2    0  502  0.14552187810E+02  0.37694841446E+02 -0.95669838280E+02  0.10385270915E+03  0.00000000000E+00 0.  1.
<scales pt_clust_5="13000.00000" pt_clust_6="13000.00000" pt_clust_7="13000.00000" pt_clust_8="13000.00000" pt_clust_9="40.40630"></scales>
<clustering>
<clus scale="   40.406">  1  9  2 -1</clus>
<clus scale="   80.099">  5  6 -1 -1</clus>
<clus scale="   86.825">  2  5  1 -1</clus>
<clus scale="   92.969">  7  8 -1 -1</clus>
<clus scale="   40.406">  1  5  2 -1</clus>
</clustering>
</event>
<event>
 9    1  0.5981539E-005  0.1058136E+03  0.7546771E-02  0.1275797E+00
          1   -1    0    0  502    0 -0.00000000000E+00  0.00000000000E+00  0.18800644079E+03  0.18800644079E+03  0.00000000000E+00 0. -1.
         21   -1    0    0  501  502  0.00000000000E+00 -0.00000000000E+00 -0.14315606498E+03  0.14315606498E+03  0.00000000000E+00 0.  1.
         23    2    1    2    0    0 -0.19577924341E+02 -0.58308770153E+02  0.91902766429E+02  0.14571595018E+03  0.94888417955E+02 0.  0.
        -24    2    1    2    0    0  0.93081284432E-01  0.32824977017E+02  0.38594937226E+02  0.93988654944E+02  0.79163187774E+02 0.  0.
         11    1    4    4    0    0  0.35055594353E+02  0.78595071121E+00  0.40065787349E+01  0.35292564191E+02  0.00000000000E+00 0. -1.
        -12    1    4    4    0    0 -0.34962513069E+02  0.32039026305E+02  0.34588358491E+02  0.58696090754E+02  0.00000000000E+00 0.  1.
        -13    1    3    3    0    0 -0.97210421081E+01  0.23005180849E+02  0.35321177041E+01  0.25223260317E+02  0.00000000000E+00 0.  1.
         13    1    3    3    0    0 -0.98568822333E+01 -0.81313951002E+02  0.88370648725E+02  0.12049268987E+03  0.00000000000E+00 0. -1.
          2    1    1    2  501    0  0.19484843057E+02  0.25483793136E+02 -0.85647327847E+02  0.91457900637E+02  0.00000000000E+00 0. -1.
<scales pt_clust_5="13000.00000" pt_clust_6="13000.00000" pt_clust_7="13000.00000" pt_clust_8="13000.00000" pt_clust_9="32.07932"></scales>
<clustering>
<clus scale="   32.079">  2  9  1 -1</clus>
<clus scale="   79.163">  5  6 -1 -1</clus>
<clus scale="   91.976">  2  5  1 -1</clus>
<clus scale="   94.888">  7  8 -1 -1</clus>
<clus scale="   32.079">  2  5  1 -1</clus>
</clustering>
</event>
<event>
 9    1  0.5981539E-005  0.1059209E+03  0.7546771E-02  0.1273325E+00
          3   -1    0    0  502    0 -0.00000000000E+00  0.00000000000E+00  0.30832042220E+03  0.30832042220E+03  0.00000000000E+00 0. -1.
         21   -1    0    0  501  502  0.00000000000E+00 -0.00000000000E+00 -0.88908092055E+02  0.88908092055E+02  0.00000000000E+00 0. -1.
        -24    2    1    2    0    0 -0.51918288685E+02 -0.32809379198E+00  0.14237713607E+02  0.95000530317E+02  0.78273698815E+02 0.  0.
         23    2    1    2    0    0  0.56754782123E+02 -0.30054138693E+02  0.17372845294E+02  0.11192302604E+03  0.90003285813E+02 0.  0.
         11    1    3    3    0    0 -0.18993099234E+02 -0.33259863558E+02  0.26826227121E+02  0.46761124922E+02  0.00000000000E+00 0. -1.
        -12    1    3    3    0    0 -0.32925189451E+02  0.32931769766E+02 -0.12588513514E+02  0.48239405395E+02  0.00000000000E+00 0.  1.
        -11    1    4    4    0    0  0.19556635491E+02 -0.44261441434E+02  0.42863545216E+02  0.64643798604E+02  0.00000000000E+00 0.  1.
         11    1    4    4    0    0  0.37198146632E+02  0.14207302741E+02 -0.25490699922E+02  0.47279227432E+02  0.00000000000E+00 0. -1.
          4    1    1    2  501    0 -0.48364934378E+01  0.30382232485E+02  0.18780177125E+03  0.19030495791E+03  0.00000000000E+00 0. -1.
<scales pt_clust_5="13000.00000" pt_clust_6="13000.00000" pt_clust_7="13000.00000" pt_clust_8="13000.00000" pt_clust_9="30.76480"></scales>
<clustering>
<clus scale="   30.765">  2  9  1 -1</clus>
<clus scale="   78.274">  5  6 -1 -1</clus>
<clus scale="   90.003">  7  8 -1 -1</clus>
<clus scale="   96.153">  1  5  2 -1</clus>
<clus scale="   30.765">  2  5  1 -1</clus>
</clustering>
</event>
<event>
 9    1  0.5981539E-005  0.1752583E+03  0.7546771E-02  0.1207820E+00
         21   -1    0    0  501  502  0.00000000000E+00  0.00000000000E+00  0.23468781446E+03  0.23468781446E+03  0.00000000000E+00 0.  1.
          1   -1    0    0  502    0 -0.00000000000E+00 -0.00000000000E+00 -0.27569536233E+03  0.27569536233E+03  0.00000000000E+00 0. -1.
        -24    2    1    2    0    0  0.15605493678E+02  0.19563276653E+02 -0.14340311690E+03  0.16433695112E+03  0.76262220927E+02 0.  0.
         23    2    1    2    0    0  0.46944025469E+02 -0.15006008127E+03  0.31923952018E+02  0.18508627051E+03  0.92282280535E+02 0.  0.
         11    1    3    3    0    0  0.18728439591E+02  0.47018837751E+02 -0.74165278753E+02  0.89788719367E+02  0.00000000000E+00 0. -1.
        -12    1    3    3    0    0 -0.31229459131E+01 -0.27455561098E+02 -0.69237838145E+02  0.74548231752E+02  0.00000000000E+00 0.  1.
        -13    1    4    4    0    0  0.35853734718E+02 -0.86803056935E+01  0.21940674731E+02  0.42921220949E+02  0.00000000000E+00 0. -1.
         13    1    4    4    0    0  0.11090290751E+02 -0.14137977558E+03  0.99832772873E+01  0.14216504956E+03  0.00000000000E+00 0.  1.
          2    1    1    2  501    0 -0.62549519147E+02  0.13049680462E+03  0.70471617015E+02  0.16095995516E+03  0.00000000000E+00 0. -1.
<scales pt_clust_5="13000.00000" pt_clust_6="13000.00000" pt_clust_7="13000.00000" pt_clust_8="13000.00000" pt_clust_9="148.99483"></scales>
<clustering>
<clus scale="   76.262">  5  6 -1 -1</clus>
<clus scale="   80.263">  2  5  1 -1</clus>
<clus scale="   92.282">  7  8 -1 -1</clus>
<clus scale="  148.995">  1  9  2 -1</clus>
<clus scale="  148.995">  1  5  2 -1</clus>
</clustering>
</event>
<event>
 9    1  0.5981539E-005  0.1448715E+03  0.7546771E-02  0.1220758E+00
         21   -1    0    0  501  502  0.00000000000E+00  0.00000000000E+00  0.46548399761E+03  0.46548399761E+03  0.00000000000E+00 0. -1.
         -2   -1    0    0    0  501 -0.00000000000E+00 -0.00000000000E+00 -0.79620631326E+02  0.79620631326E+02  0.00000000000E+00 0.  1.
        -24    2    1    2    0    0  0.62994054816E+02  0.34637591450E+02  0.12030008073E+03  0.16167623639E+03  0.80616885977E+02 0.  0.
         23    2    1    2    0    0 -0.52104406518E+02  0.94718073048E+02  0.17511412573E+03  0.22521169656E+03  0.91482067618E+02 0.  0.
         11    1    3    3    0    0  0.55762506487E+02  0.55819239441E+02  0.11360159147E+03  0.13831329006E+03  0.00000000000E+00 0. -1.
        -12    1    3    3    0    0  0.72315483283E+01 -0.21181647991E+02  0.66984892586E+01  0.23362946329E+02  0.00000000000E+00 0.  1.
        -11    1    4    4    0    0  0.89333384437E+01  0.77707113757E+02  0.94280779753E+02  0.12250332851E+03  0.00000000000E+00 0.  1.
         11    1    4    4    0    0 -0.61037744962E+02  0.17010959291E+02  0.80833345980E+02  0.10270836805E+03  0.00000000000E+00 0. -1.
         -1    1    1    2    0  502 -0.10889648298E+02 -0.12935566450E+03  0.90449159822E+02  0.15821669599E+03  0.00000000000E+00 0.  1.
<scales pt_clust_5="13000.00000" pt_clust_6="13000.00000" pt_clust_7="13000.00000" pt_clust_8="13000.00000" pt_clust_9="112.33347"></scales>
<clustering>
<clus scale="   80.617">  5  6 -1 -1</clus>
<clus scale="   91.482">  7  8 -1 -1</clus>
<clus scale="  108.014">  2  5  1 -1</clus>
<clus scale="  112.333">  1  9  2 -1</clus>
<clus scale="  112.333">  1  5  2 -1</clus>
</clustering>
</event>
<event>
 9    1  0.5981539E-005  0.1414420E+03  0.7546771E-02  0.1212123E+00
         21   -1    0    0  501  502  0.00000000000E+00  0.00000000000E+00  0.67722836394E+03  0.67722836394E+03  0.00000000000E+00 0.  1.
         -4   -1    0    0    0  501 -0.00000000000E+00 -0.00000000000E+00 -0.11057626947E+03  0.11057626947E+03  0.00000000000E+00 0.  1.
         23    2    1    2    0    0 -0.11359030131E+03  0.24542582487E+02 -0.31520032727E+02  0.14781796837E+03  0.85741147660E+02 0.  0.
        -24    2    1    2    0    0  0.66402448502E+02 -0.95213903300E+02  0.35685103763E+03  0.38414101371E+03  0.82138193349E+02 0.  0.
         11    1    4    4    0    0  0.19794611492E+02 -0.28724557153E+02  0.26096570215E+02  0.43565557552E+02  0.00000000000E+00 0. -1.
        -12    1    4    4    0    0  0.46607837010E+02 -0.66489346147E+02  0.33075446741E+03  0.34057545615E+03  0.00000000000E+00 0.  1.
        -11    1    3    3    0    0 -0.53427726329E+02  0.39128267172E+02 -0.50262423053E+02  0.83137563133E+02  0.00000000000E+00 0.  1.
         11    1    3    3    0    0 -0.60162574980E+02 -0.14585684684E+02  0.18742390326E+02  0.64680405232E+02  0.00000000000E+00 0. -1.
         -3    1    1    2    0  502  0.47187852807E+02  0.70671320812E+02  0.24132108957E+03  0.25584565134E+03  0.00000000000E+00 0.  1.
<scales pt_clust_5="13000.00000" pt_clust_6="13000.00000" pt_clust_7="13000.00000" pt_clust_8="13000.00000" pt_clust_9="84.97723"></scales>
<clustering>
<clus scale="   82.138">  5  6 -1 -1</clus>
<clus scale="   84.977">  1  9  2 -1</clus>
<clus scale="   85.741">  7  8 -1 -1</clus>
<clus scale="  139.287">  1  5  2 -1</clus>
<clus scale="   84.977">  1  5  2 -1</clus>
</clustering>
</event>
<event>
 9    1  0.5981539E-005  0.1178180E+03  0.7546771E-02  0.1247192E+00
         21   -1    0    0  501  502  0.00000000000E+00  0.00000000000E+00  0.10787806168E+03  0.10787806168E+03  0.00000000000E+00 0. -1.
          1   -1    0    0  502    0 -0.00000000000E+00 -0.00000000000E+00 -0.26806449561E+03  0.26806449561E+03  0.00000000000E+00 0. -1.
         23    2    1    2    0    0 -0.63156836667E+02  0.57847168856E+02 -0.87404637841E+02  0.14930073844E+03  0.85533962969E+02 0.  0.
        -24    2    1    2    0    0  0.76271010911E+02 -0.75677862672E+01  0.22517218227E+02  0.11809735788E+03  0.86979436225E+02 0.  0.
         11    1    4    4    0    0  0.36370459782E+02 -0.64919499736E+01  0.55258687593E+02  0.66471635407E+02  0.00000000000E+00 0. -1.
        -12    1    4    4    0    0  0.39900551129E+02 -0.10758362936E+01 -0.32741469366E+02  0.51625722468E+02  0.00000000000E+00 0.  1.
        -13    1    3    3    0    0  0.13330304389E+02  0.36581409895E+02 -0.44253456636E+02  0.58942896003E+02  0.00000000000E+00 0.  1.
         13    1    3    3    0    0 -0.76487141056E+02  0.21265758961E+02 -0.43151181205E+02  0.90357842440E+02  0.00000000000E+00 0. -1.
          2    1    1    2  501    0 -0.13114174244E+02 -0.50279382589E+02 -0.95299014309E+02  0.10854446097E+03  0.00000000000E+00 0. -1.
<scales pt_clust_5="13000.00000" pt_clust_6="13000.00000" pt_clust_7="13000.00000" pt_clust_8="13000.00000" pt_clust_9="51.96153"></scales>
<clustering>
<clus scale="   51.962">  1  9  2 -1</clus>
<clus scale="   85.534">  7  8 -1 -1</clus>
<clus scale="   86.979">  5  6 -1 -1</clus>
<clus scale="  116.755">  2  7  1 -1</clus>
<clus scale="   51.962">  1  5  2 -1</clus>
</clustering>
</event>
<event>
 9    1  0.5981539E-005  0.1077239E+03  0.7546771E-02  0.1269443E+00
         21   -1    0    0  501  502  0.00000000000E+00  0.00000000000E+00  0.53596992515E+02  0.53596992515E+02  0.00000000000E+00 0.  1.
         -2   -1    0    0    0  501 -0.00000000000E+00 -0.00000000000E+00 -0.46491493063E+03  0.46491493063E+03  0.00000000000E+00 0.  1.
        -24    2    1    2    0    0 -0.41126200453E+02  0.56796905386E+02 -0.19493975823E+03  0.22229465213E+03  0.80598698533E+02 0.  0.
         23    2    1    2    0    0 -0.36333331215E+02 -0.47942435043E+02 -0.69083753284E+02  0.12956185166E+03  0.91624889642E+02 0.  0.
         11    1    3    3    0    0  0.19964485425E+02  0.17073160208E+02 -0.95284575067E+02  0.98839383464E+02  0.00000000000E+00 0. -1.
        -12    1    3    3    0    0 -0.61090685879E+02  0.39723745178E+02 -0.99655183158E+02  0.12345526867E+03  0.00000000000E+00 0.  1.
        -13    1    4    4    0    0  0.72058068709E+01 -0.51789790970E+02 -0.57417551851E+01  0.52602983318E+02  0.00000000000E+00 0.  1.
         13    1    4    4    0    0 -0.43539138085E+02  0.38473559264E+01 -0.63341998099E+02  0.76958868339E+02  0.00000000000E+00 0. -1.
         -1    1    1    2    0  502  0.77459531668E+02 -0.88544703424E+01 -0.14729442661E+03  0.16665541935E+03  0.00000000000E+00 0.  1.
<scales pt_clust_5="13000.00000" pt_clust_6="13000.00000" pt_clust_7="13000.00000" pt_clust_8="13000.00000" pt_clust_9="77.96401"></scales>
<clustering>
<clus scale="   77.964">  1  9  2 -1</clus>
<clus scale="   80.599">  5  6 -1 -1</clus>
<clus scale="   91.625">  7  8 -1 -1</clus>
<clus scale="   98.516">  2  5  1 -1</clus>
<clus scale="   77.964">  1  5  2 -1</clus>
</clustering>
</event>
<event>
 9    1  0.5981539E-005  0.9474077E+02  0.7546771E-02  0.1296840E+00
          3   -1    0    0  502    0 -0.00000000000E+00  0.00000000000E+00  0.29849016793E+02  0.29849016793E+02  0.00000000000E+00 0. -1.
         21   -1    0    0  501  502  0.00000000000E+00 -0.00000000000E+00 -0.42359505075E+03  0.42359505075E+03  0.00000000000E+00 0. -1.
         23    2    1    2    0    0  0.24816835791E+02  0.14619659239E+02 -0.17476392528E+03  0.19876941551E+03  0.90206658232E+02 0.  0.
        -24    2    1    2    0    0 -0.32682967846E+02  0.49776745001E+01 -0.21629841036E+03  0.23338771332E+03  0.81190324375E+02 0.  0.
         13    1    4    4    0    0 -0.40573683927E+02  0.32066323346E+02 -0.18075289262E+03  0.18800553479E+03  0.00000000000E+00 0. -1.
        -14    1    4    4    0    0  0.78907160808E+01 -0.27088648846E+02 -0.35545517736E+02  0.45382178525E+02  0.00000000000E+00 0.  1.
        -13    1    3    3    0    0  0.36840310280E+02 -0.15927375428E+02 -0.29418598884E+02  0.49762874815E+02  0.00000000000E+00 0. -1.
         13    1    3    3    0    0 -0.12023474489E+02  0.30547034668E+02 -0.14534532640E+03  0.14900654070E+03  0.00000000000E+00 0.  1.
          4    1    1    2  501    0  0.78661320551E+01 -0.19597333739E+02 -0.26836983193E+01  0.21286938715E+02  0.00000000000E+00 0. -1.
<scales pt_clust_5="13000.00000" pt_clust_6="13000.00000" pt_clust_7="13000.00000" pt_clust_8="13000.00000" pt_clust_9="21.11710"></scales>
<clustering>
<clus scale="   21.117">  2  9  1 -1</clus>
<clus scale="   81.190">  5  6 -1 -1</clus>
<clus scale="   86.200">  2  5  1 -1</clus>
<clus scale="   90.207">  7  8 -1 -1</clus>
<clus scale="   21.117">  2  5  1 -1</clus>
</clustering>
</event>
<event>
 9    1  0.5981539E-005  0.1120385E+03  0.7546771E-02  0.1259943E+00
          1   -1    0    0  502    0 -0.00000000000E+00  0.00000000000E+00  0.61837719718E+03  0.61837719718E+03  0.00000000000E+00 0. -1.
         21   -1    0    0  501  502  0.00000000000E+00 -0.00000000000E+00 -0.52447585228E+02  0.52447585228E+02  0.00000000000E+00 0.  1.
        -24    2    1    2    0    0  0.99835598679E+01  0.86229085813E+02  0.22958207126E+03  0.25835237005E+03  0.80640516844E+02 0.  0.
         23    2    1    2    0    0 -0.76324474241E+02 -0.81750919115E+01  0.98249299615E+02  0.15327303874E+03  0.89148426979E+02 0.  0.
         11    1    3    3    0    0 -0.30533362460E+02  0.26696924042E+02  0.12468630346E+03  0.13111707077E+03  0.00000000000E+00 0. -1.
        -12    1    3    3    0    0  0.40516922328E+02  0.59532161770E+02  0.10489576780E+03  0.12723529928E+03  0.00000000000E+00 0.  1.
        -11    1    4    4    0    0 -0.87135236689E+02 -0.30434866258E+02  0.83510539416E+02  0.12447024042E+03  0.00000000000E+00 0.  1.
         11    1    4    4    0    0  0.10810762447E+02  0.22259774346E+02  0.14738760199E+02  0.28802798316E+02  0.00000000000E+00 0. -1.
          2    1    1    2  501    0  0.66340914373E+02 -0.78053993901E+02  0.23809824107E+03  0.25919937362E+03  0.00000000000E+00 0. -1.
<scales pt_clust_5="13000.00000" pt_clust_6="13000.00000" pt_clust_7="13000.00000" pt_clust_8="13000.00000" pt_clust_9="102.43805"></scales>
<clustering>
<clus scale="   80.641">  5  6 -1 -1</clus>
<clus scale="   89.148">  7  8 -1 -1</clus>
<clus scale="  102.438">  2  9  1 -1</clus>
<clus scale="  105.395">  1  5  2 -1</clus>
<clus scale="  102.438">  2  5  1 -1</clus>
</clustering>
</event>
<event>
 9    1  0.7895430E-005  0.1162926E+03  0.7546771E-02  0.1269590E+00
         21   -1    0    0  501  502  0.00000000000E+00  0.00000000000E+00  0.91694657496E+02  0.91694657496E+02  0.00000000000E+00 0. -1.
          3   -1    0    0  502    0 -0.00000000000E+00 -0.00000000000E+00 -0.51592585808E+03  0.51592585808E+03  0.00000000000E+00 0. -1.
         23    2    1    2    0    0 -0.41691822993E+02 -0.69011069015E+01 -0.43399061381E+03  0.45034172978E+03  0.11257880496E+03 0.  0.
        -24    2    1    2    0    0 -0.15156963347E+02 -0.26992516934E+02 -0.24838866774E+02  0.82595432738E+02  0.72434154224E+02 0.  0.
         11    1    4    4    0    0 -0.29507687930E+02 -0.45745136803E+02 -0.22368364164E+02  0.58852909048E+02  0.00000000000E+00 0. -1.
        -12    1    4    4    0    0  0.14350724583E+02  0.18752619868E+02 -0.24705026099E+01  0.23742523689E+02  0.00000000000E+00 0.  1.
        -11    1    3    3    0    0  0.26086119822E+02  0.19670425253E+02 -0.51532017079E+02  0.61016063961E+02  0.00000000000E+00 0.  1.
         11    1    3    3    0    0 -0.67777942815E+02 -0.26571532155E+02 -0.38245859673E+03  0.38932566582E+03  0.00000000000E+00 0. -1.
          4    1    1    2  501    0  0.56848786340E+02  0.33893623836E+02  0.34598279999E+02  0.74683353058E+02  0.00000000000E+00 0. -1.
<scales pt_clust_5="13000.00000" pt_clust_6="13000.00000" pt_clust_7="13000.00000" pt_clust_8="13000.00000" pt_clust_9="66.18582"></scales>
<clustering>
<clus scale="   66.186">  1  9  2 -1</clus>
<clus scale="   72.434">  5  6 -1 -1</clus>
<clus scale="   78.081">  1  5  2 -1</clus>
<clus scale="  112.579">  7  8 -1 -1</clus>
<clus scale="   66.186">  1  5  2 -1</clus>
</clustering>
</event>
<event>
 9    1  0.5981539E-005  0.1322902E+03  0.7546771E-02  0.1226727E+00
         -2   -1    0    0    0  501 -0.00000000000E+00  0.00000000000E+00  0.63239294222E+03  0.63239294222E+03  0.00000000000E+00 0.  1.
         21   -1    0    0  501  502  0.00000000000E+00 -0.00000000000E+00 -0.70971612351E+02  0.70971612351E+02  0.00000000000E+00 0.  1.
        -24    2    1    2    0    0 -0.56429846928E+02 -0.10592964867E+03  0.46195021841E+03  0.48404111228E+03  0.80575281577E+02 0.  0.
         23    2    1    2    0    0  0.22829852426E+02  0.44162900832E+02  0.10641194158E+03  0.14866747374E+03  0.91142484419E+02 0.  0.
         11    1    3    3    0    0 -0.10641238549E+02 -0.35897145048E+02  0.43892651138E+02  0.57692337484E+02  0.00000000000E+00 0. -1.
        -12    1    3    3    0    0 -0.45788608379E+02 -0.70032503621E+02  0.41805756727E+03  0.42634877480E+03  0.00000000000E+00 0.  1.
        -13    1    4    4    0    0  0.42002376239E+02 -0.11245195696E+02  0.32290827979E+02  0.54160424736E+02  0.00000000000E+00 0.  1.
         13    1    4    4    0    0 -0.19172523813E+02  0.55408096528E+02  0.74121113601E+02  0.94507049005E+02  0.00000000000E+00 0. -1.
         -1    1    1    2    0  502  0.33599994502E+02  0.61766747836E+02 -0.69408301187E+01  0.70655968549E+02  0.00000000000E+00 0.  1.
<scales pt_clust_5="13000.00000" pt_clust_6="13000.00000" pt_clust_7="13000.00000" pt_clust_8="13000.00000" pt_clust_9="70.31423"></scales>
<clustering>
<clus scale="   70.314">  2  9  1 -1</clus>
<clus scale="   80.575">  5  6 -1 -1</clus>
<clus scale="   91.142">  7  8 -1 -1</clus>
<clus scale="  125.244">  1  5  2 -1</clus>
<clus scale="   70.314">  2  5  1 -1</clus>
</clustering>
</event>
<event>
 9    1  0.5981539E-005  0.1256803E+03  0.7546771E-02  0.1238093E+00
         21   -1    0    0  501  502  0.00000000000E+00  0.00000000000E+00  0.33894095261E+03  0.33894095261E+03  0.00000000000E+00 0. -1.
          3   -1    0    0  502    0 -0.00000000000E+00 -0.00000000000E+00 -0.18724069160E+03  0.18724069160E+03  0.00000000000E+00 0. -1.
        -24    2    1    2    0    0 -0.10722122878E+03 -0.26198536075E+02 -0.78850236926E+02  0.15705266634E+03  0.79154437319E+02 0.  0.
         23    2    1    2    0    0  0.49362833330E+02  0.25507548969E+02 -0.21389556262E+02  0.11062972777E+03  0.93242153454E+02 0.  0.
         11    1    3    3    0    0 -0.90683839378E+02 -0.48630687569E+02 -0.42702981454E+02  0.11140936730E+03  0.00000000000E+00 0. -1.
        -12    1    3    3    0    0 -0.16537389406E+02  0.22432151494E+02 -0.36147255472E+02  0.45643299039E+02  0.00000000000E+00 0.  1.
        -11    1    4    4    0    0 -0.11687315021E+02  0.43347115336E+02 -0.10403202407E+02  0.46084621737E+02  0.00000000000E+00 0.  1.
         11    1    4    4    0    0  0.61050148351E+02 -0.17839566367E+02 -0.10986353855E+02  0.64545106033E+02  0.00000000000E+00 0. -1.
          4    1    1    2  501    0  0.57858395454E+02  0.69098710626E+00  0.25194005421E+03  0.25849925010E+03  0.00000000000E+00 0. -1.
<scales pt_clust_5="13000.00000" pt_clust_6="13000.00000" pt_clust_7="13000.00000" pt_clust_8="13000.00000" pt_clust_9="57.86252"></scales>
<clustering>
<clus scale="   57.863">  1  9  2 -1</clus>
<clus scale="   79.154">  5  6 -1 -1</clus>
<clus scale="   93.242">  7  8 -1 -1</clus>
<clus scale="  115.615">  2  5  1 -1</clus>
<clus scale="   57.863">  1  5  2 -1</clus>
</clustering>
</event>
<event>
 9    1  0.5981539E-005  0.2749147E+03  0.7546771E-02  0.1142273E+00
         -4   -1    0    0    0  501 -0.00000000000E+00  0.00000000000E+00  0.10138960636E+04  0.10138960636E+04  0.00000000000E+00 0.  1.
         21   -1    0    0  501  502  0.00000000000E+00 -0.00000000000E+00 -0.10158582442E+03  0.10158582442E+03  0.00000000000E+00 0. -1.
         23    2    1    2    0    0 -0.83603158747E+01 -0.13683314940E+02  0.11453666157E+03  0.14692564963E+03  0.90616619262E+02 0.  0.
        -24    2    1    2    0    0  0.10214355013E+02  0.26887519896E+03  0.30970029575E+03  0.41779143960E+03  0.78975997305E+02 0.  0.
         11    1    4    4    0    0  0.17864974338E+02  0.21490760517E+03  0.19474627828E+03  0.29056935311E+03  0.00000000000E+00 0. -1.
        -12    1    4    4    0    0 -0.76506193245E+01  0.53967593791E+02  0.11495401748E+03  0.12722208649E+03  0.00000000000E+00 0.  1.
        -13    1    3    3    0    0 -0.43186242399E+02 -0.21339356131E+02  0.34336307766E+02  0.59155740918E+02  0.00000000000E+00 0. -1.
         13    1    3    3    0    0  0.34825926525E+02  0.76560411904E+01  0.80200353804E+02  0.87769908712E+02  0.00000000000E+00 0.  1.
         -3    1    1    2    0  502 -0.18540391387E+01 -0.25519188402E+03  0.48807328189E+03  0.55076479882E+03  0.00000000000E+00 0.  1.
<scales pt_clust_5="13000.00000" pt_clust_6="13000.00000" pt_clust_7="13000.00000" pt_clust_8="13000.00000" pt_clust_9="263.32670"></scales>
<clustering>
<clus scale="   78.976">  5  6 -1 -1</clus>
<clus scale="   90.617">  7  8 -1 -1</clus>
<clus scale="   92.024">  1  7  2 -1</clus>
<clus scale="  263.327">  2  9  1 -1</clus>
<clus scale="  263.327">  2  5  1 -1</clus>
</clustering>
</event>
<event>
 9    1  0.5981539E-005  0.2211781E+03  0.7546771E-02  0.1134031E+00
         -2   -1    0    0    0  501 -0.00000000000E+00  0.00000000000E+00  0.26721588499E+03  0.26721588499E+03  0.00000000000E+00 0.  1.
         21   -1    0    0  501  502  0.00000000000E+00 -0.00000000000E+00 -0.23001432953E+03  0.23001432953E+03  0.00000000000E+00 0.  1.
        -24    2    1    2    0    0  0.20040539734E+03  0.58987589344E+02  0.82594154178E+02  0.23854560016E+03  0.80251791711E+02 0.  0.
         23    2    1    2    0    0 -0.18209750250E+03 -0.48540705530E+02 -0.21523017121E+01  0.21058014803E+03  0.93934369816E+02 0.  0.
         11    1    3    3    0    0  0.58843561153E+02 -0.23400428155E+01  0.57382336412E+02  0.82223920009E+02  0.00000000000E+00 0. -1.
        -12    1    3    3    0    0  0.14156183619E+03  0.61327632160E+02  0.25211817766E+02  0.15632168015E+03  0.00000000000E+00 0.  1.
        -11    1    4    4    0    0 -0.14849295091E+03 -0.23373428588E+02  0.35197574164E+02  0.15438699058E+03  0.00000000000E+00 0. -1.
         11    1    4    4    0    0 -0.33604551587E+02 -0.25167276941E+02 -0.37349875876E+02  0.56193157448E+02  0.00000000000E+00 0.  1.
         -1    1    1    2    0  502 -0.18307894843E+02 -0.10446883814E+02 -0.43240297008E+02  0.48104466324E+02  0.00000000000E+00 0.  1.
<scales pt_clust_5="13000.00000" pt_clust_6="13000.00000" pt_clust_7="13000.00000" pt_clust_8="13000.00000" pt_clust_9="21.07881"></scales>
<clustering>
<clus scale="   21.079">  2  9  1 -1</clus>
<clus scale="   80.252">  5  6 -1 -1</clus>
<clus scale="   93.934">  7  8 -1 -1</clus>
<clus scale="  215.723">  1  5  2 -1</clus>
<clus scale="   21.079">  2  5  1 -1</clus>
</clustering>
</event>
<event>
 9    1  0.5981539E-005  0.1159853E+03  0.7546771E-02  0.1249980E+00
         21   -1    0    0  501  502  0.00000000000E+00  0.00000000000E+00  0.31852423266E+03  0.31852423266E+03  0.00000000000E+00 0. -1.
         -2   -1    0    0    0  501 -0.00000000000E+00 -0.00000000000E+00 -0.74194821410E+02  0.74194821410E+02  0.00000000000E+00 0.  1.
         23    2    1    2    0    0 -0.53532886098E+02  0.46097511893E+02  0.39877425213E+02  0.12226576042E+03  0.91476535972E+02 0.  0.
        -24    2    1    2    0    0  0.72096767832E+02 -0.22968131100E+02  0.81058739759E+02  0.14354592905E+03  0.91156104999E+02 0.  0.
         11    1    4    4    0    0  0.68022040490E+02  0.11027405270E+02  0.84612399057E+02  0.10912314023E+03  0.00000000000E+00 0. -1.
        -12    1    4    4    0    0  0.40747273421E+01 -0.33995536370E+02 -0.35536592984E+01  0.34422788824E+02  0.00000000000E+00 0.  1.
        -13    1    3    3    0    0  0.21516150699E+02  0.32935538785E+02  0.15194241280E+02  0.42172970302E+02  0.00000000000E+00 0. -1.
         13    1    3    3    0    0 -0.75049036797E+02  0.13161973108E+02  0.24683183932E+02  0.80092790121E+02  0.00000000000E+00 0.  1.
         -1    1    1    2    0  502 -0.18563881734E+02 -0.23129380793E+02  0.12339324628E+03  0.12690736460E+03  0.00000000000E+00 0.  1.
<scales pt_clust_5="13000.00000" pt_clust_6="13000.00000" pt_clust_7="13000.00000" pt_clust_8="13000.00000" pt_clust_9="29.65781"></scales>
<clustering>
<clus scale="   29.658">  1  9  2 -1</clus>
<clus scale="   91.156">  5  6 -1 -1</clus>
<clus scale="   91.477">  7  8 -1 -1</clus>
<clus scale="  115.733">  1  5  2 -1</clus>
<clus scale="   29.658">  1  5  2 -1</clus>
</clustering>
</event>
<event>
 9    1  0.5981539E-005  0.1336293E+03  0.7546771E-02  0.1242770E+00
          1   -1    0    0  502    0 -0.00000000000E+00  0.00000000000E+00  0.81494687913E+03  0.81494687913E+03  0.00000000000E+00 0. -1.
         21   -1    0    0  501  502  0.00000000000E+00 -0.00000000000E+00 -0.38992978205E+02  0.38992978205E+02  0.00000000000E+00 0.  1.
        -24    2    1    2    0    0 -0.11208818768E+02 -0.32129723223E+02  0.29534724890E+03  0.30802936858E+03  0.80586213107E+02 0.  0.
         23    2    1    2    0    0  0.11833776889E+02 -0.89353109681E+02  0.16199363368E+03  0.20492262281E+03  0.87334572201E+02 0.  0.
         11    1    3    3    0    0  0.32326299384E+02 -0.29243021602E+02  0.13585735766E+03  0.14267924017E+03  0.00000000000E+00 0. -1.
        -12    1    3    3    0    0 -0.43535118152E+02 -0.28867016212E+01  0.15948989124E+03  0.16535012841E+03  0.00000000000E+00 0.  1.
        -13    1    4    4    0    0  0.32336550175E+02 -0.47113617260E+02  0.29403076518E+02  0.64264191563E+02  0.00000000000E+00 0.  1.
         13    1    4    4    0    0 -0.20502773286E+02 -0.42239492421E+02  0.13259055717E+03  0.14065843125E+03  0.00000000000E+00 0. -1.
          2    1    1    2  501    0 -0.62495812105E+00  0.12148283290E+03  0.31861301834E+03  0.34098786594E+03  0.00000000000E+00 0. -1.
<scales pt_clust_5="13000.00000" pt_clust_6="13000.00000" pt_clust_7="13000.00000" pt_clust_8="13000.00000" pt_clust_9="101.14088"></scales>
<clustering>
<clus scale="   80.586">  5  6 -1 -1</clus>
<clus scale="   87.335">  7  8 -1 -1</clus>
<clus scale="   87.476">  1  5  2 -1</clus>
<clus scale="  101.141">  2  9  1 -1</clus>
<clus scale="  101.141">  2  5  1 -1</clus>
</clustering>
</event>
<event>
 9    1  0.5981539E-005  0.9816912E+02  0.7546771E-02  0.1290090E+00
         21   -1    0    0  501  502  0.00000000000E+00  0.00000000000E+00  0.31544000518E+02  0.31544000518E+02  0.00000000000E+00 0.  1.
         -4   -1    0    0    0  501 -0.00000000000E+00 -0.00000000000E+00 -0.47728530049E+03  0.47728530049E+03  0.00000000000E+00 0.  1.
        -24    2    1    2    0    0 -0.61199171828E+01  0.52553803833E+02 -0.22623167432E+03  0.24557583043E+03  0.79544719111E+02 0.  0.
         23    2    1    2    0    0 -0.25396688134E+02 -0.14129654572E+02 -0.15196204709E+03  0.17939414179E+03  0.90802838305E+02 0.  0.
         11    1    3    3    0    0  0.28933740780E+02  0.11060197646E+02 -0.34809134412E+02  0.46595763391E+02  0.00000000000E+00 0. -1.
        -12    1    3    3    0    0 -0.35053657963E+02  0.41493606187E+02 -0.19142253991E+03  0.19898006704E+03  0.00000000000E+00 0.  1.
        -13    1    4    4    0    0  0.62177949025E+01  0.34335184209E+02 -0.38046977003E+02  0.51624977551E+02  0.00000000000E+00 0.  1.
         13    1    4    4    0    0 -0.31614483036E+02 -0.48464838781E+02 -0.11391507009E+03  0.12776916423E+03  0.00000000000E+00 0. -1.
         -3    1    1    2    0  502  0.31516605316E+02 -0.38424149262E+02 -0.67547578553E+02  0.83859328792E+02  0.00000000000E+00 0.  1.
<scales pt_clust_5="13000.00000" pt_clust_6="13000.00000" pt_clust_7="13000.00000" pt_clust_8="13000.00000" pt_clust_9="49.69619"></scales>
<clustering>
<clus scale="   49.696">  1  9  2 -1</clus>
<clus scale="   79.545">  5  6 -1 -1</clus>
<clus scale="   87.860">  2  5  1 -1</clus>
<clus scale="   90.803">  7  8 -1 -1</clus>
<clus scale="   49.696">  1  5  2 -1</clus>
</clustering>
</event>
<event>
 9    1  0.5981539E-005  0.9569087E+02  0.7546771E-02  0.1291343E+00
          1   -1    0    0  502    0 -0.00000000000E+00  0.00000000000E+00  0.83011292602E+03  0.83011292602E+03  0.00000000000E+00 0. -1.
         21   -1    0    0  501  502  0.00000000000E+00 -0.00000000000E+00 -0.94581068841E+02  0.94581068841E+02  0.00000000000E+00 0. -1.
         23    2    1    2    0    0  0.36563986071E+02  0.59565272034E+01  0.20726855192E+03  0.22923024771E+03  0.90630284985E+02 0.  0.
        -24    2    1    2    0    0  0.54629302346E+02  0.27796518479E+02 -0.45114024218E+02  0.11389943781E+03  0.84739598991E+02 0.  0.
         13    1    4    4    0    0  0.71725996100E+01  0.50505512026E+02 -0.29918999160E+02  0.59138815011E+02  0.00000000000E+00 0. -1.
        -14    1    4    4    0    0  0.47456702736E+02 -0.22708993546E+02 -0.15195025058E+02  0.54760622795E+02  0.00000000000E+00 0.  1.
        -11    1    3    3    0    0  0.14813974136E+01 -0.38684407754E+02  0.60096786227E+02  0.71486373921E+02  0.00000000000E+00 0.  1.
         11    1    3    3    0    0  0.35082588657E+02  0.44640934957E+02  0.14717176570E+03  0.15774387379E+03  0.00000000000E+00 0. -1.
          2    1    1    2  501    0 -0.91193288417E+02 -0.33753045683E+02  0.57337732947E+03  0.58156430934E+03  0.00000000000E+00 0. -1.
<scales pt_clust_5="13000.00000" pt_clust_6="13000.00000" pt_clust_7="13000.00000" pt_clust_8="13000.00000" pt_clust_9="97.23936"></scales>
<clustering>
<clus scale="   84.740">  5  6 -1 -1</clus>
<clus scale="   90.630">  7  8 -1 -1</clus>
<clus scale="   97.239">  2  9  1 -1</clus>
<clus scale="   97.239">  2  5  1 -1</clus>
<clus scale="   95.691">  2  5  1 -1</clus>
</clustering>
</event>
<event>
 9    1  0.5981539E-005  0.1013915E+03  0.7546771E-02  0.1278260E+00
         21   -1    0    0  501  502  0.00000000000E+00  0.00000000000E+00  0.47883570617E+02  0.47883570617E+02  0.00000000000E+00 0. -1.
         -2   -1    0    0    0  501 -0.00000000000E+00 -0.00000000000E+00 -0.68441599054E+03  0.68441599054E+03  0.00000000000E+00 0.  1.
         23    2    1    2    0    0 -0.33224804277E+02 -0.35119269879E+02 -0.37001602923E+03  0.38410155393E+03  0.91021377209E+02 0.  0.
        -24    2    1    2    0    0 -0.65260278231E+02  0.62537402376E+02 -0.12757042998E+03  0.17569570155E+03  0.80155688048E+02 0.  0.
         11    1    4    4    0    0 -0.46290343506E+02  0.44466698769E+02 -0.23462227064E+02  0.68341490327E+02  0.00000000000E+00 0. -1.
        -12    1    4    4    0    0 -0.18969934725E+02  0.18070703606E+02 -0.10410820292E+03  0.10735421122E+03  0.00000000000E+00 0.  1.
        -13    1    3    3    0    0 -0.52961087500E+02 -0.46738060601E+02 -0.33424496120E+03  0.34162701472E+03  0.00000000000E+00 0. -1.
         13    1    3    3    0    0  0.19736283222E+02  0.11618790722E+02 -0.35771068027E+02  0.42474539209E+02  0.00000000000E+00 0.  1.
         -1    1    1    2    0  502  0.98485082508E+02 -0.27418132497E+02 -0.13894596072E+03  0.17250230568E+03  0.00000000000E+00 0.  1.
<scales pt_clust_5="13000.00000" pt_clust_6="13000.00000" pt_clust_7="13000.00000" pt_clust_8="13000.00000" pt_clust_9="102.23045"></scales>
<clustering>
<clus scale="   80.156">  5  6 -1 -1</clus>
<clus scale="   91.021">  7  8 -1 -1</clus>
<clus scale="  102.230">  1  9  2 -1</clus>
<clus scale="  102.230">  1  5  2 -1</clus>
<clus scale="  101.392">  1  5  2 -1</clus>
</clustering>
</event>
<event>
 9    1  0.5981539E-005  0.9106645E+02  0.7546771E-02  0.1305664E+00
         21   -1    0    0  501  502  0.00000000000E+00  0.00000000000E+00  0.42744859522E+03  0.42744859522E+03  0.00000000000E+00 0. -1.
         -2   -1    0    0    0  501 -0.00000000000E+00 -0.00000000000E+00 -0.50331179332E+02  0.50331179332E+02  0.00000000000E+00 0.  1.
         23    2    1    2    0    0 -0.12134375454E+02 -0.69939059187E+01  0.85199021779E+02  0.12468175960E+03  0.89947262749E+02 0.  0.
        -24    2    1    2    0    0  0.17780354808E+02 -0.36560997134E+02  0.29537871762E+03  0.30904258962E+03  0.81276613165E+02 0.  0.
         11    1    4    4    0    0  0.33083922533E+02 -0.41792046934E+02  0.28473591679E+03  0.28968200397E+03  0.00000000000E+00 0. -1.
        -12    1    4    4    0    0 -0.15303567725E+02  0.52310497992E+01  0.10642800837E+02  0.19360585651E+02  0.00000000000E+00 0.  1.
        -13    1    3    3    0    0 -0.34774993547E+02  0.31123960106E+02  0.42164393985E+02  0.62895446489E+02  0.00000000000E+00 0. -1.
         13    1    3    3    0    0  0.22640618093E+02 -0.38117866025E+02  0.43034627794E+02  0.61786313107E+02  0.00000000000E+00 0.  1.
         -1    1    1    2    0  502 -0.56459793545E+01  0.43554903053E+02 -0.34603235111E+01  0.44055425337E+02  0.00000000000E+00 0.  1.
<scales pt_clust_5="13000.00000" pt_clust_6="13000.00000" pt_clust_7="13000.00000" pt_clust_8="13000.00000" pt_clust_9="43.91934"></scales>
<clustering>
<clus scale="   43.919">  1  9  2 -1</clus>
<clus scale="   81.277">  5  6 -1 -1</clus>
<clus scale="   82.513">  1  5  2 -1</clus>
<clus scale="   89.947">  7  8 -1 -1</clus>
<clus scale="   43.919">  1  5  2 -1</clus>
</clustering>
</event>
<event>
 9    1  0.5981539E-005  0.9097227E+02  0.7546771E-02  0.1302993E+00
         21   -1    0    0  501  502  0.00000000000E+00  0.00000000000E+00  0.33687997938E+02  0.33687997938E+02  0.00000000000E+00 0.  1.
          1   -1    0    0  502    0 -0.00000000000E+00 -0.00000000000E+00 -0.38628914503E+03  0.38628914503E+03  0.00000000000E+00 0. -1.
        -24    2    1    2    0    0 -0.27702019966E+02 -0.58172500249E+02 -0.15731932257E+03  0.18720883195E+03  0.78398570218E+02 0.  0.
         23    2    1    2    0    0  0.23134611747E+02  0.18597418726E+02 -0.89067211841E+02  0.11932849330E+03  0.73656274985E+02 0.  0.
         11    1    3    3    0    0 -0.11454491632E+02 -0.39815668952E+02 -0.15733082002E+03  0.16269443691E+03  0.00000000000E+00 0. -1.
        -12    1    3    3    0    0 -0.16247528334E+02 -0.18356831297E+02  0.11497450601E-01  0.24514395045E+02  0.00000000000E+00 0.  1.
        -11    1    4    4    0    0  0.36852042052E+02 -0.12376378098E+02 -0.70975988261E+02  0.80924895106E+02  0.00000000000E+00 0.  1.
         11    1    4    4    0    0 -0.13717430304E+02  0.30973796823E+02 -0.18091223580E+02  0.38403598197E+02  0.00000000000E+00 0. -1.
          2    1    1    2  501    0  0.45674082186E+01  0.39575081523E+02 -0.10621461268E+03  0.11343981771E+03  0.00000000000E+00 0. -1.
<scales pt_clust_5="13000.00000" pt_clust_6="13000.00000" pt_clust_7="13000.00000" pt_clust_8="13000.00000" pt_clust_9="39.83779"></scales>
<clustering>
<clus scale="   39.838">  1  9  2 -1</clus>
<clus scale="   73.656">  7  8 -1 -1</clus>
<clus scale="   78.399">  5  6 -1 -1</clus>
<clus scale="   86.919">  1  7  2 -1</clus>
<clus scale="   39.838">  1  5  2 -1</clus>
</clustering>
</event>
<event>
 9    1  0.5981539E-005  0.1450175E+03  0.7546771E-02  0.1213207E+00
         21   -1    0    0  501  502  0.00000000000E+00  0.00000000000E+00  0.73288373424E+02  0.73288373424E+02  0.00000000000E+00 0. -1.
          1   -1    0    0  502    0 -0.00000000000E+00 -0.00000000000E+00 -0.44884664292E+03  0.44884664292E+03  0.00000000000E+00 0. -1.
        -24    2    1    2    0    0  0.84939871868E+02  0.95807907562E+01 -0.16182027866E+03  0.19863182304E+03  0.77215446335E+02 0.  0.
         23    2    1    2    0    0 -0.13690317373E+03 -0.19374531838E+02 -0.10592764451E+03  0.20342333288E+03  0.10508346696E+03 0.  0.
         11    1    3    3    0    0  0.17530853876E+02  0.30859376061E+02 -0.21455333450E+02  0.41472439788E+02  0.00000000000E+00 0. -1.
        -12    1    3    3    0    0  0.67409017993E+02 -0.21278585305E+02 -0.14036494521E+03  0.15715938325E+03  0.00000000000E+00 0.  1.
        -11    1    4    4    0    0 -0.16203612083E+02  0.36645845777E+02 -0.31411694071E+02  0.50913353667E+02  0.00000000000E+00 0.  1.
         11    1    4    4    0    0 -0.12069956165E+03 -0.56020377615E+02 -0.74515950435E+02  0.15250997921E+03  0.00000000000E+00 0. -1.
          2    1    1    2  501    0  0.51963301863E+02  0.97937410816E+01 -0.10781034632E+03  0.12007986042E+03  0.00000000000E+00 0. -1.
<scales pt_clust_5="13000.00000" pt_clust_6="13000.00000" pt_clust_7="13000.00000" pt_clust_8="13000.00000" pt_clust_9="52.87821"></scales>
<clustering>
<clus scale="   52.878">  1  9  2 -1</clus>
<clus scale="   77.215">  5  6 -1 -1</clus>
<clus scale="  105.083">  7  8 -1 -1</clus>
<clus scale="  126.292">  2  5  1 -1</clus>
<clus scale="   52.878">  1  5  2 -1</clus>
</clustering>
</event>
<event>
 9    1  0.5981539E-005  0.9593241E+02  0.7546771E-02  0.1294126E+00
         -2   -1    0    0    0  501 -0.00000000000E+00  0.00000000000E+00  0.50770132393E+03  0.50770132393E+03  0.00000000000E+00 0.  1.
         21   -1    0    0  501  502  0.00000000000E+00 -0.00000000000E+00 -0.12708647046E+03  0.12708647046E+03  0.00000000000E+00 0.  1.
        -24    2    1    2    0    0 -0.19994793091E+02  0.30278214993E+02  0.45121136962E+03  0.45984705958E+03  0.80938594488E+02 0.  0.
         23    2    1    2    0    0  0.23201663861E+01  0.42687353265E+01  0.45037161658E+01  0.90407137347E+02  0.90164082376E+02 0.  0.
         11    1    3    3    0    0  0.57994143299E+01  0.53602748624E+02  0.27729049424E+03  0.28248346157E+03  0.00000000000E+00 0. -1.
        -12    1    3    3    0    0 -0.25794207421E+02 -0.23324533631E+02  0.17392087539E+03  0.17736359801E+03  0.00000000000E+00 0.  1.
        -13    1    4    4    0    0  0.21620814589E+02 -0.26737762849E+02  0.30188489745E+02  0.45757103260E+02  0.00000000000E+00 0.  1.
         13    1    4    4    0    0 -0.19300648203E+02  0.31006498175E+02 -0.25684773580E+02  0.44650034087E+02  0.00000000000E+00 0. -1.
         -1    1    1    2    0  502  0.17674626705E+02 -0.34546950319E+02 -0.75100232319E+02  0.84533597463E+02  0.00000000000E+00 0.  1.
<scales pt_clust_5="13000.00000" pt_clust_6="13000.00000" pt_clust_7="13000.00000" pt_clust_8="13000.00000" pt_clust_9="38.80572"></scales>
<clustering>
<clus scale="   38.806">  2  9  1 -1</clus>
<clus scale="   80.939">  5  6 -1 -1</clus>
<clus scale="   87.319">  1  5  2 -1</clus>
<clus scale="   90.164">  7  8 -1 -1</clus>
<clus scale="   38.806">  2  5  1 -1</clus>
</clustering>
</event>
<event>
 9    1  0.5981539E-005  0.9659113E+02  0.7546771E-02  0.1290585E+00
          1   -1    0    0  502    0 -0.00000000000E+00  0.00000000000E+00  0.51546848277E+03  0.51546848277E+03  0.00000000000E+00 0. -1.
         21   -1    0    0  501  502  0.00000000000E+00 -0.00000000000E+00 -0.26026742772E+03  0.26026742772E+03  0.00000000000E+00 0. -1.
        -24    2    1    2    0    0  0.34113537350E+01 -0.12477858904E+02 -0.10506735812E+03  0.13296944520E+03  0.80463590018E+02 0.  0.
         23    2    1    2    0    0  0.34192112177E+02  0.74222122689E+02 -0.11299837197E+03  0.16400992520E+03  0.86328439499E+02 0.  0.
         11    1    3    3    0    0 -0.11106473123E+02 -0.23751294846E+02 -0.11068585790E+03  0.11374900831E+03  0.00000000000E+00 0. -1.
        -12    1    3    3    0    0  0.14517826858E+02  0.11273435943E+02  0.56184997817E+01  0.19220436895E+02  0.00000000000E+00 0.  1.
        -13    1    4    4    0    0 -0.26683892884E+01  0.81273149309E+02 -0.78917067593E+02  0.11331526224E+03  0.00000000000E+00 0. -1.
         13    1    4    4    0    0  0.36860501465E+02 -0.70510266199E+01 -0.34081304374E+02  0.50694662959E+02  0.00000000000E+00 0.  1.
          2    1    1    2  501    0 -0.37603465912E+02 -0.61744263785E+02  0.47326678513E+03  0.47875654008E+03  0.00000000000E+00 0. -1.
<scales pt_clust_5="13000.00000" pt_clust_6="13000.00000" pt_clust_7="13000.00000" pt_clust_8="13000.00000" pt_clust_9="72.29371"></scales>
<clustering>
<clus scale="   72.294">  2  9  1 -1</clus>
<clus scale="   80.464">  5  6 -1 -1</clus>
<clus scale="   86.328">  7  8 -1 -1</clus>
<clus scale="   91.387">  1  5  2 -1</clus>
<clus scale="   72.294">  2  5  1 -1</clus>
</clustering>
</event>
<event>
 9    1  0.5981539E-005  0.1367462E+03  0.7546771E-02  0.1220044E+00
          3   -1    0    0  502    0 -0.00000000000E+00  0.00000000000E+00  0.86070465088E+03  0.86070465088E+03  0.00000000000E+00 0. -1.
         21   -1    0    0  501  502  0.00000000000E+00 -0.00000000000E+00 -0.79718155140E+02  0.79718155140E+02  0.00000000000E+00 0. -1.
        -24    2    1    2    0    0  0.99304695462E+02  0.94215121729E+02  0.64985247508E+03  0.66904562659E+03  0.81091919420E+02 0.  0.
         23    2    1    2    0    0 -0.12394842284E+02 -0.44710713478E+02  0.13735428247E+03  0.17116390349E+03  0.90984630185E+02 0.  0.
         13    1    3    3    0    0  0.10177967192E+03  0.10569856229E+03  0.58390529248E+03  0.60206036099E+03  0.00000000000E+00 0. -1.
        -14    1    3    3    0    0 -0.24749764568E+01 -0.11483440563E+02  0.65947182602E+02  0.66985265609E+02  0.00000000000E+00 0.  1.
        -11    1    4    4    0    0  0.91595963094E+01 -0.43713188076E+02  0.14220004949E+03  0.14904896877E+03  0.00000000000E+00 0.  1.
         11    1    4    4    0    0 -0.21554438594E+02 -0.99752540185E+00 -0.48457670126E+01  0.22114934726E+02  0.00000000000E+00 0. -1.
          4    1    1    2  501    0 -0.86909853178E+02 -0.49504408251E+02 -0.62202618160E+01  0.10021327593E+03  0.00000000000E+00 0. -1.
<scales pt_clust_5="13000.00000" pt_clust_6="13000.00000" pt_clust_7="13000.00000" pt_clust_8="13000.00000" pt_clust_9="100.02004"></scales>
<clustering>
<clus scale="   81.092">  5  6 -1 -1</clus>
<clus scale="   90.985">  7  8 -1 -1</clus>
<clus scale="  100.020">  2  9  1 -1</clus>
<clus scale="  130.373">  1  5  2 -1</clus>
<clus scale="  100.020">  2  5  1 -1</clus>
</clustering>
</event>
<event>
 9    1  0.5981539E-005  0.2232566E+03  0.7546771E-02  0.1146579E+00
          1   -1    0    0  502    0 -0.00000000000E+00  0.00000000000E+00  0.36940663174E+03  0.36940663174E+03  0.00000000000E+00 0. -1.
         21   -1    0    0  501  502  0.00000000000E+00 -0.00000000000E+00 -0.30555902004E+03  0.30555902004E+03  0.00000000000E+00 0. -1.
        -24    2    1    2    0    0 -0.13280632645E+03  0.93314228872E+00  0.61546375627E+02  0.16677136752E+03  0.79914589236E+02 0.  0.
         23    2    1    2    0    0 -0.33329364753E+02  0.15275564990E+03  0.15263846977E+03  0.23649114373E+03  0.90467803533E+02 0.  0.
         11    1    3    3    0    0 -0.10702391195E+03 -0.12882319810E+02  0.78142800457E+02  0.13314041143E+03  0.00000000000E+00 0. -1.
        -12    1    3    3    0    0 -0.25782414496E+02  0.13815462099E+02 -0.16596424830E+02  0.33630956088E+02  0.00000000000E+00 0.  1.
        -11    1    4    4    0    0  0.20779004641E+02  0.54292050236E+01  0.31984803691E+02  0.38526237400E+02  0.00000000000E+00 0.  1.
         11    1    4    4    0    0 -0.54108369394E+02  0.14732644488E+03  0.12065366608E+03  0.19796490633E+03  0.00000000000E+00 0. -1.
          2    1    1    2  501    0  0.16613569120E+03 -0.15368879219E+03 -0.15033723370E+03  0.27170314053E+03  0.00000000000E+00 0. -1.
<scales pt_clust_5="13000.00000" pt_clust_6="13000.00000" pt_clust_7="13000.00000" pt_clust_8="13000.00000" pt_clust_9="204.10554"></scales>
<clustering>
<clus scale="   79.915">  5  6 -1 -1</clus>
<clus scale="   90.468">  7  8 -1 -1</clus>
<clus scale="  154.999">  1  5  2 -1</clus>
<clus scale="  204.106">  2  9  1 -1</clus>
<clus scale="  204.106">  2  5  1 -1</clus>
</clustering>
</event>
<event>
 9    1  0.5981539E-005  0.1198752E+03  0.7546771E-02  0.1246954E+00
         21   -1    0    0  501  502  0.00000000000E+00  0.00000000000E+00  0.78051394963E+02  0.78051394963E+02  0.00000000000E+00 0. -1.
         -2   -1    0    0    0  501 -0.00000000000E+00 -0.00000000000E+00 -0.32405959874E+03  0.32405959874E+03  0.00000000000E+00 0.  1.
        -24    2    1    2    0    0  0.50287301091E+02  0.92449967104E+01 -0.65971654212E+02  0.11518276431E+03  0.79375861686E+02 0.  0.
         23    2    1    2    0    0 -0.11031582069E+03 -0.48939672447E+02 -0.11430802261E+03  0.18946372456E+03  0.90914834087E+02 0.  0.
         13    1    3    3    0    0  0.46266027448E+02  0.30976480574E+02 -0.12133678094E+02  0.56985206753E+02  0.00000000000E+00 0. -1.
        -14    1    3    3    0    0  0.40212736434E+01 -0.21731483864E+02 -0.53837976117E+02  0.58197557552E+02  0.00000000000E+00 0.  1.
        -11    1    4    4    0    0 -0.54244271485E+01  0.23134158475E+02 -0.15946715886E+02  0.28616628833E+02  0.00000000000E+00 0.  1.
         11    1    4    4    0    0 -0.10489139354E+03 -0.72073830922E+02 -0.98361306726E+02  0.16084709573E+03  0.00000000000E+00 0. -1.
         -1    1    1    2    0  502  0.60028519602E+02  0.39694675737E+02 -0.65728526958E+02  0.97464504839E+02  0.00000000000E+00 0.  1.
<scales pt_clust_5="13000.00000" pt_clust_6="13000.00000" pt_clust_7="13000.00000" pt_clust_8="13000.00000" pt_clust_9="71.96593"></scales>
<clustering>
<clus scale="   71.966">  1  9  2 -1</clus>
<clus scale="   79.376">  5  6 -1 -1</clus>
<clus scale="   90.915">  7  8 -1 -1</clus>
<clus scale="  111.378">  2  5  1 -1</clus>
<clus scale="   71.966">  1  5  2 -1</clus>
</clustering>
</event>
<event>
 9    1  0.5981539E-005  0.1192011E+03  0.7546771E-02  0.1247527E+00
         -2   -1    0    0    0  501 -0.00000000000E+00  0.00000000000E+00  0.93645974708E+02  0.93645974708E+02  0.00000000000E+00 0.  1.
         21   -1    0    0  501  502  0.00000000000E+00 -0.00000000000E+00 -0.38318045748E+03  0.38318045748E+03  0.00000000000E+00 0.  1.
         23    2    1    2    0    0 -0.28458484602E+02  0.69612677974E+02  0.21683693973E+02  0.11933628037E+03  0.90084154815E+02 0.  0.
        -24    2    1    2    0    0  0.68871770303E+02 -0.66241834267E+02 -0.17217843293E+03  0.21265698363E+03  0.80288720036E+02 0.  0.
         13    1    4    4    0    0  0.28282866066E+02 -0.24126529348E+02 -0.14210647295E+03  0.14688859583E+03  0.00000000000E+00 0. -1.
        -14    1    4    4    0    0  0.40588904237E+02 -0.42115304919E+02 -0.30071959985E+02  0.65768387793E+02  0.00000000000E+00 0.  1.
        -11    1    3    3    0    0  0.20482923232E+02 -0.39400805090E+01  0.22906540552E+02  0.30980380543E+02  0.00000000000E+00 0. -1.
         11    1    3    3    0    0 -0.48941407833E+02  0.73552758483E+02 -0.12228465787E+01  0.88355899831E+02  0.00000000000E+00 0.  1.
         -1    1    1    2    0  502 -0.40413285701E+02 -0.33708437074E+01 -0.13903974381E+03  0.14483316819E+03  0.00000000000E+00 0.  1.
<scales pt_clust_5="13000.00000" pt_clust_6="13000.00000" pt_clust_7="13000.00000" pt_clust_8="13000.00000" pt_clust_9="40.55362"></scales>
<clustering>
<clus scale="   40.554">  2  9  1 -1</clus>
<clus scale="   80.289">  5  6 -1 -1</clus>
<clus scale="   90.084">  7  8 -1 -1</clus>
<clus scale="  111.982">  2  5  1 -1</clus>
<clus scale="   40.554">  2  5  1 -1</clus>
</clustering>
</event>
<event>
 9    1  0.5981539E-005  0.2229088E+03  0.7546771E-02  0.1132626E+00
         21   -1    0    0  501  502  0.00000000000E+00  0.00000000000E+00  0.47753460939E+03  0.47753460939E+03  0.00000000000E+00 0. -1.
          1   -1    0    0  502    0 -0.00000000000E+00 -0.00000000000E+00 -0.29618853975E+03  0.29618853975E+03  0.00000000000E+00 0. -1.
         23    2    1    2    0    0  0.44241249424E+02  0.23405515289E+03 -0.15940783032E+03  0.30013340311E+03  0.89051112032E+02 0.  0.
        -24    2    1    2    0    0 -0.12951799756E+02 -0.14776505039E+03  0.58398482028E+02  0.17668977383E+03  0.76201274535E+02 0.  0.
         11    1    4    4    0    0 -0.23038687795E+02 -0.15171835784E+03  0.45954946568E+02  0.16019081857E+03  0.00000000000E+00 0. -1.
        -12    1    4    4    0    0  0.10086888038E+02  0.39533074474E+01  0.12443535459E+02  0.16498955264E+02  0.00000000000E+00 0.  1.
        -11    1    3    3    0    0 -0.18454761165E+02  0.25650631533E+02 -0.22295973273E+01  0.31678134603E+02  0.00000000000E+00 0.  1.
         11    1    3    3    0    0  0.62696010589E+02  0.20840452135E+03 -0.15717823299E+03  0.26845526851E+03  0.00000000000E+00 0. -1.
          2    1    1    2  501    0 -0.31289449668E+02 -0.86290102496E+02  0.28235541794E+03  0.29689997219E+03  0.00000000000E+00 0. -1.
<scales pt_clust_5="13000.00000" pt_clust_6="13000.00000" pt_clust_7="13000.00000" pt_clust_8="13000.00000" pt_clust_9="91.78786"></scales>
<clustering>
<clus scale="   76.201">  5  6 -1 -1</clus>
<clus scale="   89.051">  7  8 -1 -1</clus>
<clus scale="   91.788">  1  9  2 -1</clus>
<clus scale="  218.094">  1  5  2 -1</clus>
<clus scale="   91.788">  1  5  2 -1</clus>
</clustering>
</event>
<event>
 9    1  0.5981539E-005  0.2208375E+03  0.7546771E-02  0.1153246E+00
         21   -1    0    0  501  502  0.00000000000E+00  0.00000000000E+00  0.91588130855E+02  0.91588130855E+02  0.00000000000E+00 0. -1.
          1   -1    0    0  502    0 -0.00000000000E+00 -0.00000000000E+00 -0.13183443330E+04  0.13183443330E+04  0.00000000000E+00 0. -1.
         23    2    1    2    0    0 -0.27508122852E+02  0.98158018920E+02 -0.39564014222E+03  0.41860483604E+03  0.91143804610E+02 0.  0.
        -24    2    1    2    0    0 -0.17129209208E+03 -0.15171902974E+03 -0.71542836338E+03  0.75516253624E+03  0.77929893041E+02 0.  0.
         11    1    4    4    0    0 -0.30486629316E+02 -0.66429707877E+02 -0.16108493199E+03  0.17689176343E+03  0.00000000000E+00 0. -1.
        -12    1    4    4    0    0 -0.14080546276E+03 -0.85289321859E+02 -0.55434343139E+03  0.57827077281E+03  0.00000000000E+00 0.  1.
        -13    1    3    3    0    0 -0.24093936430E+02 -0.60513966341E+01 -0.33199513986E+02  0.41464984057E+02  0.00000000000E+00 0.  1.
         13    1    3    3    0    0 -0.34141864215E+01  0.10420941555E+03 -0.36244062823E+03  0.37713985198E+03  0.00000000000E+00 0. -1.
          2    1    1    2  501    0  0.19880021493E+03  0.53561010817E+02 -0.11568769651E+03  0.23616509153E+03  0.00000000000E+00 0. -1.
<scales pt_clust_5="13000.00000" pt_clust_6="13000.00000" pt_clust_7="13000.00000" pt_clust_8="13000.00000" pt_clust_9="206.63037"></scales>
<clustering>
<clus scale="   77.930">  5  6 -1 -1</clus>
<clus scale="   91.144">  7  8 -1 -1</clus>
<clus scale="  136.744">  2  7  1 -1</clus>
<clus scale="  206.630">  1  9  2 -1</clus>
<clus scale="  206.630">  1  5  2 -1</clus>
</clustering>
</event>
<event>
 9    1  0.5981539E-005  0.1347117E+03  0.7546771E-02  0.1237132E+00
          1   -1    0    0  502    0 -0.00000000000E+00  0.00000000000E+00  0.41320536941E+03  0.41320536941E+03  0.00000000000E+00 0. -1.
         21   -1    0    0  501  502  0.00000000000E+00 -0.00000000000E+00 -0.13853881543E+03  0.13853881543E+03  0.00000000000E+00 0. -1.
        -24    2    1    2    0    0  0.41197494390E+02  0.72041153193E+01  0.25082285619E+03  0.26684576110E+03  0.80903783637E+02 0.  0.
         23    2    1    2    0    0 -0.10696064354E+03 -0.47303804290E+02  0.80870091697E+02  0.18906113223E+03  0.12460301289E+03 0.  0.
         11    1    3    3    0    0  0.47383277967E+02  0.12994243237E+02  0.68353137519E+02  0.84179432149E+02  0.00000000000E+00 0. -1.
        -12    1    3    3    0    0 -0.61857835765E+01 -0.57901279181E+01  0.18246971867E+03  0.18266632895E+03  0.00000000000E+00 0.  1.
        -13    1    4    4    0    0 -0.10201525840E+03 -0.79651499649E+02  0.37538277413E+02  0.13476125784E+03  0.00000000000E+00 0. -1.
         13    1    4    4    0    0 -0.49453851395E+01  0.32347695359E+02  0.43331814284E+02  0.54299874386E+02  0.00000000000E+00 0.  1.
          2    1    1    2  501    0  0.65763149154E+02  0.40099688971E+02 -0.57026393916E+02  0.95837291516E+02  0.00000000000E+00 0. -1.
<scales pt_clust_5="13000.00000" pt_clust_6="13000.00000" pt_clust_7="13000.00000" pt_clust_8="13000.00000" pt_clust_9="77.02452"></scales>
<clustering>
<clus scale="   77.025">  2  9  1 -1</clus>
<clus scale="   80.904">  5  6 -1 -1</clus>
<clus scale="   95.743">  1  5  2 -1</clus>
<clus scale="  124.603">  7  8 -1 -1</clus>
<clus scale="   77.025">  2  5  1 -1</clus>
</clustering>
</event>
<event>
 9    1  0.5981539E-005  0.1084326E+03  0.7546771E-02  0.1265611E+00
          1   -1    0    0  502    0 -0.00000000000E+00  0.00000000000E+00  0.33559665698E+03  0.33559665698E+03  0.00000000000E+00 0. -1.
         21   -1    0    0  501  502  0.00000000000E+00 -0.00000000000E+00 -0.79541984135E+02  0.79541984135E+02  0.00000000000E+00 0. -1.
        -24    2    1    2    0    0 -0.75087571930E+02  0.28417710666E+02  0.17727534906E+03  0.21038412408E+03  0.79932600005E+02 0.  0.
         23    2    1    2    0    0  0.47556451982E+02 -0.20108276009E+02  0.11895064175E+03  0.15535062996E+03  0.85548840813E+02 0.  0.
         11    1    3    3    0    0 -0.54047389469E+02  0.28143245772E+02  0.43267826212E+02  0.74734646424E+02  0.00000000000E+00 0. -1.
        -12    1    3    3    0    0 -0.21040182461E+02  0.27446489398E+00  0.13400752285E+03  0.13564947766E+03  0.00000000000E+00 0.  1.
        -11    1    4    4    0    0 -0.61066484252E+01  0.19832530139E+02  0.68470085264E+02  0.71545600722E+02  0.00000000000E+00 0. -1.
         11    1    4    4    0    0  0.53663100407E+02 -0.39940806148E+02  0.50480556491E+02  0.83805029233E+02  0.00000000000E+00 0.  1.
          2    1    1    2  501    0  0.27531119948E+02 -0.83094346576E+01 -0.40171317975E+02  0.49403887072E+02  0.00000000000E+00 0. -1.
<scales pt_clust_5="13000.00000" pt_clust_6="13000.00000" pt_clust_7="13000.00000" pt_clust_8="13000.00000" pt_clust_9="28.75777"></scales>
<clustering>
<clus scale="   28.758">  2  9  1 -1</clus>
<clus scale="   79.933">  5  6 -1 -1</clus>
<clus scale="   85.549">  7  8 -1 -1</clus>
<clus scale="  104.059">  1  5  2 -1</clus>
<clus scale="   28.758">  2  5  1 -1</clus>
</clustering>
</event>
<event>
 9    1  0.5981539E-005  0.1262302E+03  0.7546771E-02  0.1236124E+00
         21   -1    0    0  501  502  0.00000000000E+00  0.00000000000E+00  0.45405343016E+03  0.45405343016E+03  0.00000000000E+00 0.  1.
         -2   -1    0    0    0  501 -0.00000000000E+00 -0.00000000000E+00 -0.71937417081E+02  0.71937417081E+02  0.00000000000E+00 0.  1.
         23    2    1    2    0    0  0.96242217025E+02  0.32838554073E+02  0.51749029570E+02  0.14629064659E+03  0.91553570360E+02 0.  0.
        -24    2    1    2    0    0 -0.52131571461E+02 -0.48894969318E+02  0.10916520795E+03  0.15357239822E+03  0.80987777481E+02 0.  0.
         13    1    4    4    0    0 -0.67933519002E+02 -0.38507671799E+02  0.53173021668E+02  0.94473139170E+02  0.00000000000E+00 0. -1.
        -14    1    4    4    0    0  0.15801947541E+02 -0.10387297519E+02  0.55992186282E+02  0.59099259052E+02  0.00000000000E+00 0.  1.
        -13    1    3    3    0    0  0.68744467782E+02  0.28338716120E+02  0.78174226599E+02  0.10788926910E+03  0.00000000000E+00 0. -1.
         13    1    3    3    0    0  0.27497749243E+02  0.44998379527E+01 -0.26425197029E+02  0.38401377489E+02  0.00000000000E+00 0.  1.
         -1    1    1    2    0  502 -0.44110645565E+02  0.16056415245E+02  0.22120177556E+03  0.22612780243E+03  0.00000000000E+00 0.  1.
<scales pt_clust_5="13000.00000" pt_clust_6="13000.00000" pt_clust_7="13000.00000" pt_clust_8="13000.00000" pt_clust_9="46.94207"></scales>
<clustering>
<clus scale="   46.942">  1  9  2 -1</clus>
<clus scale="   80.988">  5  6 -1 -1</clus>
<clus scale="   91.554">  7  8 -1 -1</clus>
<clus scale="  118.790">  1  5  2 -1</clus>
<clus scale="   46.942">  1  5  2 -1</clus>
</clustering>
</event>
<event>
 9    1  0.5981539E-005  0.1117292E+03  0.7546771E-02  0.1262320E+00
          1   -1    0    0  502    0 -0.00000000000E+00  0.00000000000E+00  0.19612647766E+03  0.19612647766E+03  0.00000000000E+00 0. -1.
         21   -1    0    0  501  502  0.00000000000E+00 -0.00000000000E+00 -0.10737714217E+03  0.10737714217E+03  0.00000000000E+00 0. -1.
        -24    2    1    2    0    0 -0.55495235336E+02 -0.56992173317E+01  0.89912989632E+02  0.13121836983E+03  0.77599694931E+02 0.  0.
         23    2    1    2    0    0  0.93223332670E+02  0.20280680966E+02  0.29023053615E+01  0.13163355340E+03  0.90648073505E+02 0.  0.
         11    1    3    3    0    0 -0.62420757828E+02  0.22445038294E+02  0.58077040209E+02  0.88165034743E+02  0.00000000000E+00 0. -1.
        -12    1    3    3    0    0  0.69255224923E+01 -0.28144255626E+02  0.31835949423E+02  0.43053335088E+02  0.00000000000E+00 0.  1.
        -11    1    4    4    0    0  0.64976230018E+02 -0.19205934478E+01 -0.39493957337E+02  0.76061631673E+02  0.00000000000E+00 0. -1.
         11    1    4    4    0    0  0.28247102652E+02  0.22201274414E+02  0.42396262699E+02  0.55571921729E+02  0.00000000000E+00 0.  1.
          2    1    1    2  501    0 -0.37728097334E+02 -0.14581463635E+02 -0.40659595028E+01  0.40651696605E+02  0.00000000000E+00 0. -1.
<scales pt_clust_5="13000.00000" pt_clust_6="13000.00000" pt_clust_7="13000.00000" pt_clust_8="13000.00000" pt_clust_9="40.44785"></scales>
<clustering>
<clus scale="   40.448">  2  9  1 -1</clus>
<clus scale="   77.600">  5  6 -1 -1</clus>
<clus scale="   90.648">  7  8 -1 -1</clus>
<clus scale="  101.430">  1  5  2 -1</clus>
<clus scale="   40.448">  2  5  1 -1</clus>
</clustering>
</event>
<event>
 9    1  0.5981539E-005  0.9860221E+02  0.7546771E-02  0.1293555E+00
         21   -1    0    0  501  502  0.00000000000E+00  0.00000000000E+00  0.33072544787E+03  0.33072544787E+03  0.00000000000E+00 0. -1.
         -4   -1    0    0    0  501 -0.00000000000E+00 -0.00000000000E+00 -0.99732213424E+02  0.99732213424E+02  0.00000000000E+00 0.  1.
         23    2    1    2    0    0 -0.86321035549E+01  0.47224779239E+01 -0.57146564683E+02  0.11363774479E+03  0.97729177708E+02 0.  0.
        -24    2    1    2    0    0  0.33812333599E+02 -0.26888317561E+02  0.24969352719E+03  0.26579556685E+03  0.80213280151E+02 0.  0.
         11    1    4    4    0    0 -0.35469361657E+01 -0.46297656245E+02  0.16194233921E+03  0.16846772676E+03  0.00000000000E+00 0. -1.
        -12    1    4    4    0    0  0.37359269764E+02  0.19409338684E+02  0.87751187980E+02  0.97327840094E+02  0.00000000000E+00 0.  1.
        -13    1    3    3    0    0 -0.12961213108E+02 -0.31394407742E+02 -0.67717119737E+02  0.75757575121E+02  0.00000000000E+00 0.  1.
         13    1    3    3    0    0  0.43291095530E+01  0.36116885666E+02  0.10570555054E+02  0.37880169665E+02  0.00000000000E+00 0. -1.
         -3    1    1    2    0  502 -0.25180230044E+02  0.22165839637E+02  0.38446271941E+02  0.51024349658E+02  0.00000000000E+00 0.  1.
<scales pt_clust_5="13000.00000" pt_clust_6="13000.00000" pt_clust_7="13000.00000" pt_clust_8="13000.00000" pt_clust_9="33.54651"></scales>
<clustering>
<clus scale="   33.547">  1  9  2 -1</clus>
<clus scale="   80.213">  5  6 -1 -1</clus>
<clus scale="   81.275">  1  5  2 -1</clus>
<clus scale="   97.729">  7  8 -1 -1</clus>
<clus scale="   33.547">  1  5  2 -1</clus>
</clustering>
</event>
<event>
 9    1  0.5981539E-005  0.1381298E+03  0.7546771E-02  0.1218692E+00
         21   -1    0    0  501  502  0.00000000000E+00  0.00000000000E+00  0.91504838138E+02  0.91504838138E+02  0.00000000000E+00 0. -1.
          3   -1    0    0  502    0 -0.00000000000E+00 -0.00000000000E+00 -0.31234724650E+03  0.31234724650E+03  0.00000000000E+00 0. -1.
         23    2    1    2    0    0  0.69398552979E+02  0.84651968269E+02 -0.21460366411E+03  0.25775129154E+03  0.91645407692E+02 0.  0.
        -24    2    1    2    0    0 -0.62001386196E+02 -0.59934152830E+02  0.67652746107E+01  0.11720800883E+03  0.79092817796E+02 0.  0.
         13    1    4    4    0    0 -0.71290247234E+02 -0.70577846805E+02  0.14078662693E+02  0.10130024952E+03  0.00000000000E+00 0. -1.
        -14    1    4    4    0    0  0.92888610384E+01  0.10643693974E+02 -0.73133880826E+01  0.15907759303E+02  0.00000000000E+00 0.  1.
        -11    1    3    3    0    0 -0.12766423162E+02  0.17806637092E+02 -0.97153119689E+02  0.99593104933E+02  0.00000000000E+00 0. -1.
         11    1    3    3    0    0  0.82164976141E+02  0.66845331177E+02 -0.11745054443E+03  0.15815818660E+03  0.00000000000E+00 0.  1.
          4    1    1    2  501    0 -0.73971667827E+01 -0.24717815438E+02 -0.13004018854E+02  0.28892784269E+02  0.00000000000E+00 0. -1.
<scales pt_clust_5="13000.00000" pt_clust_6="13000.00000" pt_clust_7="13000.00000" pt_clust_8="13000.00000" pt_clust_9="25.80094"></scales>
<clustering>
<clus scale="   25.801">  1  9  2 -1</clus>
<clus scale="   79.093">  5  6 -1 -1</clus>
<clus scale="   91.645">  7  8 -1 -1</clus>
<clus scale="  130.141">  1  5  2 -1</clus>
<clus scale="   25.801">  1  5  2 -1</clus>
</clustering>
</event>
<event>
 9    1  0.5981539E-005  0.9263287E+02  0.7546771E-02  0.1303819E+00
         21   -1    0    0  501  502  0.00000000000E+00  0.00000000000E+00  0.20668328601E+03  0.20668328601E+03  0.00000000000E+00 0.  1.
          1   -1    0    0  502    0 -0.00000000000E+00 -0.00000000000E+00 -0.10140067662E+03  0.10140067662E+03  0.00000000000E+00 0. -1.
         23    2    1    2    0    0  0.18876572530E+02 -0.18627288892E+02  0.10623688053E+02  0.95408599238E+02  0.91030968240E+02 0.  0.
        -24    2    1    2    0    0  0.47087073350E+02  0.13579497404E+02  0.11060408516E+03  0.14462441906E+03  0.79255054765E+02 0.  0.
         13    1    4    4    0    0 -0.15945081972E+02 -0.13721784686E+02  0.11304038594E+02  0.23881254209E+02  0.00000000000E+00 0. -1.
        -14    1    4    4    0    0  0.63032155322E+02  0.27301282091E+02  0.99300046569E+02  0.12074316485E+03  0.00000000000E+00 0.  1.
        -13    1    3    3    0    0 -0.33705230734E+02  0.95223700851E+01  0.65083956218E+01  0.35624111560E+02  0.00000000000E+00 0.  1.
         13    1    3    3    0    0  0.52581803265E+02 -0.28149658978E+02  0.41152924311E+01  0.59784487678E+02  0.00000000000E+00 0. -1.
          2    1    1    2  501    0 -0.65963645880E+02  0.50477914879E+01 -0.15945163826E+02  0.68050944344E+02  0.00000000000E+00 0. -1.
<scales pt_clust_5="13000.00000" pt_clust_6="13000.00000" pt_clust_7="13000.00000" pt_clust_8="13000.00000" pt_clust_9="66.15654"></scales>
<clustering>
<clus scale="   66.157">  1  9  2 -1</clus>
<clus scale="   79.255">  5  6 -1 -1</clus>
<clus scale="   81.090">  1  5  2 -1</clus>
<clus scale="   91.031">  7  8 -1 -1</clus>
<clus scale="   66.157">  1  5  2 -1</clus>
</clustering>
</event>
<event>
 9    1  0.5981539E-005  0.9620057E+02  0.7546771E-02  0.1291372E+00
         21   -1    0    0  501  502  0.00000000000E+00  0.00000000000E+00  0.76182666011E+02  0.76182666011E+02  0.00000000000E+00 0. -1.
          1   -1    0    0  502    0 -0.00000000000E+00 -0.00000000000E+00 -0.48483693966E+03  0.48483693966E+03  0.00000000000E+00 0. -1.
        -24    2    1    2    0    0 -0.50916566423E+02  0.19631302274E+02 -0.33995845332E+03  0.35447592218E+03  0.84282528781E+02 0.  0.
         23    2    1    2    0    0 -0.34673039891E+02  0.46658973577E+01 -0.67439173686E+02  0.11756327115E+03  0.89716722424E+02 0.  0.
         13    1    3    3    0    0 -0.60211087372E+02  0.12981072420E+02 -0.33711914762E+03  0.34269987303E+03  0.00000000000E+00 0. -1.
        -14    1    3    3    0    0  0.92945209485E+01  0.66502298535E+01 -0.28393057016E+01  0.11776049152E+02  0.00000000000E+00 0.  1.
        -11    1    4    4    0    0  0.23828713530E+02 -0.21533737141E+02 -0.24777644417E+02  0.40564036862E+02  0.00000000000E+00 0.  1.
         11    1    4    4    0    0 -0.58501753421E+02  0.26199634499E+02 -0.42661529269E+02  0.76999234287E+02  0.00000000000E+00 0. -1.
          2    1    1    2  501    0  0.85589606314E+02 -0.24297199632E+02 -0.12566466417E+01  0.88980412338E+02  0.00000000000E+00 0. -1.
<scales pt_clust_5="13000.00000" pt_clust_6="13000.00000" pt_clust_7="13000.00000" pt_clust_8="13000.00000" pt_clust_9="88.97154"></scales>
<clustering>
<clus scale="   84.283">  5  6 -1 -1</clus>
<clus scale="   88.972">  1  9  2 -1</clus>
<clus scale="   89.717">  7  8 -1 -1</clus>
<clus scale="   91.154">  2  5  1 -1</clus>
<clus scale="   88.972">  1  5  2 -1</clus>
</clustering>
</event>
<event>
 9    1  0.5981539E-005  0.9850279E+02  0.7546771E-02  0.1288353E+00
         21   -1    0    0  501  502  0.00000000000E+00  0.00000000000E+00  0.31626222762E+02  0.31626222762E+02  0.00000000000E+00 0.  1.
         -4   -1    0    0    0  501 -0.00000000000E+00 -0.00000000000E+00 -0.43403022156E+03  0.43403022156E+03  0.00000000000E+00 0.  1.
         23    2    1    2    0    0 -0.30010259361E+02  0.25380952549E+02 -0.17613420453E+03  0.20196576012E+03  0.90675806235E+02 0.  0.
        -24    2    1    2    0    0  0.44329490278E+02  0.33426702376E+01 -0.11360177724E+03  0.14654048599E+03  0.81194045897E+02 0.  0.
         11    1    4    4    0    0 -0.22594653638E+01 -0.23135538976E+02 -0.27399505883E+01  0.23406530642E+02  0.00000000000E+00 0. -1.
        -12    1    4    4    0    0  0.46588955641E+02  0.26478209214E+02 -0.11086182665E+03  0.12313395535E+03  0.00000000000E+00 0.  1.
        -11    1    3    3    0    0 -0.21088875459E+02 -0.22694019011E+02 -0.13364350357E+03  0.13718726331E+03  0.00000000000E+00 0. -1.
         11    1    3    3    0    0 -0.89213839024E+01  0.48074971560E+02 -0.42490700954E+02  0.64778496808E+02  0.00000000000E+00 0.  1.
         -3    1    1    2    0  502 -0.14319230917E+02 -0.28723622786E+02 -0.11266801703E+03  0.11715019821E+03  0.00000000000E+00 0.  1.
<scales pt_clust_5="13000.00000" pt_clust_6="13000.00000" pt_clust_7="13000.00000" pt_clust_8="13000.00000" pt_clust_9="32.09498"></scales>
<clustering>
<clus scale="   32.095">  1  9  2 -1</clus>
<clus scale="   81.194">  5  6 -1 -1</clus>
<clus scale="   89.851">  1  5  2 -1</clus>
<clus scale="   90.676">  7  8 -1 -1</clus>
<clus scale="   32.095">  1  5  2 -1</clus>
</clustering>
</event>
<event>
 9    1  0.5981539E-005  0.2276080E+03  0.7546771E-02  0.1161438E+00
         21   -1    0    0  501  502  0.00000000000E+00  0.00000000000E+00  0.17694441423E+03  0.17694441423E+03  0.00000000000E+00 0. -1.
          1   -1    0    0  502    0 -0.00000000000E+00 -0.00000000000E+00 -0.80494911602E+03  0.80494911602E+03  0.00000000000E+00 0. -1.
        -24    2    1    2    0    0  0.49352798267E+02 -0.41476156991E+02 -0.41519237783E+03  0.42780738032E+03  0.80488966643E+02 0.  0.
         23    2    1    2    0    0  0.11685012406E+03  0.17416148825E+03  0.30783858159E+02  0.23071653407E+03  0.91084014458E+02 0.  0.
         11    1    3    3    0    0  0.16077922292E+02 -0.59223134696E+02 -0.31108759979E+03  0.31708259809E+03  0.00000000000E+00 0. -1.
        -12    1    3    3    0    0  0.33274875975E+02  0.17746977704E+02 -0.10410477804E+03  0.11072478223E+03  0.00000000000E+00 0.  1.
        -11    1    4    4    0    0  0.25996879196E+02  0.11329129782E+03  0.34644647399E+02  0.12128894213E+03  0.00000000000E+00 0. -1.
         11    1    4    4    0    0  0.90853244861E+02  0.60870190430E+02 -0.38607892400E+01  0.10942759194E+03  0.00000000000E+00 0.  1.
          2    1    1    2  501    0 -0.16620292232E+03 -0.13268533126E+03 -0.24359618212E+03  0.32336961586E+03  0.00000000000E+00 0. -1.
<scales pt_clust_5="13000.00000" pt_clust_6="13000.00000" pt_clust_7="13000.00000" pt_clust_8="13000.00000" pt_clust_9="208.58851"></scales>
<clustering>
<clus scale="   80.489">  5  6 -1 -1</clus>
<clus scale="   91.084">  7  8 -1 -1</clus>
<clus scale="  103.123">  2  5  1 -1</clus>
<clus scale="  208.589">  1  9  2 -1</clus>
<clus scale="  208.589">  1  5  2 -1</clus>
</clustering>
</event>
<event>
 9    1  0.5981539E-005  0.1818778E+03  0.7546771E-02  0.1166662E+00
          1   -1    0    0  502    0 -0.00000000000E+00  0.00000000000E+00  0.29684912458E+03  0.29684912458E+03  0.00000000000E+00 0. -1.
         21   -1    0    0  501  502  0.00000000000E+00 -0.00000000000E+00 -0.23543000910E+03  0.23543000910E+03  0.00000000000E+00 0.  1.
        -24    2    1    2    0    0 -0.13649146175E+03  0.88871601792E+02  0.20901226892E+03  0.27614076926E+03  0.77714317572E+02 0.  0.
         23    2    1    2    0    0  0.11558844585E+03 -0.10496614837E+03 -0.10490859705E+03  0.20595926661E+03  0.83873861538E+02 0.  0.
         11    1    3    3    0    0 -0.30761825025E+02 -0.67010836361E+01  0.71361552209E+02  0.77997855960E+02  0.00000000000E+00 0. -1.
        -12    1    3    3    0    0 -0.10572963672E+03  0.95572685428E+02  0.13765071671E+03  0.19814291330E+03  0.00000000000E+00 0.  1.
        -13    1    4    4    0    0  0.55657477629E+02 -0.29319930149E+02 -0.87697558906E+02  0.10792717433E+03  0.00000000000E+00 0.  1.
         13    1    4    4    0    0  0.59930968225E+02 -0.75646218222E+02 -0.17211038142E+02  0.98032092284E+02  0.00000000000E+00 0. -1.
          2    1    1    2  501    0  0.20903015893E+02  0.16094546579E+02 -0.42684556393E+02  0.50179097814E+02  0.00000000000E+00 0. -1.
<scales pt_clust_5="13000.00000" pt_clust_6="13000.00000" pt_clust_7="13000.00000" pt_clust_8="13000.00000" pt_clust_9="26.38125"></scales>
<clustering>
<clus scale="   26.381">  2  9  1 -1</clus>
<clus scale="   77.714">  5  6 -1 -1</clus>
<clus scale="   83.874">  7  8 -1 -1</clus>
<clus scale="  179.121">  1  5  2 -1</clus>
<clus scale="   26.381">  2  5  1 -1</clus>
</clustering>
</event>
<event>
 9    1  0.5981539E-005  0.1838768E+03  0.7546771E-02  0.1167431E+00
         21   -1    0    0  501  502  0.00000000000E+00  0.00000000000E+00  0.17163912659E+03  0.17163912659E+03  0.00000000000E+00 0. -1.
          1   -1    0    0  502    0 -0.00000000000E+00 -0.00000000000E+00 -0.36869530559E+03  0.36869530559E+03  0.00000000000E+00 0. -1.
        -24    2    1    2    0    0  0.11656954492E+03 -0.94110372353E+02 -0.20879982354E+03  0.26938155112E+03  0.80770246892E+02 0.  0.
         23    2    1    2    0    0 -0.14259427377E+03  0.59513668594E+02 -0.51257935036E+02  0.19451063194E+03  0.10645189699E+03 0.  0.
         11    1    3    3    0    0  0.19986697235E+02 -0.17544761864E+02  0.37369765269E+00  0.26597488324E+02  0.00000000000E+00 0. -1.
        -12    1    3    3    0    0  0.96582847686E+02 -0.76565610489E+02 -0.20917352120E+03  0.24278406279E+03  0.00000000000E+00 0.  1.
        -13    1    4    4    0    0 -0.91115423299E+00  0.35763515297E+02 -0.34803664824E+02  0.49911464752E+02  0.00000000000E+00 0.  1.
         13    1    4    4    0    0 -0.14168311953E+03  0.23750153296E+02 -0.16454270211E+02  0.14459916718E+03  0.00000000000E+00 0. -1.
          2    1    1    2  501    0  0.26024728845E+02  0.34596703759E+02  0.63001579577E+02  0.76442249128E+02  0.00000000000E+00 0. -1.
<scales pt_clust_5="13000.00000" pt_clust_6="13000.00000" pt_clust_7="13000.00000" pt_clust_8="13000.00000" pt_clust_9="43.29224"></scales>
<clustering>
<clus scale="   43.292">  1  9  2 -1</clus>
<clus scale="   80.770">  5  6 -1 -1</clus>
<clus scale="  106.452">  7  8 -1 -1</clus>
<clus scale="  170.301">  2  5  1 -1</clus>
<clus scale="   43.292">  1  5  2 -1</clus>
</clustering>
</event>
<event>
 9    1  0.5981539E-005  0.1012398E+03  0.7546771E-02  0.1282738E+00
         21   -1    0    0  501  502  0.00000000000E+00  0.00000000000E+00  0.13845430150E+03  0.13845430150E+03  0.00000000000E+00 0.  1.
         -2   -1    0    0    0  501 -0.00000000000E+00 -0.00000000000E+00 -0.34845927810E+03  0.34845927810E+03  0.00000000000E+00 0.  1.
        -24    2    1    2    0    0  0.44524783005E+02 -0.14563651194E+02 -0.29366581334E+03  0.30800028765E+03  0.80187349562E+02 0.  0.
         23    2    1    2    0    0 -0.35961671878E+02 -0.66591676372E+01  0.59653064179E+01  0.97917425728E+02  0.90634712018E+02 0.  0.
         13    1    3    3    0    0 -0.20714772967E+02 -0.27797356886E+01 -0.33208368012E+02  0.39238048570E+02  0.00000000000E+00 0. -1.
        -14    1    3    3    0    0  0.65239555972E+02 -0.11783915505E+02 -0.26045744533E+03  0.26876223908E+03  0.00000000000E+00 0.  1.
        -11    1    4    4    0    0 -0.43692745688E+00  0.24363888033E+02 -0.29967889927E+02  0.38624660158E+02  0.00000000000E+00 0.  1.
         11    1    4    4    0    0 -0.35524744421E+02 -0.31023055670E+02  0.35933196345E+02  0.59292765569E+02  0.00000000000E+00 0. -1.
         -1    1    1    2    0  502 -0.85631111271E+01  0.21222818831E+02  0.77695530327E+02  0.80995866216E+02  0.00000000000E+00 0.  1.
<scales pt_clust_5="13000.00000" pt_clust_6="13000.00000" pt_clust_7="13000.00000" pt_clust_8="13000.00000" pt_clust_9="22.88526"></scales>
<clustering>
<clus scale="   22.885">  1  9  2 -1</clus>
<clus scale="   80.187">  5  6 -1 -1</clus>
<clus scale="   90.635">  7  8 -1 -1</clus>
<clus scale="   92.005">  2  5  1 -1</clus>
<clus scale="   22.885">  1  5  2 -1</clus>
</clustering>
</event>
<event>
 9    1  0.5981539E-005  0.1285151E+03  0.7546771E-02  0.1233124E+00
         21   -1    0    0  501  502  0.00000000000E+00  0.00000000000E+00  0.10911397632E+03  0.10911397632E+03  0.00000000000E+00 0.  1.
          1   -1    0    0  502    0 -0.00000000000E+00 -0.00000000000E+00 -0.33846655903E+03  0.33846655903E+03  0.00000000000E+00 0. -1.
         23    2    1    2    0    0  0.87970083400E+02  0.95717404848E+01 -0.24690088110E+03  0.27764100427E+03  0.91072105383E+02 0.  0.
        -24    2    1    2    0    0 -0.95143575805E+02 -0.46254782803E+02  0.10886800949E+02  0.13197270167E+03  0.78143883967E+02 0.  0.
         13    1    4    4    0    0 -0.29189135662E+01 -0.38812395495E+02  0.52801092678E+01  0.39278513902E+02  0.00000000000E+00 0. -1.
        -14    1    4    4    0    0 -0.92224662238E+02 -0.74423873073E+01  0.56066916812E+01  0.92694187765E+02  0.00000000000E+00 0.  1.
        -13    1    3    3    0    0 -0.31844037892E+01 -0.27925982708E+02 -0.63175904773E+02  0.69146192098E+02  0.00000000000E+00 0.  1.
         13    1    3    3    0    0  0.91154487189E+02  0.37497723193E+02 -0.18372497632E+03  0.20849481218E+03  0.00000000000E+00 0. -1.
          2    1    1    2  501    0  0.71734924044E+01  0.36683042318E+02  0.66614974438E+01  0.37966829406E+02  0.00000000000E+00 0. -1.
<scales pt_clust_5="13000.00000" pt_clust_6="13000.00000" pt_clust_7="13000.00000" pt_clust_8="13000.00000" pt_clust_9="37.37786"></scales>
<clustering>
<clus scale="   37.378">  1  9  2 -1</clus>
<clus scale="   78.144">  5  6 -1 -1</clus>
<clus scale="   91.072">  7  8 -1 -1</clus>
<clus scale="  119.702">  1  5  2 -1</clus>
<clus scale="   37.378">  1  5  2 -1</clus>
</clustering>
</event>
<event>
 9    1  0.5981539E-005  0.9534459E+02  0.7546771E-02  0.1291112E+00
          1   -1    0    0  502    0 -0.00000000000E+00  0.00000000000E+00  0.32602040881E+03  0.32602040881E+03  0.00000000000E+00 0. -1.
         21   -1    0    0  501  502  0.00000000000E+00 -0.00000000000E+00 -0.19852572224E+03  0.19852572224E+03  0.00000000000E+00 0. -1.
        -24    2    1    2    0    0  0.29176914574E+02 -0.26092919364E+02  0.26847326599E+03  0.28498072416E+03  0.87200836062E+02 0.  0.
         23    2    1    2    0    0 -0.35092103743E+02 -0.51670535786E+02 -0.48876550008E+02  0.11888016238E+03  0.88556625126E+02 0.  0.
         11    1    3    3    0    0  0.24599438754E+01 -0.55467377306E+02  0.14428095063E+03  0.15459519392E+03  0.00000000000E+00 0. -1.
        -12    1    3    3    0    0  0.26716970699E+02  0.29374457941E+02  0.12419231536E+03  0.13038553024E+03  0.00000000000E+00 0.  1.
        -11    1    4    4    0    0 -0.32138804093E+02 -0.18450391758E+02  0.20176516694E+02  0.42194922804E+02  0.00000000000E+00 0.  1.
         11    1    4    4    0    0 -0.29532996502E+01 -0.33220144028E+02 -0.69053066702E+02  0.76685239578E+02  0.00000000000E+00 0. -1.
          2    1    1    2  501    0  0.59151891693E+01  0.77763455150E+02 -0.92102029409E+02  0.12068524450E+03  0.00000000000E+00 0. -1.
<scales pt_clust_5="13000.00000" pt_clust_6="13000.00000" pt_clust_7="13000.00000" pt_clust_8="13000.00000" pt_clust_9="77.98810"></scales>
<clustering>
<clus scale="   77.988">  2  9  1 -1</clus>
<clus scale="   87.201">  5  6 -1 -1</clus>
<clus scale="   88.557">  7  8 -1 -1</clus>
<clus scale="   94.087">  1  5  2 -1</clus>
<clus scale="   77.988">  2  5  1 -1</clus>
</clustering>
</event>
<event>
 9    1  0.5981539E-005  0.3957236E+03  0.7546771E-02  0.1045443E+00
         21   -1    0    0  501  502  0.00000000000E+00  0.00000000000E+00  0.13934760198E+03  0.13934760198E+03  0.00000000000E+00 0.  1.
         -4   -1    0    0    0  501 -0.00000000000E+00 -0.00000000000E+00 -0.16579311501E+04  0.16579311501E+04  0.00000000000E+00 0.  1.
         23    2    1    2    0    0 -0.42414885672E+03  0.12970307672E+03 -0.94844184817E+03  0.10509819002E+04  0.91081690706E+02 0.  0.
        -24    2    1    2    0    0  0.27524481466E+03 -0.14697789355E+03 -0.31842810135E+03  0.45332830622E+03  0.82145531217E+02 0.  0.
         11    1    4    4    0    0  0.22666111493E+02  0.94985554739E+01 -0.34502980893E+02  0.42360723044E+02  0.00000000000E+00 0. -1.
        -12    1    4    4    0    0  0.25257870316E+03 -0.15647644903E+03 -0.28392512046E+03  0.41096758317E+03  0.00000000000E+00 0.  1.
        -11    1    3    3    0    0 -0.14392023381E+03  0.88398921854E+02 -0.32768964134E+03  0.36865689215E+03  0.00000000000E+00 0.  1.
         11    1    3    3    0    0 -0.28022862291E+03  0.41304154867E+02 -0.62075220683E+03  0.68232500804E+03  0.00000000000E+00 0. -1.
         -3    1    1    2    0  502  0.14890404207E+03  0.17274816834E+02 -0.25171359864E+03  0.29296854572E+03  0.00000000000E+00 0.  1.
<scales pt_clust_5="13000.00000" pt_clust_6="13000.00000" pt_clust_7="13000.00000" pt_clust_8="13000.00000" pt_clust_9="149.90282"></scales>
<clustering>
<clus scale="   82.146">  5  6 -1 -1</clus>
<clus scale="   91.082">  7  8 -1 -1</clus>
<clus scale="  149.903">  1  9  2 -1</clus>
<clus scale="  393.763">  1  5  2 -1</clus>
<clus scale="  149.903">  1  5  2 -1</clus>
</clustering>
</event>
<event>
 9    1  0.5981539E-005  0.2496785E+03  0.7546771E-02  0.1113933E+00
          1   -1    0    0  502    0 -0.00000000000E+00  0.00000000000E+00  0.94774510369E+03  0.94774510369E+03  0.00000000000E+00 0. -1.
         21   -1    0    0  501  502  0.00000000000E+00 -0.00000000000E+00 -0.30395469035E+03  0.30395469035E+03  0.00000000000E+00 0. -1.
        -24    2    1    2    0    0 -0.16842805795E+03  0.12334808797E+03  0.51865448967E+03  0.56494496043E+03  0.81102201835E+02 0.  0.
         23    2    1    2    0    0  0.34141927169E+03 -0.73863123395E+02  0.27436510219E+03  0.45299412375E+03  0.88907743042E+02 0.  0.
         11    1    3    3    0    0 -0.16515906276E+02  0.54628655319E+02  0.12307652078E+03  0.13566464207E+03  0.00000000000E+00 0. -1.
        -12    1    3    3    0    0 -0.15191215168E+03  0.68719432650E+02  0.39557796889E+03  0.42928031835E+03  0.00000000000E+00 0.  1.
        -13    1    4    4    0    0  0.52083761532E+02 -0.30739726042E+02  0.85734155932E+02  0.10491899001E+03  0.00000000000E+00 0.  1.
         13    1    4    4    0    0  0.28933551016E+03 -0.43123397353E+02  0.18863094626E+03  0.34807513374E+03  0.00000000000E+00 0. -1.
          2    1    1    2  501    0 -0.17299121374E+03 -0.49484964573E+02 -0.14922917853E+03  0.23376070986E+03  0.00000000000E+00 0. -1.
<scales pt_clust_5="13000.00000" pt_clust_6="13000.00000" pt_clust_7="13000.00000" pt_clust_8="13000.00000" pt_clust_9="179.92977"></scales>
<clustering>
<clus scale="   81.102">  5  6 -1 -1</clus>
<clus scale="   88.908">  7  8 -1 -1</clus>
<clus scale="  179.930">  2  9  1 -1</clus>
<clus scale="  247.007">  1  5  2 -1</clus>
<clus scale="  179.930">  2  5  1 -1</clus>
</clustering>
</event>
<event>
 9    1  0.5981539E-005  0.1177250E+03  0.7546771E-02  0.1250963E+00
         21   -1    0    0  501  502  0.00000000000E+00  0.00000000000E+00  0.18884036373E+03  0.18884036373E+03  0.00000000000E+00 0.  1.
          1   -1    0    0  502    0 -0.00000000000E+00 -0.00000000000E+00 -0.36937244333E+03  0.36937244333E+03  0.00000000000E+00 0. -1.
        -24    2    1    2    0    0  0.42626082151E+02  0.65419467292E+02 -0.13062225938E+03  0.17087990681E+03  0.77724374072E+02 0.  0.
         23    2    1    2    0    0  0.24810257113E+02 -0.80375427689E+02  0.13923547858E+03  0.18596933687E+03  0.90123900966E+02 0.  0.
         13    1    3    3    0    0  0.18067843607E+02 -0.16035738922E+02 -0.20239129033E+02  0.31515301671E+02  0.00000000000E+00 0. -1.
        -14    1    3    3    0    0  0.24558238544E+02  0.81455206214E+02 -0.11038313035E+03  0.13936460514E+03  0.00000000000E+00 0.  1.
        -11    1    4    4    0    0  0.28086359900E+02 -0.20410313940E+02  0.11681618904E+03  0.12186651119E+03  0.00000000000E+00 0.  1.
         11    1    4    4    0    0 -0.32761027868E+01 -0.59965113750E+02  0.22419289539E+02  0.64102825678E+02  0.00000000000E+00 0. -1.
          2    1    1    2  501    0 -0.67436339264E+02  0.14955960398E+02 -0.18914529879E+03  0.20136356339E+03  0.00000000000E+00 0. -1.
<scales pt_clust_5="13000.00000" pt_clust_6="13000.00000" pt_clust_7="13000.00000" pt_clust_8="13000.00000" pt_clust_9="69.07493"></scales>
<clustering>
<clus scale="   69.075">  1  9  2 -1</clus>
<clus scale="   77.724">  5  6 -1 -1</clus>
<clus scale="   90.124">  7  8 -1 -1</clus>
<clus scale="  108.526">  2  5  1 -1</clus>
<clus scale="   69.075">  1  5  2 -1</clus>
</clustering>
</event>
<event>
 9    1  0.5981539E-005  0.1171148E+03  0.7546771E-02  0.1251239E+00
          3   -1    0    0  502    0 -0.00000000000E+00  0.00000000000E+00  0.57869113579E+03  0.57869113579E+03  0.00000000000E+00 0. -1.
         21   -1    0    0  501  502  0.00000000000E+00 -0.00000000000E+00 -0.47250795604E+02  0.47250795604E+02  0.00000000000E+00 0.  1.
         23    2    1    2    0    0  0.97833699507E+02  0.16848802557E+01  0.31783430876E+03  0.34491597455E+03  0.91510163895E+02 0.  0.
        -24    2    1    2    0    0 -0.26756091667E+02 -0.39786362691E+02  0.75683496495E+02  0.12125620081E+03  0.81708209479E+02 0.  0.
         13    1    4    4    0    0 -0.53979321886E+02 -0.15857684973E+02  0.58435044577E+02  0.81116507559E+02  0.00000000000E+00 0. -1.
        -14    1    4    4    0    0  0.27223230219E+02 -0.23928677718E+02  0.17248451918E+02  0.40139693253E+02  0.00000000000E+00 0.  1.
        -13    1    3    3    0    0  0.13476073936E+02 -0.36884758010E+02  0.69544454442E+02  0.79865643964E+02  0.00000000000E+00 0.  1.
         13    1    3    3    0    0  0.84357625572E+02  0.38569638266E+02  0.24828985432E+03  0.26505033059E+03  0.00000000000E+00 0. -1.
          4    1    1    2  501    0 -0.71077607840E+02  0.38101482435E+02  0.13792253494E+03  0.15976975603E+03  0.00000000000E+00 0. -1.
<scales pt_clust_5="13000.00000" pt_clust_6="13000.00000" pt_clust_7="13000.00000" pt_clust_8="13000.00000" pt_clust_9="80.64587"></scales>
<clustering>
<clus scale="   80.646">  2  9  1 -1</clus>
<clus scale="   81.708">  5  6 -1 -1</clus>
<clus scale="   91.510">  7  8 -1 -1</clus>
<clus scale="  109.627">  2  5  1 -1</clus>
<clus scale="   80.646">  2  5  1 -1</clus>
</clustering>
</event>
<event>
 9    1  0.5981539E-005  0.9081303E+02  0.7546771E-02  0.1303409E+00
         21   -1    0    0  501  502  0.00000000000E+00  0.00000000000E+00  0.15321877765E+03  0.15321877765E+03  0.00000000000E+00 0.  1.
          1   -1    0    0  502    0 -0.00000000000E+00 -0.00000000000E+00 -0.15767007246E+03  0.15767007246E+03  0.00000000000E+00 0. -1.
         23    2    1    2    0    0 -0.14281940590E+02  0.26055476873E+02 -0.10831690052E+03  0.14061539260E+03  0.84600685554E+02 0.  0.
        -24    2    1    2    0    0  0.47357461057E+02 -0.35536128941E+02  0.85216808484E+02  0.13113715140E+03  0.80184178316E+02 0.  0.
         11    1    4    4    0    0 -0.21694295242E+02 -0.82522833540E+01  0.94636592514E+01  0.25065982387E+02  0.00000000000E+00 0. -1.
        -12    1    4    4    0    0  0.69051756299E+02 -0.27283845587E+02  0.75753149233E+02  0.10607116902E+03  0.00000000000E+00 0.  1.
        -11    1    3    3    0    0  0.89235200544E+01 -0.23183872679E+02 -0.69369082454E+02  0.73683042574E+02  0.00000000000E+00 0.  1.
         11    1    3    3    0    0 -0.23205460645E+02  0.49239349552E+02 -0.38947818065E+02  0.66932350026E+02  0.00000000000E+00 0. -1.
          2    1    1    2  501    0 -0.33075520467E+02  0.94806520686E+01  0.18648797221E+02  0.39136306106E+02  0.00000000000E+00 0. -1.
<scales pt_clust_5="13000.00000" pt_clust_6="13000.00000" pt_clust_7="13000.00000" pt_clust_8="13000.00000" pt_clust_9="34.40745"></scales>
<clustering>
<clus scale="   34.407">  1  9  2 -1</clus>
<clus scale="   80.184">  5  6 -1 -1</clus>
<clus scale="   84.601">  7  8 -1 -1</clus>
<clus scale="   86.714">  1  5  2 -1</clus>
<clus scale="   34.407">  1  5  2 -1</clus>
</clustering>
</event>
<event>
 9    1  0.5981539E-005  0.1962704E+03  0.7546771E-02  0.1184963E+00
          1   -1    0    0  502    0 -0.00000000000E+00  0.00000000000E+00  0.12858538944E+04  0.12858538944E+04  0.00000000000E+00 0. -1.
         21   -1    0    0  501  502  0.00000000000E+00 -0.00000000000E+00 -0.51739698345E+02  0.51739698345E+02  0.00000000000E+00 0. -1.
         23    2    1    2    0    0 -0.24220561289E+02  0.44467440032E+01  0.15351155596E+03  0.18009633816E+03  0.90898207271E+02 0.  0.
        -24    2    1    2    0    0 -0.43235595860E+01 -0.18146829532E+03  0.80268297649E+03  0.82675455113E+03  0.79206639190E+02 0.  0.
         13    1    4    4    0    0 -0.28179803230E+02 -0.15507844859E+03  0.71424660726E+03  0.73143122883E+03  0.00000000000E+00 0. -1.
        -14    1    4    4    0    0  0.23856243644E+02 -0.26389846735E+02  0.88436369233E+02  0.95323322302E+02  0.00000000000E+00 0.  1.
        -13    1    3    3    0    0 -0.38711164688E+00  0.25978952132E+02  0.14438669071E+03  0.14670573358E+03  0.00000000000E+00 0.  1.
         13    1    3    3    0    0 -0.23833449642E+02 -0.21532208128E+02  0.91248652437E+01  0.33390604584E+02  0.00000000000E+00 0. -1.
          2    1    1    2  501    0  0.28544120875E+02  0.17702155132E+03  0.27791966359E+03  0.33074270344E+03  0.00000000000E+00 0. -1.
<scales pt_clust_5="13000.00000" pt_clust_6="13000.00000" pt_clust_7="13000.00000" pt_clust_8="13000.00000" pt_clust_9="179.57829"></scales>
<clustering>
<clus scale="   79.207">  5  6 -1 -1</clus>
<clus scale="   90.898">  7  8 -1 -1</clus>
<clus scale="   94.175">  1  7  2 -1</clus>
<clus scale="  179.578">  2  9  1 -1</clus>
<clus scale="  179.578">  2  5  1 -1</clus>
</clustering>
</event>
<event>
 9    1  0.5981539E-005  0.9740668E+02  0.7546771E-02  0.1292097E+00
          3   -1    0    0  502    0 -0.00000000000E+00  0.00000000000E+00  0.69894757907E+02  0.69894757907E+02  0.00000000000E+00 0. -1.
         21   -1    0    0  501  502  0.00000000000E+00 -0.00000000000E+00 -0.57719684238E+03  0.57719684238E+03  0.00000000000E+00 0. -1.
        -24    2    1    2    0    0  0.27194970889E+02  0.57501764946E+01  0.29156153252E+01  0.86237297874E+02  0.81582717291E+02 0.  0.
         23    2    1    2    0    0 -0.49979910624E+02  0.20795196397E+02 -0.51448785136E+03  0.52561165077E+03  0.92948515694E+02 0.  0.
         13    1    3    3    0    0 -0.28497646418E+02  0.92191774404E+01 -0.31078328833E+01  0.30112583902E+02  0.00000000000E+00 0. -1.
        -14    1    3    3    0    0  0.55692617307E+02 -0.34690009458E+01  0.60234482084E+01  0.56124713972E+02  0.00000000000E+00 0.  1.
        -13    1    4    4    0    0 -0.71191026725E+02  0.35984912671E+02 -0.42397929772E+03  0.43141803523E+03  0.00000000000E+00 0. -1.
         13    1    4    4    0    0  0.21211116101E+02 -0.15189716274E+02 -0.90508553640E+02  0.94193615541E+02  0.00000000000E+00 0.  1.
          4    1    1    2  501    0  0.22784939734E+02 -0.26545372892E+02  0.42701515587E+01  0.35242651645E+02  0.00000000000E+00 0. -1.
<scales pt_clust_5="13000.00000" pt_clust_6="13000.00000" pt_clust_7="13000.00000" pt_clust_8="13000.00000" pt_clust_9="34.98302"></scales>
<clustering>
<clus scale="   34.983">  2  9  1 -1</clus>
<clus scale="   81.583">  5  6 -1 -1</clus>
<clus scale="   86.628">  1  5  2 -1</clus>
<clus scale="   92.949">  7  8 -1 -1</clus>
<clus scale="   34.983">  2  5  1 -1</clus>
</clustering>
</event>
<event>
 9    1  0.5981539E-005  0.1186266E+03  0.7546771E-02  0.1248856E+00
         21   -1    0    0  501  502  0.00000000000E+00  0.00000000000E+00  0.30613329349E+02  0.30613329349E+02  0.00000000000E+00 0.  1.
         -2   -1    0    0    0  501 -0.00000000000E+00 -0.00000000000E+00 -0.80970172330E+03  0.80970172330E+03  0.00000000000E+00 0.  1.
        -24    2    1    2    0    0  0.32835533185E+01  0.77144306604E+02 -0.59315125053E+03  0.60375468327E+03  0.82032224199E+02 0.  0.
         23    2    1    2    0    0 -0.29885297752E+02 -0.60425711932E+02 -0.13896937353E+03  0.18005253254E+03  0.92531238035E+02 0.  0.
         11    1    3    3    0    0 -0.32985052770E+02  0.66576497546E+02 -0.42115111680E+03  0.42765489231E+03  0.00000000000E+00 0. -1.
        -12    1    3    3    0    0  0.36268606089E+02  0.10567809057E+02 -0.17200013373E+03  0.17609979096E+03  0.00000000000E+00 0.  1.
        -13    1    4    4    0    0 -0.26346148563E+02  0.11919183005E+02 -0.84831361551E+02  0.89624474169E+02  0.00000000000E+00 0.  1.
         13    1    4    4    0    0 -0.35391491890E+01 -0.72344894937E+02 -0.54138011977E+02  0.90428058373E+02  0.00000000000E+00 0. -1.
         -1    1    1    2    0  502  0.26601744433E+02 -0.16718594672E+02 -0.46967769896E+02  0.56507836834E+02  0.00000000000E+00 0.  1.
<scales pt_clust_5="13000.00000" pt_clust_6="13000.00000" pt_clust_7="13000.00000" pt_clust_8="13000.00000" pt_clust_9="31.41917"></scales>
<clustering>
<clus scale="   31.419">  1  9  2 -1</clus>
<clus scale="   82.032">  5  6 -1 -1</clus>
<clus scale="   92.531">  7  8 -1 -1</clus>
<clus scale="  110.632">  2  5  1 -1</clus>
<clus scale="   31.419">  1  5  2 -1</clus>
</clustering>
</event>
<event>
 9    1  0.5981539E-005  0.1182614E+03  0.7546771E-02  0.1248531E+00
         21   -1    0    0  501  502  0.00000000000E+00  0.00000000000E+00  0.64713525515E+02  0.64713525515E+02  0.00000000000E+00 0.  1.
          3   -1    0    0  502    0 -0.00000000000E+00 -0.00000000000E+00 -0.42991034853E+03  0.42991034853E+03  0.00000000000E+00 0. -1.
        -24    2    1    2    0    0  0.59557993134E+02  0.49526082755E+02 -0.28241085044E+03  0.30456753386E+03  0.83698905688E+02 0.  0.
         23    2    1    2    0    0 -0.18787741306E+02 -0.76909764560E+02 -0.68069786876E+02  0.13878602144E+03  0.91432886605E+02 0.  0.
         13    1    3    3    0    0  0.36669377708E+01  0.56907191910E+02 -0.15811598898E+03  0.16808492168E+03  0.00000000000E+00 0. -1.
        -14    1    3    3    0    0  0.55891055363E+02 -0.73811091548E+01 -0.12429486146E+03  0.13648261218E+03  0.00000000000E+00 0.  1.
        -13    1    4    4    0    0 -0.21230082153E+02 -0.49016451718E+02 -0.89019470914E+02  0.10381616025E+03  0.00000000000E+00 0. -1.
         13    1    4    4    0    0  0.24423408463E+01 -0.27893312842E+02  0.20949684038E+02  0.34969861187E+02  0.00000000000E+00 0.  1.
          4    1    1    2  501    0 -0.40770251828E+02  0.27383681805E+02 -0.14716185697E+02  0.51270318750E+02  0.00000000000E+00 0. -1.
<scales pt_clust_5="13000.00000" pt_clust_6="13000.00000" pt_clust_7="13000.00000" pt_clust_8="13000.00000" pt_clust_9="49.11293"></scales>
<clustering>
<clus scale="   49.113">  1  9  2 -1</clus>
<clus scale="   83.699">  5  6 -1 -1</clus>
<clus scale="   91.433">  7  8 -1 -1</clus>
<clus scale="  112.389">  2  5  1 -1</clus>
<clus scale="   49.113">  1  5  2 -1</clus>
</clustering>
</event>
<event>
 9    1  0.5981539E-005  0.1416404E+03  0.7546771E-02  0.1213820E+00
         21   -1    0    0  501  502  0.00000000000E+00  0.00000000000E+00  0.20277099849E+02  0.20277099849E+02  0.00000000000E+00 0.  1.
          1   -1    0    0  502    0 -0.00000000000E+00 -0.00000000000E+00 -0.13429342323E+04  0.13429342323E+04  0.00000000000E+00 0. -1.
         23    2    1    2    0    0  0.11844766274E+03 -0.42113989901E+02 -0.74703701521E+03  0.76321454055E+03  0.92890773835E+02 0.  0.
        -24    2    1    2    0    0 -0.71217188247E+02  0.48387619512E+02 -0.34667762758E+03  0.36614910672E+03  0.80414807490E+02 0.  0.
         13    1    4    4    0    0 -0.11031564546E+02  0.39295609086E+02 -0.23898439732E+03  0.24244459671E+03  0.00000000000E+00 0. -1.
        -14    1    4    4    0    0 -0.60185623701E+02  0.90920104264E+01 -0.10769323026E+03  0.12370451001E+03  0.00000000000E+00 0.  1.
        -13    1    3    3    0    0  0.97765456736E+02  0.11672002263E+02 -0.49061367828E+03  0.50039594471E+03  0.00000000000E+00 0.  1.
         13    1    3    3    0    0  0.20682206008E+02 -0.53785992164E+02 -0.25642333692E+03  0.26281859584E+03  0.00000000000E+00 0. -1.
          2    1    1    2  501    0 -0.47230474497E+02 -0.62736296112E+01 -0.22894248968E+03  0.23384768490E+03  0.00000000000E+00 0. -1.
<scales pt_clust_5="13000.00000" pt_clust_6="13000.00000" pt_clust_7="13000.00000" pt_clust_8="13000.00000" pt_clust_9="47.64534"></scales>
<clustering>
<clus scale="   47.645">  1  9  2 -1</clus>
<clus scale="   80.415">  5  6 -1 -1</clus>
<clus scale="   92.891">  7  8 -1 -1</clus>
<clus scale="  133.790">  1  5  2 -1</clus>
<clus scale="   47.645">  1  5  2 -1</clus>
</clustering>
</event>
<event>
 9    1  0.5981539E-005  0.1640845E+03  0.7546771E-02  0.1188109E+00
          1   -1    0    0  502    0 -0.00000000000E+00  0.00000000000E+00  0.62620951096E+03  0.62620951096E+03  0.00000000000E+00 0. -1.
         21   -1    0    0  501  502  0.00000000000E+00 -0.00000000000E+00 -0.16121063984E+03  0.16121063984E+03  0.00000000000E+00 0. -1.
        -24    2    1    2    0    0  0.85823457418E+02 -0.94278368155E+02  0.30708272373E+03  0.34188791671E+03  0.79583112768E+02 0.  0.
         23    2    1    2    0    0 -0.41124997899E+02 -0.11623153352E+03 -0.35000784570E+02  0.15651785101E+03  0.89842906939E+02 0.  0.
         11    1    3    3    0    0  0.66152140330E+02 -0.14975308151E+02  0.15651904054E+03  0.17058304598E+03  0.00000000000E+00 0. -1.
        -12    1    3    3    0    0  0.19671317087E+02 -0.79303060004E+02  0.15056368319E+03  0.17130487074E+03  0.00000000000E+00 0.  1.
        -13    1    4    4    0    0  0.25266219354E+02 -0.29226527046E+02  0.70555718274E+01  0.39272799969E+02  0.00000000000E+00 0.  1.
         13    1    4    4    0    0 -0.66391217253E+02 -0.87005006475E+02 -0.42056356397E+02  0.11724505104E+03  0.00000000000E+00 0. -1.
          2    1    1    2  501    0 -0.44698459519E+02  0.21050990168E+03  0.19291693196E+03  0.28901438308E+03  0.00000000000E+00 0. -1.
<scales pt_clust_5="13000.00000" pt_clust_6="13000.00000" pt_clust_7="13000.00000" pt_clust_8="13000.00000" pt_clust_9="137.30253"></scales>
<clustering>
<clus scale="   79.583">  5  6 -1 -1</clus>
<clus scale="   89.843">  7  8 -1 -1</clus>
<clus scale="  150.292">  1  5  2 -1</clus>
<clus scale="  137.303">  2  9  1 -1</clus>
<clus scale="  137.303">  2  5  1 -1</clus>
</clustering>
</event>
<event>
 9    1  0.5981539E-005  0.1024803E+03  0.7546771E-02  0.1280705E+00
         21   -1    0    0  501  502  0.00000000000E+00  0.00000000000E+00  0.89499366766E+02  0.89499366766E+02  0.00000000000E+00 0.  1.
         -4   -1    0    0    0  501 -0.00000000000E+00 -0.00000000000E+00 -0.23943422736E+03  0.23943422736E+03  0.00000000000E+00 0.  1.
         23    2    1    2    0    0  0.30316926945E+02 -0.48358082029E+02 -0.11771815994E+03  0.15979943846E+03  0.91764237014E+02 0.  0.
        -24    2    1    2    0    0 -0.52180198081E+02 -0.15937689333E+02 -0.28894020187E+02  0.10114158957E+03  0.80112257017E+02 0.  0.
         11    1    4    4    0    0 -0.26761807481E+02  0.23093091476E+02 -0.39874856427E+02  0.53286859436E+02  0.00000000000E+00 0. -1.
        -12    1    4    4    0    0 -0.25418390601E+02 -0.39030780809E+02  0.10980836240E+02  0.47854730130E+02  0.00000000000E+00 0.  1.
        -11    1    3    3    0    0 -0.23173208082E+02 -0.76844810763E+01 -0.78021907076E+02  0.81752472782E+02  0.00000000000E+00 0.  1.
         11    1    3    3    0    0  0.53490135027E+02 -0.40673600953E+02 -0.39696252865E+02  0.78046965676E+02  0.00000000000E+00 0. -1.
         -3    1    1    2    0  502  0.21863271136E+02  0.64295771362E+02 -0.33226804683E+01  0.67992566103E+02  0.00000000000E+00 0.  1.
<scales pt_clust_5="13000.00000" pt_clust_6="13000.00000" pt_clust_7="13000.00000" pt_clust_8="13000.00000" pt_clust_9="67.91133"></scales>
<clustering>
<clus scale="   67.911">  1  9  2 -1</clus>
<clus scale="   80.112">  5  6 -1 -1</clus>
<clus scale="   91.764">  7  8 -1 -1</clus>
<clus scale="   92.193">  1  5  2 -1</clus>
<clus scale="   67.911">  1  5  2 -1</clus>
</clustering>
</event>
<event>
 9    1  0.5981539E-005  0.9169656E+02  0.7546771E-02  0.1304266E+00
         21   -1    0    0  501  502  0.00000000000E+00  0.00000000000E+00  0.29392497967E+02  0.29392497967E+02  0.00000000000E+00 0.  1.
         -2   -1    0    0    0  501 -0.00000000000E+00 -0.00000000000E+00 -0.40566021668E+03  0.40566021668E+03  0.00000000000E+00 0.  1.
         23    2    1    2    0    0 -0.39079421574E+01  0.27955950546E+02 -0.15867934884E+03  0.18207023984E+03  0.84697280369E+02 0.  0.
        -24    2    1    2    0    0  0.18103186380E+02 -0.42141486235E+02 -0.97965274280E+02  0.13168771244E+03  0.75105448687E+02 0.  0.
         13    1    4    4    0    0 -0.26164043784E+02 -0.79079908916E+00 -0.19927009853E+02  0.32897846009E+02  0.00000000000E+00 0. -1.
        -14    1    4    4    0    0  0.44267230164E+02 -0.41350687146E+02 -0.78038264427E+02  0.98789866427E+02  0.00000000000E+00 0.  1.
        -13    1    3    3    0    0 -0.15019446907E+01  0.58371942268E+02 -0.96093806996E+02  0.11244358241E+03  0.00000000000E+00 0.  1.
         13    1    3    3    0    0 -0.24059974667E+01 -0.30415991721E+02 -0.62585541847E+02  0.69626657427E+02  0.00000000000E+00 0. -1.
         -1    1    1    2    0  502 -0.14195244222E+02  0.14185535689E+02 -0.11962309559E+03  0.12129476238E+03  0.00000000000E+00 0.  1.
<scales pt_clust_5="13000.00000" pt_clust_6="13000.00000" pt_clust_7="13000.00000" pt_clust_8="13000.00000" pt_clust_9="20.06825"></scales>
<clustering>
<clus scale="   20.068">  1  9  2 -1</clus>
<clus scale="   75.105">  5  6 -1 -1</clus>
<clus scale="   82.918">  1  5  2 -1</clus>
<clus scale="   84.697">  7  8 -1 -1</clus>
<clus scale="   20.068">  1  5  2 -1</clus>
</clustering>
</event>
<event>
 9    1  0.5981539E-005  0.9417753E+02  0.7546771E-02  0.1299548E+00
         -2   -1    0    0    0  501 -0.00000000000E+00  0.00000000000E+00  0.41860109020E+02  0.41860109020E+02  0.00000000000E+00 0.  1.
         21   -1    0    0  501  502  0.00000000000E+00 -0.00000000000E+00 -0.42936034521E+03  0.42936034521E+03  0.00000000000E+00 0. -1.
         23    2    1    2    0    0  0.12276895268E+02  0.34976403926E+02 -0.42723987993E+02  0.10630791125E+03  0.90010898541E+02 0.  0.
        -24    2    1    2    0    0 -0.65478860885E+01 -0.22627020311E+01 -0.17650891112E+03  0.19339897336E+03  0.78738634459E+02 0.  0.
         11    1    4    4    0    0 -0.69166757897E+01  0.33513816292E+02 -0.13162102400E+03  0.13599672881E+03  0.00000000000E+00 0. -1.
        -12    1    4    4    0    0  0.36878970123E+00 -0.35776518323E+02 -0.44887887120E+02  0.57402244549E+02  0.00000000000E+00 0.  1.
        -13    1    3    3    0    0  0.58255594536E+00 -0.29605813916E+02 -0.34240437895E+01  0.29808852123E+02  0.00000000000E+00 0.  1.
         13    1    3    3    0    0  0.11694339322E+02  0.64582217842E+02 -0.39299944204E+02  0.76499059131E+02  0.00000000000E+00 0. -1.
         -1    1    1    2    0  502 -0.57290091793E+01 -0.32713701895E+02 -0.16826733707E+03  0.17151356962E+03  0.00000000000E+00 0.  1.
<scales pt_clust_5="13000.00000" pt_clust_6="13000.00000" pt_clust_7="13000.00000" pt_clust_8="13000.00000" pt_clust_9="33.21156"></scales>
<clustering>
<clus scale="   33.212">  2  9  1 -1</clus>
<clus scale="   78.739">  5  6 -1 -1</clus>
<clus scale="   83.470">  2  5  1 -1</clus>
<clus scale="   90.011">  7  8 -1 -1</clus>
<clus scale="   33.212">  2  5  1 -1</clus>
</clustering>
</event>
<event>
 9    1  0.5981539E-005  0.1391271E+03  0.7546771E-02  0.1215578E+00
         21   -1    0    0  501  502  0.00000000000E+00  0.00000000000E+00  0.15697544537E+03  0.15697544537E+03  0.00000000000E+00 0.  1.
         -4   -1    0    0    0  501 -0.00000000000E+00 -0.00000000000E+00 -0.17229364461E+03  0.17229364461E+03  0.00000000000E+00 0.  1.
        -24    2    1    2    0    0 -0.11127065252E+03 -0.27556549764E+01 -0.73600565243E+02  0.15893569485E+03  0.86340952898E+02 0.  0.
         23    2    1    2    0    0  0.92585370533E+02  0.14710962411E+02  0.29606526210E+02  0.13407911365E+03  0.91171262303E+02 0.  0.
         13    1    3    3    0    0 -0.51500650342E+02  0.88363629980E+01  0.12266991711E+02  0.53673805364E+02  0.00000000000E+00 0. -1.
        -14    1    3    3    0    0 -0.59770002175E+02 -0.11592017974E+02 -0.85867556954E+02  0.10526188948E+03  0.00000000000E+00 0.  1.
        -13    1    4    4    0    0  0.20097300641E+02  0.23563479874E+02  0.49501238423E+02  0.58391023987E+02  0.00000000000E+00 0.  1.
         13    1    4    4    0    0  0.72488069893E+02 -0.88525174630E+01 -0.19894712213E+02  0.75688089659E+02  0.00000000000E+00 0. -1.
         -3    1    1    2    0  502  0.18685281983E+02 -0.11955307434E+02  0.28675839787E+02  0.36254281486E+02  0.00000000000E+00 0.  1.
<scales pt_clust_5="13000.00000" pt_clust_6="13000.00000" pt_clust_7="13000.00000" pt_clust_8="13000.00000" pt_clust_9="22.18263"></scales>
<clustering>
<clus scale="   22.183">  1  9  2 -1</clus>
<clus scale="   86.341">  5  6 -1 -1</clus>
<clus scale="   91.171">  7  8 -1 -1</clus>
<clus scale="  136.011">  2  5  1 -1</clus>
<clus scale="   22.183">  1  5  2 -1</clus>
</clustering>
</event>
<event>
 9    1  0.5981539E-005  0.1508726E+03  0.7546771E-02  0.1208132E+00
          1   -1    0    0  502    0 -0.00000000000E+00  0.00000000000E+00  0.44492904582E+03  0.44492904582E+03  0.00000000000E+00 0. -1.
         21   -1    0    0  501  502  0.00000000000E+00 -0.00000000000E+00 -0.12054796949E+03  0.12054796949E+03  0.00000000000E+00 0. -1.
         23    2    1    2    0    0 -0.49177349892E+02  0.66442182324E+02  0.16202673831E+03  0.20462371613E+03  0.93729536119E+02 0.  0.
        -24    2    1    2    0    0 -0.90072261199E+02 -0.45593453443E+02  0.17710224085E+03  0.21928132342E+03  0.80791830370E+02 0.  0.
         13    1    4    4    0    0 -0.87288231742E+02 -0.61636657123E+02  0.17149200921E+03  0.20205895706E+03  0.00000000000E+00 0. -1.
        -14    1    4    4    0    0 -0.27840294569E+01  0.16043203680E+02  0.56102316344E+01  0.17222366368E+02  0.00000000000E+00 0.  1.
        -11    1    3    3    0    0  0.19085168624E+02  0.80074835265E+01  0.16163439087E+01  0.20759961981E+02  0.00000000000E+00 0.  1.
         11    1    3    3    0    0 -0.68262518516E+02  0.58434698797E+02  0.16041039440E+03  0.18386375414E+03  0.00000000000E+00 0. -1.
          2    1    1    2  501    0  0.13924961109E+03 -0.20848728880E+02 -0.14747902822E+02  0.14157197577E+03  0.00000000000E+00 0. -1.
<scales pt_clust_5="13000.00000" pt_clust_6="13000.00000" pt_clust_7="13000.00000" pt_clust_8="13000.00000" pt_clust_9="127.41748"></scales>
<clustering>
<clus scale="   80.792">  5  6 -1 -1</clus>
<clus scale="   93.730">  7  8 -1 -1</clus>
<clus scale="  124.973">  1  7  2 -1</clus>
<clus scale="  127.417">  2  9  1 -1</clus>
<clus scale="  127.417">  2  5  1 -1</clus>
</clustering>
</event>
<event>
 9    1  0.5981539E-005  0.1066918E+03  0.7546771E-02  0.1273102E+00
         21   -1    0    0  501  502  0.00000000000E+00  0.00000000000E+00  0.63722467049E+02  0.63722467049E+02  0.00000000000E+00 0. -1.
         -2   -1    0    0    0  501 -0.00000000000E+00 -0.00000000000E+00 -0.21451732182E+03  0.21451732182E+03  0.00000000000E+00 0.  1.
         23    2    1    2    0    0 -0.12420752306E+02  0.52512958519E+02 -0.74530130693E+02  0.13185133928E+03  0.94435953897E+02 0.  0.
        -24    2    1    2    0    0  0.35711646631E+02 -0.34359114295E+02 -0.49960414359E+02  0.10684171106E+03  0.80394264592E+02 0.  0.
         13    1    4    4    0    0  0.36230348062E+02 -0.59135554808E+02 -0.40528376465E+02  0.80325595311E+02  0.00000000000E+00 0. -1.
        -14    1    4    4    0    0 -0.51870143138E+00  0.24776440512E+02 -0.94320378943E+01  0.26516115750E+02  0.00000000000E+00 0.  1.
        -13    1    3    3    0    0 -0.40336547362E+01 -0.27061133177E+02 -0.10259265905E+02  0.29220332583E+02  0.00000000000E+00 0.  1.
         13    1    3    3    0    0 -0.83870975697E+01  0.79574091696E+02 -0.64270864788E+02  0.10263100670E+03  0.00000000000E+00 0. -1.
         -1    1    1    2    0  502 -0.23290894325E+02 -0.18153844224E+02 -0.26304309720E+02  0.39546738530E+02  0.00000000000E+00 0.  1.
<scales pt_clust_5="13000.00000" pt_clust_6="13000.00000" pt_clust_7="13000.00000" pt_clust_8="13000.00000" pt_clust_9="29.53013"></scales>
<clustering>
<clus scale="   29.530">  1  9  2 -1</clus>
<clus scale="   80.394">  5  6 -1 -1</clus>
<clus scale="   94.436">  7  8 -1 -1</clus>
<clus scale="   94.489">  1  5  2 -1</clus>
<clus scale="   29.530">  1  5  2 -1</clus>
</clustering>
</event>
<event>
 9    1  0.5981539E-005  0.8142669E+02  0.7546771E-02  0.1329334E+00
         -4   -1    0    0    0  501 -0.00000000000E+00  0.00000000000E+00  0.49782323964E+03  0.49782323964E+03  0.00000000000E+00 0.  1.
         21   -1    0    0  501  502  0.00000000000E+00 -0.00000000000E+00 -0.45552916283E+02  0.45552916283E+02  0.00000000000E+00 0. -1.
         23    2    1    2    0    0  0.16728934770E+02  0.94752018458E+00  0.27611393581E+03  0.28647000737E+03  0.74467472912E+02 0.  0.
        -24    2    1    2    0    0  0.20379550192E+02 -0.43864647140E+01  0.67046163921E+01  0.83404653621E+02  0.80478675598E+02 0.  0.
         13    1    4    4    0    0  0.48475899372E+02  0.90418324562E+01  0.14315182281E+02  0.51347755529E+02  0.00000000000E+00 0. -1.
        -14    1    4    4    0    0 -0.28096349180E+02 -0.13428297170E+02 -0.76105658888E+01  0.32056898092E+02  0.00000000000E+00 0.  1.
        -13    1    3    3    0    0  0.21034044783E+02 -0.33298399965E+02  0.18235418637E+03  0.18655900881E+03  0.00000000000E+00 0.  1.
         13    1    3    3    0    0 -0.43051100132E+01  0.34245920150E+02  0.93759749432E+02  0.99910998557E+02  0.00000000000E+00 0. -1.
         -3    1    1    2    0  502 -0.37108484961E+02  0.34389445294E+01  0.16945177116E+03  0.17350149493E+03  0.00000000000E+00 0.  1.
<scales pt_clust_5="13000.00000" pt_clust_6="13000.00000" pt_clust_7="13000.00000" pt_clust_8="13000.00000" pt_clust_9="37.26751"></scales>
<clustering>
<clus scale="   37.268">  2  9  1 -1</clus>
<clus scale="   74.467">  7  8 -1 -1</clus>
<clus scale="   75.491">  1  7  2 -1</clus>
<clus scale="   80.479">  5  6 -1 -1</clus>
<clus scale="   37.268">  2  5  1 -1</clus>
</clustering>
</event>
<event>
 9    1  0.5981539E-005  0.1034901E+03  0.7546771E-02  0.1280592E+00
         -2   -1    0    0    0  501 -0.00000000000E+00  0.00000000000E+00  0.28021222237E+03  0.28021222237E+03  0.00000000000E+00 0.  1.
         21   -1    0    0  501  502  0.00000000000E+00 -0.00000000000E+00 -0.15159876093E+03  0.15159876093E+03  0.00000000000E+00 0. -1.
         23    2    1    2    0    0 -0.62325497318E+00  0.44712104165E+02  0.24383750629E+03  0.26503373655E+03  0.93736819500E+02 0.  0.
        -24    2    1    2    0    0  0.27052577541E+02 -0.33307372855E+02 -0.10061506174E+03  0.13449723164E+03  0.78261686874E+02 0.  0.
         11    1    4    4    0    0  0.34758987930E+02  0.12343137304E+02 -0.69606621863E+02  0.78775770943E+02  0.00000000000E+00 0. -1.
        -12    1    4    4    0    0 -0.77064103899E+01 -0.45650510159E+02 -0.31008439877E+02  0.55721460700E+02  0.00000000000E+00 0.  1.
        -11    1    3    3    0    0 -0.36362205018E+02  0.46261716436E+01  0.16894673743E+03  0.17287744649E+03  0.00000000000E+00 0.  1.
         11    1    3    3    0    0  0.35738950045E+02  0.40085932521E+02  0.74890768860E+02  0.92156290056E+02  0.00000000000E+00 0. -1.
         -1    1    1    2    0  502 -0.26429322567E+02 -0.11404731309E+02 -0.14608983107E+02  0.32280015102E+02  0.00000000000E+00 0.  1.
<scales pt_clust_5="13000.00000" pt_clust_6="13000.00000" pt_clust_7="13000.00000" pt_clust_8="13000.00000" pt_clust_9="28.78501"></scales>
<clustering>
<clus scale="   28.785">  2  9  1 -1</clus>
<clus scale="   78.262">  5  6 -1 -1</clus>
<clus scale="   89.713">  2  5  1 -1</clus>
<clus scale="   93.737">  7  8 -1 -1</clus>
<clus scale="   28.785">  2  5  1 -1</clus>
</clustering>
</event>
<event>
 9    1  0.5981539E-005  0.1892022E+03  0.7546771E-02  0.1178650E+00
         21   -1    0    0  501  502  0.00000000000E+00  0.00000000000E+00  0.61360414667E+03  0.61360414667E+03  0.00000000000E+00 0.  1.
         -2   -1    0    0    0  501 -0.00000000000E+00 -0.00000000000E+00 -0.18281701342E+03  0.18281701342E+03  0.00000000000E+00 0.  1.
         23    2    1    2    0    0  0.47505981452E+02  0.64095497154E+02 -0.71331758356E+02  0.14055229920E+03  0.91113544724E+02 0.  0.
        -24    2    1    2    0    0  0.11215561946E+03 -0.13348807652E+03  0.98102597505E+02  0.21594122733E+03  0.81292954626E+02 0.  0.
         11    1    4    4    0    0  0.46506418413E+02 -0.10782669534E+03  0.38337765869E+02  0.12352824565E+03  0.00000000000E+00 0. -1.
        -12    1    4    4    0    0  0.65649201045E+02 -0.25661381187E+02  0.59764831636E+02  0.92412981679E+02  0.00000000000E+00 0.  1.
        -11    1    3    3    0    0  0.71375578964E+02  0.65928229885E+02 -0.57516790248E+02  0.11291229308E+03  0.00000000000E+00 0.  1.
         11    1    3    3    0    0 -0.23869597512E+02 -0.18327327313E+01 -0.13814968108E+02  0.27640006123E+02  0.00000000000E+00 0. -1.
         -1    1    1    2    0  502 -0.15966160091E+03  0.69392579371E+02  0.40401629409E+03  0.43992763356E+03  0.00000000000E+00 0.  1.
<scales pt_clust_5="13000.00000" pt_clust_6="13000.00000" pt_clust_7="13000.00000" pt_clust_8="13000.00000" pt_clust_9="170.84766"></scales>
<clustering>
<clus scale="   81.293">  5  6 -1 -1</clus>
<clus scale="   91.114">  7  8 -1 -1</clus>
<clus scale="  121.106">  2  7  1 -1</clus>
<clus scale="  170.848">  1  9  2 -1</clus>
<clus scale="  170.848">  1  5  2 -1</clus>
</clustering>
</event>
<event>
 9    1  0.5981539E-005  0.1433329E+03  0.7546771E-02  0.1211790E+00
         -2   -1    0    0    0  501 -0.00000000000E+00  0.00000000000E+00  0.44938327009E+02  0.44938327009E+02  0.00000000000E+00 0.  1.
         21   -1    0    0  501  502  0.00000000000E+00 -0.00000000000E+00 -0.73353845903E+03  0.73353845903E+03  0.00000000000E+00 0. -1.
        -24    2    1    2    0    0 -0.53756114536E+02  0.88473436445E+02 -0.26496631951E+03  0.29632102438E+03  0.82956194526E+02 0.  0.
         23    2    1    2    0    0  0.11358930833E+03 -0.44545254947E+02 -0.30295910733E+03  0.34047979093E+03  0.96205283721E+02 0.  0.
         13    1    3    3    0    0 -0.63850044797E+02  0.97879988540E+02 -0.24999412774E+03  0.27596083831E+03  0.00000000000E+00 0. -1.
        -14    1    3    3    0    0  0.10093930261E+02 -0.94065520951E+01 -0.14972191766E+02  0.20360186068E+02  0.00000000000E+00 0.  1.
        -13    1    4    4    0    0 -0.15153425959E+02 -0.18462513258E+02 -0.41677317060E+02  0.48036334908E+02  0.00000000000E+00 0. -1.
         13    1    4    4    0    0  0.12874273429E+03 -0.26082741689E+02 -0.26128179027E+03  0.29244345603E+03  0.00000000000E+00 0.  1.
         -1    1    1    2    0  502 -0.59833193795E+02 -0.43928181498E+02 -0.12067470519E+03  0.14167597073E+03  0.00000000000E+00 0.  1.
<scales pt_clust_5="13000.00000" pt_clust_6="13000.00000" pt_clust_7="13000.00000" pt_clust_8="13000.00000" pt_clust_9="74.22737"></scales>
<clustering>
<clus scale="   74.227">  2  9  1 -1</clus>
<clus scale="   82.956">  5  6 -1 -1</clus>
<clus scale="   96.205">  7  8 -1 -1</clus>
<clus scale="  134.798">  1  5  2 -1</clus>
<clus scale="   74.227">  2  5  1 -1</clus>
</clustering>
</event>
<event>
 9    1  0.5981539E-005  0.9967745E+02  0.7546771E-02  0.1287580E+00
         21   -1    0    0  501  502  0.00000000000E+00  0.00000000000E+00  0.11601686922E+03  0.11601686922E+03  0.00000000000E+00 0.  1.
          1   -1    0    0  502    0 -0.00000000000E+00 -0.00000000000E+00 -0.27517421432E+03  0.27517421432E+03  0.00000000000E+00 0. -1.
         23    2    1    2    0    0 -0.24582518746E+02  0.14364017654E+02 -0.11282289855E+03  0.14865100454E+03  0.92506699665E+02 0.  0.
        -24    2    1    2    0    0  0.90748284686E+02  0.20822901035E+02  0.39298820411E+02  0.12874603593E+03  0.79764027614E+02 0.  0.
         11    1    4    4    0    0  0.13943350614E+02  0.16515702802E+02 -0.21656846775E+02  0.30597458679E+02  0.00000000000E+00 0. -1.
        -12    1    4    4    0    0  0.76804934072E+02  0.43071982329E+01  0.60955667186E+02  0.98148577252E+02  0.00000000000E+00 0.  1.
        -11    1    3    3    0    0 -0.57275953334E+02  0.43299658514E+01 -0.46012050439E+02  0.73596142699E+02  0.00000000000E+00 0.  1.
         11    1    3    3    0    0  0.32693434588E+02  0.10034051802E+02 -0.66810848115E+02  0.75054861845E+02  0.00000000000E+00 0. -1.
          2    1    1    2  501    0 -0.66165765940E+02 -0.35186918688E+02 -0.85633266955E+02  0.11379404307E+03  0.00000000000E+00 0. -1.
<scales pt_clust_5="13000.00000" pt_clust_6="13000.00000" pt_clust_7="13000.00000" pt_clust_8="13000.00000" pt_clust_9="74.94020"></scales>
<clustering>
<clus scale="   74.940">  1  9  2 -1</clus>
<clus scale="   79.764">  5  6 -1 -1</clus>
<clus scale="   87.980">  1  5  2 -1</clus>
<clus scale="   92.507">  7  8 -1 -1</clus>
<clus scale="   74.940">  1  5  2 -1</clus>
</clustering>
</event>
<event>
 9    1  0.5981539E-005  0.2286609E+03  0.7546771E-02  0.1163210E+00
         21   -1    0    0  501  502  0.00000000000E+00  0.00000000000E+00  0.57394644212E+03  0.57394644212E+03  0.00000000000E+00 0.  1.
          1   -1    0    0  502    0 -0.00000000000E+00 -0.00000000000E+00 -0.16394236029E+03  0.16394236029E+03  0.00000000000E+00 0. -1.
        -24    2    1    2    0    0 -0.66110699924E+01 -0.52867460596E+02  0.17279657194E+03  0.19846058159E+03  0.81787973040E+02 0.  0.
         23    2    1    2    0    0 -0.21151374134E+02  0.22501253861E+03  0.26822697035E+03  0.36232122459E+03  0.90845687861E+02 0.  0.
         11    1    3    3    0    0 -0.40559996541E+02 -0.14318117430E+02  0.10447530338E+03  0.11298323249E+03  0.00000000000E+00 0. -1.
        -12    1    3    3    0    0  0.33948926549E+02 -0.38549343166E+02  0.68321268560E+02  0.85477349105E+02  0.00000000000E+00 0.  1.
        -13    1    4    4    0    0 -0.38900674487E+02  0.19665472266E+03  0.18565319856E+03  0.27322784001E+03  0.00000000000E+00 0.  1.
         13    1    4    4    0    0  0.17749300353E+02  0.28357815956E+02  0.82573771786E+02  0.89093384579E+02  0.00000000000E+00 0. -1.
          2    1    1    2  501    0  0.27762444127E+02 -0.17214507802E+03 -0.31019460462E+02  0.17710699624E+03  0.00000000000E+00 0. -1.
<scales pt_clust_5="13000.00000" pt_clust_6="13000.00000" pt_clust_7="13000.00000" pt_clust_8="13000.00000" pt_clust_9="209.84026"></scales>
<clustering>
<clus scale="   81.788">  5  6 -1 -1</clus>
<clus scale="   90.846">  7  8 -1 -1</clus>
<clus scale="   97.611">  2  5  1 -1</clus>
<clus scale="  209.840">  1  9  2 -1</clus>
<clus scale="  209.840">  1  5  2 -1</clus>
</clustering>
</event>
<event>
 9    1  0.5981539E-005  0.1387226E+03  0.7546771E-02  0.1217357E+00
          1   -1    0    0  502    0 -0.00000000000E+00  0.00000000000E+00  0.26159612712E+03  0.26159612712E+03  0.00000000000E+00 0. -1.
         21   -1    0    0  501  502  0.00000000000E+00 -0.00000000000E+00 -0.20393589506E+03  0.20393589506E+03  0.00000000000E+00 0.  1.
         23    2    1    2    0    0 -0.11084190593E+03  0.15852328421E+01  0.17587104776E+03  0.22687392681E+03  0.90844439322E+02 0.  0.
        -24    2    1    2    0    0  0.89417081960E+02 -0.17288236330E+02 -0.41920398448E+01  0.12158594390E+03  0.80444209825E+02 0.  0.
         11    1    4    4    0    0  0.63330048214E+02  0.23862416190E+02  0.14828714855E+02  0.69282037336E+02  0.00000000000E+00 0. -1.
        -12    1    4    4    0    0  0.26087033746E+02 -0.41150652520E+02 -0.19020754700E+02  0.52303906564E+02  0.00000000000E+00 0.  1.
        -11    1    3    3    0    0 -0.87452796012E+02  0.16590209842E+02  0.59109322656E+02  0.10685101131E+03  0.00000000000E+00 0.  1.
         11    1    3    3    0    0 -0.23389109915E+02 -0.15004977000E+02  0.11676172510E+03  0.12002291551E+03  0.00000000000E+00 0. -1.
          2    1    1    2  501    0  0.21424823967E+02  0.15703003488E+02 -0.11401877585E+03  0.11707215146E+03  0.00000000000E+00 0. -1.
<scales pt_clust_5="13000.00000" pt_clust_6="13000.00000" pt_clust_7="13000.00000" pt_clust_8="13000.00000" pt_clust_9="26.56327"></scales>
<clustering>
<clus scale="   26.563">  2  9  1 -1</clus>
<clus scale="   80.444">  5  6 -1 -1</clus>
<clus scale="   90.844">  7  8 -1 -1</clus>
<clus scale="  132.146">  2  5  1 -1</clus>
<clus scale="   26.563">  2  5  1 -1</clus>
</clustering>
</event>
<event>
 9    1  0.5981539E-005  0.1865790E+03  0.7546771E-02  0.1162870E+00
         21   -1    0    0  501  502  0.00000000000E+00  0.00000000000E+00  0.35091898949E+03  0.35091898949E+03  0.00000000000E+00 0.  1.
          3   -1    0    0  502    0 -0.00000000000E+00 -0.00000000000E+00 -0.16885176243E+03  0.16885176243E+03  0.00000000000E+00 0. -1.
        -24    2    1    2    0    0 -0.11398557155E+03 -0.12355441692E+03 -0.69005737582E+02  0.19804680323E+03  0.78754936266E+02 0.  0.
         23    2    1    2    0    0  0.10796733241E+03  0.94890154190E+02  0.22839809830E+03  0.28468331257E+03  0.90652142395E+02 0.  0.
         11    1    3    3    0    0 -0.11074486724E+03 -0.12538827231E+03 -0.44294743365E+02  0.17305683674E+03  0.00000000000E+00 0. -1.
        -12    1    3    3    0    0 -0.32407043143E+01  0.18338553839E+01 -0.24710994216E+02  0.24989966490E+02  0.00000000000E+00 0.  1.
        -11    1    4    4    0    0  0.11741938890E+03  0.73089698628E+02  0.21923396868E+03  0.25921602952E+03  0.00000000000E+00 0.  1.
         11    1    4    4    0    0 -0.94520564866E+01  0.21800455562E+02  0.91641296134E+01  0.25467283053E+02  0.00000000000E+00 0. -1.
          4    1    1    2  501    0  0.60182391430E+01  0.28664262735E+02  0.22674866340E+02  0.37040636119E+02  0.00000000000E+00 0. -1.
<scales pt_clust_5="13000.00000" pt_clust_6="13000.00000" pt_clust_7="13000.00000" pt_clust_8="13000.00000" pt_clust_9="29.28923"></scales>
<clustering>
<clus scale="   29.289">  1  9  2 -1</clus>
<clus scale="   78.755">  5  6 -1 -1</clus>
<clus scale="   90.652">  7  8 -1 -1</clus>
<clus scale="  181.097">  2  5  1 -1</clus>
<clus scale="   29.289">  1  5  2 -1</clus>
</clustering>
</event>
<event>
 9    1  0.5981539E-005  0.4337493E+03  0.7546771E-02  0.1032860E+00
         21   -1    0    0  501  502  0.00000000000E+00  0.00000000000E+00  0.33342124078E+03  0.33342124078E+03  0.00000000000E+00 0. -1.
          1   -1    0    0  502    0 -0.00000000000E+00 -0.00000000000E+00 -0.20728372798E+04  0.20728372798E+04  0.00000000000E+00 0. -1.
         23    2    1    2    0    0 -0.12949588297E+03  0.40822934924E+03 -0.18396458558E+04  0.18910387562E+04  0.91160941578E+02 0.  0.
        -24    2    1    2    0    0  0.11671289406E+03 -0.37421349936E+03 -0.89971805335E+01  0.40010669040E+03  0.79666628517E+02 0.  0.
         11    1    4    4    0    0  0.23866132738E+02 -0.13975165585E+02 -0.48112344801E+01  0.28072148514E+02  0.00000000000E+00 0. -1.
        -12    1    4    4    0    0  0.92846761322E+02 -0.36023833378E+03 -0.41859460534E+01  0.37203454188E+03  0.00000000000E+00 0.  1.
        -11    1    3    3    0    0 -0.97247080955E+02  0.20288472708E+03 -0.81270312676E+03  0.84327076285E+03  0.00000000000E+00 0.  1.
         11    1    3    3    0    0 -0.32248802013E+02  0.20534462216E+03 -0.10269427291E+04  0.10477679934E+04  0.00000000000E+00 0. -1.
          2    1    1    2  501    0  0.12782988909E+02 -0.34015849881E+02  0.10922699735E+03  0.11511307397E+03  0.00000000000E+00 0. -1.
<scales pt_clust_5="13000.00000" pt_clust_6="13000.00000" pt_clust_7="13000.00000" pt_clust_8="13000.00000" pt_clust_9="36.33845"></scales>
<clustering>
<clus scale="   36.338">  1  9  2 -1</clus>
<clus scale="   79.667">  5  6 -1 -1</clus>
<clus scale="   91.161">  7  8 -1 -1</clus>
<clus scale="  431.480">  1  5  2 -1</clus>
<clus scale="   36.338">  1  5  2 -1</clus>
</clustering>
</event>
<event>
 9    1  0.5981539E-005  0.1357773E+03  0.7546771E-02  0.1234382E+00
          1   -1    0    0  502    0 -0.00000000000E+00  0.00000000000E+00  0.95674475017E+03  0.95674475017E+03  0.00000000000E+00 0. -1.
         21   -1    0    0  501  502  0.00000000000E+00 -0.00000000000E+00 -0.47465400278E+02  0.47465400278E+02  0.00000000000E+00 0.  1.
         23    2    1    2    0    0  0.29733317539E+02 -0.15998040466E+01  0.87883014976E+02  0.13231895116E+03  0.94330541026E+02 0.  0.
        -24    2    1    2    0    0  0.76812428901E+02  0.44629756496E+02  0.67638179072E+03  0.68687014394E+03  0.80039386704E+02 0.  0.
         13    1    4    4    0    0  0.59184435358E+02  0.56712118464E+02  0.33736316756E+03  0.34717858314E+03  0.00000000000E+00 0. -1.
        -14    1    4    4    0    0  0.17627993543E+02 -0.12082361968E+02  0.33901862316E+03  0.33969156080E+03  0.00000000000E+00 0.  1.
        -13    1    3    3    0    0  0.63913885029E+02 -0.62550401777E+01  0.61160514647E+02  0.88683249709E+02  0.00000000000E+00 0.  1.
         13    1    3    3    0    0 -0.34180567490E+02  0.46552361310E+01  0.26722500329E+02  0.43635701452E+02  0.00000000000E+00 0. -1.
          2    1    1    2  501    0 -0.10654574644E+03 -0.43029952450E+02  0.14501454420E+03  0.18502105534E+03  0.00000000000E+00 0. -1.
<scales pt_clust_5="13000.00000" pt_clust_6="13000.00000" pt_clust_7="13000.00000" pt_clust_8="13000.00000" pt_clust_9="109.67756"></scales>
<clustering>
<clus scale="   80.039">  5  6 -1 -1</clus>
<clus scale="   94.331">  7  8 -1 -1</clus>
<clus scale="   98.919">  1  7  2 -1</clus>
<clus scale="  109.678">  2  9  1 -1</clus>
<clus scale="  109.678">  2  5  1 -1</clus>
</clustering>
</event>
<event>
 9    1  0.5981539E-005  0.1087839E+03  0.7546771E-02  0.1266691E+00
          1   -1    0    0  502    0 -0.00000000000E+00  0.00000000000E+00  0.31738137403E+03  0.31738137403E+03  0.00000000000E+00 0. -1.
         21   -1    0    0  501  502  0.00000000000E+00 -0.00000000000E+00 -0.25536759761E+03  0.25536759761E+03  0.00000000000E+00 0. -1.
         23    2    1    2    0    0  0.34947193158E+02  0.71809595856E+02  0.22842341308E+03  0.25803986442E+03  0.89606872611E+02 0.  0.
        -24    2    1    2    0    0 -0.35179041419E+02 -0.11389273200E+02  0.42144746927E+02  0.97578731513E+02  0.79863312296E+02 0.  0.
         11    1    4    4    0    0 -0.20040648978E+02  0.22726459352E+02  0.50905272099E+02  0.59240748591E+02  0.00000000000E+00 0. -1.
        -12    1    4    4    0    0 -0.15138392441E+02 -0.34115732552E+02 -0.87605251717E+01  0.38337982922E+02  0.00000000000E+00 0.  1.
        -13    1    3    3    0    0  0.51848604941E+02  0.42841415589E+02  0.73923698720E+02  0.99941872889E+02  0.00000000000E+00 0.  1.
         13    1    3    3    0    0 -0.16901411783E+02  0.28968180267E+02  0.15449971436E+03  0.15809799153E+03  0.00000000000E+00 0. -1.
          2    1    1    2  501    0  0.23184826126E+00 -0.60420322656E+02 -0.20855438359E+03  0.21713037571E+03  0.00000000000E+00 0. -1.
<scales pt_clust_5="13000.00000" pt_clust_6="13000.00000" pt_clust_7="13000.00000" pt_clust_8="13000.00000" pt_clust_9="60.42077"></scales>
<clustering>
<clus scale="   60.421">  2  9  1 -1</clus>
<clus scale="   79.863">  5  6 -1 -1</clus>
<clus scale="   89.607">  7  8 -1 -1</clus>
<clus scale="  100.909">  2  5  1 -1</clus>
<clus scale="   60.421">  2  5  1 -1</clus>
</clustering>
</event>
<event>
 9    1  0.5981539E-005  0.2733158E+03  0.7546771E-02  0.1099397E+00
          1   -1    0    0  502    0 -0.00000000000E+00  0.00000000000E+00  0.64523053394E+03  0.64523053394E+03  0.00000000000E+00 0. -1.
         21   -1    0    0  501  502  0.00000000000E+00 -0.00000000000E+00 -0.89075819802E+02  0.89075819802E+02  0.00000000000E+00 0. -1.
        -24    2    1    2    0    0  0.41314675377E+02 -0.57862373233E+02  0.89872205675E+02  0.14139327472E+03  0.82825649079E+02 0.  0.
         23    2    1    2    0    0  0.68310885175E+02 -0.10915835956E+03  0.17130982677E+03  0.23665113654E+03  0.10037319954E+03 0.  0.
         13    1    3    3    0    0 -0.17639280467E+02 -0.35037836439E+02  0.11858322268E+02  0.40980654030E+02  0.00000000000E+00 0. -1.
        -14    1    3    3    0    0  0.58953955843E+02 -0.22824536794E+02  0.78013883407E+02  0.10041262069E+03  0.00000000000E+00 0.  1.
        -11    1    4    4    0    0  0.14243676942E+02 -0.84613616415E+02  0.44565104578E+02  0.96687098217E+02  0.00000000000E+00 0.  1.
         11    1    4    4    0    0  0.54067208234E+02 -0.24544743150E+02  0.12674472219E+03  0.13996403833E+03  0.00000000000E+00 0. -1.
          2    1    1    2  501    0 -0.10962556055E+03  0.16702073280E+03  0.29497268170E+03  0.35626194248E+03  0.00000000000E+00 0. -1.
<scales pt_clust_5="13000.00000" pt_clust_6="13000.00000" pt_clust_7="13000.00000" pt_clust_8="13000.00000" pt_clust_9="199.78421"></scales>
<clustering>
<clus scale="   82.826">  5  6 -1 -1</clus>
<clus scale="  100.373">  7  8 -1 -1</clus>
<clus scale="  102.278">  5  7 -1 -1</clus>
<clus scale="  199.784">  2  9  1 -1</clus>
<clus scale="  199.784">  2  5  1 -1</clus>
</clustering>
</event>
<event>
 9    1  0.5981539E-005  0.9481283E+02  0.7546771E-02  0.1295875E+00
         21   -1    0    0  501  502  0.00000000000E+00  0.00000000000E+00  0.32619620025E+02  0.32619620025E+02  0.00000000000E+00 0.  1.
          1   -1    0    0  502    0 -0.00000000000E+00 -0.00000000000E+00 -0.39742770170E+03  0.39742770170E+03  0.00000000000E+00 0. -1.
         23    2    1    2    0    0 -0.42134552647E+01  0.34656584575E+02 -0.21993295029E+03  0.23992998346E+03  0.89314401292E+02 0.  0.
        -24    2    1    2    0    0  0.26921572046E+02 -0.19363767014E+02 -0.77157826200E+02  0.11707514322E+03  0.81569188429E+02 0.  0.
         13    1    4    4    0    0 -0.13278656754E+02 -0.35967088547E+02 -0.58051382317E+02  0.69569513241E+02  0.00000000000E+00 0. -1.
        -14    1    4    4    0    0  0.40200228800E+02  0.16603321533E+02 -0.19106443883E+02  0.47505629975E+02  0.00000000000E+00 0.  1.
        -11    1    3    3    0    0  0.27927020548E+02  0.21039458396E+02 -0.19218178073E+03  0.19533666868E+03  0.00000000000E+00 0. -1.
         11    1    3    3    0    0 -0.32140475813E+02  0.13617126179E+02 -0.27751169562E+02  0.44593314778E+02  0.00000000000E+00 0.  1.
          2    1    1    2  501    0 -0.22708116781E+02 -0.15292817561E+02 -0.67717305189E+02  0.73042195057E+02  0.00000000000E+00 0. -1.
<scales pt_clust_5="13000.00000" pt_clust_6="13000.00000" pt_clust_7="13000.00000" pt_clust_8="13000.00000" pt_clust_9="27.37754"></scales>
<clustering>
<clus scale="   27.378">  1  9  2 -1</clus>
<clus scale="   81.569">  5  6 -1 -1</clus>
<clus scale="   87.555">  1  5  2 -1</clus>
<clus scale="   89.314">  7  8 -1 -1</clus>
<clus scale="   27.378">  1  5  2 -1</clus>
</clustering>
</event>
<event>
 9    1  0.5981539E-005  0.9671948E+02  0.7546771E-02  0.1291163E+00
         -2   -1    0    0    0  501 -0.00000000000E+00  0.00000000000E+00  0.39496449794E+03  0.39496449794E+03  0.00000000000E+00 0.  1.
         21   -1    0    0  501  502  0.00000000000E+00 -0.00000000000E+00 -0.53383475562E+02  0.53383475562E+02  0.00000000000E+00 0. -1.
        -24    2    1    2    0    0  0.14530699819E+02 -0.43022609831E+02  0.15935447223E+03  0.18427445951E+03  0.80629662118E+02 0.  0.
         23    2    1    2    0    0 -0.37242190997E+02  0.90130070642E+01  0.21702673551E+02  0.98422133471E+02  0.88020993127E+02 0.  0.
         13    1    3    3    0    0 -0.27837657414E+02 -0.36179343413E+01  0.88226632364E+02  0.92584897675E+02  0.00000000000E+00 0. -1.
        -14    1    3    3    0    0  0.42368357233E+02 -0.39404675489E+02  0.71127839865E+02  0.91689561832E+02  0.00000000000E+00 0.  1.
        -13    1    4    4    0    0 -0.57343842154E+02  0.70314530960E+01  0.40718292859E+02  0.70680527297E+02  0.00000000000E+00 0.  1.
         13    1    4    4    0    0  0.20101651157E+02  0.19815539682E+01 -0.19015619309E+02  0.27741606173E+02  0.00000000000E+00 0. -1.
         -1    1    1    2    0  502  0.22711491178E+02  0.34009602767E+02  0.16052387659E+03  0.16565138052E+03  0.00000000000E+00 0.  1.
<scales pt_clust_5="13000.00000" pt_clust_6="13000.00000" pt_clust_7="13000.00000" pt_clust_8="13000.00000" pt_clust_9="40.89580"></scales>
<clustering>
<clus scale="   40.896">  2  9  1 -1</clus>
<clus scale="   80.630">  5  6 -1 -1</clus>
<clus scale="   88.021">  7  8 -1 -1</clus>
<clus scale="   90.045">  1  5  2 -1</clus>
<clus scale="   40.896">  2  5  1 -1</clus>
</clustering>
</event>
<event>
 9    1  0.5981539E-005  0.1565747E+03  0.7546771E-02  0.1194256E+00
         -4   -1    0    0    0  501 -0.00000000000E+00  0.00000000000E+00  0.72179143219E+03  0.72179143219E+03  0.00000000000E+00 0.  1.
         21   -1    0    0  501  502  0.00000000000E+00 -0.00000000000E+00 -0.43155634460E+02  0.43155634460E+02  0.00000000000E+00 0.  1.
        -24    2    1    2    0    0 -0.64223957251E+02  0.11466403305E+03  0.36278125740E+03  0.39421900355E+03  0.80782577844E+02 0.  0.
         23    2    1    2    0    0  0.32693326711E+02 -0.11948316844E+03  0.20976903098E+03  0.25995107982E+03  0.90699704479E+02 0.  0.
         11    1    3    3    0    0 -0.26717870335E+02  0.56371880892E+01  0.23995267017E+02  0.36351001692E+02  0.00000000000E+00 0. -1.
        -12    1    3    3    0    0 -0.37506086916E+02  0.10902684496E+03  0.33878599038E+03  0.35786800186E+03  0.00000000000E+00 0.  1.
        -11    1    4    4    0    0  0.56580229178E+02 -0.63567880893E+02  0.80716025310E+02  0.11729140871E+03  0.00000000000E+00 0.  1.
         11    1    4    4    0    0 -0.23886902466E+02 -0.55915287544E+02  0.12905300567E+03  0.14265967111E+03  0.00000000000E+00 0. -1.
         -3    1    1    2    0  502  0.31530630540E+02  0.48191353847E+01  0.10608550935E+03  0.11077698327E+03  0.00000000000E+00 0.  1.
<scales pt_clust_5="13000.00000" pt_clust_6="13000.00000" pt_clust_7="13000.00000" pt_clust_8="13000.00000" pt_clust_9="31.89680"></scales>
<clustering>
<clus scale="   31.897">  2  9  1 -1</clus>
<clus scale="   80.783">  5  6 -1 -1</clus>
<clus scale="   90.700">  7  8 -1 -1</clus>
<clus scale="  151.046">  1  5  2 -1</clus>
<clus scale="   31.897">  2  5  1 -1</clus>
</clustering>
</event>
<event>
 9    1  0.5981539E-005  0.1122993E+03  0.7546771E-02  0.1256800E+00
          1   -1    0    0  502    0 -0.00000000000E+00  0.00000000000E+00  0.70492358760E+02  0.70492358760E+02  0.00000000000E+00 0. -1.
         21   -1    0    0  501  502  0.00000000000E+00 -0.00000000000E+00 -0.43958789186E+03  0.43958789186E+03  0.00000000000E+00 0. -1.
        -24    2    1    2    0    0  0.68691298144E+02  0.10324185450E+02 -0.15701353852E+03  0.18988620618E+03  0.81107562969E+02 0.  0.
         23    2    1    2    0    0 -0.87537175006E+02  0.59313027602E+01 -0.24848047608E+03  0.27610030989E+03  0.82406897589E+02 0.  0.
         13    1    3    3    0    0  0.69842869332E+02  0.28701974899E+02 -0.15360201113E+03  0.17115901257E+03  0.00000000000E+00 0. -1.
        -14    1    3    3    0    0 -0.11515711877E+01 -0.18377789449E+02 -0.34115273875E+01  0.18727193605E+02  0.00000000000E+00 0.  1.
        -11    1    4    4    0    0 -0.95189753479E+02 -0.13187614517E+02 -0.17342188679E+03  0.19826788233E+03  0.00000000000E+00 0. -1.
         11    1    4    4    0    0  0.76525784729E+01  0.19118917277E+02 -0.75058589284E+02  0.77832427564E+02  0.00000000000E+00 0.  1.
          2    1    1    2  501    0  0.18845876862E+02 -0.16255488211E+02  0.36398481497E+02  0.44093734555E+02  0.00000000000E+00 0. -1.
<scales pt_clust_5="13000.00000" pt_clust_6="13000.00000" pt_clust_7="13000.00000" pt_clust_8="13000.00000" pt_clust_9="24.88792"></scales>
<clustering>
<clus scale="   24.888">  2  9  1 -1</clus>
<clus scale="   81.108">  5  6 -1 -1</clus>
<clus scale="   82.407">  7  8 -1 -1</clus>
<clus scale="  111.349">  1  5  2 -1</clus>
<clus scale="   24.888">  2  5  1 -1</clus>
</clustering>
</event>
<event>
 9    1  0.5981539E-005  0.1257947E+03  0.7546771E-02  0.1236533E+00
         21   -1    0    0  501  502  0.00000000000E+00  0.00000000000E+00  0.76405382159E+02  0.76405382159E+02  0.00000000000E+00 0.  1.
         -2   -1    0    0    0  501 -0.00000000000E+00 -0.00000000000E+00 -0.45854124744E+03  0.45854124744E+03  0.00000000000E+00 0.  1.
         23    2    1    2    0    0 -0.22578538205E+02 -0.10809328173E+03 -0.33795617194E+03  0.36679023572E+03  0.90148515938E+02 0.  0.
        -24    2    1    2    0    0  0.60872538041E+01  0.40948400658E+02 -0.39926388329E+02  0.98885273501E+02  0.80438514749E+02 0.  0.
         13    1    4    4    0    0 -0.35671865557E+02  0.30103061892E+02 -0.14844762995E+02  0.48980029767E+02  0.00000000000E+00 0. -1.
        -14    1    4    4    0    0  0.41759119361E+02  0.10845338766E+02 -0.25081625335E+02  0.49905243734E+02  0.00000000000E+00 0.  1.
        -11    1    3    3    0    0  0.70681959482E+01 -0.11079297377E+03 -0.28772522206E+03  0.30840046342E+03  0.00000000000E+00 0.  1.
         11    1    3    3    0    0 -0.29646734154E+02  0.26996920415E+01 -0.50230949881E+02  0.58389772298E+02  0.00000000000E+00 0. -1.
         -1    1    1    2    0  502  0.16491284401E+02  0.67144881069E+02 -0.42533050138E+01  0.69271120379E+02  0.00000000000E+00 0.  1.
<scales pt_clust_5="13000.00000" pt_clust_6="13000.00000" pt_clust_7="13000.00000" pt_clust_8="13000.00000" pt_clust_9="69.14042"></scales>
<clustering>
<clus scale="   69.140">  1  9  2 -1</clus>
<clus scale="   80.439">  5  6 -1 -1</clus>
<clus scale="   90.149">  7  8 -1 -1</clus>
<clus scale="  119.029">  1  5  2 -1</clus>
<clus scale="   69.140">  1  5  2 -1</clus>
</clustering>
</event>
<event>
 9    1  0.5981539E-005  0.1413417E+03  0.7546771E-02  0.1214558E+00
         -2   -1    0    0    0  501 -0.00000000000E+00  0.00000000000E+00  0.20438568047E+04  0.20438568047E+04  0.00000000000E+00 0.  1.
         21   -1    0    0  501  502  0.00000000000E+00 -0.00000000000E+00 -0.15771838707E+02  0.15771838707E+02  0.00000000000E+00 0.  1.
         23    2    1    2    0    0  0.84559910881E+02  0.11977853242E+02  0.61683854912E+03  0.62942550533E+03  0.91612354987E+02 0.  0.
        -24    2    1    2    0    0 -0.11320367809E+03 -0.78968853554E+02  0.90232302365E+03  0.91609101052E+03  0.77361152998E+02 0.  0.
         11    1    4    4    0    0 -0.25524871698E+01 -0.39318130600E+02  0.17949857931E+03  0.18377206142E+03  0.00000000000E+00 0. -1.
        -12    1    4    4    0    0 -0.11065119092E+03 -0.39650722953E+02  0.72282444434E+03  0.73231894911E+03  0.00000000000E+00 0.  1.
        -11    1    3    3    0    0  0.52940910901E+01  0.39294221180E+02  0.15197937350E+03  0.15706620638E+03  0.00000000000E+00 0. -1.
         11    1    3    3    0    0  0.79265819791E+02 -0.27316367938E+02  0.46485917562E+03  0.47235929895E+03  0.00000000000E+00 0.  1.
         -1    1    1    2    0  502  0.28643767209E+02  0.66991000312E+02  0.50892339327E+03  0.51411212759E+03  0.00000000000E+00 0.  1.
<scales pt_clust_5="13000.00000" pt_clust_6="13000.00000" pt_clust_7="13000.00000" pt_clust_8="13000.00000" pt_clust_9="72.85784"></scales>
<clustering>
<clus scale="   72.858">  2  9  1 -1</clus>
<clus scale="   77.361">  5  6 -1 -1</clus>
<clus scale="   91.612">  7  8 -1 -1</clus>
<clus scale="  132.550">  2  5  1 -1</clus>
<clus scale="   72.858">  2  5  1 -1</clus>
</clustering>
</event>
<event>
 9    1  0.5981539E-005  0.8383808E+02  0.7546771E-02  0.1320810E+00
         21   -1    0    0  501  502  0.00000000000E+00  0.00000000000E+00  0.18346971327E+03  0.18346971327E+03  0.00000000000E+00 0. -1.
          1   -1    0    0  502    0 -0.00000000000E+00 -0.00000000000E+00 -0.72370110670E+02  0.72370110670E+02  0.00000000000E+00 0. -1.
         23    2    1    2    0    0  0.44976568594E+01 -0.11459911220E+02 -0.12643928452E+02  0.85604325002E+02  0.83765583923E+02 0.  0.
        -24    2    1    2    0    0  0.63633914792E+01 -0.20407477284E+02  0.85254227654E+02  0.11909921733E+03  0.80370282781E+02 0.  0.
         13    1    4    4    0    0  0.37577633513E+02 -0.22623438792E+02  0.73654592508E+02  0.85725710967E+02  0.00000000000E+00 0. -1.
        -14    1    4    4    0    0 -0.31214242034E+02  0.22159615076E+01  0.11599635146E+02  0.33373506359E+02  0.00000000000E+00 0.  1.
        -13    1    3    3    0    0  0.20809516134E+01 -0.41914529957E+02  0.14837911576E+02  0.44512041079E+02  0.00000000000E+00 0.  1.
         13    1    3    3    0    0  0.24167052460E+01  0.30454618737E+02 -0.27481840028E+02  0.41092283923E+02  0.00000000000E+00 0. -1.
          2    1    1    2  501    0 -0.10861048339E+02  0.31867388504E+02  0.38489303393E+02  0.51136281608E+02  0.00000000000E+00 0. -1.
<scales pt_clust_5="13000.00000" pt_clust_6="13000.00000" pt_clust_7="13000.00000" pt_clust_8="13000.00000" pt_clust_9="33.66739"></scales>
<clustering>
<clus scale="   33.667">  1  9  2 -1</clus>
<clus scale="   80.370">  5  6 -1 -1</clus>
<clus scale="   80.446">  1  5  2 -1</clus>
<clus scale="   83.766">  7  8 -1 -1</clus>
<clus scale="   33.667">  1  5  2 -1</clus>
</clustering>
</event>
<event>
 9    1  0.5981539E-005  0.9753365E+02  0.7546771E-02  0.1290153E+00
         21   -1    0    0  501  502  0.00000000000E+00  0.00000000000E+00  0.28437410783E+02  0.28437410783E+02  0.00000000000E+00 0. -1.
          1   -1    0    0  502    0 -0.00000000000E+00 -0.00000000000E+00 -0.77312998210E+03  0.77312998210E+03  0.00000000000E+00 0. -1.
         23    2    1    2    0    0  0.51828731012E+02  0.43700552842E+02 -0.40327124217E+03  0.41875655893E+03  0.90185393546E+02 0.  0.
        -24    2    1    2    0    0  0.30689864299E+01  0.19593587407E+02 -0.12261897957E+03  0.14851534584E+03  0.81412937875E+02 0.  0.
         11    1    4    4    0    0 -0.19058308868E+02 -0.13456053009E+02 -0.43424529150E+01  0.23730600430E+02  0.00000000000E+00 0. -1.
        -12    1    4    4    0    0  0.22127295298E+02  0.33049640416E+02 -0.11827652666E+03  0.12478474541E+03  0.00000000000E+00 0.  1.
        -13    1    3    3    0    0  0.32517543107E+02  0.68997882220E+02 -0.22265785235E+03  0.23536061177E+03  0.00000000000E+00 0.  1.
         13    1    3    3    0    0  0.19311187905E+02 -0.25297329378E+02 -0.18061338982E+03  0.18339594716E+03  0.00000000000E+00 0. -1.
          2    1    1    2  501    0 -0.54897717442E+02 -0.63294140249E+02 -0.21880234957E+03  0.23429548811E+03  0.00000000000E+00 0. -1.
<scales pt_clust_5="13000.00000" pt_clust_6="13000.00000" pt_clust_7="13000.00000" pt_clust_8="13000.00000" pt_clust_9="83.78493"></scales>
<clustering>
<clus scale="   81.413">  5  6 -1 -1</clus>
<clus scale="   83.785">  1  9  2 -1</clus>
<clus scale="   89.484">  1  5  2 -1</clus>
<clus scale="   90.185">  7  8 -1 -1</clus>
<clus scale="   83.785">  1  5  2 -1</clus>
</clustering>
</event>
<event>
 9    1  0.5981539E-005  0.1944346E+03  0.7546771E-02  0.1178364E+00
         21   -1    0    0  501  502  0.00000000000E+00  0.00000000000E+00  0.62592722684E+03  0.62592722684E+03  0.00000000000E+00 0. -1.
          1   -1    0    0  502    0 -0.00000000000E+00 -0.00000000000E+00 -0.31261469444E+03  0.31261469444E+03  0.00000000000E+00 0. -1.
         23    2    1    2    0    0  0.22344748714E+01 -0.65706109152E+02 -0.23022564885E+03  0.25615927315E+03  0.91057334535E+02 0.  0.
        -24    2    1    2    0    0 -0.16725535657E+03 -0.15791169565E+02  0.12198915369E+03  0.22240734394E+03  0.79749342856E+02 0.  0.
         13    1    4    4    0    0 -0.14913132686E+03 -0.94254842305E+01  0.66260420452E+02  0.16346080791E+03  0.00000000000E+00 0. -1.
        -14    1    4    4    0    0 -0.18124029711E+02 -0.63656853341E+01  0.55728733237E+02  0.58946536039E+02  0.00000000000E+00 0.  1.
        -11    1    3    3    0    0  0.30212889246E+02 -0.20176031602E+02 -0.17716553911E+03  0.18085220257E+03  0.00000000000E+00 0. -1.
         11    1    3    3    0    0 -0.27978414375E+02 -0.45530077549E+02 -0.53060109741E+02  0.75307070573E+02  0.00000000000E+00 0.  1.
          2    1    1    2  501    0  0.16502088170E+03  0.81497278716E+02  0.42154902756E+03  0.45997530420E+03  0.00000000000E+00 0. -1.
<scales pt_clust_5="13000.00000" pt_clust_6="13000.00000" pt_clust_7="13000.00000" pt_clust_8="13000.00000" pt_clust_9="177.32699"></scales>
<clustering>
<clus scale="   79.749">  5  6 -1 -1</clus>
<clus scale="   91.057">  7  8 -1 -1</clus>
<clus scale="  112.311">  2  7  1 -1</clus>
<clus scale="  177.327">  1  9  2 -1</clus>
<clus scale="  177.327">  1  5  2 -1</clus>
</clustering>
</event>
<event>
 9    1  0.5981539E-005  0.1718379E+03  0.7546771E-02  0.1206025E+00
         21   -1    0    0  501  502  0.00000000000E+00  0.00000000000E+00  0.16926376003E+03  0.16926376003E+03  0.00000000000E+00 0. -1.
          1   -1    0    0  502    0 -0.00000000000E+00 -0.00000000000E+00 -0.45807289972E+03  0.45807289972E+03  0.00000000000E+00 0. -1.
         23    2    1    2    0    0 -0.24249439542E+02  0.24080319652E+02 -0.47881214367E+02  0.10061913300E+03  0.81631502035E+02 0.  0.
        -24    2    1    2    0    0 -0.13072396588E+03 -0.51842146760E+02 -0.31487764461E+03  0.35277490284E+03  0.74335977571E+02 0.  0.
         11    1    4    4    0    0 -0.66391367395E+02 -0.87406846868E+01 -0.22184609745E+03  0.23173239779E+03  0.00000000000E+00 0. -1.
        -12    1    4    4    0    0 -0.64332598482E+02 -0.43101462073E+02 -0.93031547162E+02  0.12104250505E+03  0.00000000000E+00 0.  1.
        -13    1    3    3    0    0 -0.46387670608E+02  0.33726769005E+02 -0.50385002186E+02  0.76341072675E+02  0.00000000000E+00 0. -1.
         13    1    3    3    0    0  0.22138231066E+02 -0.96464493522E+01  0.25037878189E+01  0.24278060328E+02  0.00000000000E+00 0.  1.
          2    1    1    2  501    0  0.15497340542E+03  0.27761827108E+02  0.73949719288E+02  0.17394262391E+03  0.00000000000E+00 0. -1.
<scales pt_clust_5="13000.00000" pt_clust_6="13000.00000" pt_clust_7="13000.00000" pt_clust_8="13000.00000" pt_clust_9="154.92714"></scales>
<clustering>
<clus scale="   74.336">  5  6 -1 -1</clus>
<clus scale="   81.632">  7  8 -1 -1</clus>
<clus scale="   88.496">  2  7  1 -1</clus>
<clus scale="  154.927">  1  9  2 -1</clus>
<clus scale="  154.927">  1  5  2 -1</clus>
</clustering>
</event>
<event>
 9    1  0.5981539E-005  0.2047301E+03  0.7546771E-02  0.1177385E+00
         21   -1    0    0  501  502  0.00000000000E+00  0.00000000000E+00  0.25167283933E+03  0.25167283933E+03  0.00000000000E+00 0. -1.
         -4   -1    0    0    0  501 -0.00000000000E+00 -0.00000000000E+00 -0.27598025605E+03  0.27598025605E+03  0.00000000000E+00 0.  1.
         23    2    1    2    0    0  0.10026333874E+02 -0.32766012826E+02  0.18232609696E+02  0.10002852922E+03  0.92190778466E+02 0.  0.
        -24    2    1    2    0    0  0.17186583330E+03 -0.34913888379E+02 -0.10993612014E+03  0.22217977319E+03  0.80753060911E+02 0.  0.
         11    1    4    4    0    0  0.17624459044E+03 -0.40075620086E+02 -0.11455203700E+03  0.21398686914E+03  0.00000000000E+00 0. -1.
        -12    1    4    4    0    0 -0.43787571441E+01  0.51617317066E+01  0.46159168548E+01  0.81929040486E+01  0.00000000000E+00 0.  1.
        -13    1    3    3    0    0 -0.74591046958E+01  0.29767979924E+02  0.17004080538E+02  0.35084321663E+02  0.00000000000E+00 0.  1.
         13    1    3    3    0    0  0.17485438569E+02 -0.62533992750E+02  0.12285291582E+01  0.64944207557E+02  0.00000000000E+00 0. -1.
         -3    1    1    2    0  502 -0.18189216717E+03  0.67679901205E+02  0.67396093720E+02  0.20544479296E+03  0.00000000000E+00 0.  1.
<scales pt_clust_5="13000.00000" pt_clust_6="13000.00000" pt_clust_7="13000.00000" pt_clust_8="13000.00000" pt_clust_9="188.13121"></scales>
<clustering>
<clus scale="   80.753">  5  6 -1 -1</clus>
<clus scale="   92.191">  7  8 -1 -1</clus>
<clus scale="   98.353">  2  7  1 -1</clus>
<clus scale="  188.131">  1  9  2 -1</clus>
<clus scale="  188.131">  1  5  2 -1</clus>
</clustering>
</event>
<event>
 9    1  0.5981539E-005  0.1259509E+03  0.7546771E-02  0.1237960E+00
         21   -1    0    0  501  502  0.00000000000E+00  0.00000000000E+00  0.66843253135E+02  0.66843253135E+02  0.00000000000E+00 0.  1.
          1   -1    0    0  502    0 -0.00000000000E+00 -0.00000000000E+00 -0.80079659118E+03  0.80079659118E+03  0.00000000000E+00 0. -1.
         23    2    1    2    0    0  0.54283425943E+02 -0.10924763256E+03 -0.18135314477E+03  0.23721754533E+03  0.92203390082E+02 0.  0.
        -24    2    1    2    0    0 -0.96521306197E+01  0.39140576953E+02 -0.17018708950E+02  0.88431083081E+02  0.76845765081E+02 0.  0.
         11    1    4    4    0    0 -0.24886668914E+02 -0.12582898406E+02 -0.20173178557E+02  0.34418494375E+02  0.00000000000E+00 0. -1.
        -12    1    4    4    0    0  0.15234538295E+02  0.51723475359E+02  0.31544696073E+01  0.54012588706E+02  0.00000000000E+00 0.  1.
        -13    1    3    3    0    0  0.27172354414E+02 -0.12047972145E+03 -0.14919425940E+03  0.19368176776E+03  0.00000000000E+00 0.  1.
         13    1    3    3    0    0  0.27111071529E+02  0.11232088891E+02 -0.32158885372E+02  0.43535777570E+02  0.00000000000E+00 0. -1.
          2    1    1    2  501    0 -0.44631295323E+02  0.70107055603E+02 -0.53558148432E+03  0.54199121590E+03  0.00000000000E+00 0. -1.
<scales pt_clust_5="13000.00000" pt_clust_6="13000.00000" pt_clust_7="13000.00000" pt_clust_8="13000.00000" pt_clust_9="83.10811"></scales>
<clustering>
<clus scale="   76.846">  5  6 -1 -1</clus>
<clus scale="   83.108">  1  9  2 -1</clus>
<clus scale="   92.203">  7  8 -1 -1</clus>
<clus scale="  115.184">  1  5  2 -1</clus>
<clus scale="   83.108">  1  5  2 -1</clus>
</clustering>
</event>
<event>
 9    1  0.5981539E-005  0.1539017E+03  0.7546771E-02  0.1196616E+00
         -2   -1    0    0    0  501 -0.00000000000E+00  0.00000000000E+00  0.16879872992E+03  0.16879872992E+03  0.00000000000E+00 0.  1.
         21   -1    0    0  501  502  0.00000000000E+00 -0.00000000000E+00 -0.19764212667E+03  0.19764212667E+03  0.00000000000E+00 0.  1.
         23    2    1    2    0    0  0.14201467552E+03 -0.12378507385E+02  0.46589468056E+02  0.16755802941E+03  0.74724287737E+02 0.  0.
        -24    2    1    2    0    0 -0.11236182074E+03  0.27294489240E+02 -0.32301206039E+02  0.14445748108E+03  0.80339454959E+02 0.  0.
         11    1    4    4    0    0 -0.52060375488E+02 -0.20299839125E+02  0.99908108717E+01  0.56764271037E+02  0.00000000000E+00 0. -1.
        -12    1    4    4    0    0 -0.60301445256E+02  0.47594328365E+02 -0.42292016910E+02  0.87693210039E+02  0.00000000000E+00 0.  1.
        -13    1    3    3    0    0  0.12979629821E+03  0.15298594785E+02  0.37524163293E+02  0.13597495674E+03  0.00000000000E+00 0.  1.
         13    1    3    3    0    0  0.12218377316E+02 -0.27677102169E+02  0.90653047634E+01  0.31583072669E+02  0.00000000000E+00 0. -1.
         -1    1    1    2    0  502 -0.29652854778E+02 -0.14915981856E+02 -0.43131658766E+02  0.54425346109E+02  0.00000000000E+00 0.  1.
<scales pt_clust_5="13000.00000" pt_clust_6="13000.00000" pt_clust_7="13000.00000" pt_clust_8="13000.00000" pt_clust_9="33.19305"></scales>
<clustering>
<clus scale="   33.193">  2  9  1 -1</clus>
<clus scale="   74.724">  7  8 -1 -1</clus>
<clus scale="   80.339">  5  6 -1 -1</clus>
<clus scale="  151.046">  1  7  2 -1</clus>
<clus scale="   33.193">  2  5  1 -1</clus>
</clustering>
</event>
<event>
 9    1  0.5981539E-005  0.2123441E+03  0.7546771E-02  0.1162333E+00
         21   -1    0    0  501  502  0.00000000000E+00  0.00000000000E+00  0.35842110302E+03  0.35842110302E+03  0.00000000000E+00 0. -1.
          1   -1    0    0  502    0 -0.00000000000E+00 -0.00000000000E+00 -0.23702180107E+03  0.23702180107E+03  0.00000000000E+00 0. -1.
        -24    2    1    2    0    0  0.17738800531E+02 -0.94897567056E+02 -0.53992896710E+02  0.13560006548E+03  0.78434250083E+02 0.  0.
         23    2    1    2    0    0 -0.19161542414E+03 -0.11117724140E+02  0.13474983356E+03  0.25217935110E+03  0.92719107625E+02 0.  0.
         13    1    3    3    0    0  0.23656350246E+02 -0.98825580000E+01  0.11521232870E+02  0.28107413016E+02  0.00000000000E+00 0. -1.
        -14    1    3    3    0    0 -0.59175497154E+01 -0.85015009056E+02 -0.65514129580E+02  0.10749265247E+03  0.00000000000E+00 0.  1.
        -11    1    4    4    0    0 -0.17362066563E+03  0.21322768149E+02  0.12062870658E+03  0.21248548380E+03  0.00000000000E+00 0.  1.
         11    1    4    4    0    0 -0.17994758508E+02 -0.32440492289E+02  0.14121126972E+02  0.39693867293E+02  0.00000000000E+00 0. -1.
          2    1    1    2  501    0  0.17387662361E+03  0.10601529120E+03  0.40642365098E+02  0.20766348751E+03  0.00000000000E+00 0. -1.
<scales pt_clust_5="13000.00000" pt_clust_6="13000.00000" pt_clust_7="13000.00000" pt_clust_8="13000.00000" pt_clust_9="191.03195"></scales>
<clustering>
<clus scale="   78.434">  5  6 -1 -1</clus>
<clus scale="   92.719">  7  8 -1 -1</clus>
<clus scale="  124.387">  2  5  1 -1</clus>
<clus scale="  191.032">  1  9  2 -1</clus>
<clus scale="  191.032">  1  5  2 -1</clus>
</clustering>
</event>
<event>
 9    1  0.5981539E-005  0.1598461E+03  0.7546771E-02  0.1208564E+00
          1   -1    0    0  502    0 -0.00000000000E+00  0.00000000000E+00  0.49341218577E+03  0.49341218577E+03  0.00000000000E+00 0. -1.
         21   -1    0    0  501  502  0.00000000000E+00 -0.00000000000E+00 -0.17908230024E+03  0.17908230024E+03  0.00000000000E+00 0. -1.
        -24    2    1    2    0    0 -0.41478059032E+02  0.54019110680E+02  0.34399378907E+03  0.35940559125E+03  0.78753783428E+02 0.  0.
         23    2    1    2    0    0  0.40571852003E+02  0.11035169249E+03 -0.30597562105E+02  0.14871294194E+03  0.85765710405E+02 0.  0.
         11    1    3    3    0    0  0.12724605718E+02  0.47453859330E+02  0.14749205707E+03  0.15545961293E+03  0.00000000000E+00 0. -1.
        -12    1    3    3    0    0 -0.54202664749E+02  0.65652513501E+01  0.19650173201E+03  0.20394597832E+03  0.00000000000E+00 0.  1.
        -11    1    4    4    0    0  0.27264291302E+02  0.11645057253E+02  0.21202337562E+02  0.36448430100E+02  0.00000000000E+00 0.  1.
         11    1    4    4    0    0  0.13307560701E+02  0.98706635241E+02 -0.51799899667E+02  0.11226451184E+03  0.00000000000E+00 0. -1.
          2    1    1    2  501    0  0.90620702857E+00 -0.16437080317E+03  0.93365855372E+00  0.16437595282E+03  0.00000000000E+00 0. -1.
<scales pt_clust_5="13000.00000" pt_clust_6="13000.00000" pt_clust_7="13000.00000" pt_clust_8="13000.00000" pt_clust_9="134.88902"></scales>
<clustering>
<clus scale="   78.754">  5  6 -1 -1</clus>
<clus scale="   85.766">  7  8 -1 -1</clus>
<clus scale="  104.118">  1  5  2 -1</clus>
<clus scale="  134.889">  2  9  1 -1</clus>
<clus scale="  134.889">  2  5  1 -1</clus>
</clustering>
</event>
<event>
 9    1  0.5981539E-005  0.1154870E+03  0.7546771E-02  0.1251549E+00
         -2   -1    0    0    0  501 -0.00000000000E+00  0.00000000000E+00  0.29576728681E+03  0.29576728681E+03  0.00000000000E+00 0.  1.
         21   -1    0    0  501  502  0.00000000000E+00 -0.00000000000E+00 -0.79858833803E+02  0.79858833803E+02  0.00000000000E+00 0.  1.
         23    2    1    2    0    0 -0.55946179675E+02  0.43607776746E+02  0.18035606996E+03  0.21474959424E+03  0.92506556743E+02 0.  0.
        -24    2    1    2    0    0  0.26282114006E+02 -0.65985681173E+02  0.88617645916E+01  0.11512593608E+03  0.90169787906E+02 0.  0.
         11    1    4    4    0    0  0.49388887131E+01  0.22703957454E+02  0.53165973292E+01  0.23835446565E+02  0.00000000000E+00 0. -1.
        -12    1    4    4    0    0  0.21343225293E+02 -0.88689638627E+02  0.35451672624E+01  0.91290489519E+02  0.00000000000E+00 0.  1.
        -13    1    3    3    0    0 -0.55245341491E+02  0.70321646127E+02  0.14620557936E+03  0.17138626872E+03  0.00000000000E+00 0.  1.
         13    1    3    3    0    0 -0.70083818432E+00 -0.26713869381E+02  0.34150490601E+02  0.43363325516E+02  0.00000000000E+00 0. -1.
         -1    1    1    2    0  502  0.29664065669E+02  0.22377904426E+02  0.26690618452E+02  0.45750590290E+02  0.00000000000E+00 0.  1.
<scales pt_clust_5="13000.00000" pt_clust_6="13000.00000" pt_clust_7="13000.00000" pt_clust_8="13000.00000" pt_clust_9="37.15816"></scales>
<clustering>
<clus scale="   37.158">  2  9  1 -1</clus>
<clus scale="   90.170">  5  6 -1 -1</clus>
<clus scale="   92.507">  7  8 -1 -1</clus>
<clus scale="  113.624">  2  5  1 -1</clus>
<clus scale="   37.158">  2  5  1 -1</clus>
</clustering>
</event>
<event>
 9    1  0.5981539E-005  0.1143754E+03  0.7546771E-02  0.1256618E+00
          1   -1    0    0  502    0 -0.00000000000E+00  0.00000000000E+00  0.29773181130E+03  0.29773181130E+03  0.00000000000E+00 0. -1.
         21   -1    0    0  501  502  0.00000000000E+00 -0.00000000000E+00 -0.17085271787E+03  0.17085271787E+03  0.00000000000E+00 0. -1.
        -24    2    1    2    0    0 -0.15367286297E+02  0.85606484316E+02  0.20451100777E+03  0.23629366762E+03  0.80282759134E+02 0.  0.
         23    2    1    2    0    0  0.15261636670E+02 -0.28539346571E+02  0.37424185576E+02  0.10385965233E+03  0.91317281276E+02 0.  0.
         13    1    3    3    0    0  0.14750005173E+02  0.85374647864E+02  0.13338021121E+03  0.15904928133E+03  0.00000000000E+00 0. -1.
        -14    1    3    3    0    0 -0.30117291471E+02  0.23183645123E+00  0.71130796559E+02  0.77244386287E+02  0.00000000000E+00 0.  1.
        -11    1    4    4    0    0  0.27727057807E+02 -0.94797424656E+01 -0.24300282030E+02  0.38067820512E+02  0.00000000000E+00 0.  1.
         11    1    4    4    0    0 -0.12465421137E+02 -0.19059604106E+02  0.61724467606E+02  0.65791831818E+02  0.00000000000E+00 0. -1.
          2    1    1    2  501    0  0.10564962754E+00 -0.57067137745E+02 -0.11505609992E+03  0.12843120922E+03  0.00000000000E+00 0. -1.
<scales pt_clust_5="13000.00000" pt_clust_6="13000.00000" pt_clust_7="13000.00000" pt_clust_8="13000.00000" pt_clust_9="57.06724"></scales>
<clustering>
<clus scale="   57.067">  2  9  1 -1</clus>
<clus scale="   80.283">  5  6 -1 -1</clus>
<clus scale="   91.317">  7  8 -1 -1</clus>
<clus scale="  105.774">  1  5  2 -1</clus>
<clus scale="   57.067">  2  5  1 -1</clus>
</clustering>
</event>
<event>
 9    1  0.5981539E-005  0.1102670E+03  0.7546771E-02  0.1263344E+00
         21   -1    0    0  501  502  0.00000000000E+00  0.00000000000E+00  0.92898340718E+02  0.92898340718E+02  0.00000000000E+00 0. -1.
          1   -1    0    0  502    0 -0.00000000000E+00 -0.00000000000E+00 -0.42441452978E+03  0.42441452978E+03  0.00000000000E+00 0. -1.
         23    2    1    2    0    0 -0.64037654882E+02 -0.50754500615E+02 -0.20257449822E+03  0.23555108453E+03  0.88153533778E+02 0.  0.
        -24    2    1    2    0    0  0.23911441602E+02 -0.25958132429E+02  0.37101266747E+02  0.94504730494E+02  0.79429581472E+02 0.  0.
         13    1    4    4    0    0  0.18319090850E+02 -0.54241563893E+02  0.18383562882E+02  0.60130622210E+02  0.00000000000E+00 0. -1.
        -14    1    4    4    0    0  0.55923507516E+01  0.28283431464E+02  0.18717703865E+02  0.34374108284E+02  0.00000000000E+00 0.  1.
        -13    1    3    3    0    0  0.82852628450E+01 -0.37488674503E+02 -0.32646623923E+02  0.50396908139E+02  0.00000000000E+00 0.  1.
         13    1    3    3    0    0 -0.72322917727E+02 -0.13265826112E+02 -0.16992787430E+03  0.18515417639E+03  0.00000000000E+00 0. -1.
          2    1    1    2  501    0  0.40126213280E+02  0.76712633045E+02 -0.16604295759E+03  0.18725705547E+03  0.00000000000E+00 0. -1.
<scales pt_clust_5="13000.00000" pt_clust_6="13000.00000" pt_clust_7="13000.00000" pt_clust_8="13000.00000" pt_clust_9="86.57337"></scales>
<clustering>
<clus scale="   79.430">  5  6 -1 -1</clus>
<clus scale="   86.573">  1  9  2 -1</clus>
<clus scale="   88.154">  7  8 -1 -1</clus>
<clus scale="  103.425">  1  5  2 -1</clus>
<clus scale="   86.573">  1  5  2 -1</clus>
</clustering>
</event>
<event>
 9    1  0.5981539E-005  0.1140209E+03  0.7546771E-02  0.1260022E+00
         21   -1    0    0  501  502  0.00000000000E+00  0.00000000000E+00  0.88554567661E+03  0.88554567661E+03  0.00000000000E+00 0. -1.
          3   -1    0    0  502    0 -0.00000000000E+00 -0.00000000000E+00 -0.33896982441E+02  0.33896982441E+02  0.00000000000E+00 0. -1.
         23    2    1    2    0    0 -0.11188592363E+02  0.33081025213E+02  0.27363293591E+03  0.29264225705E+03  0.97698352932E+02 0.  0.
        -24    2    1    2    0    0  0.10853474743E+03 -0.26328411270E+02  0.40964913448E+03  0.43220032055E+03  0.80695272829E+02 0.  0.
         13    1    4    4    0    0  0.59639838520E+02  0.26810287705E+02  0.20588073123E+03  0.21601522482E+03  0.00000000000E+00 0. -1.
        -14    1    4    4    0    0  0.48894908914E+02 -0.53138698976E+02  0.20376840326E+03  0.21618509572E+03  0.00000000000E+00 0.  1.
        -13    1    3    3    0    0 -0.84543516057E+01 -0.27601974012E+02  0.17068592518E+03  0.17310987865E+03  0.00000000000E+00 0. -1.
         13    1    3    3    0    0 -0.27342407577E+01  0.60682999224E+02  0.10294701073E+03  0.11953237840E+03  0.00000000000E+00 0.  1.
          4    1    1    2  501    0 -0.97346155071E+02 -0.67526139423E+01  0.16836662378E+03  0.19460008146E+03  0.00000000000E+00 0. -1.
<scales pt_clust_5="13000.00000" pt_clust_6="13000.00000" pt_clust_7="13000.00000" pt_clust_8="13000.00000" pt_clust_9="97.58013"></scales>
<clustering>
<clus scale="   80.695">  5  6 -1 -1</clus>
<clus scale="   97.580">  1  9  2 -1</clus>
<clus scale="   97.698">  7  8 -1 -1</clus>
<clus scale="   99.837">  1  5  2 -1</clus>
<clus scale="   97.580">  1  5  2 -1</clus>
</clustering>
</event>
<event>
 9    1  0.5981539E-005  0.1095104E+03  0.7546771E-02  0.1266198E+00
          1   -1    0    0  502    0 -0.00000000000E+00  0.00000000000E+00  0.53174636374E+03  0.53174636374E+03  0.00000000000E+00 0. -1.
         21   -1    0    0  501  502  0.00000000000E+00 -0.00000000000E+00 -0.10278253344E+03  0.10278253344E+03  0.00000000000E+00 0. -1.
         23    2    1    2    0    0 -0.65374879404E+02 -0.75823629328E+00  0.42365149676E+03  0.43841240368E+03  0.91926031241E+02 0.  0.
        -24    2    1    2    0    0 -0.40505519412E+00 -0.42051294871E+02 -0.46775474117E+02  0.10192097630E+03  0.80196414884E+02 0.  0.
         11    1    4    4    0    0  0.19633304933E+02 -0.60306016682E+02 -0.33869988851E+02  0.71898946136E+02  0.00000000000E+00 0. -1.
        -12    1    4    4    0    0 -0.20038360128E+02  0.18254721811E+02 -0.12905485266E+02  0.30022030161E+02  0.00000000000E+00 0.  1.
        -13    1    3    3    0    0  0.37837596591E+01  0.30938465986E+02  0.69305702832E+02  0.75992012473E+02  0.00000000000E+00 0.  1.
         13    1    3    3    0    0 -0.69158639063E+02 -0.31696702280E+02  0.35434579392E+03  0.36242039121E+03  0.00000000000E+00 0. -1.
          2    1    1    2  501    0  0.65779934598E+02  0.42809531165E+02  0.52087807661E+02  0.94195517203E+02  0.00000000000E+00 0. -1.
<scales pt_clust_5="13000.00000" pt_clust_6="13000.00000" pt_clust_7="13000.00000" pt_clust_8="13000.00000" pt_clust_9="78.48347"></scales>
<clustering>
<clus scale="   78.483">  2  9  1 -1</clus>
<clus scale="   80.196">  5  6 -1 -1</clus>
<clus scale="   91.926">  7  8 -1 -1</clus>
<clus scale="   99.868">  2  5  1 -1</clus>
<clus scale="   78.483">  2  5  1 -1</clus>
</clustering>
</event>
<event>
 9    1  0.5981539E-005  0.9262391E+02  0.7546771E-02  0.1302557E+00
         -2   -1    0    0    0  501 -0.00000000000E+00  0.00000000000E+00  0.13825820567E+03  0.13825820567E+03  0.00000000000E+00 0.  1.
         21   -1    0    0  501  502  0.00000000000E+00 -0.00000000000E+00 -0.12764700327E+03  0.12764700327E+03  0.00000000000E+00 0.  1.
        -24    2    1    2    0    0  0.12247316889E+02 -0.11945125020E+02  0.44818598552E+02  0.93933864080E+02  0.80760022673E+02 0.  0.
         23    2    1    2    0    0  0.19811308934E+02  0.42445235066E+02 -0.62334065162E+02  0.11953927726E+03  0.90609145163E+02 0.  0.
         13    1    3    3    0    0 -0.23306170858E+02 -0.29160020503E+02  0.46866736312E+01  0.37622457462E+02  0.00000000000E+00 0. -1.
        -14    1    3    3    0    0  0.35553487747E+02  0.17214895482E+02  0.40131924921E+02  0.56311406618E+02  0.00000000000E+00 0.  1.
        -11    1    4    4    0    0  0.12077972215E+02  0.70671088076E+02 -0.51736687586E+02  0.88413601584E+02  0.00000000000E+00 0.  1.
         11    1    4    4    0    0  0.77333367183E+01 -0.28225853010E+02 -0.10597377577E+02  0.31125675678E+02  0.00000000000E+00 0. -1.
         -1    1    1    2    0  502 -0.32058625823E+02 -0.30500110046E+02  0.28126669015E+02  0.52432067595E+02  0.00000000000E+00 0.  1.
<scales pt_clust_5="13000.00000" pt_clust_6="13000.00000" pt_clust_7="13000.00000" pt_clust_8="13000.00000" pt_clust_9="44.24945"></scales>
<clustering>
<clus scale="   44.249">  2  9  1 -1</clus>
<clus scale="   80.760">  5  6 -1 -1</clus>
<clus scale="   83.014">  1  5  2 -1</clus>
<clus scale="   90.609">  7  8 -1 -1</clus>
<clus scale="   44.249">  2  5  1 -1</clus>
</clustering>
</event>
<event>
 9    1  0.5981539E-005  0.1251074E+03  0.7546771E-02  0.1236865E+00
          3   -1    0    0  502    0 -0.00000000000E+00  0.00000000000E+00  0.17122011802E+03  0.17122011802E+03  0.00000000000E+00 0. -1.
         21   -1    0    0  501  502  0.00000000000E+00 -0.00000000000E+00 -0.77177068908E+03  0.77177068908E+03  0.00000000000E+00 0.  1.
         23    2    1    2    0    0 -0.83807251717E+02 -0.11202745577E+02  0.12178808659E+03  0.17339331817E+03  0.89909664677E+02 0.  0.
        -24    2    1    2    0    0  0.14527145003E+03 -0.51586252220E+02 -0.52951573808E+03  0.55769896550E+03  0.82923360003E+02 0.  0.
         13    1    4    4    0    0  0.86898618742E+02 -0.54591524757E+02 -0.22060065662E+03  0.24330280355E+03  0.00000000000E+00 0. -1.
        -14    1    4    4    0    0  0.58372831288E+02  0.30052725365E+01 -0.30891508145E+03  0.31439616194E+03  0.00000000000E+00 0.  1.
        -11    1    3    3    0    0 -0.70816128244E+02  0.24717914996E+02  0.11051943748E+03  0.13356813019E+03  0.00000000000E+00 0. -1.
         11    1    3    3    0    0 -0.12991123473E+02 -0.35920660573E+02  0.11268649111E+02  0.39825187983E+02  0.00000000000E+00 0.  1.
          4    1    1    2  501    0 -0.61464198313E+02  0.62788997797E+02 -0.19282291957E+03  0.21189852343E+03  0.00000000000E+00 0. -1.
<scales pt_clust_5="13000.00000" pt_clust_6="13000.00000" pt_clust_7="13000.00000" pt_clust_8="13000.00000" pt_clust_9="87.86527"></scales>
<clustering>
<clus scale="   82.923">  5  6 -1 -1</clus>
<clus scale="   87.865">  2  9  1 -1</clus>
<clus scale="   89.910">  7  8 -1 -1</clus>
<clus scale="  120.185">  2  5  1 -1</clus>
<clus scale="   87.865">  2  5  1 -1</clus>
</clustering>
</event>
<event>
 9    1  0.5981539E-005  0.3806840E+03  0.7546771E-02  0.1050952E+00
         21   -1    0    0  501  502  0.00000000000E+00  0.00000000000E+00  0.60035353777E+03  0.60035353777E+03  0.00000000000E+00 0.  1.
          1   -1    0    0  502    0 -0.00000000000E+00 -0.00000000000E+00 -0.49913525480E+03  0.49913525480E+03  0.00000000000E+00 0. -1.
         23    2    1    2    0    0 -0.35295129230E+03 -0.99590117639E+02 -0.30581303484E+03  0.48607946270E+03  0.90878080510E+02 0.  0.
        -24    2    1    2    0    0  0.38056348610E+03  0.57905255599E+02  0.29642312522E+03  0.49202467995E+03  0.77717635954E+02 0.  0.
         13    1    4    4    0    0  0.19467438995E+03  0.24858602953E+01  0.18370171881E+03  0.26767633272E+03  0.00000000000E+00 0. -1.
        -14    1    4    4    0    0  0.18588909615E+03  0.55419395304E+02  0.11272140641E+03  0.22434834723E+03  0.00000000000E+00 0.  1.
        -13    1    3    3    0    0 -0.83873833307E+02 -0.10005228931E+02 -0.12103727327E+03  0.14759724266E+03  0.00000000000E+00 0.  1.
         13    1    3    3    0    0 -0.26907745899E+03 -0.89584888707E+02 -0.18477576156E+03  0.33848222004E+03  0.00000000000E+00 0. -1.
          2    1    1    2  501    0 -0.27612193802E+02  0.41684862039E+02  0.11060819258E+03  0.12138464992E+03  0.00000000000E+00 0. -1.
<scales pt_clust_5="13000.00000" pt_clust_6="13000.00000" pt_clust_7="13000.00000" pt_clust_8="13000.00000" pt_clust_9="50.00061"></scales>
<clustering>
<clus scale="   50.001">  1  9  2 -1</clus>
<clus scale="   77.718">  5  6 -1 -1</clus>
<clus scale="   90.878">  7  8 -1 -1</clus>
<clus scale="  377.759">  1  5  2 -1</clus>
<clus scale="   50.001">  1  5  2 -1</clus>
</clustering>
</event>
<event>
 9    1  0.5981539E-005  0.1122600E+03  0.7546771E-02  0.1256664E+00
         21   -1    0    0  501  502  0.00000000000E+00  0.00000000000E+00  0.30318675220E+02  0.30318675220E+02  0.00000000000E+00 0. -1.
          1   -1    0    0  502    0 -0.00000000000E+00 -0.00000000000E+00 -0.91009701979E+03  0.91009701979E+03  0.00000000000E+00 0. -1.
         23    2    1    2    0    0 -0.41642859464E+02  0.55845628571E+00 -0.32232508043E+03  0.33777407584E+03  0.91996897853E+02 0.  0.
        -24    2    1    2    0    0  0.11471764726E+03 -0.15642102813E+02 -0.29551090390E+03  0.33027928498E+03  0.91394189003E+02 0.  0.
         13    1    4    4    0    0  0.35450997070E+02 -0.49835263277E+02 -0.12520041380E+03  0.13933940676E+03  0.00000000000E+00 0. -1.
        -14    1    4    4    0    0  0.79266650192E+02  0.34193160464E+02 -0.17031049010E+03  0.19093987822E+03  0.00000000000E+00 0.  1.
        -11    1    3    3    0    0  0.11632124535E+02  0.34531397606E+02 -0.92402037196E+02  0.99327036701E+02  0.00000000000E+00 0. -1.
         11    1    3    3    0    0 -0.53274983999E+02 -0.33972941320E+02 -0.22992304323E+03  0.23844703914E+03  0.00000000000E+00 0.  1.
          2    1    1    2  501    0 -0.73074787799E+02  0.15083646527E+02 -0.26194236024E+03  0.27236233420E+03  0.00000000000E+00 0. -1.
<scales pt_clust_5="13000.00000" pt_clust_6="13000.00000" pt_clust_7="13000.00000" pt_clust_8="13000.00000" pt_clust_9="74.61532"></scales>
<clustering>
<clus scale="   74.615">  1  9  2 -1</clus>
<clus scale="   91.394">  5  6 -1 -1</clus>
<clus scale="   91.997">  7  8 -1 -1</clus>
<clus scale="  111.767">  1  5  2 -1</clus>
<clus scale="   74.615">  1  5  2 -1</clus>
</clustering>
</event>
<event>
 9    1  0.5981539E-005  0.1136527E+03  0.7546771E-02  0.1256657E+00
         -2   -1    0    0    0  501 -0.00000000000E+00  0.00000000000E+00  0.60180004114E+02  0.60180004114E+02  0.00000000000E+00 0.  1.
         21   -1    0    0  501  502  0.00000000000E+00 -0.00000000000E+00 -0.56880013589E+03  0.56880013589E+03  0.00000000000E+00 0. -1.
         23    2    1    2    0    0  0.29431484778E+02  0.59183465986E+02 -0.95396798057E+02  0.14760489929E+03  0.91201766826E+02 0.  0.
        -24    2    1    2    0    0  0.75459485275E+02 -0.83716620665E+02 -0.21531500453E+03  0.25604948090E+03  0.80611283305E+02 0.  0.
         11    1    4    4    0    0  0.61433659657E+02 -0.89101901211E+02 -0.21536001286E+03  0.24102526522E+03  0.00000000000E+00 0. -1.
        -12    1    4    4    0    0  0.14025825618E+02  0.53852805464E+01  0.45008322835E-01  0.15024215672E+02  0.00000000000E+00 0.  1.
        -11    1    3    3    0    0 -0.26156442926E+02  0.37554525023E+02 -0.67999821505E+02  0.81966319796E+02  0.00000000000E+00 0. -1.
         11    1    3    3    0    0  0.55587927704E+02  0.21628940963E+02 -0.27396976552E+02  0.65638579492E+02  0.00000000000E+00 0.  1.
         -1    1    1    2    0  502 -0.10489097005E+03  0.24533154679E+02 -0.19790832918E+03  0.22532575982E+03  0.00000000000E+00 0.  1.
<scales pt_clust_5="13000.00000" pt_clust_6="13000.00000" pt_clust_7="13000.00000" pt_clust_8="13000.00000" pt_clust_9="107.72182"></scales>
<clustering>
<clus scale="   80.611">  5  6 -1 -1</clus>
<clus scale="   91.202">  7  8 -1 -1</clus>
<clus scale="  107.722">  2  9  1 -1</clus>
<clus scale="  107.722">  2  5  1 -1</clus>
<clus scale="  107.722">  2  5  1 -1</clus>
</clustering>
</event>
<event>
 9    1  0.5981539E-005  0.1962603E+03  0.7546771E-02  0.1184564E+00
         21   -1    0    0  501  502  0.00000000000E+00  0.00000000000E+00  0.59846825787E+03  0.59846825787E+03  0.00000000000E+00 0.  1.
         -2   -1    0    0    0  501 -0.00000000000E+00 -0.00000000000E+00 -0.27737728049E+03  0.27737728049E+03  0.00000000000E+00 0.  1.
         23    2    1    2    0    0 -0.32031743847E+02  0.17137444538E+02 -0.98245783439E+02  0.13668632459E+03  0.87813397316E+02 0.  0.
        -24    2    1    2    0    0 -0.12485099471E+03  0.76439584372E+02 -0.95880102902E+02  0.19251740174E+03  0.80244469602E+02 0.  0.
         13    1    4    4    0    0 -0.66504558935E+02  0.65514698646E+02 -0.94940879132E+02  0.13314954986E+03  0.00000000000E+00 0. -1.
        -14    1    4    4    0    0 -0.58346435771E+02  0.10924885726E+02 -0.93922377007E+00  0.59367851878E+02  0.00000000000E+00 0.  1.
        -11    1    3    3    0    0 -0.17770100589E+02 -0.33727705033E+02 -0.61424845078E+02  0.72293472420E+02  0.00000000000E+00 0.  1.
         11    1    3    3    0    0 -0.14261643257E+02  0.50865149571E+02 -0.36820938361E+02  0.64392852173E+02  0.00000000000E+00 0. -1.
         -1    1    1    2    0  502  0.15688273855E+03 -0.93577028910E+02  0.51521686372E+03  0.54664181203E+03  0.00000000000E+00 0.  1.
<scales pt_clust_5="13000.00000" pt_clust_6="13000.00000" pt_clust_7="13000.00000" pt_clust_8="13000.00000" pt_clust_9="179.10588"></scales>
<clustering>
<clus scale="   80.244">  5  6 -1 -1</clus>
<clus scale="   87.813">  7  8 -1 -1</clus>
<clus scale="   95.031">  2  7  1 -1</clus>
<clus scale="  179.106">  1  9  2 -1</clus>
<clus scale="  179.106">  1  5  2 -1</clus>
</clustering>
</event>
<event>
 9    1  0.5981539E-005  0.1482144E+03  0.7546771E-02  0.1218616E+00
         -2   -1    0    0    0  501 -0.00000000000E+00  0.00000000000E+00  0.78939382641E+03  0.78939382641E+03  0.00000000000E+00 0.  1.
         21   -1    0    0  501  502  0.00000000000E+00 -0.00000000000E+00 -0.54696548273E+02  0.54696548273E+02  0.00000000000E+00 0.  1.
        -24    2    1    2    0    0  0.56750495676E+02  0.40209599791E+02  0.19703201737E+03  0.22350494501E+03  0.79343644375E+02 0.  0.
         23    2    1    2    0    0 -0.59126243574E+02  0.81025749730E+02  0.45069407498E+03  0.47136196868E+03  0.94846568210E+02 0.  0.
         13    1    3    3    0    0  0.73207070700E+01 -0.22886090523E+02  0.31787694271E+02  0.39847501785E+02  0.00000000000E+00 0. -1.
        -14    1    3    3    0    0  0.49429788606E+02  0.63095690313E+02  0.16524432310E+03  0.18365744323E+03  0.00000000000E+00 0.  1.
        -13    1    4    4    0    0  0.14736569432E+02  0.43021241049E+02  0.25090110605E+03  0.25498893834E+03  0.00000000000E+00 0.  1.
         13    1    4    4    0    0 -0.73862813006E+02  0.38004508681E+02  0.19979296893E+03  0.21637303034E+03  0.00000000000E+00 0. -1.
         -1    1    1    2    0  502  0.23757478975E+01 -0.12123534952E+03  0.86971185797E+02  0.14922346099E+03  0.00000000000E+00 0.  1.
<scales pt_clust_5="13000.00000" pt_clust_6="13000.00000" pt_clust_7="13000.00000" pt_clust_8="13000.00000" pt_clust_9="113.89303"></scales>
<clustering>
<clus scale="   79.344">  5  6 -1 -1</clus>
<clus scale="   94.847">  7  8 -1 -1</clus>
<clus scale="  105.512">  1  5  2 -1</clus>
<clus scale="  113.893">  2  9  1 -1</clus>
<clus scale="  113.893">  2  5  1 -1</clus>
</clustering>
</event>
<event>
 9    1  0.5981539E-005  0.1612762E+03  0.7546771E-02  0.1189052E+00
         21   -1    0    0  501  502  0.00000000000E+00  0.00000000000E+00  0.11956323585E+03  0.11956323585E+03  0.00000000000E+00 0. -1.
          1   -1    0    0  502    0 -0.00000000000E+00 -0.00000000000E+00 -0.10095221661E+04  0.10095221661E+04  0.00000000000E+00 0. -1.
        -24    2    1    2    0    0  0.11890227301E+03 -0.14793439168E+02 -0.67649423106E+03  0.69172287028E+03  0.80495268428E+02 0.  0.
         23    2    1    2    0    0 -0.19980054546E+03  0.35184891797E+01 -0.26218882902E+03  0.34225366879E+03  0.91988879810E+02 0.  0.
         13    1    3    3    0    0  0.11708020680E+03  0.11469649449E+02 -0.53223097924E+03  0.54507718990E+03  0.00000000000E+00 0. -1.
        -14    1    3    3    0    0  0.18220662110E+01 -0.26263088617E+02 -0.14426325182E+03  0.14664568038E+03  0.00000000000E+00 0.  1.
        -13    1    4    4    0    0 -0.17666766837E+03 -0.11975207184E+02 -0.25966944691E+03  0.31429777647E+03  0.00000000000E+00 0. -1.
         13    1    4    4    0    0 -0.23132877088E+02  0.15493696363E+02 -0.25193821064E+01  0.27955892323E+02  0.00000000000E+00 0.  1.
          2    1    1    2  501    0  0.80898272446E+02  0.11274949988E+02  0.48724129792E+02  0.95108862920E+02  0.00000000000E+00 0. -1.
<scales pt_clust_5="13000.00000" pt_clust_6="13000.00000" pt_clust_7="13000.00000" pt_clust_8="13000.00000" pt_clust_9="81.68020"></scales>
<clustering>
<clus scale="   80.495">  5  6 -1 -1</clus>
<clus scale="   81.680">  1  9  2 -1</clus>
<clus scale="   91.989">  7  8 -1 -1</clus>
<clus scale="  155.008">  2  5  1 -1</clus>
<clus scale="   81.680">  1  5  2 -1</clus>
</clustering>
</event>
<event>
 9    1  0.5981539E-005  0.1542086E+03  0.7546771E-02  0.1197366E+00
         21   -1    0    0  501  502  0.00000000000E+00  0.00000000000E+00  0.22328173276E+03  0.22328173276E+03  0.00000000000E+00 0. -1.
          1   -1    0    0  502    0 -0.00000000000E+00 -0.00000000000E+00 -0.30609465867E+03  0.30609465867E+03  0.00000000000E+00 0. -1.
         23    2    1    2    0    0 -0.10035101119E+03 -0.72909172515E+02 -0.19714387180E+03  0.25014682074E+03  0.91223093866E+02 0.  0.
        -24    2    1    2    0    0  0.14197994032E+03  0.14365923853E+02  0.12607260951E+03  0.20644120370E+03  0.79743241062E+02 0.  0.
         11    1    4    4    0    0  0.35640503700E+02  0.29723452889E+01 -0.62461154563E+01  0.36305568427E+02  0.00000000000E+00 0. -1.
        -12    1    4    4    0    0  0.10633943662E+03  0.11393578564E+02  0.13231872496E+03  0.17013563527E+03  0.00000000000E+00 0.  1.
        -11    1    3    3    0    0  0.57110972975E+01 -0.32495242110E+02 -0.16711487237E+02  0.36984202003E+02  0.00000000000E+00 0.  1.
         11    1    3    3    0    0 -0.10606210849E+03 -0.40413930405E+02 -0.18043238456E+03  0.21316261874E+03  0.00000000000E+00 0. -1.
          2    1    1    2  501    0 -0.41628929126E+02  0.58543248662E+02 -0.11741663616E+02  0.72788366986E+02  0.00000000000E+00 0. -1.
<scales pt_clust_5="13000.00000" pt_clust_6="13000.00000" pt_clust_7="13000.00000" pt_clust_8="13000.00000" pt_clust_9="71.83512"></scales>
<clustering>
<clus scale="   71.835">  1  9  2 -1</clus>
<clus scale="   79.743">  5  6 -1 -1</clus>
<clus scale="   91.223">  7  8 -1 -1</clus>
<clus scale="  147.708">  1  5  2 -1</clus>
<clus scale="   71.835">  1  5  2 -1</clus>
</clustering>
</event>
<event>
 9    1  0.5981539E-005  0.1085556E+03  0.7546771E-02  0.1273827E+00
          1   -1    0    0  502    0 -0.00000000000E+00  0.00000000000E+00  0.82727231544E+03  0.82727231544E+03  0.00000000000E+00 0. -1.
         21   -1    0    0  501  502  0.00000000000E+00 -0.00000000000E+00 -0.33142541659E+02  0.33142541659E+02  0.00000000000E+00 0.  1.
         23    2    1    2    0    0  0.30739083513E+02  0.14034230742E+02  0.57031108829E+03  0.58074179911E+03  0.10423266723E+03 0.  0.
        -24    2    1    2    0    0 -0.27156301406E+02  0.40603505306E+02  0.78283287842E+02  0.12417813686E+03  0.83101306668E+02 0.  0.
         13    1    4    4    0    0  0.28797291525E+02  0.18214554974E+02  0.41001435954E+02  0.53312022681E+02  0.00000000000E+00 0. -1.
        -14    1    4    4    0    0 -0.55953592931E+02  0.22388950332E+02  0.37281851888E+02  0.70866114180E+02  0.00000000000E+00 0.  1.
        -13    1    3    3    0    0  0.56117651621E+02 -0.25731908108E+02  0.35443370607E+03  0.35977016819E+03  0.00000000000E+00 0. -1.
         13    1    3    3    0    0 -0.25378568108E+02  0.39766138850E+02  0.21587738222E+03  0.22097163092E+03  0.00000000000E+00 0.  1.
          2    1    1    2  501    0 -0.35827821070E+01 -0.54637736048E+02  0.14553539765E+03  0.15549492113E+03  0.00000000000E+00 0. -1.
<scales pt_clust_5="13000.00000" pt_clust_6="13000.00000" pt_clust_7="13000.00000" pt_clust_8="13000.00000" pt_clust_9="54.75511"></scales>
<clustering>
<clus scale="   54.755">  2  9  1 -1</clus>
<clus scale="   83.101">  5  6 -1 -1</clus>
<clus scale="   88.463">  2  5  1 -1</clus>
<clus scale="  104.233">  7  8 -1 -1</clus>
<clus scale="   54.755">  2  5  1 -1</clus>
</clustering>
</event>
<event>
 9    1  0.5981539E-005  0.9374160E+02  0.7546771E-02  0.1300060E+00
         21   -1    0    0  501  502  0.00000000000E+00  0.00000000000E+00  0.24281125702E+03  0.24281125702E+03  0.00000000000E+00 0.  1.
         -4   -1    0    0    0  501 -0.00000000000E+00 -0.00000000000E+00 -0.11475718660E+03  0.11475718660E+03  0.00000000000E+00 0.  1.
         23    2    1    2    0    0 -0.18888495875E+02 -0.10906882740E+02 -0.73393791663E+02  0.11867253422E+03  0.90668552188E+02 0.  0.
        -24    2    1    2    0    0  0.46302639748E+02 -0.10712875944E+02  0.14218145974E+03  0.17011033173E+03  0.80394386056E+02 0.  0.
         11    1    4    4    0    0  0.73180666629E+01  0.32691861892E+02  0.37625436451E+02  0.50378421986E+02  0.00000000000E+00 0. -1.
        -12    1    4    4    0    0  0.38984573085E+02 -0.43404737836E+02  0.10455602329E+03  0.11973190975E+03  0.00000000000E+00 0.  1.
        -11    1    3    3    0    0 -0.41589798904E+02 -0.36153778745E+02 -0.61786097779E+02  0.82790874915E+02  0.00000000000E+00 0.  1.
         11    1    3    3    0    0  0.22701303029E+02  0.25246896005E+02 -0.11607693884E+02  0.35881659304E+02  0.00000000000E+00 0. -1.
         -3    1    1    2    0  502 -0.27414143873E+02  0.21619758684E+02  0.59266402333E+02  0.68785577670E+02  0.00000000000E+00 0.  1.
<scales pt_clust_5="13000.00000" pt_clust_6="13000.00000" pt_clust_7="13000.00000" pt_clust_8="13000.00000" pt_clust_9="34.91345"></scales>
<clustering>
<clus scale="   34.913">  1  9  2 -1</clus>
<clus scale="   80.394">  5  6 -1 -1</clus>
<clus scale="   83.845">  1  5  2 -1</clus>
<clus scale="   90.669">  7  8 -1 -1</clus>
<clus scale="   34.913">  1  5  2 -1</clus>
</clustering>
</event>
<event>
 9    1  0.5981539E-005  0.9552145E+02  0.7546771E-02  0.1297764E+00
         21   -1    0    0  501  502  0.00000000000E+00  0.00000000000E+00  0.80135773599E+02  0.80135773599E+02  0.00000000000E+00 0.  1.
          3   -1    0    0  502    0 -0.00000000000E+00 -0.00000000000E+00 -0.26332940845E+03  0.26332940845E+03  0.00000000000E+00 0. -1.
        -24    2    1    2    0    0  0.41819398634E+01 -0.29268925752E+02 -0.12484809701E+03  0.15084963234E+03  0.79337290186E+02 0.  0.
         23    2    1    2    0    0 -0.15086142620E+02 -0.10276959832E+02  0.26754149843E+02  0.98144731209E+02  0.92646619623E+02 0.  0.
         13    1    3    3    0    0 -0.21245594531E+02 -0.48335483917E+02 -0.74596032954E+02  0.91390713012E+02  0.00000000000E+00 0. -1.
        -14    1    3    3    0    0  0.25427534394E+02  0.19066558164E+02 -0.50252064058E+02  0.59458919328E+02  0.00000000000E+00 0.  1.
        -13    1    4    4    0    0 -0.13823355642E+02 -0.51019723224E+02  0.87300491036E+01  0.53575284194E+02  0.00000000000E+00 0. -1.
         13    1    4    4    0    0 -0.12627869780E+01  0.40742763392E+02  0.18024100740E+02  0.44569447015E+02  0.00000000000E+00 0.  1.
          4    1    1    2  501    0  0.10904202756E+02  0.39545885584E+02 -0.85099687685E+02  0.94470818503E+02  0.00000000000E+00 0. -1.
<scales pt_clust_5="13000.00000" pt_clust_6="13000.00000" pt_clust_7="13000.00000" pt_clust_8="13000.00000" pt_clust_9="41.02171"></scales>
<clustering>
<clus scale="   41.022">  1  9  2 -1</clus>
<clus scale="   79.337">  5  6 -1 -1</clus>
<clus scale="   82.676">  2  5  1 -1</clus>
<clus scale="   92.647">  7  8 -1 -1</clus>
<clus scale="   41.022">  1  5  2 -1</clus>
</clustering>
</event>
<event>
 9    1  0.5981539E-005  0.1038404E+03  0.7546771E-02  0.1274329E+00
          1   -1    0    0  502    0 -0.00000000000E+00  0.00000000000E+00  0.23312568666E+03  0.23312568666E+03  0.00000000000E+00 0. -1.
         21   -1    0    0  501  502  0.00000000000E+00 -0.00000000000E+00 -0.23312336115E+03  0.23312336115E+03  0.00000000000E+00 0. -1.
        -24    2    1    2    0    0 -0.30435755653E+02 -0.38520388774E+02  0.18838888143E+03  0.21300869233E+03  0.86441753722E+02 0.  0.
         23    2    1    2    0    0  0.13179218324E+02  0.68338400295E+02 -0.80148960197E+02  0.13965215618E+03  0.90747122012E+02 0.  0.
         13    1    3    3    0    0  0.23957449043E+02 -0.17349188011E+02  0.11758259475E+03  0.12124611448E+03  0.00000000000E+00 0. -1.
        -14    1    3    3    0    0 -0.54393204696E+02 -0.21171200763E+02  0.70806286683E+02  0.91762577844E+02  0.00000000000E+00 0.  1.
        -13    1    4    4    0    0  0.40998749995E+02  0.44233203632E+02 -0.83149875744E+02  0.10271988922E+03  0.00000000000E+00 0.  1.
         13    1    4    4    0    0 -0.27819531671E+02  0.24105196662E+02  0.30009155469E+01  0.36932266958E+02  0.00000000000E+00 0. -1.
          2    1    1    2  501    0  0.17256537329E+02 -0.29818011520E+02 -0.10823759573E+03  0.11358819930E+03  0.00000000000E+00 0. -1.
<scales pt_clust_5="13000.00000" pt_clust_6="13000.00000" pt_clust_7="13000.00000" pt_clust_8="13000.00000" pt_clust_9="34.45144"></scales>
<clustering>
<clus scale="   34.451">  2  9  1 -1</clus>
<clus scale="   86.442">  5  6 -1 -1</clus>
<clus scale="   90.747">  7  8 -1 -1</clus>
<clus scale="  100.100">  1  5  2 -1</clus>
<clus scale="   34.451">  2  5  1 -1</clus>
</clustering>
</event>
<event>
 9    1  0.5981539E-005  0.1155518E+03  0.7546771E-02  0.1257694E+00
         21   -1    0    0  501  502  0.00000000000E+00  0.00000000000E+00  0.46376363468E+02  0.46376363468E+02  0.00000000000E+00 0.  1.
          1   -1    0    0  502    0 -0.00000000000E+00 -0.00000000000E+00 -0.57538006617E+03  0.57538006617E+03  0.00000000000E+00 0. -1.
         23    2    1    2    0    0 -0.69066458520E+02 -0.78386506884E+02 -0.35317015090E+03  0.38015071354E+03  0.94184868000E+02 0.  0.
        -24    2    1    2    0    0  0.17148110252E+01  0.34891327566E+02 -0.11175536249E+03  0.13897000404E+03  0.74853561454E+02 0.  0.
         13    1    4    4    0    0  0.25301080230E+02  0.43361239396E+02 -0.44098376313E+02  0.66820719363E+02  0.00000000000E+00 0. -1.
        -14    1    4    4    0    0 -0.23586269205E+02 -0.84699118299E+01 -0.67656986173E+02  0.72149284677E+02  0.00000000000E+00 0.  1.
        -11    1    3    3    0    0 -0.40244814262E+02 -0.58578092307E+02 -0.33144660885E+03  0.33898066684E+03  0.00000000000E+00 0. -1.
         11    1    3    3    0    0 -0.28821644259E+02 -0.19808414577E+02 -0.21723542056E+02  0.41170046700E+02  0.00000000000E+00 0.  1.
          2    1    1    2  501    0  0.67351647495E+02  0.43495179318E+02 -0.64078189308E+02  0.10263571206E+03  0.00000000000E+00 0. -1.
<scales pt_clust_5="13000.00000" pt_clust_6="13000.00000" pt_clust_7="13000.00000" pt_clust_8="13000.00000" pt_clust_9="80.17528"></scales>
<clustering>
<clus scale="   74.854">  5  6 -1 -1</clus>
<clus scale="   80.175">  1  9  2 -1</clus>
<clus scale="   94.185">  7  8 -1 -1</clus>
<clus scale="  100.422">  1  5  2 -1</clus>
<clus scale="   80.175">  1  5  2 -1</clus>
</clustering>
</event>
<event>
 9    1  0.5981539E-005  0.1041489E+03  0.7546771E-02  0.1278027E+00
          1   -1    0    0  502    0 -0.00000000000E+00  0.00000000000E+00  0.16932776835E+03  0.16932776835E+03  0.00000000000E+00 0. -1.
         21   -1    0    0  501  502  0.00000000000E+00 -0.00000000000E+00 -0.12926389574E+03  0.12926389574E+03  0.00000000000E+00 0. -1.
        -24    2    1    2    0    0 -0.38319953602E+02  0.56122300761E+02  0.23489585754E+02  0.10596944606E+03  0.77843634117E+02 0.  0.
         23    2    1    2    0    0  0.35740616057E+02  0.83478763313E+01 -0.40442702662E+02  0.10651766641E+03  0.91451202197E+02 0.  0.
         13    1    3    3    0    0 -0.96666718010E+01  0.38082232871E+02  0.49553963856E+02  0.63239990022E+02  0.00000000000E+00 0. -1.
        -14    1    3    3    0    0 -0.28653281801E+02  0.18040067890E+02 -0.26064378102E+02  0.42729456038E+02  0.00000000000E+00 0.  1.
        -11    1    4    4    0    0  0.64422675184E+02  0.14816182198E+02 -0.39692472572E+02  0.77105724247E+02  0.00000000000E+00 0. -1.
         11    1    4    4    0    0 -0.28682059127E+02 -0.64683058668E+01 -0.75023008926E+00  0.29411942162E+02  0.00000000000E+00 0.  1.
          2    1    1    2  501    0  0.25793375446E+01 -0.64470177092E+02  0.57016989516E+02  0.86104551622E+02  0.00000000000E+00 0. -1.
<scales pt_clust_5="13000.00000" pt_clust_6="13000.00000" pt_clust_7="13000.00000" pt_clust_8="13000.00000" pt_clust_9="64.52179"></scales>
<clustering>
<clus scale="   64.522">  2  9  1 -1</clus>
<clus scale="   77.844">  5  6 -1 -1</clus>
<clus scale="   91.451">  7  8 -1 -1</clus>
<clus scale="   92.430">  1  5  2 -1</clus>
<clus scale="   64.522">  2  5  1 -1</clus>
</clustering>
</event>
<event>
 9    1  0.5981539E-005  0.9888225E+02  0.7546771E-02  0.1287717E+00
         21   -1    0    0  501  502  0.00000000000E+00  0.00000000000E+00  0.25661592580E+02  0.25661592580E+02  0.00000000000E+00 0.  1.
          1   -1    0    0  502    0 -0.00000000000E+00 -0.00000000000E+00 -0.14254124427E+04  0.14254124427E+04  0.00000000000E+00 0. -1.
        -24    2    1    2    0    0  0.43609661841E+02  0.21277516269E+02 -0.10128660681E+04  0.10172671556E+04  0.81118793518E+02 0.  0.
         23    2    1    2    0    0 -0.20244055432E+02  0.19706352070E+02 -0.37249399794E+03  0.38448423082E+03  0.90984521539E+02 0.  0.
         13    1    3    3    0    0  0.17237230371E+02 -0.24544653908E+02 -0.16152217708E+03  0.16428321836E+03  0.00000000000E+00 0. -1.
        -14    1    3    3    0    0  0.26372431470E+02  0.45822170177E+02 -0.85134389097E+03  0.85298393720E+03  0.00000000000E+00 0.  1.
        -13    1    4    4    0    0  0.27465263778E+02  0.28529416581E+02 -0.97374014714E+02  0.10511882356E+03  0.00000000000E+00 0.  1.
         13    1    4    4    0    0 -0.47709319210E+02 -0.88230645110E+01 -0.27511998322E+03  0.27936540726E+03  0.00000000000E+00 0. -1.
          2    1    1    2  501    0 -0.23365606409E+02 -0.40983868338E+02 -0.14390784134E+02  0.49322648903E+02  0.00000000000E+00 0. -1.
<scales pt_clust_5="13000.00000" pt_clust_6="13000.00000" pt_clust_7="13000.00000" pt_clust_8="13000.00000" pt_clust_9="47.17657"></scales>
<clustering>
<clus scale="   47.177">  1  9  2 -1</clus>
<clus scale="   81.119">  5  6 -1 -1</clus>
<clus scale="   89.888">  2  5  1 -1</clus>
<clus scale="   90.985">  7  8 -1 -1</clus>
<clus scale="   47.177">  1  5  2 -1</clus>
</clustering>
</event>
<event>
 9    1  0.5981539E-005  0.1395696E+03  0.7546771E-02  0.1253997E+00
         21   -1    0    0  501  502  0.00000000000E+00  0.00000000000E+00  0.14236480730E+03  0.14236480730E+03  0.00000000000E+00 0.  1.
         -4   -1    0    0    0  501 -0.00000000000E+00 -0.00000000000E+00 -0.66555535121E+03  0.66555535121E+03  0.00000000000E+00 0.  1.
         23    2    1    2    0    0  0.91033840957E+01  0.84128092580E+01  0.78757175869E+00  0.61318500301E+02  0.60047408340E+02 0.  0.
        -24    2    1    2    0    0  0.97152127875E+02  0.25896119789E+02 -0.59825637705E+03  0.61249499711E+03  0.84441008009E+02 0.  0.
         13    1    4    4    0    0 -0.45626330241E+01  0.25198932135E+02 -0.70057705867E+02  0.74591460317E+02  0.00000000000E+00 0. -1.
        -14    1    4    4    0    0  0.10171476090E+03  0.69718765339E+00 -0.52819867118E+03  0.53790353679E+03  0.00000000000E+00 0.  1.
        -11    1    3    3    0    0 -0.22585777886E+02  0.12694013344E+02 -0.97010230474E+01  0.27665234241E+02  0.00000000000E+00 0.  1.
         11    1    3    3    0    0  0.31689161981E+02 -0.42812040855E+01  0.10488594806E+02  0.33653266060E+02  0.00000000000E+00 0. -1.
         -3    1    1    2    0  502 -0.10625551197E+03 -0.34308929047E+02  0.74278261378E+02  0.13410666109E+03  0.00000000000E+00 0.  1.
<scales pt_clust_5="13000.00000" pt_clust_6="13000.00000" pt_clust_7="13000.00000" pt_clust_8="13000.00000" pt_clust_9="111.12786"></scales>
<clustering>
<clus scale="   60.047">  7  8 -1 -1</clus>
<clus scale="   61.313">  2  7  1 -1</clus>
<clus scale="   84.441">  5  6 -1 -1</clus>
<clus scale="  111.128">  1  9  2 -1</clus>
<clus scale="  111.128">  1  5  2 -1</clus>
</clustering>
</event>
<event>
 9    1  0.5981539E-005  0.9322753E+02  0.7546771E-02  0.1305321E+00
         21   -1    0    0  501  502  0.00000000000E+00  0.00000000000E+00  0.21326915994E+03  0.21326915994E+03  0.00000000000E+00 0. -1.
         -2   -1    0    0    0  501 -0.00000000000E+00 -0.00000000000E+00 -0.27836661448E+03  0.27836661448E+03  0.00000000000E+00 0.  1.
         23    2    1    2    0    0  0.13031182337E+02  0.50065733593E+01 -0.24968084493E+03  0.26657450806E+03  0.92339409426E+02 0.  0.
        -24    2    1    2    0    0  0.14592028392E+02 -0.33657045662E+01  0.18119649833E+03  0.19718286505E+03  0.76319433989E+02 0.  0.
         11    1    4    4    0    0  0.85790674093E+01 -0.37284841698E+02  0.59784268467E+02  0.70978296501E+02  0.00000000000E+00 0. -1.
        -12    1    4    4    0    0  0.60129609829E+01  0.33919137132E+02  0.12141222986E+03  0.12620456855E+03  0.00000000000E+00 0.  1.
        -11    1    3    3    0    0 -0.99410091631E+01 -0.40675285124E+02 -0.10050480762E+03  0.10887845902E+03  0.00000000000E+00 0. -1.
         11    1    3    3    0    0  0.22972191500E+02  0.45681858483E+02 -0.14917603731E+03  0.15769604904E+03  0.00000000000E+00 0.  1.
         -1    1    1    2    0  502 -0.27623210729E+02 -0.16408687931E+01  0.33868920644E+01  0.27878401304E+02  0.00000000000E+00 0.  1.
<scales pt_clust_5="13000.00000" pt_clust_6="13000.00000" pt_clust_7="13000.00000" pt_clust_8="13000.00000" pt_clust_9="27.67190"></scales>
<clustering>
<clus scale="   27.672">  1  9  2 -1</clus>
<clus scale="   76.319">  5  6 -1 -1</clus>
<clus scale="   77.392">  1  5  2 -1</clus>
<clus scale="   92.339">  7  8 -1 -1</clus>
<clus scale="   27.672">  1  5  2 -1</clus>
</clustering>
</event>
<event>
 9    1  0.5981539E-005  0.1383874E+03  0.7546771E-02  0.1225369E+00
         -2   -1    0    0    0  501 -0.00000000000E+00  0.00000000000E+00  0.38025347040E+03  0.38025347040E+03  0.00000000000E+00 0.  1.
         21   -1    0    0  501  502  0.00000000000E+00 -0.00000000000E+00 -0.12445092198E+03  0.12445092198E+03  0.00000000000E+00 0. -1.
        -24    2    1    2    0    0  0.57602007082E+02 -0.19523379898E+02  0.26331178703E+03  0.28698820432E+03  0.96591814622E+02 0.  0.
         23    2    1    2    0    0 -0.41832659526E+02 -0.30149272240E+02 -0.55551959724E+02  0.14683496526E+03  0.12575983768E+03 0.  0.
         13    1    3    3    0    0 -0.12392043124E+02 -0.35369510458E+02  0.54126450073E+02  0.65834926903E+02  0.00000000000E+00 0. -1.
        -14    1    3    3    0    0  0.69994050206E+02  0.15846130561E+02  0.20918533695E+03  0.22115327742E+03  0.00000000000E+00 0.  1.
        -11    1    4    4    0    0 -0.82420434727E+02  0.38901495660E+01 -0.39532072801E+02  0.91493421098E+02  0.00000000000E+00 0. -1.
         11    1    4    4    0    0  0.40587775201E+02 -0.34039421806E+02 -0.16019886922E+02  0.55341544157E+02  0.00000000000E+00 0.  1.
         -1    1    1    2    0  502 -0.15769347555E+02  0.49672652138E+02  0.48042721116E+02  0.70881222795E+02  0.00000000000E+00 0.  1.
<scales pt_clust_5="13000.00000" pt_clust_6="13000.00000" pt_clust_7="13000.00000" pt_clust_8="13000.00000" pt_clust_9="52.11571"></scales>
<clustering>
<clus scale="   52.116">  2  9  1 -1</clus>
<clus scale="   96.592">  5  6 -1 -1</clus>
<clus scale="  112.541">  1  5  2 -1</clus>
<clus scale="  125.760">  7  8 -1 -1</clus>
<clus scale="   52.116">  2  5  1 -1</clus>
</clustering>
</event>
<event>
 9    1  0.5981539E-005  0.1651691E+03  0.7546771E-02  0.1188463E+00
          1   -1    0    0  502    0 -0.00000000000E+00  0.00000000000E+00  0.30131011873E+03  0.30131011873E+03  0.00000000000E+00 0. -1.
         21   -1    0    0  501  502  0.00000000000E+00 -0.00000000000E+00 -0.20309034317E+03  0.20309034317E+03  0.00000000000E+00 0.  1.
        -24    2    1    2    0    0  0.93296389556E+02  0.62699393290E+02  0.33501478712E+02  0.14998652157E+03  0.93478218611E+02 0.  0.
         23    2    1    2    0    0 -0.72677929827E+02  0.91575856782E+02  0.11844875947E+03  0.18975387753E+03  0.91149363060E+02 0.  0.
         11    1    3    3    0    0 -0.15058295904E+01  0.46693469123E+02  0.26206857846E+02  0.53566285849E+02  0.00000000000E+00 0. -1.
        -12    1    3    3    0    0  0.94802219147E+02  0.16005924168E+02  0.72946208658E+01  0.96420235725E+02  0.00000000000E+00 0.  1.
        -13    1    4    4    0    0 -0.83434955124E+02  0.65562151151E+02  0.53220597415E+02  0.11871065407E+03  0.00000000000E+00 0. -1.
         13    1    4    4    0    0  0.10757025297E+02  0.26013705631E+02  0.65228162057E+02  0.71043223457E+02  0.00000000000E+00 0.  1.
          2    1    1    2  501    0 -0.20618459729E+02 -0.15427525007E+03 -0.53730462629E+02  0.16466006280E+03  0.00000000000E+00 0. -1.
<scales pt_clust_5="13000.00000" pt_clust_6="13000.00000" pt_clust_7="13000.00000" pt_clust_8="13000.00000" pt_clust_9="137.74118"></scales>
<clustering>
<clus scale="   91.149">  7  8 -1 -1</clus>
<clus scale="   93.478">  5  6 -1 -1</clus>
<clus scale="  146.197">  1  5  2 -1</clus>
<clus scale="  137.741">  2  9  1 -1</clus>
<clus scale="  137.741">  2  5  1 -1</clus>
</clustering>
</event>
<event>
 9    1  0.5981539E-005  0.1216344E+03  0.7546771E-02  0.1242784E+00
         21   -1    0    0  501  502  0.00000000000E+00  0.00000000000E+00  0.12506193904E+03  0.12506193904E+03  0.00000000000E+00 0.  1.
          1   -1    0    0  502    0 -0.00000000000E+00 -0.00000000000E+00 -0.74576527446E+03  0.74576527446E+03  0.00000000000E+00 0. -1.
        -24    2    1    2    0    0 -0.77869933608E+02 -0.54237897354E+00 -0.61687752671E+03  0.62729591632E+03  0.83055782043E+02 0.  0.
         23    2    1    2    0    0  0.13402731962E+03  0.45560213379E+02  0.15815183985E+02  0.16892549304E+03  0.90811049491E+02 0.  0.
         11    1    3    3    0    0 -0.72447379753E+02  0.31929848230E+02 -0.38162031717E+03  0.38974633355E+03  0.00000000000E+00 0. -1.
        -12    1    3    3    0    0 -0.54225538552E+01 -0.32472227204E+02 -0.23525720954E+03  0.23754958277E+03  0.00000000000E+00 0.  1.
        -11    1    4    4    0    0  0.71166532158E+02  0.69923051311E+02  0.40604307676E+00  0.99770102110E+02  0.00000000000E+00 0.  1.
         11    1    4    4    0    0  0.62860787457E+02 -0.24362837932E+02  0.15409140908E+02  0.69155390935E+02  0.00000000000E+00 0. -1.
          2    1    1    2  501    0 -0.56157386007E+02 -0.45017834405E+02 -0.19640992685E+02  0.74605804140E+02  0.00000000000E+00 0. -1.
<scales pt_clust_5="13000.00000" pt_clust_6="13000.00000" pt_clust_7="13000.00000" pt_clust_8="13000.00000" pt_clust_9="71.97401"></scales>
<clustering>
<clus scale="   71.974">  1  9  2 -1</clus>
<clus scale="   83.056">  5  6 -1 -1</clus>
<clus scale="   90.811">  7  8 -1 -1</clus>
<clus scale="  115.959">  2  5  1 -1</clus>
<clus scale="   71.974">  1  5  2 -1</clus>
</clustering>
</event>
<event>
 9    1  0.5981539E-005  0.1103827E+03  0.7546771E-02  0.1263737E+00
         -2   -1    0    0    0  501 -0.00000000000E+00  0.00000000000E+00  0.11202751938E+03  0.11202751938E+03  0.00000000000E+00 0.  1.
         21   -1    0    0  501  502  0.00000000000E+00 -0.00000000000E+00 -0.15768573744E+03  0.15768573744E+03  0.00000000000E+00 0.  1.
         23    2    1    2    0    0  0.17872752196E+01 -0.72498026769E+02  0.91807767486E+00  0.11615747777E+03  0.90733447734E+02 0.  0.
        -24    2    1    2    0    0 -0.27191418884E+02  0.45428339320E+02 -0.60477829512E+02  0.11391500287E+03  0.80721451567E+02 0.  0.
         13    1    4    4    0    0 -0.24190519937E+02  0.52523660269E+02 -0.76641363036E+02  0.96009450946E+02  0.00000000000E+00 0. -1.
        -14    1    4    4    0    0 -0.30008989477E+01 -0.70953209491E+01  0.16163533524E+02  0.17905551928E+02  0.00000000000E+00 0.  1.
        -11    1    3    3    0    0 -0.30534956846E+01  0.20502371625E+02  0.91700411473E+01  0.22666290671E+02  0.00000000000E+00 0.  1.
         11    1    3    3    0    0  0.48407709042E+01 -0.93000398394E+02 -0.82519634724E+01  0.93491187101E+02  0.00000000000E+00 0. -1.
         -1    1    1    2    0  502  0.25404143665E+02  0.27069687450E+02  0.13901533780E+02  0.39640776170E+02  0.00000000000E+00 0.  1.
<scales pt_clust_5="13000.00000" pt_clust_6="13000.00000" pt_clust_7="13000.00000" pt_clust_8="13000.00000" pt_clust_9="37.12331"></scales>
<clustering>
<clus scale="   37.123">  2  9  1 -1</clus>
<clus scale="   80.721">  5  6 -1 -1</clus>
<clus scale="   90.733">  7  8 -1 -1</clus>
<clus scale="  102.312">  2  5  1 -1</clus>
<clus scale="   37.123">  2  5  1 -1</clus>
</clustering>
</event>
<event>
 9    1  0.5981539E-005  0.1026348E+03  0.7546771E-02  0.1281114E+00
          1   -1    0    0  502    0 -0.00000000000E+00  0.00000000000E+00  0.83247204562E+03  0.83247204562E+03  0.00000000000E+00 0. -1.
         21   -1    0    0  501  502  0.00000000000E+00 -0.00000000000E+00 -0.18558032946E+02  0.18558032946E+02  0.00000000000E+00 0.  1.
        -24    2    1    2    0    0  0.43701657743E+02 -0.62829366380E+01  0.47559926177E+03  0.48425154125E+03  0.79721936911E+02 0.  0.
         23    2    1    2    0    0 -0.39095569551E+02  0.26308050591E+02  0.18616232184E+03  0.21324488333E+03  0.92716735856E+02 0.  0.
         13    1    3    3    0    0  0.62912204635E+02  0.74943111679E+01  0.27184490784E+03  0.27913037117E+03  0.00000000000E+00 0. -1.
        -14    1    3    3    0    0 -0.19210546892E+02 -0.13777247806E+02  0.20375435393E+03  0.20512117008E+03  0.00000000000E+00 0.  1.
        -11    1    4    4    0    0 -0.37067028387E+01  0.26054044942E+02  0.27616168492E+01  0.26460903829E+02  0.00000000000E+00 0.  1.
         11    1    4    4    0    0 -0.35388866712E+02  0.25400564839E+00  0.18340070499E+03  0.18678397950E+03  0.00000000000E+00 0. -1.
          2    1    1    2  501    0 -0.46060881926E+01 -0.20025113953E+02  0.15215242906E+03  0.15353365398E+03  0.00000000000E+00 0. -1.
<scales pt_clust_5="13000.00000" pt_clust_6="13000.00000" pt_clust_7="13000.00000" pt_clust_8="13000.00000" pt_clust_9="20.54803"></scales>
<clustering>
<clus scale="   20.548">  2  9  1 -1</clus>
<clus scale="   79.722">  5  6 -1 -1</clus>
<clus scale="   91.066">  1  5  2 -1</clus>
<clus scale="   92.717">  7  8 -1 -1</clus>
<clus scale="   20.548">  2  5  1 -1</clus>
</clustering>
</event>
<event>
 9    1  0.5981539E-005  0.2467894E+03  0.7546771E-02  0.1155653E+00
         21   -1    0    0  501  502  0.00000000000E+00  0.00000000000E+00  0.14499307565E+03  0.14499307565E+03  0.00000000000E+00 0.  1.
          1   -1    0    0  502    0 -0.00000000000E+00 -0.00000000000E+00 -0.11005599222E+04  0.11005599222E+04  0.00000000000E+00 0. -1.
        -24    2    1    2    0    0  0.18770224931E+02 -0.39894981984E+02  0.62975071276E+02  0.11197763969E+03  0.81419907008E+02 0.  0.
         23    2    1    2    0    0  0.34081367405E+02 -0.21034139170E+03 -0.37334242392E+03  0.43953362998E+03  0.91652636129E+02 0.  0.
         13    1    3    3    0    0  0.32632089071E+02 -0.30832235212E+02 -0.19866432038E+01  0.44938031961E+02  0.00000000000E+00 0. -1.
        -14    1    3    3    0    0 -0.13861864141E+02 -0.90627467724E+01  0.64961714479E+02  0.67039607730E+02  0.00000000000E+00 0.  1.
        -13    1    4    4    0    0  0.55776880251E+02 -0.19698461149E+03 -0.34695131188E+03  0.40285135019E+03  0.00000000000E+00 0.  1.
         13    1    4    4    0    0 -0.21695512846E+02 -0.13356780212E+02 -0.26391112048E+02  0.36682279787E+02  0.00000000000E+00 0. -1.
          2    1    1    2  501    0 -0.52851592336E+02  0.25023637369E+03 -0.64519949389E+03  0.69404172817E+03  0.00000000000E+00 0. -1.
<scales pt_clust_5="13000.00000" pt_clust_6="13000.00000" pt_clust_7="13000.00000" pt_clust_8="13000.00000" pt_clust_9="229.13933"></scales>
<clustering>
<clus scale="   81.420">  5  6 -1 -1</clus>
<clus scale="   91.653">  7  8 -1 -1</clus>
<clus scale="   92.591">  2  5  1 -1</clus>
<clus scale="  229.139">  1  9  2 -1</clus>
<clus scale="  229.139">  1  5  2 -1</clus>
</clustering>
</event>
<event>
 9    1  0.5981539E-005  0.1393935E+03  0.7546771E-02  0.1216137E+00
          3   -1    0    0  502    0 -0.00000000000E+00  0.00000000000E+00  0.22475995973E+03  0.22475995973E+03  0.00000000000E+00 0. -1.
         21   -1    0    0  501  502  0.00000000000E+00 -0.00000000000E+00 -0.13616893297E+03  0.13616893297E+03  0.00000000000E+00 0. -1.
        -24    2    1    2    0    0 -0.11691047563E+03  0.48845519506E+02  0.39899655802E+02  0.15570894926E+03  0.81236385069E+02 0.  0.
         23    2    1    2    0    0  0.71658819426E+02 -0.37953517680E+02 -0.19171410881E+02  0.12292957188E+03  0.90380754262E+02 0.  0.
         13    1    3    3    0    0 -0.21585152269E+02  0.41173317754E+02  0.38022047503E+02  0.60056947889E+02  0.00000000000E+00 0. -1.
        -14    1    3    3    0    0 -0.95325323363E+02  0.76722017519E+01  0.18776082991E+01  0.95652001375E+02  0.00000000000E+00 0.  1.
        -13    1    4    4    0    0  0.91309560995E+01 -0.51361633889E+02  0.91952480725E+01  0.52971165573E+02  0.00000000000E+00 0.  1.
         13    1    4    4    0    0  0.62527863326E+02  0.13408116209E+02 -0.28366658954E+02  0.69958406304E+02  0.00000000000E+00 0. -1.
          4    1    1    2  501    0  0.45251656207E+02 -0.10892001826E+02  0.67862781839E+02  0.82290371564E+02  0.00000000000E+00 0. -1.
<scales pt_clust_5="13000.00000" pt_clust_6="13000.00000" pt_clust_7="13000.00000" pt_clust_8="13000.00000" pt_clust_9="46.54407"></scales>
<clustering>
<clus scale="   46.544">  2  9  1 -1</clus>
<clus scale="   81.236">  5  6 -1 -1</clus>
<clus scale="   90.381">  7  8 -1 -1</clus>
<clus scale="  133.646">  1  5  2 -1</clus>
<clus scale="   46.544">  2  5  1 -1</clus>
</clustering>
</event>
<event>
 9    1  0.5981539E-005  0.6288240E+03  0.7546771E-02  0.9848040E-01
          1   -1    0    0  502    0 -0.00000000000E+00  0.00000000000E+00  0.91302737971E+03  0.91302737971E+03  0.00000000000E+00 0. -1.
         21   -1    0    0  501  502  0.00000000000E+00 -0.00000000000E+00 -0.52723323835E+03  0.52723323835E+03  0.00000000000E+00 0.  1.
        -24    2    1    2    0    0  0.58710982465E+03  0.30264284912E+03  0.35749678543E+03  0.75546050226E+03  0.81400113966E+02 0.  0.
         23    2    1    2    0    0 -0.51426409316E+03 -0.23422899087E+03 -0.22033304866E+02  0.57290672006E+03  0.91683508251E+02 0.  0.
         11    1    3    3    0    0  0.10035875697E+03  0.87500564100E+02  0.64288987355E+02  0.14785568205E+03  0.00000000000E+00 0. -1.
        -12    1    3    3    0    0  0.48675106767E+03  0.21514228502E+03  0.29320779808E+03  0.60760482021E+03  0.00000000000E+00 0.  1.
        -11    1    4    4    0    0 -0.43595715774E+03 -0.17714785794E+03  0.10490715095E+02  0.47069104735E+03  0.00000000000E+00 0.  1.
         11    1    4    4    0    0 -0.78306935427E+02 -0.57081132932E+02 -0.32524019961E+02  0.10221567271E+03  0.00000000000E+00 0. -1.
          2    1    1    2  501    0 -0.72845731486E+02 -0.68413858246E+02  0.50330660790E+02  0.11189339574E+03  0.00000000000E+00 0. -1.
<scales pt_clust_5="13000.00000" pt_clust_6="13000.00000" pt_clust_7="13000.00000" pt_clust_8="13000.00000" pt_clust_9="99.93481"></scales>
<clustering>
<clus scale="   81.400">  5  6 -1 -1</clus>
<clus scale="   91.684">  7  8 -1 -1</clus>
<clus scale="   99.935">  2  9  1 -1</clus>
<clus scale="  627.407">  1  5  2 -1</clus>
<clus scale="   99.935">  2  5  1 -1</clus>
</clustering>
</event>
<event>
 9    1  0.5981539E-005  0.1544726E+03  0.7546771E-02  0.1197132E+00
         -2   -1    0    0    0  501 -0.00000000000E+00  0.00000000000E+00  0.88991967198E+03  0.88991967198E+03  0.00000000000E+00 0.  1.
         21   -1    0    0  501  502  0.00000000000E+00 -0.00000000000E+00 -0.22710292366E+03  0.22710292366E+03  0.00000000000E+00 0.  1.
        -24    2    1    2    0    0  0.46704694759E+02 -0.99210269245E+02  0.48132847702E+03  0.50014167283E+03  0.80253249637E+02 0.  0.
         23    2    1    2    0    0  0.10600961063E+02  0.17673816752E+03  0.36135260335E+03  0.41280816337E+03  0.92120114892E+02 0.  0.
         13    1    3    3    0    0  0.24922382137E+02  0.49650630845E+01  0.15006240714E+03  0.15219889296E+03  0.00000000000E+00 0. -1.
        -14    1    3    3    0    0  0.21782312622E+02 -0.10417533233E+03  0.33126606988E+03  0.34794277987E+03  0.00000000000E+00 0.  1.
        -11    1    4    4    0    0  0.50347134424E+02  0.75771058707E+02  0.15813693112E+03  0.18243732148E+03  0.00000000000E+00 0.  1.
         11    1    4    4    0    0 -0.39746173361E+02  0.10096710881E+03  0.20321567222E+03  0.23037084190E+03  0.00000000000E+00 0. -1.
         -1    1    1    2    0  502 -0.57305655822E+02 -0.77527898274E+02 -0.17986433204E+03  0.20407275943E+03  0.00000000000E+00 0.  1.
<scales pt_clust_5="13000.00000" pt_clust_6="13000.00000" pt_clust_7="13000.00000" pt_clust_8="13000.00000" pt_clust_9="96.40806"></scales>
<clustering>
<clus scale="   80.253">  5  6 -1 -1</clus>
<clus scale="   92.120">  7  8 -1 -1</clus>
<clus scale="   96.408">  2  9  1 -1</clus>
<clus scale="  147.703">  1  5  2 -1</clus>
<clus scale="   96.408">  2  5  1 -1</clus>
</clustering>
</event>
<event>
 9    1  0.5981539E-005  0.9209936E+02  0.7546771E-02  0.1302583E+00
         21   -1    0    0  501  502  0.00000000000E+00  0.00000000000E+00  0.74057886787E+02  0.74057886787E+02  0.00000000000E+00 0. -1.
          1   -1    0    0  502    0 -0.00000000000E+00 -0.00000000000E+00 -0.19392127495E+03  0.19392127495E+03  0.00000000000E+00 0. -1.
        -24    2    1    2    0    0 -0.12508046735E+02  0.64637994274E+01 -0.57974648916E+02  0.10164425192E+03  0.82293754901E+02 0.  0.
         23    2    1    2    0    0 -0.30334860895E+02 -0.33251871353E+02 -0.56450389215E+02  0.11551472501E+03  0.90172692754E+02 0.  0.
         13    1    3    3    0    0  0.76966469851E+01 -0.18808513279E+02  0.12665768916E+02  0.23946194872E+02  0.00000000000E+00 0. -1.
        -14    1    3    3    0    0 -0.20204693720E+02  0.25272312707E+02 -0.70640417833E+02  0.77698057051E+02  0.00000000000E+00 0.  1.
        -13    1    4    4    0    0 -0.55699673792E+02 -0.23538480998E+02 -0.94112526650E+01  0.61197103077E+02  0.00000000000E+00 0. -1.
         13    1    4    4    0    0  0.25364812897E+02 -0.97133903549E+01 -0.47039136550E+02  0.54317621937E+02  0.00000000000E+00 0.  1.
          2    1    1    2  501    0  0.42842907630E+02  0.26788071925E+02 -0.54383500268E+01  0.50820184796E+02  0.00000000000E+00 0. -1.
<scales pt_clust_5="13000.00000" pt_clust_6="13000.00000" pt_clust_7="13000.00000" pt_clust_8="13000.00000" pt_clust_9="50.52836"></scales>
<clustering>
<clus scale="   50.528">  1  9  2 -1</clus>
<clus scale="   82.294">  5  6 -1 -1</clus>
<clus scale="   84.400">  2  5  1 -1</clus>
<clus scale="   90.173">  7  8 -1 -1</clus>
<clus scale="   50.528">  1  5  2 -1</clus>
</clustering>
</event>
<event>
 9    1  0.5981539E-005  0.1074253E+03  0.7546771E-02  0.1271168E+00
          1   -1    0    0  502    0 -0.00000000000E+00  0.00000000000E+00  0.24746946305E+03  0.24746946305E+03  0.00000000000E+00 0. -1.
         21   -1    0    0  501  502  0.00000000000E+00 -0.00000000000E+00 -0.68379315303E+02  0.68379315303E+02  0.00000000000E+00 0.  1.
         23    2    1    2    0    0  0.60849742628E+01 -0.60163084301E+02  0.14929253425E+03  0.18521595092E+03  0.91433385951E+02 0.  0.
        -24    2    1    2    0    0 -0.31606738256E+02  0.43505170139E+02  0.32591230399E+02  0.10002807556E+03  0.77792942291E+02 0.  0.
         13    1    4    4    0    0  0.13217337671E+02  0.46913690954E+02  0.23728871117E+02  0.54209332578E+02  0.00000000000E+00 0. -1.
        -14    1    4    4    0    0 -0.44824075927E+02 -0.34085208152E+01  0.88623592821E+01  0.45818742987E+02  0.00000000000E+00 0.  1.
        -13    1    3    3    0    0  0.17707539172E+02  0.18625452495E+02  0.17041241458E+02  0.30836153044E+02  0.00000000000E+00 0.  1.
         13    1    3    3    0    0 -0.11622564909E+02 -0.78788536796E+02  0.13225129280E+03  0.15437979787E+03  0.00000000000E+00 0. -1.
          2    1    1    2  501    0  0.25521763993E+02  0.16657914162E+02 -0.27936169060E+01  0.30604751869E+02  0.00000000000E+00 0. -1.
<scales pt_clust_5="13000.00000" pt_clust_6="13000.00000" pt_clust_7="13000.00000" pt_clust_8="13000.00000" pt_clust_9="30.47698"></scales>
<clustering>
<clus scale="   30.477">  2  9  1 -1</clus>
<clus scale="   77.793">  5  6 -1 -1</clus>
<clus scale="   91.433">  7  8 -1 -1</clus>
<clus scale="   96.083">  2  5  1 -1</clus>
<clus scale="   30.477">  2  5  1 -1</clus>
</clustering>
</event>
<event>
 9    1  0.5981539E-005  0.2518899E+03  0.7546771E-02  0.1124870E+00
          1   -1    0    0  502    0 -0.00000000000E+00  0.00000000000E+00  0.59618054371E+03  0.59618054371E+03  0.00000000000E+00 0. -1.
         21   -1    0    0  501  502  0.00000000000E+00 -0.00000000000E+00 -0.21936711133E+03  0.21936711133E+03  0.00000000000E+00 0. -1.
         23    2    1    2    0    0  0.14962636311E+03  0.48200113513E+02  0.17701958559E+03  0.25456154304E+03  0.93564662291E+02 0.  0.
        -24    2    1    2    0    0 -0.24718155381E+03  0.15091958909E+03  0.13593104709E+03  0.33023921954E+03  0.81885588761E+02 0.  0.
         13    1    4    4    0    0 -0.11657403006E+03  0.10235123267E+03  0.10551348302E+03  0.18761229814E+03  0.00000000000E+00 0. -1.
        -14    1    4    4    0    0 -0.13060752375E+03  0.48568356418E+02  0.30417564070E+02  0.14262692141E+03  0.00000000000E+00 0.  1.
        -11    1    3    3    0    0  0.14489300390E+03  0.67869919987E+02  0.16920147845E+03  0.23287217294E+03  0.00000000000E+00 0. -1.
         11    1    3    3    0    0  0.47333592145E+01 -0.19669806474E+02  0.78181071416E+01  0.21689370103E+02  0.00000000000E+00 0.  1.
          2    1    1    2  501    0  0.97555190697E+02 -0.19911970260E+03  0.63862799697E+02  0.23074689246E+03  0.00000000000E+00 0. -1.
<scales pt_clust_5="13000.00000" pt_clust_6="13000.00000" pt_clust_7="13000.00000" pt_clust_8="13000.00000" pt_clust_9="238.20844"></scales>
<clustering>
<clus scale="   81.886">  5  6 -1 -1</clus>
<clus scale="   93.565">  7  8 -1 -1</clus>
<clus scale="  182.936">  1  7  2 -1</clus>
<clus scale="  238.208">  2  9  1 -1</clus>
<clus scale="  238.208">  2  5  1 -1</clus>
</clustering>
</event>
<event>
 9    1  0.5981539E-005  0.1187913E+03  0.7546771E-02  0.1247562E+00
          1   -1    0    0  502    0 -0.00000000000E+00  0.00000000000E+00  0.15352272780E+03  0.15352272780E+03  0.00000000000E+00 0. -1.
         21   -1    0    0  501  502  0.00000000000E+00 -0.00000000000E+00 -0.44640639763E+03  0.44640639763E+03  0.00000000000E+00 0.  1.
         23    2    1    2    0    0  0.65807249078E+02 -0.33516388188E+02  0.94386875517E+02  0.15029824864E+03  0.90701372464E+02 0.  0.
        -24    2    1    2    0    0 -0.62821069468E+02  0.73005069533E+02 -0.10594000399E+03  0.16552676432E+03  0.83063820725E+02 0.  0.
         13    1    4    4    0    0 -0.65493732456E+02  0.14829553783E+02 -0.42806099180E+02  0.79634833983E+02  0.00000000000E+00 0. -1.
        -14    1    4    4    0    0  0.26726629874E+01  0.58175515750E+02 -0.63133904810E+02  0.85891930335E+02  0.00000000000E+00 0.  1.
        -11    1    3    3    0    0 -0.50951437257E+01 -0.38948067318E+02  0.58974672505E+02  0.70858481740E+02  0.00000000000E+00 0. -1.
         11    1    3    3    0    0  0.70902392803E+02  0.54316791296E+01  0.35412203012E+02  0.79439766903E+02  0.00000000000E+00 0.  1.
          2    1    1    2  501    0 -0.29861796093E+01 -0.39488681345E+02 -0.28133054136E+03  0.28410411247E+03  0.00000000000E+00 0. -1.
<scales pt_clust_5="13000.00000" pt_clust_6="13000.00000" pt_clust_7="13000.00000" pt_clust_8="13000.00000" pt_clust_9="39.60143"></scales>
<clustering>
<clus scale="   39.601">  2  9  1 -1</clus>
<clus scale="   83.064">  5  6 -1 -1</clus>
<clus scale="   90.701">  7  8 -1 -1</clus>
<clus scale="  113.067">  2  5  1 -1</clus>
<clus scale="   39.601">  2  5  1 -1</clus>
</clustering>
</event>
<event>
 9    1  0.5981539E-005  0.9397884E+02  0.7546771E-02  0.1299090E+00
         21   -1    0    0  501  502  0.00000000000E+00  0.00000000000E+00  0.49235566682E+02  0.49235566682E+02  0.00000000000E+00 0. -1.
          1   -1    0    0  502    0 -0.00000000000E+00 -0.00000000000E+00 -0.55669641374E+03  0.55669641374E+03  0.00000000000E+00 0. -1.
         23    2    1    2    0    0 -0.22962430384E+02 -0.23382840297E+02 -0.16526952272E+03  0.19083724687E+03  0.89614782390E+02 0.  0.
        -24    2    1    2    0    0 -0.27303613470E+02  0.35703142093E+02 -0.26770309180E+02  0.95456059729E+02  0.79843648598E+02 0.  0.
         11    1    4    4    0    0 -0.43347748412E+02  0.48945941668E+02 -0.53560342597E+01  0.65600454275E+02  0.00000000000E+00 0. -1.
        -12    1    4    4    0    0  0.16044134942E+02 -0.13242799575E+02 -0.21414274921E+02  0.29855605453E+02  0.00000000000E+00 0.  1.
        -11    1    3    3    0    0  0.30377326468E+02 -0.23143308706E+02 -0.43423288489E+02  0.57827127582E+02  0.00000000000E+00 0.  1.
         11    1    3    3    0    0 -0.53339756852E+02 -0.23953159034E+00 -0.12184623423E+03  0.13301011929E+03  0.00000000000E+00 0. -1.
          2    1    1    2  501    0  0.50266043854E+02 -0.12320301797E+02 -0.31542101516E+03  0.31963867382E+03  0.00000000000E+00 0. -1.
<scales pt_clust_5="13000.00000" pt_clust_6="13000.00000" pt_clust_7="13000.00000" pt_clust_8="13000.00000" pt_clust_9="51.75391"></scales>
<clustering>
<clus scale="   51.754">  1  9  2 -1</clus>
<clus scale="   79.844">  5  6 -1 -1</clus>
<clus scale="   84.713">  1  5  2 -1</clus>
<clus scale="   89.615">  7  8 -1 -1</clus>
<clus scale="   51.754">  1  5  2 -1</clus>
</clustering>
</event>
<event>
 9    1  0.5981539E-005  0.1672023E+03  0.7546771E-02  0.1203648E+00
         21   -1    0    0  501  502  0.00000000000E+00  0.00000000000E+00  0.25660317697E+03  0.25660317697E+03  0.00000000000E+00 0.  1.
         -4   -1    0    0    0  501 -0.00000000000E+00 -0.00000000000E+00 -0.21471690000E+03  0.21471690000E+03  0.00000000000E+00 0.  1.
        -24    2    1    2    0    0  0.52142267008E+01 -0.59717303569E+02 -0.84125786228E+02  0.13153160358E+03  0.81425243797E+02 0.  0.
         23    2    1    2    0    0  0.88835807916E+02 -0.77903163889E+02  0.53957808046E+02  0.15819382104E+03  0.90294718860E+02 0.  0.
         13    1    3    3    0    0  0.40874633617E+01  0.20391318286E+02 -0.14107292600E+02  0.25130239208E+02  0.00000000000E+00 0. -1.
        -14    1    3    3    0    0  0.11267633391E+01 -0.80108621855E+02 -0.70018493629E+02  0.10640136438E+03  0.00000000000E+00 0.  1.
        -11    1    4    4    0    0  0.95120350335E+02 -0.37905483195E+02  0.17840767089E+02  0.10393747964E+03  0.00000000000E+00 0.  1.
         11    1    4    4    0    0 -0.62845424194E+01 -0.39997680694E+02  0.36117040956E+02  0.54256341397E+02  0.00000000000E+00 0. -1.
         -3    1    1    2    0  502 -0.94050034616E+02  0.13762046746E+03  0.72054255157E+02  0.18159465235E+03  0.00000000000E+00 0.  1.
<scales pt_clust_5="13000.00000" pt_clust_6="13000.00000" pt_clust_7="13000.00000" pt_clust_8="13000.00000" pt_clust_9="140.72485"></scales>
<clustering>
<clus scale="   81.425">  5  6 -1 -1</clus>
<clus scale="   90.295">  7  8 -1 -1</clus>
<clus scale="  101.111">  2  5  1 -1</clus>
<clus scale="  140.725">  1  9  2 -1</clus>
<clus scale="  140.725">  1  5  2 -1</clus>
</clustering>
</event>
<event>
 9    1  0.5981539E-005  0.1259485E+03  0.7546771E-02  0.1236926E+00
          1   -1    0    0  502    0 -0.00000000000E+00  0.00000000000E+00  0.84922535181E+03  0.84922535181E+03  0.00000000000E+00 0. -1.
         21   -1    0    0  501  502  0.00000000000E+00 -0.00000000000E+00 -0.23966975337E+02  0.23966975337E+02  0.00000000000E+00 0. -1.
        -24    2    1    2    0    0 -0.82620067569E+02  0.42454800539E+02  0.53169226104E+03  0.54561971927E+03  0.79848180645E+02 0.  0.
         23    2    1    2    0    0  0.63904280457E+02 -0.32370498295E+02  0.19772347519E+03  0.22940038407E+03  0.91642552061E+02 0.  0.
         11    1    3    3    0    0  0.58531564524E-01  0.38756428829E+02  0.13905893794E+03  0.14435876289E+03  0.00000000000E+00 0. -1.
        -12    1    3    3    0    0 -0.82678599133E+02  0.36983717100E+01  0.39263332310E+03  0.40126095638E+03  0.00000000000E+00 0.  1.
        -13    1    4    4    0    0  0.30563841185E+02 -0.82079017339E+01  0.18293129795E+03  0.18564853301E+03  0.00000000000E+00 0.  1.
         13    1    4    4    0    0  0.33340439272E+02 -0.24162596561E+02  0.14792177239E+02  0.43751851057E+02  0.00000000000E+00 0. -1.
          2    1    1    2  501    0  0.18715787112E+02 -0.10084302244E+02  0.95842640239E+02  0.98172223805E+02  0.00000000000E+00 0. -1.
<scales pt_clust_5="13000.00000" pt_clust_6="13000.00000" pt_clust_7="13000.00000" pt_clust_8="13000.00000" pt_clust_9="21.25969"></scales>
<clustering>
<clus scale="   21.260">  2  9  1 -1</clus>
<clus scale="   79.848">  5  6 -1 -1</clus>
<clus scale="   91.643">  7  8 -1 -1</clus>
<clus scale="  117.645">  1  5  2 -1</clus>
<clus scale="   21.260">  2  5  1 -1</clus>
</clustering>
</event>
<event>
 9    1  0.5981539E-005  0.2053424E+03  0.7546771E-02  0.1145739E+00
         21   -1    0    0  501  502  0.00000000000E+00  0.00000000000E+00  0.11782045093E+03  0.11782045093E+03  0.00000000000E+00 0.  1.
          1   -1    0    0  502    0 -0.00000000000E+00 -0.00000000000E+00 -0.48637501785E+03  0.48637501785E+03  0.00000000000E+00 0. -1.
         23    2    1    2    0    0  0.65412377583E+02  0.17944066420E+03 -0.27090328887E+03  0.34140885558E+03  0.81814935293E+02 0.  0.
        -24    2    1    2    0    0 -0.98241499321E+02 -0.15018989311E+03 -0.72766706474E+02  0.21226334385E+03  0.86904185117E+02 0.  0.
         13    1    4    4    0    0 -0.37387424527E+02 -0.18588094703E+01 -0.34513439176E+01  0.37592372368E+02  0.00000000000E+00 0. -1.
        -14    1    4    4    0    0 -0.60854074794E+02 -0.14833108364E+03 -0.69315362556E+02  0.17467097148E+03  0.00000000000E+00 0.  1.
        -11    1    3    3    0    0  0.15948243711E+02  0.37775873731E+02 -0.12974175515E+02  0.43008049757E+02  0.00000000000E+00 0.  1.
         11    1    3    3    0    0  0.49464133872E+02  0.14166479047E+03 -0.25792911336E+03  0.29840080582E+03  0.00000000000E+00 0. -1.
          2    1    1    2  501    0  0.32829121738E+02 -0.29250771089E+02 -0.24884571576E+02  0.50523269351E+02  0.00000000000E+00 0. -1.
<scales pt_clust_5="13000.00000" pt_clust_6="13000.00000" pt_clust_7="13000.00000" pt_clust_8="13000.00000" pt_clust_9="43.96998"></scales>
<clustering>
<clus scale="   43.970">  1  9  2 -1</clus>
<clus scale="   81.815">  7  8 -1 -1</clus>
<clus scale="   86.904">  5  6 -1 -1</clus>
<clus scale="  203.241">  2  7  1 -1</clus>
<clus scale="   43.970">  1  5  2 -1</clus>
</clustering>
</event>
<event>
 9    1  0.5981539E-005  0.1564001E+03  0.7546771E-02  0.1193846E+00
         21   -1    0    0  501  502  0.00000000000E+00  0.00000000000E+00  0.46213778234E+03  0.46213778234E+03  0.00000000000E+00 0. -1.
         -2   -1    0    0    0  501 -0.00000000000E+00 -0.00000000000E+00 -0.22081494466E+03  0.22081494466E+03  0.00000000000E+00 0.  1.
        -24    2    1    2    0    0  0.26775769633E+02  0.12668905738E+03 -0.15947218767E+03  0.22206769528E+03  0.84354155510E+02 0.  0.
         23    2    1    2    0    0 -0.79717684742E+02 -0.89773801433E+02  0.34195169435E+03  0.37354592192E+03  0.90506076206E+02 0.  0.
         11    1    3    3    0    0  0.25975342556E+02  0.65811813132E+02 -0.14212479905E+03  0.15876199695E+03  0.00000000000E+00 0. -1.
        -12    1    3    3    0    0  0.80042707683E+00  0.60877244244E+02 -0.17347388611E+02  0.63305698336E+02  0.00000000000E+00 0.  1.
        -11    1    4    4    0    0 -0.47276345859E+02 -0.27502023625E+02  0.25971397922E+03  0.26541055966E+03  0.00000000000E+00 0. -1.
         11    1    4    4    0    0 -0.32441338883E+02 -0.62271777808E+02  0.82237715138E+02  0.10813536226E+03  0.00000000000E+00 0.  1.
         -1    1    1    2    0  502  0.52941915109E+02 -0.36915255942E+02  0.58843330997E+02  0.87339109793E+02  0.00000000000E+00 0.  1.
<scales pt_clust_5="13000.00000" pt_clust_6="13000.00000" pt_clust_7="13000.00000" pt_clust_8="13000.00000" pt_clust_9="64.54132"></scales>
<clustering>
<clus scale="   64.541">  1  9  2 -1</clus>
<clus scale="   84.354">  5  6 -1 -1</clus>
<clus scale="   90.506">  7  8 -1 -1</clus>
<clus scale="  152.922">  2  5  1 -1</clus>
<clus scale="   64.541">  1  5  2 -1</clus>
</clustering>
</event>
<event>
 9    1  0.5981539E-005  0.1032529E+03  0.7546771E-02  0.1280064E+00
         -2   -1    0    0    0  501 -0.00000000000E+00  0.00000000000E+00  0.73827877212E+02  0.73827877212E+02  0.00000000000E+00 0.  1.
         21   -1    0    0  501  502  0.00000000000E+00 -0.00000000000E+00 -0.32398051319E+03  0.32398051319E+03  0.00000000000E+00 0. -1.
         23    2    1    2    0    0 -0.17126290446E+01 -0.54062181995E+02 -0.75332599838E+01  0.10870392712E+03  0.93990111950E+02 0.  0.
        -24    2    1    2    0    0  0.12630284624E+01 -0.14578027984E+00 -0.21207153956E+03  0.22688006593E+03  0.80613956208E+02 0.  0.
         11    1    4    4    0    0  0.34427082155E+02 -0.12636613066E+00 -0.16926030665E+03  0.17272605872E+03  0.00000000000E+00 0. -1.
        -12    1    4    4    0    0 -0.33164053693E+02 -0.19414149171E-01 -0.42811232908E+02  0.54154007214E+02  0.00000000000E+00 0.  1.
        -11    1    3    3    0    0  0.45427344482E+02 -0.35548109186E+02 -0.65015993848E+01  0.58048104947E+02  0.00000000000E+00 0.  1.
         11    1    3    3    0    0 -0.47139973527E+02 -0.18514072809E+02 -0.10316605990E+01  0.50655822170E+02  0.00000000000E+00 0. -1.
         -1    1    1    2    0  502  0.44960058219E+00  0.54207962275E+02 -0.30547836435E+02  0.62224397350E+02  0.00000000000E+00 0.  1.
<scales pt_clust_5="13000.00000" pt_clust_6="13000.00000" pt_clust_7="13000.00000" pt_clust_8="13000.00000" pt_clust_9="54.20985"></scales>
<clustering>
<clus scale="   54.210">  2  9  1 -1</clus>
<clus scale="   80.614">  5  6 -1 -1</clus>
<clus scale="   91.245">  2  5  1 -1</clus>
<clus scale="   93.990">  7  8 -1 -1</clus>
<clus scale="   54.210">  2  5  1 -1</clus>
</clustering>
</event>
<event>
 9    1  0.5981539E-005  0.4133206E+03  0.7546771E-02  0.1039406E+00
          1   -1    0    0  502    0 -0.00000000000E+00  0.00000000000E+00  0.18159157535E+04  0.18159157535E+04  0.00000000000E+00 0. -1.
         21   -1    0    0  501  502  0.00000000000E+00 -0.00000000000E+00 -0.14065257335E+03  0.14065257335E+03  0.00000000000E+00 0. -1.
         23    2    1    2    0    0  0.28364872189E+03 -0.32013047801E+03  0.93417673532E+03  0.10312871518E+04  0.89033119258E+02 0.  0.
        -24    2    1    2    0    0 -0.13390434108E+03  0.36005382505E+03  0.46357510518E+03  0.60742932769E+03  0.80618735409E+02 0.  0.
         11    1    4    4    0    0 -0.12754720034E+03  0.29703035646E+03  0.42232001512E+03  0.53183598613E+03  0.00000000000E+00 0. -1.
        -12    1    4    4    0    0 -0.63571407423E+01  0.63023468596E+02  0.41255090057E+02  0.75593341558E+02  0.00000000000E+00 0.  1.
        -11    1    3    3    0    0  0.27192563412E+03 -0.28869933315E+03  0.79907371580E+03  0.89208164353E+03  0.00000000000E+00 0. -1.
         11    1    3    3    0    0  0.11723087766E+02 -0.31431144862E+02  0.13510301952E+03  0.13920550829E+03  0.00000000000E+00 0.  1.
          2    1    1    2  501    0 -0.14974438080E+03 -0.39923347044E+02  0.27751133969E+03  0.31785184737E+03  0.00000000000E+00 0. -1.
<scales pt_clust_5="13000.00000" pt_clust_6="13000.00000" pt_clust_7="13000.00000" pt_clust_8="13000.00000" pt_clust_9="154.97509"></scales>
<clustering>
<clus scale="   80.619">  5  6 -1 -1</clus>
<clus scale="   89.033">  7  8 -1 -1</clus>
<clus scale="  154.975">  2  9  1 -1</clus>
<clus scale="  411.590">  2  5  1 -1</clus>
<clus scale="  154.975">  2  5  1 -1</clus>
</clustering>
</event>
<event>
 9    1  0.5981539E-005  0.1490667E+03  0.7546771E-02  0.1204289E+00
         21   -1    0    0  501  502  0.00000000000E+00  0.00000000000E+00  0.18030273793E+03  0.18030273793E+03  0.00000000000E+00 0.  1.
          3   -1    0    0  502    0 -0.00000000000E+00 -0.00000000000E+00 -0.53352827578E+03  0.53352827578E+03  0.00000000000E+00 0. -1.
        -24    2    1    2    0    0 -0.11417801624E+03  0.13008603518E+02 -0.44518962944E+03  0.46652112468E+03  0.79008293567E+02 0.  0.
         23    2    1    2    0    0  0.14155173225E+03  0.19566499534E+02  0.10798808565E+03  0.20184313136E+03  0.93056339015E+02 0.  0.
         13    1    3    3    0    0 -0.69462520306E+02 -0.19619271845E+02 -0.34083720609E+03  0.34839626664E+03  0.00000000000E+00 0. -1.
        -14    1    3    3    0    0 -0.44715495929E+02  0.32627875363E+02 -0.10435242336E+03  0.11812485804E+03  0.00000000000E+00 0.  1.
        -13    1    4    4    0    0  0.48449884995E+02 -0.54121733842E+01 -0.97104082867E+01  0.49708902682E+02  0.00000000000E+00 0. -1.
         13    1    4    4    0    0  0.93101847255E+02  0.24978672918E+02  0.11769849393E+03  0.15213422868E+03  0.00000000000E+00 0.  1.
          4    1    1    2  501    0 -0.27373716014E+02 -0.32575103053E+02 -0.16023994046E+02  0.45466757664E+02  0.00000000000E+00 0. -1.
<scales pt_clust_5="13000.00000" pt_clust_6="13000.00000" pt_clust_7="13000.00000" pt_clust_8="13000.00000" pt_clust_9="42.54947"></scales>
<clustering>
<clus scale="   42.549">  1  9  2 -1</clus>
<clus scale="   79.008">  5  6 -1 -1</clus>
<clus scale="   93.056">  7  8 -1 -1</clus>
<clus scale="  140.726">  2  5  1 -1</clus>
<clus scale="   42.549">  1  5  2 -1</clus>
</clustering>
</event>
<event>
 9    1  0.5981539E-005  0.1516834E+03  0.7546771E-02  0.1199592E+00
         21   -1    0    0  501  502  0.00000000000E+00  0.00000000000E+00  0.16516299091E+03  0.16516299091E+03  0.00000000000E+00 0.  1.
          1   -1    0    0  502    0 -0.00000000000E+00 -0.00000000000E+00 -0.54522140988E+03  0.54522140988E+03  0.00000000000E+00 0. -1.
        -24    2    1    2    0    0  0.67058746258E+02 -0.10179840014E+03 -0.42573049826E+03  0.45003905233E+03  0.80180432465E+02 0.  0.
         23    2    1    2    0    0 -0.97545769222E+02  0.11837927022E+03  0.94780245118E+02  0.20021219810E+03  0.87021840310E+02 0.  0.
         13    1    3    3    0    0  0.78344724096E+02 -0.91866597168E+02 -0.41316747065E+03  0.43044712367E+03  0.00000000000E+00 0. -1.
        -14    1    3    3    0    0 -0.11285977837E+02 -0.99318029682E+01 -0.12563027612E+02  0.19591928663E+02  0.00000000000E+00 0.  1.
        -13    1    4    4    0    0 -0.67327633386E+02  0.11633655819E+03  0.10240596729E+03  0.16897984236E+03  0.00000000000E+00 0.  1.
         13    1    4    4    0    0 -0.30218135836E+02  0.20427120272E+01 -0.76257221717E+01  0.31232355731E+02  0.00000000000E+00 0. -1.
          2    1    1    2  501    0  0.30487022964E+02 -0.16580870082E+02 -0.49108165824E+02  0.60133150362E+02  0.00000000000E+00 0. -1.
<scales pt_clust_5="13000.00000" pt_clust_6="13000.00000" pt_clust_7="13000.00000" pt_clust_8="13000.00000" pt_clust_9="34.70425"></scales>
<clustering>
<clus scale="   34.704">  1  9  2 -1</clus>
<clus scale="   80.180">  5  6 -1 -1</clus>
<clus scale="   87.022">  7  8 -1 -1</clus>
<clus scale="  147.865">  2  5  1 -1</clus>
<clus scale="   34.704">  1  5  2 -1</clus>
</clustering>
</event>
<event>
 9    1  0.5981539E-005  0.2259574E+03  0.7546771E-02  0.1130290E+00
         21   -1    0    0  501  502  0.00000000000E+00  0.00000000000E+00  0.24195510133E+03  0.24195510133E+03  0.00000000000E+00 0.  1.
          1   -1    0    0  502    0 -0.00000000000E+00 -0.00000000000E+00 -0.40742227172E+03  0.40742227172E+03  0.00000000000E+00 0. -1.
        -24    2    1    2    0    0 -0.20714599015E+03 -0.10935270510E+03 -0.83619179646E+02  0.26140363633E+03  0.80450099644E+02 0.  0.
         23    2    1    2    0    0  0.15254167240E+03  0.56274680992E+02  0.84659479585E+02  0.20487910044E+03  0.91500911316E+02 0.  0.
         13    1    3    3    0    0 -0.35602866843E+02 -0.55471066524E+02 -0.37265050613E+02  0.75718474272E+02  0.00000000000E+00 0. -1.
        -14    1    3    3    0    0 -0.17154312331E+03 -0.53881638580E+02 -0.46354129033E+02  0.18568516206E+03  0.00000000000E+00 0.  1.
        -11    1    4    4    0    0  0.70691610501E+02 -0.21014008744E+02  0.38680909056E+02  0.83277278318E+02  0.00000000000E+00 0.  1.
         11    1    4    4    0    0  0.81850061902E+02  0.77288689736E+02  0.45978570529E+02  0.12160182212E+03  0.00000000000E+00 0. -1.
          2    1    1    2  501    0  0.54604317749E+02  0.53078024112E+02 -0.16650747033E+03  0.18309463628E+03  0.00000000000E+00 0. -1.
<scales pt_clust_5="13000.00000" pt_clust_6="13000.00000" pt_clust_7="13000.00000" pt_clust_8="13000.00000" pt_clust_9="76.15060"></scales>
<clustering>
<clus scale="   76.151">  1  9  2 -1</clus>
<clus scale="   80.450">  5  6 -1 -1</clus>
<clus scale="   91.501">  7  8 -1 -1</clus>
<clus scale="  221.713">  2  5  1 -1</clus>
<clus scale="   76.151">  1  5  2 -1</clus>
</clustering>
</event>
<event>
 9    1  0.5981539E-005  0.9375283E+02  0.7546771E-02  0.1303513E+00
          1   -1    0    0  502    0 -0.00000000000E+00  0.00000000000E+00  0.11203093125E+03  0.11203093125E+03  0.00000000000E+00 0. -1.
         21   -1    0    0  501  502  0.00000000000E+00 -0.00000000000E+00 -0.17640113494E+03  0.17640113494E+03  0.00000000000E+00 0. -1.
         23    2    1    2    0    0  0.13150845442E+02 -0.43688455236E+01  0.44973400229E+02  0.10366359498E+03  0.92366133668E+02 0.  0.
        -24    2    1    2    0    0 -0.12362104178E+02  0.33282392714E+02 -0.12563519174E+03  0.15157161657E+03  0.77001391298E+02 0.  0.
         11    1    4    4    0    0 -0.35036316255E+02  0.34467318300E+02 -0.41186365905E+02  0.64123757095E+02  0.00000000000E+00 0. -1.
        -12    1    4    4    0    0  0.22674212077E+02 -0.11849255858E+01 -0.84448825838E+02  0.87447859478E+02  0.00000000000E+00 0.  1.
        -11    1    3    3    0    0 -0.39269627496E+02  0.20540885548E+01  0.27692502684E+02  0.48095713202E+02  0.00000000000E+00 0. -1.
         11    1    3    3    0    0  0.52420472938E+02 -0.64229340784E+01  0.17280897545E+02  0.55567881777E+02  0.00000000000E+00 0.  1.
          2    1    1    2  501    0 -0.78874126435E+00 -0.28913547191E+02  0.16291587825E+02  0.33196854637E+02  0.00000000000E+00 0. -1.
<scales pt_clust_5="13000.00000" pt_clust_6="13000.00000" pt_clust_7="13000.00000" pt_clust_8="13000.00000" pt_clust_9="28.92432"></scales>
<clustering>
<clus scale="   28.924">  2  9  1 -1</clus>
<clus scale="   77.001">  5  6 -1 -1</clus>
<clus scale="   78.659">  2  5  1 -1</clus>
<clus scale="   92.366">  7  8 -1 -1</clus>
<clus scale="   28.924">  2  5  1 -1</clus>
</clustering>
</event>
<event>
 9    1  0.5981539E-005  0.2691409E+03  0.7546771E-02  0.1102323E+00
          1   -1    0    0  502    0 -0.00000000000E+00  0.00000000000E+00  0.86672170344E+03  0.86672170344E+03  0.00000000000E+00 0. -1.
         21   -1    0    0  501  502  0.00000000000E+00 -0.00000000000E+00 -0.10776784567E+03  0.10776784567E+03  0.00000000000E+00 0. -1.
         23    2    1    2    0    0  0.15658207049E+03  0.22651171369E+03  0.47355575417E+03  0.55550274443E+03  0.92210333032E+02 0.  0.
        -24    2    1    2    0    0 -0.94004256025E+02 -0.20650380461E+03  0.23196329851E+03  0.33430163666E+03  0.80436253925E+02 0.  0.
         13    1    4    4    0    0 -0.52237000794E+02 -0.17051577020E+03  0.20854838122E+03  0.27440255000E+03  0.00000000000E+00 0. -1.
        -14    1    4    4    0    0 -0.41767255231E+02 -0.35988034413E+02  0.23414917295E+02  0.59899086657E+02  0.00000000000E+00 0.  1.
        -11    1    3    3    0    0  0.64000658245E+02  0.68492504129E+02  0.24693744344E+03  0.26413142250E+03  0.00000000000E+00 0.  1.
         11    1    3    3    0    0  0.92581412241E+02  0.15801920956E+03  0.22661831074E+03  0.29137132193E+03  0.00000000000E+00 0. -1.
          2    1    1    2  501    0 -0.62577814461E+02 -0.20007909079E+02  0.53434805080E+02  0.84685168019E+02  0.00000000000E+00 0. -1.
<scales pt_clust_5="13000.00000" pt_clust_6="13000.00000" pt_clust_7="13000.00000" pt_clust_8="13000.00000" pt_clust_9="65.69855"></scales>
<clustering>
<clus scale="   65.699">  2  9  1 -1</clus>
<clus scale="   80.436">  5  6 -1 -1</clus>
<clus scale="   92.210">  7  8 -1 -1</clus>
<clus scale="  265.338">  2  5  1 -1</clus>
<clus scale="   65.699">  2  5  1 -1</clus>
</clustering>
</event>
<event>
 9    1  0.5981539E-005  0.1083478E+03  0.7546771E-02  0.1268510E+00
          1   -1    0    0  502    0 -0.00000000000E+00  0.00000000000E+00  0.12841795482E+03  0.12841795482E+03  0.00000000000E+00 0. -1.
         21   -1    0    0  501  502  0.00000000000E+00 -0.00000000000E+00 -0.21432902548E+03  0.21432902548E+03  0.00000000000E+00 0.  1.
        -24    2    1    2    0    0  0.44548577875E+02  0.15219159985E+02  0.12486916582E+02  0.94287500226E+02  0.80734199642E+02 0.  0.
         23    2    1    2    0    0 -0.92390850436E+02 -0.19991985676E+02 -0.13431118286E+03  0.18844764350E+03  0.92397357995E+02 0.  0.
         11    1    3    3    0    0  0.93015829656E+01  0.27115243690E+02  0.39146893757E+02  0.48520461425E+02  0.00000000000E+00 0. -1.
        -12    1    3    3    0    0  0.35246994909E+02 -0.11896083705E+02 -0.26659977175E+02  0.45767038801E+02  0.00000000000E+00 0.  1.
        -11    1    4    4    0    0  0.11602153185E+02 -0.19405840489E+02 -0.62075197328E+01  0.23446319644E+02  0.00000000000E+00 0. -1.
         11    1    4    4    0    0 -0.10399300362E+03 -0.58614518643E+00 -0.12810366313E+03  0.16500132386E+03  0.00000000000E+00 0.  1.
          2    1    1    2  501    0  0.47842272562E+02  0.47728256904E+01  0.35913195614E+02  0.60011836567E+02  0.00000000000E+00 0. -1.
<scales pt_clust_5="13000.00000" pt_clust_6="13000.00000" pt_clust_7="13000.00000" pt_clust_8="13000.00000" pt_clust_9="48.07978"></scales>
<clustering>
<clus scale="   48.080">  2  9  1 -1</clus>
<clus scale="   80.734">  5  6 -1 -1</clus>
<clus scale="   92.397">  7  8 -1 -1</clus>
<clus scale="   98.590">  1  5  2 -1</clus>
<clus scale="   48.080">  2  5  1 -1</clus>
</clustering>
</event>
<event>
 9    1  0.5981539E-005  0.1320734E+03  0.7546771E-02  0.1226912E+00
         21   -1    0    0  501  502  0.00000000000E+00  0.00000000000E+00  0.47830469004E+03  0.47830469004E+03  0.00000000000E+00 0.  1.
         -2   -1    0    0    0  501 -0.00000000000E+00 -0.00000000000E+00 -0.13843813721E+03  0.13843813721E+03  0.00000000000E+00 0.  1.
         23    2    1    2    0    0 -0.32601013267E+02 -0.93205040079E+02 -0.91255002806E+02  0.16250947904E+03  0.91278966237E+02 0.  0.
        -24    2    1    2    0    0  0.80647246262E+01  0.64234214768E+02  0.33974886620E+03  0.35528737025E+03  0.81294214079E+02 0.  0.
         11    1    4    4    0    0 -0.21838873871E+02  0.61762091546E+02  0.15743155886E+03  0.17051741286E+03  0.00000000000E+00 0. -1.
        -12    1    4    4    0    0  0.29903598498E+02  0.24721232224E+01  0.18231730734E+03  0.18476995739E+03  0.00000000000E+00 0.  1.
        -11    1    3    3    0    0  0.27561768667E+02 -0.37486074233E+02 -0.57159565421E+02  0.73702596783E+02  0.00000000000E+00 0. -1.
         11    1    3    3    0    0 -0.60162781935E+02 -0.55718965845E+02 -0.34095437385E+02  0.88806882252E+02  0.00000000000E+00 0.  1.
         -1    1    1    2    0  502  0.24536288641E+02  0.28970825310E+02  0.91372689440E+02  0.98945977962E+02  0.00000000000E+00 0.  1.
<scales pt_clust_5="13000.00000" pt_clust_6="13000.00000" pt_clust_7="13000.00000" pt_clust_8="13000.00000" pt_clust_9="37.96496"></scales>
<clustering>
<clus scale="   37.965">  1  9  2 -1</clus>
<clus scale="   81.294">  5  6 -1 -1</clus>
<clus scale="   91.279">  7  8 -1 -1</clus>
<clus scale="  125.381">  1  5  2 -1</clus>
<clus scale="   37.965">  1  5  2 -1</clus>
</clustering>
</event>
<event>
 9    1  0.5981539E-005  0.1001225E+03  0.7546771E-02  0.1285240E+00
          1   -1    0    0  502    0 -0.00000000000E+00  0.00000000000E+00  0.17155478773E+03  0.17155478773E+03  0.00000000000E+00 0. -1.
         21   -1    0    0  501  502  0.00000000000E+00 -0.00000000000E+00 -0.24306036517E+03  0.24306036517E+03  0.00000000000E+00 0. -1.
         23    2    1    2    0    0  0.44212305214E+02 -0.10079738192E+01  0.12745055356E+03  0.16303227910E+03  0.91543085386E+02 0.  0.
        -24    2    1    2    0    0 -0.79925307691E+01 -0.46119122082E+02 -0.13440016567E+03  0.16383147558E+03  0.81157217113E+02 0.  0.
         11    1    4    4    0    0 -0.44044102120E+02 -0.24412552868E+02 -0.59781462294E+02  0.78164435027E+02  0.00000000000E+00 0. -1.
        -12    1    4    4    0    0  0.36051571351E+02 -0.21706569214E+02 -0.74618703378E+02  0.85667040556E+02  0.00000000000E+00 0.  1.
        -13    1    3    3    0    0  0.46665272649E+02  0.33475482854E+02  0.11049232352E+03  0.12452633931E+03  0.00000000000E+00 0.  1.
         13    1    3    3    0    0 -0.24529674356E+01 -0.34483456673E+02  0.16958230039E+02  0.38505939794E+02  0.00000000000E+00 0. -1.
          2    1    1    2  501    0 -0.36219774445E+02  0.47127095901E+02 -0.64555965332E+02  0.87751398216E+02  0.00000000000E+00 0. -1.
<scales pt_clust_5="13000.00000" pt_clust_6="13000.00000" pt_clust_7="13000.00000" pt_clust_8="13000.00000" pt_clust_9="59.43766"></scales>
<clustering>
<clus scale="   59.438">  2  9  1 -1</clus>
<clus scale="   81.157">  5  6 -1 -1</clus>
<clus scale="   90.724">  2  5  1 -1</clus>
<clus scale="   91.543">  7  8 -1 -1</clus>
<clus scale="   59.438">  2  5  1 -1</clus>
</clustering>
</event>
<event>
 9    1  0.5981539E-005  0.9462801E+02  0.7546771E-02  0.1299177E+00
         21   -1    0    0  501  502  0.00000000000E+00  0.00000000000E+00  0.76288706331E+02  0.76288706331E+02  0.00000000000E+00 0.  1.
          3   -1    0    0  502    0 -0.00000000000E+00 -0.00000000000E+00 -0.30724802477E+03  0.30724802477E+03  0.00000000000E+00 0. -1.
         23    2    1    2    0    0  0.55672541140E+01 -0.18739546070E+02 -0.17672540243E+03  0.20000984626E+03  0.91596429154E+02 0.  0.
        -24    2    1    2    0    0 -0.69571677828E+02 -0.15362802184E+01 -0.17502935961E+02  0.10699688887E+03  0.79368778172E+02 0.  0.
         11    1    4    4    0    0  0.42014681603E+01 -0.22475877024E+02 -0.19841698303E+02  0.30273922346E+02  0.00000000000E+00 0. -1.
        -12    1    4    4    0    0 -0.73773145988E+02  0.20939596805E+02  0.23387623422E+01  0.76722966527E+02  0.00000000000E+00 0.  1.
        -13    1    3    3    0    0 -0.30637470002E+02 -0.40703891666E+02 -0.10525449692E+03  0.11693575367E+03  0.00000000000E+00 0. -1.
         13    1    3    3    0    0  0.36204724116E+02  0.21964345596E+02 -0.71470905504E+02  0.83074092588E+02  0.00000000000E+00 0.  1.
          4    1    1    2  501    0  0.64004423714E+02  0.20275826288E+02 -0.36730980049E+02  0.76529995962E+02  0.00000000000E+00 0. -1.
<scales pt_clust_5="13000.00000" pt_clust_6="13000.00000" pt_clust_7="13000.00000" pt_clust_8="13000.00000" pt_clust_9="67.13922"></scales>
<clustering>
<clus scale="   67.139">  1  9  2 -1</clus>
<clus scale="   79.369">  5  6 -1 -1</clus>
<clus scale="   82.849">  1  5  2 -1</clus>
<clus scale="   91.596">  7  8 -1 -1</clus>
<clus scale="   67.139">  1  5  2 -1</clus>
</clustering>
</event>
<event>
 9    1  0.5981539E-005  0.1320256E+03  0.7546771E-02  0.1227107E+00
         21   -1    0    0  501  502  0.00000000000E+00  0.00000000000E+00  0.61896454410E+03  0.61896454410E+03  0.00000000000E+00 0. -1.
         -2   -1    0    0    0  501 -0.00000000000E+00 -0.00000000000E+00 -0.79484269918E+02  0.79484269918E+02  0.00000000000E+00 0.  1.
        -24    2    1    2    0    0 -0.50195863101E+02  0.82918510032E+02 -0.22011026077E+01  0.12568198653E+03  0.79975076794E+02 0.  0.
         23    2    1    2    0    0  0.45381666881E+01 -0.10076202925E+03  0.42844237049E+03  0.44937278805E+03  0.90550849324E+02 0.  0.
         13    1    3    3    0    0 -0.23576895361E+02  0.72095714491E+02 -0.33737747791E+02  0.83017454001E+02  0.00000000000E+00 0. -1.
        -14    1    3    3    0    0 -0.26618967740E+02  0.10822795541E+02  0.31536645183E+02  0.42664532533E+02  0.00000000000E+00 0.  1.
        -13    1    4    4    0    0 -0.40123091426E+02 -0.68964980687E+02  0.22749730845E+03  0.24108309019E+03  0.00000000000E+00 0. -1.
         13    1    4    4    0    0  0.44661258114E+02 -0.31797048564E+02  0.20094506204E+03  0.20828969786E+03  0.00000000000E+00 0.  1.
         -1    1    1    2    0  502  0.45657696413E+02  0.17843519220E+02  0.11323900630E+03  0.12339403944E+03  0.00000000000E+00 0.  1.
<scales pt_clust_5="13000.00000" pt_clust_6="13000.00000" pt_clust_7="13000.00000" pt_clust_8="13000.00000" pt_clust_9="49.02057"></scales>
<clustering>
<clus scale="   49.021">  1  9  2 -1</clus>
<clus scale="   79.975">  5  6 -1 -1</clus>
<clus scale="   90.551">  7  8 -1 -1</clus>
<clus scale="  125.009">  2  5  1 -1</clus>
<clus scale="   49.021">  1  5  2 -1</clus>
</clustering>
</event>
<event>
 9    1  0.5981539E-005  0.1036342E+03  0.7546771E-02  0.1276783E+00
         -2   -1    0    0    0  501 -0.00000000000E+00  0.00000000000E+00  0.73106624556E+02  0.73106624556E+02  0.00000000000E+00 0.  1.
         21   -1    0    0  501  502  0.00000000000E+00 -0.00000000000E+00 -0.18368466568E+03  0.18368466568E+03  0.00000000000E+00 0.  1.
        -24    2    1    2    0    0 -0.16025347006E+02  0.43019739351E+02 -0.38142859977E+02  0.98594216436E+02  0.78475677932E+02 0.  0.
         23    2    1    2    0    0  0.41939148191E+02 -0.55537939986E+02 -0.58009750191E+02  0.12600509503E+03  0.87571673088E+02 0.  0.
         11    1    3    3    0    0 -0.15181910020E+02 -0.21415092494E+02 -0.14234408980E+02  0.29861597034E+02  0.00000000000E+00 0. -1.
        -12    1    3    3    0    0 -0.84343698567E+00  0.64434831845E+02 -0.23908450997E+02  0.68732619402E+02  0.00000000000E+00 0.  1.
        -13    1    4    4    0    0  0.18195653327E+02 -0.67111304167E+02 -0.68478160078E+02  0.97592352951E+02  0.00000000000E+00 0.  1.
         13    1    4    4    0    0  0.23743494865E+02  0.11573364181E+02  0.10468409887E+02  0.28412742079E+02  0.00000000000E+00 0. -1.
         -1    1    1    2    0  502 -0.25913801186E+02  0.12518200635E+02 -0.14425430961E+02  0.32191978775E+02  0.00000000000E+00 0.  1.
<scales pt_clust_5="13000.00000" pt_clust_6="13000.00000" pt_clust_7="13000.00000" pt_clust_8="13000.00000" pt_clust_9="28.77899"></scales>
<clustering>
<clus scale="   28.779">  2  9  1 -1</clus>
<clus scale="   78.476">  5  6 -1 -1</clus>
<clus scale="   87.572">  7  8 -1 -1</clus>
<clus scale="   96.071">  1  5  2 -1</clus>
<clus scale="   28.779">  2  5  1 -1</clus>
</clustering>
</event>
<event>
 9    1  0.1185161E-004  0.1617027E+03  0.7546771E-02  0.1188239E+00
         21   -1    0    0  501  502  0.00000000000E+00  0.00000000000E+00  0.50703428535E+03  0.50703428535E+03  0.00000000000E+00 0. -1.
          1   -1    0    0  502    0 -0.00000000000E+00 -0.00000000000E+00 -0.72570219291E+03  0.72570219291E+03  0.00000000000E+00 0. -1.
        -24    2    1    2    0    0  0.83735801331E+02 -0.10868551376E+03 -0.69023417013E+03  0.70843786537E+03  0.81466398896E+02 0.  0.
         23    2    1    2    0    0  0.13629643541E+02  0.77676525055E+02  0.19161106510E+03  0.22627764077E+03  0.90925027989E+02 0.  0.
         11    1    3    3    0    0  0.96731112647E+02 -0.10997989305E+03 -0.62930550402E+03  0.64612529932E+03  0.00000000000E+00 0. -1.
        -12    1    3    3    0    0 -0.12995311316E+02  0.12943792930E+01 -0.60928666113E+02  0.62312566054E+02  0.00000000000E+00 0.  1.
        -13    1    4    4    0    0 -0.20806848027E+02  0.82923900794E+02  0.13373197314E+03  0.15872472677E+03  0.00000000000E+00 0.  1.
         13    1    4    4    0    0  0.34436491568E+02 -0.52473757389E+01  0.57879091957E+02  0.67552913997E+02  0.00000000000E+00 0. -1.
          2    1    1    2  501    0 -0.97365444872E+02  0.31008988703E+02  0.27995519747E+03  0.29802097213E+03  0.00000000000E+00 0. -1.
<scales pt_clust_5="13000.00000" pt_clust_6="13000.00000" pt_clust_7="13000.00000" pt_clust_8="13000.00000" pt_clust_9="102.18409"></scales>
<clustering>
<clus scale="   81.466">  5  6 -1 -1</clus>
<clus scale="   90.925">  7  8 -1 -1</clus>
<clus scale="  102.184">  1  9  2 -1</clus>
<clus scale="  156.580">  2  5  1 -1</clus>
<clus scale="  102.184">  1  5  2 -1</clus>
</clustering>
</event>
<event>
 9    1  0.5981539E-005  0.1039928E+03  0.7546771E-02  0.1276058E+00
         21   -1    0    0  501  502  0.00000000000E+00  0.00000000000E+00  0.65758506545E+02  0.65758506545E+02  0.00000000000E+00 0.  1.
         -4   -1    0    0    0  501 -0.00000000000E+00 -0.00000000000E+00 -0.30581602366E+03  0.30581602366E+03  0.00000000000E+00 0.  1.
         23    2    1    2    0    0  0.18206926056E+02 -0.32448650866E+02 -0.83514295618E+02  0.12918810266E+03  0.91271688917E+02 0.  0.
        -24    2    1    2    0    0 -0.59365764164E+02  0.44806676088E+02 -0.39844819182E+02  0.11802691707E+03  0.82527639980E+02 0.  0.
         13    1    4    4    0    0 -0.31768655732E+02 -0.18506773960E+02 -0.31581206128E+02  0.48467728954E+02  0.00000000000E+00 0. -1.
        -14    1    4    4    0    0 -0.27597108432E+02  0.63313450048E+02 -0.82636130539E+01  0.69559188117E+02  0.00000000000E+00 0.  1.
        -11    1    3    3    0    0  0.42346752694E+02 -0.87157300678E+01 -0.47962097705E+01  0.43499598188E+02  0.00000000000E+00 0. -1.
         11    1    3    3    0    0 -0.24139826638E+02 -0.23732920799E+02 -0.78718085847E+02  0.85688504475E+02  0.00000000000E+00 0.  1.
         -3    1    1    2    0  502  0.41158838108E+02 -0.12358025222E+02 -0.11669840231E+03  0.12435951047E+03  0.00000000000E+00 0.  1.
<scales pt_clust_5="13000.00000" pt_clust_6="13000.00000" pt_clust_7="13000.00000" pt_clust_8="13000.00000" pt_clust_9="42.97409"></scales>
<clustering>
<clus scale="   42.974">  1  9  2 -1</clus>
<clus scale="   82.528">  5  6 -1 -1</clus>
<clus scale="   91.272">  7  8 -1 -1</clus>
<clus scale="   96.410">  1  5  2 -1</clus>
<clus scale="   42.974">  1  5  2 -1</clus>
</clustering>
</event>
<event>
 9    1  0.5981539E-005  0.1534094E+03  0.7546771E-02  0.1206775E+00
         21   -1    0    0  501  502  0.00000000000E+00  0.00000000000E+00  0.41812356028E+03  0.41812356028E+03  0.00000000000E+00 0. -1.
         -2   -1    0    0    0  501 -0.00000000000E+00 -0.00000000000E+00 -0.47059264704E+03  0.47059264704E+03  0.00000000000E+00 0.  1.
        -24    2    1    2    0    0  0.74721675730E+02  0.53027631422E+02 -0.36471684808E+03  0.38470295908E+03  0.81134018357E+02 0.  0.
         23    2    1    2    0    0  0.53559455695E+02 -0.11258575579E+03  0.32701031866E+03  0.36181215134E+03  0.91804774645E+02 0.  0.
         11    1    3    3    0    0 -0.25372747654E+01  0.26546278522E+02 -0.29879157840E+02  0.40048804474E+02  0.00000000000E+00 0. -1.
        -12    1    3    3    0    0  0.77258950495E+02  0.26481352900E+02 -0.33483769024E+03  0.34465415460E+03  0.00000000000E+00 0.  1.
        -13    1    4    4    0    0  0.64484423768E+02 -0.54948832907E+02  0.12169907603E+03  0.14828445722E+03  0.00000000000E+00 0. -1.
         13    1    4    4    0    0 -0.10924968073E+02 -0.57636922887E+02  0.20531124263E+03  0.21352769412E+03  0.00000000000E+00 0.  1.
         -1    1    1    2    0  502 -0.12828113142E+03  0.59558124372E+02 -0.14762557347E+02  0.14220109689E+03  0.00000000000E+00 0.  1.
<scales pt_clust_5="13000.00000" pt_clust_6="13000.00000" pt_clust_7="13000.00000" pt_clust_8="13000.00000" pt_clust_9="122.90784"></scales>
<clustering>
<clus scale="   81.134">  5  6 -1 -1</clus>
<clus scale="   91.805">  7  8 -1 -1</clus>
<clus scale="  122.385">  2  5  1 -1</clus>
<clus scale="  122.908">  1  9  2 -1</clus>
<clus scale="  122.908">  1  5  2 -1</clus>
</clustering>
</event>
<event>
 9    1  0.5981539E-005  0.2978332E+03  0.7546771E-02  0.1086329E+00
         21   -1    0    0  501  502  0.00000000000E+00  0.00000000000E+00  0.92302198031E+02  0.92302198031E+02  0.00000000000E+00 0.  1.
         -4   -1    0    0    0  501 -0.00000000000E+00 -0.00000000000E+00 -0.80101672823E+03  0.80101672823E+03  0.00000000000E+00 0.  1.
        -24    2    1    2    0    0  0.16243246938E+02 -0.18620028004E+03 -0.15413690728E+03  0.25551790143E+03  0.81220837286E+02 0.  0.
         23    2    1    2    0    0  0.81902276114E+01 -0.13909892042E+02 -0.83845560781E+02  0.12571729147E+03  0.92272392332E+02 0.  0.
         13    1    3    3    0    0 -0.29199401058E+02 -0.40078497095E+02 -0.50006458229E+02  0.70423978986E+02  0.00000000000E+00 0. -1.
        -14    1    3    3    0    0  0.45442647996E+02 -0.14612178294E+03 -0.10413044905E+03  0.18509392245E+03  0.00000000000E+00 0.  1.
        -13    1    4    4    0    0 -0.48109965079E+00 -0.49053399562E+02 -0.21359949233E+02  0.53504344653E+02  0.00000000000E+00 0.  1.
         13    1    4    4    0    0  0.86713272622E+01  0.35143507520E+02 -0.62485611548E+02  0.72212946816E+02  0.00000000000E+00 0. -1.
         -3    1    1    2    0  502 -0.24433474549E+02  0.20011017208E+03 -0.47073206214E+03  0.51208373336E+03  0.00000000000E+00 0.  1.
<scales pt_clust_5="13000.00000" pt_clust_6="13000.00000" pt_clust_7="13000.00000" pt_clust_8="13000.00000" pt_clust_9="201.59642"></scales>
<clustering>
<clus scale="   81.221">  5  6 -1 -1</clus>
<clus scale="   92.272">  7  8 -1 -1</clus>
<clus scale="   93.603">  5  7 -1 -1</clus>
<clus scale="  201.596">  1  9  2 -1</clus>
<clus scale="  201.596">  1  5  2 -1</clus>
</clustering>
</event>
<event>
 9    1  0.5981539E-005  0.1340026E+03  0.7546771E-02  0.1231747E+00
          3   -1    0    0  502    0 -0.00000000000E+00  0.00000000000E+00  0.30158650554E+02  0.30158650554E+02  0.00000000000E+00 0. -1.
         21   -1    0    0  501  502  0.00000000000E+00 -0.00000000000E+00 -0.13397860000E+04  0.13397860000E+04  0.00000000000E+00 0. -1.
         23    2    1    2    0    0  0.51563604335E+00 -0.57840558178E+02 -0.44493101654E+03  0.45799871940E+03  0.91942489820E+02 0.  0.
        -24    2    1    2    0    0  0.92963722362E+02 -0.70489704980E+01 -0.18024285715E+03  0.21809753140E+03  0.79919359285E+02 0.  0.
         13    1    4    4    0    0  0.87106067376E+02 -0.23557213686E+02 -0.94807520628E+02  0.13088496956E+03  0.00000000000E+00 0. -1.
        -14    1    4    4    0    0  0.58576549856E+01  0.16508243188E+02 -0.85435336522E+02  0.87212561835E+02  0.00000000000E+00 0.  1.
        -13    1    3    3    0    0  0.17933891167E+02 -0.74875895502E+02 -0.39508104942E+03  0.40251342809E+03  0.00000000000E+00 0.  1.
         13    1    3    3    0    0 -0.17418255124E+02  0.17035337324E+02 -0.49849967121E+02  0.55485291306E+02  0.00000000000E+00 0. -1.
          4    1    1    2  501    0 -0.93479358405E+02  0.64889528676E+02 -0.68445347578E+03  0.69384839979E+03  0.00000000000E+00 0. -1.
<scales pt_clust_5="13000.00000" pt_clust_6="13000.00000" pt_clust_7="13000.00000" pt_clust_8="13000.00000" pt_clust_9="107.56203"></scales>
<clustering>
<clus scale="   79.919">  5  6 -1 -1</clus>
<clus scale="   91.942">  7  8 -1 -1</clus>
<clus scale="  108.624">  1  7  2 -1</clus>
<clus scale="  107.562">  2  9  1 -1</clus>
<clus scale="  107.562">  2  5  1 -1</clus>
</clustering>
</event>
<event>
 9    1  0.5981539E-005  0.3100269E+03  0.7546771E-02  0.1080686E+00
          1   -1    0    0  502    0 -0.00000000000E+00  0.00000000000E+00  0.12588121332E+04  0.12588121332E+04  0.00000000000E+00 0. -1.
         21   -1    0    0  501  502  0.00000000000E+00 -0.00000000000E+00 -0.10317086030E+03  0.10317086030E+03  0.00000000000E+00 0.  1.
        -24    2    1    2    0    0  0.16711926491E+03 -0.24322434577E+03  0.65747056416E+03  0.72498520990E+03  0.79051127538E+02 0.  0.
         23    2    1    2    0    0 -0.21312702451E+03  0.21547899332E+03  0.31553853937E+03  0.44662701953E+03  0.89759676957E+02 0.  0.
         11    1    3    3    0    0  0.72887974146E+02 -0.17063506473E+03  0.37141402353E+03  0.41518352443E+03  0.00000000000E+00 0. -1.
        -12    1    3    3    0    0  0.94231290763E+02 -0.72589281041E+02  0.28605654063E+03  0.30980168547E+03  0.00000000000E+00 0.  1.
        -13    1    4    4    0    0 -0.70778277053E+02  0.13237794982E+03  0.16942400559E+03  0.22635807865E+03  0.00000000000E+00 0. -1.
         13    1    4    4    0    0 -0.14234874746E+03  0.83101043498E+02  0.14611453378E+03  0.22026894088E+03  0.00000000000E+00 0.  1.
          2    1    1    2  501    0  0.46007759601E+02  0.27745352452E+02  0.18263216938E+03  0.19037076409E+03  0.00000000000E+00 0. -1.
<scales pt_clust_5="13000.00000" pt_clust_6="13000.00000" pt_clust_7="13000.00000" pt_clust_8="13000.00000" pt_clust_9="53.72636"></scales>
<clustering>
<clus scale="   53.726">  2  9  1 -1</clus>
<clus scale="   79.051">  5  6 -1 -1</clus>
<clus scale="   89.760">  7  8 -1 -1</clus>
<clus scale="  307.098">  1  5  2 -1</clus>
<clus scale="   53.726">  2  5  1 -1</clus>
</clustering>
</event>
<event>
 9    1  0.5981539E-005  0.3124057E+03  0.7546771E-02  0.1086245E+00
          3   -1    0    0  502    0 -0.00000000000E+00  0.00000000000E+00  0.29973032892E+03  0.29973032892E+03  0.00000000000E+00 0. -1.
         21   -1    0    0  501  502  0.00000000000E+00 -0.00000000000E+00 -0.98856072084E+03  0.98856072084E+03  0.00000000000E+00 0. -1.
        -24    2    1    2    0    0 -0.67338483925E+01  0.24541050584E+03 -0.12416126143E+03  0.28690325006E+03  0.81398986254E+02 0.  0.
         23    2    1    2    0    0  0.26418544284E+03  0.94746703912E+02 -0.48430220850E+03  0.56728286655E+03  0.92143016082E+02 0.  0.
         13    1    3    3    0    0  0.54095524532E+01  0.24497577066E+03 -0.11104367046E+03  0.26902246787E+03  0.00000000000E+00 0. -1.
        -14    1    3    3    0    0 -0.12143400846E+02  0.43473517781E+00 -0.13117590974E+02  0.17880782190E+02  0.00000000000E+00 0.  1.
        -11    1    4    4    0    0  0.13433541566E+03  0.94291245746E+02 -0.24247413231E+03  0.29279779331E+03  0.00000000000E+00 0.  1.
         11    1    4    4    0    0  0.12985002718E+03  0.45545816644E+00 -0.24182807618E+03  0.27448507324E+03  0.00000000000E+00 0. -1.
          4    1    1    2  501    0 -0.25745159445E+03 -0.34015720975E+03 -0.80366921986E+02  0.43410493314E+03  0.00000000000E+00 0. -1.
<scales pt_clust_5="13000.00000" pt_clust_6="13000.00000" pt_clust_7="13000.00000" pt_clust_8="13000.00000" pt_clust_9="298.50810"></scales>
<clustering>
<clus scale="   81.399">  5  6 -1 -1</clus>
<clus scale="   92.143">  7  8 -1 -1</clus>
<clus scale="  258.645">  1  5  2 -1</clus>
<clus scale="  298.508">  2  9  1 -1</clus>
<clus scale="  298.508">  2  5  1 -1</clus>
</clustering>
</event>
<event>
 9    1  0.5981539E-005  0.1296934E+03  0.7546771E-02  0.1244596E+00
          1   -1    0    0  502    0 -0.00000000000E+00  0.00000000000E+00  0.66247762439E+02  0.66247762439E+02  0.00000000000E+00 0. -1.
         21   -1    0    0  501  502  0.00000000000E+00 -0.00000000000E+00 -0.38614281922E+03  0.38614281922E+03  0.00000000000E+00 0. -1.
        -24    2    1    2    0    0 -0.21141646837E+02 -0.41983166803E+02 -0.10446003197E+03  0.13934412617E+03  0.79343126303E+02 0.  0.
         23    2    1    2    0    0 -0.73363201438E+02  0.59363124816E+02 -0.12385583171E+03  0.18030619070E+03  0.90906080345E+02 0.  0.
         13    1    3    3    0    0 -0.45751143483E+02 -0.24923922795E+02 -0.94278776688E+02  0.10771655765E+03  0.00000000000E+00 0. -1.
        -14    1    3    3    0    0  0.24609496646E+02 -0.17059244008E+02 -0.10181255285E+02  0.31627568519E+02  0.00000000000E+00 0.  1.
        -13    1    4    4    0    0  0.22493944068E+01 -0.20698503827E+02 -0.22209546335E+02  0.30442598185E+02  0.00000000000E+00 0.  1.
         13    1    4    4    0    0 -0.75612595845E+02  0.80061628643E+02 -0.10164628537E+03  0.14986359252E+03  0.00000000000E+00 0. -1.
          2    1    1    2  501    0  0.94504848276E+02 -0.17379958013E+02 -0.91579193096E+02  0.13274026479E+03  0.00000000000E+00 0. -1.
<scales pt_clust_5="13000.00000" pt_clust_6="13000.00000" pt_clust_7="13000.00000" pt_clust_8="13000.00000" pt_clust_9="92.50121"></scales>
<clustering>
<clus scale="   79.343">  5  6 -1 -1</clus>
<clus scale="   90.906">  7  8 -1 -1</clus>
<clus scale="   92.222">  1  5  2 -1</clus>
<clus scale="   92.501">  2  9  1 -1</clus>
<clus scale="   92.501">  2  5  1 -1</clus>
</clustering>
</event>
<event>
 9    1  0.5981539E-005  0.1657497E+03  0.7546771E-02  0.1183949E+00
          1   -1    0    0  502    0 -0.00000000000E+00  0.00000000000E+00  0.67706620966E+03  0.67706620966E+03  0.00000000000E+00 0. -1.
         21   -1    0    0  501  502  0.00000000000E+00 -0.00000000000E+00 -0.74934558902E+02  0.74934558902E+02  0.00000000000E+00 0.  1.
         23    2    1    2    0    0 -0.89611142877E+02 -0.10319154019E+03  0.46645634088E+03  0.49454695105E+03  0.91194944753E+02 0.  0.
        -24    2    1    2    0    0  0.66780351926E+02  0.13312855133E+03  0.72743354198E+02  0.18411964610E+03  0.80159977020E+02 0.  0.
         13    1    4    4    0    0  0.34250371154E+02  0.66855170331E+01  0.32005448294E+02  0.47351164534E+02  0.00000000000E+00 0. -1.
        -14    1    4    4    0    0  0.32529980772E+02  0.12644303430E+03  0.40737905903E+02  0.13676848156E+03  0.00000000000E+00 0.  1.
        -13    1    3    3    0    0 -0.88579345085E+02 -0.67841979647E+02  0.42799086595E+03  0.44229516831E+03  0.00000000000E+00 0. -1.
         13    1    3    3    0    0 -0.10317977920E+01 -0.35349560542E+02  0.38465474935E+02  0.52251782737E+02  0.00000000000E+00 0.  1.
          2    1    1    2  501    0  0.22830790951E+02 -0.29937011144E+02  0.62931955681E+02  0.73334171418E+02  0.00000000000E+00 0. -1.
<scales pt_clust_5="13000.00000" pt_clust_6="13000.00000" pt_clust_7="13000.00000" pt_clust_8="13000.00000" pt_clust_9="37.64932"></scales>
<clustering>
<clus scale="   37.649">  2  9  1 -1</clus>
<clus scale="   80.160">  5  6 -1 -1</clus>
<clus scale="   91.195">  7  8 -1 -1</clus>
<clus scale="  159.944">  2  5  1 -1</clus>
<clus scale="   37.649">  2  5  1 -1</clus>
</clustering>
</event>
<event>
 9    1  0.6770792E-005  0.1228141E+03  0.7546771E-02  0.1257823E+00
          1   -1    0    0  502    0 -0.00000000000E+00  0.00000000000E+00  0.37505719491E+03  0.37505719491E+03  0.00000000000E+00 0. -1.
         21   -1    0    0  501  502  0.00000000000E+00 -0.00000000000E+00 -0.94454994360E+02  0.94454994360E+02  0.00000000000E+00 0.  1.
        -24    2    1    2    0    0  0.29490646723E+02  0.25872189536E+01  0.58233116344E+02  0.10173984751E+03  0.77996851131E+02 0.  0.
         23    2    1    2    0    0  0.22756774673E+02 -0.72511930865E+02 -0.72472440252E+01  0.12212438926E+03  0.95320475208E+02 0.  0.
         11    1    3    3    0    0 -0.38244276250E+01 -0.33342574019E+02  0.30970862604E+02  0.45667798495E+02  0.00000000000E+00 0. -1.
        -12    1    3    3    0    0  0.33315074348E+02  0.35929792973E+02  0.27262253740E+02  0.56072049016E+02  0.00000000000E+00 0.  1.
        -13    1    4    4    0    0  0.50153632725E+02 -0.60734635493E+02 -0.30340111685E+02  0.84407376461E+02  0.00000000000E+00 0.  1.
         13    1    4    4    0    0 -0.27396858052E+02 -0.11777295372E+02  0.23092867660E+02  0.37717012795E+02  0.00000000000E+00 0. -1.
          2    1    1    2  501    0 -0.52247421396E+02  0.69924711912E+02  0.22961632823E+03  0.24564795250E+03  0.00000000000E+00 0. -1.
<scales pt_clust_5="13000.00000" pt_clust_6="13000.00000" pt_clust_7="13000.00000" pt_clust_8="13000.00000" pt_clust_9="77.44227"></scales>
<clustering>
<clus scale="   77.997">  5  6 -1 -1</clus>
<clus scale="   83.426">  1  5  2 -1</clus>
<clus scale="   77.442">  2  9  1 -1</clus>
<clus scale="   95.320">  7  8 -1 -1</clus>
<clus scale="   77.442">  2  5  1 -1</clus>
</clustering>
</event>
<event>
 9    1  0.5981539E-005  0.2397908E+03  0.7546771E-02  0.1163703E+00
         -4   -1    0    0    0  501 -0.00000000000E+00  0.00000000000E+00  0.37021110515E+03  0.37021110515E+03  0.00000000000E+00 0.  1.
         21   -1    0    0  501  502  0.00000000000E+00 -0.00000000000E+00 -0.32931597540E+03  0.32931597540E+03  0.00000000000E+00 0.  1.
        -24    2    1    2    0    0  0.33053521032E+01 -0.21313029053E+02 -0.80066211556E+02  0.11581473986E+03  0.80853479682E+02 0.  0.
         23    2    1    2    0    0 -0.19934236848E+03  0.11834413721E+03  0.22985878826E+03  0.33936790819E+03  0.92697356442E+02 0.  0.
         13    1    3    3    0    0  0.10995212352E+02  0.24033736119E+02 -0.60137140148E+02  0.65688589509E+02  0.00000000000E+00 0. -1.
        -14    1    3    3    0    0 -0.76898602490E+01 -0.45346765171E+02 -0.19929071408E+02  0.50126150354E+02  0.00000000000E+00 0.  1.
        -11    1    4    4    0    0 -0.73350105987E+02  0.14277591526E+02  0.12363781955E+03  0.14446590633E+03  0.00000000000E+00 0. -1.
         11    1    4    4    0    0 -0.12599226249E+03  0.10406654568E+03  0.10622096870E+03  0.19490200186E+03  0.00000000000E+00 0.  1.
         -3    1    1    2    0  502  0.19603701637E+03 -0.97031108158E+02 -0.10889744695E+03  0.24434443249E+03  0.00000000000E+00 0.  1.
<scales pt_clust_5="13000.00000" pt_clust_6="13000.00000" pt_clust_7="13000.00000" pt_clust_8="13000.00000" pt_clust_9="221.14889"></scales>
<clustering>
<clus scale="   80.853">  5  6 -1 -1</clus>
<clus scale="   83.681">  1  5  2 -1</clus>
<clus scale="   92.697">  7  8 -1 -1</clus>
<clus scale="  221.149">  2  9  1 -1</clus>
<clus scale="  221.149">  2  5  1 -1</clus>
</clustering>
</event>
<event>
 9    1  0.5981539E-005  0.9365502E+02  0.7546771E-02  0.1300100E+00
         21   -1    0    0  501  502  0.00000000000E+00  0.00000000000E+00  0.94943966646E+02  0.94943966646E+02  0.00000000000E+00 0.  1.
          1   -1    0    0  502    0 -0.00000000000E+00 -0.00000000000E+00 -0.21673285374E+03  0.21673285374E+03  0.00000000000E+00 0. -1.
         23    2    1    2    0    0  0.70177232641E+01 -0.13023239563E+02 -0.15379005878E+03  0.17968254503E+03  0.91736479105E+02 0.  0.
        -24    2    1    2    0    0 -0.17018008605E+02  0.38330679173E+02  0.44339514491E+02  0.10211607411E+03  0.81870913422E+02 0.  0.
         13    1    4    4    0    0  0.22814348317E+02 -0.51665153004E+01  0.35446854168E+02  0.42469599008E+02  0.00000000000E+00 0. -1.
        -14    1    4    4    0    0 -0.39832356922E+02  0.43497194473E+02  0.88926603226E+01  0.59646475106E+02  0.00000000000E+00 0.  1.
        -11    1    3    3    0    0  0.23270607190E+02  0.12619481103E+02 -0.39108662242E+01  0.26759434540E+02  0.00000000000E+00 0.  1.
         11    1    3    3    0    0 -0.16252883926E+02 -0.25642720666E+02 -0.14987919256E+03  0.15292311049E+03  0.00000000000E+00 0. -1.
          2    1    1    2  501    0  0.10000285341E+02 -0.25307439610E+02 -0.12338342801E+02  0.29878201244E+02  0.00000000000E+00 0. -1.
<scales pt_clust_5="13000.00000" pt_clust_6="13000.00000" pt_clust_7="13000.00000" pt_clust_8="13000.00000" pt_clust_9="27.21163"></scales>
<clustering>
<clus scale="   27.212">  1  9  2 -1</clus>
<clus scale="   81.871">  5  6 -1 -1</clus>
<clus scale="   84.015">  1  5  2 -1</clus>
<clus scale="   91.736">  7  8 -1 -1</clus>
<clus scale="   27.212">  1  5  2 -1</clus>
</clustering>
</event>
<event>
 9    1  0.5981539E-005  0.1040559E+03  0.7546771E-02  0.1274792E+00
          1   -1    0    0  502    0 -0.00000000000E+00  0.00000000000E+00  0.13566231181E+03  0.13566231181E+03  0.00000000000E+00 0. -1.
         21   -1    0    0  501  502  0.00000000000E+00 -0.00000000000E+00 -0.21539010237E+03  0.21539010237E+03  0.00000000000E+00 0.  1.
        -24    2    1    2    0    0  0.56608465581E+02 -0.29048647165E+02  0.90361408362E+02  0.13604842736E+03  0.79345120759E+02 0.  0.
         23    2    1    2    0    0 -0.31383592600E+02  0.14453200303E+02 -0.87725929194E+02  0.12763677623E+03  0.86031872637E+02 0.  0.
         11    1    3    3    0    0  0.60906881410E+02 -0.45531239819E+02  0.91502162034E+02  0.11897641640E+03  0.00000000000E+00 0. -1.
        -12    1    3    3    0    0 -0.42984158289E+01  0.16482592654E+02 -0.11407536722E+01  0.17072010959E+02  0.00000000000E+00 0.  1.
        -11    1    4    4    0    0 -0.23943130518E+02 -0.33792912413E+02 -0.25842517449E+02  0.48816699361E+02  0.00000000000E+00 0. -1.
         11    1    4    4    0    0 -0.74404620818E+01  0.48246112715E+02 -0.61883411744E+02  0.78820076867E+02  0.00000000000E+00 0.  1.
          2    1    1    2  501    0 -0.25224872981E+02  0.14595446863E+02 -0.82363269732E+02  0.87367210594E+02  0.00000000000E+00 0. -1.
<scales pt_clust_5="13000.00000" pt_clust_6="13000.00000" pt_clust_7="13000.00000" pt_clust_8="13000.00000" pt_clust_9="29.14312"></scales>
<clustering>
<clus scale="   29.143">  2  9  1 -1</clus>
<clus scale="   79.345">  5  6 -1 -1</clus>
<clus scale="   86.032">  7  8 -1 -1</clus>
<clus scale="   98.599">  1  5  2 -1</clus>
<clus scale="   29.143">  2  5  1 -1</clus>
</clustering>
</event>
<event>
 9    1  0.5981539E-005  0.1390625E+03  0.7546771E-02  0.1218821E+00
         21   -1    0    0  501  502  0.00000000000E+00  0.00000000000E+00  0.20449494701E+03  0.20449494701E+03  0.00000000000E+00 0.  1.
         -4   -1    0    0    0  501 -0.00000000000E+00 -0.00000000000E+00 -0.18847728547E+03  0.18847728547E+03  0.00000000000E+00 0.  1.
        -24    2    1    2    0    0  0.28738868817E+01 -0.11188173289E+03 -0.57909282587E+02  0.15051355708E+03  0.82310779809E+02 0.  0.
         23    2    1    2    0    0  0.31591404339E+02  0.77685585402E+02 -0.24650530084E+02  0.13257350251E+03  0.99674560078E+02 0.  0.
         11    1    3    3    0    0  0.17589384942E+02 -0.20431393967E+02  0.16580633465E+02  0.31650366952E+02  0.00000000000E+00 0. -1.
        -12    1    3    3    0    0 -0.14715498060E+02 -0.91450338927E+02 -0.74489916053E+02  0.11886319012E+03  0.00000000000E+00 0.  1.
        -11    1    4    4    0    0  0.57492606250E+02  0.61938031661E+02  0.11620147337E+02  0.85303853158E+02  0.00000000000E+00 0. -1.
         11    1    4    4    0    0 -0.25901201910E+02  0.15747553741E+02 -0.36270677421E+02  0.47269649351E+02  0.00000000000E+00 0.  1.
         -3    1    1    2    0  502 -0.34465291221E+02  0.34196147491E+02  0.98577474209E+02  0.10988517290E+03  0.00000000000E+00 0.  1.
<scales pt_clust_5="13000.00000" pt_clust_6="13000.00000" pt_clust_7="13000.00000" pt_clust_8="13000.00000" pt_clust_9="48.55134"></scales>
<clustering>
<clus scale="   48.551">  1  9  2 -1</clus>
<clus scale="   82.311">  5  6 -1 -1</clus>
<clus scale="   99.675">  7  8 -1 -1</clus>
<clus scale="  127.194">  2  5  1 -1</clus>
<clus scale="   48.551">  1  5  2 -1</clus>
</clustering>
</event>
<event>
 9    1  0.5981539E-005  0.9262210E+02  0.7546771E-02  0.1303477E+00
          1   -1    0    0  502    0 -0.00000000000E+00  0.00000000000E+00  0.12341497996E+03  0.12341497996E+03  0.00000000000E+00 0. -1.
         21   -1    0    0  501  502  0.00000000000E+00 -0.00000000000E+00 -0.24999397855E+03  0.24999397855E+03  0.00000000000E+00 0.  1.
         23    2    1    2    0    0 -0.47584395771E+01  0.24388666831E+02  0.81058807464E+02  0.12439486381E+03  0.91028028972E+02 0.  0.
        -24    2    1    2    0    0 -0.39981973588E+01  0.26195239982E+02 -0.10753643312E+03  0.13651656058E+03  0.79815478984E+02 0.  0.
         13    1    4    4    0    0  0.22149536939E+02 -0.25441002608E+01 -0.12697981168E+00  0.22295527727E+02  0.00000000000E+00 0. -1.
        -14    1    4    4    0    0 -0.26147734298E+02  0.28739340243E+02 -0.10740945331E+03  0.11422103286E+03  0.00000000000E+00 0.  1.
        -11    1    3    3    0    0 -0.45968989578E+02  0.17435330373E+02  0.60079542231E+02  0.77631759885E+02  0.00000000000E+00 0.  1.
         11    1    3    3    0    0  0.41210550001E+02  0.69533364576E+01  0.20979265233E+02  0.46763103928E+02  0.00000000000E+00 0. -1.
          2    1    1    2  501    0  0.87566369359E+01 -0.50583906813E+02 -0.10010137293E+03  0.11249753411E+03  0.00000000000E+00 0. -1.
<scales pt_clust_5="13000.00000" pt_clust_6="13000.00000" pt_clust_7="13000.00000" pt_clust_8="13000.00000" pt_clust_9="51.33625"></scales>
<clustering>
<clus scale="   51.336">  2  9  1 -1</clus>
<clus scale="   79.815">  5  6 -1 -1</clus>
<clus scale="   81.629">  2  5  1 -1</clus>
<clus scale="   91.028">  7  8 -1 -1</clus>
<clus scale="   51.336">  2  5  1 -1</clus>
</clustering>
</event>
<event>
 9    1  0.5981539E-005  0.1049108E+03  0.7546771E-02  0.1275840E+00
          1   -1    0    0  502    0 -0.00000000000E+00  0.00000000000E+00  0.30558894818E+03  0.30558894818E+03  0.00000000000E+00 0. -1.
         21   -1    0    0  501  502  0.00000000000E+00 -0.00000000000E+00 -0.10971136523E+03  0.10971136523E+03  0.00000000000E+00 0. -1.
         23    2    1    2    0    0 -0.51049026111E+02  0.12209824381E+02  0.20326076792E+03  0.22936613660E+03  0.92405638169E+02 0.  0.
        -24    2    1    2    0    0  0.41134644624E+02  0.53005786623E+02 -0.40531318900E+02  0.11210891242E+03  0.80149535416E+02 0.  0.
         11    1    4    4    0    0  0.42431994800E+02  0.13203047322E+02 -0.54123263193E+02  0.70029438524E+02  0.00000000000E+00 0. -1.
        -12    1    4    4    0    0 -0.12973501766E+01  0.39802739301E+02  0.13591944293E+02  0.42079473891E+02  0.00000000000E+00 0.  1.
        -11    1    3    3    0    0 -0.12719126478E+02 -0.38840372781E+02  0.99132418034E+02  0.10722680188E+03  0.00000000000E+00 0.  1.
         11    1    3    3    0    0 -0.38329899633E+02  0.51050197162E+02  0.10412834989E+03  0.12213933472E+03  0.00000000000E+00 0. -1.
          2    1    1    2  501    0  0.99143814875E+01 -0.65215611004E+02  0.33148133933E+02  0.73825264389E+02  0.00000000000E+00 0. -1.
<scales pt_clust_5="13000.00000" pt_clust_6="13000.00000" pt_clust_7="13000.00000" pt_clust_8="13000.00000" pt_clust_9="65.96492"></scales>
<clustering>
<clus scale="   65.965">  2  9  1 -1</clus>
<clus scale="   80.150">  5  6 -1 -1</clus>
<clus scale="   92.406">  7  8 -1 -1</clus>
<clus scale="   94.294">  2  5  1 -1</clus>
<clus scale="   65.965">  2  5  1 -1</clus>
</clustering>
</event>
<event>
 9    1  0.5981539E-005  0.1241531E+03  0.7546771E-02  0.1240627E+00
          1   -1    0    0  502    0 -0.00000000000E+00  0.00000000000E+00  0.79597301718E+02  0.79597301718E+02  0.00000000000E+00 0. -1.
         21   -1    0    0  501  502  0.00000000000E+00 -0.00000000000E+00 -0.38908303406E+03  0.38908303406E+03  0.00000000000E+00 0.  1.
        -24    2    1    2    0    0  0.39607099099E+02  0.91813723371E+02 -0.57647245141E+02  0.14055501574E+03  0.80212377346E+02 0.  0.
         23    2    1    2    0    0 -0.21620844566E+00 -0.35587706599E+02 -0.23754155228E+03  0.25800107617E+03  0.94191478601E+02 0.  0.
         13    1    3    3    0    0  0.16442755228E+02  0.98090348064E+02 -0.60455931253E+02  0.11639158134E+03  0.00000000000E+00 0. -1.
        -14    1    3    3    0    0  0.23164343870E+02 -0.62766246923E+01  0.28086861124E+01  0.24163434403E+02  0.00000000000E+00 0.  1.
        -13    1    4    4    0    0  0.23583553209E+02  0.20683964198E+02 -0.13535321933E+03  0.13894065043E+03  0.00000000000E+00 0. -1.
         13    1    4    4    0    0 -0.23799761655E+02 -0.56271670797E+02 -0.10218833294E+03  0.11906042575E+03  0.00000000000E+00 0.  1.
          2    1    1    2  501    0 -0.39390890653E+02 -0.56226016773E+02 -0.14296934918E+02  0.70124243858E+02  0.00000000000E+00 0. -1.
<scales pt_clust_5="13000.00000" pt_clust_6="13000.00000" pt_clust_7="13000.00000" pt_clust_8="13000.00000" pt_clust_9="68.65138"></scales>
<clustering>
<clus scale="   68.651">  2  9  1 -1</clus>
<clus scale="   80.212">  5  6 -1 -1</clus>
<clus scale="   94.191">  7  8 -1 -1</clus>
<clus scale="  113.912">  1  5  2 -1</clus>
<clus scale="   68.651">  2  5  1 -1</clus>
</clustering>
</event>
<event>
 9    1  0.5981539E-005  0.1165963E+03  0.7546771E-02  0.1252318E+00
         21   -1    0    0  501  502  0.00000000000E+00  0.00000000000E+00  0.60261083966E+03  0.60261083966E+03  0.00000000000E+00 0. -1.
          3   -1    0    0  502    0 -0.00000000000E+00 -0.00000000000E+00 -0.50344491759E+02  0.50344491759E+02  0.00000000000E+00 0. -1.
         23    2    1    2    0    0 -0.86578372043E+02  0.12631010285E+02  0.14865604836E+03  0.19456310924E+03  0.90004587859E+02 0.  0.
        -24    2    1    2    0    0  0.47727222609E+02  0.75071485646E+02  0.19219385218E+03  0.22623267829E+03  0.79555843124E+02 0.  0.
         13    1    4    4    0    0  0.28488724573E+02  0.86807091600E+02  0.12139375477E+03  0.15193262414E+03  0.00000000000E+00 0. -1.
        -14    1    4    4    0    0  0.19238498036E+02 -0.11735605954E+02  0.70800097411E+02  0.74300054154E+02  0.00000000000E+00 0.  1.
        -13    1    3    3    0    0 -0.16516899538E+02  0.18482695478E+02  0.11308791924E+03  0.11577260246E+03  0.00000000000E+00 0.  1.
         13    1    3    3    0    0 -0.70061472505E+02 -0.58516851926E+01  0.35568129120E+02  0.78790506777E+02  0.00000000000E+00 0. -1.
          4    1    1    2  501    0  0.38851149434E+02 -0.87702495931E+02  0.21141644736E+03  0.23215954389E+03  0.00000000000E+00 0. -1.
<scales pt_clust_5="13000.00000" pt_clust_6="13000.00000" pt_clust_7="13000.00000" pt_clust_8="13000.00000" pt_clust_9="95.92257"></scales>
<clustering>
<clus scale="   79.556">  5  6 -1 -1</clus>
<clus scale="   90.005">  7  8 -1 -1</clus>
<clus scale="   95.923">  1  9  2 -1</clus>
<clus scale="  108.734">  1  5  2 -1</clus>
<clus scale="   95.923">  1  5  2 -1</clus>
</clustering>
</event>
<event>
 9    1  0.5981539E-005  0.2355274E+03  0.7546771E-02  0.1144189E+00
         21   -1    0    0  501  502  0.00000000000E+00  0.00000000000E+00  0.84998219044E+03  0.84998219044E+03  0.00000000000E+00 0. -1.
          3   -1    0    0  502    0 -0.00000000000E+00 -0.00000000000E+00 -0.13824612543E+03  0.13824612543E+03  0.00000000000E+00 0. -1.
         23    2    1    2    0    0  0.31100454171E+02  0.11465193647E+03  0.41424782899E+02  0.14578135717E+03  0.73647041181E+02 0.  0.
        -24    2    1    2    0    0 -0.11647378616E+03  0.15683656780E+03  0.38465553729E+03  0.43921772076E+03  0.82392184118E+02 0.  0.
         13    1    4    4    0    0 -0.95664349361E+02  0.69762860190E+02  0.17546629308E+03  0.21167650887E+03  0.00000000000E+00 0. -1.
        -14    1    4    4    0    0 -0.20809436802E+02  0.87073707610E+02  0.20918924421E+03  0.22754121190E+03  0.00000000000E+00 0.  1.
        -11    1    3    3    0    0 -0.19894862836E+02  0.28837129062E+02 -0.55270429689E+01  0.35467362233E+02  0.00000000000E+00 0. -1.
         11    1    3    3    0    0  0.50995317007E+02  0.85814807412E+02  0.46951825868E+02  0.11031399494E+03  0.00000000000E+00 0.  1.
          4    1    1    2  501    0  0.85373331991E+02 -0.27148850427E+03  0.28565574483E+03  0.40322923793E+03  0.00000000000E+00 0. -1.
<scales pt_clust_5="13000.00000" pt_clust_6="13000.00000" pt_clust_7="13000.00000" pt_clust_8="13000.00000" pt_clust_9="220.64616"></scales>
<clustering>
<clus scale="   73.647">  7  8 -1 -1</clus>
<clus scale="   82.392">  5  6 -1 -1</clus>
<clus scale="  139.772">  2  7  1 -1</clus>
<clus scale="  220.646">  1  9  2 -1</clus>
<clus scale="  220.646">  1  5  2 -1</clus>
</clustering>
</event>
<event>
 9    1  0.5981539E-005  0.1172017E+03  0.7546771E-02  0.1250425E+00
         21   -1    0    0  501  502  0.00000000000E+00  0.00000000000E+00  0.40264423572E+02  0.40264423572E+02  0.00000000000E+00 0. -1.
          1   -1    0    0  502    0 -0.00000000000E+00 -0.00000000000E+00 -0.96764132575E+03  0.96764132575E+03  0.00000000000E+00 0. -1.
        -24    2    1    2    0    0  0.87354583079E+00 -0.74681868489E+02 -0.81927881400E+03  0.82682401964E+03  0.82716623578E+02 0.  0.
         23    2    1    2    0    0 -0.26645034922E+02  0.70102799849E+02 -0.77843925822E+02  0.14107608184E+03  0.90655521882E+02 0.  0.
         13    1    3    3    0    0  0.14037186343E+02 -0.77421666071E+02 -0.41927479997E+03  0.42659408677E+03  0.00000000000E+00 0. -1.
        -14    1    3    3    0    0 -0.13163640512E+02  0.27397975818E+01 -0.40000401403E+03  0.40022993286E+03  0.00000000000E+00 0.  1.
        -11    1    4    4    0    0  0.29460553489E+02  0.43705669334E+02 -0.20295679368E+02  0.56480300503E+02  0.00000000000E+00 0.  1.
         11    1    4    4    0    0 -0.56105588411E+02  0.26397130514E+02 -0.57548246454E+02  0.84595781339E+02  0.00000000000E+00 0. -1.
          2    1    1    2  501    0  0.25771489091E+02  0.45790686407E+01 -0.30254162355E+02  0.40005647843E+02  0.00000000000E+00 0. -1.
<scales pt_clust_5="13000.00000" pt_clust_6="13000.00000" pt_clust_7="13000.00000" pt_clust_8="13000.00000" pt_clust_9="26.17513"></scales>
<clustering>
<clus scale="   26.175">  1  9  2 -1</clus>
<clus scale="   82.717">  5  6 -1 -1</clus>
<clus scale="   90.656">  7  8 -1 -1</clus>
<clus scale="  111.175">  2  5  1 -1</clus>
<clus scale="   26.175">  1  5  2 -1</clus>
</clustering>
</event>
<event>
 9    1  0.5981539E-005  0.1060652E+03  0.7546771E-02  0.1274780E+00
         21   -1    0    0  501  502  0.00000000000E+00  0.00000000000E+00  0.14278310386E+03  0.14278310386E+03  0.00000000000E+00 0. -1.
         -4   -1    0    0    0  501 -0.00000000000E+00 -0.00000000000E+00 -0.23959000377E+03  0.23959000377E+03  0.00000000000E+00 0.  1.
        -24    2    1    2    0    0  0.39057047918E+01  0.44208817549E+02 -0.91398878020E+02  0.12693248197E+03  0.76081706066E+02 0.  0.
         23    2    1    2    0    0 -0.21792300931E+02 -0.11019421751E+03  0.63685043687E+02  0.15824054829E+03  0.91469210009E+02 0.  0.
         11    1    3    3    0    0  0.13078439600E+02 -0.16665593230E+02 -0.45349107557E+02  0.50053262993E+02  0.00000000000E+00 0. -1.
        -12    1    3    3    0    0 -0.91727348085E+01  0.60874410779E+02 -0.46049770463E+02  0.76879218982E+02  0.00000000000E+00 0.  1.
        -13    1    4    4    0    0 -0.40525491343E+02 -0.68258669008E+02 -0.41579265537E+00  0.79383463183E+02  0.00000000000E+00 0.  1.
         13    1    4    4    0    0  0.18733190412E+02 -0.41935548505E+02  0.64100836342E+02  0.78857085104E+02  0.00000000000E+00 0. -1.
         -3    1    1    2    0  502  0.17886596139E+02  0.65985399964E+02 -0.69093065581E+02  0.97200077373E+02  0.00000000000E+00 0.  1.
<scales pt_clust_5="13000.00000" pt_clust_6="13000.00000" pt_clust_7="13000.00000" pt_clust_8="13000.00000" pt_clust_9="68.36672"></scales>
<clustering>
<clus scale="   68.367">  1  9  2 -1</clus>
<clus scale="   76.082">  5  6 -1 -1</clus>
<clus scale="   91.469">  7  8 -1 -1</clus>
<clus scale="   93.122">  2  5  1 -1</clus>
<clus scale="   68.367">  1  5  2 -1</clus>
</clustering>
</event>
<event>
 9    1  0.5981539E-005  0.1440134E+03  0.7546771E-02  0.1224847E+00
         21   -1    0    0  501  502  0.00000000000E+00  0.00000000000E+00  0.28411930200E+03  0.28411930200E+03  0.00000000000E+00 0. -1.
         -2   -1    0    0    0  501 -0.00000000000E+00 -0.00000000000E+00 -0.16370332768E+03  0.16370332768E+03  0.00000000000E+00 0.  1.
        -24    2    1    2    0    0 -0.21965064427E+01  0.53642865018E+02  0.13794991159E+03  0.17094249573E+03  0.85491386293E+02 0.  0.
         23    2    1    2    0    0 -0.13912383180E+02  0.72967712055E+02 -0.73088334461E+02  0.13768234087E+03  0.89981558920E+02 0.  0.
         13    1    3    3    0    0  0.40204503187E+02  0.23105772553E+02  0.83264853322E+02  0.95306424760E+02  0.00000000000E+00 0. -1.
        -14    1    3    3    0    0 -0.42401009630E+02  0.30537092466E+02  0.54685058270E+02  0.75636070970E+02  0.00000000000E+00 0.  1.
        -11    1    4    4    0    0  0.12653459522E+02 -0.17739120164E+02 -0.95289289386E+01  0.23782071163E+02  0.00000000000E+00 0. -1.
         11    1    4    4    0    0 -0.26565842702E+02  0.90706832219E+02 -0.63559405522E+02  0.11390026971E+03  0.00000000000E+00 0.  1.
         -1    1    1    2    0  502  0.16108889623E+02 -0.12661057707E+03  0.55554397180E+02  0.13919779308E+03  0.00000000000E+00 0.  1.
<scales pt_clust_5="13000.00000" pt_clust_6="13000.00000" pt_clust_7="13000.00000" pt_clust_8="13000.00000" pt_clust_9="112.44192"></scales>
<clustering>
<clus scale="   85.491">  5  6 -1 -1</clus>
<clus scale="   89.982">  7  8 -1 -1</clus>
<clus scale="  100.951">  2  5  1 -1</clus>
<clus scale="  112.442">  1  9  2 -1</clus>
<clus scale="  112.442">  1  5  2 -1</clus>
</clustering>
</event>
<event>
 9    1  0.5981539E-005  0.1249381E+03  0.7546771E-02  0.1238896E+00
          1   -1    0    0  502    0 -0.00000000000E+00  0.00000000000E+00  0.62752147438E+03  0.62752147438E+03  0.00000000000E+00 0. -1.
         21   -1    0    0  501  502  0.00000000000E+00 -0.00000000000E+00 -0.34493884696E+02  0.34493884696E+02  0.00000000000E+00 0.  1.
         23    2    1    2    0    0  0.82159304273E+02  0.74959004455E+01  0.41749114664E+03  0.43600518217E+03  0.94843669041E+02 0.  0.
        -24    2    1    2    0    0 -0.75803045557E+02 -0.28436310061E+02  0.16575344213E+03  0.20203915509E+03  0.82406863587E+02 0.  0.
         11    1    4    4    0    0  0.18283636921E+01  0.21975146134E+02  0.42707137895E+02  0.48064015528E+02  0.00000000000E+00 0. -1.
        -12    1    4    4    0    0 -0.77631409249E+02 -0.50411456196E+02  0.12304630424E+03  0.15397513957E+03  0.00000000000E+00 0.  1.
        -13    1    3    3    0    0 -0.63015773344E+01 -0.26598725099E+02  0.56384107429E+02  0.62660750270E+02  0.00000000000E+00 0.  1.
         13    1    3    3    0    0  0.88460881607E+02  0.34094625544E+02  0.36110703921E+03  0.37334443191E+03  0.00000000000E+00 0. -1.
          2    1    1    2  501    0 -0.63562587159E+01  0.20940409616E+02  0.97830009086E+01  0.23971021808E+02  0.00000000000E+00 0. -1.
<scales pt_clust_5="13000.00000" pt_clust_6="13000.00000" pt_clust_7="13000.00000" pt_clust_8="13000.00000" pt_clust_9="21.88385"></scales>
<clustering>
<clus scale="   21.884">  2  9  1 -1</clus>
<clus scale="   82.407">  5  6 -1 -1</clus>
<clus scale="   94.844">  7  8 -1 -1</clus>
<clus scale="  115.780">  2  5  1 -1</clus>
<clus scale="   21.884">  2  5  1 -1</clus>
</clustering>
</event>
<event>
 9    1  0.5981539E-005  0.1109618E+03  0.7546771E-02  0.1266254E+00
          3   -1    0    0  502    0 -0.00000000000E+00  0.00000000000E+00  0.70435633062E+02  0.70435633062E+02  0.00000000000E+00 0. -1.
         21   -1    0    0  501  502  0.00000000000E+00 -0.00000000000E+00 -0.34250668468E+03  0.34250668468E+03  0.00000000000E+00 0.  1.
         23    2    1    2    0    0 -0.42945058269E+01 -0.66228279889E+02 -0.14807779177E+02  0.11588850957E+03  0.93841613846E+02 0.  0.
        -24    2    1    2    0    0  0.31500568067E+02  0.30049236094E+02 -0.22555860294E+03  0.24178827550E+03  0.75429731770E+02 0.  0.
         11    1    4    4    0    0  0.30820546934E+02  0.23198182217E+02 -0.38152133805E+02  0.54255387616E+02  0.00000000000E+00 0. -1.
        -12    1    4    4    0    0  0.68002113328E+00  0.68510538775E+01 -0.18740646913E+03  0.18753288789E+03  0.00000000000E+00 0.  1.
        -11    1    3    3    0    0  0.27153473130E+02 -0.74852122878E+02 -0.21763859330E+02  0.82545847718E+02  0.00000000000E+00 0. -1.
         11    1    3    3    0    0 -0.31447978957E+02  0.86238429898E+01  0.69560801540E+01  0.33342661854E+02  0.00000000000E+00 0.  1.
          4    1    1    2  501    0 -0.27206062241E+02  0.36179043794E+02 -0.31704669509E+02  0.55265532669E+02  0.00000000000E+00 0. -1.
<scales pt_clust_5="13000.00000" pt_clust_6="13000.00000" pt_clust_7="13000.00000" pt_clust_8="13000.00000" pt_clust_9="45.26693"></scales>
<clustering>
<clus scale="   45.267">  2  9  1 -1</clus>
<clus scale="   75.430">  5  6 -1 -1</clus>
<clus scale="   93.842">  7  8 -1 -1</clus>
<clus scale="   95.895">  2  5  1 -1</clus>
<clus scale="   45.267">  2  5  1 -1</clus>
</clustering>
</event>
<event>
 9    1  0.5981539E-005  0.9729189E+02  0.7546771E-02  0.1293485E+00
         21   -1    0    0  501  502  0.00000000000E+00  0.00000000000E+00  0.86996578902E+02  0.86996578902E+02  0.00000000000E+00 0. -1.
          1   -1    0    0  502    0 -0.00000000000E+00 -0.00000000000E+00 -0.43424732752E+03  0.43424732752E+03  0.00000000000E+00 0. -1.
         23    2    1    2    0    0  0.22840127535E+02  0.24250439968E+02 -0.36258459478E+03  0.37587431167E+03  0.93296058556E+02 0.  0.
        -24    2    1    2    0    0  0.92443883112E+01 -0.12422754425E+02 -0.31444122581E+02  0.87425754164E+02  0.80092110120E+02 0.  0.
         11    1    4    4    0    0 -0.30412773054E+02 -0.17916096293E+02  0.18628486275E+01  0.35346760477E+02  0.00000000000E+00 0. -1.
        -12    1    4    4    0    0  0.39657161365E+02  0.54933418676E+01 -0.33306971209E+02  0.52078993687E+02  0.00000000000E+00 0.  1.
        -11    1    3    3    0    0 -0.10593127922E+02 -0.28030905536E+02 -0.60899257138E+02  0.67872421087E+02  0.00000000000E+00 0.  1.
         11    1    3    3    0    0  0.33433255457E+02  0.52281345503E+02 -0.30168533764E+03  0.30800189059E+03  0.00000000000E+00 0. -1.
          2    1    1    2  501    0 -0.32084515846E+02 -0.11827685542E+02  0.46777968740E+02  0.57943840585E+02  0.00000000000E+00 0. -1.
<scales pt_clust_5="13000.00000" pt_clust_6="13000.00000" pt_clust_7="13000.00000" pt_clust_8="13000.00000" pt_clust_9="34.19518"></scales>
<clustering>
<clus scale="   34.195">  1  9  2 -1</clus>
<clus scale="   80.092">  5  6 -1 -1</clus>
<clus scale="   84.713">  1  5  2 -1</clus>
<clus scale="   93.296">  7  8 -1 -1</clus>
<clus scale="   34.195">  1  5  2 -1</clus>
</clustering>
</event>
<event>
 9    1  0.5981539E-005  0.1756303E+03  0.7546771E-02  0.1200595E+00
         21   -1    0    0  501  502  0.00000000000E+00  0.00000000000E+00  0.21536589709E+03  0.21536589709E+03  0.00000000000E+00 0.  1.
         -2   -1    0    0    0  501 -0.00000000000E+00 -0.00000000000E+00 -0.21037744893E+03  0.21037744893E+03  0.00000000000E+00 0.  1.
        -24    2    1    2    0    0 -0.35724733752E+02  0.34616821756E+02 -0.50095255044E+01  0.93334168584E+02  0.78813645578E+02 0.  0.
         23    2    1    2    0    0  0.14644130470E+02 -0.16986956376E+03  0.30503668562E+02  0.19399610155E+03  0.87372160175E+02 0.  0.
         11    1    3    3    0    0 -0.44885886576E+02  0.35381418378E+02  0.24679202477E+02  0.62254723637E+02  0.00000000000E+00 0. -1.
        -12    1    3    3    0    0  0.91611528242E+01 -0.76459662260E+00 -0.29688727981E+02  0.31079444947E+02  0.00000000000E+00 0.  1.
        -13    1    4    4    0    0  0.18615662129E+02 -0.10545845492E+02  0.27176901718E+02  0.34588173133E+02  0.00000000000E+00 0. -1.
         13    1    4    4    0    0 -0.39715316596E+01 -0.15932371826E+03  0.33267668435E+01  0.15940792842E+03  0.00000000000E+00 0.  1.
         -1    1    1    2    0  502  0.21080603283E+02  0.13525274200E+03 -0.20505694891E+02  0.13841307589E+03  0.00000000000E+00 0.  1.
<scales pt_clust_5="13000.00000" pt_clust_6="13000.00000" pt_clust_7="13000.00000" pt_clust_8="13000.00000" pt_clust_9="152.35525"></scales>
<clustering>
<clus scale="   78.814">  5  6 -1 -1</clus>
<clus scale="   87.372">  7  8 -1 -1</clus>
<clus scale="   93.200">  2  5  1 -1</clus>
<clus scale="  152.355">  1  9  2 -1</clus>
<clus scale="  152.355">  1  5  2 -1</clus>
</clustering>
</event>
<event>
 9    1  0.5981539E-005  0.3200261E+03  0.7546771E-02  0.1076138E+00
          1   -1    0    0  502    0 -0.00000000000E+00  0.00000000000E+00  0.59984223191E+03  0.59984223191E+03  0.00000000000E+00 0. -1.
         21   -1    0    0  501  502  0.00000000000E+00 -0.00000000000E+00 -0.36943187661E+03  0.36943187661E+03  0.00000000000E+00 0. -1.
         23    2    1    2    0    0 -0.20820163841E+03 -0.20991846552E+03  0.24023355803E+03  0.39295242995E+03  0.96362676358E+02 0.  0.
        -24    2    1    2    0    0  0.24401404631E+03  0.20364776585E+03  0.18608357703E+03  0.37706978626E+03  0.80865683321E+02 0.  0.
         13    1    4    4    0    0  0.12857535632E+03  0.69493111035E+02  0.11647475118E+03  0.18688842232E+03  0.00000000000E+00 0. -1.
        -14    1    4    4    0    0  0.11543868999E+03  0.13415465482E+03  0.69608825849E+02  0.19018136395E+03  0.00000000000E+00 0.  1.
        -11    1    3    3    0    0 -0.14798030355E+03 -0.11688866125E+03  0.20043975018E+03  0.27520396585E+03  0.00000000000E+00 0.  1.
         11    1    3    3    0    0 -0.60221334862E+02 -0.93029804264E+02  0.39793807855E+02  0.11774846410E+03  0.00000000000E+00 0. -1.
          2    1    1    2  501    0 -0.35812407898E+02  0.62706996623E+01 -0.19590677976E+03  0.19925189231E+03  0.00000000000E+00 0. -1.
<scales pt_clust_5="13000.00000" pt_clust_6="13000.00000" pt_clust_7="13000.00000" pt_clust_8="13000.00000" pt_clust_9="36.35726"></scales>
<clustering>
<clus scale="   36.357">  2  9  1 -1</clus>
<clus scale="   80.866">  5  6 -1 -1</clus>
<clus scale="   96.363">  7  8 -1 -1</clus>
<clus scale="  315.706">  2  5  1 -1</clus>
<clus scale="   36.357">  2  5  1 -1</clus>
</clustering>
</event>
<event>
 9    1  0.5981539E-005  0.9754525E+02  0.7546771E-02  0.1290732E+00
          3   -1    0    0  502    0 -0.00000000000E+00  0.00000000000E+00  0.22329450684E+03  0.22329450684E+03  0.00000000000E+00 0. -1.
         21   -1    0    0  501  502  0.00000000000E+00 -0.00000000000E+00 -0.12822801659E+03  0.12822801659E+03  0.00000000000E+00 0. -1.
         23    2    1    2    0    0 -0.20196961028E+02 -0.14407230311E+02  0.13829657792E+03  0.16777039473E+03  0.91681385049E+02 0.  0.
        -24    2    1    2    0    0  0.46967739636E+02  0.26797526295E+02  0.31722702450E+02  0.10320329403E+03  0.81978741550E+02 0.  0.
         11    1    4    4    0    0  0.60938078606E+02 -0.61608214124E+01  0.27564857458E+02  0.67165664676E+02  0.00000000000E+00 0. -1.
        -12    1    4    4    0    0 -0.13970338970E+02  0.32958347708E+02  0.41578449918E+01  0.36037629355E+02  0.00000000000E+00 0.  1.
        -11    1    3    3    0    0  0.17674842601E+01  0.30260742172E+02  0.13063057112E+02  0.33007271601E+02  0.00000000000E+00 0.  1.
         11    1    3    3    0    0 -0.21964445288E+02 -0.44667972483E+02  0.12523352080E+03  0.13476312313E+03  0.00000000000E+00 0. -1.
          4    1    1    2  501    0 -0.26770778608E+02 -0.12390295985E+02 -0.74952790114E+02  0.80548834676E+02  0.00000000000E+00 0. -1.
<scales pt_clust_5="13000.00000" pt_clust_6="13000.00000" pt_clust_7="13000.00000" pt_clust_8="13000.00000" pt_clust_9="29.49905"></scales>
<clustering>
<clus scale="   29.499">  2  9  1 -1</clus>
<clus scale="   81.979">  5  6 -1 -1</clus>
<clus scale="   88.488">  2  5  1 -1</clus>
<clus scale="   91.681">  7  8 -1 -1</clus>
<clus scale="   29.499">  2  5  1 -1</clus>
</clustering>
</event>
<event>
 9    1  0.5981539E-005  0.1920527E+03  0.7546771E-02  0.1193253E+00
         21   -1    0    0  501  502  0.00000000000E+00  0.00000000000E+00  0.21871731723E+03  0.21871731723E+03  0.00000000000E+00 0. -1.
          1   -1    0    0  502    0 -0.00000000000E+00 -0.00000000000E+00 -0.44271026805E+03  0.44271026805E+03  0.00000000000E+00 0. -1.
        -24    2    1    2    0    0  0.28148163903E+01 -0.17856587513E+02 -0.25445193574E+03  0.26785523266E+03  0.81693678772E+02 0.  0.
         23    2    1    2    0    0 -0.98506093718E+02  0.15416885997E+03 -0.49941239084E+02  0.20863438411E+03  0.86963733742E+02 0.  0.
         13    1    3    3    0    0  0.70589717975E+01  0.27041607486E+02 -0.16838414808E+03  0.17068772347E+03  0.00000000000E+00 0. -1.
        -14    1    3    3    0    0 -0.42441554072E+01 -0.44898194999E+02 -0.86067787660E+02  0.97167509189E+02  0.00000000000E+00 0.  1.
        -13    1    4    4    0    0 -0.73049203520E+02  0.36630128935E+02 -0.28019082577E+02  0.86388780922E+02  0.00000000000E+00 0. -1.
         13    1    4    4    0    0 -0.25456890198E+02  0.11753873104E+03 -0.21922156507E+02  0.12224560319E+03  0.00000000000E+00 0.  1.
          2    1    1    2  501    0  0.95691277327E+02 -0.13631227246E+03  0.80400223998E+02  0.18493796852E+03  0.00000000000E+00 0. -1.
<scales pt_clust_5="13000.00000" pt_clust_6="13000.00000" pt_clust_7="13000.00000" pt_clust_8="13000.00000" pt_clust_9="171.23532"></scales>
<clustering>
<clus scale="   81.694">  5  6 -1 -1</clus>
<clus scale="   83.670">  2  5  1 -1</clus>
<clus scale="   86.964">  7  8 -1 -1</clus>
<clus scale="  171.235">  1  9  2 -1</clus>
<clus scale="  171.235">  1  5  2 -1</clus>
</clustering>
</event>
<event>
 9    1  0.5981539E-005  0.1023150E+03  0.7546771E-02  0.1283660E+00
         -4   -1    0    0    0  501 -0.00000000000E+00  0.00000000000E+00  0.57083900492E+03  0.57083900492E+03  0.00000000000E+00 0.  1.
         21   -1    0    0  501  502  0.00000000000E+00 -0.00000000000E+00 -0.28561304333E+02  0.28561304333E+02  0.00000000000E+00 0. -1.
         23    2    1    2    0    0 -0.13144368449E+02 -0.23315163166E+02  0.23187322706E+03  0.25420302974E+03  0.10068572711E+03 0.  0.
        -24    2    1    2    0    0  0.21357648820E+02 -0.14543267227E+02  0.11360782694E+03  0.14462400405E+03  0.85683769869E+02 0.  0.
         13    1    4    4    0    0  0.42597839773E+02 -0.38041185888E+02  0.81529382256E+02  0.99542694097E+02  0.00000000000E+00 0. -1.
        -14    1    4    4    0    0 -0.21240190953E+02  0.23497918661E+02  0.32078444686E+02  0.45081309948E+02  0.00000000000E+00 0.  1.
        -11    1    3    3    0    0  0.13014516303E+02 -0.55788159658E+02  0.17161584477E+03  0.18092455491E+03  0.00000000000E+00 0.  1.
         11    1    3    3    0    0 -0.26158884752E+02  0.32472996492E+02  0.60257382290E+02  0.73278474828E+02  0.00000000000E+00 0. -1.
         -3    1    1    2    0  502 -0.82132803712E+01  0.37858430393E+02  0.19679664658E+03  0.20057327547E+03  0.00000000000E+00 0.  1.
<scales pt_clust_5="13000.00000" pt_clust_6="13000.00000" pt_clust_7="13000.00000" pt_clust_8="13000.00000" pt_clust_9="38.73913"></scales>
<clustering>
<clus scale="   38.739">  2  9  1 -1</clus>
<clus scale="   85.684">  5  6 -1 -1</clus>
<clus scale="   87.593">  2  5  1 -1</clus>
<clus scale="  100.686">  7  8 -1 -1</clus>
<clus scale="   38.739">  2  5  1 -1</clus>
</clustering>
</event>
<event>
 9    1  0.5981539E-005  0.2206949E+03  0.7546771E-02  0.1134412E+00
          1   -1    0    0  502    0 -0.00000000000E+00  0.00000000000E+00  0.11644588218E+04  0.11644588218E+04  0.00000000000E+00 0. -1.
         21   -1    0    0  501  502  0.00000000000E+00 -0.00000000000E+00 -0.52410334570E+02  0.52410334570E+02  0.00000000000E+00 0. -1.
         23    2    1    2    0    0  0.18999268096E+03  0.28082356872E+02  0.58181357945E+03  0.61974737818E+03  0.93241267372E+02 0.  0.
        -24    2    1    2    0    0 -0.20983661793E+03 -0.41367430107E+02  0.36658504780E+03  0.43173873288E+03  0.79190060623E+02 0.  0.
         13    1    4    4    0    0 -0.18211992611E+03 -0.21979711804E+02  0.24830258158E+03  0.30871499354E+03  0.00000000000E+00 0. -1.
        -14    1    4    4    0    0 -0.27716691820E+02 -0.19387718302E+02  0.11828246622E+03  0.12302373934E+03  0.00000000000E+00 0.  1.
        -11    1    3    3    0    0  0.59852553744E+02  0.43562273300E+02  0.29924315505E+03  0.30826363017E+03  0.00000000000E+00 0. -1.
         11    1    3    3    0    0  0.13014012722E+03 -0.15479916428E+02  0.28257042440E+03  0.31148374800E+03  0.00000000000E+00 0.  1.
          2    1    1    2  501    0  0.19843936965E+02  0.13285073234E+02  0.16364985999E+03  0.16538304532E+03  0.00000000000E+00 0. -1.
<scales pt_clust_5="13000.00000" pt_clust_6="13000.00000" pt_clust_7="13000.00000" pt_clust_8="13000.00000" pt_clust_9="23.88044"></scales>
<clustering>
<clus scale="   23.880">  2  9  1 -1</clus>
<clus scale="   79.190">  5  6 -1 -1</clus>
<clus scale="   93.241">  7  8 -1 -1</clus>
<clus scale="  215.136">  2  5  1 -1</clus>
<clus scale="   23.880">  2  5  1 -1</clus>
</clustering>
</event>
<event>
 9    1  0.5981539E-005  0.2619145E+03  0.7546771E-02  0.1125286E+00
          1   -1    0    0  502    0 -0.00000000000E+00  0.00000000000E+00  0.63638014211E+03  0.63638014211E+03  0.00000000000E+00 0. -1.
         21   -1    0    0  501  502  0.00000000000E+00 -0.00000000000E+00 -0.24557589656E+03  0.24557589656E+03  0.00000000000E+00 0. -1.
         23    2    1    2    0    0 -0.11393968555E+03 -0.64358393217E+02 -0.48070880652E+02  0.16807869065E+03  0.93890265537E+02 0.  0.
        -24    2    1    2    0    0  0.24922952685E+03 -0.11054311719E+03  0.85238496313E+02  0.29680092157E+03  0.80560834005E+02 0.  0.
         13    1    4    4    0    0  0.24985128804E+03 -0.10435527314E+03  0.93502426653E+02  0.28645836165E+03  0.00000000000E+00 0. -1.
        -14    1    4    4    0    0 -0.62176118966E+00 -0.61878440525E+01 -0.82639303402E+01  0.10342559918E+02  0.00000000000E+00 0.  1.
        -11    1    3    3    0    0 -0.57622127115E+02 -0.55876949112E+01 -0.62740486110E+02  0.85369200916E+02  0.00000000000E+00 0. -1.
         11    1    3    3    0    0 -0.56317558436E+02 -0.58770698306E+02  0.14669605458E+02  0.82709489733E+02  0.00000000000E+00 0.  1.
          2    1    1    2  501    0 -0.13528984130E+03  0.17490151041E+03  0.35363662989E+03  0.41707642645E+03  0.00000000000E+00 0. -1.
<scales pt_clust_5="13000.00000" pt_clust_6="13000.00000" pt_clust_7="13000.00000" pt_clust_8="13000.00000" pt_clust_9="249.21719"></scales>
<clustering>
<clus scale="   80.561">  5  6 -1 -1</clus>
<clus scale="   93.890">  7  8 -1 -1</clus>
<clus scale="  161.058">  1  7  2 -1</clus>
<clus scale="  249.217">  2  9  1 -1</clus>
<clus scale="  249.217">  2  5  1 -1</clus>
</clustering>
</event>
<event>
 9    1  0.5981539E-005  0.9565802E+02  0.7546771E-02  0.1295351E+00
         21   -1    0    0  501  502  0.00000000000E+00  0.00000000000E+00  0.67549351782E+03  0.67549351782E+03  0.00000000000E+00 0.  1.
         -2   -1    0    0    0  501 -0.00000000000E+00 -0.00000000000E+00 -0.40704156926E+02  0.40704156926E+02  0.00000000000E+00 0.  1.
         23    2    1    2    0    0  0.19837150230E+01 -0.40813084764E+02  0.39171530555E+02  0.10616029908E+03  0.89810674651E+02 0.  0.
        -24    2    1    2    0    0  0.10427319999E+02 -0.86614388915E+01  0.37924399972E+03  0.38773263695E+03  0.79541416275E+02 0.  0.
         11    1    4    4    0    0  0.30618901938E+02 -0.94009292099E+01  0.61445256428E+02  0.69292237396E+02  0.00000000000E+00 0. -1.
        -12    1    4    4    0    0 -0.20191581938E+02  0.73949031848E+00  0.31779874330E+03  0.31844039955E+03  0.00000000000E+00 0.  1.
        -13    1    3    3    0    0  0.35341679377E+02 -0.40462699853E+02  0.47572036965E+02  0.71759062714E+02  0.00000000000E+00 0.  1.
         13    1    3    3    0    0 -0.33357964354E+02 -0.35038491142E+00 -0.84005064108E+01  0.34401236365E+02  0.00000000000E+00 0. -1.
         -1    1    1    2    0  502 -0.12411035022E+02  0.49474523656E+02  0.21637383061E+03  0.22230473872E+03  0.00000000000E+00 0.  1.
<scales pt_clust_5="13000.00000" pt_clust_6="13000.00000" pt_clust_7="13000.00000" pt_clust_8="13000.00000" pt_clust_9="51.00747"></scales>
<clustering>
<clus scale="   51.007">  1  9  2 -1</clus>
<clus scale="   79.541">  5  6 -1 -1</clus>
<clus scale="   86.089">  1  5  2 -1</clus>
<clus scale="   89.811">  7  8 -1 -1</clus>
<clus scale="   51.007">  1  5  2 -1</clus>
</clustering>
</event>
<event>
 9    1  0.5981539E-005  0.1118478E+03  0.7546771E-02  0.1260957E+00
          3   -1    0    0  502    0 -0.00000000000E+00  0.00000000000E+00  0.78724699524E+03  0.78724699524E+03  0.00000000000E+00 0. -1.
         21   -1    0    0  501  502  0.00000000000E+00 -0.00000000000E+00 -0.29603858618E+02  0.29603858618E+02  0.00000000000E+00 0.  1.
        -24    2    1    2    0    0  0.70783902510E+02  0.34480152215E+02  0.55382840323E+03  0.56523871670E+03  0.81053469276E+02 0.  0.
         23    2    1    2    0    0 -0.31465767681E+02 -0.31397658020E+01  0.14637507625E+03  0.17527440232E+03  0.91079638220E+02 0.  0.
         13    1    3    3    0    0  0.28996665110E+01 -0.19931140354E+02  0.49152614064E+02  0.53119091587E+02  0.00000000000E+00 0. -1.
        -14    1    3    3    0    0  0.67884235999E+02  0.54411292569E+02  0.50467578916E+03  0.51211962511E+03  0.00000000000E+00 0.  1.
        -13    1    4    4    0    0  0.28320627657E+02  0.10683171818E+02  0.24955848765E+02  0.39229867430E+02  0.00000000000E+00 0.  1.
         13    1    4    4    0    0 -0.59786395338E+02 -0.13822937620E+02  0.12141922748E+03  0.13604453489E+03  0.00000000000E+00 0. -1.
          4    1    1    2  501    0 -0.39318134829E+02 -0.31340386413E+02  0.57439657153E+02  0.76337734842E+02  0.00000000000E+00 0. -1.
<scales pt_clust_5="13000.00000" pt_clust_6="13000.00000" pt_clust_7="13000.00000" pt_clust_8="13000.00000" pt_clust_9="50.28057"></scales>
<clustering>
<clus scale="   50.281">  2  9  1 -1</clus>
<clus scale="   81.053">  5  6 -1 -1</clus>
<clus scale="   91.080">  7  8 -1 -1</clus>
<clus scale="  103.847">  1  5  2 -1</clus>
<clus scale="   50.281">  2  5  1 -1</clus>
</clustering>
</event>
<event>
 9    1  0.5981539E-005  0.1245726E+03  0.7546771E-02  0.1248206E+00
          1   -1    0    0  502    0 -0.00000000000E+00  0.00000000000E+00  0.54010303427E+03  0.54010303427E+03  0.00000000000E+00 0. -1.
         21   -1    0    0  501  502  0.00000000000E+00 -0.00000000000E+00 -0.75198358104E+02  0.75198358104E+02  0.00000000000E+00 0. -1.
        -24    2    1    2    0    0  0.16290390116E+02  0.50887545101E+02  0.27220741531E+03  0.28890216756E+03  0.80701093052E+02 0.  0.
         23    2    1    2    0    0 -0.27956126983E+02  0.67205246246E+02  0.22819835187E+02  0.11917872259E+03  0.91568187065E+02 0.  0.
         13    1    3    3    0    0  0.45553683290E+02  0.49018824167E+02  0.17455831956E+03  0.18694542014E+03  0.00000000000E+00 0. -1.
        -14    1    3    3    0    0 -0.29263293174E+02  0.18687209337E+01  0.97649095748E+02  0.10195674743E+03  0.00000000000E+00 0.  1.
        -13    1    4    4    0    0  0.55660770033E+01  0.29960594814E+02 -0.32490806014E+02  0.44545156081E+02  0.00000000000E+00 0.  1.
         13    1    4    4    0    0 -0.33522203986E+02  0.37244651432E+02  0.55310641201E+02  0.74633566513E+02  0.00000000000E+00 0. -1.
          2    1    1    2  501    0  0.11665736867E+02 -0.11809279135E+03  0.16987742567E+03  0.20722050221E+03  0.00000000000E+00 0. -1.
<scales pt_clust_5="13000.00000" pt_clust_6="13000.00000" pt_clust_7="13000.00000" pt_clust_8="13000.00000" pt_clust_9="84.46064"></scales>
<clustering>
<clus scale="   80.701">  5  6 -1 -1</clus>
<clus scale="   91.568">  7  8 -1 -1</clus>
<clus scale="   96.786">  1  5  2 -1</clus>
<clus scale="   84.461">  2  9  1 -1</clus>
<clus scale="   84.461">  2  5  1 -1</clus>
</clustering>
</event>
<event>
 9    1  0.5981539E-005  0.1806306E+03  0.7546771E-02  0.1193857E+00
          1   -1    0    0  502    0 -0.00000000000E+00  0.00000000000E+00  0.36233782240E+03  0.36233782240E+03  0.00000000000E+00 0. -1.
         21   -1    0    0  501  502  0.00000000000E+00 -0.00000000000E+00 -0.19353596278E+03  0.19353596278E+03  0.00000000000E+00 0. -1.
         23    2    1    2    0    0  0.38984069773E+02  0.75356746544E+01 -0.65709206395E+02  0.11902418878E+03  0.90953359591E+02 0.  0.
        -24    2    1    2    0    0 -0.14497387913E+03  0.10427569149E+03  0.19666131809E+03  0.27820463208E+03  0.82651665531E+02 0.  0.
         11    1    4    4    0    0 -0.75452762113E+02  0.75711643803E+02  0.16511232712E+03  0.19669126286E+03  0.00000000000E+00 0. -1.
        -12    1    4    4    0    0 -0.69521117017E+02  0.28564047683E+02  0.31548990971E+02  0.81513369226E+02  0.00000000000E+00 0.  1.
        -11    1    3    3    0    0  0.13072504147E+02 -0.33279986939E+02  0.20174331675E+01  0.35812259520E+02  0.00000000000E+00 0.  1.
         11    1    3    3    0    0  0.25911565626E+02  0.40815661594E+02 -0.67726639563E+02  0.83211929259E+02  0.00000000000E+00 0. -1.
          2    1    1    2  501    0  0.10598980936E+03 -0.11181136614E+03  0.37849747919E+02  0.15864496432E+03  0.00000000000E+00 0. -1.
<scales pt_clust_5="13000.00000" pt_clust_6="13000.00000" pt_clust_7="13000.00000" pt_clust_8="13000.00000" pt_clust_9="160.61173"></scales>
<clustering>
<clus scale="   82.652">  5  6 -1 -1</clus>
<clus scale="   90.953">  7  8 -1 -1</clus>
<clus scale="   99.242">  1  7  2 -1</clus>
<clus scale="  160.612">  2  9  1 -1</clus>
<clus scale="  160.612">  2  5  1 -1</clus>
</clustering>
</event>
<event>
 9    1  0.5981539E-005  0.9810994E+02  0.7546771E-02  0.1291713E+00
          1   -1    0    0  502    0 -0.00000000000E+00  0.00000000000E+00  0.11285176693E+03  0.11285176693E+03  0.00000000000E+00 0. -1.
         21   -1    0    0  501  502  0.00000000000E+00 -0.00000000000E+00 -0.12912337301E+03  0.12912337301E+03  0.00000000000E+00 0.  1.
        -24    2    1    2    0    0  0.67131310740E+01 -0.49225152867E+02  0.13891920867E+02  0.93506256928E+02  0.77988799297E+02 0.  0.
         23    2    1    2    0    0  0.76637448178E+01  0.79735115350E+01 -0.44402681318E+02  0.10252167427E+03  0.91743041791E+02 0.  0.
         13    1    3    3    0    0  0.33934396169E+02  0.15235816437E+01 -0.11419951190E+01  0.33987772760E+02  0.00000000000E+00 0. -1.
        -14    1    3    3    0    0 -0.27221265095E+02 -0.50748734511E+02  0.15033915986E+02  0.59518484168E+02  0.00000000000E+00 0.  1.
        -13    1    4    4    0    0  0.41590900472E+02 -0.16126172737E+02 -0.44448018289E+01  0.44828704114E+02  0.00000000000E+00 0. -1.
         13    1    4    4    0    0 -0.33927155654E+02  0.24099684272E+02 -0.39957879489E+02  0.57692970161E+02  0.00000000000E+00 0.  1.
          2    1    1    2  501    0 -0.14376875892E+02  0.41251641332E+02  0.14239154375E+02  0.45947208733E+02  0.00000000000E+00 0. -1.
<scales pt_clust_5="13000.00000" pt_clust_6="13000.00000" pt_clust_7="13000.00000" pt_clust_8="13000.00000" pt_clust_9="43.68517"></scales>
<clustering>
<clus scale="   43.685">  2  9  1 -1</clus>
<clus scale="   77.989">  5  6 -1 -1</clus>
<clus scale="   85.388">  1  5  2 -1</clus>
<clus scale="   91.743">  7  8 -1 -1</clus>
<clus scale="   43.685">  2  5  1 -1</clus>
</clustering>
</event>
<event>
 9    1  0.5981539E-005  0.1441502E+03  0.7546771E-02  0.1211457E+00
         -2   -1    0    0    0  501 -0.00000000000E+00  0.00000000000E+00  0.10460439974E+04  0.10460439974E+04  0.00000000000E+00 0.  1.
         21   -1    0    0  501  502  0.00000000000E+00 -0.00000000000E+00 -0.38429628052E+02  0.38429628052E+02  0.00000000000E+00 0. -1.
        -24    2    1    2    0    0  0.10903372684E+01  0.12440775788E+03  0.76748048376E+03  0.78098660603E+03  0.73724533125E+02 0.  0.
         23    2    1    2    0    0 -0.33111614913E+01 -0.62103217080E+02  0.96509809240E+02  0.14691542823E+03  0.91663659158E+02 0.  0.
         11    1    3    3    0    0  0.36209983644E+02  0.55898424611E+02  0.31002845705E+03  0.31710162562E+03  0.00000000000E+00 0. -1.
        -12    1    3    3    0    0 -0.35119646376E+02  0.68509333265E+02  0.45745202671E+03  0.46388498041E+03  0.00000000000E+00 0.  1.
        -13    1    4    4    0    0  0.40964809385E+02 -0.10364705801E+02  0.43232888710E+02  0.60453497835E+02  0.00000000000E+00 0. -1.
         13    1    4    4    0    0 -0.44275970876E+02 -0.51738511279E+02  0.53276920530E+02  0.86461930395E+02  0.00000000000E+00 0.  1.
         -1    1    1    2    0  502  0.22208242229E+01 -0.62304540797E+02  0.14362407639E+03  0.15657159124E+03  0.00000000000E+00 0.  1.
<scales pt_clust_5="13000.00000" pt_clust_6="13000.00000" pt_clust_7="13000.00000" pt_clust_8="13000.00000" pt_clust_9="62.34411"></scales>
<clustering>
<clus scale="   62.344">  2  9  1 -1</clus>
<clus scale="   73.725">  5  6 -1 -1</clus>
<clus scale="   91.664">  7  8 -1 -1</clus>
<clus scale="  133.463">  1  5  2 -1</clus>
<clus scale="   62.344">  2  5  1 -1</clus>
</clustering>
</event>
<event>
 9    1  0.5981539E-005  0.1449287E+03  0.7546771E-02  0.1211932E+00
          1   -1    0    0  502    0 -0.00000000000E+00  0.00000000000E+00  0.94799721583E+03  0.94799721583E+03  0.00000000000E+00 0. -1.
         21   -1    0    0  501  502  0.00000000000E+00 -0.00000000000E+00 -0.36196505880E+02  0.36196505880E+02  0.00000000000E+00 0. -1.
        -24    2    1    2    0    0  0.29132876993E+02  0.86398429801E+02  0.30801537633E+03  0.32826912179E+03  0.67629365441E+02 0.  0.
         23    2    1    2    0    0 -0.10222253019E+03 -0.10770305835E+03  0.47509691313E+03  0.50640304907E+03  0.93153511905E+02 0.  0.
         13    1    3    3    0    0  0.17690454474E+02  0.82615939961E+02  0.17108975773E+03  0.19081417902E+03  0.00000000000E+00 0. -1.
        -14    1    3    3    0    0  0.11442422519E+02  0.37824898406E+01  0.13692561859E+03  0.13745494276E+03  0.00000000000E+00 0.  1.
        -13    1    4    4    0    0 -0.15487343485E+02  0.13736331578E+02  0.11092615418E+03  0.11284128808E+03  0.00000000000E+00 0.  1.
         13    1    4    4    0    0 -0.86735186706E+02 -0.12143938993E+03  0.36417075895E+03  0.39356176099E+03  0.00000000000E+00 0. -1.
          2    1    1    2  501    0  0.73089653198E+02  0.21304628548E+02  0.12868842049E+03  0.14952155086E+03  0.00000000000E+00 0. -1.
<scales pt_clust_5="13000.00000" pt_clust_6="13000.00000" pt_clust_7="13000.00000" pt_clust_8="13000.00000" pt_clust_9="76.13136"></scales>
<clustering>
<clus scale="   67.629">  5  6 -1 -1</clus>
<clus scale="   76.131">  2  9  1 -1</clus>
<clus scale="   93.154">  7  8 -1 -1</clus>
<clus scale="  130.002">  1  5  2 -1</clus>
<clus scale="   76.131">  2  5  1 -1</clus>
</clustering>
</event>
<event>
 9    1  0.5981539E-005  0.1684421E+03  0.7546771E-02  0.1180554E+00
         21   -1    0    0  501  502  0.00000000000E+00  0.00000000000E+00  0.11287597602E+03  0.11287597602E+03  0.00000000000E+00 0.  1.
          1   -1    0    0  502    0 -0.00000000000E+00 -0.00000000000E+00 -0.49774001868E+03  0.49774001868E+03  0.00000000000E+00 0. -1.
        -24    2    1    2    0    0 -0.12207964303E+03 -0.97058090642E+02 -0.17937722858E+03  0.25010176457E+03  0.77788111589E+02 0.  0.
         23    2    1    2    0    0  0.87261166950E+02  0.84536188125E+02  0.29223161248E+01  0.14884588136E+03  0.85939968031E+02 0.  0.
         11    1    3    3    0    0 -0.10459080840E+03 -0.36601432829E+02 -0.10481115772E+03  0.15252632844E+03  0.00000000000E+00 0. -1.
        -12    1    3    3    0    0 -0.17488834634E+02 -0.60456657813E+02 -0.74566070862E+02  0.97575436123E+02  0.00000000000E+00 0.  1.
        -13    1    4    4    0    0 -0.60848489437E+00  0.41648238349E+02  0.25037413324E+02  0.48598539869E+02  0.00000000000E+00 0.  1.
         13    1    4    4    0    0  0.87869651844E+02  0.42887949776E+02 -0.22115097199E+02  0.10024734149E+03  0.00000000000E+00 0. -1.
          2    1    1    2  501    0  0.34818476082E+02  0.12521902516E+02 -0.20840913021E+03  0.21166834878E+03  0.00000000000E+00 0. -1.
<scales pt_clust_5="13000.00000" pt_clust_6="13000.00000" pt_clust_7="13000.00000" pt_clust_8="13000.00000" pt_clust_9="37.00170"></scales>
<clustering>
<clus scale="   37.002">  1  9  2 -1</clus>
<clus scale="   77.788">  5  6 -1 -1</clus>
<clus scale="   85.940">  7  8 -1 -1</clus>
<clus scale="  164.433">  2  5  1 -1</clus>
<clus scale="   37.002">  1  5  2 -1</clus>
</clustering>
</event>
<event>
 9    1  0.5981539E-005  0.1015347E+03  0.7546771E-02  0.1280299E+00
         -2   -1    0    0    0  501 -0.00000000000E+00  0.00000000000E+00  0.75537913629E+03  0.75537913629E+03  0.00000000000E+00 0.  1.
         21   -1    0    0  501  502  0.00000000000E+00 -0.00000000000E+00 -0.48438679321E+02  0.48438679321E+02  0.00000000000E+00 0. -1.
         23    2    1    2    0    0 -0.90614212311E+01  0.25908903850E+02  0.10466122072E+03  0.13855870935E+03  0.86551511600E+02 0.  0.
        -24    2    1    2    0    0 -0.51985628657E+02 -0.91623851344E+02  0.13244661952E+03  0.18694134121E+03  0.79419911285E+02 0.  0.
         11    1    4    4    0    0 -0.32830374280E+02 -0.10145057370E+03  0.90771676422E+02  0.14003410163E+03  0.00000000000E+00 0. -1.
        -12    1    4    4    0    0 -0.19155254377E+02  0.98267223550E+01  0.41674943101E+02  0.46907239579E+02  0.00000000000E+00 0.  1.
        -13    1    3    3    0    0  0.12133088927E+01 -0.26385841451E+02  0.70423763710E+02  0.75214302115E+02  0.00000000000E+00 0. -1.
         13    1    3    3    0    0 -0.10274730124E+02  0.52294745301E+02  0.34237457010E+02  0.63344407233E+02  0.00000000000E+00 0.  1.
         -1    1    1    2    0  502  0.61047049888E+02  0.65714947494E+02  0.46983261673E+03  0.47831776505E+03  0.00000000000E+00 0.  1.
<scales pt_clust_5="13000.00000" pt_clust_6="13000.00000" pt_clust_7="13000.00000" pt_clust_8="13000.00000" pt_clust_9="89.69506"></scales>
<clustering>
<clus scale="   79.420">  5  6 -1 -1</clus>
<clus scale="   86.552">  7  8 -1 -1</clus>
<clus scale="   89.695">  2  9  1 -1</clus>
<clus scale="   95.528">  2  5  1 -1</clus>
<clus scale="   89.695">  2  5  1 -1</clus>
</clustering>
</event>
<event>
 9    1  0.5981539E-005  0.1648669E+03  0.7546771E-02  0.1207699E+00
          1   -1    0    0  502    0 -0.00000000000E+00  0.00000000000E+00  0.68978530830E+03  0.68978530830E+03  0.00000000000E+00 0. -1.
         21   -1    0    0  501  502  0.00000000000E+00 -0.00000000000E+00 -0.64219286827E+02  0.64219286827E+02  0.00000000000E+00 0. -1.
         23    2    1    2    0    0  0.87288696457E+01  0.32873866284E+02  0.12528676261E+03  0.15824411845E+03  0.90485047872E+02 0.  0.
        -24    2    1    2    0    0 -0.11800395579E+03 -0.11308432196E+03  0.34294289048E+03  0.38808405898E+03  0.79286904649E+02 0.  0.
         11    1    4    4    0    0 -0.46318639081E+02 -0.66667882925E+01  0.51152504305E+02  0.69328501276E+02  0.00000000000E+00 0. -1.
        -12    1    4    4    0    0 -0.71685316710E+02 -0.10641753367E+03  0.29179038618E+03  0.31875555771E+03  0.00000000000E+00 0.  1.
        -13    1    3    3    0    0 -0.20781545706E+02  0.52167126522E+02  0.50325292642E+02  0.75405018474E+02  0.00000000000E+00 0.  1.
         13    1    3    3    0    0  0.29510415352E+02 -0.19293260238E+02  0.74961469969E+02  0.82839099976E+02  0.00000000000E+00 0. -1.
          2    1    1    2  501    0  0.10927508615E+03  0.80210455676E+02  0.15733636838E+03  0.20767641770E+03  0.00000000000E+00 0. -1.
<scales pt_clust_5="13000.00000" pt_clust_6="13000.00000" pt_clust_7="13000.00000" pt_clust_8="13000.00000" pt_clust_9="144.54988"></scales>
<clustering>
<clus scale="   79.287">  5  6 -1 -1</clus>
<clus scale="   90.485">  7  8 -1 -1</clus>
<clus scale="   96.667">  1  7  2 -1</clus>
<clus scale="  144.550">  2  9  1 -1</clus>
<clus scale="  144.550">  2  5  1 -1</clus>
</clustering>
</event>
<event>
 9    1  0.5981539E-005  0.1106665E+03  0.7546771E-02  0.1263789E+00
          1   -1    0    0  502    0 -0.00000000000E+00  0.00000000000E+00  0.52117443143E+03  0.52117443143E+03  0.00000000000E+00 0. -1.
         21   -1    0    0  501  502  0.00000000000E+00 -0.00000000000E+00 -0.64385281312E+02  0.64385281312E+02  0.00000000000E+00 0. -1.
         23    2    1    2    0    0 -0.61902580807E+02 -0.11873000631E+02  0.27299051746E+03  0.29492997415E+03  0.92124748987E+02 0.  0.
        -24    2    1    2    0    0  0.60576873503E+02 -0.18189625589E+02  0.22048000472E+03  0.24318459078E+03  0.80789186348E+02 0.  0.
         11    1    4    4    0    0  0.78891280386E+00 -0.39188408779E+02  0.87493497095E+02  0.95872132552E+02  0.00000000000E+00 0. -1.
        -12    1    4    4    0    0  0.59787960700E+02  0.20998783190E+02  0.13298650762E+03  0.14731245823E+03  0.00000000000E+00 0.  1.
        -13    1    3    3    0    0  0.15491365546E+02 -0.25819856475E+02  0.48745708046E+02  0.57295649467E+02  0.00000000000E+00 0.  1.
         13    1    3    3    0    0 -0.77393946353E+02  0.13946855844E+02  0.22424480941E+03  0.23763432468E+03  0.00000000000E+00 0. -1.
          2    1    1    2  501    0  0.13257073031E+01  0.30062626220E+02 -0.36681372055E+02  0.47445147812E+02  0.00000000000E+00 0. -1.
<scales pt_clust_5="13000.00000" pt_clust_6="13000.00000" pt_clust_7="13000.00000" pt_clust_8="13000.00000" pt_clust_9="30.09184"></scales>
<clustering>
<clus scale="   30.092">  2  9  1 -1</clus>
<clus scale="   80.789">  5  6 -1 -1</clus>
<clus scale="   92.125">  7  8 -1 -1</clus>
<clus scale="  101.425">  2  5  1 -1</clus>
<clus scale="   30.092">  2  5  1 -1</clus>
</clustering>
</event>
<event>
 9    1  0.5981539E-005  0.9536806E+02  0.7546771E-02  0.1296054E+00
         -4   -1    0    0    0  501 -0.00000000000E+00  0.00000000000E+00  0.72438609397E+02  0.72438609397E+02  0.00000000000E+00 0.  1.
         21   -1    0    0  501  502  0.00000000000E+00 -0.00000000000E+00 -0.20822624672E+03  0.20822624672E+03  0.00000000000E+00 0. -1.
        -24    2    1    2    0    0  0.25366496825E+02 -0.18713231257E+02 -0.24568603554E+02  0.91078866883E+02  0.81841917908E+02 0.  0.
         23    2    1    2    0    0 -0.22182293916E+01  0.14169610856E+02 -0.12972279329E+03  0.15960473029E+03  0.91869300743E+02 0.  0.
         13    1    3    3    0    0  0.36993468726E+02  0.11720431962E+02  0.13395032824E+02  0.41052553612E+02  0.00000000000E+00 0. -1.
        -14    1    3    3    0    0 -0.11626971901E+02 -0.30433663219E+02 -0.37963636378E+02  0.50026313271E+02  0.00000000000E+00 0.  1.
        -13    1    4    4    0    0  0.12515339787E+02 -0.18567373110E+02  0.25597489960E+01  0.22537377601E+02  0.00000000000E+00 0.  1.
         13    1    4    4    0    0 -0.14733569178E+02  0.32736983966E+02 -0.13228254229E+03  0.13706735269E+03  0.00000000000E+00 0. -1.
         -3    1    1    2    0  502 -0.23148267433E+02  0.45436204012E+01  0.18503759519E+02  0.29981258944E+02  0.00000000000E+00 0.  1.
<scales pt_clust_5="13000.00000" pt_clust_6="13000.00000" pt_clust_7="13000.00000" pt_clust_8="13000.00000" pt_clust_9="23.58998"></scales>
<clustering>
<clus scale="   23.590">  2  9  1 -1</clus>
<clus scale="   81.842">  5  6 -1 -1</clus>
<clus scale="   85.751">  1  5  2 -1</clus>
<clus scale="   91.869">  7  8 -1 -1</clus>
<clus scale="   23.590">  2  5  1 -1</clus>
</clustering>
</event>
<event>
 9    1  0.5981539E-005  0.1023678E+03  0.7546771E-02  0.1281113E+00
         21   -1    0    0  501  502  0.00000000000E+00  0.00000000000E+00  0.22000866215E+03  0.22000866215E+03  0.00000000000E+00 0. -1.
          1   -1    0    0  502    0 -0.00000000000E+00 -0.00000000000E+00 -0.98647362360E+02  0.98647362360E+02  0.00000000000E+00 0. -1.
        -24    2    1    2    0    0  0.44101120294E+02  0.36260167917E+02 -0.20832474752E+02  0.10040789364E+03  0.79925243271E+02 0.  0.
         23    2    1    2    0    0  0.13384996861E+02 -0.19291683187E+02  0.12299027484E+03  0.15530881454E+03  0.91885216374E+02 0.  0.
         11    1    3    3    0    0  0.24728939604E+02  0.61399627047E+02 -0.17687762780E+02  0.68514900625E+02  0.00000000000E+00 0. -1.
        -12    1    3    3    0    0  0.19372180690E+02 -0.25139459129E+02 -0.31447119710E+01  0.31892993014E+02  0.00000000000E+00 0.  1.
        -13    1    4    4    0    0  0.21433841050E+01 -0.55472796711E+02  0.85981137907E+02  0.10234540217E+03  0.00000000000E+00 0. -1.
         13    1    4    4    0    0  0.11241612756E+02  0.36181113524E+02  0.37009136929E+02  0.52963412366E+02  0.00000000000E+00 0.  1.
          2    1    1    2  501    0 -0.57486117155E+02 -0.16968484731E+02  0.19203499706E+02  0.62939316334E+02  0.00000000000E+00 0. -1.
<scales pt_clust_5="13000.00000" pt_clust_6="13000.00000" pt_clust_7="13000.00000" pt_clust_8="13000.00000" pt_clust_9="59.93819"></scales>
<clustering>
<clus scale="   59.938">  1  9  2 -1</clus>
<clus scale="   79.925">  5  6 -1 -1</clus>
<clus scale="   91.784">  2  5  1 -1</clus>
<clus scale="   91.885">  7  8 -1 -1</clus>
<clus scale="   59.938">  1  5  2 -1</clus>
</clustering>
</event>
<event>
 9    1  0.7195684E-005  0.1134588E+03  0.7546771E-02  0.1268693E+00
          1   -1    0    0  502    0 -0.00000000000E+00  0.00000000000E+00  0.28889679159E+03  0.28889679159E+03  0.00000000000E+00 0. -1.
         21   -1    0    0  501  502  0.00000000000E+00 -0.00000000000E+00 -0.17592092380E+03  0.17592092380E+03  0.00000000000E+00 0. -1.
         23    2    1    2    0    0 -0.50177148375E+01  0.31987905524E+02  0.24842448751E+03  0.27339883276E+03  0.10947050835E+03 0.  0.
        -24    2    1    2    0    0 -0.28720805928E+02 -0.61315020453E+01 -0.11755429513E+03  0.14529894945E+03  0.80189103990E+02 0.  0.
         11    1    4    4    0    0 -0.53207736345E+02 -0.20033634919E+02 -0.84931766781E+02  0.10220476869E+03  0.00000000000E+00 0. -1.
        -12    1    4    4    0    0  0.24486930416E+02  0.13902132874E+02 -0.32622528344E+02  0.43094180758E+02  0.00000000000E+00 0.  1.
        -11    1    3    3    0    0  0.34028545127E+02  0.46674351111E+02  0.73031979549E+02  0.93113409195E+02  0.00000000000E+00 0.  1.
         11    1    3    3    0    0 -0.39046259965E+02 -0.14686445587E+02  0.17539250796E+03  0.18028542356E+03  0.00000000000E+00 0. -1.
          2    1    1    2  501    0  0.33738520766E+02 -0.25856403478E+02 -0.17894324597E+02  0.46119933186E+02  0.00000000000E+00 0. -1.
<scales pt_clust_5="13000.00000" pt_clust_6="13000.00000" pt_clust_7="13000.00000" pt_clust_8="13000.00000" pt_clust_9="42.50696"></scales>
<clustering>
<clus scale="   42.507">  2  9  1 -1</clus>
<clus scale="   80.189">  5  6 -1 -1</clus>
<clus scale="   85.553">  2  5  1 -1</clus>
<clus scale="  109.471">  7  8 -1 -1</clus>
<clus scale="   42.507">  2  5  1 -1</clus>
</clustering>
</event>
<event>
 9    1  0.5981539E-005  0.1242622E+03  0.7546771E-02  0.1239598E+00
         21   -1    0    0  501  502  0.00000000000E+00  0.00000000000E+00  0.43763534355E+02  0.43763534355E+02  0.00000000000E+00 0. -1.
          1   -1    0    0  502    0 -0.00000000000E+00 -0.00000000000E+00 -0.66297839862E+03  0.66297839862E+03  0.00000000000E+00 0. -1.
        -24    2    1    2    0    0 -0.71529811779E+02 -0.16831039504E+02 -0.37652324343E+03  0.39181394881E+03  0.79678226506E+02 0.  0.
         23    2    1    2    0    0  0.11632996038E+03  0.34383073027E+02 -0.19564040811E+03  0.24763055617E+03  0.91273586915E+02 0.  0.
         13    1    3    3    0    0  0.15386923673E+02 -0.14933626385E+02 -0.76678245561E+02  0.79619871636E+02  0.00000000000E+00 0. -1.
        -14    1    3    3    0    0 -0.86916735452E+02 -0.18974131186E+01 -0.29984499786E+03  0.31219407717E+03  0.00000000000E+00 0.  1.
        -11    1    4    4    0    0  0.23739770136E+02  0.44280701060E+02 -0.11079906050E+03  0.12165849325E+03  0.00000000000E+00 0.  1.
         11    1    4    4    0    0  0.92590190248E+02 -0.98976280329E+01 -0.84841347608E+02  0.12597206291E+03  0.00000000000E+00 0. -1.
          2    1    1    2  501    0 -0.44800148605E+02 -0.17552033523E+02 -0.47051212729E+02  0.67297427998E+02  0.00000000000E+00 0. -1.
<scales pt_clust_5="13000.00000" pt_clust_6="13000.00000" pt_clust_7="13000.00000" pt_clust_8="13000.00000" pt_clust_9="48.11577"></scales>
<clustering>
<clus scale="   48.116">  1  9  2 -1</clus>
<clus scale="   79.678">  5  6 -1 -1</clus>
<clus scale="   91.274">  7  8 -1 -1</clus>
<clus scale="  116.012">  2  5  1 -1</clus>
<clus scale="   48.116">  1  5  2 -1</clus>
</clustering>
</event>
<event>
 9    1  0.5981539E-005  0.1284516E+03  0.7546771E-02  0.1239793E+00
          1   -1    0    0  502    0 -0.00000000000E+00  0.00000000000E+00  0.10446298967E+04  0.10446298967E+04  0.00000000000E+00 0. -1.
         21   -1    0    0  501  502  0.00000000000E+00 -0.00000000000E+00 -0.16173582245E+02  0.16173582245E+02  0.00000000000E+00 0. -1.
         23    2    1    2    0    0  0.79654183880E+02 -0.45078885830E+02  0.50348635123E+03  0.51997045127E+03  0.92162190545E+02 0.  0.
        -24    2    1    2    0    0 -0.63972847013E+02  0.61984257860E+02  0.38022458369E+03  0.39426249576E+03  0.54199706084E+02 0.  0.
         11    1    4    4    0    0 -0.68260406909E+02  0.67445882289E+02  0.33372925820E+03  0.34725156295E+03  0.00000000000E+00 0. -1.
        -12    1    4    4    0    0  0.42875598958E+01 -0.54616244294E+01  0.46495325489E+02  0.47010932809E+02  0.00000000000E+00 0.  1.
        -13    1    3    3    0    0  0.19703179553E+02  0.18904021947E+02  0.41095783548E+02  0.49340052247E+02  0.00000000000E+00 0.  1.
         13    1    3    3    0    0  0.59951004326E+02 -0.63982907777E+02  0.46239056768E+03  0.47063039902E+03  0.00000000000E+00 0. -1.
          2    1    1    2  501    0 -0.15681336867E+02 -0.16905372030E+02  0.14474537951E+03  0.14657053189E+03  0.00000000000E+00 0. -1.
<scales pt_clust_5="13000.00000" pt_clust_6="13000.00000" pt_clust_7="13000.00000" pt_clust_8="13000.00000" pt_clust_9="23.05854"></scales>
<clustering>
<clus scale="   23.059">  2  9  1 -1</clus>
<clus scale="   54.200">  5  6 -1 -1</clus>
<clus scale="   92.162">  7  8 -1 -1</clus>
<clus scale="  104.611">  2  5  1 -1</clus>
<clus scale="   23.059">  2  5  1 -1</clus>
</clustering>
</event>
<event>
 9    1  0.5981539E-005  0.1046951E+03  0.7546771E-02  0.1274621E+00
         -4   -1    0    0    0  501 -0.00000000000E+00  0.00000000000E+00  0.15174361438E+03  0.15174361438E+03  0.00000000000E+00 0.  1.
         21   -1    0    0  501  502  0.00000000000E+00 -0.00000000000E+00 -0.14291464666E+03  0.14291464666E+03  0.00000000000E+00 0. -1.
         23    2    1    2    0    0  0.31925330460E+02 -0.12783805476E+02  0.72437474113E+01  0.97912017637E+02  0.91387301709E+02 0.  0.
        -24    2    1    2    0    0 -0.78894040383E+02 -0.41239354753E+02 -0.17406704307E+02  0.12268373768E+03  0.82603584356E+02 0.  0.
         11    1    4    4    0    0 -0.73036203401E+02 -0.60138644696E+02 -0.29973591778E+02  0.99243940858E+02  0.00000000000E+00 0. -1.
        -12    1    4    4    0    0 -0.58578369825E+01  0.18899289943E+02  0.12566887470E+02  0.23439796824E+02  0.00000000000E+00 0.  1.
        -13    1    3    3    0    0  0.38614596687E+02 -0.43488703153E+02  0.23264741584E+02  0.62638666814E+02  0.00000000000E+00 0. -1.
         13    1    3    3    0    0 -0.66892662271E+01  0.30704897677E+02 -0.16020994172E+02  0.35273350823E+02  0.00000000000E+00 0.  1.
         -3    1    1    2    0  502  0.46968709923E+02  0.54023160229E+02  0.18991924624E+02  0.74062505723E+02  0.00000000000E+00 0.  1.
<scales pt_clust_5="13000.00000" pt_clust_6="13000.00000" pt_clust_7="13000.00000" pt_clust_8="13000.00000" pt_clust_9="71.58608"></scales>
<clustering>
<clus scale="   71.586">  2  9  1 -1</clus>
<clus scale="   82.604">  5  6 -1 -1</clus>
<clus scale="   91.387">  7  8 -1 -1</clus>
<clus scale="   97.122">  2  5  1 -1</clus>
<clus scale="   71.586">  2  5  1 -1</clus>
</clustering>
</event>
<event>
 9    1  0.5981539E-005  0.9336124E+02  0.7546771E-02  0.1300578E+00
         21   -1    0    0  501  502  0.00000000000E+00  0.00000000000E+00  0.12206028266E+03  0.12206028266E+03  0.00000000000E+00 0.  1.
         -4   -1    0    0    0  501 -0.00000000000E+00 -0.00000000000E+00 -0.24011264732E+03  0.24011264732E+03  0.00000000000E+00 0.  1.
        -24    2    1    2    0    0  0.77535012908E+01 -0.11958213049E+02 -0.11640426717E+03  0.14387349709E+03  0.83345750397E+02 0.  0.
         23    2    1    2    0    0  0.20537786838E+02  0.81210316141E+01 -0.86540423068E+02  0.12873477530E+03  0.92712705197E+02 0.  0.
         11    1    3    3    0    0  0.38037476202E+01 -0.30742164871E+02 -0.56741068265E+01  0.31491978108E+02  0.00000000000E+00 0. -1.
        -12    1    3    3    0    0  0.39497536706E+01  0.18783951822E+02 -0.11073016034E+03  0.11238151898E+03  0.00000000000E+00 0.  1.
        -13    1    4    4    0    0  0.12535270267E+02  0.31937123830E+02 -0.95954951585E+02  0.10190419821E+03  0.00000000000E+00 0. -1.
         13    1    4    4    0    0  0.80025165716E+01 -0.23816092216E+02  0.94145285174E+01  0.26830577093E+02  0.00000000000E+00 0.  1.
         -3    1    1    2    0  502 -0.28291288129E+02  0.38371814344E+01  0.84892325580E+02  0.89564657582E+02  0.00000000000E+00 0.  1.
<scales pt_clust_5="13000.00000" pt_clust_6="13000.00000" pt_clust_7="13000.00000" pt_clust_8="13000.00000" pt_clust_9="28.55032"></scales>
<clustering>
<clus scale="   28.550">  1  9  2 -1</clus>
<clus scale="   83.346">  5  6 -1 -1</clus>
<clus scale="   84.067">  2  5  1 -1</clus>
<clus scale="   92.713">  7  8 -1 -1</clus>
<clus scale="   28.550">  1  5  2 -1</clus>
</clustering>
</event>
<event>
 9    1  0.5981539E-005  0.9189317E+02  0.7546771E-02  0.1304328E+00
         21   -1    0    0  501  502  0.00000000000E+00  0.00000000000E+00  0.30277663308E+03  0.30277663308E+03  0.00000000000E+00 0.  1.
         -4   -1    0    0    0  501 -0.00000000000E+00 -0.00000000000E+00 -0.10150471559E+03  0.10150471559E+03  0.00000000000E+00 0.  1.
         23    2    1    2    0    0 -0.62847797836E+00  0.14757629432E+02 -0.36318622920E+02  0.98080756039E+02  0.89903335440E+02 0.  0.
        -24    2    1    2    0    0 -0.76173227668E+02 -0.22919984096E+02  0.16703332690E+03  0.20158966393E+03  0.80066060382E+02 0.  0.
         13    1    4    4    0    0  0.10416015266E+02 -0.24076620999E+02  0.36777865986E+02  0.45175086931E+02  0.00000000000E+00 0. -1.
        -14    1    4    4    0    0 -0.86589242934E+02  0.11566369034E+01  0.13025546091E+03  0.15641457700E+03  0.00000000000E+00 0.  1.
        -13    1    3    3    0    0  0.22927878402E+02 -0.10611737172E+01 -0.57996204221E+02  0.62372857893E+02  0.00000000000E+00 0.  1.
         13    1    3    3    0    0 -0.23556356380E+02  0.15818803149E+02  0.21677581301E+02  0.35707898146E+02  0.00000000000E+00 0. -1.
         -3    1    1    2    0  502  0.76801705646E+02  0.81623546640E+01  0.70557213511E+02  0.10461092869E+03  0.00000000000E+00 0.  1.
<scales pt_clust_5="13000.00000" pt_clust_6="13000.00000" pt_clust_7="13000.00000" pt_clust_8="13000.00000" pt_clust_9="77.23423"></scales>
<clustering>
<clus scale="   77.234">  1  9  2 -1</clus>
<clus scale="   80.066">  5  6 -1 -1</clus>
<clus scale="   82.294">  1  5  2 -1</clus>
<clus scale="   89.903">  7  8 -1 -1</clus>
<clus scale="   77.234">  1  5  2 -1</clus>
</clustering>
</event>
<event>
 9    1  0.5981539E-005  0.1316686E+03  0.7546771E-02  0.1227927E+00
          1   -1    0    0  502    0 -0.00000000000E+00  0.00000000000E+00  0.65010459789E+02  0.65010459789E+02  0.00000000000E+00 0. -1.
         21   -1    0    0  501  502  0.00000000000E+00 -0.00000000000E+00 -0.38324206840E+03  0.38324206840E+03  0.00000000000E+00 0. -1.
         23    2    1    2    0    0  0.98645882630E+02 -0.13920038522E+02 -0.67372705578E+02  0.15117572741E+03  0.91598261279E+02 0.  0.
        -24    2    1    2    0    0 -0.85356334923E+02 -0.17263301369E+02 -0.22586831522E+03  0.25496335584E+03  0.80038062929E+02 0.  0.
         11    1    4    4    0    0 -0.95570115141E+02 -0.31281194861E+02 -0.18492804796E+03  0.21050069592E+03  0.00000000000E+00 0. -1.
        -12    1    4    4    0    0  0.10213780218E+02  0.14017893492E+02 -0.40940267264E+02  0.44462659929E+02  0.00000000000E+00 0.  1.
        -13    1    3    3    0    0  0.23876894533E+02  0.30443867605E+02 -0.48795608869E+02  0.62273161251E+02  0.00000000000E+00 0.  1.
         13    1    3    3    0    0  0.74768988097E+02 -0.44363906126E+02 -0.18577096709E+02  0.88902566161E+02  0.00000000000E+00 0. -1.
          2    1    1    2  501    0 -0.13289547707E+02  0.31183339891E+02 -0.24990587814E+02  0.42113444934E+02  0.00000000000E+00 0. -1.
<scales pt_clust_5="13000.00000" pt_clust_6="13000.00000" pt_clust_7="13000.00000" pt_clust_8="13000.00000" pt_clust_9="33.89711"></scales>
<clustering>
<clus scale="   33.897">  2  9  1 -1</clus>
<clus scale="   80.038">  5  6 -1 -1</clus>
<clus scale="   91.598">  7  8 -1 -1</clus>
<clus scale="  123.905">  2  5  1 -1</clus>
<clus scale="   33.897">  2  5  1 -1</clus>
</clustering>
</event>
<event>
 9    1  0.5981539E-005  0.1070854E+03  0.7546771E-02  0.1269430E+00
          3   -1    0    0  502    0 -0.00000000000E+00  0.00000000000E+00  0.83883341196E+03  0.83883341196E+03  0.00000000000E+00 0. -1.
         21   -1    0    0  501  502  0.00000000000E+00 -0.00000000000E+00 -0.26410591686E+02  0.26410591686E+02  0.00000000000E+00 0.  1.
        -24    2    1    2    0    0 -0.47625233833E+02 -0.32694131787E+02  0.55199076535E+03  0.56124825346E+03  0.83478906529E+02 0.  0.
         23    2    1    2    0    0  0.24615009223E+02  0.49966002970E+02  0.25229497214E+03  0.27409591595E+03  0.91505836130E+02 0.  0.
         11    1    3    3    0    0 -0.17929110434E+02 -0.57996364384E+02  0.28253407043E+03  0.28898188911E+03  0.00000000000E+00 0. -1.
        -12    1    3    3    0    0 -0.29696123399E+02  0.25302232598E+02  0.26945669492E+03  0.27226636435E+03  0.00000000000E+00 0.  1.
        -13    1    4    4    0    0  0.49955765292E+00  0.62181734233E+02  0.88959574450E+02  0.10853858077E+03  0.00000000000E+00 0.  1.
         13    1    4    4    0    0  0.24115451570E+02 -0.12215731264E+02  0.16333539769E+03  0.16555733518E+03  0.00000000000E+00 0. -1.
          4    1    1    2  501    0  0.23010224611E+02 -0.17271871183E+02  0.81370827956E+01  0.29899834234E+02  0.00000000000E+00 0. -1.
<scales pt_clust_5="13000.00000" pt_clust_6="13000.00000" pt_clust_7="13000.00000" pt_clust_8="13000.00000" pt_clust_9="28.77130"></scales>
<clustering>
<clus scale="   28.771">  2  9  1 -1</clus>
<clus scale="   83.479">  5  6 -1 -1</clus>
<clus scale="   91.506">  7  8 -1 -1</clus>
<clus scale="  100.313">  1  5  2 -1</clus>
<clus scale="   28.771">  2  5  1 -1</clus>
</clustering>
</event>
<event>
 9    1  0.5981539E-005  0.1150482E+03  0.7546771E-02  0.1255521E+00
         21   -1    0    0  501  502  0.00000000000E+00  0.00000000000E+00  0.34589585683E+02  0.34589585683E+02  0.00000000000E+00 0. -1.
          1   -1    0    0  502    0 -0.00000000000E+00 -0.00000000000E+00 -0.66970937678E+03  0.66970937678E+03  0.00000000000E+00 0. -1.
        -24    2    1    2    0    0 -0.29491712096E+02  0.82827211788E+02 -0.36111596784E+03  0.38035416878E+03  0.80835904062E+02 0.  0.
         23    2    1    2    0    0  0.31281800579E+02 -0.20282085964E+02 -0.10920547523E+03  0.14766775975E+03  0.92141290362E+02 0.  0.
         13    1    3    3    0    0 -0.36349212795E+02  0.35635123357E+02 -0.77268107882E+02  0.92528308010E+02  0.00000000000E+00 0. -1.
        -14    1    3    3    0    0  0.68575006984E+01  0.47192088430E+02 -0.28384785995E+03  0.28782586077E+03  0.00000000000E+00 0.  1.
        -13    1    4    4    0    0 -0.16189915120E+02 -0.37586147654E+02 -0.20958118819E+02  0.45979066884E+02  0.00000000000E+00 0.  1.
         13    1    4    4    0    0  0.47471715699E+02  0.17304061690E+02 -0.88247356412E+02  0.10168869286E+03  0.00000000000E+00 0. -1.
          2    1    1    2  501    0 -0.17900884827E+01 -0.62545125824E+02 -0.16479834803E+03  0.17627703394E+03  0.00000000000E+00 0. -1.
<scales pt_clust_5="13000.00000" pt_clust_6="13000.00000" pt_clust_7="13000.00000" pt_clust_8="13000.00000" pt_clust_9="62.57077"></scales>
<clustering>
<clus scale="   62.571">  1  9  2 -1</clus>
<clus scale="   80.836">  5  6 -1 -1</clus>
<clus scale="   92.141">  7  8 -1 -1</clus>
<clus scale="  106.210">  2  5  1 -1</clus>
<clus scale="   62.571">  1  5  2 -1</clus>
</clustering>
</event>
<event>
 9    1  0.5981539E-005  0.1369929E+03  0.7546771E-02  0.1219936E+00
         21   -1    0    0  501  502  0.00000000000E+00  0.00000000000E+00  0.12083480552E+03  0.12083480552E+03  0.00000000000E+00 0.  1.
          1   -1    0    0  502    0 -0.00000000000E+00 -0.00000000000E+00 -0.37615015160E+03  0.37615015160E+03  0.00000000000E+00 0. -1.
         23    2    1    2    0    0 -0.60320555607E+02 -0.93974157179E+02 -0.29295173673E+03  0.32644286904E+03  0.90964361418E+02 0.  0.
        -24    2    1    2    0    0  0.59852545486E+01  0.71523956328E+02  0.26795120316E+02  0.11076023797E+03  0.79989700853E+02 0.  0.
         13    1    4    4    0    0  0.16710564839E+02 -0.13327834539E+02  0.87773492233E+00  0.21392628855E+02  0.00000000000E+00 0. -1.
        -14    1    4    4    0    0 -0.10725310290E+02  0.84851790867E+02  0.25917385394E+02  0.89367609120E+02  0.00000000000E+00 0.  1.
        -11    1    3    3    0    0  0.38239186246E+01 -0.76699422519E+02 -0.13978050686E+03  0.15948672003E+03  0.00000000000E+00 0. -1.
         11    1    3    3    0    0 -0.64144474232E+02 -0.17274734660E+02 -0.15317122987E+03  0.16695614901E+03  0.00000000000E+00 0.  1.
          2    1    1    2  501    0  0.54335301059E+02  0.22450200850E+02  0.10841270332E+02  0.59781850103E+02  0.00000000000E+00 0. -1.
<scales pt_clust_5="13000.00000" pt_clust_6="13000.00000" pt_clust_7="13000.00000" pt_clust_8="13000.00000" pt_clust_9="58.79062"></scales>
<clustering>
<clus scale="   58.791">  1  9  2 -1</clus>
<clus scale="   79.990">  5  6 -1 -1</clus>
<clus scale="   90.964">  7  8 -1 -1</clus>
<clus scale="  129.965">  1  5  2 -1</clus>
<clus scale="   58.791">  1  5  2 -1</clus>
</clustering>
</event>
<event>
 9    1  0.5981539E-005  0.1023187E+03  0.7546771E-02  0.1280499E+00
          1   -1    0    0  502    0 -0.00000000000E+00  0.00000000000E+00  0.37122530354E+03  0.37122530354E+03  0.00000000000E+00 0. -1.
         21   -1    0    0  501  502  0.00000000000E+00 -0.00000000000E+00 -0.52612326948E+02  0.52612326948E+02  0.00000000000E+00 0. -1.
        -24    2    1    2    0    0  0.31262973911E+01 -0.35317887049E+02  0.24153465524E+03  0.25791570885E+03  0.83212957587E+02 0.  0.
         23    2    1    2    0    0 -0.13759122438E+02  0.65264173399E+02  0.64567858532E+02  0.13177007374E+03  0.93518010021E+02 0.  0.
         13    1    3    3    0    0 -0.71146192034E+00 -0.34942979969E+02  0.29191307356E+02  0.45537352276E+02  0.00000000000E+00 0. -1.
        -14    1    3    3    0    0  0.38377593115E+01 -0.37490707994E+00  0.21234334788E+03  0.21237835657E+03  0.00000000000E+00 0.  1.
        -11    1    4    4    0    0 -0.12133139220E+02  0.86571425389E+02  0.32559955664E+02  0.93284379582E+02  0.00000000000E+00 0. -1.
         11    1    4    4    0    0 -0.16259832175E+01 -0.21307251990E+02  0.32007902868E+02  0.38485694158E+02  0.00000000000E+00 0.  1.
          2    1    1    2  501    0  0.10632825047E+02 -0.29946286350E+02  0.12510462818E+02  0.34151847894E+02  0.00000000000E+00 0. -1.
<scales pt_clust_5="13000.00000" pt_clust_6="13000.00000" pt_clust_7="13000.00000" pt_clust_8="13000.00000" pt_clust_9="31.77793"></scales>
<clustering>
<clus scale="   31.778">  2  9  1 -1</clus>
<clus scale="   83.213">  5  6 -1 -1</clus>
<clus scale="   92.994">  1  5  2 -1</clus>
<clus scale="   93.518">  7  8 -1 -1</clus>
<clus scale="   31.778">  2  5  1 -1</clus>
</clustering>
</event>
<event>
 9    1  0.5981539E-005  0.1437404E+03  0.7546771E-02  0.1230452E+00
          1   -1    0    0  502    0 -0.00000000000E+00  0.00000000000E+00  0.53575721898E+03  0.53575721898E+03  0.00000000000E+00 0. -1.
         21   -1    0    0  501  502  0.00000000000E+00 -0.00000000000E+00 -0.75008137195E+02  0.75008137195E+02  0.00000000000E+00 0. -1.
         23    2    1    2    0    0 -0.38102281121E+01  0.49192577032E+01  0.48436420795E+02  0.10254995082E+03  0.90175876034E+02 0.  0.
        -24    2    1    2    0    0 -0.28468494897E+02  0.11215393466E+03  0.33788566304E+03  0.36578146856E+03  0.78996209979E+02 0.  0.
         11    1    4    4    0    0 -0.55270031506E+02  0.73763603606E+02  0.20144158016E+03  0.22152777663E+03  0.00000000000E+00 0. -1.
        -12    1    4    4    0    0  0.26801536609E+02  0.38390331052E+02  0.13644408288E+03  0.14425369193E+03  0.00000000000E+00 0.  1.
        -11    1    3    3    0    0 -0.39243552441E+02 -0.21894430522E+02  0.16681403830E+02  0.47934243812E+02  0.00000000000E+00 0. -1.
         11    1    3    3    0    0  0.35433324329E+02  0.26813688225E+02  0.31755016966E+02  0.54615707006E+02  0.00000000000E+00 0.  1.
          2    1    1    2  501    0  0.32278723009E+02 -0.11707319236E+03  0.74426997949E+02  0.14243393680E+03  0.00000000000E+00 0. -1.
<scales pt_clust_5="13000.00000" pt_clust_6="13000.00000" pt_clust_7="13000.00000" pt_clust_8="13000.00000" pt_clust_9="120.08704"></scales>
<clustering>
<clus scale="   78.996">  5  6 -1 -1</clus>
<clus scale="   90.176">  7  8 -1 -1</clus>
<clus scale="   90.390">  1  7  2 -1</clus>
<clus scale="  120.087">  2  9  1 -1</clus>
<clus scale="  120.087">  2  5  1 -1</clus>
</clustering>
</event>
<event>
 9    1  0.5981539E-005  0.1095902E+03  0.7546771E-02  0.1265259E+00
          3   -1    0    0  502    0 -0.00000000000E+00  0.00000000000E+00  0.48813384925E+03  0.48813384925E+03  0.00000000000E+00 0. -1.
         21   -1    0    0  501  502  0.00000000000E+00 -0.00000000000E+00 -0.37611644409E+02  0.37611644409E+02  0.00000000000E+00 0.  1.
        -24    2    1    2    0    0  0.94581557735E+01 -0.60941333672E+02  0.16565823961E+03  0.19431693483E+03  0.80703878162E+02 0.  0.
         23    2    1    2    0    0  0.41746045841E+02  0.58967644639E+02  0.17142604161E+03  0.20695395007E+03  0.90681498932E+02 0.  0.
         13    1    3    3    0    0  0.35382558027E+02 -0.42965663607E+00  0.65813446928E+02  0.74722953728E+02  0.00000000000E+00 0. -1.
        -14    1    3    3    0    0 -0.25924402253E+02 -0.60511677036E+02  0.99844792686E+02  0.11959398110E+03  0.00000000000E+00 0.  1.
        -11    1    4    4    0    0  0.58848634544E+02  0.28539890357E+02  0.15528719032E+03  0.16849866055E+03  0.00000000000E+00 0. -1.
         11    1    4    4    0    0 -0.17102588703E+02  0.30427754282E+02  0.16138851291E+02  0.38455289519E+02  0.00000000000E+00 0.  1.
          4    1    1    2  501    0 -0.51204201615E+02  0.19736890328E+01  0.11343792361E+03  0.12447460876E+03  0.00000000000E+00 0. -1.
<scales pt_clust_5="13000.00000" pt_clust_6="13000.00000" pt_clust_7="13000.00000" pt_clust_8="13000.00000" pt_clust_9="51.24225"></scales>
<clustering>
<clus scale="   51.242">  2  9  1 -1</clus>
<clus scale="   80.704">  5  6 -1 -1</clus>
<clus scale="   90.681">  7  8 -1 -1</clus>
<clus scale="  101.489">  1  5  2 -1</clus>
<clus scale="   51.242">  2  5  1 -1</clus>
</clustering>
</event>
<event>
 9    1  0.5981539E-005  0.9998504E+02  0.7546771E-02  0.1287024E+00
         21   -1    0    0  501  502  0.00000000000E+00  0.00000000000E+00  0.76904652891E+02  0.76904652891E+02  0.00000000000E+00 0.  1.
          1   -1    0    0  502    0 -0.00000000000E+00 -0.00000000000E+00 -0.37183316050E+03  0.37183316050E+03  0.00000000000E+00 0. -1.
         23    2    1    2    0    0 -0.37344803314E+01  0.11603744044E+02 -0.17704743820E+03  0.20042104193E+03  0.93135414609E+02 0.  0.
        -24    2    1    2    0    0  0.44971735699E+02 -0.82873111481E+02 -0.10998278707E+03  0.16559907790E+03  0.80227373953E+02 0.  0.
         13    1    4    4    0    0  0.15018502637E+02 -0.19123940343E+02 -0.88767759885E+02  0.92038012314E+02  0.00000000000E+00 0. -1.
        -14    1    4    4    0    0  0.29953233063E+02 -0.63749171138E+02 -0.21215027184E+02  0.73561065586E+02  0.00000000000E+00 0.  1.
        -13    1    3    3    0    0  0.15815530117E+02 -0.36183150418E+02 -0.53299011642E+02  0.66333521006E+02  0.00000000000E+00 0.  1.
         13    1    3    3    0    0 -0.19550010449E+02  0.47786894462E+02 -0.12374842656E+03  0.13408752092E+03  0.00000000000E+00 0. -1.
          2    1    1    2  501    0 -0.41237255368E+02  0.71269367437E+02 -0.78982823415E+01  0.82717693567E+02  0.00000000000E+00 0. -1.
<scales pt_clust_5="13000.00000" pt_clust_6="13000.00000" pt_clust_7="13000.00000" pt_clust_8="13000.00000" pt_clust_9="82.33975"></scales>
<clustering>
<clus scale="   80.227">  5  6 -1 -1</clus>
<clus scale="   82.340">  1  9  2 -1</clus>
<clus scale="   88.087">  1  5  2 -1</clus>
<clus scale="   93.135">  7  8 -1 -1</clus>
<clus scale="   82.340">  1  5  2 -1</clus>
</clustering>
</event>
<event>
 9    1  0.5981539E-005  0.1085028E+03  0.7546771E-02  0.1268348E+00
          1   -1    0    0  502    0 -0.00000000000E+00  0.00000000000E+00  0.62621918460E+03  0.62621918460E+03  0.00000000000E+00 0. -1.
         21   -1    0    0  501  502  0.00000000000E+00 -0.00000000000E+00 -0.28892365940E+02  0.28892365940E+02  0.00000000000E+00 0. -1.
        -24    2    1    2    0    0  0.39754048947E+02 -0.48253697300E+02  0.44283666991E+03  0.45423505783E+03  0.79475580104E+02 0.  0.
         23    2    1    2    0    0 -0.29780621463E+02  0.29606530065E+02  0.98040042647E+02  0.14059547928E+03  0.91606805389E+02 0.  0.
         11    1    3    3    0    0  0.57924553115E+02 -0.33326037514E+02  0.39833866042E+03  0.40390539364E+03  0.00000000000E+00 0. -1.
        -12    1    3    3    0    0 -0.18170504168E+02 -0.14927659786E+02  0.44498009498E+02  0.50329664192E+02  0.00000000000E+00 0.  1.
        -13    1    4    4    0    0 -0.27351223983E+02 -0.30299062396E+02  0.39571467262E+02  0.56850889674E+02  0.00000000000E+00 0. -1.
         13    1    4    4    0    0 -0.24293974797E+01  0.59905592460E+02  0.58468575385E+02  0.83744589602E+02  0.00000000000E+00 0.  1.
          2    1    1    2  501    0 -0.99734274840E+01  0.18647167235E+02  0.56450106096E+02  0.60281013428E+02  0.00000000000E+00 0. -1.
<scales pt_clust_5="13000.00000" pt_clust_6="13000.00000" pt_clust_7="13000.00000" pt_clust_8="13000.00000" pt_clust_9="21.14679"></scales>
<clustering>
<clus scale="   21.147">  2  9  1 -1</clus>
<clus scale="   79.476">  5  6 -1 -1</clus>
<clus scale="   91.607">  7  8 -1 -1</clus>
<clus scale="   98.475">  1  5  2 -1</clus>
<clus scale="   21.147">  2  5  1 -1</clus>
</clustering>
</event>
<event>
 9    1  0.5981539E-005  0.1003499E+03  0.7546771E-02  0.1285632E+00
          1   -1    0    0  502    0 -0.00000000000E+00  0.00000000000E+00  0.19725177296E+03  0.19725177296E+03  0.00000000000E+00 0. -1.
         21   -1    0    0  501  502  0.00000000000E+00 -0.00000000000E+00 -0.12993657712E+03  0.12993657712E+03  0.00000000000E+00 0. -1.
        -24    2    1    2    0    0  0.53307751478E+02 -0.14547026253E+02  0.45391147338E+02  0.10919584973E+03  0.82522996798E+02 0.  0.
         23    2    1    2    0    0  0.22785747894E+02  0.86278326938E+01 -0.53181493217E+02  0.11091262411E+03  0.94232208725E+02 0.  0.
         11    1    3    3    0    0  0.43559311013E+01 -0.42484805937E+02  0.23370361812E+02  0.48683741459E+02  0.00000000000E+00 0. -1.
        -12    1    3    3    0    0  0.48951820376E+02  0.27937779684E+02  0.22020785526E+02  0.60512108268E+02  0.00000000000E+00 0.  1.
        -11    1    4    4    0    0  0.28073703920E+02 -0.19034381089E+02  0.15042593196E+02  0.37104179350E+02  0.00000000000E+00 0.  1.
         11    1    4    4    0    0 -0.52879560259E+01  0.27662213783E+02 -0.68224086413E+02  0.73808444755E+02  0.00000000000E+00 0. -1.
          2    1    1    2  501    0 -0.76093499372E+02  0.59191935591E+01  0.75105541721E+02  0.10707987624E+03  0.00000000000E+00 0. -1.
<scales pt_clust_5="13000.00000" pt_clust_6="13000.00000" pt_clust_7="13000.00000" pt_clust_8="13000.00000" pt_clust_9="76.32341"></scales>
<clustering>
<clus scale="   76.323">  2  9  1 -1</clus>
<clus scale="   82.523">  5  6 -1 -1</clus>
<clus scale="   89.445">  1  5  2 -1</clus>
<clus scale="   94.232">  7  8 -1 -1</clus>
<clus scale="   76.323">  2  5  1 -1</clus>
</clustering>
</event>
<event>
 9    1  0.5981539E-005  0.1054923E+03  0.7546771E-02  0.1274451E+00
          1   -1    0    0  502    0 -0.00000000000E+00  0.00000000000E+00  0.66039017535E+03  0.66039017535E+03  0.00000000000E+00 0. -1.
         21   -1    0    0  501  502  0.00000000000E+00 -0.00000000000E+00 -0.37260749479E+02  0.37260749479E+02  0.00000000000E+00 0. -1.
        -24    2    1    2    0    0 -0.46380503892E+02  0.29064840052E+02  0.20725720066E+03  0.22859636037E+03  0.79402976531E+02 0.  0.
         23    2    1    2    0    0 -0.28698579180E+02 -0.77609353580E+02  0.28523309697E+03  0.31075099427E+03  0.91440913262E+02 0.  0.
         13    1    3    3    0    0 -0.40332816629E+02  0.55666305475E+02  0.15758590481E+03  0.17192670257E+03  0.00000000000E+00 0. -1.
        -14    1    3    3    0    0 -0.60476872624E+01 -0.26601465423E+02  0.49671295851E+02  0.56669657802E+02  0.00000000000E+00 0.  1.
        -13    1    4    4    0    0  0.29290732098E+02 -0.12876538881E+02  0.44486398942E+02  0.54797736552E+02  0.00000000000E+00 0.  1.
         13    1    4    4    0    0 -0.57989311278E+02 -0.64732814699E+02  0.24074669803E+03  0.25595325771E+03  0.00000000000E+00 0. -1.
          2    1    1    2  501    0  0.75079083072E+02  0.48544513528E+02  0.13063912824E+03  0.15830357020E+03  0.00000000000E+00 0. -1.
<scales pt_clust_5="13000.00000" pt_clust_6="13000.00000" pt_clust_7="13000.00000" pt_clust_8="13000.00000" pt_clust_9="89.40603"></scales>
<clustering>
<clus scale="   79.403">  5  6 -1 -1</clus>
<clus scale="   89.406">  2  9  1 -1</clus>
<clus scale="   91.441">  7  8 -1 -1</clus>
<clus scale="   95.247">  1  5  2 -1</clus>
<clus scale="   89.406">  2  5  1 -1</clus>
</clustering>
</event>
<event>
 9    1  0.5981539E-005  0.9431150E+02  0.7546771E-02  0.1302664E+00
         21   -1    0    0  501  502  0.00000000000E+00  0.00000000000E+00  0.45340932908E+03  0.45340932908E+03  0.00000000000E+00 0.  1.
         -4   -1    0    0    0  501 -0.00000000000E+00 -0.00000000000E+00 -0.29050810222E+02  0.29050810222E+02  0.00000000000E+00 0.  1.
         23    2    1    2    0    0 -0.11228204323E+02  0.26895969331E+01  0.10694761954E+03  0.14118715486E+03  0.91447869675E+02 0.  0.
        -24    2    1    2    0    0  0.29025068363E+02 -0.34336449020E+02  0.19779637911E+03  0.21626944425E+03  0.75017455313E+02 0.  0.
         13    1    4    4    0    0 -0.25482125459E+02 -0.91171369757E+01  0.52958735001E+02  0.59473426985E+02  0.00000000000E+00 0. -1.
        -14    1    4    4    0    0  0.54507193822E+02 -0.25219312044E+02  0.14483764411E+03  0.15679601726E+03  0.00000000000E+00 0.  1.
        -13    1    3    3    0    0 -0.14201405221E+02  0.27503242031E+02  0.11155949371E+03  0.11577404230E+03  0.00000000000E+00 0. -1.
         13    1    3    3    0    0  0.29732008983E+01 -0.24813645098E+02 -0.46118741739E+01  0.25413112561E+02  0.00000000000E+00 0.  1.
         -3    1    1    2    0  502 -0.17796864040E+02  0.31646852086E+02  0.11961452020E+03  0.12500354019E+03  0.00000000000E+00 0.  1.
<scales pt_clust_5="13000.00000" pt_clust_6="13000.00000" pt_clust_7="13000.00000" pt_clust_8="13000.00000" pt_clust_9="36.30773"></scales>
<clustering>
<clus scale="   36.308">  1  9  2 -1</clus>
<clus scale="   75.017">  5  6 -1 -1</clus>
<clus scale="   78.483">  1  5  2 -1</clus>
<clus scale="   91.448">  7  8 -1 -1</clus>
<clus scale="   36.308">  1  5  2 -1</clus>
</clustering>
</event>
<event>
 9    1  0.5981539E-005  0.1847404E+03  0.7546771E-02  0.1186418E+00
          1   -1    0    0  502    0 -0.00000000000E+00  0.00000000000E+00  0.96664007563E+03  0.96664007563E+03  0.00000000000E+00 0. -1.
         21   -1    0    0  501  502  0.00000000000E+00 -0.00000000000E+00 -0.60217138526E+02  0.60217138526E+02  0.00000000000E+00 0. -1.
        -24    2    1    2    0    0  0.50634478389E+02  0.52800819608E+02  0.29094631648E+03  0.31081079426E+03  0.81251546474E+02 0.  0.
         23    2    1    2    0    0 -0.57676400349E+02 -0.18125073847E+03  0.23392059311E+03  0.31338778972E+03  0.85525817811E+02 0.  0.
         13    1    3    3    0    0 -0.11382094206E+02  0.45014548700E+02  0.13726634779E+03  0.14490656265E+03  0.00000000000E+00 0. -1.
        -14    1    3    3    0    0  0.62016572595E+02  0.77862709079E+01  0.15367996869E+03  0.16590423162E+03  0.00000000000E+00 0.  1.
        -13    1    4    4    0    0 -0.35679697191E+02 -0.15480237122E+02  0.27016382898E+02  0.47355712199E+02  0.00000000000E+00 0.  1.
         13    1    4    4    0    0 -0.21996703158E+02 -0.16577050135E+03  0.20690421022E+03  0.26603207753E+03  0.00000000000E+00 0. -1.
          2    1    1    2  501    0  0.70419219602E+01  0.12844991886E+03  0.38155602751E+03  0.40265863017E+03  0.00000000000E+00 0. -1.
<scales pt_clust_5="13000.00000" pt_clust_6="13000.00000" pt_clust_7="13000.00000" pt_clust_8="13000.00000" pt_clust_9="163.75093"></scales>
<clustering>
<clus scale="   81.252">  5  6 -1 -1</clus>
<clus scale="   85.526">  7  8 -1 -1</clus>
<clus scale="  109.332">  1  5  2 -1</clus>
<clus scale="  163.751">  2  9  1 -1</clus>
<clus scale="  163.751">  2  5  1 -1</clus>
</clustering>
</event>
<event>
 9    1  0.5981539E-005  0.1041348E+03  0.7546771E-02  0.1275292E+00
          3   -1    0    0  502    0 -0.00000000000E+00  0.00000000000E+00  0.84912462567E+02  0.84912462567E+02  0.00000000000E+00 0. -1.
         21   -1    0    0  501  502  0.00000000000E+00 -0.00000000000E+00 -0.28136499431E+03  0.28136499431E+03  0.00000000000E+00 0. -1.
        -24    2    1    2    0    0  0.74910342093E+02 -0.24749260612E+02 -0.28416892930E+02  0.11713891614E+03  0.81791934914E+02 0.  0.
         23    2    1    2    0    0  0.78301599614E-01 -0.18558541632E+01 -0.13696825876E+03  0.16372009473E+03  0.89668919842E+02 0.  0.
         13    1    3    3    0    0  0.36327912453E+02 -0.93098117351E+01  0.28190023926E+02  0.46915533320E+02  0.00000000000E+00 0. -1.
        -14    1    3    3    0    0  0.38582429640E+02 -0.15439448877E+02 -0.56606916856E+02  0.70223382818E+02  0.00000000000E+00 0.  1.
        -13    1    4    4    0    0  0.17066097445E+02  0.28690922194E+02 -0.14561056443E+02  0.36420393506E+02  0.00000000000E+00 0.  1.
         13    1    4    4    0    0 -0.16987795846E+02 -0.30546776358E+02 -0.12240720231E+03  0.12729970122E+03  0.00000000000E+00 0. -1.
          4    1    1    2  501    0 -0.74988643692E+02  0.26605114775E+02 -0.31067380056E+02  0.85418446009E+02  0.00000000000E+00 0. -1.
<scales pt_clust_5="13000.00000" pt_clust_6="13000.00000" pt_clust_7="13000.00000" pt_clust_8="13000.00000" pt_clust_9="79.56843"></scales>
<clustering>
<clus scale="   79.568">  2  9  1 -1</clus>
<clus scale="   81.792">  5  6 -1 -1</clus>
<clus scale="   89.669">  7  8 -1 -1</clus>
<clus scale="   97.434">  1  5  2 -1</clus>
<clus scale="   79.568">  2  5  1 -1</clus>
</clustering>
</event>
<event>
 9    1  0.5981539E-005  0.1232276E+03  0.7546771E-02  0.1242485E+00
          1   -1    0    0  502    0 -0.00000000000E+00  0.00000000000E+00  0.89184781835E+03  0.89184781835E+03  0.00000000000E+00 0. -1.
         21   -1    0    0  501  502  0.00000000000E+00 -0.00000000000E+00 -0.29833893518E+02  0.29833893518E+02  0.00000000000E+00 0. -1.
        -24    2    1    2    0    0 -0.65653815989E+02 -0.57417100989E+02  0.32064174538E+03  0.34045962828E+03  0.74124777047E+02 0.  0.
         23    2    1    2    0    0  0.21510185631E+02  0.86646885493E+02  0.20723517788E+03  0.24291663547E+03  0.89953888105E+02 0.  0.
         13    1    3    3    0    0 -0.35502121137E+02  0.13028531040E+02  0.10312908433E+03  0.10984421360E+03  0.00000000000E+00 0. -1.
        -14    1    3    3    0    0 -0.30151694851E+02 -0.70445632029E+02  0.21751266105E+03  0.23061541469E+03  0.00000000000E+00 0.  1.
        -13    1    4    4    0    0 -0.83935773500E+01  0.79062156086E+02  0.83111642895E+02  0.11501661554E+03  0.00000000000E+00 0. -1.
         13    1    4    4    0    0  0.29903762981E+02  0.75847294069E+01  0.12412353499E+03  0.12790001993E+03  0.00000000000E+00 0.  1.
          2    1    1    2  501    0  0.44143630358E+02 -0.29229784504E+02  0.33413700157E+03  0.33830544811E+03  0.00000000000E+00 0. -1.
<scales pt_clust_5="13000.00000" pt_clust_6="13000.00000" pt_clust_7="13000.00000" pt_clust_8="13000.00000" pt_clust_9="52.94377"></scales>
<clustering>
<clus scale="   52.944">  2  9  1 -1</clus>
<clus scale="   74.125">  5  6 -1 -1</clus>
<clus scale="   89.954">  7  8 -1 -1</clus>
<clus scale="  112.195">  1  5  2 -1</clus>
<clus scale="   52.944">  2  5  1 -1</clus>
</clustering>
</event>
<event>
 9    1  0.5981539E-005  0.1083907E+03  0.7546771E-02  0.1272724E+00
         21   -1    0    0  501  502  0.00000000000E+00  0.00000000000E+00  0.74127330879E+02  0.74127330879E+02  0.00000000000E+00 0.  1.
         -2   -1    0    0    0  501 -0.00000000000E+00 -0.00000000000E+00 -0.20453760344E+03  0.20453760344E+03  0.00000000000E+00 0.  1.
         23    2    1    2    0    0 -0.14925816099E+02  0.42017883371E+02 -0.59719198466E+02  0.12422100585E+03  0.99379037632E+02 0.  0.
        -24    2    1    2    0    0 -0.11726895522E+02 -0.44574076286E+02 -0.15971798463E+02  0.93525127717E+02  0.79796508776E+02 0.  0.
         11    1    4    4    0    0  0.30524982563E+02  0.28580122137E+00 -0.53091815218E+01  0.30984571181E+02  0.00000000000E+00 0. -1.
        -12    1    4    4    0    0 -0.42251878086E+02 -0.44859877508E+02 -0.10662616941E+02  0.62540556536E+02  0.00000000000E+00 0.  1.
        -11    1    3    3    0    0 -0.15911445996E+02 -0.17037485911E+02 -0.60833129774E+02  0.65146908736E+02  0.00000000000E+00 0. -1.
         11    1    3    3    0    0  0.98562989677E+00  0.59055369281E+02  0.11139313074E+01  0.59074097117E+02  0.00000000000E+00 0.  1.
         -1    1    1    2    0  502  0.26652711622E+02  0.25561929156E+01 -0.54719275634E+02  0.60918800751E+02  0.00000000000E+00 0.  1.
<scales pt_clust_5="13000.00000" pt_clust_6="13000.00000" pt_clust_7="13000.00000" pt_clust_8="13000.00000" pt_clust_9="26.77502"></scales>
<clustering>
<clus scale="   26.775">  1  9  2 -1</clus>
<clus scale="   79.797">  5  6 -1 -1</clus>
<clus scale="   90.774">  1  5  2 -1</clus>
<clus scale="   99.379">  7  8 -1 -1</clus>
<clus scale="   26.775">  1  5  2 -1</clus>
</clustering>
</event>
<event>
 9    1  0.5981539E-005  0.1855878E+03  0.7546771E-02  0.1163291E+00
         21   -1    0    0  501  502  0.00000000000E+00  0.00000000000E+00  0.86530357454E+03  0.86530357454E+03  0.00000000000E+00 0. -1.
         -2   -1    0    0    0  501 -0.00000000000E+00 -0.00000000000E+00 -0.53050917854E+02  0.53050917854E+02  0.00000000000E+00 0.  1.
        -24    2    1    2    0    0  0.83377161103E+02 -0.13608964143E+03  0.22761556106E+03  0.28930260307E+03  0.80093763832E+02 0.  0.
         23    2    1    2    0    0 -0.76749006050E+02  0.15559669343E+03  0.57373763153E+03  0.60574404012E+03  0.87465601120E+02 0.  0.
         11    1    3    3    0    0  0.29771969884E+02 -0.13942159261E+02  0.97767328113E+02  0.10314651929E+03  0.00000000000E+00 0. -1.
        -12    1    3    3    0    0  0.53605191219E+02 -0.12214748217E+03  0.12984823295E+03  0.18615608378E+03  0.00000000000E+00 0.  1.
        -13    1    4    4    0    0 -0.55235416716E+02  0.10478950536E+03  0.24184861238E+03  0.26930009841E+03  0.00000000000E+00 0.  1.
         13    1    4    4    0    0 -0.21513589334E+02  0.50807188071E+02  0.33188901915E+03  0.33644394172E+03  0.00000000000E+00 0. -1.
         -1    1    1    2    0  502 -0.66281550528E+01 -0.19507051996E+02  0.10899464102E+02  0.23307849208E+02  0.00000000000E+00 0.  1.
<scales pt_clust_5="13000.00000" pt_clust_6="13000.00000" pt_clust_7="13000.00000" pt_clust_8="13000.00000" pt_clust_9="20.60238"></scales>
<clustering>
<clus scale="   20.602">  1  9  2 -1</clus>
<clus scale="   80.094">  5  6 -1 -1</clus>
<clus scale="   87.466">  7  8 -1 -1</clus>
<clus scale="  182.230">  2  5  1 -1</clus>
<clus scale="   20.602">  1  5  2 -1</clus>
</clustering>
</event>
<event>
 9    1  0.5981539E-005  0.9420237E+02  0.7546771E-02  0.1293788E+00
         -2   -1    0    0    0  501 -0.00000000000E+00  0.00000000000E+00  0.52881908878E+03  0.52881908878E+03  0.00000000000E+00 0.  1.
         21   -1    0    0  501  502  0.00000000000E+00 -0.00000000000E+00 -0.42417585248E+02  0.42417585248E+02  0.00000000000E+00 0.  1.
         23    2    1    2    0    0 -0.14144987643E+02  0.36644979605E+01  0.16777848498E+03  0.18942813455E+03  0.86717293075E+02 0.  0.
        -24    2    1    2    0    0  0.80210442007E+02  0.40436206495E+02  0.14356072519E+03  0.18956826547E+03  0.85191805070E+02 0.  0.
         11    1    4    4    0    0  0.62329385730E+02 -0.16206369451E+02  0.74869232169E+02  0.98757281564E+02  0.00000000000E+00 0. -1.
        -12    1    4    4    0    0  0.17881056277E+02  0.56642575946E+02  0.68691493023E+02  0.90810983901E+02  0.00000000000E+00 0.  1.
        -13    1    3    3    0    0  0.14680480807E+02 -0.32765208400E+02  0.41497705284E+02  0.54873809254E+02  0.00000000000E+00 0.  1.
         13    1    3    3    0    0 -0.28825468450E+02  0.36429706360E+02  0.12628077969E+03  0.13455432530E+03  0.00000000000E+00 0. -1.
         -1    1    1    2    0  502 -0.66065454364E+02 -0.44100704456E+02  0.17506229336E+03  0.19224027401E+03  0.00000000000E+00 0.  1.
<scales pt_clust_5="13000.00000" pt_clust_6="13000.00000" pt_clust_7="13000.00000" pt_clust_8="13000.00000" pt_clust_9="79.43250"></scales>
<clustering>
<clus scale="   79.433">  2  9  1 -1</clus>
<clus scale="   85.192">  5  6 -1 -1</clus>
<clus scale="   86.717">  7  8 -1 -1</clus>
<clus scale="   92.800">  2  5  1 -1</clus>
<clus scale="   79.433">  2  5  1 -1</clus>
</clustering>
</event>
<event>
 9    1  0.1181806E-004  0.9651972E+02  0.7546771E-02  0.1294322E+00
          3   -1    0    0  502    0 -0.00000000000E+00  0.00000000000E+00  0.38394385054E+03  0.38394385054E+03  0.00000000000E+00 0. -1.
         21   -1    0    0  501  502  0.00000000000E+00 -0.00000000000E+00 -0.26216283826E+03  0.26216283826E+03  0.00000000000E+00 0. -1.
         23    2    1    2    0    0  0.21097501881E+01 -0.31344093515E+02  0.34582667266E+03  0.35925964766E+03  0.92111365572E+02 0.  0.
        -24    2    1    2    0    0  0.11188670109E+02  0.84036813455E+01 -0.24026799047E+02  0.85078224466E+02  0.80406523410E+02 0.  0.
         11    1    4    4    0    0  0.42607111282E+02 -0.11611300266E+02 -0.16008404338E+02  0.46972941521E+02  0.00000000000E+00 0. -1.
        -12    1    4    4    0    0 -0.31418441173E+02  0.20014981611E+02 -0.80183947096E+01  0.38105282945E+02  0.00000000000E+00 0.  1.
        -13    1    3    3    0    0  0.28468481830E+02  0.18128840441E+02  0.68973665894E+02  0.76788514117E+02  0.00000000000E+00 0.  1.
         13    1    3    3    0    0 -0.26358731642E+02 -0.49472933957E+02  0.27685300677E+03  0.28247113354E+03  0.00000000000E+00 0. -1.
          4    1    1    2  501    0 -0.13298420298E+02  0.22940412170E+02 -0.20001886134E+03  0.20176881668E+03  0.00000000000E+00 0. -1.
<scales pt_clust_5="13000.00000" pt_clust_6="13000.00000" pt_clust_7="13000.00000" pt_clust_8="13000.00000" pt_clust_9="26.51623"></scales>
<clustering>
<clus scale="   26.516">  2  9  1 -1</clus>
<clus scale="   80.407">  5  6 -1 -1</clus>
<clus scale="   85.421">  2  5  1 -1</clus>
<clus scale="   92.111">  7  8 -1 -1</clus>
<clus scale="   26.516">  2  5  1 -1</clus>
</clustering>
</event>
<event>
 9    1  0.5981539E-005  0.1313406E+03  0.7546771E-02  0.1228134E+00
         21   -1    0    0  501  502  0.00000000000E+00  0.00000000000E+00  0.85962053872E+02  0.85962053872E+02  0.00000000000E+00 0.  1.
          1   -1    0    0  502    0 -0.00000000000E+00 -0.00000000000E+00 -0.63439964529E+03  0.63439964529E+03  0.00000000000E+00 0. -1.
         23    2    1    2    0    0 -0.71608706537E+02 -0.64347703943E+02 -0.49013820051E+03  0.50766743544E+03  0.90677095020E+02 0.  0.
        -24    2    1    2    0    0  0.10794723260E+03  0.63517854893E+01 -0.50729161652E+02  0.14383699537E+03  0.80141644545E+02 0.  0.
         13    1    4    4    0    0  0.56789351439E+02 -0.93069873230E+01 -0.66613113180E+02  0.88028161956E+02  0.00000000000E+00 0. -1.
        -14    1    4    4    0    0  0.51157881158E+02  0.15658772812E+02  0.15883951529E+02  0.55808833411E+02  0.00000000000E+00 0.  1.
        -13    1    3    3    0    0 -0.44910675756E+02  0.13834697607E+02 -0.22901771951E+03  0.23378939990E+03  0.00000000000E+00 0.  1.
         13    1    3    3    0    0 -0.26698030781E+02 -0.78182401551E+02 -0.26112048099E+03  0.27387803554E+03  0.00000000000E+00 0. -1.
          2    1    1    2  501    0 -0.36338526060E+02  0.57995918454E+02 -0.75702292600E+01  0.68857268350E+02  0.00000000000E+00 0. -1.
<scales pt_clust_5="13000.00000" pt_clust_6="13000.00000" pt_clust_7="13000.00000" pt_clust_8="13000.00000" pt_clust_9="68.43986"></scales>
<clustering>
<clus scale="   68.440">  1  9  2 -1</clus>
<clus scale="   80.142">  5  6 -1 -1</clus>
<clus scale="   90.677">  7  8 -1 -1</clus>
<clus scale="  124.301">  1  5  2 -1</clus>
<clus scale="   68.440">  1  5  2 -1</clus>
</clustering>
</event>
<event>
 9    1  0.5981539E-005  0.1712368E+03  0.7546771E-02  0.1199233E+00
          1   -1    0    0  502    0 -0.00000000000E+00  0.00000000000E+00  0.47034781638E+03  0.47034781638E+03  0.00000000000E+00 0. -1.
         21   -1    0    0  501  502  0.00000000000E+00 -0.00000000000E+00 -0.96038495774E+02  0.96038495774E+02  0.00000000000E+00 0. -1.
        -24    2    1    2    0    0  0.61932731985E+02 -0.91005882129E+01  0.85691194579E+02  0.13443148924E+03  0.82524908200E+02 0.  0.
         23    2    1    2    0    0 -0.70304513012E+02 -0.13431530269E+03  0.15696351373E+03  0.23709297077E+03  0.92694158710E+02 0.  0.
         11    1    3    3    0    0  0.66629355789E+02 -0.32381300005E+02  0.81809339502E+02  0.11036660579E+03  0.00000000000E+00 0. -1.
        -12    1    3    3    0    0 -0.46966238043E+01  0.23280711792E+02  0.38818550771E+01  0.24064883452E+02  0.00000000000E+00 0.  1.
        -13    1    4    4    0    0 -0.25132030496E+02  0.77602139555E+01  0.38726032174E+02  0.46813944989E+02  0.00000000000E+00 0.  1.
         13    1    4    4    0    0 -0.45172482515E+02 -0.14207551665E+03  0.11823748156E+03  0.19027902578E+03  0.00000000000E+00 0. -1.
          2    1    1    2  501    0  0.83717810268E+01  0.14341589091E+03  0.13165461229E+03  0.19486185214E+03  0.00000000000E+00 0. -1.
<scales pt_clust_5="13000.00000" pt_clust_6="13000.00000" pt_clust_7="13000.00000" pt_clust_8="13000.00000" pt_clust_9="143.97863"></scales>
<clustering>
<clus scale="   82.525">  5  6 -1 -1</clus>
<clus scale="   92.694">  7  8 -1 -1</clus>
<clus scale="  103.580">  1  5  2 -1</clus>
<clus scale="  143.979">  2  9  1 -1</clus>
<clus scale="  143.979">  2  5  1 -1</clus>
</clustering>
</event>
<event>
 9    1  0.5981539E-005  0.1171577E+03  0.7546771E-02  0.1251070E+00
          1   -1    0    0  502    0 -0.00000000000E+00  0.00000000000E+00  0.25449500398E+03  0.25449500398E+03  0.00000000000E+00 0. -1.
         21   -1    0    0  501  502  0.00000000000E+00 -0.00000000000E+00 -0.25015384991E+03  0.25015384991E+03  0.00000000000E+00 0.  1.
         23    2    1    2    0    0  0.69100040496E+02  0.96358842820E+01  0.19840231815E+03  0.22905409103E+03  0.90744867114E+02 0.  0.
        -24    2    1    2    0    0 -0.11839719426E+03 -0.15160743287E+02 -0.12745847469E+03  0.19254868127E+03  0.81126987760E+02 0.  0.
         13    1    4    4    0    0 -0.15097767451E+02 -0.25081599262E+02 -0.14532787006E+01  0.29311110906E+02  0.00000000000E+00 0. -1.
        -14    1    4    4    0    0 -0.10329942680E+03  0.99208559743E+01 -0.12600519599E+03  0.16323757036E+03  0.00000000000E+00 0.  1.
        -13    1    3    3    0    0  0.55668012360E+02  0.29525423235E+02  0.19485820386E+03  0.20479354928E+03  0.00000000000E+00 0. -1.
         13    1    3    3    0    0  0.13432028136E+02 -0.19889538953E+02  0.35441142893E+01  0.24260541744E+02  0.00000000000E+00 0.  1.
          2    1    1    2  501    0  0.49297153759E+02  0.55248590054E+01 -0.66602689382E+02  0.83046081597E+02  0.00000000000E+00 0. -1.
<scales pt_clust_5="13000.00000" pt_clust_6="13000.00000" pt_clust_7="13000.00000" pt_clust_8="13000.00000" pt_clust_9="49.60578"></scales>
<clustering>
<clus scale="   49.606">  2  9  1 -1</clus>
<clus scale="   81.127">  5  6 -1 -1</clus>
<clus scale="   90.745">  7  8 -1 -1</clus>
<clus scale="  109.877">  2  5  1 -1</clus>
<clus scale="   49.606">  2  5  1 -1</clus>
</clustering>
</event>
<event>
 9    1  0.5981539E-005  0.9158270E+02  0.7546771E-02  0.1305856E+00
         21   -1    0    0  501  502  0.00000000000E+00  0.00000000000E+00  0.29365900939E+03  0.29365900939E+03  0.00000000000E+00 0. -1.
         -2   -1    0    0    0  501 -0.00000000000E+00 -0.00000000000E+00 -0.76746060209E+02  0.76746060209E+02  0.00000000000E+00 0.  1.
        -24    2    1    2    0    0 -0.39898235084E+01 -0.21103387384E+01 -0.29397144433E+02  0.86033825416E+02  0.80729516248E+02 0.  0.
         23    2    1    2    0    0 -0.35658747569E+02  0.17224217960E+02  0.17364820745E+03  0.20022738978E+03  0.91482718060E+02 0.  0.
         13    1    3    3    0    0  0.38013304175E+02  0.41142897245E+01 -0.16619685431E+02  0.41691157553E+02  0.00000000000E+00 0. -1.
        -14    1    3    3    0    0 -0.42003127683E+02 -0.62246284629E+01 -0.12777459002E+02  0.44342667863E+02  0.00000000000E+00 0.  1.
        -13    1    4    4    0    0 -0.66691298443E+02  0.95520184402E+01  0.10974858436E+03  0.12877780132E+03  0.00000000000E+00 0.  1.
         13    1    4    4    0    0  0.31032550875E+02  0.76721995195E+01  0.63899623090E+02  0.71449588455E+02  0.00000000000E+00 0. -1.
         -1    1    1    2    0  502  0.39648571077E+02 -0.15113879221E+02  0.72661886167E+02  0.84143854410E+02  0.00000000000E+00 0.  1.
<scales pt_clust_5="13000.00000" pt_clust_6="13000.00000" pt_clust_7="13000.00000" pt_clust_8="13000.00000" pt_clust_9="42.43157"></scales>
<clustering>
<clus scale="   42.432">  1  9  2 -1</clus>
<clus scale="   80.730">  5  6 -1 -1</clus>
<clus scale="   80.843">  2  5  1 -1</clus>
<clus scale="   91.483">  7  8 -1 -1</clus>
<clus scale="   42.432">  1  5  2 -1</clus>
</clustering>
</event>
<event>
 9    1  0.5981539E-005  0.1397982E+03  0.7546771E-02  0.1231323E+00
          1   -1    0    0  502    0 -0.00000000000E+00  0.00000000000E+00  0.12553195732E+04  0.12553195732E+04  0.00000000000E+00 0. -1.
         21   -1    0    0  501  502  0.00000000000E+00 -0.00000000000E+00 -0.28864658982E+02  0.28864658982E+02  0.00000000000E+00 0. -1.
        -24    2    1    2    0    0 -0.42869021338E+02 -0.28646845710E+02  0.19487837191E+03  0.21746467071E+03  0.81577621981E+02 0.  0.
         23    2    1    2    0    0 -0.38827590434E+02  0.10244344406E+03  0.37405463658E+03  0.40004473008E+03  0.90092585200E+02 0.  0.
         11    1    3    3    0    0 -0.35948974635E+02 -0.55612813627E+02  0.11289234955E+03  0.13088084811E+03  0.00000000000E+00 0. -1.
        -12    1    3    3    0    0 -0.69200467024E+01  0.26965967916E+02  0.81986022363E+02  0.86583822593E+02  0.00000000000E+00 0.  1.
        -13    1    4    4    0    0  0.27342360477E+02  0.50913481670E+02  0.14271641203E+03  0.15397324948E+03  0.00000000000E+00 0. -1.
         13    1    4    4    0    0 -0.66169950911E+02  0.51529962389E+02  0.23133822455E+03  0.24607148060E+03  0.00000000000E+00 0.  1.
          2    1    1    2  501    0  0.81696611772E+02 -0.73796598349E+02  0.65752190576E+03  0.66667483143E+03  0.00000000000E+00 0. -1.
<scales pt_clust_5="13000.00000" pt_clust_6="13000.00000" pt_clust_7="13000.00000" pt_clust_8="13000.00000" pt_clust_9="106.89657"></scales>
<clustering>
<clus scale="   81.578">  5  6 -1 -1</clus>
<clus scale="   90.093">  7  8 -1 -1</clus>
<clus scale="   96.506">  1  5  2 -1</clus>
<clus scale="  106.897">  2  9  1 -1</clus>
<clus scale="  106.897">  2  5  1 -1</clus>
</clustering>
</event>
<event>
 9    1  0.5981539E-005  0.9500441E+02  0.7546771E-02  0.1300510E+00
         21   -1    0    0  501  502  0.00000000000E+00  0.00000000000E+00  0.19965383716E+03  0.19965383716E+03  0.00000000000E+00 0.  1.
          1   -1    0    0  502    0 -0.00000000000E+00 -0.00000000000E+00 -0.11297563282E+03  0.11297563282E+03  0.00000000000E+00 0. -1.
         23    2    1    2    0    0  0.10303116645E+02  0.18049655581E+02 -0.73318411042E+02  0.11963302552E+03  0.92219993048E+02 0.  0.
        -24    2    1    2    0    0 -0.39330548943E+01 -0.38426488089E+02  0.13699121346E+03  0.16161107355E+03  0.76547257448E+02 0.  0.
         11    1    4    4    0    0  0.13494624922E+02 -0.36428657869E+02  0.20727766029E+02  0.44031719255E+02  0.00000000000E+00 0. -1.
        -12    1    4    4    0    0 -0.17427679816E+02 -0.19978302195E+01  0.11626344743E+03  0.11757935430E+03  0.00000000000E+00 0.  1.
        -13    1    3    3    0    0 -0.30692530836E+02  0.24719510636E+02 -0.50624308991E+01  0.39733032376E+02  0.00000000000E+00 0.  1.
         13    1    3    3    0    0  0.40995647481E+02 -0.66698550546E+01 -0.68255980143E+02  0.79899993142E+02  0.00000000000E+00 0. -1.
          2    1    1    2  501    0 -0.63700617504E+01  0.20376832507E+02  0.23005401922E+02  0.31385370913E+02  0.00000000000E+00 0. -1.
<scales pt_clust_5="13000.00000" pt_clust_6="13000.00000" pt_clust_7="13000.00000" pt_clust_8="13000.00000" pt_clust_9="21.34931"></scales>
<clustering>
<clus scale="   21.349">  1  9  2 -1</clus>
<clus scale="   76.547">  5  6 -1 -1</clus>
<clus scale="   79.880">  1  5  2 -1</clus>
<clus scale="   92.220">  7  8 -1 -1</clus>
<clus scale="   21.349">  1  5  2 -1</clus>
</clustering>
</event>
<event>
 9    1  0.5981539E-005  0.2269564E+03  0.7546771E-02  0.1129585E+00
          1   -1    0    0  502    0 -0.00000000000E+00  0.00000000000E+00  0.12148115058E+04  0.12148115058E+04  0.00000000000E+00 0. -1.
         21   -1    0    0  501  502  0.00000000000E+00 -0.00000000000E+00 -0.69752018033E+02  0.69752018033E+02  0.00000000000E+00 0. -1.
        -24    2    1    2    0    0 -0.19962985769E+03 -0.46673366703E+02  0.70899903071E+03  0.74223930834E+03  0.78797728742E+02 0.  0.
         23    2    1    2    0    0  0.18761692864E+03  0.12469447179E+03  0.34481241722E+03  0.42166847349E+03  0.90332027901E+02 0.  0.
         13    1    3    3    0    0 -0.17458620091E+03 -0.30283358313E+02  0.67025229170E+03  0.69327884568E+03  0.00000000000E+00 0. -1.
        -14    1    3    3    0    0 -0.25043656776E+02 -0.16390008390E+02  0.38746739011E+02  0.48960462658E+02  0.00000000000E+00 0.  1.
        -11    1    4    4    0    0  0.86232982731E+01  0.41112359943E+02  0.89380209465E+02  0.98759350227E+02  0.00000000000E+00 0.  1.
         11    1    4    4    0    0  0.17899363036E+03  0.83582111848E+02  0.25543220775E+03  0.32290912327E+03  0.00000000000E+00 0. -1.
          2    1    1    2  501    0  0.12012929052E+02 -0.78021105088E+02  0.91248039841E+02  0.12065574200E+03  0.00000000000E+00 0. -1.
<scales pt_clust_5="13000.00000" pt_clust_6="13000.00000" pt_clust_7="13000.00000" pt_clust_8="13000.00000" pt_clust_9="78.94050"></scales>
<clustering>
<clus scale="   78.798">  5  6 -1 -1</clus>
<clus scale="   78.941">  2  9  1 -1</clus>
<clus scale="   90.332">  7  8 -1 -1</clus>
<clus scale="  222.617">  1  5  2 -1</clus>
<clus scale="   78.941">  2  5  1 -1</clus>
</clustering>
</event>
<event>
 9    1  0.5981539E-005  0.1004618E+03  0.7546771E-02  0.1284475E+00
          1   -1    0    0  502    0 -0.00000000000E+00  0.00000000000E+00  0.64547105364E+03  0.64547105364E+03  0.00000000000E+00 0. -1.
         21   -1    0    0  501  502  0.00000000000E+00 -0.00000000000E+00 -0.40706748884E+02  0.40706748884E+02  0.00000000000E+00 0.  1.
        -24    2    1    2    0    0 -0.48770302452E+01 -0.84488056625E-01  0.54340719396E+03  0.55262793848E+03  0.10041149027E+03 0.  0.
         23    2    1    2    0    0 -0.12742977499E+02  0.13194439400E+02  0.35054364904E+02  0.99283700872E+02  0.91060244088E+02 0.  0.
         13    1    3    3    0    0  0.29811171379E+02  0.24473877976E+02  0.99873850700E+02  0.10706289131E+03  0.00000000000E+00 0. -1.
        -14    1    3    3    0    0 -0.34688201625E+02 -0.24558366032E+02  0.44353334326E+03  0.44556504717E+03  0.00000000000E+00 0.  1.
        -11    1    4    4    0    0  0.30612393249E+02  0.52030862557E+01 -0.13361001976E+02  0.33803950965E+02  0.00000000000E+00 0.  1.
         11    1    4    4    0    0 -0.43355370748E+02  0.79913531444E+01  0.48415366880E+02  0.65479749907E+02  0.00000000000E+00 0. -1.
          2    1    1    2  501    0  0.17620007744E+02 -0.13109951343E+02  0.26302745890E+02  0.34266163172E+02  0.00000000000E+00 0. -1.
<scales pt_clust_5="13000.00000" pt_clust_6="13000.00000" pt_clust_7="13000.00000" pt_clust_8="13000.00000" pt_clust_9="21.96214"></scales>
<clustering>
<clus scale="   21.962">  2  9  1 -1</clus>
<clus scale="   91.060">  7  8 -1 -1</clus>
<clus scale="   91.116">  2  7  1 -1</clus>
<clus scale="  100.411">  5  6 -1 -1</clus>
<clus scale="   21.962">  2  5  1 -1</clus>
</clustering>
</event>
<event>
 9    1  0.5981539E-005  0.1641262E+03  0.7546771E-02  0.1185867E+00
         21   -1    0    0  501  502  0.00000000000E+00  0.00000000000E+00  0.38085539779E+02  0.38085539779E+02  0.00000000000E+00 0.  1.
          1   -1    0    0  502    0 -0.00000000000E+00 -0.00000000000E+00 -0.11060047164E+04  0.11060047164E+04  0.00000000000E+00 0. -1.
        -24    2    1    2    0    0 -0.11012947263E+03 -0.82137752231E+02 -0.35883799723E+03  0.39240932010E+03  0.79657109940E+02 0.  0.
         23    2    1    2    0    0  0.74039006906E+02  0.11900570861E+03 -0.33947577908E+03  0.37849208326E+03  0.91478518173E+02 0.  0.
         11    1    3    3    0    0 -0.12601273003E+02  0.15897044587E+02 -0.53511493035E+02  0.57227510821E+02  0.00000000000E+00 0. -1.
        -12    1    3    3    0    0 -0.97528199627E+02 -0.98034796818E+02 -0.30532650419E+03  0.33518180928E+03  0.00000000000E+00 0.  1.
        -11    1    4    4    0    0  0.39464663467E+02  0.11264219721E+03 -0.18570132966E+03  0.22075032977E+03  0.00000000000E+00 0.  1.
         11    1    4    4    0    0  0.34574343439E+02  0.63635113966E+01 -0.15377444942E+03  0.15774175349E+03  0.00000000000E+00 0. -1.
          2    1    1    2  501    0  0.36090465724E+02 -0.36867956380E+02 -0.36960540035E+03  0.37318885285E+03  0.00000000000E+00 0. -1.
<scales pt_clust_5="13000.00000" pt_clust_6="13000.00000" pt_clust_7="13000.00000" pt_clust_8="13000.00000" pt_clust_9="51.59235"></scales>
<clustering>
<clus scale="   51.592">  1  9  2 -1</clus>
<clus scale="   79.657">  5  6 -1 -1</clus>
<clus scale="   91.479">  7  8 -1 -1</clus>
<clus scale="  157.843">  2  5  1 -1</clus>
<clus scale="   51.592">  1  5  2 -1</clus>
</clustering>
</event>
<event>
 9    1  0.6539987E-005  0.9780005E+02  0.7546771E-02  0.1287012E+00
          3   -1    0    0  502    0 -0.00000000000E+00  0.00000000000E+00  0.19150764385E+03  0.19150764385E+03  0.00000000000E+00 0. -1.
         21   -1    0    0  501  502  0.00000000000E+00 -0.00000000000E+00 -0.24057205089E+03  0.24057205089E+03  0.00000000000E+00 0.  1.
         23    2    1    2    0    0 -0.31779125393E+02  0.12854674405E+02  0.15700686941E+03  0.18496661201E+03  0.91576935149E+02 0.  0.
        -24    2    1    2    0    0  0.23962875786E+02 -0.33181370780E+02 -0.20331768721E+03  0.22516198715E+03  0.87661940122E+02 0.  0.
         11    1    4    4    0    0  0.32383401413E+02 -0.39004603899E+01 -0.17798417617E+02  0.37157528820E+02  0.00000000000E+00 0. -1.
        -12    1    4    4    0    0 -0.84205256268E+01 -0.29280910390E+02 -0.18551926959E+03  0.18800445833E+03  0.00000000000E+00 0.  1.
        -13    1    3    3    0    0 -0.14528906068E+02  0.36442894080E+02  0.18436405237E+02  0.43348294990E+02  0.00000000000E+00 0.  1.
         13    1    3    3    0    0 -0.17250219325E+02 -0.23588219675E+02  0.13857046417E+03  0.14161831702E+03  0.00000000000E+00 0. -1.
          4    1    1    2  501    0  0.78162496069E+01  0.20326696375E+02 -0.27535892491E+01  0.21951095581E+02  0.00000000000E+00 0. -1.
<scales pt_clust_5="13000.00000" pt_clust_6="13000.00000" pt_clust_7="13000.00000" pt_clust_8="13000.00000" pt_clust_9="21.77770"></scales>
<clustering>
<clus scale="   21.778">  2  9  1 -1</clus>
<clus scale="   87.662">  5  6 -1 -1</clus>
<clus scale="   91.577">  7  8 -1 -1</clus>
<clus scale="   94.144">  2  5  1 -1</clus>
<clus scale="   21.778">  2  5  1 -1</clus>
</clustering>
</event>
<event>
 9    1  0.5981539E-005  0.9380471E+02  0.7546771E-02  0.1300675E+00
         -2   -1    0    0    0  501 -0.00000000000E+00  0.00000000000E+00  0.15865363515E+03  0.15865363515E+03  0.00000000000E+00 0.  1.
         21   -1    0    0  501  502  0.00000000000E+00 -0.00000000000E+00 -0.15871699336E+03  0.15871699336E+03  0.00000000000E+00 0. -1.
        -24    2    1    2    0    0 -0.15645138488E+02  0.19709317674E+02  0.11643046937E+03  0.14332556795E+03  0.79705311434E+02 0.  0.
         23    2    1    2    0    0  0.17504115194E+01 -0.52293555535E+01 -0.48997453879E+02  0.10362849147E+03  0.91146605295E+02 0.  0.
         11    1    3    3    0    0 -0.34434220743E+02  0.34418109416E+02  0.39239060321E+02  0.62530198055E+02  0.00000000000E+00 0. -1.
        -12    1    3    3    0    0  0.18789082255E+02 -0.14708791742E+02  0.77191409048E+02  0.80795369900E+02  0.00000000000E+00 0.  1.
        -11    1    4    4    0    0 -0.17362201022E+02 -0.28954201097E+02 -0.61927627960E+02  0.70532424389E+02  0.00000000000E+00 0.  1.
         11    1    4    4    0    0  0.19112612541E+02  0.23724845543E+02  0.12930174080E+02  0.33096067077E+02  0.00000000000E+00 0. -1.
         -1    1    1    2    0  502  0.13894726969E+02 -0.14479962120E+02 -0.67496373693E+02  0.70416569089E+02  0.00000000000E+00 0.  1.
<scales pt_clust_5="13000.00000" pt_clust_6="13000.00000" pt_clust_7="13000.00000" pt_clust_8="13000.00000" pt_clust_9="20.06820"></scales>
<clustering>
<clus scale="   20.068">  2  9  1 -1</clus>
<clus scale="   79.705">  5  6 -1 -1</clus>
<clus scale="   82.732">  1  5  2 -1</clus>
<clus scale="   91.147">  7  8 -1 -1</clus>
<clus scale="   20.068">  2  5  1 -1</clus>
</clustering>
</event>
<event>
 9    1  0.5981539E-005  0.1165757E+03  0.7546771E-02  0.1254375E+00
         21   -1    0    0  501  502  0.00000000000E+00  0.00000000000E+00  0.11234996934E+03  0.11234996934E+03  0.00000000000E+00 0. -1.
          1   -1    0    0  502    0 -0.00000000000E+00 -0.00000000000E+00 -0.37858367575E+03  0.37858367575E+03  0.00000000000E+00 0. -1.
        -24    2    1    2    0    0  0.45114644415E+02 -0.57485909658E+02 -0.30503985924E+03  0.32310874457E+03  0.77524087495E+02 0.  0.
         23    2    1    2    0    0 -0.16180841877E+02  0.54240203159E+02 -0.11522874802E+02  0.10968102240E+03  0.93238032736E+02 0.  0.
         11    1    3    3    0    0  0.54109295344E+02 -0.33566216863E+02 -0.28065014875E+03  0.28778292644E+03  0.00000000000E+00 0. -1.
        -12    1    3    3    0    0 -0.89946509289E+01 -0.23919692795E+02 -0.24389710493E+02  0.35325818132E+02  0.00000000000E+00 0.  1.
        -13    1    4    4    0    0  0.32231070999E+02  0.14229593526E+02  0.18804276628E+02  0.39936500713E+02  0.00000000000E+00 0. -1.
         13    1    4    4    0    0 -0.48411912877E+02  0.40010609633E+02 -0.30327151430E+02  0.69744521687E+02  0.00000000000E+00 0.  1.
          2    1    1    2  501    0 -0.28933802538E+02  0.32457064990E+01  0.50329027640E+02  0.58143878123E+02  0.00000000000E+00 0. -1.
<scales pt_clust_5="13000.00000" pt_clust_6="13000.00000" pt_clust_7="13000.00000" pt_clust_8="13000.00000" pt_clust_9="29.11528"></scales>
<clustering>
<clus scale="   29.115">  1  9  2 -1</clus>
<clus scale="   77.524">  5  6 -1 -1</clus>
<clus scale="   93.238">  7  8 -1 -1</clus>
<clus scale="  104.434">  2  5  1 -1</clus>
<clus scale="   29.115">  1  5  2 -1</clus>
</clustering>
</event>
<event>
 9    1  0.5981539E-005  0.2301736E+03  0.7546771E-02  0.1126767E+00
         21   -1    0    0  501  502  0.00000000000E+00  0.00000000000E+00  0.89618871503E+02  0.89618871503E+02  0.00000000000E+00 0. -1.
          1   -1    0    0  502    0 -0.00000000000E+00 -0.00000000000E+00 -0.14443758309E+04  0.14443758309E+04  0.00000000000E+00 0. -1.
         23    2    1    2    0    0 -0.64977550018E+02  0.23839852825E+03 -0.94496448705E+03  0.98096530544E+03  0.90989606075E+02 0.  0.
        -24    2    1    2    0    0  0.13742100140E+03 -0.11560730524E+03 -0.33996559438E+03  0.39427949625E+03  0.87350644826E+02 0.  0.
         13    1    4    4    0    0  0.13265906768E+03 -0.67616910382E+02 -0.28182421067E+03  0.31874027127E+03  0.00000000000E+00 0. -1.
        -14    1    4    4    0    0  0.47619337156E+01 -0.47990394857E+02 -0.58141383706E+02  0.75539224979E+02  0.00000000000E+00 0.  1.
        -11    1    3    3    0    0  0.12252058569E+02  0.10636077662E+03 -0.46721094573E+03  0.47932118203E+03  0.00000000000E+00 0.  1.
         11    1    3    3    0    0 -0.77229608587E+02  0.13203775163E+03 -0.47775354133E+03  0.50164412341E+03  0.00000000000E+00 0. -1.
          2    1    1    2  501    0 -0.72443451379E+02 -0.12279122301E+03 -0.69826878001E+02  0.15874990075E+03  0.00000000000E+00 0. -1.
<scales pt_clust_5="13000.00000" pt_clust_6="13000.00000" pt_clust_7="13000.00000" pt_clust_8="13000.00000" pt_clust_9="142.56836"></scales>
<clustering>
<clus scale="   87.351">  5  6 -1 -1</clus>
<clus scale="   90.990">  7  8 -1 -1</clus>
<clus scale="  142.568">  1  9  2 -1</clus>
<clus scale="  228.760">  1  5  2 -1</clus>
<clus scale="  142.568">  1  5  2 -1</clus>
</clustering>
</event>
<event>
 9    1  0.5981539E-005  0.2265432E+03  0.7546771E-02  0.1156396E+00
         21   -1    0    0  501  502  0.00000000000E+00  0.00000000000E+00  0.18659156347E+03  0.18659156347E+03  0.00000000000E+00 0. -1.
          1   -1    0    0  502    0 -0.00000000000E+00 -0.00000000000E+00 -0.54958301754E+03  0.54958301754E+03  0.00000000000E+00 0. -1.
         23    2    1    2    0    0 -0.42093683328E+02  0.61632345205E+02 -0.20132505686E+03  0.23317364624E+03  0.90927150133E+02 0.  0.
        -24    2    1    2    0    0  0.77230652947E+02  0.16189829980E+03 -0.19075383531E+03  0.27486361877E+03  0.83590370296E+02 0.  0.
         13    1    4    4    0    0  0.31522718745E+02  0.11111403961E+03 -0.16592797312E+03  0.20216850363E+03  0.00000000000E+00 0. -1.
        -14    1    4    4    0    0  0.45707934202E+02  0.50784260192E+02 -0.24825862186E+02  0.72695115142E+02  0.00000000000E+00 0.  1.
        -13    1    3    3    0    0  0.19628060878E+02  0.22855467041E+02 -0.12104940252E+03  0.12474209794E+03  0.00000000000E+00 0.  1.
         13    1    3    3    0    0 -0.61721744207E+02  0.38776878164E+02 -0.80275654334E+02  0.10843154830E+03  0.00000000000E+00 0. -1.
          2    1    1    2  501    0 -0.35136969619E+02 -0.22353064501E+03  0.29087438103E+02  0.22813731599E+03  0.00000000000E+00 0. -1.
<scales pt_clust_5="13000.00000" pt_clust_6="13000.00000" pt_clust_7="13000.00000" pt_clust_8="13000.00000" pt_clust_9="210.55758"></scales>
<clustering>
<clus scale="   83.590">  5  6 -1 -1</clus>
<clus scale="   90.927">  7  8 -1 -1</clus>
<clus scale="  117.636">  2  7  1 -1</clus>
<clus scale="  210.558">  1  9  2 -1</clus>
<clus scale="  210.558">  1  5  2 -1</clus>
</clustering>
</event>
<event>
 9    1  0.5981539E-005  0.1117054E+03  0.7546771E-02  0.1261486E+00
         -2   -1    0    0    0  501 -0.00000000000E+00  0.00000000000E+00  0.75498470992E+02  0.75498470992E+02  0.00000000000E+00 0.  1.
         21   -1    0    0  501  502  0.00000000000E+00 -0.00000000000E+00 -0.71942979341E+03  0.71942979341E+03  0.00000000000E+00 0.  1.
         23    2    1    2    0    0 -0.62574274621E+02  0.29500574105E+02 -0.21334382520E+03  0.24221406567E+03  0.91467164281E+02 0.  0.
        -24    2    1    2    0    0  0.60662227223E+02  0.11115575238E+02 -0.47889816492E+03  0.48956953841E+03  0.80817193443E+02 0.  0.
         13    1    4    4    0    0 -0.63502060045E+01 -0.24466614080E+02 -0.99633217939E+02  0.10278968060E+03  0.00000000000E+00 0. -1.
        -14    1    4    4    0    0  0.67012433228E+02  0.35582189318E+02 -0.37926494698E+03  0.38677985781E+03  0.00000000000E+00 0.  1.
        -11    1    3    3    0    0 -0.75786262120E+02  0.48900625305E+02 -0.15509026641E+03  0.17940964137E+03  0.00000000000E+00 0. -1.
         11    1    3    3    0    0  0.13211987499E+02 -0.19400051200E+02 -0.58253558793E+02  0.62804424305E+02  0.00000000000E+00 0.  1.
         -1    1    1    2    0  502  0.19120473975E+01 -0.40616149342E+02  0.48310667701E+02  0.63144660315E+02  0.00000000000E+00 0.  1.
<scales pt_clust_5="13000.00000" pt_clust_6="13000.00000" pt_clust_7="13000.00000" pt_clust_8="13000.00000" pt_clust_9="40.66115"></scales>
<clustering>
<clus scale="   40.661">  2  9  1 -1</clus>
<clus scale="   80.817">  5  6 -1 -1</clus>
<clus scale="   91.467">  7  8 -1 -1</clus>
<clus scale="  103.166">  2  5  1 -1</clus>
<clus scale="   40.661">  2  5  1 -1</clus>
</clustering>
</event>
<event>
 9    1  0.5981539E-005  0.1561988E+03  0.7546771E-02  0.1194409E+00
         21   -1    0    0  501  502  0.00000000000E+00  0.00000000000E+00  0.11535120363E+03  0.11535120363E+03  0.00000000000E+00 0.  1.
         -2   -1    0    0    0  501 -0.00000000000E+00 -0.00000000000E+00 -0.29157173289E+03  0.29157173289E+03  0.00000000000E+00 0.  1.
         23    2    1    2    0    0 -0.62452790538E+01 -0.12955334755E+03 -0.13612335789E+03  0.20715597158E+03  0.86953749920E+02 0.  0.
        -24    2    1    2    0    0 -0.33884147626E+02  0.12945728315E+03 -0.26291711358E+02  0.15732911816E+03  0.78446629712E+02 0.  0.
         11    1    4    4    0    0  0.25071943462E+02  0.52383130781E+02 -0.10475397445E+02  0.59011259019E+02  0.00000000000E+00 0. -1.
        -12    1    4    4    0    0 -0.58956091088E+02  0.77074152367E+02 -0.15816313913E+02  0.98317859136E+02  0.00000000000E+00 0.  1.
        -13    1    3    3    0    0 -0.30067054309E+02 -0.11248827305E+03 -0.13436973501E+03  0.17780007035E+03  0.00000000000E+00 0.  1.
         13    1    3    3    0    0  0.23821775255E+02 -0.17065074502E+02 -0.17536228829E+01  0.29355901234E+02  0.00000000000E+00 0. -1.
         -1    1    1    2    0  502  0.40129426680E+02  0.96064404907E-01 -0.13805460012E+02  0.42437846790E+02  0.00000000000E+00 0.  1.
<scales pt_clust_5="13000.00000" pt_clust_6="13000.00000" pt_clust_7="13000.00000" pt_clust_8="13000.00000" pt_clust_9="40.12954"></scales>
<clustering>
<clus scale="   40.130">  1  9  2 -1</clus>
<clus scale="   78.447">  5  6 -1 -1</clus>
<clus scale="   86.954">  7  8 -1 -1</clus>
<clus scale="  151.628">  1  5  2 -1</clus>
<clus scale="   40.130">  1  5  2 -1</clus>
</clustering>
</event>
<event>
 9    1  0.5981539E-005  0.1254515E+03  0.7546771E-02  0.1237396E+00
         21   -1    0    0  501  502  0.00000000000E+00  0.00000000000E+00  0.42017161321E+03  0.42017161321E+03  0.00000000000E+00 0. -1.
         -2   -1    0    0    0  501 -0.00000000000E+00 -0.00000000000E+00 -0.69834853998E+02  0.69834853998E+02  0.00000000000E+00 0.  1.
        -24    2    1    2    0    0 -0.18483100133E+02 -0.83742859869E+02  0.40322894194E+02  0.12427149228E+03  0.80392639134E+02 0.  0.
         23    2    1    2    0    0 -0.13817563634E+02  0.90152508936E+02  0.13124763346E+03  0.18396098882E+03  0.91089539394E+02 0.  0.
         11    1    3    3    0    0 -0.21915622127E+01 -0.42998990351E+02  0.61877845074E+02  0.75382914690E+02  0.00000000000E+00 0. -1.
        -12    1    3    3    0    0 -0.16291537921E+02 -0.40743869518E+02 -0.21554950880E+02  0.48888577587E+02  0.00000000000E+00 0.  1.
        -11    1    4    4    0    0 -0.50541807945E+02  0.32120578025E+02  0.67831762905E+02  0.90483998263E+02  0.00000000000E+00 0.  1.
         11    1    4    4    0    0  0.36724244311E+02  0.58031930911E+02  0.63415870560E+02  0.93476990561E+02  0.00000000000E+00 0. -1.
         -1    1    1    2    0  502  0.32300663767E+02 -0.64096490667E+01  0.17876623155E+03  0.18177398610E+03  0.00000000000E+00 0.  1.
<scales pt_clust_5="13000.00000" pt_clust_6="13000.00000" pt_clust_7="13000.00000" pt_clust_8="13000.00000" pt_clust_9="32.93048"></scales>
<clustering>
<clus scale="   32.930">  1  9  2 -1</clus>
<clus scale="   80.393">  5  6 -1 -1</clus>
<clus scale="   91.090">  7  8 -1 -1</clus>
<clus scale="  117.914">  2  5  1 -1</clus>
<clus scale="   32.930">  1  5  2 -1</clus>
</clustering>
</event>
<event>
 9    1  0.5981539E-005  0.8881068E+02  0.7546771E-02  0.1307049E+00
         21   -1    0    0  501  502  0.00000000000E+00  0.00000000000E+00  0.66325645904E+02  0.66325645904E+02  0.00000000000E+00 0. -1.
          1   -1    0    0  502    0 -0.00000000000E+00 -0.00000000000E+00 -0.23434214018E+03  0.23434214018E+03  0.00000000000E+00 0. -1.
         23    2    1    2    0    0 -0.17207964695E+02 -0.95614994420E+01 -0.13998268005E+03  0.16383168142E+03  0.82813844264E+02 0.  0.
        -24    2    1    2    0    0  0.42294489709E+02  0.57586906439E+01 -0.46107783973E+02  0.10568384191E+03  0.84977410651E+02 0.  0.
         11    1    4    4    0    0  0.51281252070E+02 -0.29165793531E+02 -0.27156496615E+02  0.64945251054E+02  0.00000000000E+00 0. -1.
        -12    1    4    4    0    0 -0.89867623606E+01  0.34924484175E+02 -0.18951287359E+02  0.40738590859E+02  0.00000000000E+00 0.  1.
        -11    1    3    3    0    0 -0.43062124483E+02 -0.29021133509E+02 -0.97055787886E+02  0.11007451439E+03  0.00000000000E+00 0.  1.
         11    1    3    3    0    0  0.25854159789E+02  0.19459634067E+02 -0.42926892161E+02  0.53757167029E+02  0.00000000000E+00 0. -1.
          2    1    1    2  501    0 -0.25086525014E+02  0.38028087981E+01  0.18073969748E+02  0.31152262751E+02  0.00000000000E+00 0. -1.
<scales pt_clust_5="13000.00000" pt_clust_6="13000.00000" pt_clust_7="13000.00000" pt_clust_8="13000.00000" pt_clust_9="25.37312"></scales>
<clustering>
<clus scale="   25.373">  1  9  2 -1</clus>
<clus scale="   82.814">  7  8 -1 -1</clus>
<clus scale="   84.977">  5  6 -1 -1</clus>
<clus scale="   86.743">  2  7  1 -1</clus>
<clus scale="   25.373">  1  5  2 -1</clus>
</clustering>
</event>
<event>
 9    1  0.5981539E-005  0.1689471E+03  0.7546771E-02  0.1188248E+00
         -2   -1    0    0    0  501 -0.00000000000E+00  0.00000000000E+00  0.40936205700E+03  0.40936205700E+03  0.00000000000E+00 0.  1.
         21   -1    0    0  501  502  0.00000000000E+00 -0.00000000000E+00 -0.10104806467E+04  0.10104806467E+04  0.00000000000E+00 0.  1.
        -24    2    1    2    0    0  0.10846403824E+03  0.26023129464E+02  0.98498044765E+02  0.16894519281E+03  0.79993515326E+02 0.  0.
         23    2    1    2    0    0 -0.23828868391E+03  0.26831357854E+02  0.20931325538E+03  0.33122279660E+03  0.91624688094E+02 0.  0.
         11    1    3    3    0    0  0.70975547584E+02  0.21601819304E+01  0.12438985828E+02  0.72089687953E+02  0.00000000000E+00 0. -1.
        -12    1    3    3    0    0  0.37488490654E+02  0.23862947534E+02  0.86059058937E+02  0.96855504859E+02  0.00000000000E+00 0.  1.
        -11    1    4    4    0    0 -0.44944417481E+02 -0.66619292336E+01  0.91991807316E+02  0.10260055837E+03  0.00000000000E+00 0. -1.
         11    1    4    4    0    0 -0.19334426643E+03  0.33493287087E+02  0.11732144806E+03  0.22862223824E+03  0.00000000000E+00 0.  1.
         -1    1    1    2    0  502  0.12982464567E+03 -0.52854487318E+02 -0.90892988982E+03  0.91967471427E+03  0.00000000000E+00 0.  1.
<scales pt_clust_5="13000.00000" pt_clust_6="13000.00000" pt_clust_7="13000.00000" pt_clust_8="13000.00000" pt_clust_9="141.94384"></scales>
<clustering>
<clus scale="   79.994">  5  6 -1 -1</clus>
<clus scale="   91.625">  7  8 -1 -1</clus>
<clus scale="  137.261">  1  5  2 -1</clus>
<clus scale="  141.944">  2  9  1 -1</clus>
<clus scale="  141.944">  2  5  1 -1</clus>
</clustering>
</event>
<event>
 9    1  0.5981539E-005  0.1128127E+03  0.7546771E-02  0.1258943E+00
         21   -1    0    0  501  502  0.00000000000E+00  0.00000000000E+00  0.89817282259E+02  0.89817282259E+02  0.00000000000E+00 0. -1.
          3   -1    0    0  502    0 -0.00000000000E+00 -0.00000000000E+00 -0.39329497259E+03  0.39329497259E+03  0.00000000000E+00 0. -1.
        -24    2    1    2    0    0 -0.32644795151E+02 -0.58923927927E+02 -0.31273374683E+03  0.33032840063E+03  0.82320981088E+02 0.  0.
         23    2    1    2    0    0  0.54903116959E+02  0.28378613492E+02  0.22212957432E+02  0.11282975048E+03  0.91746602992E+02 0.  0.
         13    1    3    3    0    0 -0.17820445615E+02 -0.47881852198E+02 -0.30663699349E+03  0.31086409544E+03  0.00000000000E+00 0. -1.
        -14    1    3    3    0    0 -0.14824349536E+02 -0.11042075729E+02 -0.60967533311E+01  0.19464305195E+02  0.00000000000E+00 0.  1.
        -11    1    4    4    0    0  0.27026762373E+02  0.61379948773E+02  0.90818227041E+01  0.67678826079E+02  0.00000000000E+00 0.  1.
         11    1    4    4    0    0  0.27876354586E+02 -0.33001335281E+02  0.13131134727E+02  0.45150924404E+02  0.00000000000E+00 0. -1.
          4    1    1    2  501    0 -0.22258321808E+02  0.30545314434E+02 -0.12956900940E+02  0.39954103739E+02  0.00000000000E+00 0. -1.
<scales pt_clust_5="13000.00000" pt_clust_6="13000.00000" pt_clust_7="13000.00000" pt_clust_8="13000.00000" pt_clust_9="37.79483"></scales>
<clustering>
<clus scale="   37.795">  1  9  2 -1</clus>
<clus scale="   82.321">  5  6 -1 -1</clus>
<clus scale="   91.747">  7  8 -1 -1</clus>
<clus scale="  105.290">  2  5  1 -1</clus>
<clus scale="   37.795">  1  5  2 -1</clus>
</clustering>
</event>
<event>
 9    1  0.5981539E-005  0.1116455E+03  0.7546771E-02  0.1261225E+00
          1   -1    0    0  502    0 -0.00000000000E+00  0.00000000000E+00  0.17855462733E+03  0.17855462733E+03  0.00000000000E+00 0. -1.
         21   -1    0    0  501  502  0.00000000000E+00 -0.00000000000E+00 -0.10700390833E+03  0.10700390833E+03  0.00000000000E+00 0. -1.
        -24    2    1    2    0    0  0.24469839628E+02  0.62161292127E+02  0.43119621380E+02  0.11251171732E+03  0.79603928904E+02 0.  0.
         23    2    1    2    0    0 -0.56243578515E+02 -0.45835326245E+02 -0.15671463259E+02  0.11629169945E+03  0.89520653169E+02 0.  0.
         11    1    3    3    0    0  0.35245378768E+02 -0.49516249112E+01  0.19292576254E+02  0.40484056272E+02  0.00000000000E+00 0. -1.
        -12    1    3    3    0    0 -0.10775539140E+02  0.67112917038E+02  0.23827045127E+02  0.72027661052E+02  0.00000000000E+00 0.  1.
        -13    1    4    4    0    0 -0.16279558627E+02 -0.46073034562E+02 -0.45229327740E+02  0.66584086918E+02  0.00000000000E+00 0.  1.
         13    1    4    4    0    0 -0.39964019887E+02  0.23770831660E+00  0.29557864482E+02  0.49707612531E+02  0.00000000000E+00 0. -1.
          2    1    1    2  501    0  0.31773738887E+02 -0.16325965882E+02  0.44102560873E+02  0.56755118891E+02  0.00000000000E+00 0. -1.
<scales pt_clust_5="13000.00000" pt_clust_6="13000.00000" pt_clust_7="13000.00000" pt_clust_8="13000.00000" pt_clust_9="35.72267"></scales>
<clustering>
<clus scale="   35.723">  2  9  1 -1</clus>
<clus scale="   79.604">  5  6 -1 -1</clus>
<clus scale="   89.521">  7  8 -1 -1</clus>
<clus scale="  103.863">  1  5  2 -1</clus>
<clus scale="   35.723">  2  5  1 -1</clus>
</clustering>
</event>
<event>
 9    1  0.5981539E-005  0.8848084E+02  0.7546771E-02  0.1312281E+00
         21   -1    0    0  501  502  0.00000000000E+00  0.00000000000E+00  0.56395867025E+02  0.56395867025E+02  0.00000000000E+00 0. -1.
          1   -1    0    0  502    0 -0.00000000000E+00 -0.00000000000E+00 -0.30362269888E+03  0.30362269888E+03  0.00000000000E+00 0. -1.
         23    2    1    2    0    0 -0.33078446989E+01  0.11672608362E+02 -0.21119668966E+03  0.22925994876E+03  0.88367928326E+02 0.  0.
        -24    2    1    2    0    0 -0.12030874709E+02  0.13891919615E+02 -0.52064143769E+02  0.96907315697E+02  0.79640601406E+02 0.  0.
         11    1    4    4    0    0 -0.14711572511E+02  0.34141224548E+02 -0.63437779948E+02  0.73528263301E+02  0.00000000000E+00 0. -1.
        -12    1    4    4    0    0  0.26806978022E+01 -0.20249304933E+02  0.11373636179E+02  0.23379052395E+02  0.00000000000E+00 0.  1.
        -13    1    3    3    0    0 -0.43936005778E+02 -0.14708869942E+01 -0.79915345680E+02  0.91208544487E+02  0.00000000000E+00 0.  1.
         13    1    3    3    0    0  0.40628161079E+02  0.13143495356E+02 -0.13128134398E+03  0.13805140427E+03  0.00000000000E+00 0. -1.
          2    1    1    2  501    0  0.15338719408E+02 -0.25564527977E+02  0.16034001574E+02  0.33851301455E+02  0.00000000000E+00 0. -1.
<scales pt_clust_5="13000.00000" pt_clust_6="13000.00000" pt_clust_7="13000.00000" pt_clust_8="13000.00000" pt_clust_9="29.81311"></scales>
<clustering>
<clus scale="   29.813">  1  9  2 -1</clus>
<clus scale="   79.641">  5  6 -1 -1</clus>
<clus scale="   79.766">  1  5  2 -1</clus>
<clus scale="   88.368">  7  8 -1 -1</clus>
<clus scale="   29.813">  1  5  2 -1</clus>
</clustering>
</event>
<event>
 9    1  0.5981539E-005  0.1158984E+03  0.7546771E-02  0.1255382E+00
          3   -1    0    0  502    0 -0.00000000000E+00  0.00000000000E+00  0.34861247799E+03  0.34861247799E+03  0.00000000000E+00 0. -1.
         21   -1    0    0  501  502  0.00000000000E+00 -0.00000000000E+00 -0.94485822314E+02  0.94485822314E+02  0.00000000000E+00 0.  1.
         23    2    1    2    0    0 -0.26488930900E+02  0.57357060591E+02  0.68519408618E+02  0.13173819678E+03  0.93105033557E+02 0.  0.
        -24    2    1    2    0    0 -0.92382166781E+01 -0.86921113885E+02 -0.29243988307E+01  0.11720901848E+03  0.78030617188E+02 0.  0.
         13    1    4    4    0    0  0.30095743433E+02 -0.54312969338E+02 -0.16683682084E+02  0.64296171418E+02  0.00000000000E+00 0. -1.
        -14    1    4    4    0    0 -0.39333960111E+02 -0.32608144546E+02  0.13759283253E+02  0.52912847064E+02  0.00000000000E+00 0.  1.
        -11    1    3    3    0    0  0.37306413397E+01  0.27552513690E+02  0.82493075208E+02  0.87052663100E+02  0.00000000000E+00 0. -1.
         11    1    3    3    0    0 -0.30219572240E+02  0.29804546901E+02 -0.13973666590E+02  0.44685533680E+02  0.00000000000E+00 0.  1.
          4    1    1    2  501    0  0.35727147578E+02  0.29564053294E+02  0.18853164589E+03  0.19415108504E+03  0.00000000000E+00 0. -1.
<scales pt_clust_5="13000.00000" pt_clust_6="13000.00000" pt_clust_7="13000.00000" pt_clust_8="13000.00000" pt_clust_9="46.37310"></scales>
<clustering>
<clus scale="   46.373">  2  9  1 -1</clus>
<clus scale="   78.031">  5  6 -1 -1</clus>
<clus scale="   93.105">  7  8 -1 -1</clus>
<clus scale="  104.176">  2  5  1 -1</clus>
<clus scale="   46.373">  2  5  1 -1</clus>
</clustering>
</event>
<event>
 9    1  0.5981539E-005  0.1426823E+03  0.7546771E-02  0.1212356E+00
          1   -1    0    0  502    0 -0.00000000000E+00  0.00000000000E+00  0.41537059843E+03  0.41537059843E+03  0.00000000000E+00 0. -1.
         21   -1    0    0  501  502  0.00000000000E+00 -0.00000000000E+00 -0.18568083321E+03  0.18568083321E+03  0.00000000000E+00 0. -1.
         23    2    1    2    0    0 -0.98391968885E+02 -0.86051778156E+02  0.30066861010E+03  0.33994221779E+03  0.89851044913E+02 0.  0.
        -24    2    1    2    0    0  0.75025946031E+02  0.26365044470E+02  0.52051845190E+02  0.12238276396E+03  0.77098237202E+02 0.  0.
         11    1    4    4    0    0  0.79903858021E+02  0.26962439863E+02  0.66324861653E+02  0.10728740356E+03  0.00000000000E+00 0. -1.
        -12    1    4    4    0    0 -0.48779119894E+01 -0.59739539340E+00 -0.14273016463E+02  0.15095360399E+02  0.00000000000E+00 0.  1.
        -13    1    3    3    0    0 -0.50160593221E+02 -0.35490098303E+02  0.23890972220E+03  0.24668499661E+03  0.00000000000E+00 0.  1.
         13    1    3    3    0    0 -0.48231375664E+02 -0.50561679853E+02  0.61758887898E+02  0.93257221180E+02  0.00000000000E+00 0. -1.
          2    1    1    2  501    0  0.23366022854E+02  0.59686733686E+02 -0.12303069007E+03  0.13872644990E+03  0.00000000000E+00 0. -1.
<scales pt_clust_5="13000.00000" pt_clust_6="13000.00000" pt_clust_7="13000.00000" pt_clust_8="13000.00000" pt_clust_9="64.09740"></scales>
<clustering>
<clus scale="   64.097">  2  9  1 -1</clus>
<clus scale="   77.098">  5  6 -1 -1</clus>
<clus scale="   89.851">  7  8 -1 -1</clus>
<clus scale="  135.015">  2  5  1 -1</clus>
<clus scale="   64.097">  2  5  1 -1</clus>
</clustering>
</event>
<event>
 9    1  0.5981539E-005  0.1992692E+03  0.7546771E-02  0.1151487E+00
          3   -1    0    0  502    0 -0.00000000000E+00  0.00000000000E+00  0.33854577786E+03  0.33854577786E+03  0.00000000000E+00 0. -1.
         21   -1    0    0  501  502  0.00000000000E+00 -0.00000000000E+00 -0.15236987362E+03  0.15236987362E+03  0.00000000000E+00 0. -1.
         23    2    1    2    0    0 -0.58672060803E+02 -0.17220746273E+03  0.17898195310E+03  0.27142643833E+03  0.92411855034E+02 0.  0.
        -24    2    1    2    0    0  0.66077730314E+02  0.15125500624E+03 -0.19614349200E+02  0.18466774936E+03  0.80455649913E+02 0.  0.
         13    1    4    4    0    0  0.50503826717E+02  0.12399035696E+03 -0.48112758909E+02  0.14226413006E+03  0.00000000000E+00 0. -1.
        -14    1    4    4    0    0  0.15573903597E+02  0.27264649275E+02  0.28498409709E+02  0.42403619294E+02  0.00000000000E+00 0.  1.
        -11    1    3    3    0    0 -0.36975834501E+02 -0.29541512861E+02  0.90569426496E+02  0.10218969779E+03  0.00000000000E+00 0.  1.
         11    1    3    3    0    0 -0.21696226301E+02 -0.14266594986E+03  0.88412526602E+02  0.16923674053E+03  0.00000000000E+00 0. -1.
          4    1    1    2  501    0 -0.74056695113E+01  0.20952456486E+02  0.26808300345E+02  0.34821463799E+02  0.00000000000E+00 0. -1.
<scales pt_clust_5="13000.00000" pt_clust_6="13000.00000" pt_clust_7="13000.00000" pt_clust_8="13000.00000" pt_clust_9="22.22273"></scales>
<clustering>
<clus scale="   22.223">  2  9  1 -1</clus>
<clus scale="   80.456">  5  6 -1 -1</clus>
<clus scale="   92.412">  7  8 -1 -1</clus>
<clus scale="  194.014">  2  5  1 -1</clus>
<clus scale="   22.223">  2  5  1 -1</clus>
</clustering>
</event>
<event>
 9    1  0.5981539E-005  0.9436218E+02  0.7546771E-02  0.1300806E+00
         21   -1    0    0  501  502  0.00000000000E+00  0.00000000000E+00  0.61871768524E+02  0.61871768524E+02  0.00000000000E+00 0. -1.
         -2   -1    0    0    0  501 -0.00000000000E+00 -0.00000000000E+00 -0.30246690040E+03  0.30246690040E+03  0.00000000000E+00 0.  1.
        -24    2    1    2    0    0  0.55502599552E+01  0.18939006574E+02 -0.20301884551E+03  0.21835957675E+03  0.77940758108E+02 0.  0.
         23    2    1    2    0    0  0.15208432170E+02 -0.42294773567E+02 -0.71328285479E+01  0.10235319075E+03  0.91679627688E+02 0.  0.
         13    1    3    3    0    0 -0.11158113706E+02  0.32023839953E+02 -0.34026552410E+02  0.48039942711E+02  0.00000000000E+00 0. -1.
        -14    1    3    3    0    0  0.16708373662E+02 -0.13084833379E+02 -0.16899229310E+03  0.17031963404E+03  0.00000000000E+00 0.  1.
        -11    1    4    4    0    0 -0.33692700844E+02 -0.25000038516E+02 -0.23341013201E+02  0.48010445876E+02  0.00000000000E+00 0.  1.
         11    1    4    4    0    0  0.48901133013E+02 -0.17294735051E+02  0.16208184653E+02  0.54342744872E+02  0.00000000000E+00 0. -1.
         -1    1    1    2    0  502 -0.20758692125E+02  0.23355766994E+02 -0.30443457822E+02  0.43625901420E+02  0.00000000000E+00 0.  1.
<scales pt_clust_5="13000.00000" pt_clust_6="13000.00000" pt_clust_7="13000.00000" pt_clust_8="13000.00000" pt_clust_9="31.24766"></scales>
<clustering>
<clus scale="   31.248">  1  9  2 -1</clus>
<clus scale="   77.941">  5  6 -1 -1</clus>
<clus scale="   81.079">  2  5  1 -1</clus>
<clus scale="   91.680">  7  8 -1 -1</clus>
<clus scale="   31.248">  1  5  2 -1</clus>
</clustering>
</event>
<event>
 9    1  0.5981539E-005  0.1055088E+03  0.7546771E-02  0.1273707E+00
         -2   -1    0    0    0  501 -0.00000000000E+00  0.00000000000E+00  0.12327784339E+03  0.12327784339E+03  0.00000000000E+00 0.  1.
         21   -1    0    0  501  502  0.00000000000E+00 -0.00000000000E+00 -0.19281190598E+03  0.19281190598E+03  0.00000000000E+00 0.  1.
         23    2    1    2    0    0 -0.60799678313E+02  0.11351404560E+02  0.30571582614E+02  0.11426876731E+03  0.91089375074E+02 0.  0.
        -24    2    1    2    0    0  0.45291588005E+02  0.63051440032E+01  0.62957154014E+01  0.92855372303E+02  0.80569233261E+02 0.  0.
         11    1    4    4    0    0  0.44921692978E+02  0.25809745054E+02 -0.23781352286E+02  0.57005737924E+02  0.00000000000E+00 0. -1.
        -12    1    4    4    0    0  0.36989502713E+00 -0.19504601050E+02  0.30077067687E+02  0.35849634379E+02  0.00000000000E+00 0.  1.
        -13    1    3    3    0    0 -0.59667443680E+02  0.46042236976E+02  0.22117263228E+02  0.78544667252E+02  0.00000000000E+00 0.  1.
         13    1    3    3    0    0 -0.11322346329E+01 -0.34690832416E+02  0.84543193860E+01  0.35724100062E+02  0.00000000000E+00 0. -1.
         -1    1    1    2    0  502  0.15508090308E+02 -0.17656548563E+02 -0.10640136060E+03  0.10896560975E+03  0.00000000000E+00 0.  1.
<scales pt_clust_5="13000.00000" pt_clust_6="13000.00000" pt_clust_7="13000.00000" pt_clust_8="13000.00000" pt_clust_9="23.50010"></scales>
<clustering>
<clus scale="   23.500">  2  9  1 -1</clus>
<clus scale="   80.569">  5  6 -1 -1</clus>
<clus scale="   91.089">  7  8 -1 -1</clus>
<clus scale="   96.572">  2  5  1 -1</clus>
<clus scale="   23.500">  2  5  1 -1</clus>
</clustering>
</event>
<event>
 9    1  0.5981539E-005  0.2733055E+03  0.7546771E-02  0.1136910E+00
         -2   -1    0    0    0  501 -0.00000000000E+00  0.00000000000E+00  0.97647335609E+03  0.97647335609E+03  0.00000000000E+00 0.  1.
         21   -1    0    0  501  502  0.00000000000E+00 -0.00000000000E+00 -0.10825363281E+03  0.10825363281E+03  0.00000000000E+00 0.  1.
         23    2    1    2    0    0  0.54951368563E+02 -0.48285534364E+01  0.14320630104E+03  0.17852827732E+03  0.91221342410E+02 0.  0.
        -24    2    1    2    0    0 -0.53510206827E+02 -0.25736249742E+03  0.44039097880E+03  0.51921530184E+03  0.80879652241E+02 0.  0.
         13    1    4    4    0    0  0.14197311912E+02 -0.45841104059E+02  0.45371138705E+02  0.66041734640E+02  0.00000000000E+00 0. -1.
        -14    1    4    4    0    0 -0.67707518738E+02 -0.21152139336E+03  0.39501984009E+03  0.45317356720E+03  0.00000000000E+00 0.  1.
        -13    1    3    3    0    0  0.11717766949E+02 -0.21013874560E+02  0.12752319170E+03  0.12977308430E+03  0.00000000000E+00 0. -1.
         13    1    3    3    0    0  0.43233601614E+02  0.16185321124E+02  0.15683109337E+02  0.48755193025E+02  0.00000000000E+00 0.  1.
         -1    1    1    2    0  502 -0.14411617362E+01  0.26219105086E+03  0.28462244345E+03  0.38698340974E+03  0.00000000000E+00 0.  1.
<scales pt_clust_5="13000.00000" pt_clust_6="13000.00000" pt_clust_7="13000.00000" pt_clust_8="13000.00000" pt_clust_9="261.06390"></scales>
<clustering>
<clus scale="   80.880">  5  6 -1 -1</clus>
<clus scale="   91.221">  7  8 -1 -1</clus>
<clus scale="  106.603">  1  7  2 -1</clus>
<clus scale="  261.064">  2  9  1 -1</clus>
<clus scale="  261.064">  2  5  1 -1</clus>
</clustering>
</event>
<event>
 9    1  0.5981539E-005  0.1155444E+03  0.7546771E-02  0.1257106E+00
         21   -1    0    0  501  502  0.00000000000E+00  0.00000000000E+00  0.38607244086E+02  0.38607244086E+02  0.00000000000E+00 0.  1.
         -4   -1    0    0    0  501 -0.00000000000E+00 -0.00000000000E+00 -0.13695638179E+04  0.13695638179E+04  0.00000000000E+00 0.  1.
        -24    2    1    2    0    0 -0.70031317039E+02  0.12401327271E+02 -0.95400910006E+03  0.95946095589E+03  0.73306102052E+02 0.  0.
         23    2    1    2    0    0  0.51624213576E+02 -0.67376446935E+02 -0.36976164906E+03  0.39029160464E+03  0.91647228619E+02 0.  0.
         11    1    3    3    0    0 -0.19912524145E+02  0.16664302806E+02 -0.82233658821E+02  0.86235620535E+02  0.00000000000E+00 0. -1.
        -12    1    3    3    0    0 -0.50118792894E+02 -0.42629755357E+01 -0.87177544124E+03  0.87322533536E+03  0.00000000000E+00 0.  1.
        -11    1    4    4    0    0  0.73980506570E+02 -0.27385915358E+02 -0.22274908008E+03  0.23630543030E+03  0.00000000000E+00 0. -1.
         11    1    4    4    0    0 -0.22356292994E+02 -0.39990531577E+02 -0.14701256898E+03  0.15398617434E+03  0.00000000000E+00 0.  1.
         -3    1    1    2    0  502  0.18407103464E+02  0.54975119664E+02 -0.71858247437E+01  0.58418501498E+02  0.00000000000E+00 0.  1.
<scales pt_clust_5="13000.00000" pt_clust_6="13000.00000" pt_clust_7="13000.00000" pt_clust_8="13000.00000" pt_clust_9="57.97487"></scales>
<clustering>
<clus scale="   57.975">  1  9  2 -1</clus>
<clus scale="   73.306">  5  6 -1 -1</clus>
<clus scale="   91.647">  7  8 -1 -1</clus>
<clus scale="  101.612">  2  5  1 -1</clus>
<clus scale="   57.975">  1  5  2 -1</clus>
</clustering>
</event>
<event>
 9    1  0.5981539E-005  0.9214590E+02  0.7546771E-02  0.1301602E+00
         21   -1    0    0  501  502  0.00000000000E+00  0.00000000000E+00  0.47650347733E+02  0.47650347733E+02  0.00000000000E+00 0.  1.
          1   -1    0    0  502    0 -0.00000000000E+00 -0.00000000000E+00 -0.29803857644E+03  0.29803857644E+03  0.00000000000E+00 0. -1.
         23    2    1    2    0    0 -0.11696248642E+02 -0.29865569957E+02 -0.16616753753E+03  0.19084341515E+03  0.88208866187E+02 0.  0.
        -24    2    1    2    0    0 -0.74444857156E+01  0.15035341759E+02 -0.19189418958E+02  0.85452643786E+02  0.81562483169E+02 0.  0.
         11    1    4    4    0    0 -0.41352355997E+02  0.21765621865E+02 -0.20102781589E+02  0.50871224374E+02  0.00000000000E+00 0. -1.
        -12    1    4    4    0    0  0.33907870281E+02 -0.67302801054E+01  0.91336263100E+00  0.34581419413E+02  0.00000000000E+00 0.  1.
        -13    1    3    3    0    0  0.18160661257E+02 -0.25086323264E+02 -0.15584585226E+03  0.15889324371E+03  0.00000000000E+00 0. -1.
         13    1    3    3    0    0 -0.29856909899E+02 -0.47792466931E+01 -0.10321685276E+02  0.31950171433E+02  0.00000000000E+00 0.  1.
          2    1    1    2  501    0  0.19140734358E+02  0.14830228198E+02 -0.65031272215E+02  0.69392865239E+02  0.00000000000E+00 0. -1.
<scales pt_clust_5="13000.00000" pt_clust_6="13000.00000" pt_clust_7="13000.00000" pt_clust_8="13000.00000" pt_clust_9="24.21371"></scales>
<clustering>
<clus scale="   24.214">  1  9  2 -1</clus>
<clus scale="   81.562">  5  6 -1 -1</clus>
<clus scale="   85.805">  1  5  2 -1</clus>
<clus scale="   88.209">  7  8 -1 -1</clus>
<clus scale="   24.214">  1  5  2 -1</clus>
</clustering>
</event>
<event>
 9    1  0.5981539E-005  0.1615791E+03  0.7546771E-02  0.1188899E+00
         -2   -1    0    0    0  501 -0.00000000000E+00  0.00000000000E+00  0.11068663122E+03  0.11068663122E+03  0.00000000000E+00 0.  1.
         21   -1    0    0  501  502  0.00000000000E+00 -0.00000000000E+00 -0.35042122345E+03  0.35042122345E+03  0.00000000000E+00 0. -1.
         23    2    1    2    0    0  0.34005051711E+02  0.13659681300E+03 -0.73389652216E-01  0.16819789859E+03  0.92062450751E+02 0.  0.
        -24    2    1    2    0    0 -0.32827647957E+02 -0.10617231705E+03 -0.20948169042E+03  0.25003992940E+03  0.79291691205E+02 0.  0.
         11    1    4    4    0    0 -0.43130690768E+02 -0.11007967770E+03 -0.20753757788E+03  0.23885066079E+03  0.00000000000E+00 0. -1.
        -12    1    4    4    0    0  0.10303042811E+02  0.39073606532E+01 -0.19441125468E+01  0.11189268610E+02  0.00000000000E+00 0.  1.
        -11    1    3    3    0    0  0.75584307864E+01  0.12081047277E+03 -0.30577380540E+02  0.12484901444E+03  0.00000000000E+00 0.  1.
         11    1    3    3    0    0  0.26446620925E+02  0.15786340233E+02  0.30503990888E+02  0.43348884142E+02  0.00000000000E+00 0. -1.
         -1    1    1    2    0  502 -0.11774037541E+01 -0.30424495956E+02 -0.30179512154E+02  0.42870026682E+02  0.00000000000E+00 0.  1.
<scales pt_clust_5="13000.00000" pt_clust_6="13000.00000" pt_clust_7="13000.00000" pt_clust_8="13000.00000" pt_clust_9="30.44727"></scales>
<clustering>
<clus scale="   30.447">  2  9  1 -1</clus>
<clus scale="   79.292">  5  6 -1 -1</clus>
<clus scale="   92.062">  7  8 -1 -1</clus>
<clus scale="  154.659">  2  5  1 -1</clus>
<clus scale="   30.447">  2  5  1 -1</clus>
</clustering>
</event>
<event>
 9    1  0.5981539E-005  0.1358925E+03  0.7546771E-02  0.1221265E+00
          3   -1    0    0  502    0 -0.00000000000E+00  0.00000000000E+00  0.16907222711E+03  0.16907222711E+03  0.00000000000E+00 0. -1.
         21   -1    0    0  501  502  0.00000000000E+00 -0.00000000000E+00 -0.21821718840E+03  0.21821718840E+03  0.00000000000E+00 0. -1.
        -24    2    1    2    0    0 -0.10226672686E+03  0.27595483421E+02  0.51042057075E+02  0.14289908153E+03  0.81208754361E+02 0.  0.
         23    2    1    2    0    0  0.58895613035E+02 -0.88501072871E+02 -0.95531913704E+02  0.16947562021E+03  0.91074179524E+02 0.  0.
         11    1    3    3    0    0 -0.36553860455E+02  0.86073094496E+01  0.63113291769E+02  0.73440847545E+02  0.00000000000E+00 0. -1.
        -12    1    3    3    0    0 -0.65712866404E+02  0.18988173972E+02 -0.12071234694E+02  0.69458233989E+02  0.00000000000E+00 0.  1.
        -13    1    4    4    0    0  0.15503264214E+02 -0.58418063550E+02 -0.13379667848E+00  0.60440377661E+02  0.00000000000E+00 0.  1.
         13    1    4    4    0    0  0.43392348821E+02 -0.30083009321E+02 -0.95398117025E+02  0.10903524255E+03  0.00000000000E+00 0. -1.
          4    1    1    2  501    0  0.43371113824E+02  0.60905589450E+02 -0.46551046612E+01  0.74914713775E+02  0.00000000000E+00 0. -1.
<scales pt_clust_5="13000.00000" pt_clust_6="13000.00000" pt_clust_7="13000.00000" pt_clust_8="13000.00000" pt_clust_9="74.76998"></scales>
<clustering>
<clus scale="   74.770">  2  9  1 -1</clus>
<clus scale="   81.209">  5  6 -1 -1</clus>
<clus scale="   91.074">  7  8 -1 -1</clus>
<clus scale="  129.488">  1  5  2 -1</clus>
<clus scale="   74.770">  2  5  1 -1</clus>
</clustering>
</event>
<event>
 9    1  0.5981539E-005  0.9664312E+02  0.7546771E-02  0.1294783E+00
         21   -1    0    0  501  502  0.00000000000E+00  0.00000000000E+00  0.26519364621E+03  0.26519364621E+03  0.00000000000E+00 0. -1.
          1   -1    0    0  502    0 -0.00000000000E+00 -0.00000000000E+00 -0.53322271302E+02  0.53322271302E+02  0.00000000000E+00 0. -1.
         23    2    1    2    0    0  0.23054800722E+02 -0.23710617660E+02  0.39658937398E+02  0.10689596174E+03  0.93595929906E+02 0.  0.
        -24    2    1    2    0    0 -0.20469528617E+02 -0.12413322675E+02  0.99815354648E+02  0.13066959874E+03  0.80860044699E+02 0.  0.
         11    1    4    4    0    0 -0.23683414527E+02 -0.30609127348E+02  0.10464415201E+03  0.11157159742E+03  0.00000000000E+00 0. -1.
        -12    1    4    4    0    0  0.32138859104E+01  0.18195804674E+02 -0.48287973618E+01  0.19098001318E+02  0.00000000000E+00 0.  1.
        -13    1    3    3    0    0 -0.13423369935E+02 -0.34468385020E+02 -0.15326546879E+02  0.40039473842E+02  0.00000000000E+00 0. -1.
         13    1    3    3    0    0  0.36478170657E+02  0.10757767360E+02  0.54985484277E+02  0.66856487899E+02  0.00000000000E+00 0.  1.
          2    1    1    2  501    0 -0.25852721049E+01  0.36123940335E+02  0.72397082859E+02  0.80950357032E+02  0.00000000000E+00 0. -1.
<scales pt_clust_5="13000.00000" pt_clust_6="13000.00000" pt_clust_7="13000.00000" pt_clust_8="13000.00000" pt_clust_9="36.21633"></scales>
<clustering>
<clus scale="   36.216">  1  9  2 -1</clus>
<clus scale="   80.860">  5  6 -1 -1</clus>
<clus scale="   84.368">  1  5  2 -1</clus>
<clus scale="   93.596">  7  8 -1 -1</clus>
<clus scale="   36.216">  1  5  2 -1</clus>
</clustering>
</event>
<event>
 9    1  0.5981539E-005  0.9203683E+02  0.7546771E-02  0.1305252E+00
          1   -1    0    0  502    0 -0.00000000000E+00  0.00000000000E+00  0.38539192757E+03  0.38539192757E+03  0.00000000000E+00 0. -1.
         21   -1    0    0  501  502  0.00000000000E+00 -0.00000000000E+00 -0.66047639499E+02  0.66047639499E+02  0.00000000000E+00 0.  1.
        -24    2    1    2    0    0  0.10838825958E+02 -0.15402120478E+02  0.28659703493E+03  0.29796600537E+03  0.79316924208E+02 0.  0.
         23    2    1    2    0    0  0.37498793040E+02 -0.22748101478E+01  0.23314693752E+02  0.10114792301E+03  0.90972485645E+02 0.  0.
         13    1    3    3    0    0  0.16440646181E+02 -0.44020940543E+02  0.22446172136E+03  0.22932771837E+03  0.00000000000E+00 0. -1.
        -14    1    3    3    0    0 -0.56018202228E+01  0.28618820065E+02  0.62135313562E+02  0.68638287007E+02  0.00000000000E+00 0.  1.
        -13    1    4    4    0    0  0.99444626721E+01  0.43397520058E+02  0.15991420230E+02  0.47307109465E+02  0.00000000000E+00 0.  1.
         13    1    4    4    0    0  0.27554330368E+02 -0.45672330206E+02  0.73232735221E+01  0.53840813548E+02  0.00000000000E+00 0. -1.
          2    1    1    2  501    0 -0.48337618998E+02  0.17676930625E+02  0.94325593912E+01  0.52325638681E+02  0.00000000000E+00 0. -1.
<scales pt_clust_5="13000.00000" pt_clust_6="13000.00000" pt_clust_7="13000.00000" pt_clust_8="13000.00000" pt_clust_9="51.46843"></scales>
<clustering>
<clus scale="   51.468">  2  9  1 -1</clus>
<clus scale="   79.317">  5  6 -1 -1</clus>
<clus scale="   80.535">  1  5  2 -1</clus>
<clus scale="   90.972">  7  8 -1 -1</clus>
<clus scale="   51.468">  2  5  1 -1</clus>
</clustering>
</event>
<event>
 9    1  0.5981539E-005  0.1247638E+03  0.7546771E-02  0.1237783E+00
         -2   -1    0    0    0  501 -0.00000000000E+00  0.00000000000E+00  0.53545300608E+03  0.53545300608E+03  0.00000000000E+00 0.  1.
         21   -1    0    0  501  502  0.00000000000E+00 -0.00000000000E+00 -0.48350732596E+02  0.48350732596E+02  0.00000000000E+00 0.  1.
        -24    2    1    2    0    0 -0.10306375130E+03 -0.99171533058E+01  0.32060849482E+03  0.34639183768E+03  0.80479882558E+02 0.  0.
         23    2    1    2    0    0  0.54316569998E+02  0.39721127729E+02  0.11961649660E+03  0.16350625744E+03  0.88871436351E+02 0.  0.
         11    1    3    3    0    0 -0.30914215161E+02 -0.32744675319E+01  0.19518457950E+02  0.36706689274E+02  0.00000000000E+00 0. -1.
        -12    1    3    3    0    0 -0.72149536137E+02 -0.66426857739E+01  0.30109003687E+03  0.30968514840E+03  0.00000000000E+00 0.  1.
        -11    1    4    4    0    0  0.32505189913E+02  0.36413887052E+02  0.76743889554E+01  0.49411079602E+02  0.00000000000E+00 0.  1.
         11    1    4    4    0    0  0.21811380085E+02  0.33072406764E+01  0.11194210765E+03  0.11409517784E+03  0.00000000000E+00 0. -1.
         -1    1    1    2    0  502  0.48747181300E+02 -0.29803974423E+02  0.46877282061E+02  0.73905643557E+02  0.00000000000E+00 0.  1.
<scales pt_clust_5="13000.00000" pt_clust_6="13000.00000" pt_clust_7="13000.00000" pt_clust_8="13000.00000" pt_clust_9="57.13637"></scales>
<clustering>
<clus scale="   57.136">  2  9  1 -1</clus>
<clus scale="   80.480">  5  6 -1 -1</clus>
<clus scale="   88.871">  7  8 -1 -1</clus>
<clus scale="  118.932">  1  5  2 -1</clus>
<clus scale="   57.136">  2  5  1 -1</clus>
</clustering>
</event>
<event>
 9    1  0.5981539E-005  0.1155736E+03  0.7546771E-02  0.1254857E+00
         21   -1    0    0  501  502  0.00000000000E+00  0.00000000000E+00  0.29660030210E+03  0.29660030210E+03  0.00000000000E+00 0.  1.
          1   -1    0    0  502    0 -0.00000000000E+00 -0.00000000000E+00 -0.65647439808E+02  0.65647439808E+02  0.00000000000E+00 0. -1.
        -24    2    1    2    0    0  0.19244973342E+02 -0.48721827570E+02  0.67664814630E+02  0.11681266237E+03  0.79514058312E+02 0.  0.
         23    2    1    2    0    0 -0.18105219051E+02  0.95249889433E+02  0.99473085104E+02  0.16645084677E+03  0.91709592389E+02 0.  0.
         13    1    3    3    0    0  0.33512210238E+02 -0.11702552124E+02 -0.31557395868E+01  0.35636731803E+02  0.00000000000E+00 0. -1.
        -14    1    3    3    0    0 -0.14267236896E+02 -0.37019275446E+02  0.70820554217E+02  0.81175930563E+02  0.00000000000E+00 0.  1.
        -11    1    4    4    0    0  0.33525262681E+02  0.12750000464E+02  0.22216638321E+02  0.42191050804E+02  0.00000000000E+00 0.  1.
         11    1    4    4    0    0 -0.51630481732E+02  0.82499888969E+02  0.77256446783E+02  0.12425979597E+03  0.00000000000E+00 0. -1.
          2    1    1    2  501    0 -0.11397542904E+01 -0.46528061863E+02  0.63814962557E+02  0.78984232773E+02  0.00000000000E+00 0. -1.
<scales pt_clust_5="13000.00000" pt_clust_6="13000.00000" pt_clust_7="13000.00000" pt_clust_8="13000.00000" pt_clust_9="46.54202"></scales>
<clustering>
<clus scale="   46.542">  1  9  2 -1</clus>
<clus scale="   79.514">  5  6 -1 -1</clus>
<clus scale="   91.710">  7  8 -1 -1</clus>
<clus scale="  106.156">  2  5  1 -1</clus>
<clus scale="   46.542">  1  5  2 -1</clus>
</clustering>
</event>
<event>
 9    1  0.5981539E-005  0.9146366E+02  0.7546771E-02  0.1305141E+00
         21   -1    0    0  501  502  0.00000000000E+00  0.00000000000E+00  0.28945712496E+03  0.28945712496E+03  0.00000000000E+00 0.  1.
          1   -1    0    0  502    0 -0.00000000000E+00 -0.00000000000E+00 -0.41631321407E+02  0.41631321407E+02  0.00000000000E+00 0. -1.
         23    2    1    2    0    0  0.53892185508E+01  0.40339711919E-01  0.65161507854E+02  0.11134381952E+03  0.90124240556E+02 0.  0.
        -24    2    1    2    0    0 -0.21784888868E+02 -0.29013645023E+02  0.13993157864E+03  0.16557493483E+03  0.80733136707E+02 0.  0.
         13    1    4    4    0    0  0.80010523719E+01 -0.49833366374E+02  0.64987453863E+02  0.82284569652E+02  0.00000000000E+00 0. -1.
        -14    1    4    4    0    0 -0.29785941240E+02  0.20819721352E+02  0.74944124779E+02  0.83290365179E+02  0.00000000000E+00 0.  1.
        -13    1    3    3    0    0 -0.35689592667E+02 -0.23562611719E+02  0.27800101790E+02  0.51007738190E+02  0.00000000000E+00 0.  1.
         13    1    3    3    0    0  0.41078811217E+02  0.23602951431E+02  0.37361406064E+02  0.60336081331E+02  0.00000000000E+00 0. -1.
          2    1    1    2  501    0  0.16395670317E+02  0.28973305311E+02  0.42732717054E+02  0.54169692012E+02  0.00000000000E+00 0. -1.
<scales pt_clust_5="13000.00000" pt_clust_6="13000.00000" pt_clust_7="13000.00000" pt_clust_8="13000.00000" pt_clust_9="33.29070"></scales>
<clustering>
<clus scale="   33.291">  1  9  2 -1</clus>
<clus scale="   80.733">  5  6 -1 -1</clus>
<clus scale="   82.226">  1  5  2 -1</clus>
<clus scale="   90.124">  7  8 -1 -1</clus>
<clus scale="   33.291">  1  5  2 -1</clus>
</clustering>
</event>
<event>
 9    1  0.5981539E-005  0.1813417E+03  0.7546771E-02  0.1169004E+00
         -2   -1    0    0    0  501 -0.00000000000E+00  0.00000000000E+00  0.21279904965E+03  0.21279904965E+03  0.00000000000E+00 0.  1.
         21   -1    0    0  501  502  0.00000000000E+00 -0.00000000000E+00 -0.20382468250E+03  0.20382468250E+03  0.00000000000E+00 0. -1.
         23    2    1    2    0    0  0.76274551203E+02  0.96966581683E+02 -0.10144878712E+02  0.15965702266E+03  0.10083214367E+03 0.  0.
        -24    2    1    2    0    0 -0.12634036060E+03 -0.12668404257E+03  0.26433045334E+02  0.19828788525E+03  0.81293580275E+02 0.  0.
         13    1    4    4    0    0 -0.10436516226E+03 -0.59781048795E+02  0.39645026559E+02  0.12663960289E+03  0.00000000000E+00 0. -1.
        -14    1    4    4    0    0 -0.21975198338E+02 -0.66902993772E+02 -0.13211981225E+02  0.71648282363E+02  0.00000000000E+00 0.  1.
        -11    1    3    3    0    0  0.90482117400E+02  0.37093967070E+02 -0.54150692003E+01  0.97940282502E+02  0.00000000000E+00 0. -1.
         11    1    3    3    0    0 -0.14207566197E+02  0.59872614613E+02 -0.47298095121E+01  0.61716740159E+02  0.00000000000E+00 0.  1.
         -1    1    1    2    0  502  0.50065809392E+02  0.29717460885E+02 -0.73137994784E+01  0.58678824241E+02  0.00000000000E+00 0.  1.
<scales pt_clust_5="13000.00000" pt_clust_6="13000.00000" pt_clust_7="13000.00000" pt_clust_8="13000.00000" pt_clust_9="58.22124"></scales>
<clustering>
<clus scale="   58.221">  2  9  1 -1</clus>
<clus scale="   81.294">  5  6 -1 -1</clus>
<clus scale="  100.832">  7  8 -1 -1</clus>
<clus scale="  171.249">  2  5  1 -1</clus>
<clus scale="   58.221">  2  5  1 -1</clus>
</clustering>
</event>
<event>
 9    1  0.5981539E-005  0.1487097E+03  0.7546771E-02  0.1216911E+00
         21   -1    0    0  501  502  0.00000000000E+00  0.00000000000E+00  0.36119985088E+02  0.36119985088E+02  0.00000000000E+00 0. -1.
          1   -1    0    0  502    0 -0.00000000000E+00 -0.00000000000E+00 -0.13288961425E+04  0.13288961425E+04  0.00000000000E+00 0. -1.
        -24    2    1    2    0    0 -0.42653980386E+02 -0.55741122203E+02 -0.31590521330E+03  0.33394791830E+03  0.82454069620E+02 0.  0.
         23    2    1    2    0    0  0.14554105417E+03  0.27471988067E+01 -0.81096611706E+03  0.82878494872E+03  0.89603028103E+02 0.  0.
         13    1    3    3    0    0 -0.18242028495E+02 -0.11400190287E+02 -0.97170864298E+01  0.23604188418E+02  0.00000000000E+00 0. -1.
        -14    1    3    3    0    0 -0.24411951891E+02 -0.44340931916E+02 -0.30618812687E+03  0.31034372988E+03  0.00000000000E+00 0.  1.
        -13    1    4    4    0    0  0.10703353849E+03 -0.39143757918E+02 -0.55171197562E+03  0.56336002360E+03  0.00000000000E+00 0. -1.
         13    1    4    4    0    0  0.38507515679E+02  0.41890956724E+02 -0.25925414145E+03  0.26542492512E+03  0.00000000000E+00 0.  1.
          2    1    1    2  501    0 -0.10288707379E+03  0.52993923397E+02 -0.16590482702E+03  0.20228326055E+03  0.00000000000E+00 0. -1.
<scales pt_clust_5="13000.00000" pt_clust_6="13000.00000" pt_clust_7="13000.00000" pt_clust_8="13000.00000" pt_clust_9="118.68388"></scales>
<clustering>
<clus scale="   82.454">  5  6 -1 -1</clus>
<clus scale="   89.603">  7  8 -1 -1</clus>
<clus scale="  108.283">  2  5  1 -1</clus>
<clus scale="  118.684">  1  9  2 -1</clus>
<clus scale="  118.684">  1  5  2 -1</clus>
</clustering>
</event>
<event>
 9    1  0.5981539E-005  0.1671715E+03  0.7546771E-02  0.1182660E+00
          1   -1    0    0  502    0 -0.00000000000E+00  0.00000000000E+00  0.60311936346E+03  0.60311936346E+03  0.00000000000E+00 0. -1.
         21   -1    0    0  501  502  0.00000000000E+00 -0.00000000000E+00 -0.73248759865E+02  0.73248759865E+02  0.00000000000E+00 0. -1.
         23    2    1    2    0    0  0.99482896258E+02 -0.55785099204E+02  0.22417359445E+03  0.26901960011E+03  0.95440666674E+02 0.  0.
        -24    2    1    2    0    0 -0.12320830317E+03  0.11659273496E+03  0.27876635077E+03  0.33673886481E+03  0.83115780299E+02 0.  0.
         11    1    4    4    0    0 -0.90522180531E+02  0.10198521423E+03  0.14836816451E+03  0.20151516402E+03  0.00000000000E+00 0. -1.
        -12    1    4    4    0    0 -0.32686122642E+02  0.14607520727E+02  0.13039818625E+03  0.13522370078E+03  0.00000000000E+00 0.  1.
        -11    1    3    3    0    0 -0.15662499555E+01 -0.31105402394E+02  0.11107972313E+03  0.11536335678E+03  0.00000000000E+00 0.  1.
         11    1    3    3    0    0  0.10104914621E+03 -0.24679696810E+02  0.11309387132E+03  0.15365624334E+03  0.00000000000E+00 0. -1.
          2    1    1    2  501    0  0.23725406915E+02 -0.60807635756E+02  0.26930658375E+02  0.70609658404E+02  0.00000000000E+00 0. -1.
<scales pt_clust_5="13000.00000" pt_clust_6="13000.00000" pt_clust_7="13000.00000" pt_clust_8="13000.00000" pt_clust_9="65.27223"></scales>
<clustering>
<clus scale="   65.272">  2  9  1 -1</clus>
<clus scale="   83.116">  5  6 -1 -1</clus>
<clus scale="   95.441">  7  8 -1 -1</clus>
<clus scale="  160.454">  2  5  1 -1</clus>
<clus scale="   65.272">  2  5  1 -1</clus>
</clustering>
</event>
<event>
 9    1  0.5981539E-005  0.1160905E+03  0.7546771E-02  0.1252812E+00
         21   -1    0    0  501  502  0.00000000000E+00  0.00000000000E+00  0.59180191265E+03  0.59180191265E+03  0.00000000000E+00 0.  1.
         -4   -1    0    0    0  501 -0.00000000000E+00 -0.00000000000E+00 -0.52008667233E+02  0.52008667233E+02  0.00000000000E+00 0.  1.
         23    2    1    2    0    0 -0.12173836458E+02  0.75587098661E+02  0.34319540485E+02  0.12328200861E+03  0.90327244002E+02 0.  0.
        -24    2    1    2    0    0  0.21364638611E+02 -0.51363590335E+02  0.39771345698E+03  0.40969752762E+03  0.81125853327E+02 0.  0.
         13    1    4    4    0    0  0.31873300696E+02 -0.62388795377E+02  0.21022797762E+03  0.22159438544E+03  0.00000000000E+00 0. -1.
        -14    1    4    4    0    0 -0.10508662084E+02  0.11025205042E+02  0.18748547936E+03  0.18810314218E+03  0.00000000000E+00 0.  1.
        -13    1    3    3    0    0  0.22978326589E+02  0.27718602220E+02  0.50227651384E+02  0.61799201980E+02  0.00000000000E+00 0. -1.
         13    1    3    3    0    0 -0.35152163047E+02  0.47868496441E+02 -0.15908110898E+02  0.61482806627E+02  0.00000000000E+00 0.  1.
         -3    1    1    2    0  502 -0.91908021532E+01 -0.24223508325E+02  0.10776024795E+03  0.11083104366E+03  0.00000000000E+00 0.  1.
<scales pt_clust_5="13000.00000" pt_clust_6="13000.00000" pt_clust_7="13000.00000" pt_clust_8="13000.00000" pt_clust_9="25.90848"></scales>
<clustering>
<clus scale="   25.908">  1  9  2 -1</clus>
<clus scale="   81.126">  5  6 -1 -1</clus>
<clus scale="   90.327">  7  8 -1 -1</clus>
<clus scale="  109.084">  1  5  2 -1</clus>
<clus scale="   25.908">  1  5  2 -1</clus>
</clustering>
</event>
<event>
 9    1  0.5981539E-005  0.2853488E+03  0.7546771E-02  0.1093216E+00
         21   -1    0    0  501  502  0.00000000000E+00  0.00000000000E+00  0.17463550954E+03  0.17463550954E+03  0.00000000000E+00 0.  1.
         -2   -1    0    0    0  501 -0.00000000000E+00 -0.00000000000E+00 -0.68063592348E+03  0.68063592348E+03  0.00000000000E+00 0.  1.
        -24    2    1    2    0    0  0.19109862283E+02  0.28171777157E+03 -0.42825301581E+03  0.51929934488E+03  0.80876908912E+02 0.  0.
         23    2    1    2    0    0  0.13312202530E+02 -0.24028285111E+03 -0.20336946447E+02  0.25810038030E+03  0.91044778244E+02 0.  0.
         11    1    3    3    0    0  0.48707820940E+02  0.19283296254E+03 -0.26912213986E+03  0.33463970091E+03  0.00000000000E+00 0. -1.
        -12    1    3    3    0    0 -0.29597958657E+02  0.88884809027E+02 -0.15913087595E+03  0.18465964397E+03  0.00000000000E+00 0.  1.
        -11    1    4    4    0    0  0.32906153770E+02 -0.22857069214E+03 -0.57277426090E+01  0.23099823223E+03  0.00000000000E+00 0.  1.
         11    1    4    4    0    0 -0.19593951240E+02 -0.11712158976E+02 -0.14609203838E+02  0.27102148067E+02  0.00000000000E+00 0. -1.
         -1    1    1    2    0  502 -0.32422064813E+02 -0.41434920455E+02 -0.57410451682E+02  0.77871707842E+02  0.00000000000E+00 0.  1.
<scales pt_clust_5="13000.00000" pt_clust_6="13000.00000" pt_clust_7="13000.00000" pt_clust_8="13000.00000" pt_clust_9="52.61222"></scales>
<clustering>
<clus scale="   52.612">  1  9  2 -1</clus>
<clus scale="   80.877">  5  6 -1 -1</clus>
<clus scale="   91.045">  7  8 -1 -1</clus>
<clus scale="  282.269">  2  5  1 -1</clus>
<clus scale="   52.612">  1  5  2 -1</clus>
</clustering>
</event>
<event>
 9    1  0.5981539E-005  0.9592015E+02  0.7546771E-02  0.1296293E+00
         21   -1    0    0  501  502  0.00000000000E+00  0.00000000000E+00  0.30582351296E+02  0.30582351296E+02  0.00000000000E+00 0. -1.
          1   -1    0    0  502    0 -0.00000000000E+00 -0.00000000000E+00 -0.50054549927E+03  0.50054549927E+03  0.00000000000E+00 0. -1.
         23    2    1    2    0    0  0.20441738074E+02 -0.80197521022E+01 -0.17168714013E+03  0.19566666938E+03  0.91251248419E+02 0.  0.
        -24    2    1    2    0    0 -0.23348489759E+02 -0.49088150033E+02 -0.16934823910E+03  0.19442171422E+03  0.78525017830E+02 0.  0.
         13    1    4    4    0    0  0.20790983550E+02 -0.70278376462E+01 -0.98661703145E+02  0.10107317728E+03  0.00000000000E+00 0. -1.
        -14    1    4    4    0    0 -0.44139473309E+02 -0.42060312387E+02 -0.70686535953E+02  0.93348536931E+02  0.00000000000E+00 0.  1.
        -11    1    3    3    0    0  0.31220128705E+02  0.33272968378E+02 -0.55245694892E+02  0.71651054878E+02  0.00000000000E+00 0.  1.
         11    1    3    3    0    0 -0.10778390631E+02 -0.41292720480E+02 -0.11644144524E+03  0.12401561450E+03  0.00000000000E+00 0. -1.
          2    1    1    2  501    0  0.29067516849E+01  0.57107902135E+02 -0.12892776875E+03  0.14103946698E+03  0.00000000000E+00 0. -1.
<scales pt_clust_5="13000.00000" pt_clust_6="13000.00000" pt_clust_7="13000.00000" pt_clust_8="13000.00000" pt_clust_9="57.18186"></scales>
<clustering>
<clus scale="   57.182">  1  9  2 -1</clus>
<clus scale="   78.525">  5  6 -1 -1</clus>
<clus scale="   83.905">  1  5  2 -1</clus>
<clus scale="   91.251">  7  8 -1 -1</clus>
<clus scale="   57.182">  1  5  2 -1</clus>
</clustering>
</event>
<event>
 9    1  0.5981539E-005  0.1573276E+03  0.7546771E-02  0.1193143E+00
         21   -1    0    0  501  502  0.00000000000E+00  0.00000000000E+00  0.51039759162E+02  0.51039759162E+02  0.00000000000E+00 0. -1.
          1   -1    0    0  502    0 -0.00000000000E+00 -0.00000000000E+00 -0.83153061723E+03  0.83153061723E+03  0.00000000000E+00 0. -1.
         23    2    1    2    0    0 -0.10148523064E+03 -0.11480253619E+03 -0.42281631196E+03  0.45865441601E+03  0.90063118534E+02 0.  0.
        -24    2    1    2    0    0  0.38637993277E+02  0.85252593923E+02 -0.10715878074E+03  0.16395226478E+03  0.81464357487E+02 0.  0.
         11    1    4    4    0    0  0.57358996741E+02  0.35032186146E+02 -0.40695623972E+02  0.78571256728E+02  0.00000000000E+00 0. -1.
        -12    1    4    4    0    0 -0.18721003464E+02  0.50220407777E+02 -0.66463156768E+02  0.85381008049E+02  0.00000000000E+00 0.  1.
        -11    1    3    3    0    0 -0.55438696075E+02 -0.15435308677E+01 -0.12922415370E+03  0.14062259211E+03  0.00000000000E+00 0.  1.
         11    1    3    3    0    0 -0.46046534562E+02 -0.11325900532E+03 -0.29359215825E+03  0.31803182391E+03  0.00000000000E+00 0. -1.
          2    1    1    2  501    0  0.62847237360E+02  0.29549942262E+02 -0.25051576537E+03  0.25996369561E+03  0.00000000000E+00 0. -1.
<scales pt_clust_5="13000.00000" pt_clust_6="13000.00000" pt_clust_7="13000.00000" pt_clust_8="13000.00000" pt_clust_9="69.44767"></scales>
<clustering>
<clus scale="   69.448">  1  9  2 -1</clus>
<clus scale="   81.464">  5  6 -1 -1</clus>
<clus scale="   90.063">  7  8 -1 -1</clus>
<clus scale="  152.568">  1  5  2 -1</clus>
<clus scale="   69.448">  1  5  2 -1</clus>
</clustering>
</event>
<event>
 9    1  0.5981539E-005  0.9225746E+02  0.7546771E-02  0.1302853E+00
         -2   -1    0    0    0  501 -0.00000000000E+00  0.00000000000E+00  0.33678953209E+03  0.33678953209E+03  0.00000000000E+00 0.  1.
         21   -1    0    0  501  502  0.00000000000E+00 -0.00000000000E+00 -0.86877269992E+02  0.86877269992E+02  0.00000000000E+00 0. -1.
         23    2    1    2    0    0  0.17307987784E+02 -0.13136906596E+02  0.27220592408E+03  0.28747278415E+03  0.89846490024E+02 0.  0.
        -24    2    1    2    0    0  0.14906090272E+02  0.37281567907E+02 -0.30103742362E+02  0.95185374324E+02  0.80882095350E+02 0.  0.
         11    1    4    4    0    0  0.45058290560E+02  0.36256864994E+02 -0.29696511787E+02  0.65013018848E+02  0.00000000000E+00 0. -1.
        -12    1    4    4    0    0 -0.30152200287E+02  0.10247029132E+01 -0.40723057466E+00  0.30172355476E+02  0.00000000000E+00 0.  1.
        -11    1    3    3    0    0  0.45649834516E+02  0.18002075774E+02  0.12263758024E+03  0.13209071962E+03  0.00000000000E+00 0. -1.
         11    1    3    3    0    0 -0.28341846732E+02 -0.31138982369E+02  0.14956834384E+03  0.15538206453E+03  0.00000000000E+00 0.  1.
         -1    1    1    2    0  502 -0.32214078056E+02 -0.24144661311E+02  0.78100803825E+01  0.41008643607E+02  0.00000000000E+00 0.  1.
<scales pt_clust_5="13000.00000" pt_clust_6="13000.00000" pt_clust_7="13000.00000" pt_clust_8="13000.00000" pt_clust_9="40.25806"></scales>
<clustering>
<clus scale="   40.258">  2  9  1 -1</clus>
<clus scale="   80.882">  5  6 -1 -1</clus>
<clus scale="   83.552">  2  5  1 -1</clus>
<clus scale="   89.846">  7  8 -1 -1</clus>
<clus scale="   40.258">  2  5  1 -1</clus>
</clustering>
</event>
<event>
 9    1  0.5981539E-005  0.1278339E+03  0.7546771E-02  0.1237986E+00
         -2   -1    0    0    0  501 -0.00000000000E+00  0.00000000000E+00  0.44295557294E+03  0.44295557294E+03  0.00000000000E+00 0.  1.
         21   -1    0    0  501  502  0.00000000000E+00 -0.00000000000E+00 -0.41412888930E+02  0.41412888930E+02  0.00000000000E+00 0. -1.
         23    2    1    2    0    0 -0.79779641430E+02  0.13902660660E+02  0.23398379108E+03  0.26796896840E+03  0.10247379362E+03 0.  0.
        -24    2    1    2    0    0  0.73013526010E+02  0.88267860088E+01  0.15652320805E+03  0.19024238345E+03  0.79270187770E+02 0.  0.
         11    1    4    4    0    0  0.64486167391E+02  0.37991250061E+02  0.89623235646E+02  0.11676525696E+03  0.00000000000E+00 0. -1.
        -12    1    4    4    0    0  0.85273586194E+01 -0.29164464052E+02  0.66899972404E+02  0.73477126483E+02  0.00000000000E+00 0.  1.
        -11    1    3    3    0    0 -0.86689601180E+02 -0.25076320041E+02  0.17556934314E+03  0.19740441492E+03  0.00000000000E+00 0.  1.
         11    1    3    3    0    0  0.69099597501E+01  0.38978980701E+02  0.58414447937E+02  0.70564553482E+02  0.00000000000E+00 0. -1.
         -1    1    1    2    0  502  0.67661154202E+01 -0.22729446669E+02  0.11035684878E+02  0.26157110017E+02  0.00000000000E+00 0.  1.
<scales pt_clust_5="13000.00000" pt_clust_6="13000.00000" pt_clust_7="13000.00000" pt_clust_8="13000.00000" pt_clust_9="23.71514"></scales>
<clustering>
<clus scale="   23.715">  2  9  1 -1</clus>
<clus scale="   79.270">  5  6 -1 -1</clus>
<clus scale="  102.474">  7  8 -1 -1</clus>
<clus scale="  110.111">  2  5  1 -1</clus>
<clus scale="   23.715">  2  5  1 -1</clus>
</clustering>
</event>
<event>
 9    1  0.5981539E-005  0.1287253E+03  0.7546771E-02  0.1231976E+00
         -2   -1    0    0    0  501 -0.00000000000E+00  0.00000000000E+00  0.25310995474E+03  0.25310995474E+03  0.00000000000E+00 0.  1.
         21   -1    0    0  501  502  0.00000000000E+00 -0.00000000000E+00 -0.17161557234E+03  0.17161557234E+03  0.00000000000E+00 0.  1.
         23    2    1    2    0    0  0.66756361124E+00  0.94288099313E+02  0.82239119315E+02  0.15563523013E+03  0.92565440621E+02 0.  0.
        -24    2    1    2    0    0  0.22404388228E+02 -0.71505589540E+02 -0.10898665255E+03  0.15609618201E+03  0.82903085935E+02 0.  0.
         11    1    4    4    0    0  0.34920863769E+02 -0.32147512299E+02 -0.95397536111E+01  0.48414214569E+02  0.00000000000E+00 0. -1.
        -12    1    4    4    0    0 -0.12516475541E+02 -0.39358077240E+02 -0.99446898936E+02  0.10768196744E+03  0.00000000000E+00 0.  1.
        -13    1    3    3    0    0 -0.26269479990E+02  0.69624148483E+01 -0.68322997423E+01  0.28022154079E+02  0.00000000000E+00 0. -1.
         13    1    3    3    0    0  0.26937043601E+02  0.87325684464E+02  0.89071419058E+02  0.12761307605E+03  0.00000000000E+00 0.  1.
         -1    1    1    2    0  502 -0.23071951839E+02 -0.22782509773E+02  0.10824191563E+03  0.11299411495E+03  0.00000000000E+00 0.  1.
<scales pt_clust_5="13000.00000" pt_clust_6="13000.00000" pt_clust_7="13000.00000" pt_clust_8="13000.00000" pt_clust_9="32.42466"></scales>
<clustering>
<clus scale="   32.425">  2  9  1 -1</clus>
<clus scale="   82.903">  5  6 -1 -1</clus>
<clus scale="   92.565">  7  8 -1 -1</clus>
<clus scale="  121.962">  2  5  1 -1</clus>
<clus scale="   32.425">  2  5  1 -1</clus>
</clustering>
</event>
<event>
 9    1  0.5981539E-005  0.1266353E+03  0.7546771E-02  0.1233943E+00
         21   -1    0    0  501  502  0.00000000000E+00  0.00000000000E+00  0.21893803108E+03  0.21893803108E+03  0.00000000000E+00 0. -1.
         -2   -1    0    0    0  501 -0.00000000000E+00 -0.00000000000E+00 -0.29393884985E+03  0.29393884985E+03  0.00000000000E+00 0.  1.
         23    2    1    2    0    0  0.79371954937E+02  0.51428283882E+02 -0.24432747350E+03  0.27711452553E+03  0.90287154870E+02 0.  0.
        -24    2    1    2    0    0 -0.17403352782E+02 -0.41323634906E+02  0.12974557252E+03  0.16154056849E+03  0.85152346933E+02 0.  0.
         11    1    4    4    0    0 -0.34290350799E+02  0.21077852723E+01  0.10124950395E+03  0.10691928248E+03  0.00000000000E+00 0. -1.
        -12    1    4    4    0    0  0.16886998017E+02 -0.43431420179E+02  0.28496068574E+02  0.54621286006E+02  0.00000000000E+00 0.  1.
        -13    1    3    3    0    0  0.36620667571E+02  0.62521898229E+02 -0.20690436002E+03  0.21922471404E+03  0.00000000000E+00 0.  1.
         13    1    3    3    0    0  0.42751287365E+02 -0.11093614347E+02 -0.37423113485E+02  0.57889811483E+02  0.00000000000E+00 0. -1.
         -1    1    1    2    0  502 -0.61968602155E+02 -0.10104648975E+02  0.39581082216E+02  0.74221786918E+02  0.00000000000E+00 0.  1.
<scales pt_clust_5="13000.00000" pt_clust_6="13000.00000" pt_clust_7="13000.00000" pt_clust_8="13000.00000" pt_clust_9="62.78703"></scales>
<clustering>
<clus scale="   62.787">  1  9  2 -1</clus>
<clus scale="   85.152">  5  6 -1 -1</clus>
<clus scale="   90.287">  7  8 -1 -1</clus>
<clus scale="  123.027">  1  5  2 -1</clus>
<clus scale="   62.787">  1  5  2 -1</clus>
</clustering>
</event>
<event>
 9    1  0.5981539E-005  0.1349150E+03  0.7546771E-02  0.1222511E+00
         21   -1    0    0  501  502  0.00000000000E+00  0.00000000000E+00  0.57863678277E+02  0.57863678277E+02  0.00000000000E+00 0. -1.
          1   -1    0    0  502    0 -0.00000000000E+00 -0.00000000000E+00 -0.54903737104E+03  0.54903737104E+03  0.00000000000E+00 0. -1.
         23    2    1    2    0    0  0.43387909551E+02 -0.93295888081E+02 -0.19857868297E+03  0.24127581997E+03  0.90520133352E+02 0.  0.
        -24    2    1    2    0    0 -0.37520745747E+01  0.10029374417E+03 -0.86076332768E+02  0.15522101513E+03  0.81311224877E+02 0.  0.
         11    1    4    4    0    0 -0.39230562095E+02  0.69923474334E+02 -0.39943854024E+02  0.89575893741E+02  0.00000000000E+00 0. -1.
        -12    1    4    4    0    0  0.35478487520E+02  0.30370269834E+02 -0.46132478744E+02  0.65645121385E+02  0.00000000000E+00 0.  1.
        -11    1    3    3    0    0  0.55112116834E+02 -0.23386339969E+02 -0.12767850332E+03  0.14101796527E+03  0.00000000000E+00 0. -1.
         11    1    3    3    0    0 -0.11724207284E+02 -0.69909548112E+02 -0.70900179651E+02  0.10025785470E+03  0.00000000000E+00 0.  1.
          2    1    1    2  501    0 -0.39635834976E+02 -0.69978560869E+01 -0.20651867702E+03  0.21040421422E+03  0.00000000000E+00 0. -1.
<scales pt_clust_5="13000.00000" pt_clust_6="13000.00000" pt_clust_7="13000.00000" pt_clust_8="13000.00000" pt_clust_9="40.24886"></scales>
<clustering>
<clus scale="   40.249">  1  9  2 -1</clus>
<clus scale="   81.311">  5  6 -1 -1</clus>
<clus scale="   90.520">  7  8 -1 -1</clus>
<clus scale="  128.917">  1  5  2 -1</clus>
<clus scale="   40.249">  1  5  2 -1</clus>
</clustering>
</event>
<event>
 9    1  0.5981539E-005  0.1951287E+03  0.7546771E-02  0.1154825E+00
          1   -1    0    0  502    0 -0.00000000000E+00  0.00000000000E+00  0.12681358892E+04  0.12681358892E+04  0.00000000000E+00 0. -1.
         21   -1    0    0  501  502  0.00000000000E+00 -0.00000000000E+00 -0.71989339009E+03  0.71989339009E+03  0.00000000000E+00 0. -1.
         23    2    1    2    0    0 -0.50484545669E+02  0.15504761651E+03  0.91516400944E+03  0.93397051052E+03  0.90483686958E+02 0.  0.
        -24    2    1    2    0    0  0.19183413350E+03 -0.17125343421E+03  0.28172735631E+03  0.38998973125E+03  0.81201069470E+02 0.  0.
         13    1    4    4    0    0  0.12685407007E+03 -0.11120127695E+03  0.23683662052E+03  0.29077356122E+03  0.00000000000E+00 0. -1.
        -14    1    4    4    0    0  0.64980063422E+02 -0.60052157260E+02  0.44890735791E+02  0.99216170022E+02  0.00000000000E+00 0.  1.
        -13    1    3    3    0    0  0.15532640626E+02  0.96715844621E+02  0.51342828346E+03  0.52268902780E+03  0.00000000000E+00 0. -1.
         13    1    3    3    0    0 -0.66017186295E+02  0.58331771888E+02  0.40173572599E+03  0.41128148272E+03  0.00000000000E+00 0.  1.
          2    1    1    2  501    0 -0.14134958783E+03  0.16205817696E+02 -0.64864886660E+03  0.66406903757E+03  0.00000000000E+00 0. -1.
<scales pt_clust_5="13000.00000" pt_clust_6="13000.00000" pt_clust_7="13000.00000" pt_clust_8="13000.00000" pt_clust_9="142.27556"></scales>
<clustering>
<clus scale="   81.201">  5  6 -1 -1</clus>
<clus scale="   90.484">  7  8 -1 -1</clus>
<clus scale="  142.276">  2  9  1 -1</clus>
<clus scale="  191.001">  2  5  1 -1</clus>
<clus scale="  142.276">  2  5  1 -1</clus>
</clustering>
</event>
<event>
 9    1  0.5981539E-005  0.1161159E+03  0.7546771E-02  0.1252902E+00
         21   -1    0    0  501  502  0.00000000000E+00  0.00000000000E+00  0.18358246156E+03  0.18358246156E+03  0.00000000000E+00 0.  1.
          1   -1    0    0  502    0 -0.00000000000E+00 -0.00000000000E+00 -0.35684963502E+03  0.35684963502E+03  0.00000000000E+00 0. -1.
        -24    2    1    2    0    0 -0.13180528581E+02  0.69270256376E+02 -0.31329743771E+03  0.33138641206E+03  0.81789821311E+02 0.  0.
         23    2    1    2    0    0  0.60156705973E+01 -0.90425255940E+02  0.98931146167E+02  0.16226955061E+03  0.91274970107E+02 0.  0.
         13    1    3    3    0    0  0.27790145451E+02  0.18885314069E+02 -0.18002856316E+03  0.18313719126E+03  0.00000000000E+00 0. -1.
        -14    1    3    3    0    0 -0.40970674031E+02  0.50384942307E+02 -0.13326887455E+03  0.14824922079E+03  0.00000000000E+00 0.  1.
        -13    1    4    4    0    0 -0.16525661134E+02  0.12747389906E+02  0.28526710184E+02  0.35346380568E+02  0.00000000000E+00 0. -1.
         13    1    4    4    0    0  0.22541331731E+02 -0.10317264585E+03  0.70404435983E+02  0.12692317004E+03  0.00000000000E+00 0.  1.
          2    1    1    2  501    0  0.71648579832E+01  0.21154999564E+02  0.41099118086E+02  0.46776133913E+02  0.00000000000E+00 0. -1.
<scales pt_clust_5="13000.00000" pt_clust_6="13000.00000" pt_clust_7="13000.00000" pt_clust_8="13000.00000" pt_clust_9="22.33538"></scales>
<clustering>
<clus scale="   22.335">  1  9  2 -1</clus>
<clus scale="   81.790">  5  6 -1 -1</clus>
<clus scale="   91.275">  7  8 -1 -1</clus>
<clus scale="  108.818">  2  5  1 -1</clus>
<clus scale="   22.335">  1  5  2 -1</clus>
</clustering>
</event>
<event>
 9    1  0.5981539E-005  0.1317977E+03  0.7546771E-02  0.1230179E+00
          1   -1    0    0  502    0 -0.00000000000E+00  0.00000000000E+00  0.97704494975E+03  0.97704494975E+03  0.00000000000E+00 0. -1.
         21   -1    0    0  501  502  0.00000000000E+00 -0.00000000000E+00 -0.97941105395E+02  0.97941105395E+02  0.00000000000E+00 0. -1.
        -24    2    1    2    0    0  0.66899544819E+02  0.58522381035E+02  0.18754211822E+03  0.22153239870E+03  0.77486381942E+02 0.  0.
         23    2    1    2    0    0  0.38172769300E+02  0.74948012846E+02 -0.13368449899E+02  0.12834601594E+03  0.96018849244E+02 0.  0.
         11    1    3    3    0    0  0.76521701819E+02  0.37128786947E+02  0.17581275170E+03  0.19530550768E+03  0.00000000000E+00 0. -1.
        -12    1    3    3    0    0 -0.96221570006E+01  0.21393594088E+02  0.11729366516E+02  0.26226891013E+02  0.00000000000E+00 0.  1.
        -13    1    4    4    0    0  0.56779696958E+01  0.84619368239E+02 -0.30793135353E+02  0.90226902894E+02  0.00000000000E+00 0.  1.
         13    1    4    4    0    0  0.32494799604E+02 -0.96713553929E+01  0.17424685454E+02  0.38119113049E+02  0.00000000000E+00 0. -1.
          2    1    1    2  501    0 -0.10507231412E+03 -0.13347039388E+03  0.70493017604E+03  0.72510764051E+03  0.00000000000E+00 0. -1.
<scales pt_clust_5="13000.00000" pt_clust_6="13000.00000" pt_clust_7="13000.00000" pt_clust_8="13000.00000" pt_clust_9="90.28308"></scales>
<clustering>
<clus scale="   77.486">  5  6 -1 -1</clus>
<clus scale="   96.019">  7  8 -1 -1</clus>
<clus scale="  117.918">  1  5  2 -1</clus>
<clus scale="   90.283">  2  9  1 -1</clus>
<clus scale="   90.283">  2  5  1 -1</clus>
</clustering>
</event>
<event>
 9    1  0.5981539E-005  0.2882390E+03  0.7546771E-02  0.1124959E+00
          3   -1    0    0  502    0 -0.00000000000E+00  0.00000000000E+00  0.31519504255E+03  0.31519504255E+03  0.00000000000E+00 0. -1.
         21   -1    0    0  501  502  0.00000000000E+00 -0.00000000000E+00 -0.52892896197E+03  0.52892896197E+03  0.00000000000E+00 0. -1.
        -24    2    1    2    0    0 -0.90297260102E+02  0.15729056851E+02 -0.22637720590E+03  0.25707287137E+03  0.80242279570E+02 0.  0.
         23    2    1    2    0    0  0.30358248660E+03 -0.12844462790E+03  0.38076674480E+02  0.34447692797E+03  0.92488767733E+02 0.  0.
         13    1    3    3    0    0 -0.37236062029E+02  0.44449128122E+02 -0.14164614185E+03  0.15305514956E+03  0.00000000000E+00 0. -1.
        -14    1    3    3    0    0 -0.53061198073E+02 -0.28720071271E+02 -0.84731064055E+02  0.10401772181E+03  0.00000000000E+00 0.  1.
        -11    1    4    4    0    0  0.56942257116E+02 -0.50245802227E+01 -0.23640359954E+02  0.61858982134E+02  0.00000000000E+00 0.  1.
         11    1    4    4    0    0  0.24664022948E+03 -0.12342004768E+03  0.61717034434E+02  0.28261794583E+03  0.00000000000E+00 0. -1.
          4    1    1    2  501    0 -0.21328522649E+03  0.11271557105E+03 -0.25433387989E+02  0.24257420519E+03  0.00000000000E+00 0. -1.
<scales pt_clust_5="13000.00000" pt_clust_6="13000.00000" pt_clust_7="13000.00000" pt_clust_8="13000.00000" pt_clust_9="272.99739"></scales>
<clustering>
<clus scale="   80.242">  5  6 -1 -1</clus>
<clus scale="   92.489">  7  8 -1 -1</clus>
<clus scale="  121.819">  1  5  2 -1</clus>
<clus scale="  272.997">  2  9  1 -1</clus>
<clus scale="  272.997">  2  5  1 -1</clus>
</clustering>
</event>
<event>
 9    1  0.5981539E-005  0.1881010E+03  0.7546771E-02  0.1161672E+00
         21   -1    0    0  501  502  0.00000000000E+00  0.00000000000E+00  0.67788919592E+02  0.67788919592E+02  0.00000000000E+00 0. -1.
          1   -1    0    0  502    0 -0.00000000000E+00 -0.00000000000E+00 -0.74795342526E+03  0.74795342526E+03  0.00000000000E+00 0. -1.
        -24    2    1    2    0    0  0.67063146809E+02  0.14631142641E+03 -0.32032828480E+03  0.36682675568E+03  0.77763484283E+02 0.  0.
         23    2    1    2    0    0 -0.50413176244E+01 -0.17656399897E+03 -0.27737625567E+03  0.34139084177E+03  0.91705283473E+02 0.  0.
         13    1    3    3    0    0  0.55573576263E+02  0.14680368763E+03 -0.31863671646E+03  0.35520290280E+03  0.00000000000E+00 0. -1.
        -14    1    3    3    0    0  0.11489570546E+02 -0.49226122411E+00 -0.16915683366E+01  0.11623852885E+02  0.00000000000E+00 0.  1.
        -13    1    4    4    0    0  0.31950885490E+02 -0.15004980221E+03 -0.20938369329E+03  0.25957144150E+03  0.00000000000E+00 0. -1.
         13    1    4    4    0    0 -0.36992203114E+02 -0.26514196765E+02 -0.67992562382E+02  0.81819400271E+02  0.00000000000E+00 0.  1.
          2    1    1    2  501    0 -0.62021829185E+02  0.30252572565E+02 -0.82459965196E+02  0.10752474740E+03  0.00000000000E+00 0. -1.
<scales pt_clust_5="13000.00000" pt_clust_6="13000.00000" pt_clust_7="13000.00000" pt_clust_8="13000.00000" pt_clust_9="69.00671"></scales>
<clustering>
<clus scale="   69.007">  1  9  2 -1</clus>
<clus scale="   77.763">  5  6 -1 -1</clus>
<clus scale="   91.705">  7  8 -1 -1</clus>
<clus scale="  181.712">  2  5  1 -1</clus>
<clus scale="   69.007">  1  5  2 -1</clus>
</clustering>
</event>
<event>
 9    1  0.5981539E-005  0.9591516E+02  0.7546771E-02  0.1293087E+00
          3   -1    0    0  502    0 -0.00000000000E+00  0.00000000000E+00  0.97181701304E+02  0.97181701304E+02  0.00000000000E+00 0. -1.
         21   -1    0    0  501  502  0.00000000000E+00 -0.00000000000E+00 -0.30073243447E+03  0.30073243447E+03  0.00000000000E+00 0. -1.
         23    2    1    2    0    0 -0.11653948554E+02  0.34670270420E+02  0.49760164204E+02  0.10799563226E+03  0.88595375040E+02 0.  0.
        -24    2    1    2    0    0 -0.18878149576E+02 -0.43364086067E+02 -0.11736503858E+03  0.15031525151E+03  0.81137500974E+02 0.  0.
         11    1    4    4    0    0 -0.26654139184E+02 -0.63375518404E+02 -0.69031985172E+02  0.97428509408E+02  0.00000000000E+00 0. -1.
        -12    1    4    4    0    0  0.77759896082E+01  0.20011432337E+02 -0.48333053409E+02  0.52886742104E+02  0.00000000000E+00 0.  1.
        -13    1    3    3    0    0 -0.19462749082E+02  0.54178717839E+02  0.61240529826E+02  0.84050785612E+02  0.00000000000E+00 0. -1.
         13    1    3    3    0    0  0.78088005278E+01 -0.19508447419E+02 -0.11480365622E+02  0.23944846652E+02  0.00000000000E+00 0.  1.
          4    1    1    2  501    0  0.30532098130E+02  0.86938156466E+01 -0.13594585879E+03  0.13960325200E+03  0.00000000000E+00 0. -1.
<scales pt_clust_5="13000.00000" pt_clust_6="13000.00000" pt_clust_7="13000.00000" pt_clust_8="13000.00000" pt_clust_9="31.74573"></scales>
<clustering>
<clus scale="   31.746">  2  9  1 -1</clus>
<clus scale="   81.138">  5  6 -1 -1</clus>
<clus scale="   88.595">  7  8 -1 -1</clus>
<clus scale="   89.072">  2  5  1 -1</clus>
<clus scale="   31.746">  2  5  1 -1</clus>
</clustering>
</event>
<event>
 9    1  0.5981539E-005  0.1015730E+03  0.7546771E-02  0.1282989E+00
         21   -1    0    0  501  502  0.00000000000E+00  0.00000000000E+00  0.75098874006E+02  0.75098874006E+02  0.00000000000E+00 0. -1.
          1   -1    0    0  502    0 -0.00000000000E+00 -0.00000000000E+00 -0.58513734264E+03  0.58513734264E+03  0.00000000000E+00 0. -1.
         23    2    1    2    0    0 -0.24721027822E+02 -0.47705947561E+02 -0.47291461712E+03  0.48457178714E+03  0.90964801741E+02 0.  0.
        -24    2    1    2    0    0  0.34664367067E+02 -0.27353999657E+01 -0.73167167531E+02  0.11287653127E+03  0.78603919437E+02 0.  0.
         13    1    4    4    0    0  0.44518058372E+02 -0.30642277255E+02 -0.59174166963E+02  0.80139807289E+02  0.00000000000E+00 0. -1.
        -14    1    4    4    0    0 -0.98536913055E+01  0.27906877289E+02 -0.13993000568E+02  0.32736723985E+02  0.00000000000E+00 0.  1.
        -13    1    3    3    0    0 -0.20717728831E+02 -0.74722084160E+02 -0.37415162160E+03  0.38210214615E+03  0.00000000000E+00 0. -1.
         13    1    3    3    0    0 -0.40032989903E+01  0.27016136599E+02 -0.98762995518E+02  0.10246964098E+03  0.00000000000E+00 0.  1.
          2    1    1    2  501    0 -0.99433392448E+01  0.50441347527E+02  0.36043316014E+02  0.62787898236E+02  0.00000000000E+00 0. -1.
<scales pt_clust_5="13000.00000" pt_clust_6="13000.00000" pt_clust_7="13000.00000" pt_clust_8="13000.00000" pt_clust_9="51.41206"></scales>
<clustering>
<clus scale="   51.412">  1  9  2 -1</clus>
<clus scale="   78.604">  5  6 -1 -1</clus>
<clus scale="   90.670">  1  5  2 -1</clus>
<clus scale="   90.965">  7  8 -1 -1</clus>
<clus scale="   51.412">  1  5  2 -1</clus>
</clustering>
</event>
<event>
 9    1  0.5981539E-005  0.1080917E+03  0.7546771E-02  0.1266045E+00
          1   -1    0    0  502    0 -0.00000000000E+00  0.00000000000E+00  0.71030362227E+02  0.71030362227E+02  0.00000000000E+00 0. -1.
         21   -1    0    0  501  502  0.00000000000E+00 -0.00000000000E+00 -0.45268129819E+03  0.45268129819E+03  0.00000000000E+00 0. -1.
         23    2    1    2    0    0  0.13767000305E+02  0.49700510849E+02 -0.62825832667E+02  0.11898015215E+03  0.86887975462E+02 0.  0.
        -24    2    1    2    0    0 -0.12236867765E+02 -0.11059975594E+03 -0.31466202005E+03  0.34367095947E+03  0.81948121225E+02 0.  0.
         13    1    4    4    0    0 -0.29664530135E+02 -0.11324870698E+03 -0.24100680838E+03  0.26793569315E+03  0.00000000000E+00 0. -1.
        -14    1    4    4    0    0  0.17427662370E+02  0.26489510396E+01 -0.73655211672E+02  0.75735266315E+02  0.00000000000E+00 0.  1.
        -11    1    3    3    0    0 -0.26137359541E+02  0.25462284968E+02  0.47989031560E+01  0.36803790444E+02  0.00000000000E+00 0.  1.
         11    1    3    3    0    0  0.39904359846E+02  0.24238225881E+02 -0.67624735823E+02  0.82176361709E+02  0.00000000000E+00 0. -1.
          2    1    1    2  501    0 -0.15301325405E+01  0.60899245087E+02 -0.41630832488E+01  0.61060548801E+02  0.00000000000E+00 0. -1.
<scales pt_clust_5="13000.00000" pt_clust_6="13000.00000" pt_clust_7="13000.00000" pt_clust_8="13000.00000" pt_clust_9="60.91850"></scales>
<clustering>
<clus scale="   60.918">  2  9  1 -1</clus>
<clus scale="   81.948">  5  6 -1 -1</clus>
<clus scale="   86.888">  7  8 -1 -1</clus>
<clus scale="  104.162">  2  5  1 -1</clus>
<clus scale="   60.918">  2  5  1 -1</clus>
</clustering>
</event>
<event>
 9    1  0.5981539E-005  0.1818850E+03  0.7546771E-02  0.1188384E+00
          1   -1    0    0  502    0 -0.00000000000E+00  0.00000000000E+00  0.19715809392E+03  0.19715809392E+03  0.00000000000E+00 0. -1.
         21   -1    0    0  501  502  0.00000000000E+00 -0.00000000000E+00 -0.39693903073E+03  0.39693903073E+03  0.00000000000E+00 0. -1.
         23    2    1    2    0    0 -0.47132124241E+02  0.39374347175E+02  0.35260251220E+02  0.11520167982E+03  0.90864544055E+02 0.  0.
        -24    2    1    2    0    0 -0.12506994722E+03 -0.87705554668E+02  0.21683649294E+02  0.16601032033E+03  0.61273891595E+02 0.  0.
         13    1    4    4    0    0 -0.11764255788E+03 -0.78437968486E+02  0.12205503472E+00  0.14139413433E+03  0.00000000000E+00 0. -1.
        -14    1    4    4    0    0 -0.74273893350E+01 -0.92675861814E+01  0.21561594259E+02  0.24616185995E+02  0.00000000000E+00 0.  1.
        -11    1    3    3    0    0 -0.18203065248E+02 -0.25792760995E+02 -0.69762836530E+01  0.32330892932E+02  0.00000000000E+00 0.  1.
         11    1    3    3    0    0 -0.28929058993E+02  0.65167108170E+02  0.42236534873E+02  0.82870786889E+02  0.00000000000E+00 0. -1.
          2    1    1    2  501    0  0.17220207146E+03  0.48331207493E+02 -0.25672483732E+03  0.31288512450E+03  0.00000000000E+00 0. -1.
<scales pt_clust_5="13000.00000" pt_clust_6="13000.00000" pt_clust_7="13000.00000" pt_clust_8="13000.00000" pt_clust_9="171.25320"></scales>
<clustering>
<clus scale="   61.274">  5  6 -1 -1</clus>
<clus scale="   90.865">  7  8 -1 -1</clus>
<clus scale="  109.673">  1  7  2 -1</clus>
<clus scale="  171.253">  2  9  1 -1</clus>
<clus scale="  171.253">  2  5  1 -1</clus>
</clustering>
</event>
<event>
 9    1  0.5981539E-005  0.1585189E+03  0.7546771E-02  0.1194934E+00
          1   -1    0    0  502    0 -0.00000000000E+00  0.00000000000E+00  0.38535166712E+03  0.38535166712E+03  0.00000000000E+00 0. -1.
         21   -1    0    0  501  502  0.00000000000E+00 -0.00000000000E+00 -0.28518450740E+03  0.28518450740E+03  0.00000000000E+00 0.  1.
        -24    2    1    2    0    0  0.10784999530E+03  0.52314648396E+02  0.32961678145E+03  0.35983381523E+03  0.80403408184E+02 0.  0.
         23    2    1    2    0    0 -0.10700586589E+03 -0.25906682506E+02 -0.10842635216E+03  0.18682853238E+03  0.10501054774E+03 0.  0.
         13    1    3    3    0    0  0.10516731895E+03  0.69719614204E+02  0.29862547339E+03  0.32418846823E+03  0.00000000000E+00 0. -1.
        -14    1    3    3    0    0  0.26826763532E+01 -0.17404965808E+02  0.30991308059E+02  0.35645346996E+02  0.00000000000E+00 0.  1.
        -11    1    4    4    0    0 -0.99231237770E+02 -0.51021038940E+02 -0.11446828631E+03  0.15985297475E+03  0.00000000000E+00 0.  1.
         11    1    4    4    0    0 -0.77746281186E+01  0.25114356433E+02  0.60419341531E+01  0.26975557636E+02  0.00000000000E+00 0. -1.
          2    1    1    2  501    0 -0.84412941542E+00 -0.26407965890E+02 -0.12102326956E+03  0.12387382691E+03  0.00000000000E+00 0. -1.
<scales pt_clust_5="13000.00000" pt_clust_6="13000.00000" pt_clust_7="13000.00000" pt_clust_8="13000.00000" pt_clust_9="26.42145"></scales>
<clustering>
<clus scale="   26.421">  2  9  1 -1</clus>
<clus scale="   80.403">  5  6 -1 -1</clus>
<clus scale="  105.011">  7  8 -1 -1</clus>
<clus scale="  143.408">  1  5  2 -1</clus>
<clus scale="   26.421">  2  5  1 -1</clus>
</clustering>
</event>
<event>
 9    1  0.5981539E-005  0.2165372E+03  0.7546771E-02  0.1178794E+00
         21   -1    0    0  501  502  0.00000000000E+00  0.00000000000E+00  0.99342045372E+02  0.99342045372E+02  0.00000000000E+00 0.  1.
         -2   -1    0    0    0  501 -0.00000000000E+00 -0.00000000000E+00 -0.63769880776E+03  0.63769880776E+03  0.00000000000E+00 0.  1.
        -24    2    1    2    0    0  0.40773008069E+02 -0.19089188548E+01 -0.16266517421E+03  0.18150600706E+03  0.69414620492E+02 0.  0.
         23    2    1    2    0    0 -0.72610325870E+02  0.18415643087E+03 -0.21733467388E+03  0.31200931817E+03  0.10454474495E+03 0.  0.
         13    1    3    3    0    0  0.34533763393E+02 -0.22367721570E+02 -0.41397535030E+02  0.58366528840E+02  0.00000000000E+00 0. -1.
        -14    1    3    3    0    0  0.62392446763E+01  0.20458802715E+02 -0.12126763918E+03  0.12313947822E+03  0.00000000000E+00 0.  1.
        -11    1    4    4    0    0  0.13256800933E+02  0.54447066967E+02 -0.10863815799E+03  0.12223941772E+03  0.00000000000E+00 0. -1.
         11    1    4    4    0    0 -0.85867126803E+02  0.12970936390E+03 -0.10869651589E+03  0.18976990045E+03  0.00000000000E+00 0.  1.
         -1    1    1    2    0  502  0.31837317801E+02 -0.18224751201E+03 -0.15835691430E+03  0.24352552791E+03  0.00000000000E+00 0.  1.
<scales pt_clust_5="13000.00000" pt_clust_6="13000.00000" pt_clust_7="13000.00000" pt_clust_8="13000.00000" pt_clust_9="189.62799"></scales>
<clustering>
<clus scale="   69.415">  5  6 -1 -1</clus>
<clus scale="   80.526">  2  5  1 -1</clus>
<clus scale="  104.545">  7  8 -1 -1</clus>
<clus scale="  189.628">  1  9  2 -1</clus>
<clus scale="  189.628">  1  5  2 -1</clus>
</clustering>
</event>
<event>
 9    1  0.5981539E-005  0.2285430E+03  0.7546771E-02  0.1166274E+00
         21   -1    0    0  501  502  0.00000000000E+00  0.00000000000E+00  0.31711172164E+03  0.31711172164E+03  0.00000000000E+00 0.  1.
         -4   -1    0    0    0  501 -0.00000000000E+00 -0.00000000000E+00 -0.47169891226E+03  0.47169891226E+03  0.00000000000E+00 0.  1.
        -24    2    1    2    0    0  0.11876607374E+02  0.23566802347E+02 -0.32400104561E+02  0.96677614379E+02  0.87179965421E+02 0.  0.
         23    2    1    2    0    0  0.20000906002E+03 -0.18304557266E+02 -0.32929491363E+03  0.39579389028E+03  0.88763632942E+02 0.  0.
         11    1    3    3    0    0  0.30573596789E+02 -0.55962649485E+01  0.17699335299E+02  0.35767715499E+02  0.00000000000E+00 0. -1.
        -12    1    3    3    0    0 -0.18696989414E+02  0.29163067296E+02 -0.50099439860E+02  0.60909898880E+02  0.00000000000E+00 0.  1.
        -11    1    4    4    0    0  0.24740356359E+02 -0.35684878863E+02 -0.62361160881E+02  0.75989540061E+02  0.00000000000E+00 0. -1.
         11    1    4    4    0    0  0.17526870366E+03  0.17380321597E+02 -0.26693375275E+03  0.31980435022E+03  0.00000000000E+00 0.  1.
         -3    1    1    2    0  502 -0.21188566740E+03 -0.52622450811E+01  0.20710782758E+03  0.29633912924E+03  0.00000000000E+00 0.  1.
<scales pt_clust_5="13000.00000" pt_clust_6="13000.00000" pt_clust_7="13000.00000" pt_clust_8="13000.00000" pt_clust_9="210.60131"></scales>
<clustering>
<clus scale="   87.180">  5  6 -1 -1</clus>
<clus scale="   88.764">  7  8 -1 -1</clus>
<clus scale="   91.087">  2  5  1 -1</clus>
<clus scale="  210.601">  1  9  2 -1</clus>
<clus scale="  210.601">  1  5  2 -1</clus>
</clustering>
</event>
<event>
 9    1  0.5981539E-005  0.4108192E+03  0.7546771E-02  0.1083163E+00
          1   -1    0    0  502    0 -0.00000000000E+00  0.00000000000E+00  0.13021511412E+04  0.13021511412E+04  0.00000000000E+00 0. -1.
         21   -1    0    0  501  502  0.00000000000E+00 -0.00000000000E+00 -0.21154524251E+03  0.21154524251E+03  0.00000000000E+00 0. -1.
         23    2    1    2    0    0  0.24153317902E+02  0.80430801559E+02  0.67287970077E+02  0.14063511783E+03  0.90543187735E+02 0.  0.
        -24    2    1    2    0    0  0.17662460167E+03 -0.41178323299E+03  0.81431169576E+03  0.93284562307E+03  0.79597347554E+02 0.  0.
         13    1    4    4    0    0  0.17648973999E+03 -0.40352606603E+03  0.76399848386E+03  0.88185917109E+03  0.00000000000E+00 0. -1.
        -14    1    4    4    0    0  0.13486167409E+00 -0.82571669601E+01  0.50313211900E+02  0.50986451981E+02  0.00000000000E+00 0.  1.
        -13    1    3    3    0    0 -0.43952783385E+01  0.72602480982E+02  0.65035559085E+01  0.73025577408E+02  0.00000000000E+00 0.  1.
         13    1    3    3    0    0  0.28548596241E+02  0.78283205776E+01  0.60784414168E+02  0.67609540423E+02  0.00000000000E+00 0. -1.
          2    1    1    2  501    0 -0.20077791957E+03  0.33135243144E+03  0.20900623286E+03  0.44021564282E+03  0.00000000000E+00 0. -1.
<scales pt_clust_5="13000.00000" pt_clust_6="13000.00000" pt_clust_7="13000.00000" pt_clust_8="13000.00000" pt_clust_9="403.03432"></scales>
<clustering>
<clus scale="   79.597">  5  6 -1 -1</clus>
<clus scale="   90.543">  7  8 -1 -1</clus>
<clus scale="  123.493">  1  7  2 -1</clus>
<clus scale="  403.034">  2  9  1 -1</clus>
<clus scale="  403.034">  2  5  1 -1</clus>
</clustering>
</event>
<event>
 9    1  0.5981539E-005  0.9139519E+02  0.7546771E-02  0.1301802E+00
          3   -1    0    0  502    0 -0.00000000000E+00  0.00000000000E+00  0.10186253470E+03  0.10186253470E+03  0.00000000000E+00 0. -1.
         21   -1    0    0  501  502  0.00000000000E+00 -0.00000000000E+00 -0.23156563919E+03  0.23156563919E+03  0.00000000000E+00 0. -1.
         23    2    1    2    0    0  0.28940512518E+02  0.16448031831E+02  0.53154677175E+02  0.10146583069E+03  0.79760918223E+02 0.  0.
        -24    2    1    2    0    0 -0.50392243245E+02 -0.88964910860E+01 -0.80280635009E+02  0.12689439598E+03  0.83896851198E+02 0.  0.
         11    1    4    4    0    0 -0.73806089548E+02 -0.58067037050E+01 -0.66712505020E+02  0.99657488371E+02  0.00000000000E+00 0. -1.
        -12    1    4    4    0    0  0.23413846303E+02 -0.30897873810E+01 -0.13568129989E+02  0.27236907610E+02  0.00000000000E+00 0.  1.
        -11    1    3    3    0    0  0.12219757192E+02 -0.19677055395E+02 -0.11251500717E+02  0.25750829952E+02  0.00000000000E+00 0.  1.
         11    1    3    3    0    0  0.16720755326E+02  0.36125087227E+02  0.64406177892E+02  0.75715000736E+02  0.00000000000E+00 0. -1.
          4    1    1    2  501    0  0.21451730727E+02 -0.75515407451E+01 -0.10257714665E+03  0.10506794723E+03  0.00000000000E+00 0. -1.
<scales pt_clust_5="13000.00000" pt_clust_6="13000.00000" pt_clust_7="13000.00000" pt_clust_8="13000.00000" pt_clust_9="22.74209"></scales>
<clustering>
<clus scale="   22.742">  2  9  1 -1</clus>
<clus scale="   79.761">  7  8 -1 -1</clus>
<clus scale="   83.897">  5  6 -1 -1</clus>
<clus scale="   87.614">  1  7  2 -1</clus>
<clus scale="   22.742">  2  5  1 -1</clus>
</clustering>
</event>
<event>
 9    1  0.5981539E-005  0.2012227E+03  0.7546771E-02  0.1182767E+00
          3   -1    0    0  502    0 -0.00000000000E+00  0.00000000000E+00  0.30448729855E+03  0.30448729855E+03  0.00000000000E+00 0. -1.
         21   -1    0    0  501  502  0.00000000000E+00 -0.00000000000E+00 -0.39877060721E+03  0.39877060721E+03  0.00000000000E+00 0. -1.
         23    2    1    2    0    0 -0.17316154132E+02  0.30470037042E+01  0.69622159649E+00  0.91787187341E+02  0.90084791224E+02 0.  0.
        -24    2    1    2    0    0  0.11689072893E+03  0.15115307595E+03  0.18414887963E+03  0.27739673003E+03  0.80792580640E+02 0.  0.
         11    1    4    4    0    0  0.12266578519E+03  0.11692057947E+03  0.13225893319E+03  0.21496451374E+03  0.00000000000E+00 0. -1.
        -12    1    4    4    0    0 -0.57750562582E+01  0.34232496477E+02  0.51889946433E+02  0.62432216289E+02  0.00000000000E+00 0.  1.
        -11    1    3    3    0    0 -0.38592852061E+02  0.57286010105E+01  0.34283019332E+02  0.51937948691E+02  0.00000000000E+00 0.  1.
         11    1    3    3    0    0  0.21276697928E+02 -0.26815973064E+01 -0.33586797735E+02  0.39849238650E+02  0.00000000000E+00 0. -1.
          4    1    1    2  501    0 -0.99574574798E+02 -0.15420007965E+03 -0.27912840989E+03  0.33407398839E+03  0.00000000000E+00 0. -1.
<scales pt_clust_5="13000.00000" pt_clust_6="13000.00000" pt_clust_7="13000.00000" pt_clust_8="13000.00000" pt_clust_9="184.29094"></scales>
<clustering>
<clus scale="   80.793">  5  6 -1 -1</clus>
<clus scale="   90.085">  7  8 -1 -1</clus>
<clus scale="   91.785">  1  7  2 -1</clus>
<clus scale="  184.291">  2  9  1 -1</clus>
<clus scale="  184.291">  2  5  1 -1</clus>
</clustering>
</event>
<event>
 9    1  0.5981539E-005  0.1836882E+03  0.7546771E-02  0.1164373E+00
          1   -1    0    0  502    0 -0.00000000000E+00  0.00000000000E+00  0.10225567167E+04  0.10225567167E+04  0.00000000000E+00 0. -1.
         21   -1    0    0  501  502  0.00000000000E+00 -0.00000000000E+00 -0.59488259785E+02  0.59488259785E+02  0.00000000000E+00 0. -1.
         23    2    1    2    0    0 -0.15789259971E+03  0.95955962684E+02  0.58743770691E+03  0.62112612333E+03  0.81098592824E+02 0.  0.
        -24    2    1    2    0    0  0.91452495513E+02 -0.11579366545E+03  0.34775884354E+03  0.38618823652E+03  0.80208533673E+02 0.  0.
         13    1    4    4    0    0  0.64637595214E+02 -0.11209537990E+03  0.21694794730E+03  0.25260602674E+03  0.00000000000E+00 0. -1.
        -14    1    4    4    0    0  0.26814900299E+02 -0.36982855502E+01  0.13081089624E+03  0.13358220978E+03  0.00000000000E+00 0.  1.
        -11    1    3    3    0    0 -0.42316917070E+02  0.17197634834E+02  0.59699525501E+02  0.75169897294E+02  0.00000000000E+00 0.  1.
         11    1    3    3    0    0 -0.11557568264E+03  0.78758327850E+02  0.52773818141E+03  0.54595622603E+03  0.00000000000E+00 0. -1.
          2    1    1    2  501    0  0.66440104197E+02  0.19837702766E+02  0.27871906504E+02  0.74730616677E+02  0.00000000000E+00 0. -1.
<scales pt_clust_5="13000.00000" pt_clust_6="13000.00000" pt_clust_7="13000.00000" pt_clust_8="13000.00000" pt_clust_9="69.33846"></scales>
<clustering>
<clus scale="   69.338">  2  9  1 -1</clus>
<clus scale="   80.209">  5  6 -1 -1</clus>
<clus scale="   81.099">  7  8 -1 -1</clus>
<clus scale="  183.297">  2  5  1 -1</clus>
<clus scale="   69.338">  2  5  1 -1</clus>
</clustering>
</event>
<event>
 9    1  0.5981539E-005  0.9322863E+02  0.7546771E-02  0.1302368E+00
         21   -1    0    0  501  502  0.00000000000E+00  0.00000000000E+00  0.21037017774E+03  0.21037017774E+03  0.00000000000E+00 0.  1.
         -2   -1    0    0    0  501 -0.00000000000E+00 -0.00000000000E+00 -0.83158110932E+02  0.83158110932E+02  0.00000000000E+00 0.  1.
        -24    2    1    2    0    0  0.87538317297E+01  0.18528463049E+02  0.33170621205E+02  0.88976383696E+02  0.79978579830E+02 0.  0.
         23    2    1    2    0    0 -0.32600703105E+02  0.34221576306E+02  0.10320094679E+03  0.14594186839E+03  0.91731518054E+02 0.  0.
         11    1    3    3    0    0 -0.12513205802E+01  0.21894489907E+02  0.57993881671E+02  0.62001812899E+02  0.00000000000E+00 0. -1.
        -12    1    3    3    0    0  0.10005152310E+02 -0.33660268572E+01 -0.24823260466E+02  0.26974570797E+02  0.00000000000E+00 0.  1.
        -11    1    4    4    0    0 -0.16655901728E+02  0.63432061899E+02  0.86942130114E+02  0.10890353313E+03  0.00000000000E+00 0.  1.
         11    1    4    4    0    0 -0.15944801377E+02 -0.29210485593E+02  0.16258816671E+02  0.37038335263E+02  0.00000000000E+00 0. -1.
         -1    1    1    2    0  502  0.23846871375E+02 -0.52750039355E+02 -0.91595011826E+01  0.58610036583E+02  0.00000000000E+00 0.  1.
<scales pt_clust_5="13000.00000" pt_clust_6="13000.00000" pt_clust_7="13000.00000" pt_clust_8="13000.00000" pt_clust_9="57.88992"></scales>
<clustering>
<clus scale="   57.890">  1  9  2 -1</clus>
<clus scale="   79.979">  5  6 -1 -1</clus>
<clus scale="   81.691">  2  5  1 -1</clus>
<clus scale="   91.732">  7  8 -1 -1</clus>
<clus scale="   57.890">  1  5  2 -1</clus>
</clustering>
</event>
<event>
 9    1  0.5981539E-005  0.1021731E+03  0.7546771E-02  0.1286589E+00
         21   -1    0    0  501  502  0.00000000000E+00  0.00000000000E+00  0.68052202348E+03  0.68052202348E+03  0.00000000000E+00 0.  1.
          3   -1    0    0  502    0 -0.00000000000E+00 -0.00000000000E+00 -0.31529435759E+02  0.31529435759E+02  0.00000000000E+00 0. -1.
         23    2    1    2    0    0 -0.31260787022E+02 -0.26098506933E+02  0.74986825569E+02  0.12809049993E+03  0.95528965737E+02 0.  0.
        -24    2    1    2    0    0  0.51464321353E+01  0.23592768904E+02  0.37040416978E+03  0.37867616525E+03  0.74921856826E+02 0.  0.
         11    1    4    4    0    0 -0.16423373923E+02 -0.18055619813E+02  0.60419231220E+02  0.65162996548E+02  0.00000000000E+00 0. -1.
        -12    1    4    4    0    0  0.21569806058E+02  0.41648388718E+02  0.30998493856E+03  0.31351316870E+03  0.00000000000E+00 0.  1.
        -13    1    3    3    0    0 -0.41387534440E+02 -0.57328998749E+02  0.55717510003E+02  0.90022125201E+02  0.00000000000E+00 0. -1.
         13    1    3    3    0    0  0.10126747419E+02  0.31230491817E+02  0.19269315566E+02  0.38068374733E+02  0.00000000000E+00 0.  1.
          4    1    1    2  501    0  0.26114354887E+02  0.25057380283E+01  0.20360159238E+03  0.20528479406E+03  0.00000000000E+00 0. -1.
<scales pt_clust_5="13000.00000" pt_clust_6="13000.00000" pt_clust_7="13000.00000" pt_clust_8="13000.00000" pt_clust_9="26.23430"></scales>
<clustering>
<clus scale="   26.234">  1  9  2 -1</clus>
<clus scale="   74.922">  5  6 -1 -1</clus>
<clus scale="   83.228">  1  5  2 -1</clus>
<clus scale="   95.529">  7  8 -1 -1</clus>
<clus scale="   26.234">  1  5  2 -1</clus>
</clustering>
</event>
<event>
 9    1  0.5981539E-005  0.1367531E+03  0.7546771E-02  0.1244026E+00
         21   -1    0    0  501  502  0.00000000000E+00  0.00000000000E+00  0.38007025983E+02  0.38007025983E+02  0.00000000000E+00 0. -1.
          1   -1    0    0  502    0 -0.00000000000E+00 -0.00000000000E+00 -0.69369934735E+03  0.69369934735E+03  0.00000000000E+00 0. -1.
        -24    2    1    2    0    0 -0.23254947758E+02 -0.14457710220E+02 -0.28384489311E+03  0.29478790171E+03  0.74713892066E+02 0.  0.
         23    2    1    2    0    0  0.82815143458E+02  0.67641036452E+02 -0.21531043636E+03  0.26119222733E+03  0.10212315025E+03 0.  0.
         11    1    3    3    0    0 -0.46039175767E+02  0.89375681425E+01 -0.17043472537E+03  0.17676957159E+03  0.00000000000E+00 0. -1.
        -12    1    3    3    0    0  0.22784228009E+02 -0.23395278362E+02 -0.11341016774E+03  0.11801833011E+03  0.00000000000E+00 0.  1.
        -13    1    4    4    0    0 -0.68855226673E+01  0.46236519087E+02 -0.11899023293E+03  0.12784326987E+03  0.00000000000E+00 0.  1.
         13    1    4    4    0    0  0.89700666125E+02  0.21404517365E+02 -0.96320203434E+02  0.13334895746E+03  0.00000000000E+00 0. -1.
          2    1    1    2  501    0 -0.59560195700E+02 -0.53183326233E+02 -0.15653699189E+03  0.17572624429E+03  0.00000000000E+00 0. -1.
<scales pt_clust_5="13000.00000" pt_clust_6="13000.00000" pt_clust_7="13000.00000" pt_clust_8="13000.00000" pt_clust_9="90.95203"></scales>
<clustering>
<clus scale="   74.714">  5  6 -1 -1</clus>
<clus scale="   79.574">  2  5  1 -1</clus>
<clus scale="   90.952">  1  9  2 -1</clus>
<clus scale="  102.123">  7  8 -1 -1</clus>
<clus scale="   90.952">  1  5  2 -1</clus>
</clustering>
</event>
<event>
 9    1  0.5981539E-005  0.1745803E+03  0.7546771E-02  0.1181715E+00
         21   -1    0    0  501  502  0.00000000000E+00  0.00000000000E+00  0.70885594726E+02  0.70885594726E+02  0.00000000000E+00 0. -1.
          1   -1    0    0  502    0 -0.00000000000E+00 -0.00000000000E+00 -0.20418341993E+04  0.20418341993E+04  0.00000000000E+00 0. -1.
        -24    2    1    2    0    0 -0.10741385618E+03 -0.30731170190E+02 -0.48169210055E+03  0.50272486406E+03  0.90680030260E+02 0.  0.
         23    2    1    2    0    0 -0.13567757087E+03  0.31671355076E+02 -0.90023436100E+02  0.18980215987E+03  0.92245123855E+02 0.  0.
         11    1    3    3    0    0 -0.12306334847E+03 -0.33874394903E+02 -0.41733843173E+03  0.43642116008E+03  0.00000000000E+00 0. -1.
        -12    1    3    3    0    0  0.15649492288E+02  0.31432247135E+01 -0.64353668824E+02  0.66303703981E+02  0.00000000000E+00 0.  1.
        -11    1    4    4    0    0 -0.11060794002E+03  0.21005670777E+02 -0.19581213271E+02  0.11427501263E+03  0.00000000000E+00 0. -1.
         11    1    4    4    0    0 -0.25069630857E+02  0.10665684299E+02 -0.70442222829E+02  0.75527147239E+02  0.00000000000E+00 0.  1.
          2    1    1    2  501    0  0.24309142706E+03 -0.94018488607E+00 -0.13992330679E+04  0.14201927701E+04  0.00000000000E+00 0. -1.
<scales pt_clust_5="13000.00000" pt_clust_6="13000.00000" pt_clust_7="13000.00000" pt_clust_8="13000.00000" pt_clust_9="148.21995"></scales>
<clustering>
<clus scale="   90.680">  5  6 -1 -1</clus>
<clus scale="   92.245">  7  8 -1 -1</clus>
<clus scale="  143.892">  2  5  1 -1</clus>
<clus scale="  148.220">  1  9  2 -1</clus>
<clus scale="  148.220">  1  5  2 -1</clus>
</clustering>
</event>
<event>
 9    1  0.5981539E-005  0.1446314E+03  0.7546771E-02  0.1220034E+00
          3   -1    0    0  502    0 -0.00000000000E+00  0.00000000000E+00  0.62764810824E+03  0.62764810824E+03  0.00000000000E+00 0. -1.
         21   -1    0    0  501  502  0.00000000000E+00 -0.00000000000E+00 -0.14239798266E+03  0.14239798266E+03  0.00000000000E+00 0. -1.
         23    2    1    2    0    0  0.62053367714E+02  0.90382196875E+01  0.10106421936E+03  0.14953734219E+03  0.90637356617E+02 0.  0.
        -24    2    1    2    0    0  0.30584662916E+02  0.82710556346E+02  0.45735053354E+03  0.47100053719E+03  0.69968119683E+02 0.  0.
         13    1    4    4    0    0  0.21566045509E+02  0.74490722016E+02  0.45025590095E+03  0.45688547616E+03  0.00000000000E+00 0. -1.
        -14    1    4    4    0    0  0.90186174068E+01  0.82198343304E+01  0.70946325827E+01  0.14115061028E+02  0.00000000000E+00 0.  1.
        -11    1    3    3    0    0  0.65816728771E+02 -0.18112201097E+02  0.10126702444E+03  0.12212658946E+03  0.00000000000E+00 0. -1.
         11    1    3    3    0    0 -0.37633610573E+01  0.27150420785E+02 -0.20280507931E+00  0.27410752728E+02  0.00000000000E+00 0.  1.
          4    1    1    2  501    0 -0.92638030629E+02 -0.91748776034E+02 -0.73164627319E+02  0.14950821152E+03  0.00000000000E+00 0. -1.
<scales pt_clust_5="13000.00000" pt_clust_6="13000.00000" pt_clust_7="13000.00000" pt_clust_8="13000.00000" pt_clust_9="126.58082"></scales>
<clustering>
<clus scale="   69.968">  5  6 -1 -1</clus>
<clus scale="   90.637">  7  8 -1 -1</clus>
<clus scale="  110.215">  1  7  2 -1</clus>
<clus scale="  126.581">  2  9  1 -1</clus>
<clus scale="  126.581">  2  5  1 -1</clus>
</clustering>
</event>
<event>
 9    1  0.5981539E-005  0.1081054E+03  0.7546771E-02  0.1267738E+00
         21   -1    0    0  501  502  0.00000000000E+00  0.00000000000E+00  0.83159444254E+02  0.83159444254E+02  0.00000000000E+00 0.  1.
         -2   -1    0    0    0  501 -0.00000000000E+00 -0.00000000000E+00 -0.33986271616E+03  0.33986271616E+03  0.00000000000E+00 0.  1.
         23    2    1    2    0    0 -0.71704909251E+02 -0.13704550435E+02 -0.11236671720E+03  0.16157208821E+03  0.90276529838E+02 0.  0.
        -24    2    1    2    0    0  0.37897166869E+01  0.76630680087E+02 -0.32851992000E+02  0.11653292727E+03  0.81326789419E+02 0.  0.
         11    1    4    4    0    0  0.84936011853E+01  0.29035934057E+02  0.26563558298E+02  0.40259773436E+02  0.00000000000E+00 0. -1.
        -12    1    4    4    0    0 -0.47038844984E+01  0.47594746030E+02 -0.59415550298E+02  0.76273153837E+02  0.00000000000E+00 0.  1.
        -13    1    3    3    0    0  0.88676503897E+01  0.23197620876E+02 -0.11694316551E+02  0.27450352955E+02  0.00000000000E+00 0. -1.
         13    1    3    3    0    0 -0.80572559640E+02 -0.36902171311E+02 -0.10067240065E+03  0.13412173525E+03  0.00000000000E+00 0.  1.
         -1    1    1    2    0  502  0.67915192564E+02 -0.62926129652E+02 -0.11148456270E+03  0.14491714493E+03  0.00000000000E+00 0.  1.
<scales pt_clust_5="13000.00000" pt_clust_6="13000.00000" pt_clust_7="13000.00000" pt_clust_8="13000.00000" pt_clust_9="92.58607"></scales>
<clustering>
<clus scale="   81.327">  5  6 -1 -1</clus>
<clus scale="   90.277">  7  8 -1 -1</clus>
<clus scale="   92.586">  1  9  2 -1</clus>
<clus scale="  100.752">  1  5  2 -1</clus>
<clus scale="   92.586">  1  5  2 -1</clus>
</clustering>
</event>
<event>
 9    1  0.5981539E-005  0.9350685E+02  0.7546771E-02  0.1299244E+00
         21   -1    0    0  501  502  0.00000000000E+00  0.00000000000E+00  0.35623273726E+03  0.35623273726E+03  0.00000000000E+00 0.  1.
         -2   -1    0    0    0  501 -0.00000000000E+00 -0.00000000000E+00 -0.13646920388E+03  0.13646920388E+03  0.00000000000E+00 0.  1.
         23    2    1    2    0    0 -0.14785840613E+02 -0.52364520401E+02 -0.50346922791E+02  0.11649818720E+03  0.89868520108E+02 0.  0.
        -24    2    1    2    0    0  0.58228044985E+01 -0.55804646191E+01 -0.16367967077E+02  0.83786510448E+02  0.81775438545E+02 0.  0.
         13    1    4    4    0    0  0.35612881062E+02  0.89487934864E+01 -0.30519711971E+02  0.47747366641E+02  0.00000000000E+00 0. -1.
        -14    1    4    4    0    0 -0.29790076564E+02 -0.14529258106E+02  0.14151744894E+02  0.36039143806E+02  0.00000000000E+00 0.  1.
        -13    1    3    3    0    0  0.16895329875E+02 -0.40727239065E+02 -0.65936539273E+02  0.79320787848E+02  0.00000000000E+00 0.  1.
         13    1    3    3    0    0 -0.31681170488E+02 -0.11637281335E+02  0.15589616482E+02  0.37177399350E+02  0.00000000000E+00 0. -1.
         -1    1    1    2    0  502  0.89630361148E+01  0.57944985020E+02  0.28647842324E+03  0.29241724349E+03  0.00000000000E+00 0.  1.
<scales pt_clust_5="13000.00000" pt_clust_6="13000.00000" pt_clust_7="13000.00000" pt_clust_8="13000.00000" pt_clust_9="58.63410"></scales>
<clustering>
<clus scale="   58.634">  1  9  2 -1</clus>
<clus scale="   81.775">  5  6 -1 -1</clus>
<clus scale="   85.758">  1  5  2 -1</clus>
<clus scale="   89.869">  7  8 -1 -1</clus>
<clus scale="   58.634">  1  5  2 -1</clus>
</clustering>
</event>
<event>
 9    1  0.5981539E-005  0.2016974E+03  0.7546771E-02  0.1182209E+00
         -2   -1    0    0    0  501 -0.00000000000E+00  0.00000000000E+00  0.34260600306E+03  0.34260600306E+03  0.00000000000E+00 0.  1.
         21   -1    0    0  501  502  0.00000000000E+00 -0.00000000000E+00 -0.16972603387E+03  0.16972603387E+03  0.00000000000E+00 0. -1.
         23    2    1    2    0    0  0.12891851079E+02  0.10959076788E+02  0.40678688323E+02  0.10085066182E+03  0.90718240272E+02 0.  0.
        -24    2    1    2    0    0  0.19119142805E+02 -0.18991195606E+03  0.86826072878E+02  0.22411076315E+03  0.79087132652E+02 0.  0.
         11    1    4    4    0    0 -0.30253345940E+02 -0.59343879502E+02  0.21536147182E+02  0.70005475574E+02  0.00000000000E+00 0. -1.
        -12    1    4    4    0    0  0.49372488744E+02 -0.13056807656E+03  0.65289925696E+02  0.15410528757E+03  0.00000000000E+00 0.  1.
        -11    1    3    3    0    0  0.24412226919E+02 -0.19120327266E+02 -0.16573285577E+02  0.35159885277E+02  0.00000000000E+00 0. -1.
         11    1    3    3    0    0 -0.11520375840E+02  0.30079404054E+02  0.57251973900E+02  0.65690776546E+02  0.00000000000E+00 0.  1.
         -1    1    1    2    0  502 -0.32010993884E+02  0.17895287927E+03  0.45375207989E+02  0.18737061197E+03  0.00000000000E+00 0.  1.
<scales pt_clust_5="13000.00000" pt_clust_6="13000.00000" pt_clust_7="13000.00000" pt_clust_8="13000.00000" pt_clust_9="185.54537"></scales>
<clustering>
<clus scale="   79.087">  5  6 -1 -1</clus>
<clus scale="   90.718">  7  8 -1 -1</clus>
<clus scale="   92.283">  1  7  2 -1</clus>
<clus scale="  185.545">  2  9  1 -1</clus>
<clus scale="  185.545">  2  5  1 -1</clus>
</clustering>
</event>
<event>
 9    1  0.5981539E-005  0.1979627E+03  0.7546771E-02  0.1171522E+00
         -2   -1    0    0    0  501 -0.00000000000E+00  0.00000000000E+00  0.26142197701E+03  0.26142197701E+03  0.00000000000E+00 0.  1.
         21   -1    0    0  501  502  0.00000000000E+00 -0.00000000000E+00 -0.46350455568E+03  0.46350455568E+03  0.00000000000E+00 0.  1.
        -24    2    1    2    0    0 -0.71245355242E+02  0.61087106877E+02  0.90470179206E+02  0.15371610447E+03  0.81463195233E+02 0.  0.
         23    2    1    2    0    0  0.13096313087E+02 -0.18769515953E+03 -0.35995556843E+03  0.41643947173E+03  0.91939306304E+02 0.  0.
         11    1    3    3    0    0 -0.36085983046E+02  0.66379635696E+02  0.25658728738E+02  0.79792384148E+02  0.00000000000E+00 0. -1.
        -12    1    3    3    0    0 -0.35159372196E+02 -0.52925288192E+01  0.64811450467E+02  0.73923720322E+02  0.00000000000E+00 0.  1.
        -11    1    4    4    0    0 -0.23219818989E+02 -0.14041699758E+02 -0.22743388985E+02  0.35406088014E+02  0.00000000000E+00 0. -1.
         11    1    4    4    0    0  0.36316132076E+02 -0.17365345977E+03 -0.33721217944E+03  0.38103338371E+03  0.00000000000E+00 0.  1.
         -1    1    1    2    0  502  0.58149042155E+02  0.12660805265E+03  0.67402810554E+02  0.15477095648E+03  0.00000000000E+00 0.  1.
<scales pt_clust_5="13000.00000" pt_clust_6="13000.00000" pt_clust_7="13000.00000" pt_clust_8="13000.00000" pt_clust_9="175.31805"></scales>
<clustering>
<clus scale="   81.463">  5  6 -1 -1</clus>
<clus scale="   91.939">  7  8 -1 -1</clus>
<clus scale="  124.273">  1  5  2 -1</clus>
<clus scale="  175.318">  2  9  1 -1</clus>
<clus scale="  175.318">  2  5  1 -1</clus>
</clustering>
</event>
<event>
 9    1  0.5981539E-005  0.2383147E+03  0.7546771E-02  0.1121659E+00
         -2   -1    0    0    0  501 -0.00000000000E+00  0.00000000000E+00  0.21324199951E+04  0.21324199951E+04  0.00000000000E+00 0.  1.
         21   -1    0    0  501  502  0.00000000000E+00 -0.00000000000E+00 -0.11868626796E+03  0.11868626796E+03  0.00000000000E+00 0.  1.
        -24    2    1    2    0    0  0.81127483326E+02  0.20680758594E+03  0.17159088793E+04  0.17320545841E+04  0.79490591658E+02 0.  0.
         23    2    1    2    0    0 -0.93179298168E+02 -0.19051698899E+03  0.37435812910E+03  0.43988114829E+03  0.91500333868E+02 0.  0.
         11    1    3    3    0    0  0.20246368613E+02  0.98704072077E+02  0.51577377038E+03  0.52552354039E+03  0.00000000000E+00 0. -1.
        -12    1    3    3    0    0  0.60881114713E+02  0.10810351387E+03  0.12001351089E+04  0.12065310437E+04  0.00000000000E+00 0.  1.
        -13    1    4    4    0    0 -0.13642578480E+02 -0.30949791610E+02  0.14759508337E+03  0.15142099651E+03  0.00000000000E+00 0.  1.
         13    1    4    4    0    0 -0.79536719688E+02 -0.15956719738E+03  0.22676304573E+03  0.28846015178E+03  0.00000000000E+00 0. -1.
         -1    1    1    2    0  502  0.12051814842E+02 -0.16290596956E+02 -0.76533281233E+02  0.79170530669E+02  0.00000000000E+00 0.  1.
<scales pt_clust_5="13000.00000" pt_clust_6="13000.00000" pt_clust_7="13000.00000" pt_clust_8="13000.00000" pt_clust_9="20.26400"></scales>
<clustering>
<clus scale="   20.264">  2  9  1 -1</clus>
<clus scale="   79.491">  5  6 -1 -1</clus>
<clus scale="   91.500">  7  8 -1 -1</clus>
<clus scale="  233.967">  1  5  2 -1</clus>
<clus scale="   20.264">  2  5  1 -1</clus>
</clustering>
</event>
<event>
 9    1  0.5981539E-005  0.1449287E+03  0.7546771E-02  0.1209958E+00
         21   -1    0    0  501  502  0.00000000000E+00  0.00000000000E+00  0.69302267326E+02  0.69302267326E+02  0.00000000000E+00 0.  1.
         -2   -1    0    0    0  501 -0.00000000000E+00 -0.00000000000E+00 -0.39914571938E+03  0.39914571938E+03  0.00000000000E+00 0.  1.
         23    2    1    2    0    0 -0.26269558517E+02 -0.94594707840E+02 -0.15039140500E+03  0.20075701914E+03  0.89708180119E+02 0.  0.
        -24    2    1    2    0    0 -0.13705172192E+01  0.10998868432E+03 -0.97000665547E+02  0.17937800923E+03  0.10328577870E+03 0.  0.
         11    1    4    4    0    0  0.41505293313E+02  0.18938368064E+02 -0.10836440921E+02  0.46891146390E+02  0.00000000000E+00 0. -1.
        -12    1    4    4    0    0 -0.42875810532E+02  0.91050316254E+02 -0.86164224626E+02  0.13248686284E+03  0.00000000000E+00 0.  1.
        -11    1    3    3    0    0 -0.43077144652E+02 -0.78489645728E+02 -0.60886950832E+02  0.10827504634E+03  0.00000000000E+00 0.  1.
         11    1    3    3    0    0  0.16807586135E+02 -0.16105062112E+02 -0.89504454173E+02  0.92481972806E+02  0.00000000000E+00 0. -1.
         -1    1    1    2    0  502  0.27640075736E+02 -0.15393976478E+02 -0.82451381505E+02  0.88312958339E+02  0.00000000000E+00 0.  1.
<scales pt_clust_5="13000.00000" pt_clust_6="13000.00000" pt_clust_7="13000.00000" pt_clust_8="13000.00000" pt_clust_9="31.63778"></scales>
<clustering>
<clus scale="   31.638">  1  9  2 -1</clus>
<clus scale="   89.708">  7  8 -1 -1</clus>
<clus scale="  103.286">  5  6 -1 -1</clus>
<clus scale="  135.587">  2  7  1 -1</clus>
<clus scale="   31.638">  1  5  2 -1</clus>
</clustering>
</event>
<event>
 9    1  0.5981539E-005  0.1466492E+03  0.7546771E-02  0.1218303E+00
         -2   -1    0    0    0  501 -0.00000000000E+00  0.00000000000E+00  0.58968001723E+02  0.58968001723E+02  0.00000000000E+00 0.  1.
         21   -1    0    0  501  502  0.00000000000E+00 -0.00000000000E+00 -0.80608568194E+03  0.80608568194E+03  0.00000000000E+00 0. -1.
         23    2    1    2    0    0 -0.14478463708E+02 -0.41337091194E+02 -0.43769814653E+03  0.45122270261E+03  0.10051805240E+03 0.  0.
        -24    2    1    2    0    0 -0.80765541654E+02  0.10890378970E+03 -0.16577807949E+03  0.22871062380E+03  0.80268734078E+02 0.  0.
         13    1    4    4    0    0 -0.22855644873E+02  0.32327369477E+02 -0.11172515234E+03  0.11853248072E+03  0.00000000000E+00 0. -1.
        -14    1    4    4    0    0 -0.57909896781E+02  0.76576420223E+02 -0.54052927147E+02  0.11017814308E+03  0.00000000000E+00 0.  1.
        -13    1    3    3    0    0  0.34174752504E+02 -0.41012046658E+02 -0.14514107008E+03  0.15464744390E+03  0.00000000000E+00 0.  1.
         13    1    3    3    0    0 -0.48653216213E+02 -0.32504453598E+00 -0.29255707644E+03  0.29657525871E+03  0.00000000000E+00 0. -1.
         -1    1    1    2    0  502  0.95244005362E+02 -0.67566698505E+02 -0.14364145420E+03  0.18512035725E+03  0.00000000000E+00 0.  1.
<scales pt_clust_5="13000.00000" pt_clust_6="13000.00000" pt_clust_7="13000.00000" pt_clust_8="13000.00000" pt_clust_9="122.73108"></scales>
<clustering>
<clus scale="   80.269">  5  6 -1 -1</clus>
<clus scale="  100.518">  7  8 -1 -1</clus>
<clus scale="  109.646">  1  7  2 -1</clus>
<clus scale="  122.731">  2  9  1 -1</clus>
<clus scale="  122.731">  2  5  1 -1</clus>
</clustering>
</event>
<event>
 9    1  0.5981539E-005  0.1133954E+03  0.7546771E-02  0.1260528E+00
          1   -1    0    0  502    0 -0.00000000000E+00  0.00000000000E+00  0.77194038291E+02  0.77194038291E+02  0.00000000000E+00 0. -1.
         21   -1    0    0  501  502  0.00000000000E+00 -0.00000000000E+00 -0.34125299195E+03  0.34125299195E+03  0.00000000000E+00 0.  1.
        -24    2    1    2    0    0 -0.55472649744E+02 -0.29044450657E+02  0.98249981959E+01  0.10213815248E+03  0.80092924894E+02 0.  0.
         23    2    1    2    0    0  0.38320974703E+02  0.42387848976E+02 -0.13217799551E+03  0.17294638512E+03  0.95782058780E+02 0.  0.
         11    1    3    3    0    0 -0.32820616367E+02 -0.55260521491E+02 -0.49712985582E+01  0.64464190862E+02  0.00000000000E+00 0. -1.
        -12    1    3    3    0    0 -0.22652033376E+02  0.26216070833E+02  0.14796296754E+02  0.37673961614E+02  0.00000000000E+00 0.  1.
        -11    1    4    4    0    0  0.21238039633E+02 -0.23893846536E+02 -0.11063769297E+02  0.33828644974E+02  0.00000000000E+00 0. -1.
         11    1    4    4    0    0  0.17082935070E+02  0.66281695512E+02 -0.12111422622E+03  0.13911774014E+03  0.00000000000E+00 0.  1.
          2    1    1    2  501    0  0.17151675041E+02 -0.13343398319E+02 -0.14170595634E+03  0.14336249265E+03  0.00000000000E+00 0. -1.
<scales pt_clust_5="13000.00000" pt_clust_6="13000.00000" pt_clust_7="13000.00000" pt_clust_8="13000.00000" pt_clust_9="21.73077"></scales>
<clustering>
<clus scale="   21.731">  2  9  1 -1</clus>
<clus scale="   80.093">  5  6 -1 -1</clus>
<clus scale="   95.782">  7  8 -1 -1</clus>
<clus scale="  100.495">  1  5  2 -1</clus>
<clus scale="   21.731">  2  5  1 -1</clus>
</clustering>
</event>
<event>
 9    1  0.8445159E-005  0.1072207E+03  0.7546771E-02  0.1270798E+00
         21   -1    0    0  501  502  0.00000000000E+00  0.00000000000E+00  0.37667211143E+03  0.37667211143E+03  0.00000000000E+00 0. -1.
         -2   -1    0    0    0  501 -0.00000000000E+00 -0.00000000000E+00 -0.25316466778E+03  0.25316466778E+03  0.00000000000E+00 0.  1.
         23    2    1    2    0    0  0.50452238328E+02 -0.21812361318E+02 -0.22884193370E+03  0.25253613944E+03  0.91567808997E+02 0.  0.
        -24    2    1    2    0    0 -0.73342997391E+02  0.18519873304E+02  0.26389910288E+03  0.28587701928E+03  0.79754327008E+02 0.  0.
         13    1    4    4    0    0 -0.78305230528E+02 -0.75071661013E+01  0.22849052066E+03  0.24165261162E+03  0.00000000000E+00 0. -1.
        -14    1    4    4    0    0  0.49622331365E+01  0.26027039405E+02  0.35408582222E+02  0.44224407660E+02  0.00000000000E+00 0.  1.
        -13    1    3    3    0    0  0.25840208705E+02  0.27116817002E+02 -0.16122840223E+03  0.16552231220E+03  0.00000000000E+00 0.  1.
         13    1    3    3    0    0  0.24612029623E+02 -0.48929178320E+02 -0.67613531478E+02  0.87013827246E+02  0.00000000000E+00 0. -1.
         -1    1    1    2    0  502  0.22890759064E+02  0.32924880137E+01  0.88450274482E+02  0.91423620491E+02  0.00000000000E+00 0.  1.
<scales pt_clust_5="13000.00000" pt_clust_6="13000.00000" pt_clust_7="13000.00000" pt_clust_8="13000.00000" pt_clust_9="23.12633"></scales>
<clustering>
<clus scale="   23.126">  1  9  2 -1</clus>
<clus scale="   79.754">  5  6 -1 -1</clus>
<clus scale="   91.568">  7  8 -1 -1</clus>
<clus scale="   97.326">  1  5  2 -1</clus>
<clus scale="   23.126">  1  5  2 -1</clus>
</clustering>
</event>
<event>
 9    1  0.5981539E-005  0.1844352E+03  0.7546771E-02  0.1164084E+00
         21   -1    0    0  501  502  0.00000000000E+00  0.00000000000E+00  0.40062498895E+02  0.40062498895E+02  0.00000000000E+00 0. -1.
          1   -1    0    0  502    0 -0.00000000000E+00 -0.00000000000E+00 -0.15124359807E+04  0.15124359807E+04  0.00000000000E+00 0. -1.
         23    2    1    2    0    0 -0.88815652934E+02 -0.10226685260E+03 -0.37570562428E+03  0.40722316198E+03  0.79556635117E+02 0.  0.
        -24    2    1    2    0    0  0.19003020088E+03  0.80058623290E+02 -0.66435218229E+03  0.70071437329E+03  0.84356092894E+02 0.  0.
         13    1    4    4    0    0  0.18796898763E+03  0.91652269788E+02 -0.64507157169E+03  0.67812226882E+03  0.00000000000E+00 0. -1.
        -14    1    4    4    0    0  0.20612132562E+01 -0.11593646498E+02 -0.19280610602E+02  0.22592104470E+02  0.00000000000E+00 0.  1.
        -13    1    3    3    0    0  0.65044047730E+01 -0.28837351168E+02 -0.13402661238E+03  0.13724807076E+03  0.00000000000E+00 0.  1.
         13    1    3    3    0    0 -0.95320057707E+02 -0.73429501434E+02 -0.24167901191E+03  0.26997509122E+03  0.00000000000E+00 0. -1.
          2    1    1    2  501    0 -0.10121454795E+03  0.22208229312E+02 -0.43231567521E+03  0.44456094430E+03  0.00000000000E+00 0. -1.
<scales pt_clust_5="13000.00000" pt_clust_6="13000.00000" pt_clust_7="13000.00000" pt_clust_8="13000.00000" pt_clust_9="103.62240"></scales>
<clustering>
<clus scale="   79.557">  7  8 -1 -1</clus>
<clus scale="   84.356">  5  6 -1 -1</clus>
<clus scale="  103.622">  1  9  2 -1</clus>
<clus scale="  182.290">  2  7  1 -1</clus>
<clus scale="  103.622">  1  5  2 -1</clus>
</clustering>
</event>
<event>
 9    1  0.5981539E-005  0.1024336E+03  0.7546771E-02  0.1279423E+00
         21   -1    0    0  501  502  0.00000000000E+00  0.00000000000E+00  0.41540855291E+02  0.41540855291E+02  0.00000000000E+00 0. -1.
          1   -1    0    0  502    0 -0.00000000000E+00 -0.00000000000E+00 -0.51397906200E+03  0.51397906200E+03  0.00000000000E+00 0. -1.
         23    2    1    2    0    0 -0.68680108910E+01 -0.55733524845E+02 -0.32442862662E+03  0.34125080727E+03  0.89692721678E+02 0.  0.
        -24    2    1    2    0    0  0.25390906803E+02  0.21637143061E+02 -0.33677678687E+02  0.93532021270E+02  0.80629950099E+02 0.  0.
         11    1    4    4    0    0  0.35547919559E+02  0.38711905370E+02  0.21098991669E+01  0.52599599589E+02  0.00000000000E+00 0. -1.
        -12    1    4    4    0    0 -0.10157012756E+02 -0.17074762309E+02 -0.35787577854E+02  0.40932421681E+02  0.00000000000E+00 0.  1.
        -11    1    3    3    0    0 -0.89623905308E+01  0.23767917153E+02 -0.98925208675E+02  0.10213439793E+03  0.00000000000E+00 0.  1.
         11    1    3    3    0    0  0.20943796397E+01 -0.79501441998E+02 -0.22550341795E+03  0.23911640933E+03  0.00000000000E+00 0. -1.
          2    1    1    2  501    0 -0.18522895912E+02  0.34096381784E+02 -0.11433190139E+03  0.12073708875E+03  0.00000000000E+00 0. -1.
<scales pt_clust_5="13000.00000" pt_clust_6="13000.00000" pt_clust_7="13000.00000" pt_clust_8="13000.00000" pt_clust_9="38.80287"></scales>
<clustering>
<clus scale="   38.803">  1  9  2 -1</clus>
<clus scale="   80.630">  5  6 -1 -1</clus>
<clus scale="   89.693">  7  8 -1 -1</clus>
<clus scale="   94.599">  1  5  2 -1</clus>
<clus scale="   38.803">  1  5  2 -1</clus>
</clustering>
</event>
<event>
 9    1  0.5981539E-005  0.2064852E+03  0.7546771E-02  0.1172313E+00
          3   -1    0    0  502    0 -0.00000000000E+00  0.00000000000E+00  0.21746659489E+03  0.21746659489E+03  0.00000000000E+00 0. -1.
         21   -1    0    0  501  502  0.00000000000E+00 -0.00000000000E+00 -0.41757266221E+03  0.41757266221E+03  0.00000000000E+00 0. -1.
         23    2    1    2    0    0  0.44097266930E+02  0.34082916070E+02  0.16353325234E+02  0.10879073179E+03  0.91987922894E+02 0.  0.
        -24    2    1    2    0    0 -0.16775517732E+03  0.10903904840E+03  0.27644273276E+02  0.21744150597E+03  0.80531292537E+02 0.  0.
         11    1    4    4    0    0 -0.95842440595E+02  0.93437190713E+02 -0.11041552244E+02  0.13430635839E+03  0.00000000000E+00 0. -1.
        -12    1    4    4    0    0 -0.71912736730E+02  0.15601857692E+02  0.38685825520E+02  0.83135147583E+02  0.00000000000E+00 0.  1.
        -11    1    3    3    0    0  0.91482270112E+01  0.55284667694E+02  0.32569988175E+02  0.64814262853E+02  0.00000000000E+00 0. -1.
         11    1    3    3    0    0  0.34949039919E+02 -0.21201751623E+02 -0.16216662941E+02  0.43976468936E+02  0.00000000000E+00 0.  1.
          4    1    1    2  501    0  0.12365791039E+03 -0.14312196448E+03 -0.24410366583E+03  0.30880701934E+03  0.00000000000E+00 0. -1.
<scales pt_clust_5="13000.00000" pt_clust_6="13000.00000" pt_clust_7="13000.00000" pt_clust_8="13000.00000" pt_clust_9="190.13378"></scales>
<clustering>
<clus scale="   80.531">  5  6 -1 -1</clus>
<clus scale="   91.988">  7  8 -1 -1</clus>
<clus scale="  107.555">  1  7  2 -1</clus>
<clus scale="  190.134">  2  9  1 -1</clus>
<clus scale="  190.134">  2  5  1 -1</clus>
</clustering>
</event>
<event>
 9    1  0.5981539E-005  0.9685048E+02  0.7546771E-02  0.1292351E+00
         -4   -1    0    0    0  501 -0.00000000000E+00  0.00000000000E+00  0.41546908523E+02  0.41546908523E+02  0.00000000000E+00 0.  1.
         21   -1    0    0  501  502  0.00000000000E+00 -0.00000000000E+00 -0.44336508747E+03  0.44336508747E+03  0.00000000000E+00 0.  1.
         23    2    1    2    0    0 -0.31595953729E+02 -0.68158596867E+01 -0.88610017825E+02  0.13105782308E+03  0.90992623312E+02 0.  0.
        -24    2    1    2    0    0  0.74541195507E+01  0.58982906711E+02 -0.24366837837E+03  0.26363216707E+03  0.81197867664E+02 0.  0.
         11    1    4    4    0    0 -0.46554546909E+01 -0.19762018611E+02 -0.38240791676E+02  0.43296290672E+02  0.00000000000E+00 0. -1.
        -12    1    4    4    0    0  0.12109574242E+02  0.78744925322E+02 -0.20542758669E+03  0.22033587639E+03  0.00000000000E+00 0.  1.
        -11    1    3    3    0    0 -0.39721728591E+02  0.21138135631E+02 -0.84593541004E+01  0.45784245893E+02  0.00000000000E+00 0.  1.
         11    1    3    3    0    0  0.81257748622E+01 -0.27953995317E+02 -0.80150663725E+02  0.85273577191E+02  0.00000000000E+00 0. -1.
         -3    1    1    2    0  502  0.24141834178E+02 -0.52167047025E+02 -0.69539782749E+02  0.90222005839E+02  0.00000000000E+00 0.  1.
<scales pt_clust_5="13000.00000" pt_clust_6="13000.00000" pt_clust_7="13000.00000" pt_clust_8="13000.00000" pt_clust_9="57.48245"></scales>
<clustering>
<clus scale="   57.482">  2  9  1 -1</clus>
<clus scale="   81.198">  5  6 -1 -1</clus>
<clus scale="   87.712">  2  5  1 -1</clus>
<clus scale="   90.993">  7  8 -1 -1</clus>
<clus scale="   57.482">  2  5  1 -1</clus>
</clustering>
</event>
<event>
 9    1  0.5981539E-005  0.1243454E+03  0.7546771E-02  0.1236604E+00
         -2   -1    0    0    0  501 -0.00000000000E+00  0.00000000000E+00  0.83412996586E+02  0.83412996586E+02  0.00000000000E+00 0.  1.
         21   -1    0    0  501  502  0.00000000000E+00 -0.00000000000E+00 -0.78833058706E+03  0.78833058706E+03  0.00000000000E+00 0.  1.
         23    2    1    2    0    0 -0.94975188363E+02 -0.39402249382E+02 -0.30303199011E+03  0.32941603049E+03  0.78190219689E+02 0.  0.
        -24    2    1    2    0    0  0.35549318157E+02  0.98508749309E+02 -0.43321232550E+03  0.45284919773E+03  0.80198187063E+02 0.  0.
         11    1    4    4    0    0 -0.25867453566E+02  0.26396149157E+02 -0.10996972468E+03  0.11601388792E+03  0.00000000000E+00 0. -1.
        -12    1    4    4    0    0  0.61416771724E+02  0.72112600152E+02 -0.32324260082E+03  0.33683530981E+03  0.00000000000E+00 0.  1.
        -13    1    3    3    0    0 -0.82761863655E+02 -0.61398693052E+02 -0.25823725031E+03  0.27803921132E+03  0.00000000000E+00 0.  1.
         13    1    3    3    0    0 -0.12213324708E+02  0.21996443670E+02 -0.44794739803E+02  0.51376819175E+02  0.00000000000E+00 0. -1.
         -1    1    1    2    0  502  0.59425870206E+02 -0.59106499927E+02  0.31326725128E+02  0.89478355431E+02  0.00000000000E+00 0.  1.
<scales pt_clust_5="13000.00000" pt_clust_6="13000.00000" pt_clust_7="13000.00000" pt_clust_8="13000.00000" pt_clust_9="83.81539"></scales>
<clustering>
<clus scale="   78.190">  7  8 -1 -1</clus>
<clus scale="   80.198">  5  6 -1 -1</clus>
<clus scale="   83.815">  2  9  1 -1</clus>
<clus scale="  123.060">  1  7  2 -1</clus>
<clus scale="   83.815">  2  5  1 -1</clus>
</clustering>
</event>
<event>
 9    1  0.5981539E-005  0.1220367E+03  0.7546771E-02  0.1242582E+00
          1   -1    0    0  502    0 -0.00000000000E+00  0.00000000000E+00  0.79964411823E+03  0.79964411823E+03  0.00000000000E+00 0. -1.
         21   -1    0    0  501  502  0.00000000000E+00 -0.00000000000E+00 -0.13515888676E+03  0.13515888676E+03  0.00000000000E+00 0. -1.
        -24    2    1    2    0    0 -0.76579599633E+02  0.22482738302E+02  0.49867215429E+03  0.51153897078E+03  0.81414326556E+02 0.  0.
         23    2    1    2    0    0  0.48637061883E+02 -0.10277981294E+03  0.25904158204E+03  0.29708971144E+03  0.90722112420E+02 0.  0.
         13    1    3    3    0    0 -0.72365962907E+02  0.36868166989E+02  0.48326883017E+03  0.49004576984E+03  0.00000000000E+00 0. -1.
        -14    1    3    3    0    0 -0.42136367258E+01 -0.14385428687E+02  0.15403324117E+02  0.21493200944E+02  0.00000000000E+00 0.  1.
        -13    1    4    4    0    0  0.57757883938E+02 -0.31013008497E+02  0.76571424159E+02  0.10080160143E+03  0.00000000000E+00 0.  1.
         13    1    4    4    0    0 -0.91208220554E+01 -0.71766804439E+02  0.18247015788E+03  0.19628811001E+03  0.00000000000E+00 0. -1.
          2    1    1    2  501    0  0.27942537750E+02  0.80297074635E+02 -0.93228504850E+02  0.12617432277E+03  0.00000000000E+00 0. -1.
<scales pt_clust_5="13000.00000" pt_clust_6="13000.00000" pt_clust_7="13000.00000" pt_clust_8="13000.00000" pt_clust_9="85.02003"></scales>
<clustering>
<clus scale="   81.414">  5  6 -1 -1</clus>
<clus scale="   85.020">  2  9  1 -1</clus>
<clus scale="   90.722">  7  8 -1 -1</clus>
<clus scale="  115.286">  1  5  2 -1</clus>
<clus scale="   85.020">  2  5  1 -1</clus>
</clustering>
</event>
<event>
 9    1  0.5981539E-005  0.1015338E+03  0.7546771E-02  0.1288223E+00
          1   -1    0    0  502    0 -0.00000000000E+00  0.00000000000E+00  0.62002350621E+03  0.62002350621E+03  0.00000000000E+00 0. -1.
         21   -1    0    0  501  502  0.00000000000E+00 -0.00000000000E+00 -0.37060120756E+02  0.37060120756E+02  0.00000000000E+00 0.  1.
        -24    2    1    2    0    0 -0.23423238273E+02 -0.21821371725E+02  0.21717262795E+03  0.23351760173E+03  0.79634789087E+02 0.  0.
         23    2    1    2    0    0 -0.77229124100E+00 -0.26417861284E+02  0.73768127283E+02  0.12659857952E+03  0.99433213295E+02 0.  0.
         13    1    3    3    0    0 -0.11963006632E+02  0.27436254717E+02  0.12338579815E+03  0.12696423428E+03  0.00000000000E+00 0. -1.
        -14    1    3    3    0    0 -0.11460231641E+02 -0.49257626442E+02  0.93786829794E+02  0.10655336745E+03  0.00000000000E+00 0.  1.
        -11    1    4    4    0    0 -0.23803951879E+02  0.31200379501E+02  0.39646374313E+02  0.55784646653E+02  0.00000000000E+00 0.  1.
         11    1    4    4    0    0  0.23031660638E+02 -0.57618240786E+02  0.34121752970E+02  0.70813932871E+02  0.00000000000E+00 0. -1.
          2    1    1    2  501    0  0.24195529514E+02  0.48239233009E+02  0.29202263022E+03  0.29696744571E+03  0.00000000000E+00 0. -1.
<scales pt_clust_5="13000.00000" pt_clust_6="13000.00000" pt_clust_7="13000.00000" pt_clust_8="13000.00000" pt_clust_9="53.96712"></scales>
<clustering>
<clus scale="   53.967">  2  9  1 -1</clus>
<clus scale="   79.635">  5  6 -1 -1</clus>
<clus scale="   82.243">  1  5  2 -1</clus>
<clus scale="   99.433">  7  8 -1 -1</clus>
<clus scale="   53.967">  2  5  1 -1</clus>
</clustering>
</event>
<event>
 9    1  0.5981539E-005  0.1316448E+03  0.7546771E-02  0.1227711E+00
          1   -1    0    0  502    0 -0.00000000000E+00  0.00000000000E+00  0.34620705200E+03  0.34620705200E+03  0.00000000000E+00 0. -1.
         21   -1    0    0  501  502  0.00000000000E+00 -0.00000000000E+00 -0.24152880065E+03  0.24152880065E+03  0.00000000000E+00 0. -1.
         23    2    1    2    0    0 -0.47840020141E+01  0.85107399743E+02  0.15675518455E+03  0.20046874464E+03  0.91374906457E+02 0.  0.
        -24    2    1    2    0    0 -0.33047106975E+02 -0.18157790272E+03 -0.14488926917E+03  0.24815607157E+03  0.80782977791E+02 0.  0.
         11    1    4    4    0    0 -0.59633467892E+02 -0.11353849402E+03 -0.97181424781E+02  0.16090795331E+03  0.00000000000E+00 0. -1.
        -12    1    4    4    0    0  0.26586360916E+02 -0.68039408700E+02 -0.47707844391E+02  0.87248118258E+02  0.00000000000E+00 0.  1.
        -13    1    3    3    0    0  0.27852687257E+02  0.78154151617E+02  0.73755129124E+02  0.11101199338E+03  0.00000000000E+00 0. -1.
         13    1    3    3    0    0 -0.32636689271E+02  0.69532481264E+01  0.83000055421E+02  0.89456751260E+02  0.00000000000E+00 0.  1.
          2    1    1    2  501    0  0.37831108989E+02  0.96470502974E+02  0.92812335973E+02  0.13911103644E+03  0.00000000000E+00 0. -1.
<scales pt_clust_5="13000.00000" pt_clust_6="13000.00000" pt_clust_7="13000.00000" pt_clust_8="13000.00000" pt_clust_9="103.62317"></scales>
<clustering>
<clus scale="   80.783">  5  6 -1 -1</clus>
<clus scale="   91.375">  7  8 -1 -1</clus>
<clus scale="  103.623">  2  9  1 -1</clus>
<clus scale="  124.527">  2  5  1 -1</clus>
<clus scale="  103.623">  2  5  1 -1</clus>
</clustering>
</event>
<event>
 9    1  0.5981539E-005  0.9904365E+02  0.7546771E-02  0.1289239E+00
          1   -1    0    0  502    0 -0.00000000000E+00  0.00000000000E+00  0.16389839687E+03  0.16389839687E+03  0.00000000000E+00 0. -1.
         21   -1    0    0  501  502  0.00000000000E+00 -0.00000000000E+00 -0.95447715874E+02  0.95447715874E+02  0.00000000000E+00 0. -1.
         23    2    1    2    0    0 -0.25453724247E+02 -0.31238853715E+02  0.31699202381E+02  0.10465408683E+03  0.91235302376E+02 0.  0.
        -24    2    1    2    0    0 -0.75428825023E+01  0.44475271506E+02 -0.15635654926E+02  0.91380174149E+02  0.77916093784E+02 0.  0.
         11    1    4    4    0    0 -0.29629369612E+02  0.22209918341E+02 -0.37847682360E+02  0.52949287780E+02  0.00000000000E+00 0. -1.
        -12    1    4    4    0    0  0.22086487110E+02  0.22265353165E+02  0.22212027434E+02  0.38430886369E+02  0.00000000000E+00 0.  1.
        -13    1    3    3    0    0 -0.39634230844E+02  0.15899140634E+02  0.35148136680E+02  0.55308647059E+02  0.00000000000E+00 0.  1.
         13    1    3    3    0    0  0.14180506596E+02 -0.47137994349E+02 -0.34489342986E+01  0.49345439773E+02  0.00000000000E+00 0. -1.
          2    1    1    2  501    0  0.32996606750E+02 -0.13236417791E+02  0.52387133539E+02  0.63311851760E+02  0.00000000000E+00 0. -1.
<scales pt_clust_5="13000.00000" pt_clust_6="13000.00000" pt_clust_7="13000.00000" pt_clust_8="13000.00000" pt_clust_9="35.55250"></scales>
<clustering>
<clus scale="   35.552">  2  9  1 -1</clus>
<clus scale="   77.916">  5  6 -1 -1</clus>
<clus scale="   86.929">  2  5  1 -1</clus>
<clus scale="   91.235">  7  8 -1 -1</clus>
<clus scale="   35.552">  2  5  1 -1</clus>
</clustering>
</event>
<event>
 9    1  0.5981539E-005  0.2913538E+03  0.7546771E-02  0.1089987E+00
          1   -1    0    0  502    0 -0.00000000000E+00  0.00000000000E+00  0.16401430015E+04  0.16401430015E+04  0.00000000000E+00 0. -1.
         21   -1    0    0  501  502  0.00000000000E+00 -0.00000000000E+00 -0.72685941049E+02  0.72685941049E+02  0.00000000000E+00 0.  1.
        -24    2    1    2    0    0  0.25929196871E+03  0.71225860537E+02  0.84095195648E+03  0.88656275583E+03  0.80547369130E+02 0.  0.
         23    2    1    2    0    0 -0.27138537753E+03 -0.98548716846E+02  0.73539062348E+03  0.79509341858E+03  0.89511465355E+02 0.  0.
         11    1    3    3    0    0  0.16727584485E+03  0.56294289060E+02  0.65761388032E+03  0.68088638615E+03  0.00000000000E+00 0. -1.
        -12    1    3    3    0    0  0.92016123856E+02  0.14931571477E+02  0.18333807616E+03  0.20567636969E+03  0.00000000000E+00 0.  1.
        -13    1    4    4    0    0 -0.11558106172E+03 -0.57185945784E+02  0.21921012965E+03  0.25432714201E+03  0.00000000000E+00 0.  1.
         13    1    4    4    0    0 -0.15580431581E+03 -0.41362771062E+02  0.51618049383E+03  0.54076627656E+03  0.00000000000E+00 0. -1.
          2    1    1    2  501    0  0.12093408819E+02  0.27322856309E+02 -0.88855195469E+01  0.31172768106E+02  0.00000000000E+00 0. -1.
<scales pt_clust_5="13000.00000" pt_clust_6="13000.00000" pt_clust_7="13000.00000" pt_clust_8="13000.00000" pt_clust_9="29.87958"></scales>
<clustering>
<clus scale="   29.880">  2  9  1 -1</clus>
<clus scale="   80.547">  5  6 -1 -1</clus>
<clus scale="   89.511">  7  8 -1 -1</clus>
<clus scale="  288.726">  1  5  2 -1</clus>
<clus scale="   29.880">  2  5  1 -1</clus>
</clustering>
</event>
<event>
 9    1  0.5981539E-005  0.1009863E+03  0.7546771E-02  0.1283151E+00
         21   -1    0    0  501  502  0.00000000000E+00  0.00000000000E+00  0.12987485778E+03  0.12987485778E+03  0.00000000000E+00 0.  1.
          1   -1    0    0  502    0 -0.00000000000E+00 -0.00000000000E+00 -0.14831745496E+03  0.14831745496E+03  0.00000000000E+00 0. -1.
         23    2    1    2    0    0  0.40846257082E+02  0.13808275793E+02 -0.77977648725E+02  0.12763994755E+03  0.91391232139E+02 0.  0.
        -24    2    1    2    0    0 -0.47851926952E+02  0.22748937265E+02  0.26083544871E+02  0.10050726017E+03  0.81326729766E+02 0.  0.
         11    1    4    4    0    0  0.12568249537E+02  0.19291303183E+02  0.32303951001E+02  0.39669390280E+02  0.00000000000E+00 0. -1.
        -12    1    4    4    0    0 -0.60420176490E+02  0.34576340824E+01 -0.62204061297E+01  0.60837869891E+02  0.00000000000E+00 0.  1.
        -13    1    3    3    0    0 -0.17960540255E+02 -0.10030211432E+02  0.68704723574E+01  0.21688465553E+02  0.00000000000E+00 0.  1.
         13    1    3    3    0    0  0.58806797337E+02  0.23838487225E+02 -0.84848121083E+02  0.10595148200E+03  0.00000000000E+00 0. -1.
          2    1    1    2  501    0  0.70056698697E+01 -0.36557213058E+02  0.33451506679E+02  0.50045105015E+02  0.00000000000E+00 0. -1.
<scales pt_clust_5="13000.00000" pt_clust_6="13000.00000" pt_clust_7="13000.00000" pt_clust_8="13000.00000" pt_clust_9="37.22243"></scales>
<clustering>
<clus scale="   37.222">  1  9  2 -1</clus>
<clus scale="   81.327">  5  6 -1 -1</clus>
<clus scale="   91.391">  7  8 -1 -1</clus>
<clus scale="   91.978">  1  5  2 -1</clus>
<clus scale="   37.222">  1  5  2 -1</clus>
</clustering>
</event>
<event>
 9    1  0.5981539E-005  0.1371259E+03  0.7546771E-02  0.1219774E+00
          1   -1    0    0  502    0 -0.00000000000E+00  0.00000000000E+00  0.44035602259E+03  0.44035602259E+03  0.00000000000E+00 0. -1.
         21   -1    0    0  501  502  0.00000000000E+00 -0.00000000000E+00 -0.57995311678E+02  0.57995311678E+02  0.00000000000E+00 0. -1.
         23    2    1    2    0    0 -0.10736635109E+03  0.25896985033E+02  0.17030594398E+03  0.22284535011E+03  0.91966017269E+02 0.  0.
        -24    2    1    2    0    0  0.78983822297E+02 -0.54730275556E+02  0.11499174211E+03  0.17034821045E+03  0.81003486367E+02 0.  0.
         13    1    4    4    0    0  0.46770010700E+02 -0.45774260034E+02  0.11985824696E+03  0.13656030224E+03  0.00000000000E+00 0. -1.
        -14    1    4    4    0    0  0.32213811597E+02 -0.89560155213E+01 -0.48665048577E+01  0.33787908209E+02  0.00000000000E+00 0.  1.
        -11    1    3    3    0    0 -0.11280223576E+03  0.56494676450E+01  0.10483380932E+03  0.15409863223E+03  0.00000000000E+00 0. -1.
         11    1    3    3    0    0  0.54358846783E+01  0.20247517388E+02  0.65472134668E+02  0.68746717889E+02  0.00000000000E+00 0.  1.
          2    1    1    2  501    0  0.28382528788E+02  0.28833290523E+02  0.97063024823E+02  0.10515777371E+03  0.00000000000E+00 0. -1.
<scales pt_clust_5="13000.00000" pt_clust_6="13000.00000" pt_clust_7="13000.00000" pt_clust_8="13000.00000" pt_clust_9="40.45897"></scales>
<clustering>
<clus scale="   40.459">  2  9  1 -1</clus>
<clus scale="   81.003">  5  6 -1 -1</clus>
<clus scale="   91.966">  7  8 -1 -1</clus>
<clus scale="  130.028">  2  5  1 -1</clus>
<clus scale="   40.459">  2  5  1 -1</clus>
</clustering>
</event>
<event>
 9    1  0.5981539E-005  0.1484180E+03  0.7546771E-02  0.1203635E+00
         21   -1    0    0  501  502  0.00000000000E+00  0.00000000000E+00  0.10882086488E+03  0.10882086488E+03  0.00000000000E+00 0. -1.
          1   -1    0    0  502    0 -0.00000000000E+00 -0.00000000000E+00 -0.57515480995E+03  0.57515480995E+03  0.00000000000E+00 0. -1.
        -24    2    1    2    0    0  0.48819735440E+02  0.10242184123E+03 -0.47750122458E+03  0.49856369819E+03  0.87662657638E+02 0.  0.
         23    2    1    2    0    0 -0.74193342701E+02 -0.10522168019E+03  0.63391481938E+01  0.15943179389E+03  0.93819283830E+02 0.  0.
         13    1    3    3    0    0 -0.17509356602E+02  0.19885942930E+02 -0.36959061805E+02  0.45475273989E+02  0.00000000000E+00 0. -1.
        -14    1    3    3    0    0  0.66329092042E+02  0.82535898298E+02 -0.44054216278E+03  0.45308842420E+03  0.00000000000E+00 0.  1.
        -11    1    4    4    0    0 -0.21133865645E+02 -0.63595634081E+01 -0.33714725684E+02  0.40295992999E+02  0.00000000000E+00 0.  1.
         11    1    4    4    0    0 -0.53059477055E+02 -0.98862116784E+02  0.40053873878E+02  0.11913580089E+03  0.00000000000E+00 0. -1.
          2    1    1    2  501    0  0.25373607261E+02  0.27998389630E+01  0.48281313187E+01  0.25980182749E+02  0.00000000000E+00 0. -1.
<scales pt_clust_5="13000.00000" pt_clust_6="13000.00000" pt_clust_7="13000.00000" pt_clust_8="13000.00000" pt_clust_9="25.52761"></scales>
<clustering>
<clus scale="   25.528">  1  9  2 -1</clus>
<clus scale="   87.663">  5  6 -1 -1</clus>
<clus scale="   93.819">  7  8 -1 -1</clus>
<clus scale="  144.605">  2  5  1 -1</clus>
<clus scale="   25.528">  1  5  2 -1</clus>
</clustering>
</event>
<event>
 9    1  0.5981539E-005  0.9951030E+02  0.7546771E-02  0.1290831E+00
         21   -1    0    0  501  502  0.00000000000E+00  0.00000000000E+00  0.89255346346E+02  0.89255346346E+02  0.00000000000E+00 0. -1.
          1   -1    0    0  502    0 -0.00000000000E+00 -0.00000000000E+00 -0.74805421778E+03  0.74805421778E+03  0.00000000000E+00 0. -1.
        -24    2    1    2    0    0 -0.92154927551E+01  0.28102419731E+02 -0.57604280705E+03  0.58187241525E+03  0.76651945657E+02 0.  0.
         23    2    1    2    0    0 -0.22782926270E+01 -0.51175217566E+02 -0.14947508117E+03  0.18391171073E+03  0.94109637876E+02 0.  0.
         11    1    3    3    0    0 -0.17186311218E+02  0.45815460660E+02 -0.22345550307E+03  0.22875049198E+03  0.00000000000E+00 0. -1.
        -12    1    3    3    0    0  0.79708184626E+01 -0.17713040929E+02 -0.35258730398E+03  0.35312192327E+03  0.00000000000E+00 0.  1.
        -11    1    4    4    0    0  0.39423073155E+02 -0.10263515713E+02 -0.97694284538E+02  0.10584749257E+03  0.00000000000E+00 0. -1.
         11    1    4    4    0    0 -0.41701365782E+02 -0.40911701853E+02 -0.51780796633E+02  0.78064218158E+02  0.00000000000E+00 0.  1.
          2    1    1    2  501    0  0.11493785382E+02  0.23072797835E+02  0.66719016784E+02  0.71525438153E+02  0.00000000000E+00 0. -1.
<scales pt_clust_5="13000.00000" pt_clust_6="13000.00000" pt_clust_7="13000.00000" pt_clust_8="13000.00000" pt_clust_9="25.77714"></scales>
<clustering>
<clus scale="   25.777">  1  9  2 -1</clus>
<clus scale="   76.652">  5  6 -1 -1</clus>
<clus scale="   83.194">  2  5  1 -1</clus>
<clus scale="   94.110">  7  8 -1 -1</clus>
<clus scale="   25.777">  1  5  2 -1</clus>
</clustering>
</event>
<event>
 9    1  0.5981539E-005  0.9415518E+02  0.7546771E-02  0.1295980E+00
         21   -1    0    0  501  502  0.00000000000E+00  0.00000000000E+00  0.12013229577E+03  0.12013229577E+03  0.00000000000E+00 0. -1.
          1   -1    0    0  502    0 -0.00000000000E+00 -0.00000000000E+00 -0.20172634624E+03  0.20172634624E+03  0.00000000000E+00 0. -1.
        -24    2    1    2    0    0 -0.15936556295E+02  0.71151568747E+01 -0.84255568411E+02  0.12163665625E+03  0.85976020206E+02 0.  0.
         23    2    1    2    0    0  0.32579614994E+02 -0.52792897999E+02  0.59655610756E+02  0.12531021064E+03  0.91078732993E+02 0.  0.
         11    1    3    3    0    0  0.33803163725E+02  0.14653267903E+02 -0.42599760983E+02  0.56321503654E+02  0.00000000000E+00 0. -1.
        -12    1    3    3    0    0 -0.49739720020E+02 -0.75381110285E+01 -0.41655807428E+02  0.65315152591E+02  0.00000000000E+00 0.  1.
        -11    1    4    4    0    0  0.88474457512E+01  0.25307341787E+02  0.24912720656E+02  0.36597574989E+02  0.00000000000E+00 0.  1.
         11    1    4    4    0    0  0.23732169243E+02 -0.78100239785E+02  0.34742890101E+02  0.88712635651E+02  0.00000000000E+00 0. -1.
          2    1    1    2  501    0 -0.16643058699E+02  0.45677741124E+02 -0.56994092818E+02  0.74911775131E+02  0.00000000000E+00 0. -1.
<scales pt_clust_5="13000.00000" pt_clust_6="13000.00000" pt_clust_7="13000.00000" pt_clust_8="13000.00000" pt_clust_9="48.61532"></scales>
<clustering>
<clus scale="   48.615">  1  9  2 -1</clus>
<clus scale="   85.976">  5  6 -1 -1</clus>
<clus scale="   89.229">  2  5  1 -1</clus>
<clus scale="   91.079">  7  8 -1 -1</clus>
<clus scale="   48.615">  1  5  2 -1</clus>
</clustering>
</event>
<event>
 9    1  0.5981539E-005  0.1173332E+03  0.7546771E-02  0.1251667E+00
          3   -1    0    0  502    0 -0.00000000000E+00  0.00000000000E+00  0.59568751172E+02  0.59568751172E+02  0.00000000000E+00 0. -1.
         21   -1    0    0  501  502  0.00000000000E+00 -0.00000000000E+00 -0.67708774687E+03  0.67708774687E+03  0.00000000000E+00 0. -1.
         23    2    1    2    0    0 -0.28395141704E+02  0.68343772944E+02 -0.14758550120E+02  0.11888312420E+03  0.91859822802E+02 0.  0.
        -24    2    1    2    0    0  0.49384979158E+02 -0.50559546781E+02 -0.44066612981E+03  0.45336102887E+03  0.79714745153E+02 0.  0.
         11    1    4    4    0    0  0.62088227353E+02 -0.17915668345E+02 -0.20057024146E+03  0.21072337532E+03  0.00000000000E+00 0. -1.
        -12    1    4    4    0    0 -0.12703248195E+02 -0.32643878436E+02 -0.24009588835E+03  0.24263765354E+03  0.00000000000E+00 0.  1.
        -11    1    3    3    0    0  0.33358813295E+02  0.19276728972E+02  0.57564918679E+00  0.38532247226E+02  0.00000000000E+00 0.  1.
         11    1    3    3    0    0 -0.61753954999E+02  0.49067043972E+02 -0.15334199307E+02  0.80350876975E+02  0.00000000000E+00 0. -1.
          4    1    1    2  501    0 -0.20989837454E+02 -0.17784226163E+02 -0.16209431576E+03  0.16441234497E+03  0.00000000000E+00 0. -1.
<scales pt_clust_5="13000.00000" pt_clust_6="13000.00000" pt_clust_7="13000.00000" pt_clust_8="13000.00000" pt_clust_9="27.51094"></scales>
<clustering>
<clus scale="   27.511">  2  9  1 -1</clus>
<clus scale="   79.715">  5  6 -1 -1</clus>
<clus scale="   91.860">  7  8 -1 -1</clus>
<clus scale="  108.089">  2  5  1 -1</clus>
<clus scale="   27.511">  2  5  1 -1</clus>
</clustering>
</event>
<event>
 9    1  0.6027885E-005  0.9465948E+02  0.7546771E-02  0.1297785E+00
         21   -1    0    0  501  502  0.00000000000E+00  0.00000000000E+00  0.41884014878E+03  0.41884014878E+03  0.00000000000E+00 0. -1.
          1   -1    0    0  502    0 -0.00000000000E+00 -0.00000000000E+00 -0.34809769415E+03  0.34809769415E+03  0.00000000000E+00 0. -1.
        -24    2    1    2    0    0  0.11701356818E+02  0.25404227435E+02 -0.33113126205E+03  0.34184098719E+03  0.80156417662E+02 0.  0.
         23    2    1    2    0    0 -0.39909026060E+02 -0.16138333181E+02  0.23258718675E+03  0.25322638527E+03  0.90408111358E+02 0.  0.
         11    1    3    3    0    0  0.11157143885E+02 -0.28692932195E+02 -0.12267505880E+03  0.12647899537E+03  0.00000000000E+00 0. -1.
        -12    1    3    3    0    0  0.54421293351E+00  0.54097159630E+02 -0.20845620325E+03  0.21536199182E+03  0.00000000000E+00 0.  1.
        -13    1    4    4    0    0 -0.14947417172E+02 -0.41049915092E+02  0.20160570312E+03  0.20628470700E+03  0.00000000000E+00 0.  1.
         13    1    4    4    0    0 -0.24961608888E+02  0.24911581911E+02  0.30981483626E+02  0.46941678275E+02  0.00000000000E+00 0. -1.
          2    1    1    2  501    0  0.28207669242E+02 -0.92658942536E+01  0.16928652993E+03  0.17187047046E+03  0.00000000000E+00 0. -1.
<scales pt_clust_5="13000.00000" pt_clust_6="13000.00000" pt_clust_7="13000.00000" pt_clust_8="13000.00000" pt_clust_9="29.69056"></scales>
<clustering>
<clus scale="   29.691">  1  9  2 -1</clus>
<clus scale="   80.156">  5  6 -1 -1</clus>
<clus scale="   84.923">  2  5  1 -1</clus>
<clus scale="   90.408">  7  8 -1 -1</clus>
<clus scale="   29.691">  1  5  2 -1</clus>
</clustering>
</event>
<event>
 9    1  0.5981539E-005  0.1355470E+03  0.7546771E-02  0.1242921E+00
          1   -1    0    0  502    0 -0.00000000000E+00  0.00000000000E+00  0.89385986659E+03  0.89385986659E+03  0.00000000000E+00 0. -1.
         21   -1    0    0  501  502  0.00000000000E+00 -0.00000000000E+00 -0.35144760819E+02  0.35144760819E+02  0.00000000000E+00 0. -1.
        -24    2    1    2    0    0  0.41916574421E+01 -0.25374965711E+02  0.40817932543E+03  0.41664466733E+03  0.79504454127E+02 0.  0.
         23    2    1    2    0    0 -0.99538020628E+02 -0.27959084128E+02  0.22571790476E+03  0.26240290972E+03  0.84954026183E+02 0.  0.
         13    1    3    3    0    0 -0.17179040302E+02  0.23697009861E+02  0.17236905148E+03  0.17483637382E+03  0.00000000000E+00 0. -1.
        -14    1    3    3    0    0  0.21370697744E+02 -0.49071975572E+02  0.23581027395E+03  0.24180829351E+03  0.00000000000E+00 0.  1.
        -11    1    4    4    0    0 -0.10012886369E+02 -0.37047375242E+02  0.36899395055E+02  0.53238437817E+02  0.00000000000E+00 0.  1.
         11    1    4    4    0    0 -0.89525134259E+02  0.90882911144E+01  0.18881850971E+03  0.20916447191E+03  0.00000000000E+00 0. -1.
          2    1    1    2  501    0  0.95346363186E+02  0.53334049839E+02  0.22481787558E+03  0.24995705036E+03  0.00000000000E+00 0. -1.
<scales pt_clust_5="13000.00000" pt_clust_6="13000.00000" pt_clust_7="13000.00000" pt_clust_8="13000.00000" pt_clust_9="105.62103"></scales>
<clustering>
<clus scale="   79.504">  5  6 -1 -1</clus>
<clus scale="   83.561">  1  5  2 -1</clus>
<clus scale="   84.954">  7  8 -1 -1</clus>
<clus scale="  105.621">  2  9  1 -1</clus>
<clus scale="  105.621">  2  5  1 -1</clus>
</clustering>
</event>
<event>
 9    1  0.5981539E-005  0.5982665E+03  0.7546771E-02  0.1022003E+00
         21   -1    0    0  501  502  0.00000000000E+00  0.00000000000E+00  0.31816771406E+03  0.31816771406E+03  0.00000000000E+00 0. -1.
          1   -1    0    0  502    0 -0.00000000000E+00 -0.00000000000E+00 -0.31934397160E+04  0.31934397160E+04  0.00000000000E+00 0. -1.
         23    2    1    2    0    0  0.98837866681E+02 -0.18222850076E+03 -0.55600081009E+02  0.23401521010E+03  0.93250196629E+02 0.  0.
        -24    2    1    2    0    0 -0.28972492720E+03  0.70975743885E+03 -0.25323686511E+04  0.26473003675E+04  0.87247323801E+02 0.  0.
         13    1    4    4    0    0 -0.18430913752E+03  0.54092080413E+03 -0.18157593983E+04  0.19035617581E+04  0.00000000000E+00 0. -1.
        -14    1    4    4    0    0 -0.10541578968E+03  0.16883663472E+03 -0.71660925281E+03  0.74373860942E+03  0.00000000000E+00 0.  1.
        -11    1    3    3    0    0  0.13919316972E+02 -0.65302911134E+02 -0.59528565324E+02  0.89453159123E+02  0.00000000000E+00 0.  1.
         11    1    3    3    0    0  0.84918549709E+02 -0.11692558963E+03  0.39284843152E+01  0.14456205098E+03  0.00000000000E+00 0. -1.
          2    1    1    2  501    0  0.19088706051E+03 -0.52752893809E+03 -0.28730326988E+03  0.63029185246E+03  0.00000000000E+00 0. -1.
<scales pt_clust_5="13000.00000" pt_clust_6="13000.00000" pt_clust_7="13000.00000" pt_clust_8="13000.00000" pt_clust_9="591.87047"></scales>
<clustering>
<clus scale="   87.247">  5  6 -1 -1</clus>
<clus scale="   93.250">  7  8 -1 -1</clus>
<clus scale="  227.314">  2  7  1 -1</clus>
<clus scale="  591.870">  1  9  2 -1</clus>
<clus scale="  591.870">  1  5  2 -1</clus>
</clustering>
</event>
<event>
 9    1  0.5981539E-005  0.1583073E+03  0.7546771E-02  0.1193319E+00
         21   -1    0    0  501  502  0.00000000000E+00  0.00000000000E+00  0.76053148847E+02  0.76053148847E+02  0.00000000000E+00 0.  1.
          1   -1    0    0  502    0 -0.00000000000E+00 -0.00000000000E+00 -0.37423094660E+03  0.37423094660E+03  0.00000000000E+00 0. -1.
         23    2    1    2    0    0  0.13432202307E+03 -0.28291286649E+02 -0.19239075869E+03  0.25532344874E+03  0.96607746400E+02 0.  0.
        -24    2    1    2    0    0 -0.10949970775E+03  0.19729617941E+02 -0.87997092350E+02  0.16324422017E+03  0.80782073100E+02 0.  0.
         11    1    4    4    0    0 -0.76680528529E+02 -0.26022818380E+02 -0.56359920493E+02  0.98658659883E+02  0.00000000000E+00 0. -1.
        -12    1    4    4    0    0 -0.32819179222E+02  0.45752436321E+02 -0.31637171856E+02  0.64585560284E+02  0.00000000000E+00 0.  1.
        -13    1    3    3    0    0  0.30032704167E+02  0.29300464431E+02 -0.21891431756E+02  0.47325630685E+02  0.00000000000E+00 0.  1.
         13    1    3    3    0    0  0.10428931890E+03 -0.57591751080E+02 -0.17049932694E+03  0.20799781805E+03  0.00000000000E+00 0. -1.
          2    1    1    2  501    0 -0.24822315315E+02  0.85616687080E+01 -0.17789946714E+02  0.31716426544E+02  0.00000000000E+00 0. -1.
<scales pt_clust_5="13000.00000" pt_clust_6="13000.00000" pt_clust_7="13000.00000" pt_clust_8="13000.00000" pt_clust_9="26.25737"></scales>
<clustering>
<clus scale="   26.257">  1  9  2 -1</clus>
<clus scale="   80.782">  5  6 -1 -1</clus>
<clus scale="   96.608">  7  8 -1 -1</clus>
<clus scale="  149.177">  1  5  2 -1</clus>
<clus scale="   26.257">  1  5  2 -1</clus>
</clustering>
</event>
<event>
 9    1  0.5981539E-005  0.2329740E+03  0.7546771E-02  0.1124564E+00
         21   -1    0    0  501  502  0.00000000000E+00  0.00000000000E+00  0.33342198882E+02  0.33342198882E+02  0.00000000000E+00 0.  1.
         -4   -1    0    0    0  501 -0.00000000000E+00 -0.00000000000E+00 -0.12328299621E+04  0.12328299621E+04  0.00000000000E+00 0.  1.
        -24    2    1    2    0    0  0.89055076997E+02  0.74657911061E+02 -0.25080424564E+03  0.28745286120E+03  0.78878180486E+02 0.  0.
         23    2    1    2    0    0  0.56202592252E+01  0.16404003817E+02 -0.21494850939E+03  0.23331823065E+03  0.89072197726E+02 0.  0.
         11    1    3    3    0    0  0.62856172005E+02  0.22925390735E+02 -0.66869919029E+02  0.94594175140E+02  0.00000000000E+00 0. -1.
        -12    1    3    3    0    0  0.26198904992E+02  0.51732520326E+02 -0.18393432661E+03  0.19285868606E+03  0.00000000000E+00 0.  1.
        -11    1    4    4    0    0  0.34805925971E+02  0.31167547416E+02 -0.17773952212E+03  0.18377759988E+03  0.00000000000E+00 0.  1.
         11    1    4    4    0    0 -0.29185666746E+02 -0.14763543599E+02 -0.37208987274E+02  0.49540630769E+02  0.00000000000E+00 0. -1.
         -3    1    1    2    0  502 -0.94675336222E+02 -0.91061914879E+02 -0.73373500816E+03  0.74540106911E+03  0.00000000000E+00 0.  1.
<scales pt_clust_5="13000.00000" pt_clust_6="13000.00000" pt_clust_7="13000.00000" pt_clust_8="13000.00000" pt_clust_9="131.36099"></scales>
<clustering>
<clus scale="   78.878">  5  6 -1 -1</clus>
<clus scale="   89.072">  7  8 -1 -1</clus>
<clus scale="   89.825">  5  7 -1 -1</clus>
<clus scale="  131.361">  1  9  2 -1</clus>
<clus scale="  131.361">  1  5  2 -1</clus>
</clustering>
</event>
<event>
 9    1  0.5981539E-005  0.9997893E+02  0.7546771E-02  0.1285821E+00
          1   -1    0    0  502    0 -0.00000000000E+00  0.00000000000E+00  0.46915374409E+02  0.46915374409E+02  0.00000000000E+00 0. -1.
         21   -1    0    0  501  502  0.00000000000E+00 -0.00000000000E+00 -0.34691946099E+03  0.34691946099E+03  0.00000000000E+00 0.  1.
         23    2    1    2    0    0 -0.90085987566E+01  0.34604157061E+02 -0.37024259508E+02  0.10501543377E+03  0.91536020229E+02 0.  0.
        -24    2    1    2    0    0  0.24259742294E+02 -0.49765920269E+02 -0.21942387047E+03  0.24024371020E+03  0.80653725527E+02 0.  0.
         13    1    4    4    0    0 -0.19298395550E+02 -0.40002528724E+02 -0.59760929760E+02  0.74458035838E+02  0.00000000000E+00 0. -1.
        -14    1    4    4    0    0  0.43558137844E+02 -0.97633915457E+01 -0.15966294071E+03  0.16578567436E+03  0.00000000000E+00 0.  1.
        -11    1    3    3    0    0 -0.12436032190E+02 -0.30230244809E+02 -0.67450431970E+01  0.33376911264E+02  0.00000000000E+00 0.  1.
         11    1    3    3    0    0  0.34274334331E+01  0.64834401870E+02 -0.30279216311E+02  0.71638522501E+02  0.00000000000E+00 0. -1.
          2    1    1    2  501    0 -0.15251143537E+02  0.15161763208E+02 -0.43555956604E+02  0.48575691436E+02  0.00000000000E+00 0. -1.
<scales pt_clust_5="13000.00000" pt_clust_6="13000.00000" pt_clust_7="13000.00000" pt_clust_8="13000.00000" pt_clust_9="21.50527"></scales>
<clustering>
<clus scale="   21.505">  2  9  1 -1</clus>
<clus scale="   80.654">  5  6 -1 -1</clus>
<clus scale="   90.122">  2  5  1 -1</clus>
<clus scale="   91.536">  7  8 -1 -1</clus>
<clus scale="   21.505">  2  5  1 -1</clus>
</clustering>
</event>
<event>
 9    1  0.5981539E-005  0.1106143E+03  0.7546771E-02  0.1263325E+00
         21   -1    0    0  501  502  0.00000000000E+00  0.00000000000E+00  0.42276680829E+03  0.42276680829E+03  0.00000000000E+00 0.  1.
         -4   -1    0    0    0  501 -0.00000000000E+00 -0.00000000000E+00 -0.15064337629E+03  0.15064337629E+03  0.00000000000E+00 0.  1.
         23    2    1    2    0    0 -0.17544765547E+02  0.63806999048E+02 -0.80649159294E+02  0.13813363810E+03  0.90539842906E+02 0.  0.
        -24    2    1    2    0    0  0.59979187507E+02 -0.37122878500E+02  0.33498800542E+02  0.11209165215E+03  0.80416153864E+02 0.  0.
         13    1    4    4    0    0  0.16792830222E+02 -0.44792854822E+02  0.46120882180E+02  0.66449490314E+02  0.00000000000E+00 0. -1.
        -14    1    4    4    0    0  0.43186357285E+02  0.76699763222E+01 -0.12622081638E+02  0.45642161838E+02  0.00000000000E+00 0.  1.
        -11    1    3    3    0    0  0.27906213478E+02 -0.40396032357E+01 -0.92984620609E+01  0.29690681058E+02  0.00000000000E+00 0.  1.
         11    1    3    3    0    0 -0.45450979025E+02  0.67846602283E+02 -0.71350697233E+02  0.10844295704E+03  0.00000000000E+00 0. -1.
         -3    1    1    2    0  502 -0.42434421960E+02 -0.26684120548E+02  0.31927379076E+03  0.32318489433E+03  0.00000000000E+00 0.  1.
<scales pt_clust_5="13000.00000" pt_clust_6="13000.00000" pt_clust_7="13000.00000" pt_clust_8="13000.00000" pt_clust_9="50.12706"></scales>
<clustering>
<clus scale="   50.127">  1  9  2 -1</clus>
<clus scale="   80.416">  5  6 -1 -1</clus>
<clus scale="   90.540">  7  8 -1 -1</clus>
<clus scale="  102.493">  1  5  2 -1</clus>
<clus scale="   50.127">  1  5  2 -1</clus>
</clustering>
</event>
<event>
 9    1  0.5981539E-005  0.1453611E+03  0.7546771E-02  0.1208933E+00
          1   -1    0    0  502    0 -0.00000000000E+00  0.00000000000E+00  0.77476731209E+03  0.77476731209E+03  0.00000000000E+00 0. -1.
         21   -1    0    0  501  502  0.00000000000E+00 -0.00000000000E+00 -0.35836992576E+02  0.35836992576E+02  0.00000000000E+00 0. -1.
        -24    2    1    2    0    0  0.83185500908E+02  0.82188484635E+02  0.45560465347E+03  0.47683743270E+03  0.78253194116E+02 0.  0.
         23    2    1    2    0    0 -0.54875911001E+02 -0.93361605066E+02  0.25696080147E+03  0.29350053882E+03  0.91574875860E+02 0.  0.
         13    1    3    3    0    0  0.53577478120E+02  0.88026031268E+02  0.40511928056E+03  0.41802004715E+03  0.00000000000E+00 0. -1.
        -14    1    3    3    0    0  0.29608022788E+02 -0.58375466328E+01  0.50485372915E+02  0.58817385546E+02  0.00000000000E+00 0.  1.
        -13    1    4    4    0    0 -0.70324740505E+02 -0.78077407723E+02  0.14282960527E+03  0.17731877190E+03  0.00000000000E+00 0.  1.
         13    1    4    4    0    0  0.15448829504E+02 -0.15284197343E+02  0.11413119619E+03  0.11618176693E+03  0.00000000000E+00 0. -1.
          2    1    1    2  501    0 -0.28309589907E+02  0.11173120431E+02  0.26364864570E+02  0.40266333142E+02  0.00000000000E+00 0. -1.
<scales pt_clust_5="13000.00000" pt_clust_6="13000.00000" pt_clust_7="13000.00000" pt_clust_8="13000.00000" pt_clust_9="30.43471"></scales>
<clustering>
<clus scale="   30.435">  2  9  1 -1</clus>
<clus scale="   78.253">  5  6 -1 -1</clus>
<clus scale="   91.575">  7  8 -1 -1</clus>
<clus scale="  137.359">  1  5  2 -1</clus>
<clus scale="   30.435">  2  5  1 -1</clus>
</clustering>
</event>
<event>
 9    1  0.5981539E-005  0.8372346E+02  0.7546771E-02  0.1325100E+00
          1   -1    0    0  502    0 -0.00000000000E+00  0.00000000000E+00  0.43934294692E+02  0.43934294692E+02  0.00000000000E+00 0. -1.
         21   -1    0    0  501  502  0.00000000000E+00 -0.00000000000E+00 -0.42194524964E+03  0.42194524964E+03  0.00000000000E+00 0. -1.
         23    2    1    2    0    0  0.26601248835E+01  0.12579229682E+02 -0.44172060877E+02  0.84427219627E+02  0.70791745056E+02 0.  0.
        -24    2    1    2    0    0 -0.62099601603E+02 -0.31995287028E+01 -0.10980220063E+03  0.14947501937E+03  0.80122784831E+02 0.  0.
         13    1    4    4    0    0 -0.52189111385E+02 -0.36745221671E+02 -0.53949224204E+02  0.83572922978E+02  0.00000000000E+00 0. -1.
        -14    1    4    4    0    0 -0.99104902182E+01  0.33545692969E+02 -0.55852976429E+02  0.65902096394E+02  0.00000000000E+00 0.  1.
        -13    1    3    3    0    0 -0.15961186823E+02 -0.22709993162E+02 -0.44267067911E+01  0.28108699849E+02  0.00000000000E+00 0. -1.
         13    1    3    3    0    0  0.18621311707E+02  0.35289222843E+02 -0.39745354086E+02  0.56318519778E+02  0.00000000000E+00 0.  1.
          2    1    1    2  501    0  0.59439476720E+02 -0.93797009788E+01 -0.22403669344E+03  0.23197730533E+03  0.00000000000E+00 0. -1.
<scales pt_clust_5="13000.00000" pt_clust_6="13000.00000" pt_clust_7="13000.00000" pt_clust_8="13000.00000" pt_clust_9="60.17500"></scales>
<clustering>
<clus scale="   60.175">  2  9  1 -1</clus>
<clus scale="   70.792">  7  8 -1 -1</clus>
<clus scale="   74.843">  1  7  2 -1</clus>
<clus scale="   80.123">  5  6 -1 -1</clus>
<clus scale="   60.175">  2  5  1 -1</clus>
</clustering>
</event>
<event>
 9    1  0.5981539E-005  0.1404146E+03  0.7546771E-02  0.1236881E+00
         -4   -1    0    0    0  501 -0.00000000000E+00  0.00000000000E+00  0.48249481665E+03  0.48249481665E+03  0.00000000000E+00 0.  1.
         21   -1    0    0  501  502  0.00000000000E+00 -0.00000000000E+00 -0.11845788798E+03  0.11845788798E+03  0.00000000000E+00 0. -1.
        -24    2    1    2    0    0  0.54169568557E+01 -0.20530481716E+02  0.13729707819E+03  0.16146873720E+03  0.82285000530E+02 0.  0.
         23    2    1    2    0    0  0.67878406832E+02 -0.77889508551E+02 -0.41675588730E+02  0.14434746879E+03  0.91788253025E+02 0.  0.
         13    1    3    3    0    0 -0.24627633871E+02  0.18974578949E+02  0.29790345752E+02  0.43058329001E+02  0.00000000000E+00 0. -1.
        -14    1    3    3    0    0  0.30044590727E+02 -0.39505060665E+02  0.10750673244E+03  0.11841040820E+03  0.00000000000E+00 0.  1.
        -11    1    4    4    0    0  0.37073648703E+02 -0.42040968288E+02  0.26008984993E+02  0.61792926320E+02  0.00000000000E+00 0.  1.
         11    1    4    4    0    0  0.30804758129E+02 -0.35848540263E+02 -0.67684573722E+02  0.82554542469E+02  0.00000000000E+00 0. -1.
         -3    1    1    2    0  502 -0.73295363688E+02  0.98419990267E+02  0.26841543920E+03  0.29513649863E+03  0.00000000000E+00 0.  1.
<scales pt_clust_5="13000.00000" pt_clust_6="13000.00000" pt_clust_7="13000.00000" pt_clust_8="13000.00000" pt_clust_9="106.25997"></scales>
<clustering>
<clus scale="   82.285">  5  6 -1 -1</clus>
<clus scale="   84.980">  1  5  2 -1</clus>
<clus scale="   91.788">  7  8 -1 -1</clus>
<clus scale="  106.260">  2  9  1 -1</clus>
<clus scale="  106.260">  2  5  1 -1</clus>
</clustering>
</event>
<event>
 9    1  0.5981539E-005  0.4389238E+03  0.7546771E-02  0.1064984E+00
         21   -1    0    0  501  502  0.00000000000E+00  0.00000000000E+00  0.52279541292E+03  0.52279541292E+03  0.00000000000E+00 0.  1.
          1   -1    0    0  502    0 -0.00000000000E+00 -0.00000000000E+00 -0.61133487348E+03  0.61133487348E+03  0.00000000000E+00 0. -1.
        -24    2    1    2    0    0 -0.35803098854E+02  0.14050346472E+03  0.10291035261E+03  0.19544710309E+03  0.81153828911E+02 0.  0.
         23    2    1    2    0    0  0.42433628726E+03 -0.15383155557E+03  0.70151040517E+02  0.47009948412E+03  0.11111671479E+03 0.  0.
         11    1    3    3    0    0 -0.15275161600E+02  0.57807734613E+02  0.91750928891E+02  0.10951391553E+03  0.00000000000E+00 0. -1.
        -12    1    3    3    0    0 -0.20527937254E+02  0.82695730112E+02  0.11159423714E+02  0.85933187560E+02  0.00000000000E+00 0.  1.
        -13    1    4    4    0    0  0.27474541428E+03 -0.12102757183E+03  0.95125385951E+02  0.31493103192E+03  0.00000000000E+00 0.  1.
         13    1    4    4    0    0  0.14959087298E+03 -0.32803983740E+02 -0.24974345435E+02  0.15516845220E+03  0.00000000000E+00 0. -1.
          2    1    1    2  501    0 -0.38853318841E+03  0.13328090850E+02 -0.26160085368E+03  0.46858369919E+03  0.00000000000E+00 0. -1.
<scales pt_clust_5="13000.00000" pt_clust_6="13000.00000" pt_clust_7="13000.00000" pt_clust_8="13000.00000" pt_clust_9="424.62614"></scales>
<clustering>
<clus scale="   81.154">  5  6 -1 -1</clus>
<clus scale="  111.117">  7  8 -1 -1</clus>
<clus scale="  166.160">  2  5  1 -1</clus>
<clus scale="  424.626">  1  9  2 -1</clus>
<clus scale="  424.626">  1  5  2 -1</clus>
</clustering>
</event>
<event>
 9    1  0.5981539E-005  0.3825968E+03  0.7546771E-02  0.1050314E+00
         21   -1    0    0  501  502  0.00000000000E+00  0.00000000000E+00  0.30965748628E+03  0.30965748628E+03  0.00000000000E+00 0.  1.
          1   -1    0    0  502    0 -0.00000000000E+00 -0.00000000000E+00 -0.93635379857E+03  0.93635379857E+03  0.00000000000E+00 0. -1.
         23    2    1    2    0    0 -0.33302008400E+03  0.24362963836E+03 -0.69460021368E+03  0.81353909925E+03  0.95491529133E+02 0.  0.
        -24    2    1    2    0    0  0.20056128986E+03 -0.16945462874E+03  0.30086460066E+02  0.27601956316E+03  0.79636059554E+02 0.  0.
         11    1    4    4    0    0  0.48980589577E+02 -0.46266102525E+02 -0.26903638756E+02  0.72549680747E+02  0.00000000000E+00 0. -1.
        -12    1    4    4    0    0  0.15158070028E+03 -0.12318852621E+03  0.56990098822E+02  0.20346988242E+03  0.00000000000E+00 0.  1.
        -11    1    3    3    0    0 -0.11338840955E+03  0.14106886275E+03 -0.28659152368E+03  0.33895730838E+03  0.00000000000E+00 0. -1.
         11    1    3    3    0    0 -0.21963167445E+03  0.10256077561E+03 -0.40800869000E+03  0.47458179087E+03  0.00000000000E+00 0.  1.
          2    1    1    2  501    0  0.13245879414E+03 -0.74175009619E+02  0.37817441316E+02  0.15645262243E+03  0.00000000000E+00 0. -1.
<scales pt_clust_5="13000.00000" pt_clust_6="13000.00000" pt_clust_7="13000.00000" pt_clust_8="13000.00000" pt_clust_9="151.81325"></scales>
<clustering>
<clus scale="   79.636">  5  6 -1 -1</clus>
<clus scale="   95.492">  7  8 -1 -1</clus>
<clus scale="  151.813">  1  9  2 -1</clus>
<clus scale="  378.951">  1  5  2 -1</clus>
<clus scale="  151.813">  1  5  2 -1</clus>
</clustering>
</event>
<event>
 9    1  0.5981539E-005  0.1104357E+03  0.7546771E-02  0.1260266E+00
         21   -1    0    0  501  502  0.00000000000E+00  0.00000000000E+00  0.37537353697E+03  0.37537353697E+03  0.00000000000E+00 0. -1.
          3   -1    0    0  502    0 -0.00000000000E+00 -0.00000000000E+00 -0.19252551779E+03  0.19252551779E+03  0.00000000000E+00 0. -1.
         23    2    1    2    0    0  0.29217369478E+02  0.63195791225E+02 -0.13092325382E+03  0.17235246839E+03  0.87847095909E+02 0.  0.
        -24    2    1    2    0    0  0.10421424237E+02 -0.57251704118E+02  0.32370774174E+02  0.11130583124E+03  0.89189446348E+02 0.  0.
         11    1    4    4    0    0  0.18555138684E+02 -0.79085874436E+02  0.15907228520E+02  0.82776256415E+02  0.00000000000E+00 0. -1.
        -12    1    4    4    0    0 -0.81337144469E+01  0.21834170318E+02  0.16463545654E+02  0.28529574825E+02  0.00000000000E+00 0.  1.
        -13    1    3    3    0    0 -0.14595670737E+02  0.48029187693E+02 -0.23653154886E+02  0.55491514764E+02  0.00000000000E+00 0.  1.
         13    1    3    3    0    0  0.43813040215E+02  0.15166603532E+02 -0.10727009894E+03  0.11686095362E+03  0.00000000000E+00 0. -1.
          4    1    1    2  501    0 -0.39638793715E+02 -0.59440871071E+01  0.28140049882E+03  0.28424075513E+03  0.00000000000E+00 0. -1.
<scales pt_clust_5="13000.00000" pt_clust_6="13000.00000" pt_clust_7="13000.00000" pt_clust_8="13000.00000" pt_clust_9="40.08199"></scales>
<clustering>
<clus scale="   40.082">  1  9  2 -1</clus>
<clus scale="   87.847">  7  8 -1 -1</clus>
<clus scale="   89.189">  5  6 -1 -1</clus>
<clus scale="  109.354">  2  7  1 -1</clus>
<clus scale="   40.082">  1  5  2 -1</clus>
</clustering>
</event>
<event>
 9    1  0.5981539E-005  0.1380235E+03  0.7546771E-02  0.1235300E+00
          1   -1    0    0  502    0 -0.00000000000E+00  0.00000000000E+00  0.53906870930E+03  0.53906870930E+03  0.00000000000E+00 0. -1.
         21   -1    0    0  501  502  0.00000000000E+00 -0.00000000000E+00 -0.10381606520E+03  0.10381606520E+03  0.00000000000E+00 0. -1.
        -24    2    1    2    0    0 -0.16608527914E+02 -0.40323819882E+02  0.36812626540E+02  0.99474124359E+02  0.81474402697E+02 0.  0.
         23    2    1    2    0    0  0.21515854395E+02  0.13794633593E+03  0.41178287331E+03  0.44475838564E+03  0.93556203721E+02 0.  0.
         11    1    3    3    0    0 -0.26653174180E+02  0.15827835729E+02 -0.10373466720E+01  0.31015934063E+02  0.00000000000E+00 0. -1.
        -12    1    3    3    0    0  0.10044646265E+02 -0.56151655611E+02  0.37849973212E+02  0.68458190296E+02  0.00000000000E+00 0.  1.
        -11    1    4    4    0    0 -0.32671782620E+02  0.20905374285E+02  0.84424472645E+02  0.92908404544E+02  0.00000000000E+00 0.  1.
         11    1    4    4    0    0  0.54187637015E+02  0.11704096165E+03  0.32735840066E+03  0.35184998109E+03  0.00000000000E+00 0. -1.
          2    1    1    2  501    0 -0.49073264811E+01 -0.97622516050E+02 -0.13342855743E+02  0.98652264508E+02  0.00000000000E+00 0. -1.
<scales pt_clust_5="13000.00000" pt_clust_6="13000.00000" pt_clust_7="13000.00000" pt_clust_8="13000.00000" pt_clust_9="101.47766"></scales>
<clustering>
<clus scale="   81.474">  5  6 -1 -1</clus>
<clus scale="   92.412">  1  5  2 -1</clus>
<clus scale="   93.556">  7  8 -1 -1</clus>
<clus scale="  101.478">  2  9  1 -1</clus>
<clus scale="  101.478">  2  5  1 -1</clus>
</clustering>
</event>
<event>
 9    1  0.5981539E-005  0.3089099E+03  0.7546771E-02  0.1123759E+00
         21   -1    0    0  501  502  0.00000000000E+00  0.00000000000E+00  0.15692481714E+03  0.15692481714E+03  0.00000000000E+00 0. -1.
          1   -1    0    0  502    0 -0.00000000000E+00 -0.00000000000E+00 -0.21449246256E+04  0.21449246256E+04  0.00000000000E+00 0. -1.
        -24    2    1    2    0    0 -0.45082492443E+02 -0.47673367659E+02  0.59597108429E+02  0.11809658272E+03  0.78037211684E+02 0.  0.
         23    2    1    2    0    0  0.23513900899E+03 -0.17550104334E+03 -0.37944372587E+03  0.49003996643E+03  0.10035266726E+03 0.  0.
         13    1    3    3    0    0 -0.20691655474E+02 -0.11052646895E+02  0.69193871582E+02  0.73062284895E+02  0.00000000000E+00 0. -1.
        -14    1    3    3    0    0 -0.24390836969E+02 -0.36620720764E+02 -0.95967631522E+01  0.45034297822E+02  0.00000000000E+00 0.  1.
        -13    1    4    4    0    0  0.65265189615E+02  0.55740640074E+00 -0.73197778937E+02  0.98070232582E+02  0.00000000000E+00 0.  1.
         13    1    4    4    0    0  0.16987381938E+03 -0.17605844974E+03 -0.30624594693E+03  0.39196973384E+03  0.00000000000E+00 0. -1.
          2    1    1    2  501    0 -0.19005651655E+03  0.22317441100E+03 -0.16681531910E+04  0.16937128936E+04  0.00000000000E+00 0. -1.
<scales pt_clust_5="13000.00000" pt_clust_6="13000.00000" pt_clust_7="13000.00000" pt_clust_8="13000.00000" pt_clust_9="292.15537"></scales>
<clustering>
<clus scale="   78.037">  5  6 -1 -1</clus>
<clus scale="  100.353">  7  8 -1 -1</clus>
<clus scale="  101.956">  2  5  1 -1</clus>
<clus scale="  292.155">  1  9  2 -1</clus>
<clus scale="  292.155">  1  5  2 -1</clus>
</clustering>
</event>
<event>
 9    1  0.5981539E-005  0.2578215E+03  0.7546771E-02  0.1152155E+00
          3   -1    0    0  502    0 -0.00000000000E+00  0.00000000000E+00  0.27577960839E+03  0.27577960839E+03  0.00000000000E+00 0. -1.
         21   -1    0    0  501  502  0.00000000000E+00 -0.00000000000E+00 -0.32102783891E+03  0.32102783891E+03  0.00000000000E+00 0. -1.
        -24    2    1    2    0    0 -0.69714274933E+01  0.33172143814E+02  0.20344087877E+02  0.90490587763E+02  0.81398234844E+02 0.  0.
         23    2    1    2    0    0 -0.18221297341E+03 -0.17167159009E+03 -0.19253472929E+02  0.26731869477E+03  0.91738137282E+02 0.  0.
         11    1    3    3    0    0  0.33090884546E+02  0.11993515888E+02 -0.92184890884E+01  0.36384496760E+02  0.00000000000E+00 0. -1.
        -12    1    3    3    0    0 -0.40062312040E+02  0.21178627926E+02  0.29562576966E+02  0.54106091003E+02  0.00000000000E+00 0.  1.
        -13    1    4    4    0    0  0.29097734021E+01 -0.38202906596E+02 -0.52229568941E+01  0.38667921231E+02  0.00000000000E+00 0.  1.
         13    1    4    4    0    0 -0.18512274681E+03 -0.13346868350E+03 -0.14030516035E+02  0.22865077354E+03  0.00000000000E+00 0. -1.
          4    1    1    2  501    0  0.18918440090E+03  0.13849944628E+03 -0.46338845465E+02  0.23899816477E+03  0.00000000000E+00 0. -1.
<scales pt_clust_5="13000.00000" pt_clust_6="13000.00000" pt_clust_7="13000.00000" pt_clust_8="13000.00000" pt_clust_9="240.94826"></scales>
<clustering>
<clus scale="   81.398">  5  6 -1 -1</clus>
<clus scale="   88.174">  1  5  2 -1</clus>
<clus scale="   91.738">  7  8 -1 -1</clus>
<clus scale="  240.948">  2  9  1 -1</clus>
<clus scale="  240.948">  2  5  1 -1</clus>
</clustering>
</event>
<event>
 9    1  0.5981539E-005  0.2077716E+03  0.7546771E-02  0.1144267E+00
          1   -1    0    0  502    0 -0.00000000000E+00  0.00000000000E+00  0.81128289058E+03  0.81128289058E+03  0.00000000000E+00 0. -1.
         21   -1    0    0  501  502  0.00000000000E+00 -0.00000000000E+00 -0.60884425117E+02  0.60884425117E+02  0.00000000000E+00 0. -1.
         23    2    1    2    0    0 -0.79907733034E+02 -0.17280201139E+03  0.35126600036E+03  0.40981497029E+03  0.91185118996E+02 0.  0.
        -24    2    1    2    0    0  0.93593611479E+02  0.15764844965E+03  0.29663349320E+03  0.35783931779E+03  0.80279202010E+02 0.  0.
         11    1    4    4    0    0  0.52540275441E+02  0.13382986521E+03  0.26278127857E+03  0.29954117201E+03  0.00000000000E+00 0. -1.
        -12    1    4    4    0    0  0.41053336038E+02  0.23818584440E+02  0.33852214637E+02  0.58298145772E+02  0.00000000000E+00 0.  1.
        -11    1    3    3    0    0 -0.93474871651E+01 -0.12405221927E+03  0.22649682100E+03  0.25841272906E+03  0.00000000000E+00 0. -1.
         11    1    3    3    0    0 -0.70560245869E+02 -0.48749792125E+02  0.12476917937E+03  0.15140224123E+03  0.00000000000E+00 0.  1.
          2    1    1    2  501    0 -0.13685878445E+02  0.15153561737E+02  0.10249897190E+03  0.10451302762E+03  0.00000000000E+00 0. -1.
<scales pt_clust_5="13000.00000" pt_clust_6="13000.00000" pt_clust_7="13000.00000" pt_clust_8="13000.00000" pt_clust_9="20.41896"></scales>
<clustering>
<clus scale="   20.419">  2  9  1 -1</clus>
<clus scale="   80.279">  5  6 -1 -1</clus>
<clus scale="   91.185">  7  8 -1 -1</clus>
<clus scale="  203.222">  2  5  1 -1</clus>
<clus scale="   20.419">  2  5  1 -1</clus>
</clustering>
</event>
<event>
 9    1  0.5981539E-005  0.3251831E+03  0.7546771E-02  0.1073632E+00
          3   -1    0    0  502    0 -0.00000000000E+00  0.00000000000E+00  0.76521159285E+03  0.76521159285E+03  0.00000000000E+00 0. -1.
         21   -1    0    0  501  502  0.00000000000E+00 -0.00000000000E+00 -0.32617322997E+03  0.32617322997E+03  0.00000000000E+00 0.  1.
        -24    2    1    2    0    0  0.98802041300E+02  0.30128760364E+03  0.59093493169E+03  0.67525029942E+03  0.78884788837E+02 0.  0.
         23    2    1    2    0    0 -0.89437847897E+02 -0.27821397746E+03 -0.48454459387E+02  0.30973738835E+03  0.90483530086E+02 0.  0.
         13    1    3    3    0    0  0.82835773998E+02  0.28626623579E+03  0.57659590076E+03  0.64905543368E+03  0.00000000000E+00 0. -1.
        -14    1    3    3    0    0  0.15966267302E+02  0.15021367851E+02  0.14339030925E+02  0.26194865748E+02  0.00000000000E+00 0.  1.
        -11    1    4    4    0    0 -0.95017378752E+02 -0.15020953383E+03 -0.25161206294E+02  0.17951126042E+03  0.00000000000E+00 0.  1.
         11    1    4    4    0    0  0.55795308555E+01 -0.12800444364E+03 -0.23293253092E+02  0.13022612793E+03  0.00000000000E+00 0. -1.
          4    1    1    2  501    0 -0.93641934033E+01 -0.23073626179E+02 -0.10344210942E+03  0.10639713504E+03  0.00000000000E+00 0. -1.
<scales pt_clust_5="13000.00000" pt_clust_6="13000.00000" pt_clust_7="13000.00000" pt_clust_8="13000.00000" pt_clust_9="24.90141"></scales>
<clustering>
<clus scale="   24.901">  2  9  1 -1</clus>
<clus scale="   78.885">  5  6 -1 -1</clus>
<clus scale="   90.484">  7  8 -1 -1</clus>
<clus scale="  322.148">  1  5  2 -1</clus>
<clus scale="   24.901">  2  5  1 -1</clus>
</clustering>
</event>
<event>
 9    1  0.5981539E-005  0.1110512E+03  0.7546771E-02  0.1261353E+00
          1   -1    0    0  502    0 -0.00000000000E+00  0.00000000000E+00  0.74946397331E+03  0.74946397331E+03  0.00000000000E+00 0. -1.
         21   -1    0    0  501  502  0.00000000000E+00 -0.00000000000E+00 -0.30617867272E+02  0.30617867272E+02  0.00000000000E+00 0. -1.
         23    2    1    2    0    0 -0.33367870462E+02  0.26259403760E+02  0.28691547762E+03  0.30427716840E+03  0.91984416326E+02 0.  0.
        -24    2    1    2    0    0  0.28207865332E+02 -0.92923912732E+02  0.32527787156E+03  0.34992539289E+03  0.84920843376E+02 0.  0.
         13    1    4    4    0    0 -0.78236512910E+01 -0.51045582095E+02  0.60949850248E+02  0.79885826128E+02  0.00000000000E+00 0. -1.
        -14    1    4    4    0    0  0.36031516623E+02 -0.41878330637E+02  0.26432802131E+03  0.27003956676E+03  0.00000000000E+00 0.  1.
        -11    1    3    3    0    0  0.31278498819E+02  0.18101383051E+02  0.99934989095E+02  0.10626855886E+03  0.00000000000E+00 0.  1.
         11    1    3    3    0    0 -0.64646369281E+02  0.81580207093E+01  0.18698048853E+03  0.19800860954E+03  0.00000000000E+00 0. -1.
          2    1    1    2  501    0  0.51600051298E+01  0.66664508972E+02  0.10665275686E+03  0.12587927929E+03  0.00000000000E+00 0. -1.
<scales pt_clust_5="13000.00000" pt_clust_6="13000.00000" pt_clust_7="13000.00000" pt_clust_8="13000.00000" pt_clust_9="66.86391"></scales>
<clustering>
<clus scale="   66.864">  2  9  1 -1</clus>
<clus scale="   84.921">  5  6 -1 -1</clus>
<clus scale="   91.984">  7  8 -1 -1</clus>
<clus scale="  105.275">  2  5  1 -1</clus>
<clus scale="   66.864">  2  5  1 -1</clus>
</clustering>
</event>
<event>
 9    1  0.1734174E-004  0.1068445E+03  0.7546771E-02  0.1271554E+00
         21   -1    0    0  501  502  0.00000000000E+00  0.00000000000E+00  0.32621569567E+03  0.32621569567E+03  0.00000000000E+00 0. -1.
          1   -1    0    0  502    0 -0.00000000000E+00 -0.00000000000E+00 -0.24524748142E+03  0.24524748142E+03  0.00000000000E+00 0. -1.
         23    2    1    2    0    0  0.32928953274E+02  0.70941958648E+01 -0.21830579903E+03  0.23902415750E+03  0.91326241590E+02 0.  0.
        -24    2    1    2    0    0 -0.13662699461E+02  0.44174429953E+00  0.15030669747E+03  0.18204207778E+03  0.10178580589E+03 0.  0.
         11    1    4    4    0    0  0.30321173456E+02  0.34493135715E+02  0.54614519870E+02  0.71357520640E+02  0.00000000000E+00 0. -1.
        -12    1    4    4    0    0 -0.43983872917E+02 -0.34051391416E+02  0.95692177602E+02  0.11068455714E+03  0.00000000000E+00 0.  1.
        -13    1    3    3    0    0  0.22497575349E+02  0.47016879035E+02 -0.15434555920E+03  0.16290880717E+03  0.00000000000E+00 0. -1.
         13    1    3    3    0    0  0.10431377925E+02 -0.39922683170E+02 -0.63960239832E+02  0.76115350332E+02  0.00000000000E+00 0.  1.
          2    1    1    2  501    0 -0.19266253813E+02 -0.75359401643E+01  0.14896731581E+03  0.15039694182E+03  0.00000000000E+00 0. -1.
<scales pt_clust_5="13000.00000" pt_clust_6="13000.00000" pt_clust_7="13000.00000" pt_clust_8="13000.00000" pt_clust_9="20.68765"></scales>
<clustering>
<clus scale="   20.688">  1  9  2 -1</clus>
<clus scale="   91.326">  7  8 -1 -1</clus>
<clus scale="   96.932">  2  7  1 -1</clus>
<clus scale="  101.786">  5  6 -1 -1</clus>
<clus scale="   20.688">  1  5  2 -1</clus>
</clustering>
</event>
<event>
 9    1  0.5981539E-005  0.1134239E+03  0.7546771E-02  0.1259036E+00
         -2   -1    0    0    0  501 -0.00000000000E+00  0.00000000000E+00  0.45877876460E+03  0.45877876460E+03  0.00000000000E+00 0.  1.
         21   -1    0    0  501  502  0.00000000000E+00 -0.00000000000E+00 -0.11816859302E+03  0.11816859302E+03  0.00000000000E+00 0.  1.
        -24    2    1    2    0    0 -0.20027969461E+02  0.57037951015E+02  0.22357687044E+03  0.24504413131E+03  0.80034754174E+02 0.  0.
         23    2    1    2    0    0 -0.17264156532E+02 -0.78293656600E+02  0.20226840671E+03  0.23646984167E+03  0.92614955062E+02 0.  0.
         13    1    3    3    0    0  0.29199520419E+02  0.10367065827E+02  0.51821751975E+02  0.60378655370E+02  0.00000000000E+00 0. -1.
        -14    1    3    3    0    0 -0.49227489880E+02  0.46670885187E+02  0.17175511847E+03  0.18466547594E+03  0.00000000000E+00 0.  1.
        -13    1    4    4    0    0 -0.49541874291E+02 -0.48036478896E+02  0.75898226197E+02  0.10257895180E+03  0.00000000000E+00 0.  1.
         13    1    4    4    0    0  0.32277717759E+02 -0.30257177704E+02  0.12637018051E+03  0.13389088987E+03  0.00000000000E+00 0. -1.
         -1    1    1    2    0  502  0.37292125993E+02  0.21255705585E+02 -0.85235105581E+02  0.95433384643E+02  0.00000000000E+00 0.  1.
<scales pt_clust_5="13000.00000" pt_clust_6="13000.00000" pt_clust_7="13000.00000" pt_clust_8="13000.00000" pt_clust_9="42.92444"></scales>
<clustering>
<clus scale="   42.924">  2  9  1 -1</clus>
<clus scale="   80.035">  5  6 -1 -1</clus>
<clus scale="   92.615">  7  8 -1 -1</clus>
<clus scale="  103.407">  1  5  2 -1</clus>
<clus scale="   42.924">  2  5  1 -1</clus>
</clustering>
</event>
<event>
 9    1  0.5981539E-005  0.1214336E+03  0.7546771E-02  0.1244362E+00
         21   -1    0    0  501  502  0.00000000000E+00  0.00000000000E+00  0.56570411543E+03  0.56570411543E+03  0.00000000000E+00 0. -1.
         -2   -1    0    0    0  501 -0.00000000000E+00 -0.00000000000E+00 -0.57358183928E+03  0.57358183928E+03  0.00000000000E+00 0.  1.
         23    2    1    2    0    0 -0.78454442469E+02  0.73051467629E+01 -0.53222962940E+03  0.54578129124E+03  0.91653558228E+02 0.  0.
        -24    2    1    2    0    0  0.13594185812E+03  0.75611892524E+02  0.36754065827E+03  0.40703802937E+03  0.79977964403E+02 0.  0.
         11    1    4    4    0    0  0.13229482887E+03  0.87799370783E+02  0.35623837776E+03  0.39002106743E+03  0.00000000000E+00 0. -1.
        -12    1    4    4    0    0  0.36470292422E+01 -0.12187478259E+02  0.11302280518E+02  0.17016961936E+02  0.00000000000E+00 0.  1.
        -11    1    3    3    0    0 -0.32228001993E+02  0.47984843081E+02 -0.21525374545E+03  0.22287970793E+03  0.00000000000E+00 0. -1.
         11    1    3    3    0    0 -0.46226440476E+02 -0.40679696318E+02 -0.31697588396E+03  0.32290158331E+03  0.00000000000E+00 0.  1.
         -1    1    1    2    0  502 -0.57487415646E+02 -0.82917039287E+02  0.15681124728E+03  0.18646663411E+03  0.00000000000E+00 0.  1.
<scales pt_clust_5="13000.00000" pt_clust_6="13000.00000" pt_clust_7="13000.00000" pt_clust_8="13000.00000" pt_clust_9="100.89618"></scales>
<clustering>
<clus scale="   79.978">  5  6 -1 -1</clus>
<clus scale="   91.654">  7  8 -1 -1</clus>
<clus scale="  100.896">  1  9  2 -1</clus>
<clus scale="  112.881">  1  5  2 -1</clus>
<clus scale="  100.896">  1  5  2 -1</clus>
</clustering>
</event>
<event>
 9    1  0.5981539E-005  0.1505876E+03  0.7546771E-02  0.1231405E+00
          1   -1    0    0  502    0 -0.00000000000E+00  0.00000000000E+00  0.39053713382E+03  0.39053713382E+03  0.00000000000E+00 0. -1.
         21   -1    0    0  501  502  0.00000000000E+00 -0.00000000000E+00 -0.76851131457E+02  0.76851131457E+02  0.00000000000E+00 0.  1.
        -24    2    1    2    0    0 -0.10345704296E+02  0.11548621068E+02  0.74645091904E+02  0.10730140807E+03  0.75506941282E+02 0.  0.
         23    2    1    2    0    0 -0.74677604555E+01 -0.12402015750E+03  0.13737420226E+03  0.20743272005E+03  0.93380377960E+02 0.  0.
         13    1    3    3    0    0  0.64733790657E+00  0.38883265615E+02  0.16753349361E+02  0.42343855588E+02  0.00000000000E+00 0. -1.
        -14    1    3    3    0    0 -0.10993042203E+02 -0.27334644547E+02  0.57891742543E+02  0.64957552479E+02  0.00000000000E+00 0.  1.
        -13    1    4    4    0    0  0.24947384946E+02 -0.11994911505E+03  0.11301770814E+03  0.16668282626E+03  0.00000000000E+00 0.  1.
         13    1    4    4    0    0 -0.32415145401E+02 -0.40710424511E+01  0.24356494121E+02  0.40749893790E+02  0.00000000000E+00 0. -1.
          2    1    1    2  501    0  0.17813464752E+02  0.11247153644E+03  0.10166670819E+03  0.15265413715E+03  0.00000000000E+00 0. -1.
<scales pt_clust_5="13000.00000" pt_clust_6="13000.00000" pt_clust_7="13000.00000" pt_clust_8="13000.00000" pt_clust_9="118.13867"></scales>
<clustering>
<clus scale="   75.507">  5  6 -1 -1</clus>
<clus scale="   77.082">  1  5  2 -1</clus>
<clus scale="   93.380">  7  8 -1 -1</clus>
<clus scale="  118.139">  2  9  1 -1</clus>
<clus scale="  118.139">  2  5  1 -1</clus>
</clustering>
</event>
<event>
 9    1  0.5981539E-005  0.1371903E+03  0.7546771E-02  0.1237755E+00
         21   -1    0    0  501  502  0.00000000000E+00  0.00000000000E+00  0.13198349247E+03  0.13198349247E+03  0.00000000000E+00 0. -1.
          3   -1    0    0  502    0 -0.00000000000E+00 -0.00000000000E+00 -0.26896248371E+03  0.26896248371E+03  0.00000000000E+00 0. -1.
        -24    2    1    2    0    0 -0.34270850713E+02 -0.14293679084E+02 -0.77534821959E+02  0.11841646153E+03  0.81437149231E+02 0.  0.
         23    2    1    2    0    0 -0.45595463585E+02 -0.81770093476E+02  0.23881759752E+02  0.13236265078E+03  0.90466780561E+02 0.  0.
         11    1    3    3    0    0  0.26362897401E+02 -0.11590069433E+02 -0.25821292042E+02  0.38679079507E+02  0.00000000000E+00 0. -1.
        -12    1    3    3    0    0 -0.60633748113E+02 -0.27036096511E+01 -0.51713529917E+02  0.79737382023E+02  0.00000000000E+00 0.  1.
        -13    1    4    4    0    0  0.24622392624E+02 -0.43992916811E+02  0.76392928720E+01  0.50990173010E+02  0.00000000000E+00 0.  1.
         13    1    4    4    0    0 -0.70217856209E+02 -0.37777176665E+02  0.16242466880E+02  0.81372477766E+02  0.00000000000E+00 0. -1.
          4    1    1    2  501    0  0.79866314297E+02  0.96063772560E+02 -0.83325929029E+02  0.15016686388E+03  0.00000000000E+00 0. -1.
<scales pt_clust_5="13000.00000" pt_clust_6="13000.00000" pt_clust_7="13000.00000" pt_clust_8="13000.00000" pt_clust_9="103.13562"></scales>
<clustering>
<clus scale="   81.437">  5  6 -1 -1</clus>
<clus scale="   89.503">  2  5  1 -1</clus>
<clus scale="   90.467">  7  8 -1 -1</clus>
<clus scale="  103.136">  1  9  2 -1</clus>
<clus scale="  103.136">  1  5  2 -1</clus>
</clustering>
</event>
<event>
 9    1  0.5981539E-005  0.2508861E+03  0.7546771E-02  0.1136236E+00
         21   -1    0    0  501  502  0.00000000000E+00  0.00000000000E+00  0.12814544706E+03  0.12814544706E+03  0.00000000000E+00 0.  1.
         -2   -1    0    0    0  501 -0.00000000000E+00 -0.00000000000E+00 -0.90075604092E+03  0.90075604092E+03  0.00000000000E+00 0.  1.
        -24    2    1    2    0    0  0.48150457127E+01 -0.11453906262E+03 -0.23652162094E+03  0.27489343143E+03  0.80508011671E+02 0.  0.
         23    2    1    2    0    0  0.16391488156E+03 -0.90264805441E+02 -0.41448139993E+03  0.46211284498E+03  0.82083050041E+02 0.  0.
         11    1    3    3    0    0  0.29998274392E+02 -0.33226172187E+02 -0.37371770329E+02  0.58314013772E+02  0.00000000000E+00 0. -1.
        -12    1    3    3    0    0 -0.25183228679E+02 -0.81312890436E+02 -0.19914985061E+03  0.21657941766E+03  0.00000000000E+00 0.  1.
        -13    1    4    4    0    0  0.12669741601E+03 -0.10459936693E+03 -0.34052659664E+03  0.37808944154E+03  0.00000000000E+00 0.  1.
         13    1    4    4    0    0  0.37217465555E+02  0.14334561485E+02 -0.73954803298E+02  0.84023403443E+02  0.00000000000E+00 0. -1.
         -1    1    1    2    0  502 -0.16872992727E+03  0.20480386806E+03 -0.12160757299E+03  0.29189521157E+03  0.00000000000E+00 0.  1.
<scales pt_clust_5="13000.00000" pt_clust_6="13000.00000" pt_clust_7="13000.00000" pt_clust_8="13000.00000" pt_clust_9="237.07845"></scales>
<clustering>
<clus scale="   80.508">  5  6 -1 -1</clus>
<clus scale="   82.083">  7  8 -1 -1</clus>
<clus scale="  140.085">  2  5  1 -1</clus>
<clus scale="  237.078">  1  9  2 -1</clus>
<clus scale="  237.078">  1  5  2 -1</clus>
</clustering>
</event>
<event>
 9    1  0.5981539E-005  0.9709437E+02  0.7546771E-02  0.1291630E+00
          3   -1    0    0  502    0 -0.00000000000E+00  0.00000000000E+00  0.24455500194E+03  0.24455500194E+03  0.00000000000E+00 0. -1.
         21   -1    0    0  501  502  0.00000000000E+00 -0.00000000000E+00 -0.98674954926E+02  0.98674954926E+02  0.00000000000E+00 0.  1.
        -24    2    1    2    0    0 -0.12206905220E+02 -0.24035955906E+02  0.89046478563E+02  0.12365871238E+03  0.81458370302E+02 0.  0.
         23    2    1    2    0    0  0.35966319841E+02  0.54496066333E+02 -0.37124843883E+02  0.11798132688E+03  0.90983196528E+02 0.  0.
         11    1    3    3    0    0 -0.27987571752E+02  0.14199404793E+02  0.72695055303E+02  0.79180163770E+02  0.00000000000E+00 0. -1.
        -12    1    3    3    0    0  0.15780666533E+02 -0.38235360699E+02  0.16351423260E+02  0.44478548612E+02  0.00000000000E+00 0.  1.
        -13    1    4    4    0    0  0.49134660699E+02  0.36478437117E+01  0.65066876223E+01  0.49697672275E+02  0.00000000000E+00 0. -1.
         13    1    4    4    0    0 -0.13168340858E+02  0.50848222622E+02 -0.43631531505E+02  0.68283654605E+02  0.00000000000E+00 0.  1.
          4    1    1    2  501    0 -0.23759414622E+02 -0.30460110427E+02  0.93958412336E+02  0.10158991761E+03  0.00000000000E+00 0. -1.
<scales pt_clust_5="13000.00000" pt_clust_6="13000.00000" pt_clust_7="13000.00000" pt_clust_8="13000.00000" pt_clust_9="38.63068"></scales>
<clustering>
<clus scale="   38.631">  2  9  1 -1</clus>
<clus scale="   81.458">  5  6 -1 -1</clus>
<clus scale="   88.232">  1  5  2 -1</clus>
<clus scale="   90.983">  7  8 -1 -1</clus>
<clus scale="   38.631">  2  5  1 -1</clus>
</clustering>
</event>
<event>
 9    1  0.5981539E-005  0.1066085E+03  0.7546771E-02  0.1271948E+00
          1   -1    0    0  502    0 -0.00000000000E+00  0.00000000000E+00  0.14962743890E+03  0.14962743890E+03  0.00000000000E+00 0. -1.
         21   -1    0    0  501  502  0.00000000000E+00 -0.00000000000E+00 -0.12586617475E+03  0.12586617475E+03  0.00000000000E+00 0. -1.
         23    2    1    2    0    0 -0.12219340997E+02  0.26378875885E+02 -0.39081457003E+01  0.96636881377E+02  0.92077444861E+02 0.  0.
        -24    2    1    2    0    0  0.63902362422E+02 -0.53512730864E+02  0.43659681015E+01  0.11600427657E+03  0.80565539888E+02 0.  0.
         13    1    4    4    0    0  0.61531298494E+02 -0.17828646872E+02  0.31236353711E+02  0.71271811656E+02  0.00000000000E+00 0. -1.
        -14    1    4    4    0    0  0.23710639284E+01 -0.35684083992E+02 -0.26870385609E+02  0.44732464914E+02  0.00000000000E+00 0.  1.
        -13    1    3    3    0    0  0.37527895644E+02  0.20909260241E+01 -0.14476304426E+02  0.40277516221E+02  0.00000000000E+00 0. -1.
         13    1    3    3    0    0 -0.49747236642E+02  0.24287949861E+02  0.10568158726E+02  0.56359365156E+02  0.00000000000E+00 0.  1.
          2    1    1    2  501    0 -0.51683021425E+02  0.27133854979E+02  0.23303441750E+02  0.62852455696E+02  0.00000000000E+00 0. -1.
<scales pt_clust_5="13000.00000" pt_clust_6="13000.00000" pt_clust_7="13000.00000" pt_clust_8="13000.00000" pt_clust_9="58.37280"></scales>
<clustering>
<clus scale="   58.373">  2  9  1 -1</clus>
<clus scale="   80.566">  5  6 -1 -1</clus>
<clus scale="   92.077">  7  8 -1 -1</clus>
<clus scale="   96.840">  2  5  1 -1</clus>
<clus scale="   58.373">  2  5  1 -1</clus>
</clustering>
</event>
<event>
 9    1  0.5981539E-005  0.1477397E+03  0.7546771E-02  0.1205271E+00
         -2   -1    0    0    0  501 -0.00000000000E+00  0.00000000000E+00  0.23646624712E+03  0.23646624712E+03  0.00000000000E+00 0.  1.
         21   -1    0    0  501  502  0.00000000000E+00 -0.00000000000E+00 -0.23690849647E+03  0.23690849647E+03  0.00000000000E+00 0. -1.
        -24    2    1    2    0    0 -0.31821745053E+02  0.14438140335E+03  0.14527816876E+02  0.16920442301E+03  0.80996704936E+02 0.  0.
         23    2    1    2    0    0  0.58709222693E+02 -0.44515848106E+02 -0.11206736961E+03  0.16231140511E+03  0.91419162848E+02 0.  0.
         13    1    3    3    0    0 -0.58312679668E+02  0.84560063557E+02  0.29218829335E+01  0.10275850504E+03  0.00000000000E+00 0. -1.
        -14    1    3    3    0    0  0.26490934615E+02  0.59821339793E+02  0.11605933943E+02  0.66445917964E+02  0.00000000000E+00 0.  1.
        -11    1    4    4    0    0 -0.21207164870E+02 -0.26306581932E+02 -0.20972544072E+02  0.39769683173E+02  0.00000000000E+00 0.  1.
         11    1    4    4    0    0  0.79916387563E+02 -0.18209266174E+02 -0.91094825535E+02  0.12254172194E+03  0.00000000000E+00 0. -1.
         -1    1    1    2    0  502 -0.26887477639E+02 -0.99865555245E+02  0.97097303381E+02  0.14185891548E+03  0.00000000000E+00 0.  1.
<scales pt_clust_5="13000.00000" pt_clust_6="13000.00000" pt_clust_7="13000.00000" pt_clust_8="13000.00000" pt_clust_9="103.42184"></scales>
<clustering>
<clus scale="   80.997">  5  6 -1 -1</clus>
<clus scale="   91.419">  7  8 -1 -1</clus>
<clus scale="  103.422">  2  9  1 -1</clus>
<clus scale="  141.528">  1  5  2 -1</clus>
<clus scale="  103.422">  2  5  1 -1</clus>
</clustering>
</event>
<event>
 9    1  0.5981539E-005  0.1038499E+03  0.7546771E-02  0.1278138E+00
         21   -1    0    0  501  502  0.00000000000E+00  0.00000000000E+00  0.13867375587E+02  0.13867375587E+02  0.00000000000E+00 0.  1.
         -4   -1    0    0    0  501 -0.00000000000E+00 -0.00000000000E+00 -0.16413248237E+04  0.16413248237E+04  0.00000000000E+00 0.  1.
        -24    2    1    2    0    0  0.42041720884E+02  0.32175809128E+01 -0.11785066829E+04  0.11820535120E+04  0.81207417064E+02 0.  0.
         23    2    1    2    0    0 -0.56469051094E+02 -0.31491829573E+02 -0.38971594682E+03  0.40593493211E+03  0.93403216409E+02 0.  0.
         13    1    3    3    0    0  0.11969891120E+02 -0.20577638608E+02 -0.97403249929E+02  0.10027018800E+03  0.00000000000E+00 0. -1.
        -14    1    3    3    0    0  0.30071829765E+02  0.23795219521E+02 -0.10811034330E+04  0.10817833240E+04  0.00000000000E+00 0.  1.
        -13    1    4    4    0    0 -0.67168792030E+02 -0.64739857640E+01 -0.35728319660E+03  0.36359983731E+03  0.00000000000E+00 0. -1.
         13    1    4    4    0    0  0.10699740936E+02 -0.25017843809E+02 -0.32432750219E+02  0.42335094800E+02  0.00000000000E+00 0.  1.
         -3    1    1    2    0  502  0.14427330210E+02  0.28274248660E+02 -0.59234818406E+02  0.67203755147E+02  0.00000000000E+00 0.  1.
<scales pt_clust_5="13000.00000" pt_clust_6="13000.00000" pt_clust_7="13000.00000" pt_clust_8="13000.00000" pt_clust_9="31.74242"></scales>
<clustering>
<clus scale="   31.742">  1  9  2 -1</clus>
<clus scale="   81.207">  5  6 -1 -1</clus>
<clus scale="   93.034">  2  5  1 -1</clus>
<clus scale="   93.403">  7  8 -1 -1</clus>
<clus scale="   31.742">  1  5  2 -1</clus>
</clustering>
</event>
<event>
 9    1  0.5981539E-005  0.1185572E+03  0.7546771E-02  0.1250528E+00
         21   -1    0    0  501  502  0.00000000000E+00  0.00000000000E+00  0.11817924422E+03  0.11817924422E+03  0.00000000000E+00 0.  1.
          3   -1    0    0  502    0 -0.00000000000E+00 -0.00000000000E+00 -0.38319788002E+03  0.38319788002E+03  0.00000000000E+00 0. -1.
         23    2    1    2    0    0 -0.56954075744E+02  0.45726008892E+01 -0.18376274049E+03  0.21392805476E+03  0.93444060260E+02 0.  0.
        -24    2    1    2    0    0  0.13385293295E+03 -0.73534554521E+02 -0.40688765988E+02  0.17647665277E+03  0.78514297584E+02 0.  0.
         13    1    4    4    0    0  0.26992544009E+01 -0.21969095718E+02 -0.26961162857E+02  0.34883111151E+02  0.00000000000E+00 0. -1.
        -14    1    4    4    0    0  0.13115367855E+03 -0.51565458803E+02 -0.13727603132E+02  0.14159354162E+03  0.00000000000E+00 0.  1.
        -11    1    3    3    0    0 -0.46780859724E+02 -0.38706118544E+02 -0.13450227479E+03  0.14757192948E+03  0.00000000000E+00 0. -1.
         11    1    3    3    0    0 -0.10173216020E+02  0.43278719433E+02 -0.49260465702E+02  0.66356125272E+02  0.00000000000E+00 0.  1.
          4    1    1    2  501    0 -0.76898857211E+02  0.68961953632E+02 -0.40567129326E+02  0.11097241671E+03  0.00000000000E+00 0. -1.
<scales pt_clust_5="13000.00000" pt_clust_6="13000.00000" pt_clust_7="13000.00000" pt_clust_8="13000.00000" pt_clust_9="103.29175"></scales>
<clustering>
<clus scale="   78.514">  5  6 -1 -1</clus>
<clus scale="   93.444">  7  8 -1 -1</clus>
<clus scale="  103.292">  1  9  2 -1</clus>
<clus scale="  107.185">  1  5  2 -1</clus>
<clus scale="  103.292">  1  5  2 -1</clus>
</clustering>
</event>
<event>
 9    1  0.5981539E-005  0.1057479E+03  0.7546771E-02  0.1270187E+00
          3   -1    0    0  502    0 -0.00000000000E+00  0.00000000000E+00  0.60552747593E+02  0.60552747593E+02  0.00000000000E+00 0. -1.
         21   -1    0    0  501  502  0.00000000000E+00 -0.00000000000E+00 -0.29168479809E+03  0.29168479809E+03  0.00000000000E+00 0.  1.
         23    2    1    2    0    0 -0.67420499057E+02 -0.19203737062E+02 -0.33950611318E+02  0.11568582462E+03  0.85535131958E+02 0.  0.
        -24    2    1    2    0    0  0.36415175158E+02  0.25552010115E+02 -0.17408066980E+03  0.19736911999E+03  0.81679371479E+02 0.  0.
         11    1    4    4    0    0 -0.89925131406E+01  0.36116023871E+02 -0.12161601249E+03  0.12718367413E+03  0.00000000000E+00 0. -1.
        -12    1    4    4    0    0  0.45407688299E+02 -0.10564013756E+02 -0.52464657314E+02  0.70185445859E+02  0.00000000000E+00 0.  1.
        -11    1    3    3    0    0 -0.87809961498E+02 -0.13774211107E+02 -0.22536023487E+02  0.91696186314E+02  0.00000000000E+00 0. -1.
         11    1    3    3    0    0  0.20389462441E+02 -0.54295259553E+01 -0.11414587830E+02  0.23989638306E+02  0.00000000000E+00 0.  1.
          4    1    1    2  501    0  0.31005323898E+02 -0.63482730526E+01 -0.23100769375E+02  0.39182601069E+02  0.00000000000E+00 0. -1.
<scales pt_clust_5="13000.00000" pt_clust_6="13000.00000" pt_clust_7="13000.00000" pt_clust_8="13000.00000" pt_clust_9="31.64857"></scales>
<clustering>
<clus scale="   31.649">  2  9  1 -1</clus>
<clus scale="   81.679">  5  6 -1 -1</clus>
<clus scale="   85.535">  7  8 -1 -1</clus>
<clus scale="  102.654">  2  5  1 -1</clus>
<clus scale="   31.649">  2  5  1 -1</clus>
</clustering>
</event>
<event>
 9    1  0.5981539E-005  0.6110483E+03  0.7546771E-02  0.1055097E+00
         -4   -1    0    0    0  501 -0.00000000000E+00  0.00000000000E+00  0.12183989139E+04  0.12183989139E+04  0.00000000000E+00 0.  1.
         21   -1    0    0  501  502  0.00000000000E+00 -0.00000000000E+00 -0.42408585684E+03  0.42408585684E+03  0.00000000000E+00 0.  1.
        -24    2    1    2    0    0  0.10281193587E+01  0.13341968762E+02  0.27033781453E+03  0.28227258271E+03  0.80101259817E+02 0.  0.
         23    2    1    2    0    0 -0.38231838484E+03  0.45980332456E+03  0.43698201975E+03  0.74635833248E+03  0.92255244855E+02 0.  0.
         11    1    3    3    0    0  0.28486052886E+02 -0.10213819353E+02  0.46166139383E+02  0.55200450545E+02  0.00000000000E+00 0. -1.
        -12    1    3    3    0    0 -0.27457933527E+02  0.23555788116E+02  0.22417167514E+03  0.22707213216E+03  0.00000000000E+00 0.  1.
        -13    1    4    4    0    0 -0.78418998307E+02  0.52050006934E+02  0.45266632520E+02  0.10444046408E+03  0.00000000000E+00 0. -1.
         13    1    4    4    0    0 -0.30389938653E+03  0.40775331763E+03  0.39171538723E+03  0.64191786840E+03  0.00000000000E+00 0.  1.
         -3    1    1    2    0  502  0.38129026548E+03 -0.47314529332E+03  0.86993222759E+02  0.61385385553E+03  0.00000000000E+00 0.  1.
<scales pt_clust_5="13000.00000" pt_clust_6="13000.00000" pt_clust_7="13000.00000" pt_clust_8="13000.00000" pt_clust_9="604.04385"></scales>
<clustering>
<clus scale="   80.101">  5  6 -1 -1</clus>
<clus scale="   81.211">  1  5  2 -1</clus>
<clus scale="   92.255">  7  8 -1 -1</clus>
<clus scale="  604.044">  2  9  1 -1</clus>
<clus scale="  604.044">  2  5  1 -1</clus>
</clustering>
</event>
<event>
 9    1  0.5981539E-005  0.1917409E+03  0.7546771E-02  0.1193723E+00
          1   -1    0    0  502    0 -0.00000000000E+00  0.00000000000E+00  0.32642833019E+03  0.32642833019E+03  0.00000000000E+00 0. -1.
         21   -1    0    0  501  502  0.00000000000E+00 -0.00000000000E+00 -0.39334199400E+03  0.39334199400E+03  0.00000000000E+00 0. -1.
        -24    2    1    2    0    0 -0.19439997027E+02 -0.14210454970E+02  0.12338054462E+03  0.14882099603E+03  0.79656007647E+02 0.  0.
         23    2    1    2    0    0  0.40873457145E+02 -0.14509529457E+03  0.12100337539E+03  0.22060107180E+03  0.10630019764E+03 0.  0.
         11    1    3    3    0    0  0.66867489906E+01 -0.29516682069E+02  0.11273076027E+03  0.11672262610E+03  0.00000000000E+00 0. -1.
        -12    1    3    3    0    0 -0.26126746018E+02  0.15306227100E+02  0.10649784346E+02  0.32098369929E+02  0.00000000000E+00 0.  1.
        -13    1    4    4    0    0  0.39823734630E+02 -0.51706572633E+02  0.10816302619E+03  0.12632790558E+03  0.00000000000E+00 0.  1.
         13    1    4    4    0    0  0.10497225146E+01 -0.93388721933E+02  0.12840349201E+02  0.94273166220E+02  0.00000000000E+00 0. -1.
          2    1    1    2  501    0 -0.21433460118E+02  0.15930574954E+03 -0.31129758381E+03  0.35034825636E+03  0.00000000000E+00 0. -1.
<scales pt_clust_5="13000.00000" pt_clust_6="13000.00000" pt_clust_7="13000.00000" pt_clust_8="13000.00000" pt_clust_9="159.57703"></scales>
<clustering>
<clus scale="   79.656">  5  6 -1 -1</clus>
<clus scale="   83.216">  1  5  2 -1</clus>
<clus scale="  106.300">  7  8 -1 -1</clus>
<clus scale="  159.577">  2  9  1 -1</clus>
<clus scale="  159.577">  2  5  1 -1</clus>
</clustering>
</event>
<event>
 9    1  0.5981539E-005  0.1881688E+03  0.7546771E-02  0.1182845E+00
         21   -1    0    0  501  502  0.00000000000E+00  0.00000000000E+00  0.85999130153E+02  0.85999130153E+02  0.00000000000E+00 0. -1.
         -2   -1    0    0    0  501 -0.00000000000E+00 -0.00000000000E+00 -0.67831132780E+03  0.67831132780E+03  0.00000000000E+00 0.  1.
         23    2    1    2    0    0  0.39606910436E+02  0.51115609139E+02 -0.14607476313E+03  0.18409877262E+03  0.91504146387E+02 0.  0.
        -24    2    1    2    0    0 -0.13806838634E+03 -0.15471553037E+03 -0.29964027003E+03  0.37547201025E+03  0.90527147402E+02 0.  0.
         11    1    4    4    0    0 -0.10069652139E+03 -0.15529738554E+03 -0.27193773096E+03  0.32894862349E+03  0.00000000000E+00 0. -1.
        -12    1    4    4    0    0 -0.37371864942E+02  0.58185517613E+00 -0.27702539070E+02  0.46523386760E+02  0.00000000000E+00 0.  1.
        -11    1    3    3    0    0 -0.17875253798E+02  0.20630329742E+02 -0.36818745586E+01  0.27544353394E+02  0.00000000000E+00 0. -1.
         11    1    3    3    0    0  0.57482164233E+02  0.30485279397E+02 -0.14239288857E+03  0.15655441923E+03  0.00000000000E+00 0.  1.
         -1    1    1    2    0  502  0.98461475901E+02  0.10359992123E+03 -0.14659716448E+03  0.20473967508E+03  0.00000000000E+00 0.  1.
<scales pt_clust_5="13000.00000" pt_clust_6="13000.00000" pt_clust_7="13000.00000" pt_clust_8="13000.00000" pt_clust_9="164.96159"></scales>
<clustering>
<clus scale="   90.527">  5  6 -1 -1</clus>
<clus scale="   91.504">  7  8 -1 -1</clus>
<clus scale="  112.047">  2  7  1 -1</clus>
<clus scale="  164.962">  1  9  2 -1</clus>
<clus scale="  164.962">  1  5  2 -1</clus>
</clustering>
</event>
<event>
 9    1  0.5981539E-005  0.1118440E+03  0.7546771E-02  0.1259199E+00
         -2   -1    0    0    0  501 -0.00000000000E+00  0.00000000000E+00  0.40351060079E+02  0.40351060079E+02  0.00000000000E+00 0.  1.
         21   -1    0    0  501  502  0.00000000000E+00 -0.00000000000E+00 -0.42151880006E+03  0.42151880006E+03  0.00000000000E+00 0. -1.
        -24    2    1    2    0    0 -0.81917075435E+01 -0.50579504077E+02 -0.15510986991E+03  0.18351144838E+03  0.83618117872E+02 0.  0.
         23    2    1    2    0    0  0.22464005597E+02  0.84515658805E+02 -0.18519953646E+03  0.22336055258E+03  0.89126539329E+02 0.  0.
         11    1    3    3    0    0  0.25980134978E+02 -0.51919004731E+02 -0.12549182662E+03  0.13827056452E+03  0.00000000000E+00 0. -1.
        -12    1    3    3    0    0 -0.34171842521E+02  0.13395006545E+01 -0.29618043293E+02  0.45240883853E+02  0.00000000000E+00 0.  1.
        -13    1    4    4    0    0 -0.12802419297E+02  0.88296158266E+02 -0.12705137304E+03  0.15524871947E+03  0.00000000000E+00 0. -1.
         13    1    4    4    0    0  0.35266424894E+02 -0.37804994610E+01 -0.58148163416E+02  0.68111833110E+02  0.00000000000E+00 0.  1.
         -1    1    1    2    0  502 -0.14272298053E+02 -0.33936154728E+02 -0.40858333613E+02  0.54997859186E+02  0.00000000000E+00 0.  1.
<scales pt_clust_5="13000.00000" pt_clust_6="13000.00000" pt_clust_7="13000.00000" pt_clust_8="13000.00000" pt_clust_9="36.81525"></scales>
<clustering>
<clus scale="   36.815">  2  9  1 -1</clus>
<clus scale="   83.618">  5  6 -1 -1</clus>
<clus scale="   89.127">  7  8 -1 -1</clus>
<clus scale="  107.506">  1  5  2 -1</clus>
<clus scale="   36.815">  2  5  1 -1</clus>
</clustering>
</event>
<event>
 9    1  0.5981539E-005  0.2332324E+03  0.7546771E-02  0.1124867E+00
         21   -1    0    0  501  502  0.00000000000E+00  0.00000000000E+00  0.99361663098E+03  0.99361663098E+03  0.00000000000E+00 0.  1.
         -4   -1    0    0    0  501 -0.00000000000E+00 -0.00000000000E+00 -0.92029237761E+02  0.92029237761E+02  0.00000000000E+00 0.  1.
        -24    2    1    2    0    0 -0.25038473088E+03 -0.54707556852E+02  0.22411405095E+03  0.35065055609E+03  0.83924218310E+02 0.  0.
         23    2    1    2    0    0  0.14535510407E+03  0.51980977027E+02  0.40292567726E+03  0.44103089795E+03  0.91263482837E+02 0.  0.
         11    1    3    3    0    0 -0.28620157903E+02  0.86377943902E+01  0.12340701648E+01  0.29920692831E+02  0.00000000000E+00 0. -1.
        -12    1    3    3    0    0 -0.22176457298E+03 -0.63345351243E+02  0.22287998079E+03  0.32072986326E+03  0.00000000000E+00 0.  1.
        -13    1    4    4    0    0  0.12033386755E+03  0.70171550336E+02  0.26178075338E+03  0.29653574657E+03  0.00000000000E+00 0.  1.
         13    1    4    4    0    0  0.25021236520E+02 -0.18190573308E+02  0.14114492388E+03  0.14449515137E+03  0.00000000000E+00 0. -1.
         -3    1    1    2    0  502  0.10502962682E+03  0.27265798252E+01  0.27454766502E+03  0.29396441470E+03  0.00000000000E+00 0.  1.
<scales pt_clust_5="13000.00000" pt_clust_6="13000.00000" pt_clust_7="13000.00000" pt_clust_8="13000.00000" pt_clust_9="105.06501"></scales>
<clustering>
<clus scale="   83.924">  5  6 -1 -1</clus>
<clus scale="   91.263">  7  8 -1 -1</clus>
<clus scale="  105.065">  1  9  2 -1</clus>
<clus scale="  230.460">  2  5  1 -1</clus>
<clus scale="  105.065">  1  5  2 -1</clus>
</clustering>
</event>
<event>
 9    1  0.5981539E-005  0.1557315E+03  0.7546771E-02  0.1195753E+00
          1   -1    0    0  502    0 -0.00000000000E+00  0.00000000000E+00  0.37738607977E+03  0.37738607977E+03  0.00000000000E+00 0. -1.
         21   -1    0    0  501  502  0.00000000000E+00 -0.00000000000E+00 -0.19692417676E+03  0.19692417676E+03  0.00000000000E+00 0.  1.
         23    2    1    2    0    0 -0.81691450815E+02  0.94623789358E+02  0.15396410477E+03  0.21815277670E+03  0.90876475363E+02 0.  0.
        -24    2    1    2    0    0 -0.16727573714E+02 -0.17319152699E+03 -0.63961817298E+02  0.20110221282E+03  0.77947861957E+02 0.  0.
         13    1    4    4    0    0 -0.16080525936E+02 -0.31967685002E+02  0.15567088223E+02  0.39023716308E+02  0.00000000000E+00 0. -1.
        -14    1    4    4    0    0 -0.64704777852E+00 -0.14122384199E+03 -0.79528905521E+02  0.16207849651E+03  0.00000000000E+00 0.  1.
        -11    1    3    3    0    0 -0.37716838919E+02 -0.14718945129E+01  0.82078580270E+02  0.90341683351E+02  0.00000000000E+00 0.  1.
         11    1    3    3    0    0 -0.43974611896E+02  0.96095683870E+02  0.71885524504E+02  0.12781109335E+03  0.00000000000E+00 0. -1.
          2    1    1    2  501    0  0.98419024529E+02  0.78567737636E+02  0.90459615528E+02  0.15505526701E+03  0.00000000000E+00 0. -1.
<scales pt_clust_5="13000.00000" pt_clust_6="13000.00000" pt_clust_7="13000.00000" pt_clust_8="13000.00000" pt_clust_9="125.93335"></scales>
<clustering>
<clus scale="   77.948">  5  6 -1 -1</clus>
<clus scale="   90.876">  7  8 -1 -1</clus>
<clus scale="  125.933">  2  9  1 -1</clus>
<clus scale="  148.559">  2  5  1 -1</clus>
<clus scale="  125.933">  2  5  1 -1</clus>
</clustering>
</event>
<event>
 9    1  0.5981539E-005  0.1591829E+03  0.7546771E-02  0.1191208E+00
         21   -1    0    0  501  502  0.00000000000E+00  0.00000000000E+00  0.13715945937E+03  0.13715945937E+03  0.00000000000E+00 0.  1.
          1   -1    0    0  502    0 -0.00000000000E+00 -0.00000000000E+00 -0.37073407405E+03  0.37073407405E+03  0.00000000000E+00 0. -1.
        -24    2    1    2    0    0 -0.98694139020E+02  0.93195894116E+02 -0.21590717692E+03  0.26735546839E+03  0.80231101693E+02 0.  0.
         23    2    1    2    0    0  0.31567603421E+02 -0.12872228116E+03  0.74763264694E+01  0.16053615981E+03  0.90277482774E+02 0.  0.
         11    1    3    3    0    0 -0.45996404320E+02  0.84764470340E+02 -0.95846147808E+02  0.13596752808E+03  0.00000000000E+00 0. -1.
        -12    1    3    3    0    0 -0.52697734700E+02  0.84314237757E+01 -0.12006102911E+03  0.13138794031E+03  0.00000000000E+00 0.  1.
        -11    1    4    4    0    0 -0.23612891373E+02 -0.67846211299E+02 -0.18829572182E+02  0.74264593281E+02  0.00000000000E+00 0.  1.
         11    1    4    4    0    0  0.55180494794E+02 -0.60876069861E+02  0.26305898651E+02  0.86271566529E+02  0.00000000000E+00 0. -1.
          2    1    1    2  501    0  0.67126535600E+02  0.35526387044E+02 -0.25143764235E+02  0.80001905214E+02  0.00000000000E+00 0. -1.
<scales pt_clust_5="13000.00000" pt_clust_6="13000.00000" pt_clust_7="13000.00000" pt_clust_8="13000.00000" pt_clust_9="75.94798"></scales>
<clustering>
<clus scale="   75.948">  1  9  2 -1</clus>
<clus scale="   80.231">  5  6 -1 -1</clus>
<clus scale="   90.277">  7  8 -1 -1</clus>
<clus scale="  153.708">  2  5  1 -1</clus>
<clus scale="   75.948">  1  5  2 -1</clus>
</clustering>
</event>
<event>
 9    1  0.5981539E-005  0.1019185E+03  0.7546771E-02  0.1284485E+00
          1   -1    0    0  502    0 -0.00000000000E+00  0.00000000000E+00  0.49711807363E+03  0.49711807363E+03  0.00000000000E+00 0. -1.
         21   -1    0    0  501  502  0.00000000000E+00 -0.00000000000E+00 -0.35521862908E+02  0.35521862908E+02  0.00000000000E+00 0. -1.
         23    2    1    2    0    0  0.35095336422E+02 -0.33129936082E+02  0.37050503117E+03  0.38523523305E+03  0.93823938092E+02 0.  0.
        -24    2    1    2    0    0 -0.36934826706E+01  0.17854336326E+02  0.53143960063E+02  0.95835217994E+02  0.77638195348E+02 0.  0.
         13    1    4    4    0    0  0.19165451004E+02 -0.22854726662E+02  0.79774401412E+01  0.30875436745E+02  0.00000000000E+00 0. -1.
        -14    1    4    4    0    0 -0.22858933675E+02  0.40709062988E+02  0.45166519922E+02  0.64959781249E+02  0.00000000000E+00 0.  1.
        -13    1    3    3    0    0 -0.43414654388E+01  0.30334059428E+02  0.11720807743E+03  0.12114758313E+03  0.00000000000E+00 0.  1.
         13    1    3    3    0    0  0.39436801861E+02 -0.63463995510E+02  0.25329695374E+03  0.26408764992E+03  0.00000000000E+00 0. -1.
          2    1    1    2  501    0 -0.31401853752E+02  0.15275599756E+02  0.37947219491E+02  0.51569485493E+02  0.00000000000E+00 0. -1.
<scales pt_clust_5="13000.00000" pt_clust_6="13000.00000" pt_clust_7="13000.00000" pt_clust_8="13000.00000" pt_clust_9="34.92020"></scales>
<clustering>
<clus scale="   34.920">  2  9  1 -1</clus>
<clus scale="   77.638">  5  6 -1 -1</clus>
<clus scale="   87.248">  2  5  1 -1</clus>
<clus scale="   93.824">  7  8 -1 -1</clus>
<clus scale="   34.920">  2  5  1 -1</clus>
</clustering>
</event>
<event>
 9    1  0.9390663E-005  0.1146615E+03  0.7546771E-02  0.1255666E+00
          1   -1    0    0  502    0 -0.00000000000E+00  0.00000000000E+00  0.67295962724E+03  0.67295962724E+03  0.00000000000E+00 0. -1.
         21   -1    0    0  501  502  0.00000000000E+00 -0.00000000000E+00 -0.88084425680E+02  0.88084425680E+02  0.00000000000E+00 0. -1.
        -24    2    1    2    0    0  0.36563074976E+02  0.60034214893E+02  0.55796470581E+03  0.56828902644E+03  0.81773096009E+02 0.  0.
         23    2    1    2    0    0  0.71643626928E+01 -0.61708459488E+02 -0.35771440238E+02  0.11630950994E+03  0.91591725067E+02 0.  0.
         11    1    3    3    0    0  0.51414856476E+02  0.71754043006E+02  0.43367471351E+03  0.44256738165E+03  0.00000000000E+00 0. -1.
        -12    1    3    3    0    0 -0.14851781500E+02 -0.11719828113E+02  0.12428999230E+03  0.12572164480E+03  0.00000000000E+00 0.  1.
        -13    1    4    4    0    0 -0.10986420507E+02  0.17692019319E+02  0.97588323363E+01  0.22998778048E+02  0.00000000000E+00 0.  1.
         13    1    4    4    0    0  0.18150783200E+02 -0.79400478806E+02 -0.45530272575E+02  0.93310731892E+02  0.00000000000E+00 0. -1.
          2    1    1    2  501    0 -0.43727437669E+02  0.16742445943E+01  0.62681935989E+02  0.76445516542E+02  0.00000000000E+00 0. -1.
<scales pt_clust_5="13000.00000" pt_clust_6="13000.00000" pt_clust_7="13000.00000" pt_clust_8="13000.00000" pt_clust_9="43.75950"></scales>
<clustering>
<clus scale="   43.759">  2  9  1 -1</clus>
<clus scale="   81.773">  5  6 -1 -1</clus>
<clus scale="   91.592">  7  8 -1 -1</clus>
<clus scale="  106.982">  1  5  2 -1</clus>
<clus scale="   43.759">  2  5  1 -1</clus>
</clustering>
</event>
<event>
 9    1  0.5981539E-005  0.1194943E+03  0.7546771E-02  0.1258387E+00
          3   -1    0    0  502    0 -0.00000000000E+00  0.00000000000E+00  0.19711098110E+03  0.19711098110E+03  0.00000000000E+00 0. -1.
         21   -1    0    0  501  502  0.00000000000E+00 -0.00000000000E+00 -0.15768047365E+03  0.15768047365E+03  0.00000000000E+00 0. -1.
        -24    2    1    2    0    0 -0.36744430637E+02 -0.39862273377E+01  0.10985871536E+03  0.14174675886E+03  0.81591440202E+02 0.  0.
         23    2    1    2    0    0 -0.32383185725E+02 -0.54134267728E+02 -0.34165286585E+02  0.11572245407E+03  0.90803248336E+02 0.  0.
         13    1    3    3    0    0 -0.52839589243E+02  0.18091068257E+02  0.96113555780E+02  0.11116260408E+03  0.00000000000E+00 0. -1.
        -14    1    3    3    0    0  0.16095158606E+02 -0.22077295594E+02  0.13745159585E+02  0.30584154775E+02  0.00000000000E+00 0.  1.
        -13    1    4    4    0    0  0.22176661695E+02 -0.40490524049E+02 -0.37364143687E+02  0.59391633208E+02  0.00000000000E+00 0.  1.
         13    1    4    4    0    0 -0.54559847421E+02 -0.13643743679E+02  0.31988571021E+01  0.56330820861E+02  0.00000000000E+00 0. -1.
          4    1    1    2  501    0  0.69127616363E+02  0.58120495066E+02 -0.36262921323E+02  0.97322241823E+02  0.00000000000E+00 0. -1.
<scales pt_clust_5="13000.00000" pt_clust_6="13000.00000" pt_clust_7="13000.00000" pt_clust_8="13000.00000" pt_clust_9="77.67663"></scales>
<clustering>
<clus scale="   81.591">  5  6 -1 -1</clus>
<clus scale="   89.572">  1  5  2 -1</clus>
<clus scale="   77.677">  2  9  1 -1</clus>
<clus scale="   90.803">  7  8 -1 -1</clus>
<clus scale="   77.677">  2  5  1 -1</clus>
</clustering>
</event>
<event>
 9    1  0.5981539E-005  0.9070978E+02  0.7546771E-02  0.1302299E+00
         21   -1    0    0  501  502  0.00000000000E+00  0.00000000000E+00  0.50095601775E+02  0.50095601775E+02  0.00000000000E+00 0. -1.
          1   -1    0    0  502    0 -0.00000000000E+00 -0.00000000000E+00 -0.55415735901E+03  0.55415735901E+03  0.00000000000E+00 0. -1.
         23    2    1    2    0    0 -0.79261904091E+01  0.12125410349E+02 -0.24600556197E+03  0.26249707392E+03  0.90421939961E+02 0.  0.
        -24    2    1    2    0    0 -0.89498179773E+01  0.75057132247E+02 -0.63986225867E+02  0.12833435933E+03  0.81619840364E+02 0.  0.
         11    1    4    4    0    0  0.47143460757E+01  0.65447047249E+02 -0.81165989650E+02  0.10437173434E+03  0.00000000000E+00 0. -1.
        -12    1    4    4    0    0 -0.13664164053E+02  0.96100849980E+01  0.17179763783E+02  0.23962624993E+02  0.00000000000E+00 0.  1.
        -13    1    3    3    0    0  0.21527338399E+02  0.39590732966E+02 -0.81455733210E+02  0.93090756298E+02  0.00000000000E+00 0. -1.
         13    1    3    3    0    0 -0.29453528808E+02 -0.27465322617E+02 -0.16454982876E+03  0.16940631762E+03  0.00000000000E+00 0.  1.
          2    1    1    2  501    0  0.16876008386E+02 -0.87182542596E+02 -0.19406996940E+03  0.21342152754E+03  0.00000000000E+00 0. -1.
<scales pt_clust_5="13000.00000" pt_clust_6="13000.00000" pt_clust_7="13000.00000" pt_clust_8="13000.00000" pt_clust_9="88.80092"></scales>
<clustering>
<clus scale="   81.620">  5  6 -1 -1</clus>
<clus scale="   88.801">  1  9  2 -1</clus>
<clus scale="   88.801">  1  5  2 -1</clus>
<clus scale="   90.422">  7  8 -1 -1</clus>
<clus scale="   88.801">  1  5  2 -1</clus>
</clustering>
</event>
<event>
 9    1  0.5981539E-005  0.1480535E+03  0.7546771E-02  0.1204247E+00
          1   -1    0    0  502    0 -0.00000000000E+00  0.00000000000E+00  0.37749906006E+03  0.37749906006E+03  0.00000000000E+00 0. -1.
         21   -1    0    0  501  502  0.00000000000E+00 -0.00000000000E+00 -0.21866039284E+03  0.21866039284E+03  0.00000000000E+00 0.  1.
         23    2    1    2    0    0  0.14359415001E+02 -0.11667524239E+03  0.30646603962E+03  0.33967112715E+03  0.87382699630E+02 0.  0.
        -24    2    1    2    0    0  0.21697780124E+02  0.13875563972E+03 -0.89812662108E+02  0.18486286944E+03  0.79900219043E+02 0.  0.
         11    1    4    4    0    0  0.13284047419E+02  0.35137925733E+02  0.11917574497E+02  0.39410256566E+02  0.00000000000E+00 0. -1.
        -12    1    4    4    0    0  0.84137327057E+01  0.10361771399E+03 -0.10173023661E+03  0.14545261287E+03  0.00000000000E+00 0.  1.
        -13    1    3    3    0    0  0.21425542364E+02  0.65251813728E+01  0.36256940792E+02  0.42616870053E+02  0.00000000000E+00 0.  1.
         13    1    3    3    0    0 -0.70661273635E+01 -0.12320042376E+03  0.27020909883E+03  0.29705425710E+03  0.00000000000E+00 0. -1.
          2    1    1    2  501    0 -0.36057195125E+02 -0.22080397337E+02 -0.57814710287E+02  0.71625456316E+02  0.00000000000E+00 0. -1.
<scales pt_clust_5="13000.00000" pt_clust_6="13000.00000" pt_clust_7="13000.00000" pt_clust_8="13000.00000" pt_clust_9="42.28079"></scales>
<clustering>
<clus scale="   42.281">  2  9  1 -1</clus>
<clus scale="   79.900">  5  6 -1 -1</clus>
<clus scale="   87.383">  7  8 -1 -1</clus>
<clus scale="  143.764">  2  5  1 -1</clus>
<clus scale="   42.281">  2  5  1 -1</clus>
</clustering>
</event>
<event>
 9    1  0.5981539E-005  0.9527242E+02  0.7546771E-02  0.1296296E+00
         21   -1    0    0  501  502  0.00000000000E+00  0.00000000000E+00  0.17403322929E+02  0.17403322929E+02  0.00000000000E+00 0. -1.
         -2   -1    0    0    0  501 -0.00000000000E+00 -0.00000000000E+00 -0.87068767693E+03  0.87068767693E+03  0.00000000000E+00 0.  1.
        -24    2    1    2    0    0 -0.88687090477E+01  0.23952518150E+02 -0.53009471771E+03  0.53696459723E+03  0.81720204377E+02 0.  0.
         23    2    1    2    0    0  0.27081672094E+02 -0.14432035170E+02 -0.31407165761E+03  0.32864331667E+03  0.91780841544E+02 0.  0.
         11    1    3    3    0    0 -0.89266073096E+01  0.53961019270E+02 -0.30314876953E+03  0.30804326383E+03  0.00000000000E+00 0. -1.
        -12    1    3    3    0    0  0.57898261868E-01 -0.30008501120E+02 -0.22694594818E+03  0.22892133340E+03  0.00000000000E+00 0.  1.
        -13    1    4    4    0    0  0.60524572846E+02 -0.76952928547E+01 -0.17092620324E+03  0.18148886579E+03  0.00000000000E+00 0. -1.
         13    1    4    4    0    0 -0.33442900752E+02 -0.67367423155E+01 -0.14314545437E+03  0.14715445089E+03  0.00000000000E+00 0.  1.
         -1    1    1    2    0  502 -0.18212963046E+02 -0.95204829795E+01 -0.91179786723E+01  0.22483085957E+02  0.00000000000E+00 0.  1.
<scales pt_clust_5="13000.00000" pt_clust_6="13000.00000" pt_clust_7="13000.00000" pt_clust_8="13000.00000" pt_clust_9="20.55120"></scales>
<clustering>
<clus scale="   20.551">  1  9  2 -1</clus>
<clus scale="   81.720">  5  6 -1 -1</clus>
<clus scale="   85.623">  2  5  1 -1</clus>
<clus scale="   91.781">  7  8 -1 -1</clus>
<clus scale="   20.551">  1  5  2 -1</clus>
</clustering>
</event>
<event>
 9    1  0.5981539E-005  0.1079625E+03  0.7546771E-02  0.1269644E+00
         21   -1    0    0  501  502  0.00000000000E+00  0.00000000000E+00  0.61110213947E+02  0.61110213947E+02  0.00000000000E+00 0. -1.
          3   -1    0    0  502    0 -0.00000000000E+00 -0.00000000000E+00 -0.49054015380E+03  0.49054015380E+03  0.00000000000E+00 0. -1.
        -24    2    1    2    0    0  0.51723273093E+02  0.29567974216E+02 -0.27342258839E+03  0.29154828724E+03  0.81798104321E+02 0.  0.
         23    2    1    2    0    0  0.20668724264E+02 -0.70367833171E+02 -0.61242781974E+02  0.13406417588E+03  0.94040931531E+02 0.  0.
         13    1    3    3    0    0  0.62655934104E+02  0.45078971600E+02 -0.24857310062E+03  0.26028151320E+03  0.00000000000E+00 0. -1.
        -14    1    3    3    0    0 -0.10932661011E+02 -0.15510997384E+02 -0.24849487769E+02  0.31266774042E+02  0.00000000000E+00 0.  1.
        -13    1    4    4    0    0  0.49977167529E+01  0.23174201731E+02 -0.18307374406E+02  0.29952975750E+02  0.00000000000E+00 0.  1.
         13    1    4    4    0    0  0.15671007511E+02 -0.93542034902E+02 -0.42935407568E+02  0.10411120013E+03  0.00000000000E+00 0. -1.
          4    1    1    2  501    0 -0.72391997357E+02  0.40799858955E+02 -0.94764569490E+02  0.12603790463E+03  0.00000000000E+00 0. -1.
<scales pt_clust_5="13000.00000" pt_clust_6="13000.00000" pt_clust_7="13000.00000" pt_clust_8="13000.00000" pt_clust_9="83.09771"></scales>
<clustering>
<clus scale="   81.798">  5  6 -1 -1</clus>
<clus scale="   83.098">  1  9  2 -1</clus>
<clus scale="   94.041">  7  8 -1 -1</clus>
<clus scale="   97.484">  2  5  1 -1</clus>
<clus scale="   83.098">  1  5  2 -1</clus>
</clustering>
</event>
<event>
 9    1  0.5981539E-005  0.9989670E+02  0.7546771E-02  0.1281007E+00
         21   -1    0    0  501  502  0.00000000000E+00  0.00000000000E+00  0.72541278489E+02  0.72541278489E+02  0.00000000000E+00 0.  1.
         -2   -1    0    0    0  501 -0.00000000000E+00 -0.00000000000E+00 -0.36590699986E+03  0.36590699986E+03  0.00000000000E+00 0.  1.
         23    2    1    2    0    0 -0.44304920534E+02 -0.27793510012E+02 -0.12232083116E+03  0.15863748818E+03  0.86417948006E+02 0.  0.
        -24    2    1    2    0    0  0.54471100640E+02 -0.72056605475E+02 -0.92975954140E+02  0.15265672787E+03  0.80624396545E+02 0.  0.
         13    1    4    4    0    0 -0.91796989853E+00 -0.64146409774E+02 -0.39978809321E+02  0.75590407794E+02  0.00000000000E+00 0. -1.
        -14    1    4    4    0    0  0.55389070539E+02 -0.79101957004E+01 -0.52997144819E+02  0.77066320076E+02  0.00000000000E+00 0.  1.
        -11    1    3    3    0    0 -0.26585911810E+02  0.28997866232E+02 -0.33161846324E+02  0.51452842530E+02  0.00000000000E+00 0. -1.
         11    1    3    3    0    0 -0.17719008724E+02 -0.56791376243E+02 -0.89158984840E+02  0.10718464565E+03  0.00000000000E+00 0.  1.
         -1    1    1    2    0  502 -0.10166180106E+02  0.99850115487E+02 -0.78068936070E+02  0.12715406230E+03  0.00000000000E+00 0.  1.
<scales pt_clust_5="13000.00000" pt_clust_6="13000.00000" pt_clust_7="13000.00000" pt_clust_8="13000.00000" pt_clust_9="100.36631"></scales>
<clustering>
<clus scale="   80.624">  5  6 -1 -1</clus>
<clus scale="   86.418">  7  8 -1 -1</clus>
<clus scale="  100.366">  1  9  2 -1</clus>
<clus scale="  100.366">  1  5  2 -1</clus>
<clus scale="   99.897">  1  5  2 -1</clus>
</clustering>
</event>
<event>
 9    1  0.5981539E-005  0.9390832E+02  0.7546771E-02  0.1301239E+00
         21   -1    0    0  501  502  0.00000000000E+00  0.00000000000E+00  0.82672990993E+02  0.82672990993E+02  0.00000000000E+00 0.  1.
         -4   -1    0    0    0  501 -0.00000000000E+00 -0.00000000000E+00 -0.27091511954E+03  0.27091511954E+03  0.00000000000E+00 0.  1.
        -24    2    1    2    0    0  0.72008087978E+01 -0.32089371771E+02 -0.77217209460E+02  0.11354231518E+03  0.76470781818E+02 0.  0.
         23    2    1    2    0    0 -0.59823738019E+02 -0.16565938893E+02 -0.12079440732E+01  0.10891120824E+03  0.89481183439E+02 0.  0.
         13    1    3    3    0    0 -0.31694824391E+01  0.21873500575E+02 -0.47661831035E+01  0.22610001055E+02  0.00000000000E+00 0. -1.
        -14    1    3    3    0    0  0.10370291237E+02 -0.53962872346E+02 -0.72451026356E+02  0.90932314126E+02  0.00000000000E+00 0.  1.
        -13    1    4    4    0    0 -0.71674182853E+02  0.16645992107E+02  0.87445296061E+00  0.73586970374E+02  0.00000000000E+00 0.  1.
         13    1    4    4    0    0  0.11850444834E+02 -0.33211930999E+02 -0.20823970338E+01  0.35324237867E+02  0.00000000000E+00 0. -1.
         -3    1    1    2    0  502  0.52622929221E+02  0.48655310664E+02 -0.10981697501E+03  0.13113458711E+03  0.00000000000E+00 0.  1.
<scales pt_clust_5="13000.00000" pt_clust_6="13000.00000" pt_clust_7="13000.00000" pt_clust_8="13000.00000" pt_clust_9="71.66950"></scales>
<clustering>
<clus scale="   71.669">  1  9  2 -1</clus>
<clus scale="   76.471">  5  6 -1 -1</clus>
<clus scale="   81.607">  2  5  1 -1</clus>
<clus scale="   89.481">  7  8 -1 -1</clus>
<clus scale="   71.669">  1  5  2 -1</clus>
</clustering>
</event>
<event>
 9    1  0.5981539E-005  0.9223376E+02  0.7546771E-02  0.1303752E+00
          1   -1    0    0  502    0 -0.00000000000E+00  0.00000000000E+00  0.15997534870E+03  0.15997534870E+03  0.00000000000E+00 0. -1.
         21   -1    0    0  501  502  0.00000000000E+00 -0.00000000000E+00 -0.10859650144E+03  0.10859650144E+03  0.00000000000E+00 0. -1.
         23    2    1    2    0    0  0.13475581962E+02 -0.27138516237E+02  0.66423996649E+02  0.11652635248E+03  0.90819343308E+02 0.  0.
        -24    2    1    2    0    0  0.20410792789E+02 -0.14948007216E+02 -0.38810218089E+02  0.93017196481E+02  0.80659298479E+02 0.  0.
         11    1    4    4    0    0  0.49376636685E+02 -0.21395243020E+01 -0.36152966606E+02  0.61234523016E+02  0.00000000000E+00 0. -1.
        -12    1    4    4    0    0 -0.28965843896E+02 -0.12808482914E+02 -0.26572514832E+01  0.31782673465E+02  0.00000000000E+00 0.  1.
        -13    1    3    3    0    0  0.35126824409E+02  0.22394473120E+02  0.30206496451E+02  0.51457153509E+02  0.00000000000E+00 0.  1.
         13    1    3    3    0    0 -0.21651242447E+02 -0.49532989358E+02  0.36217500198E+02  0.65069198972E+02  0.00000000000E+00 0. -1.
          2    1    1    2  501    0 -0.33886374751E+02  0.42086523453E+02  0.23765068696E+02  0.59028301181E+02  0.00000000000E+00 0. -1.
<scales pt_clust_5="13000.00000" pt_clust_6="13000.00000" pt_clust_7="13000.00000" pt_clust_8="13000.00000" pt_clust_9="54.03300"></scales>
<clustering>
<clus scale="   54.033">  2  9  1 -1</clus>
<clus scale="   80.659">  5  6 -1 -1</clus>
<clus scale="   82.249">  2  5  1 -1</clus>
<clus scale="   90.819">  7  8 -1 -1</clus>
<clus scale="   54.033">  2  5  1 -1</clus>
</clustering>
</event>
<event>
 9    1  0.5981539E-005  0.1288075E+03  0.7546771E-02  0.1231441E+00
         21   -1    0    0  501  502  0.00000000000E+00  0.00000000000E+00  0.31604213929E+02  0.31604213929E+02  0.00000000000E+00 0. -1.
          1   -1    0    0  502    0 -0.00000000000E+00 -0.00000000000E+00 -0.10960898604E+04  0.10960898604E+04  0.00000000000E+00 0. -1.
        -24    2    1    2    0    0 -0.28939719345E+02  0.67883233765E+02 -0.42102050407E+03  0.43547427255E+03  0.83270261368E+02 0.  0.
         23    2    1    2    0    0  0.11683308128E+03 -0.72002663472E+02 -0.46154379784E+03  0.49013667932E+03  0.91525595670E+02 0.  0.
         11    1    3    3    0    0  0.46667273740E+01  0.31065922969E+02 -0.38365972999E+02  0.49586467897E+02  0.00000000000E+00 0. -1.
        -12    1    3    3    0    0 -0.33606446719E+02  0.36817310795E+02 -0.38265453107E+03  0.38588780466E+03  0.00000000000E+00 0.  1.
        -13    1    4    4    0    0  0.85687394613E+02 -0.27340345022E+02 -0.15851508776E+03  0.18225492342E+03  0.00000000000E+00 0. -1.
         13    1    4    4    0    0  0.31145686666E+02 -0.44662318450E+02 -0.30302871007E+03  0.30788175590E+03  0.00000000000E+00 0.  1.
          2    1    1    2  501    0 -0.87893361934E+02  0.41194297073E+01 -0.18192134456E+03  0.20208312245E+03  0.00000000000E+00 0. -1.
<scales pt_clust_5="13000.00000" pt_clust_6="13000.00000" pt_clust_7="13000.00000" pt_clust_8="13000.00000" pt_clust_9="87.98984"></scales>
<clustering>
<clus scale="   83.270">  5  6 -1 -1</clus>
<clus scale="   87.990">  1  9  2 -1</clus>
<clus scale="   91.526">  7  8 -1 -1</clus>
<clus scale="  123.079">  2  5  1 -1</clus>
<clus scale="   87.990">  1  5  2 -1</clus>
</clustering>
</event>
<event>
 9    1  0.5981539E-005  0.9309811E+02  0.7546771E-02  0.1303403E+00
         21   -1    0    0  501  502  0.00000000000E+00  0.00000000000E+00  0.14426376319E+03  0.14426376319E+03  0.00000000000E+00 0.  1.
          1   -1    0    0  502    0 -0.00000000000E+00 -0.00000000000E+00 -0.10132420225E+03  0.10132420225E+03  0.00000000000E+00 0. -1.
        -24    2    1    2    0    0  0.14495380244E+02  0.11786068631E+02 -0.46213398559E+02  0.93659027459E+02  0.79292545400E+02 0.  0.
         23    2    1    2    0    0  0.14247855652E+02 -0.83986427556E+01  0.61812773903E+02  0.11211519648E+03  0.92062259767E+02 0.  0.
         11    1    3    3    0    0 -0.32589499254E+02 -0.65285983766E+00 -0.21489892134E+02  0.39042504421E+02  0.00000000000E+00 0. -1.
        -12    1    3    3    0    0  0.47084879497E+02  0.12438928469E+02 -0.24723506426E+02  0.54616523038E+02  0.00000000000E+00 0.  1.
        -11    1    4    4    0    0  0.27739957717E+02 -0.43657674800E+02  0.19172642867E+02  0.55164191805E+02  0.00000000000E+00 0. -1.
         11    1    4    4    0    0 -0.13492102064E+02  0.35259032044E+02  0.42640131035E+02  0.56951004675E+02  0.00000000000E+00 0.  1.
          2    1    1    2  501    0 -0.28743235896E+02 -0.33874258757E+01  0.27340185601E+02  0.39813741504E+02  0.00000000000E+00 0. -1.
<scales pt_clust_5="13000.00000" pt_clust_6="13000.00000" pt_clust_7="13000.00000" pt_clust_8="13000.00000" pt_clust_9="28.94215"></scales>
<clustering>
<clus scale="   28.942">  1  9  2 -1</clus>
<clus scale="   79.293">  5  6 -1 -1</clus>
<clus scale="   80.493">  2  5  1 -1</clus>
<clus scale="   92.062">  7  8 -1 -1</clus>
<clus scale="   28.942">  1  5  2 -1</clus>
</clustering>
</event>
<event>
 9    1  0.5981539E-005  0.1884218E+03  0.7546771E-02  0.1178599E+00
         21   -1    0    0  501  502  0.00000000000E+00  0.00000000000E+00  0.56438602199E+03  0.56438602199E+03  0.00000000000E+00 0. -1.
          3   -1    0    0  502    0 -0.00000000000E+00 -0.00000000000E+00 -0.13585478911E+03  0.13585478911E+03  0.00000000000E+00 0. -1.
         23    2    1    2    0    0 -0.28919666159E+02 -0.83217376146E+02  0.25791122678E+03  0.28563554678E+03  0.85486758629E+02 0.  0.
        -24    2    1    2    0    0  0.18898239910E+03  0.46366494770E+02  0.67607104126E+02  0.22072456927E+03  0.79274308222E+02 0.  0.
         13    1    4    4    0    0  0.12433364603E+03 -0.36627083875E+01  0.61473564672E+02  0.13874894638E+03  0.00000000000E+00 0. -1.
        -14    1    4    4    0    0  0.64648753074E+02  0.50029203158E+02  0.61335394540E+01  0.81975622894E+02  0.00000000000E+00 0.  1.
        -13    1    3    3    0    0 -0.10408201307E+02 -0.39998913868E+02  0.25605492777E+02  0.48619800755E+02  0.00000000000E+00 0.  1.
         13    1    3    3    0    0 -0.18511464852E+02 -0.43218462278E+02  0.23230573400E+03  0.23701574603E+03  0.00000000000E+00 0. -1.
          4    1    1    2  501    0 -0.16006273295E+03  0.36850881376E+02  0.10301290198E+03  0.19388069504E+03  0.00000000000E+00 0. -1.
<scales pt_clust_5="13000.00000" pt_clust_6="13000.00000" pt_clust_7="13000.00000" pt_clust_8="13000.00000" pt_clust_9="170.93374"></scales>
<clustering>
<clus scale="   79.274">  5  6 -1 -1</clus>
<clus scale="   85.487">  7  8 -1 -1</clus>
<clus scale="  122.758">  2  7  1 -1</clus>
<clus scale="  170.934">  1  9  2 -1</clus>
<clus scale="  170.934">  1  5  2 -1</clus>
</clustering>
</event>
<event>
 9    1  0.5981539E-005  0.9781688E+02  0.7546771E-02  0.1290578E+00
          1   -1    0    0  502    0 -0.00000000000E+00  0.00000000000E+00  0.11559925547E+03  0.11559925547E+03  0.00000000000E+00 0. -1.
         21   -1    0    0  501  502  0.00000000000E+00 -0.00000000000E+00 -0.13233204907E+03  0.13233204907E+03  0.00000000000E+00 0. -1.
         23    2    1    2    0    0  0.53417519691E+02 -0.13379445789E+02  0.34994311509E+02  0.11140572029E+03  0.90300563104E+02 0.  0.
        -24    2    1    2    0    0 -0.79023284410E+01  0.10990230354E+02 -0.31059238687E+02  0.86480587615E+02  0.79567479340E+02 0.  0.
         13    1    4    4    0    0  0.84652831115E+00  0.28270572810E+02 -0.51228285648E+02  0.58517340572E+02  0.00000000000E+00 0. -1.
        -14    1    4    4    0    0 -0.87488567522E+01 -0.17280342456E+02  0.20169046962E+02  0.27963247043E+02  0.00000000000E+00 0.  1.
        -11    1    3    3    0    0  0.39044882355E+02  0.59530527171E+01 -0.25008380086E+02  0.46747842189E+02  0.00000000000E+00 0.  1.
         11    1    3    3    0    0  0.14372637335E+02 -0.19332498506E+02  0.60002691595E+02  0.64657878106E+02  0.00000000000E+00 0. -1.
          2    1    1    2  501    0 -0.45515191250E+02  0.23892154356E+01 -0.20667866420E+02  0.50044996626E+02  0.00000000000E+00 0. -1.
<scales pt_clust_5="13000.00000" pt_clust_6="13000.00000" pt_clust_7="13000.00000" pt_clust_8="13000.00000" pt_clust_9="45.57786"></scales>
<clustering>
<clus scale="   45.578">  2  9  1 -1</clus>
<clus scale="   79.567">  5  6 -1 -1</clus>
<clus scale="   88.005">  2  5  1 -1</clus>
<clus scale="   90.301">  7  8 -1 -1</clus>
<clus scale="   45.578">  2  5  1 -1</clus>
</clustering>
</event>
<event>
 9    1  0.5981539E-005  0.1125875E+03  0.7546771E-02  0.1267219E+00
         21   -1    0    0  501  502  0.00000000000E+00  0.00000000000E+00  0.47028042287E+03  0.47028042287E+03  0.00000000000E+00 0. -1.
          3   -1    0    0  502    0 -0.00000000000E+00 -0.00000000000E+00 -0.39509746501E+02  0.39509746501E+02  0.00000000000E+00 0. -1.
         23    2    1    2    0    0 -0.78809701709E+01  0.19754945842E+02  0.15501267184E+03  0.18671977425E+03  0.10189689931E+03 0.  0.
        -24    2    1    2    0    0 -0.38915641360E+01 -0.71149353814E+02  0.12229889882E+03  0.16080618200E+03  0.76316660679E+02 0.  0.
         13    1    4    4    0    0  0.11815679053E+02 -0.72970598775E+02  0.12454981225E+03  0.14483429942E+03  0.00000000000E+00 0. -1.
        -14    1    4    4    0    0 -0.15707243189E+02  0.18212449612E+01 -0.22509134321E+01  0.15971882578E+02  0.00000000000E+00 0.  1.
        -13    1    3    3    0    0  0.40270182041E+02 -0.16396543403E+02  0.73175321942E+02  0.85118517013E+02  0.00000000000E+00 0.  1.
         13    1    3    3    0    0 -0.48151152212E+02  0.36151489246E+02  0.81837349897E+02  0.10160125724E+03  0.00000000000E+00 0. -1.
          4    1    1    2  501    0  0.11772534307E+02  0.51394407971E+02  0.15345910571E+03  0.16226421312E+03  0.00000000000E+00 0. -1.
<scales pt_clust_5="13000.00000" pt_clust_6="13000.00000" pt_clust_7="13000.00000" pt_clust_8="13000.00000" pt_clust_9="52.72549"></scales>
<clustering>
<clus scale="   52.725">  1  9  2 -1</clus>
<clus scale="   76.317">  5  6 -1 -1</clus>
<clus scale="   90.096">  1  5  2 -1</clus>
<clus scale="  101.897">  7  8 -1 -1</clus>
<clus scale="   52.725">  1  5  2 -1</clus>
</clustering>
</event>
<event>
 9    1  0.5981539E-005  0.1740039E+03  0.7546771E-02  0.1174970E+00
         21   -1    0    0  501  502  0.00000000000E+00  0.00000000000E+00  0.94011411799E+02  0.94011411799E+02  0.00000000000E+00 0.  1.
         -2   -1    0    0    0  501 -0.00000000000E+00 -0.00000000000E+00 -0.54164414304E+03  0.54164414304E+03  0.00000000000E+00 0.  1.
         23    2    1    2    0    0  0.15253137829E+03  0.52362454598E+02 -0.17332123966E+03  0.25461818716E+03  0.93715106049E+02 0.  0.
        -24    2    1    2    0    0 -0.13711750054E+03  0.18275519618E+02 -0.95393017702E+02  0.18806293589E+03  0.84454937437E+02 0.  0.
         13    1    4    4    0    0 -0.35864805935E+02 -0.30606961574E+02 -0.43804841230E+02  0.64357862898E+02  0.00000000000E+00 0. -1.
        -14    1    4    4    0    0 -0.10125269460E+03  0.48882481193E+02 -0.51588176472E+02  0.12370507299E+03  0.00000000000E+00 0.  1.
        -11    1    3    3    0    0  0.12689318640E+03  0.13770197280E+02 -0.16321398877E+03  0.20719629635E+03  0.00000000000E+00 0.  1.
         11    1    3    3    0    0  0.25638191887E+02  0.38592257317E+02 -0.10107250889E+02  0.47421890817E+02  0.00000000000E+00 0. -1.
         -1    1    1    2    0  502 -0.15413877753E+02 -0.70637974216E+02 -0.17891847388E+03  0.19297443179E+03  0.00000000000E+00 0.  1.
<scales pt_clust_5="13000.00000" pt_clust_6="13000.00000" pt_clust_7="13000.00000" pt_clust_8="13000.00000" pt_clust_9="72.30018"></scales>
<clustering>
<clus scale="   72.300">  1  9  2 -1</clus>
<clus scale="   84.455">  5  6 -1 -1</clus>
<clus scale="   93.715">  7  8 -1 -1</clus>
<clus scale="  169.197">  1  5  2 -1</clus>
<clus scale="   72.300">  1  5  2 -1</clus>
</clustering>
</event>
<event>
 9    1  0.5981539E-005  0.1101548E+03  0.7546771E-02  0.1264015E+00
          1   -1    0    0  502    0 -0.00000000000E+00  0.00000000000E+00  0.42900511148E+03  0.42900511148E+03  0.00000000000E+00 0. -1.
         21   -1    0    0  501  502  0.00000000000E+00 -0.00000000000E+00 -0.50166829289E+02  0.50166829289E+02  0.00000000000E+00 0.  1.
        -24    2    1    2    0    0  0.13593169483E+02 -0.51633587533E+02  0.27376267676E+03  0.29156986904E+03  0.84948123735E+02 0.  0.
         23    2    1    2    0    0 -0.42650195516E+02  0.58047494909E+02  0.10419325173E+03  0.15783249803E+03  0.94161100708E+02 0.  0.
         11    1    3    3    0    0 -0.21633269573E+02 -0.42284690676E+02  0.22886466061E+03  0.23374136625E+03  0.00000000000E+00 0. -1.
        -12    1    3    3    0    0  0.35226439057E+02 -0.93488968572E+01  0.44898016148E+02  0.57828502791E+02  0.00000000000E+00 0.  1.
        -13    1    4    4    0    0 -0.26240079278E+02  0.36318470771E+02 -0.51950272704E+01  0.45106112535E+02  0.00000000000E+00 0.  1.
         13    1    4    4    0    0 -0.16410116238E+02  0.21729024138E+02  0.10938827900E+03  0.11272638550E+03  0.00000000000E+00 0. -1.
          2    1    1    2  501    0  0.29057026033E+02 -0.64139073757E+01  0.88235369559E+00  0.29769573691E+02  0.00000000000E+00 0. -1.
<scales pt_clust_5="13000.00000" pt_clust_6="13000.00000" pt_clust_7="13000.00000" pt_clust_8="13000.00000" pt_clust_9="29.75649"></scales>
<clustering>
<clus scale="   29.756">  2  9  1 -1</clus>
<clus scale="   84.948">  5  6 -1 -1</clus>
<clus scale="   94.161">  7  8 -1 -1</clus>
<clus scale="  102.391">  1  5  2 -1</clus>
<clus scale="   29.756">  2  5  1 -1</clus>
</clustering>
</event>
<event>
 9    1  0.5981539E-005  0.1180953E+03  0.7546771E-02  0.1249187E+00
         -2   -1    0    0    0  501 -0.00000000000E+00  0.00000000000E+00  0.79150324168E+02  0.79150324168E+02  0.00000000000E+00 0.  1.
         21   -1    0    0  501  502  0.00000000000E+00 -0.00000000000E+00 -0.34973894187E+03  0.34973894187E+03  0.00000000000E+00 0.  1.
        -24    2    1    2    0    0 -0.48832303271E+02  0.61260673168E+02  0.19717630959E+01  0.11244050244E+03  0.80631971442E+02 0.  0.
         23    2    1    2    0    0  0.28406113587E+02 -0.69134009013E+02 -0.14086625481E+03  0.18294759709E+03  0.89666621678E+02 0.  0.
         11    1    3    3    0    0  0.20379714977E+02  0.22224742698E+02 -0.10656866307E+02  0.31981881902E+02  0.00000000000E+00 0. -1.
        -12    1    3    3    0    0 -0.69212018248E+02  0.39035930470E+02  0.12628629402E+02  0.80458620534E+02  0.00000000000E+00 0.  1.
        -11    1    4    4    0    0  0.55104225499E+02 -0.17202161545E+02 -0.60670387245E+02  0.83745363562E+02  0.00000000000E+00 0. -1.
         11    1    4    4    0    0 -0.26698111912E+02 -0.51931847468E+02 -0.80195867568E+02  0.99202233523E+02  0.00000000000E+00 0.  1.
         -1    1    1    2    0  502  0.20426189684E+02  0.78733358451E+01 -0.13169412599E+03  0.13350116652E+03  0.00000000000E+00 0.  1.
<scales pt_clust_5="13000.00000" pt_clust_6="13000.00000" pt_clust_7="13000.00000" pt_clust_8="13000.00000" pt_clust_9="21.89106"></scales>
<clustering>
<clus scale="   21.891">  2  9  1 -1</clus>
<clus scale="   80.632">  5  6 -1 -1</clus>
<clus scale="   89.667">  7  8 -1 -1</clus>
<clus scale="  111.391">  1  5  2 -1</clus>
<clus scale="   21.891">  2  5  1 -1</clus>
</clustering>
</event>
<event>
 9    1  0.5981539E-005  0.1078795E+03  0.7546771E-02  0.1269800E+00
          3   -1    0    0  502    0 -0.00000000000E+00  0.00000000000E+00  0.11612662249E+03  0.11612662249E+03  0.00000000000E+00 0. -1.
         21   -1    0    0  501  502  0.00000000000E+00 -0.00000000000E+00 -0.32807944301E+03  0.32807944301E+03  0.00000000000E+00 0.  1.
        -24    2    1    2    0    0 -0.13164884276E+02  0.53557493668E+02  0.26442080271E+02  0.10142693061E+03  0.80910563826E+02 0.  0.
         23    2    1    2    0    0 -0.72818893541E+02 -0.52289320731E+02 -0.55652951488E+02  0.14081518181E+03  0.93246448182E+02 0.  0.
         13    1    3    3    0    0  0.30322234031E+02  0.40675583565E+02  0.23679154116E+02  0.55987885427E+02  0.00000000000E+00 0. -1.
        -14    1    3    3    0    0 -0.43487118307E+02  0.12881910103E+02  0.27629261549E+01  0.45439045186E+02  0.00000000000E+00 0.  1.
        -11    1    4    4    0    0 -0.24566092207E+02 -0.72590428286E+02 -0.27831301242E+02  0.81531861833E+02  0.00000000000E+00 0. -1.
         11    1    4    4    0    0 -0.48252801334E+02  0.20301107555E+02 -0.27821650246E+02  0.59283319973E+02  0.00000000000E+00 0.  1.
          4    1    1    2  501    0  0.85983777817E+02 -0.12681729377E+01 -0.18274194930E+03  0.20196395308E+03  0.00000000000E+00 0. -1.
<scales pt_clust_5="13000.00000" pt_clust_6="13000.00000" pt_clust_7="13000.00000" pt_clust_8="13000.00000" pt_clust_9="85.99313"></scales>
<clustering>
<clus scale="   80.911">  5  6 -1 -1</clus>
<clus scale="   85.993">  2  9  1 -1</clus>
<clus scale="   93.246">  7  8 -1 -1</clus>
<clus scale="   97.415">  1  5  2 -1</clus>
<clus scale="   85.993">  2  5  1 -1</clus>
</clustering>
</event>
<event>
 9    1  0.5981539E-005  0.1504992E+03  0.7546771E-02  0.1201827E+00
         21   -1    0    0  501  502  0.00000000000E+00  0.00000000000E+00  0.79574850628E+03  0.79574850628E+03  0.00000000000E+00 0. -1.
          1   -1    0    0  502    0 -0.00000000000E+00 -0.00000000000E+00 -0.66236907699E+02  0.66236907699E+02  0.00000000000E+00 0. -1.
         23    2    1    2    0    0 -0.10213063002E+03  0.87358120478E+02  0.27476483076E+03  0.31919745575E+03  0.91264433020E+02 0.  0.
        -24    2    1    2    0    0  0.60788115745E+02 -0.75216351214E+02  0.47768301029E+03  0.49397507811E+03  0.80483693808E+02 0.  0.
         13    1    4    4    0    0  0.64973175155E+02 -0.16632013015E+02  0.25868946181E+03  0.26724216545E+03  0.00000000000E+00 0. -1.
        -14    1    4    4    0    0 -0.41850594102E+01 -0.58584338199E+02  0.21899354848E+03  0.22673291266E+03  0.00000000000E+00 0.  1.
        -11    1    3    3    0    0 -0.14077445331E+01  0.46134269201E+02  0.42690747283E+02  0.62871714172E+02  0.00000000000E+00 0.  1.
         11    1    3    3    0    0 -0.10072288549E+03  0.41223851277E+02  0.23207408348E+03  0.25632574158E+03  0.00000000000E+00 0. -1.
          2    1    1    2  501    0  0.41342514274E+02 -0.12141769264E+02 -0.22936242465E+02  0.48812880121E+02  0.00000000000E+00 0. -1.
<scales pt_clust_5="13000.00000" pt_clust_6="13000.00000" pt_clust_7="13000.00000" pt_clust_8="13000.00000" pt_clust_9="43.08861"></scales>
<clustering>
<clus scale="   43.089">  1  9  2 -1</clus>
<clus scale="   80.484">  5  6 -1 -1</clus>
<clus scale="   91.264">  7  8 -1 -1</clus>
<clus scale="  144.217">  1  5  2 -1</clus>
<clus scale="   43.089">  1  5  2 -1</clus>
</clustering>
</event>
<event>
 9    1  0.5981539E-005  0.1951973E+03  0.7546771E-02  0.1191487E+00
         21   -1    0    0  501  502  0.00000000000E+00  0.00000000000E+00  0.76056862956E+02  0.76056862956E+02  0.00000000000E+00 0. -1.
          1   -1    0    0  502    0 -0.00000000000E+00 -0.00000000000E+00 -0.85751742001E+03  0.85751742001E+03  0.00000000000E+00 0. -1.
        -24    2    1    2    0    0 -0.24973563634E+02 -0.57536380726E+01 -0.77044847256E+02  0.11313700316E+03  0.78786355193E+02 0.  0.
         23    2    1    2    0    0  0.17277787121E+02 -0.16926350936E+03 -0.56434390460E+03  0.59613761979E+03  0.89147975505E+02 0.  0.
         11    1    3    3    0    0  0.88113460862E+01  0.28512185063E+02 -0.49194010652E+02  0.57538119547E+02  0.00000000000E+00 0. -1.
        -12    1    3    3    0    0 -0.33784909720E+02 -0.34265823136E+02 -0.27850836604E+02  0.55598883617E+02  0.00000000000E+00 0.  1.
        -11    1    4    4    0    0  0.64009468008E+01 -0.26272343325E+02 -0.21140606913E+02  0.34323947972E+02  0.00000000000E+00 0.  1.
         11    1    4    4    0    0  0.10876840320E+02 -0.14299116604E+03 -0.54320329769E+03  0.56181367182E+03  0.00000000000E+00 0. -1.
          2    1    1    2  501    0  0.76957765127E+01  0.17501714743E+03 -0.14007180520E+03  0.22429966002E+03  0.00000000000E+00 0. -1.
<scales pt_clust_5="13000.00000" pt_clust_6="13000.00000" pt_clust_7="13000.00000" pt_clust_8="13000.00000" pt_clust_9="173.65089"></scales>
<clustering>
<clus scale="   78.786">  5  6 -1 -1</clus>
<clus scale="   82.850">  2  5  1 -1</clus>
<clus scale="   89.148">  7  8 -1 -1</clus>
<clus scale="  173.651">  1  9  2 -1</clus>
<clus scale="  173.651">  1  5  2 -1</clus>
</clustering>
</event>
<event>
 9    1  0.5981539E-005  0.1762711E+03  0.7546771E-02  0.1196084E+00
         -2   -1    0    0    0  501 -0.00000000000E+00  0.00000000000E+00  0.39570049781E+03  0.39570049781E+03  0.00000000000E+00 0.  1.
         21   -1    0    0  501  502  0.00000000000E+00 -0.00000000000E+00 -0.13037916549E+03  0.13037916549E+03  0.00000000000E+00 0.  1.
         23    2    1    2    0    0 -0.32829342606E+02  0.34970416155E+02  0.70299559965E+01  0.10194687638E+03  0.89683050683E+02 0.  0.
        -24    2    1    2    0    0  0.15054413782E+03 -0.10221829329E+03  0.13288865068E+03  0.23945768413E+03  0.81046110914E+02 0.  0.
         11    1    4    4    0    0  0.19391235718E+02  0.89313805037E+01  0.36708741079E+02  0.42465530163E+02  0.00000000000E+00 0. -1.
        -12    1    4    4    0    0  0.13115290210E+03 -0.11114967379E+03  0.96179909602E+02  0.19699215397E+03  0.00000000000E+00 0.  1.
        -11    1    3    3    0    0 -0.30053218463E+02 -0.21304903737E+02 -0.17148362658E+02  0.40634482956E+02  0.00000000000E+00 0. -1.
         11    1    3    3    0    0 -0.27761241436E+01  0.56275319892E+02  0.24178318655E+02  0.61312393422E+02  0.00000000000E+00 0.  1.
         -1    1    1    2    0  502 -0.11771479521E+03  0.67247877131E+02  0.12540272565E+03  0.18467510279E+03  0.00000000000E+00 0.  1.
<scales pt_clust_5="13000.00000" pt_clust_6="13000.00000" pt_clust_7="13000.00000" pt_clust_8="13000.00000" pt_clust_9="156.53444"></scales>
<clustering>
<clus scale="   81.046">  5  6 -1 -1</clus>
<clus scale="   89.683">  7  8 -1 -1</clus>
<clus scale="  101.704">  1  7  2 -1</clus>
<clus scale="  156.534">  2  9  1 -1</clus>
<clus scale="  156.534">  2  5  1 -1</clus>
</clustering>
</event>
<event>
 9    1  0.5981539E-005  0.2364343E+03  0.7546771E-02  0.1122575E+00
         21   -1    0    0  501  502  0.00000000000E+00  0.00000000000E+00  0.80813094937E+02  0.80813094937E+02  0.00000000000E+00 0. -1.
          1   -1    0    0  502    0 -0.00000000000E+00 -0.00000000000E+00 -0.11800474091E+04  0.11800474091E+04  0.00000000000E+00 0. -1.
        -24    2    1    2    0    0  0.10807582468E+03  0.19199351444E+03 -0.84157698103E+03  0.87370621436E+03  0.81048383990E+02 0.  0.
         23    2    1    2    0    0 -0.14195244344E+03 -0.16870334514E+03 -0.17462520302E+03  0.29450229609E+03  0.87328838384E+02 0.  0.
         13    1    3    3    0    0  0.85803164564E+02  0.16744445602E+03 -0.57318533009E+03  0.60327543588E+03  0.00000000000E+00 0. -1.
        -14    1    3    3    0    0  0.22272660113E+02  0.24549058419E+02 -0.26839165094E+03  0.27043077848E+03  0.00000000000E+00 0.  1.
        -13    1    4    4    0    0 -0.50309722599E+02 -0.31641935815E+02 -0.77876592257E+01  0.59941037081E+02  0.00000000000E+00 0.  1.
         13    1    4    4    0    0 -0.91642720839E+02 -0.13706140933E+03 -0.16683754380E+03  0.23456125901E+03  0.00000000000E+00 0. -1.
          2    1    1    2  501    0  0.33876618761E+02 -0.23290169295E+02 -0.83032130150E+02  0.92651993620E+02  0.00000000000E+00 0. -1.
<scales pt_clust_5="13000.00000" pt_clust_6="13000.00000" pt_clust_7="13000.00000" pt_clust_8="13000.00000" pt_clust_9="41.11033"></scales>
<clustering>
<clus scale="   41.110">  1  9  2 -1</clus>
<clus scale="   81.048">  5  6 -1 -1</clus>
<clus scale="   87.329">  7  8 -1 -1</clus>
<clus scale="  234.187">  2  5  1 -1</clus>
<clus scale="   41.110">  1  5  2 -1</clus>
</clustering>
</event>
<event>
 9    1  0.5981539E-005  0.1226749E+03  0.7546771E-02  0.1241268E+00
          1   -1    0    0  502    0 -0.00000000000E+00  0.00000000000E+00  0.21757449760E+03  0.21757449760E+03  0.00000000000E+00 0. -1.
         21   -1    0    0  501  502  0.00000000000E+00 -0.00000000000E+00 -0.25127819042E+03  0.25127819042E+03  0.00000000000E+00 0. -1.
        -24    2    1    2    0    0  0.72553060766E+02 -0.24968050834E+02  0.25628256306E+02  0.11264728831E+03  0.78391669543E+02 0.  0.
         23    2    1    2    0    0 -0.10395739594E+03  0.87771155990E+02 -0.16394417166E+03  0.23021262455E+03  0.87230986962E+02 0.  0.
         11    1    3    3    0    0  0.53632394475E+02  0.22613884006E+02  0.95985845930E+01  0.58991137581E+02  0.00000000000E+00 0. -1.
        -12    1    3    3    0    0  0.18920666291E+02 -0.47581934840E+02  0.16029671713E+02  0.53656150731E+02  0.00000000000E+00 0.  1.
        -11    1    4    4    0    0 -0.54503359801E+02  0.72993713304E+02 -0.47269155202E+02  0.10263075292E+03  0.00000000000E+00 0.  1.
         11    1    4    4    0    0 -0.49454036141E+02  0.14777442686E+02 -0.11667501646E+03  0.12758187163E+03  0.00000000000E+00 0. -1.
          2    1    1    2  501    0  0.31404335177E+02 -0.62803105156E+02  0.10461222254E+03  0.12599277515E+03  0.00000000000E+00 0. -1.
<scales pt_clust_5="13000.00000" pt_clust_6="13000.00000" pt_clust_7="13000.00000" pt_clust_8="13000.00000" pt_clust_9="70.21729"></scales>
<clustering>
<clus scale="   70.217">  2  9  1 -1</clus>
<clus scale="   78.392">  5  6 -1 -1</clus>
<clus scale="   87.231">  7  8 -1 -1</clus>
<clus scale="  116.555">  1  5  2 -1</clus>
<clus scale="   70.217">  2  5  1 -1</clus>
</clustering>
</event>
<event>
 9    1  0.5981539E-005  0.2460992E+03  0.7546771E-02  0.1116404E+00
         21   -1    0    0  501  502  0.00000000000E+00  0.00000000000E+00  0.13544405069E+03  0.13544405069E+03  0.00000000000E+00 0. -1.
          1   -1    0    0  502    0 -0.00000000000E+00 -0.00000000000E+00 -0.15174057069E+04  0.15174057069E+04  0.00000000000E+00 0. -1.
        -24    2    1    2    0    0 -0.21952967427E+03  0.79447534333E+02 -0.79869015162E+03  0.83594654237E+03  0.79971712500E+02 0.  0.
         23    2    1    2    0    0  0.21632817575E+03 -0.58010898657E+02 -0.67797672736E+03  0.71974942914E+03  0.90684364294E+02 0.  0.
         11    1    3    3    0    0 -0.85344850219E+02  0.65053683817E+02 -0.43451329338E+03  0.44756846109E+03  0.00000000000E+00 0. -1.
        -12    1    3    3    0    0 -0.13418482405E+03  0.14393850516E+02 -0.36417685824E+03  0.38837808127E+03  0.00000000000E+00 0.  1.
        -13    1    4    4    0    0  0.23098088906E+02 -0.41375452512E+02 -0.14795255175E+03  0.15535574450E+03  0.00000000000E+00 0.  1.
         13    1    4    4    0    0  0.19323008684E+03 -0.16635446145E+02 -0.53002417561E+03  0.56439368464E+03  0.00000000000E+00 0. -1.
          2    1    1    2  501    0  0.32014985255E+01 -0.21436635676E+02  0.94705222739E+02  0.97153786112E+02  0.00000000000E+00 0. -1.
<scales pt_clust_5="13000.00000" pt_clust_6="13000.00000" pt_clust_7="13000.00000" pt_clust_8="13000.00000" pt_clust_9="21.67438"></scales>
<clustering>
<clus scale="   21.674">  1  9  2 -1</clus>
<clus scale="   79.972">  5  6 -1 -1</clus>
<clus scale="   90.684">  7  8 -1 -1</clus>
<clus scale="  242.356">  2  5  1 -1</clus>
<clus scale="   21.674">  1  5  2 -1</clus>
</clustering>
</event>
<event>
 9    1  0.5981539E-005  0.3776283E+03  0.7546771E-02  0.1051877E+00
          1   -1    0    0  502    0 -0.00000000000E+00  0.00000000000E+00  0.11111387348E+04  0.11111387348E+04  0.00000000000E+00 0. -1.
         21   -1    0    0  501  502  0.00000000000E+00 -0.00000000000E+00 -0.10956885686E+04  0.10956885686E+04  0.00000000000E+00 0. -1.
         23    2    1    2    0    0  0.25729445265E+03 -0.28001734649E+03  0.90508906327E+03  0.98667389589E+03  0.98635767745E+02 0.  0.
        -24    2    1    2    0    0 -0.26366454044E+03  0.15959798202E+03 -0.20394610036E+01  0.32440000386E+03  0.10119633072E+03 0.  0.
         13    1    4    4    0    0 -0.16112395597E+03  0.38775372859E+02  0.46474155993E+01  0.16578919506E+03  0.00000000000E+00 0. -1.
        -14    1    4    4    0    0 -0.10254058448E+03  0.12082260916E+03 -0.66868766029E+01  0.15861080880E+03  0.00000000000E+00 0.  1.
        -13    1    3    3    0    0  0.94647154563E+02 -0.71501015057E+02  0.39038725990E+03  0.40801065147E+03  0.00000000000E+00 0. -1.
         13    1    3    3    0    0  0.16264729809E+03 -0.20851633143E+03  0.51470180338E+03  0.57866324442E+03  0.00000000000E+00 0.  1.
          2    1    1    2  501    0  0.63700877910E+01  0.12041936447E+03 -0.88759943599E+03  0.89575340364E+03  0.00000000000E+00 0. -1.
<scales pt_clust_5="13000.00000" pt_clust_6="13000.00000" pt_clust_7="13000.00000" pt_clust_8="13000.00000" pt_clust_9="120.58773"></scales>
<clustering>
<clus scale="   98.636">  7  8 -1 -1</clus>
<clus scale="  101.196">  5  6 -1 -1</clus>
<clus scale="  120.588">  2  9  1 -1</clus>
<clus scale="  376.950">  1  7  2 -1</clus>
<clus scale="  120.588">  2  5  1 -1</clus>
</clustering>
</event>
<event>
 9    1  0.5981539E-005  0.1201777E+03  0.7546771E-02  0.1245530E+00
         21   -1    0    0  501  502  0.00000000000E+00  0.00000000000E+00  0.51087797416E+03  0.51087797416E+03  0.00000000000E+00 0.  1.
          1   -1    0    0  502    0 -0.00000000000E+00 -0.00000000000E+00 -0.15548237442E+03  0.15548237442E+03  0.00000000000E+00 0. -1.
         23    2    1    2    0    0 -0.29536944981E+01 -0.77090333947E+02 -0.10894571425E+03  0.16070550667E+03  0.89473165378E+02 0.  0.
        -24    2    1    2    0    0 -0.17529159957E+02  0.12402631188E+03  0.34736619464E+03  0.37796102101E+03  0.80631648483E+02 0.  0.
         11    1    4    4    0    0 -0.38530878348E+02  0.50130337159E+02  0.22291641251E+03  0.23170974571E+03  0.00000000000E+00 0. -1.
        -12    1    4    4    0    0  0.21001718391E+02  0.73895974719E+02  0.12444978213E+03  0.14625127530E+03  0.00000000000E+00 0.  1.
        -11    1    3    3    0    0  0.35030005563E+02 -0.16034314594E+02 -0.12700086673E+02  0.40564673495E+02  0.00000000000E+00 0.  1.
         11    1    3    3    0    0 -0.37983700061E+02 -0.61056019353E+02 -0.96245627573E+02  0.12014083318E+03  0.00000000000E+00 0. -1.
          2    1    1    2  501    0  0.20482854455E+02 -0.46935977931E+02  0.11697511934E+03  0.12769382089E+03  0.00000000000E+00 0. -1.
<scales pt_clust_5="13000.00000" pt_clust_6="13000.00000" pt_clust_7="13000.00000" pt_clust_8="13000.00000" pt_clust_9="51.21068"></scales>
<clustering>
<clus scale="   51.211">  1  9  2 -1</clus>
<clus scale="   80.632">  5  6 -1 -1</clus>
<clus scale="   89.473">  7  8 -1 -1</clus>
<clus scale="  113.748">  1  5  2 -1</clus>
<clus scale="   51.211">  1  5  2 -1</clus>
</clustering>
</event>
<event>
 9    1  0.5981539E-005  0.1187979E+03  0.7546771E-02  0.1249582E+00
          3   -1    0    0  502    0 -0.00000000000E+00  0.00000000000E+00  0.23343530205E+03  0.23343530205E+03  0.00000000000E+00 0. -1.
         21   -1    0    0  501  502  0.00000000000E+00 -0.00000000000E+00 -0.16934975604E+03  0.16934975604E+03  0.00000000000E+00 0. -1.
         23    2    1    2    0    0  0.19857361045E+02  0.73403734452E+02  0.27007201529E+02  0.12039919476E+03  0.89354094177E+02 0.  0.
        -24    2    1    2    0    0 -0.11126078114E+03 -0.34889930303E+02 -0.52868358562E+02  0.14848923266E+03  0.75217818523E+02 0.  0.
         13    1    4    4    0    0 -0.93927136715E+02 -0.29753512209E+02 -0.65231905368E+01  0.98742749177E+02  0.00000000000E+00 0. -1.
        -14    1    4    4    0    0 -0.17333644424E+02 -0.51364180941E+01 -0.46345168026E+02  0.49746483486E+02  0.00000000000E+00 0.  1.
        -13    1    3    3    0    0  0.27326570604E+02  0.52240184700E+02 -0.24784849556E+02  0.63953632626E+02  0.00000000000E+00 0.  1.
         13    1    3    3    0    0 -0.74692095599E+01  0.21163549752E+02  0.51792051085E+02  0.56445562138E+02  0.00000000000E+00 0. -1.
          4    1    1    2  501    0  0.91403420095E+02 -0.38513804149E+02  0.89946703047E+02  0.13389663067E+03  0.00000000000E+00 0. -1.
<scales pt_clust_5="13000.00000" pt_clust_6="13000.00000" pt_clust_7="13000.00000" pt_clust_8="13000.00000" pt_clust_9="99.18623"></scales>
<clustering>
<clus scale="   75.218">  5  6 -1 -1</clus>
<clus scale="   89.354">  7  8 -1 -1</clus>
<clus scale="   99.186">  2  9  1 -1</clus>
<clus scale="  108.566">  2  5  1 -1</clus>
<clus scale="   99.186">  2  5  1 -1</clus>
</clustering>
</event>
<event>
 9    1  0.5981539E-005  0.9480720E+02  0.7546771E-02  0.1296772E+00
         -2   -1    0    0    0  501 -0.00000000000E+00  0.00000000000E+00  0.39122989317E+02  0.39122989317E+02  0.00000000000E+00 0.  1.
         21   -1    0    0  501  502  0.00000000000E+00 -0.00000000000E+00 -0.83029602265E+03  0.83029602265E+03  0.00000000000E+00 0.  1.
         23    2    1    2    0    0 -0.26837279014E+02 -0.44693286952E+01 -0.46726594419E+02  0.10478170780E+03  0.89753090311E+02 0.  0.
        -24    2    1    2    0    0  0.62615198752E+02 -0.40600778089E+01 -0.69782995924E+03  0.70525796017E+03  0.80529441960E+02 0.  0.
         11    1    4    4    0    0  0.53945679467E+02 -0.18203679841E+01 -0.19456419221E+03  0.20191254286E+03  0.00000000000E+00 0. -1.
        -12    1    4    4    0    0  0.86695192854E+01 -0.22397098248E+01 -0.50326576703E+03  0.50334541731E+03  0.00000000000E+00 0.  1.
        -13    1    3    3    0    0 -0.38359533432E+02  0.29915031234E+02 -0.48210128067E+02  0.68487804367E+02  0.00000000000E+00 0.  1.
         13    1    3    3    0    0  0.11522254418E+02 -0.34384359929E+02  0.14835336480E+01  0.36293903437E+02  0.00000000000E+00 0. -1.
         -1    1    1    2    0  502 -0.35777919738E+02  0.85294065042E+01 -0.46616479676E+02  0.59379343996E+02  0.00000000000E+00 0.  1.
<scales pt_clust_5="13000.00000" pt_clust_6="13000.00000" pt_clust_7="13000.00000" pt_clust_8="13000.00000" pt_clust_9="36.78059"></scales>
<clustering>
<clus scale="   36.781">  2  9  1 -1</clus>
<clus scale="   80.529">  5  6 -1 -1</clus>
<clus scale="   86.127">  2  5  1 -1</clus>
<clus scale="   89.753">  7  8 -1 -1</clus>
<clus scale="   36.781">  2  5  1 -1</clus>
</clustering>
</event>
<event>
 9    1  0.5981539E-005  0.1084627E+03  0.7546771E-02  0.1267904E+00
          1   -1    0    0  502    0 -0.00000000000E+00  0.00000000000E+00  0.14732085657E+03  0.14732085657E+03  0.00000000000E+00 0. -1.
         21   -1    0    0  501  502  0.00000000000E+00 -0.00000000000E+00 -0.20762839829E+03  0.20762839829E+03  0.00000000000E+00 0. -1.
        -24    2    1    2    0    0 -0.47866489341E+02  0.55776783522E+02  0.29701450321E+02  0.11295470967E+03  0.80463282949E+02 0.  0.
         23    2    1    2    0    0  0.19549081007E+02  0.10060726600E+02 -0.12961816166E+03  0.16010840673E+03  0.91380792767E+02 0.  0.
         11    1    3    3    0    0 -0.62444547475E+02  0.30891387850E+02  0.42276233821E+02  0.81491590356E+02  0.00000000000E+00 0. -1.
        -12    1    3    3    0    0  0.14578058134E+02  0.24885395671E+02 -0.12574783501E+02  0.31463119311E+02  0.00000000000E+00 0.  1.
        -13    1    4    4    0    0 -0.35759477835E+02 -0.24275708992E+01 -0.37008517118E+02  0.51519546726E+02  0.00000000000E+00 0.  1.
         13    1    4    4    0    0  0.55308558842E+02  0.12488297499E+02 -0.92609644541E+02  0.10858886001E+03  0.00000000000E+00 0. -1.
          2    1    1    2  501    0  0.28317408335E+02 -0.65837510122E+02  0.39609169616E+02  0.81886138457E+02  0.00000000000E+00 0. -1.
<scales pt_clust_5="13000.00000" pt_clust_6="13000.00000" pt_clust_7="13000.00000" pt_clust_8="13000.00000" pt_clust_9="71.66909"></scales>
<clustering>
<clus scale="   71.669">  2  9  1 -1</clus>
<clus scale="   80.463">  5  6 -1 -1</clus>
<clus scale="   91.381">  7  8 -1 -1</clus>
<clus scale="   99.439">  1  5  2 -1</clus>
<clus scale="   71.669">  2  5  1 -1</clus>
</clustering>
</event>
<event>
 9    1  0.5981539E-005  0.1037173E+03  0.7546771E-02  0.1279657E+00
          1   -1    0    0  502    0 -0.00000000000E+00  0.00000000000E+00  0.11133454147E+04  0.11133454147E+04  0.00000000000E+00 0. -1.
         21   -1    0    0  501  502  0.00000000000E+00 -0.00000000000E+00 -0.19839798530E+02  0.19839798530E+02  0.00000000000E+00 0.  1.
         23    2    1    2    0    0  0.29557573897E+02  0.21786679781E+02  0.36210346390E+03  0.37702006503E+03  0.98371242100E+02 0.  0.
        -24    2    1    2    0    0 -0.33670150267E+02  0.50334665535E+02  0.27367813551E+03  0.29277581163E+03  0.84561790690E+02 0.  0.
         13    1    4    4    0    0 -0.16436910282E+02 -0.19295990117E+02  0.12690757651E+03  0.12941421958E+03  0.00000000000E+00 0. -1.
        -14    1    4    4    0    0 -0.17233239986E+02  0.69630655651E+02  0.14677055900E+03  0.16336159205E+03  0.00000000000E+00 0.  1.
        -11    1    3    3    0    0  0.64952250208E+02  0.72616065946E+01  0.19767693016E+03  0.20820109139E+03  0.00000000000E+00 0. -1.
         11    1    3    3    0    0 -0.35394676311E+02  0.14525073186E+02  0.16442653375E+03  0.16881897364E+03  0.00000000000E+00 0.  1.
          2    1    1    2  501    0  0.41125763707E+01 -0.72121345315E+02  0.45772401676E+03  0.46338933657E+03  0.00000000000E+00 0. -1.
<scales pt_clust_5="13000.00000" pt_clust_6="13000.00000" pt_clust_7="13000.00000" pt_clust_8="13000.00000" pt_clust_9="72.23854"></scales>
<clustering>
<clus scale="   72.239">  2  9  1 -1</clus>
<clus scale="   84.562">  5  6 -1 -1</clus>
<clus scale="   90.725">  2  5  1 -1</clus>
<clus scale="   98.371">  7  8 -1 -1</clus>
<clus scale="   72.239">  2  5  1 -1</clus>
</clustering>
</event>
<event>
 9    1  0.5981539E-005  0.9504214E+02  0.7546771E-02  0.1299514E+00
          3   -1    0    0  502    0 -0.00000000000E+00  0.00000000000E+00  0.60788905476E+03  0.60788905476E+03  0.00000000000E+00 0. -1.
         21   -1    0    0  501  502  0.00000000000E+00 -0.00000000000E+00 -0.43968785461E+02  0.43968785461E+02  0.00000000000E+00 0.  1.
        -24    2    1    2    0    0 -0.21748753083E+00 -0.27181215411E+02  0.35854190534E+03  0.36826404889E+03  0.79543988118E+02 0.  0.
         23    2    1    2    0    0 -0.14741672120E+02 -0.47723129537E+02  0.66786745461E+02  0.12534691437E+03  0.93576522611E+02 0.  0.
         11    1    3    3    0    0  0.33247110671E+01  0.27215569906E+02  0.83960700914E+02  0.88324063805E+02  0.00000000000E+00 0. -1.
        -12    1    3    3    0    0 -0.35421985980E+01 -0.54396785317E+02  0.27458120443E+03  0.27993998508E+03  0.00000000000E+00 0.  1.
        -11    1    4    4    0    0  0.10934939344E+02  0.25351903412E+02  0.25459400602E+02  0.37556264245E+02  0.00000000000E+00 0. -1.
         11    1    4    4    0    0 -0.25676611464E+02 -0.73075032950E+02  0.41327344859E+02  0.87790650128E+02  0.00000000000E+00 0.  1.
          4    1    1    2  501    0  0.14959159651E+02  0.74904344948E+02  0.13859161850E+03  0.15824687696E+03  0.00000000000E+00 0. -1.
<scales pt_clust_5="13000.00000" pt_clust_6="13000.00000" pt_clust_7="13000.00000" pt_clust_8="13000.00000" pt_clust_9="76.38353"></scales>
<clustering>
<clus scale="   76.384">  2  9  1 -1</clus>
<clus scale="   79.544">  5  6 -1 -1</clus>
<clus scale="   81.263">  1  5  2 -1</clus>
<clus scale="   93.577">  7  8 -1 -1</clus>
<clus scale="   76.384">  2  5  1 -1</clus>
</clustering>
</event>
<event>
 9    1  0.5981539E-005  0.1147711E+03  0.7546771E-02  0.1255679E+00
         21   -1    0    0  501  502  0.00000000000E+00  0.00000000000E+00  0.12600552182E+02  0.12600552182E+02  0.00000000000E+00 0. -1.
         -2   -1    0    0    0  501 -0.00000000000E+00 -0.00000000000E+00 -0.15793039226E+04  0.15793039226E+04  0.00000000000E+00 0.  1.
        -24    2    1    2    0    0 -0.77955912844E+02  0.31060565907E+02 -0.95998844897E+03  0.96700619833E+03  0.80506411936E+02 0.  0.
         23    2    1    2    0    0  0.37138115191E+02 -0.16040198674E+02 -0.32715456712E+03  0.34197479607E+03  0.90995180009E+02 0.  0.
         13    1    3    3    0    0 -0.17054548533E+02  0.20125161966E+02 -0.68981944267E+02  0.73853831347E+02  0.00000000000E+00 0. -1.
        -14    1    3    3    0    0 -0.60901364311E+02  0.10935403941E+02 -0.89100650470E+03  0.89315236699E+03  0.00000000000E+00 0.  1.
        -11    1    4    4    0    0 -0.29995466472E+02 -0.10218163025E+02 -0.89125818461E+02  0.94591492116E+02  0.00000000000E+00 0.  1.
         11    1    4    4    0    0  0.67133581662E+02 -0.58220356491E+01 -0.23802874866E+03  0.24738330395E+03  0.00000000000E+00 0. -1.
         -1    1    1    2    0  502  0.40817797653E+02 -0.15020367234E+02 -0.27956035436E+03  0.28292348041E+03  0.00000000000E+00 0.  1.
<scales pt_clust_5="13000.00000" pt_clust_6="13000.00000" pt_clust_7="13000.00000" pt_clust_8="13000.00000" pt_clust_9="43.49375"></scales>
<clustering>
<clus scale="   43.494">  1  9  2 -1</clus>
<clus scale="   80.506">  5  6 -1 -1</clus>
<clus scale="   90.995">  7  8 -1 -1</clus>
<clus scale="  106.647">  2  5  1 -1</clus>
<clus scale="   43.494">  1  5  2 -1</clus>
</clustering>
</event>
<event>
 9    1  0.5981539E-005  0.1070930E+03  0.7546771E-02  0.1272178E+00
         -4   -1    0    0    0  501 -0.00000000000E+00  0.00000000000E+00  0.70551851628E+02  0.70551851628E+02  0.00000000000E+00 0.  1.
         21   -1    0    0  501  502  0.00000000000E+00 -0.00000000000E+00 -0.30953688376E+03  0.30953688376E+03  0.00000000000E+00 0.  1.
        -24    2    1    2    0    0  0.52127502837E+01  0.59169368152E+02  0.71185025480E+01  0.99447719720E+02  0.79441733276E+02 0.  0.
         23    2    1    2    0    0 -0.78787231152E+01 -0.26634793352E+02 -0.14781869085E+03  0.17707694615E+03  0.93457974503E+02 0.  0.
         13    1    3    3    0    0 -0.15822133783E+02  0.61701323907E+02 -0.18379375895E+02  0.66296264959E+02  0.00000000000E+00 0. -1.
        -14    1    3    3    0    0  0.21034884067E+02 -0.25319557541E+01  0.25497878443E+02  0.33151454760E+02  0.00000000000E+00 0.  1.
        -13    1    4    4    0    0 -0.36032765814E+02 -0.22317865307E+02 -0.14175465944E+03  0.14795550276E+03  0.00000000000E+00 0. -1.
         13    1    4    4    0    0  0.28154042699E+02 -0.43169280447E+01 -0.60640314071E+01  0.29121443387E+02  0.00000000000E+00 0.  1.
         -3    1    1    2    0  502  0.26659728315E+01 -0.32534574800E+02 -0.98284843830E+02  0.10356406952E+03  0.00000000000E+00 0.  1.
<scales pt_clust_5="13000.00000" pt_clust_6="13000.00000" pt_clust_7="13000.00000" pt_clust_8="13000.00000" pt_clust_9="32.64362"></scales>
<clustering>
<clus scale="   32.644">  2  9  1 -1</clus>
<clus scale="   79.442">  5  6 -1 -1</clus>
<clus scale="   93.458">  7  8 -1 -1</clus>
<clus scale="   95.108">  1  5  2 -1</clus>
<clus scale="   32.644">  2  5  1 -1</clus>
</clustering>
</event>
<event>
 9    1  0.5981539E-005  0.2136538E+03  0.7546771E-02  0.1168129E+00
          1   -1    0    0  502    0 -0.00000000000E+00  0.00000000000E+00  0.21366190160E+03  0.21366190160E+03  0.00000000000E+00 0. -1.
         21   -1    0    0  501  502  0.00000000000E+00 -0.00000000000E+00 -0.34148884789E+03  0.34148884789E+03  0.00000000000E+00 0. -1.
        -24    2    1    2    0    0 -0.49813541109E+02  0.62024000487E+02 -0.25539262447E+02  0.10984341731E+03  0.71308883634E+02 0.  0.
         23    2    1    2    0    0  0.80561526148E+02 -0.20630565424E+03 -0.15876536575E+03  0.28734416323E+03  0.91148474002E+02 0.  0.
         11    1    3    3    0    0  0.10348373195E+02  0.35598182330E+02 -0.23909674308E+02  0.44113398628E+02  0.00000000000E+00 0. -1.
        -12    1    3    3    0    0 -0.60161914304E+02  0.26425818157E+02 -0.16295881386E+01  0.65730018679E+02  0.00000000000E+00 0.  1.
        -13    1    4    4    0    0  0.77852433684E+02 -0.18363682519E+03 -0.16983827933E+03  0.26197046804E+03  0.00000000000E+00 0. -1.
         13    1    4    4    0    0  0.27090924634E+01 -0.22668829050E+02  0.11072913582E+02  0.25373695192E+02  0.00000000000E+00 0.  1.
          2    1    1    2  501    0 -0.30747985039E+02  0.14428165375E+03  0.56477681914E+02  0.15796316896E+03  0.00000000000E+00 0. -1.
<scales pt_clust_5="13000.00000" pt_clust_6="13000.00000" pt_clust_7="13000.00000" pt_clust_8="13000.00000" pt_clust_9="193.23545"></scales>
<clustering>
<clus scale="   71.309">  5  6 -1 -1</clus>
<clus scale="   91.148">  7  8 -1 -1</clus>
<clus scale="  106.833">  1  5  2 -1</clus>
<clus scale="  193.235">  2  9  1 -1</clus>
<clus scale="  193.235">  2  5  1 -1</clus>
</clustering>
</event>
<event>
 9    1  0.5981539E-005  0.2576188E+03  0.7546771E-02  0.1109215E+00
          1   -1    0    0  502    0 -0.00000000000E+00  0.00000000000E+00  0.21781717264E+03  0.21781717264E+03  0.00000000000E+00 0. -1.
         21   -1    0    0  501  502  0.00000000000E+00 -0.00000000000E+00 -0.47837143223E+03  0.47837143223E+03  0.00000000000E+00 0. -1.
         23    2    1    2    0    0 -0.20739454292E+03 -0.13176660117E+03  0.52931046658E+02  0.26784846689E+03  0.92553616364E+02 0.  0.
        -24    2    1    2    0    0  0.18936583521E+03  0.11685010434E+03 -0.32521765345E+03  0.40216411554E+03  0.80349780878E+02 0.  0.
         13    1    4    4    0    0  0.16896970260E+03  0.67224738903E+02 -0.26640845174E+03  0.32255757482E+03  0.00000000000E+00 0. -1.
        -14    1    4    4    0    0  0.20396132614E+02  0.49625365434E+02 -0.58809201711E+02  0.79606540724E+02  0.00000000000E+00 0.  1.
        -11    1    3    3    0    0 -0.15338209413E+03 -0.45472532549E+02  0.42383209041E+02  0.16549971125E+03  0.00000000000E+00 0. -1.
         11    1    3    3    0    0 -0.54012448785E+02 -0.86294068618E+02  0.10547837616E+02  0.10234875564E+03  0.00000000000E+00 0.  1.
          2    1    1    2  501    0  0.18028707708E+02  0.14916496830E+02  0.11732347200E+02  0.26176022427E+02  0.00000000000E+00 0. -1.
<scales pt_clust_5="13000.00000" pt_clust_6="13000.00000" pt_clust_7="13000.00000" pt_clust_8="13000.00000" pt_clust_9="23.39950"></scales>
<clustering>
<clus scale="   23.400">  2  9  1 -1</clus>
<clus scale="   80.350">  5  6 -1 -1</clus>
<clus scale="   92.554">  7  8 -1 -1</clus>
<clus scale="  253.490">  2  5  1 -1</clus>
<clus scale="   23.400">  2  5  1 -1</clus>
</clustering>
</event>
<event>
 9    1  0.5981539E-005  0.1432085E+03  0.7546771E-02  0.1218146E+00
          3   -1    0    0  502    0 -0.00000000000E+00  0.00000000000E+00  0.24301726156E+03  0.24301726156E+03  0.00000000000E+00 0. -1.
         21   -1    0    0  501  502  0.00000000000E+00 -0.00000000000E+00 -0.90492595457E+02  0.90492595457E+02  0.00000000000E+00 0. -1.
        -24    2    1    2    0    0 -0.75173328706E+02 -0.40503480761E+01  0.45722134141E+02  0.11885092534E+03  0.79797206948E+02 0.  0.
         23    2    1    2    0    0  0.99478487855E+02  0.25904728441E+02  0.83632719100E+02  0.17459404767E+03  0.11367332702E+03 0.  0.
         11    1    3    3    0    0 -0.53433722436E+02  0.25135098707E+02  0.55637100970E+02  0.81132132258E+02  0.00000000000E+00 0. -1.
        -12    1    3    3    0    0 -0.21739606269E+02 -0.29185446783E+02 -0.99149668288E+01  0.37718793087E+02  0.00000000000E+00 0.  1.
        -13    1    4    4    0    0  0.43081827595E+02  0.67411158973E+02  0.62282602617E+02  0.10138752789E+03  0.00000000000E+00 0.  1.
         13    1    4    4    0    0  0.56396660259E+02 -0.41506430531E+02  0.21350116483E+02  0.73206519776E+02  0.00000000000E+00 0. -1.
          4    1    1    2  501    0 -0.24305159149E+02 -0.21854380365E+02  0.23169812863E+02  0.40064884007E+02  0.00000000000E+00 0. -1.
<scales pt_clust_5="13000.00000" pt_clust_6="13000.00000" pt_clust_7="13000.00000" pt_clust_8="13000.00000" pt_clust_9="32.68571"></scales>
<clustering>
<clus scale="   32.686">  2  9  1 -1</clus>
<clus scale="   79.797">  5  6 -1 -1</clus>
<clus scale="  113.673">  7  8 -1 -1</clus>
<clus scale="  118.130">  1  5  2 -1</clus>
<clus scale="   32.686">  2  5  1 -1</clus>
</clustering>
</event>
<event>
 9    1  0.6668440E-005  0.1592663E+03  0.7546771E-02  0.1208855E+00
         21   -1    0    0  501  502  0.00000000000E+00  0.00000000000E+00  0.61442720570E+03  0.61442720570E+03  0.00000000000E+00 0.  1.
          1   -1    0    0  502    0 -0.00000000000E+00 -0.00000000000E+00 -0.18020289892E+03  0.18020289892E+03  0.00000000000E+00 0. -1.
        -24    2    1    2    0    0 -0.34679186354E+02 -0.54939462821E+02 -0.32287838698E+01  0.10465624318E+03  0.81984837932E+02 0.  0.
         23    2    1    2    0    0 -0.41190714776E+02  0.12776230631E+03  0.52722599209E+03  0.55170389990E+03  0.91597295493E+02 0.  0.
         13    1    3    3    0    0  0.16692674866E+02  0.11752214679E+02 -0.11530897534E+01  0.20447238445E+02  0.00000000000E+00 0. -1.
        -14    1    3    3    0    0 -0.51371861220E+02 -0.66691677501E+02 -0.20756941164E+01  0.84209004739E+02  0.00000000000E+00 0.  1.
        -11    1    4    4    0    0 -0.68243402005E+02  0.66739481814E+02  0.29338623750E+03  0.30852358857E+03  0.00000000000E+00 0. -1.
         11    1    4    4    0    0  0.27052687229E+02  0.61022824493E+02  0.23383975458E+03  0.24318031133E+03  0.00000000000E+00 0.  1.
          2    1    1    2  501    0  0.75869901129E+02 -0.72822843486E+02 -0.89772901435E+02  0.13826996153E+03  0.00000000000E+00 0. -1.
<scales pt_clust_5="13000.00000" pt_clust_6="13000.00000" pt_clust_7="13000.00000" pt_clust_8="13000.00000" pt_clust_9="130.29080"></scales>
<clustering>
<clus scale="   81.985">  5  6 -1 -1</clus>
<clus scale="   91.597">  7  8 -1 -1</clus>
<clus scale="  104.606">  2  5  1 -1</clus>
<clus scale="  130.291">  1  9  2 -1</clus>
<clus scale="  130.291">  1  5  2 -1</clus>
</clustering>
</event>
<event>
 9    1  0.5981539E-005  0.9586503E+02  0.7546771E-02  0.1294111E+00
          1   -1    0    0  502    0 -0.00000000000E+00  0.00000000000E+00  0.24526512050E+03  0.24526512050E+03  0.00000000000E+00 0. -1.
         21   -1    0    0  501  502  0.00000000000E+00 -0.00000000000E+00 -0.92388567466E+02  0.92388567466E+02  0.00000000000E+00 0.  1.
         23    2    1    2    0    0  0.22711294025E+02 -0.81565287388E+01  0.51549127499E+02  0.10777486720E+03  0.91519274570E+02 0.  0.
        -24    2    1    2    0    0 -0.19404347059E+02  0.41525391837E+02 -0.26090257671E+02  0.98122671318E+02  0.82743399913E+02 0.  0.
         11    1    4    4    0    0 -0.28017507081E+02 -0.70506358414E+01  0.16218058252E+02  0.33131821294E+02  0.00000000000E+00 0. -1.
        -12    1    4    4    0    0  0.86131600223E+01  0.48576027679E+02 -0.42308315922E+02  0.64990850024E+02  0.00000000000E+00 0.  1.
        -11    1    3    3    0    0  0.40174735675E+02 -0.39857939236E+02  0.41606561341E+02  0.70240804760E+02  0.00000000000E+00 0. -1.
         11    1    3    3    0    0 -0.17463441651E+02  0.31701410497E+02  0.99425661575E+01  0.37534062444E+02  0.00000000000E+00 0.  1.
          2    1    1    2  501    0 -0.33069469661E+01 -0.33368863098E+02  0.12741768320E+03  0.13175614944E+03  0.00000000000E+00 0. -1.
<scales pt_clust_5="13000.00000" pt_clust_6="13000.00000" pt_clust_7="13000.00000" pt_clust_8="13000.00000" pt_clust_9="33.53234"></scales>
<clustering>
<clus scale="   33.532">  2  9  1 -1</clus>
<clus scale="   82.743">  5  6 -1 -1</clus>
<clus scale="   87.526">  2  5  1 -1</clus>
<clus scale="   91.519">  7  8 -1 -1</clus>
<clus scale="   33.532">  2  5  1 -1</clus>
</clustering>
</event>
<event>
 9    1  0.5981539E-005  0.2809331E+03  0.7546771E-02  0.1137098E+00
          1   -1    0    0  502    0 -0.00000000000E+00  0.00000000000E+00  0.94023385001E+03  0.94023385001E+03  0.00000000000E+00 0. -1.
         21   -1    0    0  501  502  0.00000000000E+00 -0.00000000000E+00 -0.19353786261E+03  0.19353786261E+03  0.00000000000E+00 0. -1.
        -24    2    1    2    0    0 -0.83280448220E+01  0.55355487027E+02  0.95543035885E+02  0.13665718486E+03  0.80082009176E+02 0.  0.
         23    2    1    2    0    0 -0.10468481494E+03  0.19277808003E+03  0.68214829845E+03  0.72270081617E+03  0.94063117114E+02 0.  0.
         11    1    3    3    0    0 -0.17354954468E+02  0.41020674142E+02  0.53198763768E+01  0.44857454634E+02  0.00000000000E+00 0. -1.
        -12    1    3    3    0    0  0.90269096463E+01  0.14334812886E+02  0.90223159508E+02  0.91799730227E+02  0.00000000000E+00 0.  1.
        -11    1    4    4    0    0 -0.15925782921E+02  0.12406848719E+03  0.32097154599E+03  0.34448418456E+03  0.00000000000E+00 0. -1.
         11    1    4    4    0    0 -0.88759032019E+02  0.68709592840E+02  0.36117675246E+03  0.37821663162E+03  0.00000000000E+00 0.  1.
          2    1    1    2  501    0  0.11301285976E+03 -0.24813356706E+03 -0.30995346926E+02  0.27441371158E+03  0.00000000000E+00 0. -1.
<scales pt_clust_5="13000.00000" pt_clust_6="13000.00000" pt_clust_7="13000.00000" pt_clust_8="13000.00000" pt_clust_9="264.71788"></scales>
<clustering>
<clus scale="   80.082">  5  6 -1 -1</clus>
<clus scale="   94.063">  7  8 -1 -1</clus>
<clus scale="   97.707">  1  5  2 -1</clus>
<clus scale="  264.718">  2  9  1 -1</clus>
<clus scale="  264.718">  2  5  1 -1</clus>
</clustering>
</event>
<event>
 9    1  0.5981539E-005  0.1141067E+03  0.7546771E-02  0.1256902E+00
         21   -1    0    0  501  502  0.00000000000E+00  0.00000000000E+00  0.17291534816E+03  0.17291534816E+03  0.00000000000E+00 0. -1.
          1   -1    0    0  502    0 -0.00000000000E+00 -0.00000000000E+00 -0.14719757090E+03  0.14719757090E+03  0.00000000000E+00 0. -1.
         23    2    1    2    0    0 -0.82127826493E+02  0.27969410069E+02 -0.25325350816E+02  0.12867465530E+03  0.91588895275E+02 0.  0.
        -24    2    1    2    0    0  0.53012132517E+02  0.38818435618E+02  0.35997331785E+01  0.10449451363E+03  0.81172582575E+02 0.  0.
         13    1    4    4    0    0  0.63843430610E+02  0.51390704668E+02 -0.10618045129E+02  0.82642186809E+02  0.00000000000E+00 0. -1.
        -14    1    4    4    0    0 -0.10831298093E+02 -0.12572269050E+02  0.14217778307E+02  0.21852326820E+02  0.00000000000E+00 0.  1.
        -11    1    3    3    0    0 -0.27371093163E+01 -0.28376581987E+02 -0.94582179371E+01  0.30036312344E+02  0.00000000000E+00 0.  1.
         11    1    3    3    0    0 -0.79390717177E+02  0.56345992056E+02 -0.15867132879E+02  0.98638342953E+02  0.00000000000E+00 0. -1.
          2    1    1    2  501    0  0.29115693976E+02 -0.66787845687E+02  0.47443394897E+02  0.86943750130E+02  0.00000000000E+00 0. -1.
<scales pt_clust_5="13000.00000" pt_clust_6="13000.00000" pt_clust_7="13000.00000" pt_clust_8="13000.00000" pt_clust_9="72.85836"></scales>
<clustering>
<clus scale="   72.858">  1  9  2 -1</clus>
<clus scale="   81.173">  5  6 -1 -1</clus>
<clus scale="   91.589">  7  8 -1 -1</clus>
<clus scale="  105.928">  1  5  2 -1</clus>
<clus scale="   72.858">  1  5  2 -1</clus>
</clustering>
</event>
<event>
 9    1  0.5981539E-005  0.1996511E+03  0.7546771E-02  0.1171436E+00
          3   -1    0    0  502    0 -0.00000000000E+00  0.00000000000E+00  0.31961865903E+03  0.31961865903E+03  0.00000000000E+00 0. -1.
         21   -1    0    0  501  502  0.00000000000E+00 -0.00000000000E+00 -0.23415281068E+03  0.23415281068E+03  0.00000000000E+00 0. -1.
        -24    2    1    2    0    0 -0.23620769850E+02  0.88461552561E+02 -0.35637597740E+02  0.12650857473E+03  0.79693124285E+02 0.  0.
         23    2    1    2    0    0 -0.15499659968E+03 -0.10861023628E+03  0.13062363639E+03  0.24726076116E+03  0.90858242829E+02 0.  0.
         11    1    3    3    0    0 -0.35940707777E+02  0.98715033863E+02 -0.27821203514E+02  0.10867571831E+03  0.00000000000E+00 0. -1.
        -12    1    3    3    0    0  0.12319937927E+02 -0.10253481302E+02 -0.78163942255E+01  0.17832856418E+02  0.00000000000E+00 0.  1.
        -11    1    4    4    0    0 -0.14688267847E+03 -0.63113214652E+02  0.80181987339E+02  0.17884895916E+03  0.00000000000E+00 0. -1.
         11    1    4    4    0    0 -0.81139212088E+01 -0.45497021633E+02  0.50441649048E+02  0.68411802005E+02  0.00000000000E+00 0.  1.
          4    1    1    2  501    0  0.17861736953E+03  0.20148683724E+02 -0.95201902982E+01  0.18000213381E+03  0.00000000000E+00 0. -1.
<scales pt_clust_5="13000.00000" pt_clust_6="13000.00000" pt_clust_7="13000.00000" pt_clust_8="13000.00000" pt_clust_9="177.77886"></scales>
<clustering>
<clus scale="   79.693">  5  6 -1 -1</clus>
<clus scale="   90.858">  7  8 -1 -1</clus>
<clus scale="  121.385">  1  5  2 -1</clus>
<clus scale="  177.779">  2  9  1 -1</clus>
<clus scale="  177.779">  2  5  1 -1</clus>
</clustering>
</event>
<event>
 9    1  0.5981539E-005  0.3671535E+03  0.7546771E-02  0.1080365E+00
         21   -1    0    0  501  502  0.00000000000E+00  0.00000000000E+00  0.23068231105E+03  0.23068231105E+03  0.00000000000E+00 0. -1.
          1   -1    0    0  502    0 -0.00000000000E+00 -0.00000000000E+00 -0.10465199704E+04  0.10465199704E+04  0.00000000000E+00 0. -1.
        -24    2    1    2    0    0 -0.24403514932E+02 -0.17360002930E+03 -0.32610959903E+02  0.18933019909E+03  0.63639200715E+02 0.  0.
         23    2    1    2    0    0  0.35872036377E+03  0.15150727895E+03 -0.52293188823E+03  0.66359713167E+03  0.12356633226E+03 0.  0.
         11    1    3    3    0    0 -0.19307243039E+01 -0.84453851057E+02  0.15001411358E+02  0.85797569881E+02  0.00000000000E+00 0. -1.
        -12    1    3    3    0    0 -0.22472790628E+02 -0.89146178244E+02 -0.47612371261E+02  0.10353262921E+03  0.00000000000E+00 0.  1.
        -13    1    4    4    0    0  0.89255978222E+02  0.87862695339E+00 -0.61400862689E+02  0.10833959374E+03  0.00000000000E+00 0.  1.
         13    1    4    4    0    0  0.26946438555E+03  0.15062865200E+03 -0.46153102554E+03  0.55525753792E+03  0.00000000000E+00 0. -1.
          2    1    1    2  501    0 -0.33431684884E+03  0.22092750348E+02 -0.26029481119E+03  0.42427495067E+03  0.00000000000E+00 0. -1.
<scales pt_clust_5="13000.00000" pt_clust_6="13000.00000" pt_clust_7="13000.00000" pt_clust_8="13000.00000" pt_clust_9="345.73550"></scales>
<clustering>
<clus scale="   63.639">  5  6 -1 -1</clus>
<clus scale="  123.566">  7  8 -1 -1</clus>
<clus scale="  186.501">  2  5  1 -1</clus>
<clus scale="  345.735">  1  9  2 -1</clus>
<clus scale="  345.735">  1  5  2 -1</clus>
</clustering>
</event>
<event>
 9    1  0.5981539E-005  0.1558523E+03  0.7546771E-02  0.1212473E+00
         21   -1    0    0  501  502  0.00000000000E+00  0.00000000000E+00  0.18733623398E+03  0.18733623398E+03  0.00000000000E+00 0.  1.
         -2   -1    0    0    0  501 -0.00000000000E+00 -0.00000000000E+00 -0.26605177211E+03  0.26605177211E+03  0.00000000000E+00 0.  1.
        -24    2    1    2    0    0 -0.25760188231E+02  0.63778211571E+02 -0.24704718382E+02  0.10625340769E+03  0.77124678057E+02 0.  0.
         23    2    1    2    0    0  0.36970030942E+02  0.71646507076E+02 -0.13965980028E+03  0.18650688330E+03  0.93701400956E+02 0.  0.
         13    1    3    3    0    0 -0.35789652548E+02  0.33100329577E+02  0.18657342802E+02  0.52197964405E+02  0.00000000000E+00 0. -1.
        -14    1    3    3    0    0  0.10029464317E+02  0.30677881994E+02 -0.43362061184E+02  0.54055443280E+02  0.00000000000E+00 0.  1.
        -13    1    4    4    0    0  0.18212282141E+02  0.45515766742E+02 -0.64240936830E+01  0.49443313223E+02  0.00000000000E+00 0. -1.
         13    1    4    4    0    0  0.18757748801E+02  0.26130740335E+02 -0.13323570660E+03  0.13706357008E+03  0.00000000000E+00 0.  1.
         -1    1    1    2    0  502 -0.11209842711E+02 -0.13542471865E+03  0.85648980533E+02  0.16062771511E+03  0.00000000000E+00 0.  1.
<scales pt_clust_5="13000.00000" pt_clust_6="13000.00000" pt_clust_7="13000.00000" pt_clust_8="13000.00000" pt_clust_9="124.53910"></scales>
<clustering>
<clus scale="   77.125">  5  6 -1 -1</clus>
<clus scale="   93.701">  7  8 -1 -1</clus>
<clus scale="  103.341">  2  5  1 -1</clus>
<clus scale="  124.539">  1  9  2 -1</clus>
<clus scale="  124.539">  1  5  2 -1</clus>
</clustering>
</event>
<event>
 9    1  0.5981539E-005  0.1928205E+03  0.7546771E-02  0.1190624E+00
         -2   -1    0    0    0  501 -0.00000000000E+00  0.00000000000E+00  0.58898727018E+03  0.58898727018E+03  0.00000000000E+00 0.  1.
         21   -1    0    0  501  502  0.00000000000E+00 -0.00000000000E+00 -0.23185262409E+03  0.23185262409E+03  0.00000000000E+00 0.  1.
        -24    2    1    2    0    0 -0.33323791198E+02  0.24181143742E+02  0.30276237028E+03  0.31518125784E+03  0.77323797558E+02 0.  0.
         23    2    1    2    0    0  0.16677884428E+03  0.49685179245E+02 -0.15240622162E+03  0.24870760634E+03  0.91345591723E+02 0.  0.
         11    1    3    3    0    0 -0.44972375883E+02 -0.90964927894E+00  0.26253361052E+03  0.26635922868E+03  0.00000000000E+00 0. -1.
        -12    1    3    3    0    0  0.11648584684E+02  0.25090793021E+02  0.40228759761E+02  0.48822029161E+02  0.00000000000E+00 0.  1.
        -13    1    4    4    0    0  0.48621162771E+02 -0.18428980463E+02 -0.76863821065E+02  0.92799201391E+02  0.00000000000E+00 0. -1.
         13    1    4    4    0    0  0.11815768151E+03  0.68114159707E+02 -0.75542400552E+02  0.15590840495E+03  0.00000000000E+00 0.  1.
         -1    1    1    2    0  502 -0.13345505308E+03 -0.73866322986E+02  0.20677849743E+03  0.25695103009E+03  0.00000000000E+00 0.  1.
<scales pt_clust_5="13000.00000" pt_clust_6="13000.00000" pt_clust_7="13000.00000" pt_clust_8="13000.00000" pt_clust_9="169.81099"></scales>
<clustering>
<clus scale="   77.324">  5  6 -1 -1</clus>
<clus scale="   87.602">  1  5  2 -1</clus>
<clus scale="   91.346">  7  8 -1 -1</clus>
<clus scale="  169.811">  2  9  1 -1</clus>
<clus scale="  169.811">  2  5  1 -1</clus>
</clustering>
</event>
<event>
 9    1  0.6972855E-005  0.4472778E+03  0.7546771E-02  0.1028704E+00
         21   -1    0    0  501  502  0.00000000000E+00  0.00000000000E+00  0.48991109500E+03  0.48991109500E+03  0.00000000000E+00 0. -1.
          1   -1    0    0  502    0 -0.00000000000E+00 -0.00000000000E+00 -0.63816506642E+03  0.63816506642E+03  0.00000000000E+00 0. -1.
        -24    2    1    2    0    0 -0.12071838244E+03  0.38672877233E+03 -0.16442804583E+03  0.44456651282E+03  0.80440853175E+02 0.  0.
         23    2    1    2    0    0  0.69955353684E+02 -0.50983587325E+03  0.91218839757E+02  0.53065690839E+03  0.91921208240E+02 0.  0.
         13    1    3    3    0    0 -0.12065030196E+03  0.32833997256E+03 -0.16360021451E+03  0.38617180520E+03  0.00000000000E+00 0. -1.
        -14    1    3    3    0    0 -0.68080484660E-01  0.58388799770E+02 -0.82783131869E+00  0.58394707621E+02  0.00000000000E+00 0.  1.
        -11    1    4    4    0    0  0.60337994724E+01 -0.11214623884E+03 -0.16977499380E+02  0.11358442282E+03  0.00000000000E+00 0.  1.
         11    1    4    4    0    0  0.63921554212E+02 -0.39768963442E+03  0.10819633914E+03  0.41707248557E+03  0.00000000000E+00 0. -1.
          2    1    1    2  501    0  0.50763028756E+02  0.12310710092E+03 -0.75044765341E+02  0.15285274022E+03  0.00000000000E+00 0. -1.
<scales pt_clust_5="13000.00000" pt_clust_6="13000.00000" pt_clust_7="13000.00000" pt_clust_8="13000.00000" pt_clust_9="133.16254"></scales>
<clustering>
<clus scale="   80.441">  5  6 -1 -1</clus>
<clus scale="   91.921">  7  8 -1 -1</clus>
<clus scale="  133.163">  1  9  2 -1</clus>
<clus scale="  445.060">  2  5  1 -1</clus>
<clus scale="  133.163">  1  5  2 -1</clus>
</clustering>
</event>
<event>
 9    1  0.5981539E-005  0.9503720E+02  0.7546771E-02  0.1298362E+00
         21   -1    0    0  501  502  0.00000000000E+00  0.00000000000E+00  0.13917390909E+03  0.13917390909E+03  0.00000000000E+00 0. -1.
          1   -1    0    0  502    0 -0.00000000000E+00 -0.00000000000E+00 -0.96188167701E+02  0.96188167701E+02  0.00000000000E+00 0. -1.
         23    2    1    2    0    0 -0.98577968488E+01 -0.26973190735E+02 -0.14548841577E+02  0.97487646464E+02  0.92018711384E+02 0.  0.
        -24    2    1    2    0    0 -0.11184674193E+02  0.15967960919E+02  0.72851909499E+02  0.10961631356E+03  0.79550378811E+02 0.  0.
         11    1    4    4    0    0 -0.52022017229E+01 -0.26999997588E+02  0.57255022938E+02  0.63515355814E+02  0.00000000000E+00 0. -1.
        -12    1    4    4    0    0 -0.59824724704E+01  0.42967958507E+02  0.15596886561E+02  0.46100957750E+02  0.00000000000E+00 0.  1.
        -11    1    3    3    0    0  0.10825168519E+02  0.31137550002E+02  0.36756159926E+01  0.33169887648E+02  0.00000000000E+00 0.  1.
         11    1    3    3    0    0 -0.20682965368E+02 -0.58110740737E+02 -0.18224457569E+02  0.64317758816E+02  0.00000000000E+00 0. -1.
          2    1    1    2  501    0  0.21042471042E+02  0.11005229816E+02 -0.15317326534E+02  0.28258116763E+02  0.00000000000E+00 0. -1.
<scales pt_clust_5="13000.00000" pt_clust_6="13000.00000" pt_clust_7="13000.00000" pt_clust_8="13000.00000" pt_clust_9="23.74660"></scales>
<clustering>
<clus scale="   23.747">  1  9  2 -1</clus>
<clus scale="   79.550">  5  6 -1 -1</clus>
<clus scale="   83.023">  1  5  2 -1</clus>
<clus scale="   92.019">  7  8 -1 -1</clus>
<clus scale="   23.747">  1  5  2 -1</clus>
</clustering>
</event>
<event>
 9    1  0.5981539E-005  0.1002181E+03  0.7546771E-02  0.1285314E+00
         -2   -1    0    0    0  501 -0.00000000000E+00  0.00000000000E+00  0.13023473423E+03  0.13023473423E+03  0.00000000000E+00 0.  1.
         21   -1    0    0  501  502  0.00000000000E+00 -0.00000000000E+00 -0.37391578693E+03  0.37391578693E+03  0.00000000000E+00 0. -1.
         23    2    1    2    0    0 -0.59306625657E+01 -0.34957668554E+02  0.90772269420E+01  0.97669781521E+02  0.90552630134E+02 0.  0.
        -24    2    1    2    0    0  0.65793064992E+02  0.81038993776E+02 -0.29289390835E+03  0.32093622227E+03  0.79480634782E+02 0.  0.
         11    1    4    4    0    0  0.40523342154E+02  0.75587271618E+02 -0.27837453747E+03  0.29128673160E+03  0.00000000000E+00 0. -1.
        -12    1    4    4    0    0  0.25269722838E+02  0.54517221585E+01 -0.14519370876E+02  0.29649490678E+02  0.00000000000E+00 0.  1.
        -13    1    3    3    0    0  0.29987389309E+02 -0.35068578639E+02  0.31001456316E+02  0.55589018871E+02  0.00000000000E+00 0. -1.
         13    1    3    3    0    0 -0.35918051875E+02  0.11091008574E+00 -0.21924229374E+02  0.42080762650E+02  0.00000000000E+00 0.  1.
         -1    1    1    2    0  502 -0.59862402427E+02 -0.46081325222E+02  0.40135628718E+02  0.85544517364E+02  0.00000000000E+00 0.  1.
<scales pt_clust_5="13000.00000" pt_clust_6="13000.00000" pt_clust_7="13000.00000" pt_clust_8="13000.00000" pt_clust_9="75.54470"></scales>
<clustering>
<clus scale="   75.545">  2  9  1 -1</clus>
<clus scale="   79.481">  5  6 -1 -1</clus>
<clus scale="   90.339">  2  5  1 -1</clus>
<clus scale="   90.553">  7  8 -1 -1</clus>
<clus scale="   75.545">  2  5  1 -1</clus>
</clustering>
</event>
<event>
 9    1  0.5981539E-005  0.1095759E+03  0.7546771E-02  0.1266453E+00
         21   -1    0    0  501  502  0.00000000000E+00  0.00000000000E+00  0.15192458620E+03  0.15192458620E+03  0.00000000000E+00 0.  1.
          1   -1    0    0  502    0 -0.00000000000E+00 -0.00000000000E+00 -0.14189970106E+03  0.14189970106E+03  0.00000000000E+00 0. -1.
        -24    2    1    2    0    0 -0.19892256574E+02 -0.56064446432E+02 -0.82718918134E+02  0.12992833176E+03  0.80622750827E+02 0.  0.
         23    2    1    2    0    0  0.39588989581E+02  0.38717255365E+02  0.68476347610E+02  0.12814968670E+03  0.93096820898E+02 0.  0.
         13    1    3    3    0    0  0.24915332586E+01 -0.72278680029E+02 -0.63728977468E+02  0.96393972290E+02  0.00000000000E+00 0. -1.
        -14    1    3    3    0    0 -0.22383789833E+02  0.16214233597E+02 -0.18989940666E+02  0.33534359468E+02  0.00000000000E+00 0.  1.
        -13    1    4    4    0    0  0.16427237733E+02  0.41305279928E+02  0.87448454310E+02  0.98097973734E+02  0.00000000000E+00 0.  1.
         13    1    4    4    0    0  0.23161751849E+02 -0.25880245622E+01 -0.18972106700E+02  0.30051712971E+02  0.00000000000E+00 0. -1.
          2    1    1    2  501    0 -0.19696733007E+02  0.17347191067E+02  0.24267455664E+02  0.35746268805E+02  0.00000000000E+00 0. -1.
<scales pt_clust_5="13000.00000" pt_clust_6="13000.00000" pt_clust_7="13000.00000" pt_clust_8="13000.00000" pt_clust_9="26.24664"></scales>
<clustering>
<clus scale="   26.247">  1  9  2 -1</clus>
<clus scale="   80.623">  5  6 -1 -1</clus>
<clus scale="   93.097">  7  8 -1 -1</clus>
<clus scale="   99.196">  2  5  1 -1</clus>
<clus scale="   26.247">  1  5  2 -1</clus>
</clustering>
</event>
<event>
 9    1  0.5981539E-005  0.1009134E+03  0.7546771E-02  0.1283002E+00
          1   -1    0    0  502    0 -0.00000000000E+00  0.00000000000E+00  0.11340058761E+03  0.11340058761E+03  0.00000000000E+00 0. -1.
         21   -1    0    0  501  502  0.00000000000E+00 -0.00000000000E+00 -0.25512010676E+03  0.25512010676E+03  0.00000000000E+00 0. -1.
        -24    2    1    2    0    0  0.84028808691E+01  0.56635919738E+02  0.16214788504E+02  0.99292475183E+02  0.79484844154E+02 0.  0.
         23    2    1    2    0    0  0.66803932520E+02 -0.85467425538E+01 -0.13831532565E+03  0.17783052667E+03  0.89200642928E+02 0.  0.
         13    1    3    3    0    0  0.43712065912E+02  0.30024004114E+02  0.14794336046E+02  0.55055044349E+02  0.00000000000E+00 0. -1.
        -14    1    3    3    0    0 -0.35309185042E+02  0.26611915625E+02  0.14204524583E+01  0.44237430834E+02  0.00000000000E+00 0.  1.
        -11    1    4    4    0    0 -0.11317783638E+02  0.24467913884E+02 -0.33453238294E+02  0.42963824186E+02  0.00000000000E+00 0.  1.
         11    1    4    4    0    0  0.78121716158E+02 -0.33014656438E+02 -0.10486208736E+03  0.13486670249E+03  0.00000000000E+00 0. -1.
          2    1    1    2  501    0 -0.75206813389E+02 -0.48089177185E+02 -0.19618982001E+02  0.91397692516E+02  0.00000000000E+00 0. -1.
<scales pt_clust_5="13000.00000" pt_clust_6="13000.00000" pt_clust_7="13000.00000" pt_clust_8="13000.00000" pt_clust_9="89.26725"></scales>
<clustering>
<clus scale="   79.485">  5  6 -1 -1</clus>
<clus scale="   89.201">  7  8 -1 -1</clus>
<clus scale="   89.267">  2  9  1 -1</clus>
<clus scale="   92.437">  1  5  2 -1</clus>
<clus scale="   89.267">  2  5  1 -1</clus>
</clustering>
</event>
<event>
 9    1  0.5981539E-005  0.1056037E+03  0.7546771E-02  0.1272465E+00
          1   -1    0    0  502    0 -0.00000000000E+00  0.00000000000E+00  0.14224890550E+03  0.14224890550E+03  0.00000000000E+00 0. -1.
         21   -1    0    0  501  502  0.00000000000E+00 -0.00000000000E+00 -0.11975653521E+03  0.11975653521E+03  0.00000000000E+00 0. -1.
         23    2    1    2    0    0  0.58289223470E+02 -0.22772426071E+02  0.78398633090E+02  0.13425445653E+03  0.89228338922E+02 0.  0.
        -24    2    1    2    0    0 -0.41538550556E+02  0.71202426159E+01 -0.38591727347E+02  0.99021747717E+02  0.80869252897E+02 0.  0.
         13    1    4    4    0    0 -0.12332286893E+02 -0.23638232176E+02 -0.48607554566E+02  0.55439567832E+02  0.00000000000E+00 0. -1.
        -14    1    4    4    0    0 -0.29206263663E+02  0.30758474792E+02  0.10015827219E+02  0.43582179885E+02  0.00000000000E+00 0.  1.
        -11    1    3    3    0    0 -0.47716882265E+01  0.27342433678E+02  0.26883908234E+02  0.38640939557E+02  0.00000000000E+00 0.  1.
         11    1    3    3    0    0  0.63060911697E+02 -0.50114859748E+02  0.51514724857E+02  0.95613516977E+02  0.00000000000E+00 0. -1.
          2    1    1    2  501    0 -0.16750672914E+02  0.15652183455E+02 -0.17314535450E+02  0.28729236464E+02  0.00000000000E+00 0. -1.
<scales pt_clust_5="13000.00000" pt_clust_6="13000.00000" pt_clust_7="13000.00000" pt_clust_8="13000.00000" pt_clust_9="22.92544"></scales>
<clustering>
<clus scale="   22.925">  2  9  1 -1</clus>
<clus scale="   80.869">  5  6 -1 -1</clus>
<clus scale="   89.228">  7  8 -1 -1</clus>
<clus scale="   98.642">  2  5  1 -1</clus>
<clus scale="   22.925">  2  5  1 -1</clus>
</clustering>
</event>
<event>
 9    1  0.7084969E-005  0.1025729E+03  0.7546771E-02  0.1280446E+00
         21   -1    0    0  501  502  0.00000000000E+00  0.00000000000E+00  0.14188361526E+03  0.14188361526E+03  0.00000000000E+00 0.  1.
         -4   -1    0    0    0  501 -0.00000000000E+00 -0.00000000000E+00 -0.13542575304E+04  0.13542575304E+04  0.00000000000E+00 0.  1.
        -24    2    1    2    0    0 -0.34959023350E+02 -0.30024101963E+02 -0.12173808811E+04  0.12209290021E+04  0.80795040031E+02 0.  0.
         23    2    1    2    0    0  0.41130377615E+02 -0.10209473200E+01 -0.11385455542E+03  0.15220831457E+03  0.92259205174E+02 0.  0.
         13    1    3    3    0    0 -0.21027652640E+02  0.85259876171E+01 -0.90441751300E+02  0.93244651421E+02  0.00000000000E+00 0. -1.
        -14    1    3    3    0    0 -0.13931370710E+02 -0.38550089580E+02 -0.11269391298E+04  0.11276843506E+04  0.00000000000E+00 0.  1.
        -11    1    4    4    0    0 -0.27974440235E+02 -0.12929957970E+02 -0.37510058215E+02  0.48546447727E+02  0.00000000000E+00 0.  1.
         11    1    4    4    0    0  0.69104817851E+02  0.11909010650E+02 -0.76344497205E+02  0.10366186685E+03  0.00000000000E+00 0. -1.
         -3    1    1    2    0  502 -0.61713542653E+01  0.31045049283E+02  0.11886152134E+03  0.12300382902E+03  0.00000000000E+00 0.  1.
<scales pt_clust_5="13000.00000" pt_clust_6="13000.00000" pt_clust_7="13000.00000" pt_clust_8="13000.00000" pt_clust_9="31.65250"></scales>
<clustering>
<clus scale="   31.652">  1  9  2 -1</clus>
<clus scale="   80.795">  5  6 -1 -1</clus>
<clus scale="   92.259">  7  8 -1 -1</clus>
<clus scale="   92.397">  2  5  1 -1</clus>
<clus scale="   31.652">  1  5  2 -1</clus>
</clustering>
</event>
<event>
 9    1  0.5981539E-005  0.9278011E+02  0.7546771E-02  0.1327191E+00
         21   -1    0    0  501  502  0.00000000000E+00  0.00000000000E+00  0.35848681188E+03  0.35848681188E+03  0.00000000000E+00 0. -1.
         -2   -1    0    0    0  501 -0.00000000000E+00 -0.00000000000E+00 -0.46567555309E+02  0.46567555309E+02  0.00000000000E+00 0.  1.
        -24    2    1    2    0    0  0.39042837672E+01 -0.91412856987E+01  0.21009562279E+02  0.57040547470E+02  0.52090457980E+02 0.  0.
         23    2    1    2    0    0  0.17711942005E+02  0.13693118102E+02  0.30657050361E+03  0.32093539024E+03  0.92265034831E+02 0.  0.
         13    1    3    3    0    0 -0.22513784771E+02  0.50037265963E+01  0.89932500234E+01  0.24754521417E+02  0.00000000000E+00 0. -1.
        -14    1    3    3    0    0  0.26418068538E+02 -0.14145012295E+02  0.12016312255E+02  0.32286026054E+02  0.00000000000E+00 0.  1.
        -11    1    4    4    0    0 -0.10735370834E+02 -0.35948319733E+02  0.13200342526E+03  0.13723131625E+03  0.00000000000E+00 0. -1.
         11    1    4    4    0    0  0.28447312839E+02  0.49641437835E+02  0.17456707835E+03  0.18370407399E+03  0.00000000000E+00 0.  1.
         -1    1    1    2    0  502 -0.21616225772E+02 -0.45518324034E+01 -0.15660809313E+02  0.27078429482E+02  0.00000000000E+00 0.  1.
<scales pt_clust_5="13000.00000" pt_clust_6="13000.00000" pt_clust_7="13000.00000" pt_clust_8="13000.00000" pt_clust_9="22.09029"></scales>
<clustering>
<clus scale="   22.090">  1  9  2 -1</clus>
<clus scale="   52.090">  5  6 -1 -1</clus>
<clus scale="   52.997">  2  5  1 -1</clus>
<clus scale="   92.265">  7  8 -1 -1</clus>
<clus scale="   22.090">  1  5  2 -1</clus>
</clustering>
</event>
<event>
 9    1  0.5981539E-005  0.1493053E+03  0.7546771E-02  0.1228316E+00
          1   -1    0    0  502    0 -0.00000000000E+00  0.00000000000E+00  0.16348773979E+03  0.16348773979E+03  0.00000000000E+00 0. -1.
         21   -1    0    0  501  502  0.00000000000E+00 -0.00000000000E+00 -0.18961665427E+03  0.18961665427E+03  0.00000000000E+00 0.  1.
        -24    2    1    2    0    0  0.17561696336E+02  0.17570126371E+02 -0.20666410763E+02  0.86791860056E+02  0.80551870986E+02 0.  0.
         23    2    1    2    0    0 -0.97071811248E+02 -0.86533824927E+02 -0.65865496377E+01  0.16105516575E+03  0.94785781543E+02 0.  0.
         13    1    3    3    0    0  0.39891358318E+02 -0.99185193164E+01 -0.29127836148E+02  0.50379840537E+02  0.00000000000E+00 0. -1.
        -14    1    3    3    0    0 -0.22329661982E+02  0.27488645687E+02  0.84614253846E+01  0.36412019519E+02  0.00000000000E+00 0.  1.
        -13    1    4    4    0    0 -0.28862305385E+02 -0.84079050086E+01  0.37755218325E+02  0.48261600155E+02  0.00000000000E+00 0. -1.
         13    1    4    4    0    0 -0.68209505863E+02 -0.78125919919E+02 -0.44341767963E+02  0.11279356559E+03  0.00000000000E+00 0.  1.
          2    1    1    2  501    0  0.79510114912E+02  0.68963698557E+02  0.11240459220E+01  0.10525736825E+03  0.00000000000E+00 0. -1.
<scales pt_clust_5="13000.00000" pt_clust_6="13000.00000" pt_clust_7="13000.00000" pt_clust_8="13000.00000" pt_clust_9="115.35917"></scales>
<clustering>
<clus scale="   80.552">  5  6 -1 -1</clus>
<clus scale="   84.296">  1  5  2 -1</clus>
<clus scale="   94.786">  7  8 -1 -1</clus>
<clus scale="  115.359">  2  9  1 -1</clus>
<clus scale="  115.359">  2  5  1 -1</clus>
</clustering>
</event>
<event>
 9    1  0.5981539E-005  0.1546176E+03  0.7546771E-02  0.1196584E+00
         -2   -1    0    0    0  501 -0.00000000000E+00  0.00000000000E+00  0.77603896350E+03  0.77603896350E+03  0.00000000000E+00 0.  1.
         21   -1    0    0  501  502  0.00000000000E+00 -0.00000000000E+00 -0.68895965841E+02  0.68895965841E+02  0.00000000000E+00 0.  1.
        -24    2    1    2    0    0  0.91571290726E+02  0.50025390001E+02  0.29911978495E+03  0.32684878215E+03  0.80434070589E+02 0.  0.
         23    2    1    2    0    0 -0.11509625254E+03 -0.10501805739E+03  0.42009204957E+03  0.45706750973E+03  0.90318539688E+02 0.  0.
         13    1    3    3    0    0  0.36667686138E+02  0.62655063656E+02  0.13428098274E+03  0.15264848029E+03  0.00000000000E+00 0. -1.
        -14    1    3    3    0    0  0.54903604589E+02 -0.12629673655E+02  0.16483880221E+03  0.17420030186E+03  0.00000000000E+00 0.  1.
        -13    1    4    4    0    0 -0.11322321228E+03 -0.52461273334E+02  0.25675645352E+03  0.28547426754E+03  0.00000000000E+00 0.  1.
         13    1    4    4    0    0 -0.18730402550E+01 -0.52556784056E+02  0.16333559605E+03  0.17159324219E+03  0.00000000000E+00 0. -1.
         -1    1    1    2    0  502  0.23524961814E+02  0.54992667389E+02 -0.12068836862E+02  0.61018637465E+02  0.00000000000E+00 0.  1.
<scales pt_clust_5="13000.00000" pt_clust_6="13000.00000" pt_clust_7="13000.00000" pt_clust_8="13000.00000" pt_clust_9="59.81319"></scales>
<clustering>
<clus scale="   59.813">  2  9  1 -1</clus>
<clus scale="   80.434">  5  6 -1 -1</clus>
<clus scale="   90.319">  7  8 -1 -1</clus>
<clus scale="  149.060">  1  5  2 -1</clus>
<clus scale="   59.813">  2  5  1 -1</clus>
</clustering>
</event>
<event>
 9    1  0.5981539E-005  0.1321184E+03  0.7546771E-02  0.1229116E+00
         21   -1    0    0  501  502  0.00000000000E+00  0.00000000000E+00  0.14436395134E+03  0.14436395134E+03  0.00000000000E+00 0. -1.
          1   -1    0    0  502    0 -0.00000000000E+00 -0.00000000000E+00 -0.32439297266E+03  0.32439297266E+03  0.00000000000E+00 0. -1.
         23    2    1    2    0    0  0.10790757549E+03  0.54716600120E+01 -0.23301950322E+03  0.27467077113E+03  0.97323993533E+02 0.  0.
        -24    2    1    2    0    0 -0.52207465944E+02  0.24294442793E+02 -0.17123731440E+02  0.99722356890E+02  0.79595771460E+02 0.  0.
         13    1    4    4    0    0 -0.32681617018E+02  0.50044353316E+02  0.58740997997E+01  0.60058558409E+02  0.00000000000E+00 0. -1.
        -14    1    4    4    0    0 -0.19525848926E+02 -0.25749910522E+02 -0.22997831240E+02  0.39663798481E+02  0.00000000000E+00 0.  1.
        -13    1    3    3    0    0  0.69336493074E+02  0.19702506732E+02 -0.22005914346E+03  0.23156373780E+03  0.00000000000E+00 0. -1.
         13    1    3    3    0    0  0.38571082416E+02 -0.14230846720E+02 -0.12960359765E+02  0.43107033328E+02  0.00000000000E+00 0.  1.
          2    1    1    2  501    0 -0.55700109547E+02 -0.29766102805E+02  0.70114213341E+02  0.94363795982E+02  0.00000000000E+00 0. -1.
<scales pt_clust_5="13000.00000" pt_clust_6="13000.00000" pt_clust_7="13000.00000" pt_clust_8="13000.00000" pt_clust_9="63.15476"></scales>
<clustering>
<clus scale="   63.155">  1  9  2 -1</clus>
<clus scale="   79.596">  5  6 -1 -1</clus>
<clus scale="   97.324">  7  8 -1 -1</clus>
<clus scale="  119.661">  1  5  2 -1</clus>
<clus scale="   63.155">  1  5  2 -1</clus>
</clustering>
</event>
<event>
 9    1  0.5981539E-005  0.9752325E+02  0.7546771E-02  0.1289844E+00
         21   -1    0    0  501  502  0.00000000000E+00  0.00000000000E+00  0.40746041670E+03  0.40746041670E+03  0.00000000000E+00 0. -1.
          3   -1    0    0  502    0 -0.00000000000E+00 -0.00000000000E+00 -0.29791980131E+02  0.29791980131E+02  0.00000000000E+00 0. -1.
         23    2    1    2    0    0 -0.25534158074E+02  0.15021292862E+02  0.16008940797E+03  0.18616501645E+03  0.90283787786E+02 0.  0.
        -24    2    1    2    0    0  0.48050200152E+02  0.45985952427E+01  0.17128216109E+03  0.19599371377E+03  0.82133965665E+02 0.  0.
         13    1    4    4    0    0  0.39385330041E+02  0.21108423872E+00  0.17919107148E+03  0.18346849559E+03  0.00000000000E+00 0. -1.
        -14    1    4    4    0    0  0.86648701111E+01  0.43875110040E+01 -0.79089103844E+01  0.12525218175E+02  0.00000000000E+00 0.  1.
        -13    1    3    3    0    0 -0.37471398525E+02 -0.27522989638E+02  0.10969891474E+03  0.11914475466E+03  0.00000000000E+00 0.  1.
         13    1    3    3    0    0  0.11937240450E+02  0.42544282501E+02  0.50390493225E+02  0.67020261791E+02  0.00000000000E+00 0. -1.
          4    1    1    2  501    0 -0.22516042077E+02 -0.19619888105E+02  0.46296867507E+02  0.55093666615E+02  0.00000000000E+00 0. -1.
<scales pt_clust_5="13000.00000" pt_clust_6="13000.00000" pt_clust_7="13000.00000" pt_clust_8="13000.00000" pt_clust_9="29.86491"></scales>
<clustering>
<clus scale="   29.865">  1  9  2 -1</clus>
<clus scale="   82.134">  5  6 -1 -1</clus>
<clus scale="   90.031">  1  5  2 -1</clus>
<clus scale="   90.284">  7  8 -1 -1</clus>
<clus scale="   29.865">  1  5  2 -1</clus>
</clustering>
</event>
<event>
 9    1  0.5981539E-005  0.1026392E+03  0.7546771E-02  0.1279371E+00
          1   -1    0    0  502    0 -0.00000000000E+00  0.00000000000E+00  0.39886732806E+02  0.39886732806E+02  0.00000000000E+00 0. -1.
         21   -1    0    0  501  502  0.00000000000E+00 -0.00000000000E+00 -0.62237487446E+03  0.62237487446E+03  0.00000000000E+00 0. -1.
         23    2    1    2    0    0 -0.11235933340E+02  0.23863198313E+02 -0.17133738360E+03  0.19518508507E+03  0.89694035383E+02 0.  0.
        -24    2    1    2    0    0  0.93722037592E+02 -0.36663704073E+02 -0.31238680884E+03  0.33776245488E+03  0.79811716311E+02 0.  0.
         13    1    4    4    0    0  0.10601087777E+03 -0.33683223482E+02 -0.24321323098E+03  0.26744259472E+03  0.00000000000E+00 0. -1.
        -14    1    4    4    0    0 -0.12288840182E+02 -0.29804805906E+01 -0.69173577861E+02  0.70319860151E+02  0.00000000000E+00 0.  1.
        -11    1    3    3    0    0 -0.11286381537E+02 -0.33651755817E+02 -0.75221629570E+02  0.83175216458E+02  0.00000000000E+00 0.  1.
         11    1    3    3    0    0  0.50448197393E-01  0.57514954130E+02 -0.96115754026E+02  0.11200986861E+03  0.00000000000E+00 0. -1.
          2    1    1    2  501    0 -0.82486104252E+02  0.12800505760E+02 -0.98763949220E+02  0.12931406732E+03  0.00000000000E+00 0. -1.
<scales pt_clust_5="13000.00000" pt_clust_6="13000.00000" pt_clust_7="13000.00000" pt_clust_8="13000.00000" pt_clust_9="83.47345"></scales>
<clustering>
<clus scale="   79.812">  5  6 -1 -1</clus>
<clus scale="   83.473">  2  9  1 -1</clus>
<clus scale="   89.694">  7  8 -1 -1</clus>
<clus scale="   94.126">  2  5  1 -1</clus>
<clus scale="   83.473">  2  5  1 -1</clus>
</clustering>
</event>
<event>
 9    1  0.5981539E-005  0.1995387E+03  0.7546771E-02  0.1183326E+00
         21   -1    0    0  501  502  0.00000000000E+00  0.00000000000E+00  0.24055298419E+03  0.24055298419E+03  0.00000000000E+00 0.  1.
          1   -1    0    0  502    0 -0.00000000000E+00 -0.00000000000E+00 -0.26033796321E+03  0.26033796321E+03  0.00000000000E+00 0. -1.
         23    2    1    2    0    0 -0.17282079153E+02 -0.10556831555E+02  0.12427321303E+02  0.93785051030E+02  0.90725302588E+02 0.  0.
        -24    2    1    2    0    0  0.14648830559E+02  0.19015433800E+03 -0.79371038862E+02  0.22140144047E+03  0.79659120875E+02 0.  0.
         13    1    4    4    0    0  0.46008766795E+02  0.82266157809E+02 -0.39164893717E+02  0.10207064339E+03  0.00000000000E+00 0. -1.
        -14    1    4    4    0    0 -0.31359936236E+02  0.10788818019E+03 -0.40206145145E+02  0.11933079708E+03  0.00000000000E+00 0.  1.
        -13    1    3    3    0    0 -0.57404603648E+01 -0.35476333442E+02  0.40750793199E+02  0.54333693654E+02  0.00000000000E+00 0.  1.
         13    1    3    3    0    0 -0.11541618788E+02  0.24919501888E+02 -0.28323471896E+02  0.39451357376E+02  0.00000000000E+00 0. -1.
          2    1    1    2  501    0  0.26332485939E+01 -0.17959750644E+03  0.47158738544E+02  0.18570445589E+03  0.00000000000E+00 0. -1.
<scales pt_clust_5="13000.00000" pt_clust_6="13000.00000" pt_clust_7="13000.00000" pt_clust_8="13000.00000" pt_clust_9="182.94845"></scales>
<clustering>
<clus scale="   79.659">  5  6 -1 -1</clus>
<clus scale="   90.725">  7  8 -1 -1</clus>
<clus scale="   92.958">  2  7  1 -1</clus>
<clus scale="  182.948">  1  9  2 -1</clus>
<clus scale="  182.948">  1  5  2 -1</clus>
</clustering>
</event>
<event>
 9    1  0.5981539E-005  0.1526740E+03  0.7546771E-02  0.1230207E+00
         21   -1    0    0  501  502  0.00000000000E+00  0.00000000000E+00  0.57678677293E+02  0.57678677293E+02  0.00000000000E+00 0.  1.
         -2   -1    0    0    0  501 -0.00000000000E+00 -0.00000000000E+00 -0.11914467923E+04  0.11914467923E+04  0.00000000000E+00 0.  1.
        -24    2    1    2    0    0  0.10456852803E+02  0.19987455470E+01 -0.45299822881E+03  0.45929875921E+03  0.75064066982E+02 0.  0.
         23    2    1    2    0    0  0.80844069218E+02 -0.88460005619E+02 -0.64096539483E+03  0.65793355136E+03  0.87629815198E+02 0.  0.
         11    1    3    3    0    0 -0.14373848226E+02  0.27507851962E+02 -0.10518429176E+03  0.10966779229E+03  0.00000000000E+00 0. -1.
        -12    1    3    3    0    0  0.24830701030E+02 -0.25509106415E+02 -0.34781393705E+03  0.34963096692E+03  0.00000000000E+00 0.  1.
        -13    1    4    4    0    0  0.56834923346E+02 -0.49179714160E+01 -0.17930751688E+03  0.18816370682E+03  0.00000000000E+00 0.  1.
         13    1    4    4    0    0  0.24009145871E+02 -0.83542034203E+02 -0.46165787795E+03  0.46976984454E+03  0.00000000000E+00 0. -1.
         -1    1    1    2    0  502 -0.91300922021E+02  0.86461260072E+02 -0.39804491314E+02  0.13189315897E+03  0.00000000000E+00 0.  1.
<scales pt_clust_5="13000.00000" pt_clust_6="13000.00000" pt_clust_7="13000.00000" pt_clust_8="13000.00000" pt_clust_9="125.02149"></scales>
<clustering>
<clus scale="   75.064">  5  6 -1 -1</clus>
<clus scale="   75.815">  2  5  1 -1</clus>
<clus scale="   87.630">  7  8 -1 -1</clus>
<clus scale="  125.021">  1  9  2 -1</clus>
<clus scale="  125.021">  1  5  2 -1</clus>
</clustering>
</event>
<event>
 9    1  0.5981539E-005  0.3475075E+03  0.7546771E-02  0.1112911E+00
         -4   -1    0    0    0  501 -0.00000000000E+00  0.00000000000E+00  0.68813563204E+02  0.68813563204E+02  0.00000000000E+00 0.  1.
         21   -1    0    0  501  502  0.00000000000E+00 -0.00000000000E+00 -0.22690617352E+04  0.22690617352E+04  0.00000000000E+00 0.  1.
        -24    2    1    2    0    0  0.28308803498E+02 -0.39709336145E+02 -0.17563584333E+03  0.19921581224E+03  0.80378919190E+02 0.  0.
         23    2    1    2    0    0  0.31863051173E+03  0.24946288918E+02 -0.82040244095E+03  0.88538126898E+03  0.93231464650E+02 0.  0.
         13    1    3    3    0    0  0.19303988735E+02  0.23163909259E+02 -0.64775764764E+02  0.71450055101E+02  0.00000000000E+00 0. -1.
        -14    1    3    3    0    0  0.90048147632E+01 -0.62873245404E+02 -0.11086007857E+03  0.12776575713E+03  0.00000000000E+00 0.  1.
        -11    1    4    4    0    0  0.83566334576E+02 -0.34246874234E+02 -0.20887583891E+03  0.22756383005E+03  0.00000000000E+00 0. -1.
         11    1    4    4    0    0  0.23506417715E+03  0.59193163152E+02 -0.61152660205E+03  0.65781743893E+03  0.00000000000E+00 0.  1.
         -3    1    1    2    0  502 -0.34693931523E+03  0.14763047227E+02 -0.12042098877E+04  0.12532782172E+04  0.00000000000E+00 0.  1.
<scales pt_clust_5="13000.00000" pt_clust_6="13000.00000" pt_clust_7="13000.00000" pt_clust_8="13000.00000" pt_clust_9="334.76762"></scales>
<clustering>
<clus scale="   80.379">  5  6 -1 -1</clus>
<clus scale="   93.231">  7  8 -1 -1</clus>
<clus scale="   94.016">  1  5  2 -1</clus>
<clus scale="  334.768">  2  9  1 -1</clus>
<clus scale="  334.768">  2  5  1 -1</clus>
</clustering>
</event>
<event>
 9    1  0.5981539E-005  0.9746513E+02  0.7546771E-02  0.1289302E+00
         21   -1    0    0  501  502  0.00000000000E+00  0.00000000000E+00  0.38001584546E+03  0.38001584546E+03  0.00000000000E+00 0. -1.
          1   -1    0    0  502    0 -0.00000000000E+00 -0.00000000000E+00 -0.15652664851E+03  0.15652664851E+03  0.00000000000E+00 0. -1.
        -24    2    1    2    0    0  0.34612864051E+02  0.22739646129E+02  0.27888659999E+01  0.92795852426E+02  0.82994882915E+02 0.  0.
         23    2    1    2    0    0 -0.45828121328E+02  0.69244420468E+02  0.29858480749E+03  0.32269771676E+03  0.89921758616E+02 0.  0.
         11    1    3    3    0    0  0.12799149865E+02 -0.29415665809E+02  0.14267034526E+02  0.35109085810E+02  0.00000000000E+00 0. -1.
        -12    1    3    3    0    0  0.21813714185E+02  0.52155311938E+02 -0.11478168527E+02  0.57686766616E+02  0.00000000000E+00 0.  1.
        -13    1    4    4    0    0  0.69529886179E+00  0.24258350686E+02  0.88632079967E+01  0.25836166018E+02  0.00000000000E+00 0.  1.
         13    1    4    4    0    0 -0.46523420190E+02  0.44986069782E+02  0.28972159949E+03  0.29686155075E+03  0.00000000000E+00 0. -1.
          2    1    1    2  501    0  0.11215257278E+02 -0.91984066597E+02 -0.77884476541E+02  0.12104892478E+03  0.00000000000E+00 0. -1.
<scales pt_clust_5="13000.00000" pt_clust_6="13000.00000" pt_clust_7="13000.00000" pt_clust_8="13000.00000" pt_clust_9="92.66531"></scales>
<clustering>
<clus scale="   82.995">  5  6 -1 -1</clus>
<clus scale="   89.922">  7  8 -1 -1</clus>
<clus scale="   92.665">  1  9  2 -1</clus>
<clus scale="   91.114">  2  5  1 -1</clus>
<clus scale="   92.665">  1  5  2 -1</clus>
</clustering>
</event>
<event>
 9    1  0.5981539E-005  0.2509375E+03  0.7546771E-02  0.1113180E+00
         21   -1    0    0  501  502  0.00000000000E+00  0.00000000000E+00  0.12977663350E+03  0.12977663350E+03  0.00000000000E+00 0. -1.
          3   -1    0    0  502    0 -0.00000000000E+00 -0.00000000000E+00 -0.94286996364E+03  0.94286996364E+03  0.00000000000E+00 0. -1.
        -24    2    1    2    0    0 -0.13239649078E+02  0.23546184777E+03 -0.70505866165E+03  0.74809277541E+03  0.83171594812E+02 0.  0.
         23    2    1    2    0    0  0.68054672452E+02 -0.21947867212E+03 -0.74517828059E+02  0.25834561013E+03  0.91581775566E+02 0.  0.
         11    1    3    3    0    0 -0.27204212802E+02  0.17790470959E+03 -0.41982189601E+03  0.45677191164E+03  0.00000000000E+00 0. -1.
        -12    1    3    3    0    0  0.13964563724E+02  0.57557138175E+02 -0.28523676564E+03  0.29132086377E+03  0.00000000000E+00 0.  1.
        -13    1    4    4    0    0  0.54616158805E+02 -0.11773991737E+03  0.28573927719E+01  0.12982209996E+03  0.00000000000E+00 0.  1.
         13    1    4    4    0    0  0.13438513647E+02 -0.10173875475E+03 -0.77375220830E+02  0.12852351017E+03  0.00000000000E+00 0. -1.
          4    1    1    2  501    0 -0.54815023373E+02 -0.15983175640E+02 -0.33516840425E+02  0.66208211598E+02  0.00000000000E+00 0. -1.
<scales pt_clust_5="13000.00000" pt_clust_6="13000.00000" pt_clust_7="13000.00000" pt_clust_8="13000.00000" pt_clust_9="57.09771"></scales>
<clustering>
<clus scale="   57.098">  1  9  2 -1</clus>
<clus scale="   83.172">  5  6 -1 -1</clus>
<clus scale="   91.582">  7  8 -1 -1</clus>
<clus scale="  247.992">  2  5  1 -1</clus>
<clus scale="   57.098">  1  5  2 -1</clus>
</clustering>
</event>
<event>
 9    1  0.5981539E-005  0.2013277E+03  0.7546771E-02  0.1162158E+00
         -2   -1    0    0    0  501 -0.00000000000E+00  0.00000000000E+00  0.41564124933E+03  0.41564124933E+03  0.00000000000E+00 0.  1.
         21   -1    0    0  501  502  0.00000000000E+00 -0.00000000000E+00 -0.19640230247E+03  0.19640230247E+03  0.00000000000E+00 0. -1.
         23    2    1    2    0    0  0.10682081168E+03 -0.41743641266E+02 -0.20302018815E+02  0.14793925633E+03  0.91217510397E+02 0.  0.
        -24    2    1    2    0    0 -0.16284618171E+03 -0.12070425275E+03  0.14970606377E+03  0.27020104650E+03  0.97510535178E+02 0.  0.
         11    1    4    4    0    0 -0.75430061440E+02 -0.11446619390E+03  0.85543706548E+02  0.16158567215E+03  0.00000000000E+00 0. -1.
        -12    1    4    4    0    0 -0.87416120268E+02 -0.62380588562E+01  0.64162357226E+02  0.10861537435E+03  0.00000000000E+00 0.  1.
        -11    1    3    3    0    0 -0.44089752246E+01 -0.19815187156E+02 -0.27683291965E+02  0.34328491936E+02  0.00000000000E+00 0.  1.
         11    1    3    3    0    0  0.11122978690E+03 -0.21928454109E+02  0.73812731493E+01  0.11361076440E+03  0.00000000000E+00 0. -1.
         -1    1    1    2    0  502  0.56025370032E+02  0.16244789402E+03  0.89834901909E+02  0.19390324897E+03  0.00000000000E+00 0.  1.
<scales pt_clust_5="13000.00000" pt_clust_6="13000.00000" pt_clust_7="13000.00000" pt_clust_8="13000.00000" pt_clust_9="176.13789"></scales>
<clustering>
<clus scale="   91.218">  7  8 -1 -1</clus>
<clus scale="   97.511">  5  6 -1 -1</clus>
<clus scale="  146.540">  1  7  2 -1</clus>
<clus scale="  176.138">  2  9  1 -1</clus>
<clus scale="  176.138">  2  5  1 -1</clus>
</clustering>
</event>
<event>
 9    1  0.5981539E-005  0.2154214E+03  0.7546771E-02  0.1138432E+00
         21   -1    0    0  501  502  0.00000000000E+00  0.00000000000E+00  0.29552287736E+03  0.29552287736E+03  0.00000000000E+00 0.  1.
         -4   -1    0    0    0  501 -0.00000000000E+00 -0.00000000000E+00 -0.21995029539E+03  0.21995029539E+03  0.00000000000E+00 0.  1.
        -24    2    1    2    0    0  0.20294628357E+03 -0.36664166572E+02 -0.14398761406E+02  0.22116958520E+03  0.78595203180E+02 0.  0.
         23    2    1    2    0    0 -0.17719289009E+03 -0.78105423531E+01  0.12145695084E+03  0.23403269501E+03  0.92526680232E+02 0.  0.
         11    1    3    3    0    0  0.12695126863E+03 -0.42619578180E+01 -0.42441231303E+02  0.13392552783E+03  0.00000000000E+00 0. -1.
        -12    1    3    3    0    0  0.75995014938E+02 -0.32402208754E+02  0.28042469898E+02  0.87244057365E+02  0.00000000000E+00 0.  1.
        -13    1    4    4    0    0 -0.47423278483E+02  0.39696999577E+02  0.38704097556E+02  0.72957702027E+02  0.00000000000E+00 0. -1.
         13    1    4    4    0    0 -0.12976961161E+03 -0.47507541930E+02  0.82752853288E+02  0.16107499298E+03  0.00000000000E+00 0.  1.
         -3    1    1    2    0  502 -0.25753393472E+02  0.44474708925E+02 -0.31485607467E+02  0.60270892534E+02  0.00000000000E+00 0.  1.
<scales pt_clust_5="13000.00000" pt_clust_6="13000.00000" pt_clust_7="13000.00000" pt_clust_8="13000.00000" pt_clust_9="51.39299"></scales>
<clustering>
<clus scale="   51.393">  1  9  2 -1</clus>
<clus scale="   78.595">  5  6 -1 -1</clus>
<clus scale="   92.527">  7  8 -1 -1</clus>
<clus scale="  209.815">  2  5  1 -1</clus>
<clus scale="   51.393">  1  5  2 -1</clus>
</clustering>
</event>
<event>
 9    1  0.5981539E-005  0.1294500E+03  0.7546771E-02  0.1230962E+00
          1   -1    0    0  502    0 -0.00000000000E+00  0.00000000000E+00  0.60293388682E+03  0.60293388682E+03  0.00000000000E+00 0. -1.
         21   -1    0    0  501  502  0.00000000000E+00 -0.00000000000E+00 -0.34224609168E+02  0.34224609168E+02  0.00000000000E+00 0.  1.
        -24    2    1    2    0    0  0.76779560221E+02 -0.56294812034E+02  0.28152687714E+03  0.30847893843E+03  0.82690181852E+02 0.  0.
         23    2    1    2    0    0 -0.48938383230E+02  0.72422913990E+02  0.23646743650E+03  0.26861913479E+03  0.92732665348E+02 0.  0.
         11    1    3    3    0    0  0.23682108126E+02 -0.42644596523E+02  0.22305005865E+03  0.22832155510E+03  0.00000000000E+00 0. -1.
        -12    1    3    3    0    0  0.53097452095E+02 -0.13650215511E+02  0.58476818485E+02  0.80157383332E+02  0.00000000000E+00 0.  1.
        -11    1    4    4    0    0 -0.50304612403E+02 -0.37846609874E+01  0.80053177230E+02  0.94622348694E+02  0.00000000000E+00 0. -1.
         11    1    4    4    0    0  0.13662291734E+01  0.76207574977E+02  0.15641425927E+03  0.17399678609E+03  0.00000000000E+00 0.  1.
          2    1    1    2  501    0 -0.27841176991E+02 -0.16128101955E+02  0.50714964018E+02  0.60060422778E+02  0.00000000000E+00 0. -1.
<scales pt_clust_5="13000.00000" pt_clust_6="13000.00000" pt_clust_7="13000.00000" pt_clust_8="13000.00000" pt_clust_9="32.17525"></scales>
<clustering>
<clus scale="   32.175">  2  9  1 -1</clus>
<clus scale="   82.690">  5  6 -1 -1</clus>
<clus scale="   92.733">  7  8 -1 -1</clus>
<clus scale="  122.457">  1  5  2 -1</clus>
<clus scale="   32.175">  2  5  1 -1</clus>
</clustering>
</event>
<event>
 9    1  0.5981539E-005  0.2321450E+03  0.7546771E-02  0.1146219E+00
         21   -1    0    0  501  502  0.00000000000E+00  0.00000000000E+00  0.22599640970E+03  0.22599640970E+03  0.00000000000E+00 0.  1.
         -2   -1    0    0    0  501 -0.00000000000E+00 -0.00000000000E+00 -0.71132761446E+03  0.71132761446E+03  0.00000000000E+00 0.  1.
        -24    2    1    2    0    0 -0.86846093434E+02 -0.74302383176E+02 -0.20371681407E+03  0.24665244654E+03  0.79207328942E+02 0.  0.
         23    2    1    2    0    0  0.22543736201E+03  0.42871311548E+02  0.11277262433E+03  0.27146211970E+03  0.91181489849E+02 0.  0.
         11    1    3    3    0    0 -0.22914937296E+02 -0.64718804792E+02 -0.13977437048E+03  0.15572569694E+03  0.00000000000E+00 0. -1.
        -12    1    3    3    0    0 -0.63931156138E+02 -0.95835783836E+01 -0.63942443588E+02  0.90926749594E+02  0.00000000000E+00 0.  1.
        -11    1    4    4    0    0  0.12546932347E+03 -0.72604818990E+01  0.96493734054E+02  0.15844969688E+03  0.00000000000E+00 0.  1.
         11    1    4    4    0    0  0.99968038541E+02  0.50131793447E+02  0.16278890277E+02  0.11301242282E+03  0.00000000000E+00 0. -1.
         -1    1    1    2    0  502 -0.13859126858E+03  0.31431071627E+02 -0.39438701502E+03  0.41920945792E+03  0.00000000000E+00 0.  1.
<scales pt_clust_5="13000.00000" pt_clust_6="13000.00000" pt_clust_7="13000.00000" pt_clust_8="13000.00000" pt_clust_9="213.48839"></scales>
<clustering>
<clus scale="   79.207">  5  6 -1 -1</clus>
<clus scale="   91.181">  7  8 -1 -1</clus>
<clus scale="  139.057">  2  5  1 -1</clus>
<clus scale="  213.488">  1  9  2 -1</clus>
<clus scale="  213.488">  1  5  2 -1</clus>
</clustering>
</event>
<event>
 9    1  0.5981539E-005  0.1551635E+03  0.7546771E-02  0.1194530E+00
          1   -1    0    0  502    0 -0.00000000000E+00  0.00000000000E+00  0.76763688151E+02  0.76763688151E+02  0.00000000000E+00 0. -1.
         21   -1    0    0  501  502  0.00000000000E+00 -0.00000000000E+00 -0.70523929460E+03  0.70523929460E+03  0.00000000000E+00 0. -1.
        -24    2    1    2    0    0 -0.85426387215E+02 -0.13746693099E+03 -0.97824124976E+02  0.20609474771E+03  0.81918623395E+02 0.  0.
         23    2    1    2    0    0  0.54803857782E+02  0.71508172313E+02 -0.18101910625E+03  0.21879327461E+03  0.83580492067E+02 0.  0.
         11    1    3    3    0    0 -0.43547692243E+02 -0.87417478238E+02 -0.12179429800E+02  0.98420300302E+02  0.00000000000E+00 0. -1.
        -12    1    3    3    0    0 -0.41878694971E+02 -0.50049452750E+02 -0.85644695176E+02  0.10767444741E+03  0.00000000000E+00 0.  1.
        -13    1    4    4    0    0  0.44787230145E+02  0.26139656284E+01 -0.11248476989E+03  0.12110141311E+03  0.00000000000E+00 0.  1.
         13    1    4    4    0    0  0.10016627637E+02  0.68894206684E+02 -0.68534336360E+02  0.97691861505E+02  0.00000000000E+00 0. -1.
          2    1    1    2  501    0  0.30622529432E+02  0.65958758676E+02 -0.34963237523E+03  0.35711496043E+03  0.00000000000E+00 0. -1.
<scales pt_clust_5="13000.00000" pt_clust_6="13000.00000" pt_clust_7="13000.00000" pt_clust_8="13000.00000" pt_clust_9="72.72068"></scales>
<clustering>
<clus scale="   72.721">  2  9  1 -1</clus>
<clus scale="   81.919">  5  6 -1 -1</clus>
<clus scale="   83.580">  7  8 -1 -1</clus>
<clus scale="  154.275">  1  5  2 -1</clus>
<clus scale="   72.721">  2  5  1 -1</clus>
</clustering>
</event>
<event>
 9    1  0.5981539E-005  0.1244740E+03  0.7546771E-02  0.1243001E+00
         21   -1    0    0  501  502  0.00000000000E+00  0.00000000000E+00  0.64449866923E+02  0.64449866923E+02  0.00000000000E+00 0.  1.
          1   -1    0    0  502    0 -0.00000000000E+00 -0.00000000000E+00 -0.38955810436E+03  0.38955810436E+03  0.00000000000E+00 0. -1.
        -24    2    1    2    0    0  0.73013876447E+02 -0.23488371828E+02 -0.27364154367E+03  0.29526562655E+03  0.80120946264E+02 0.  0.
         23    2    1    2    0    0 -0.46655530444E+02  0.20434345261E+02 -0.16395288334E+02  0.11476402097E+03  0.10152671591E+03 0.  0.
         11    1    3    3    0    0  0.25399679567E+02  0.26779017853E+02 -0.13961532781E+03  0.14441156214E+03  0.00000000000E+00 0. -1.
        -12    1    3    3    0    0  0.47614196880E+02 -0.50267389681E+02 -0.13402621586E+03  0.15085406441E+03  0.00000000000E+00 0.  1.
        -13    1    4    4    0    0  0.98316507392E+01 -0.33811513283E+02 -0.33801745761E+01  0.35373794918E+02  0.00000000000E+00 0.  1.
         13    1    4    4    0    0 -0.56487181183E+02  0.54245858543E+02 -0.13015113758E+02  0.79390226056E+02  0.00000000000E+00 0. -1.
          2    1    1    2  501    0 -0.26358346003E+02  0.30540265675E+01 -0.35071405428E+02  0.43978323762E+02  0.00000000000E+00 0. -1.
<scales pt_clust_5="13000.00000" pt_clust_6="13000.00000" pt_clust_7="13000.00000" pt_clust_8="13000.00000" pt_clust_9="26.53470"></scales>
<clustering>
<clus scale="   26.535">  1  9  2 -1</clus>
<clus scale="   80.121">  5  6 -1 -1</clus>
<clus scale="  101.527">  7  8 -1 -1</clus>
<clus scale="  107.729">  2  5  1 -1</clus>
<clus scale="   26.535">  1  5  2 -1</clus>
</clustering>
</event>
<event>
 9    1  0.5981539E-005  0.2095832E+03  0.7546771E-02  0.1142746E+00
          1   -1    0    0  502    0 -0.00000000000E+00  0.00000000000E+00  0.55930210878E+03  0.55930210878E+03  0.00000000000E+00 0. -1.
         21   -1    0    0  501  502  0.00000000000E+00 -0.00000000000E+00 -0.51077875759E+03  0.51077875759E+03  0.00000000000E+00 0.  1.
         23    2    1    2    0    0 -0.17612222539E+03  0.75058024241E+02  0.51145676558E+03  0.55362719480E+03  0.90897208310E+02 0.  0.
        -24    2    1    2    0    0  0.14715044576E+03 -0.23055425166E+02 -0.33833946377E+03  0.37836932468E+03  0.80653250401E+02 0.  0.
         11    1    4    4    0    0  0.66778419006E+02 -0.33987813015E+02 -0.89944697442E+02  0.11706655063E+03  0.00000000000E+00 0. -1.
        -12    1    4    4    0    0  0.80372026750E+02  0.10932387850E+02 -0.24839476633E+03  0.26130277405E+03  0.00000000000E+00 0.  1.
        -11    1    3    3    0    0 -0.10480837933E+03  0.21795191739E+02  0.17114169918E+03  0.20186457827E+03  0.00000000000E+00 0.  1.
         11    1    3    3    0    0 -0.71313846056E+02  0.53262832502E+02  0.34031506640E+03  0.35176261653E+03  0.00000000000E+00 0. -1.
          2    1    1    2  501    0  0.28971779633E+02 -0.52002599075E+02 -0.12459395062E+03  0.13808434689E+03  0.00000000000E+00 0. -1.
<scales pt_clust_5="13000.00000" pt_clust_6="13000.00000" pt_clust_7="13000.00000" pt_clust_8="13000.00000" pt_clust_9="59.52843"></scales>
<clustering>
<clus scale="   59.528">  2  9  1 -1</clus>
<clus scale="   80.653">  5  6 -1 -1</clus>
<clus scale="   90.897">  7  8 -1 -1</clus>
<clus scale="  205.348">  2  5  1 -1</clus>
<clus scale="   59.528">  2  5  1 -1</clus>
</clustering>
</event>
<event>
 9    1  0.5981539E-005  0.1553789E+03  0.7546771E-02  0.1195910E+00
          1   -1    0    0  502    0 -0.00000000000E+00  0.00000000000E+00  0.21938040623E+03  0.21938040623E+03  0.00000000000E+00 0. -1.
         21   -1    0    0  501  502  0.00000000000E+00 -0.00000000000E+00 -0.32402969917E+03  0.32402969917E+03  0.00000000000E+00 0. -1.
        -24    2    1    2    0    0 -0.69451761521E+02  0.10192586871E+03  0.11527705374E+03  0.18637657267E+03  0.78962002445E+02 0.  0.
         23    2    1    2    0    0  0.11965384510E+03 -0.99060550289E+02 -0.24257922119E+03  0.30188272158E+03  0.90324214720E+02 0.  0.
         13    1    3    3    0    0 -0.56185352054E+02  0.69978086590E+02  0.12168185265E+03  0.15119589826E+03  0.00000000000E+00 0. -1.
        -14    1    3    3    0    0 -0.13266409467E+02  0.31947782122E+02 -0.64047989065E+01  0.35180674407E+02  0.00000000000E+00 0.  1.
        -11    1    4    4    0    0  0.23406224543E+02 -0.67678904660E+02 -0.61360998729E+02  0.94305130552E+02  0.00000000000E+00 0.  1.
         11    1    4    4    0    0  0.96247620561E+02 -0.31381645629E+02 -0.18121822246E+03  0.20757759103E+03  0.00000000000E+00 0. -1.
          2    1    1    2  501    0 -0.50202083583E+02 -0.28653184236E+01  0.22652874514E+02  0.55150811141E+02  0.00000000000E+00 0. -1.
<scales pt_clust_5="13000.00000" pt_clust_6="13000.00000" pt_clust_7="13000.00000" pt_clust_8="13000.00000" pt_clust_9="50.28381"></scales>
<clustering>
<clus scale="   50.284">  2  9  1 -1</clus>
<clus scale="   78.962">  5  6 -1 -1</clus>
<clus scale="   90.324">  7  8 -1 -1</clus>
<clus scale="  149.061">  1  5  2 -1</clus>
<clus scale="   50.284">  2  5  1 -1</clus>
</clustering>
</event>
<event>
 9    1  0.5981539E-005  0.9822127E+02  0.7546771E-02  0.1284181E+00
         21   -1    0    0  501  502  0.00000000000E+00  0.00000000000E+00  0.14532194578E+03  0.14532194578E+03  0.00000000000E+00 0. -1.
          1   -1    0    0  502    0 -0.00000000000E+00 -0.00000000000E+00 -0.14624161675E+03  0.14624161675E+03  0.00000000000E+00 0. -1.
         23    2    1    2    0    0 -0.34173126469E+02 -0.30482758381E+02 -0.85570056630E+02  0.13146255601E+03  0.88674505409E+02 0.  0.
        -24    2    1    2    0    0  0.25728842012E+02  0.75755404051E+01  0.95914300215E+02  0.13321379122E+03  0.88470328712E+02 0.  0.
         11    1    4    4    0    0 -0.32215294414E+01 -0.32723097903E+02  0.69765247519E+02  0.77125671146E+02  0.00000000000E+00 0. -1.
        -12    1    4    4    0    0  0.28950371454E+02  0.40298638308E+02  0.26149052696E+02  0.56088120076E+02  0.00000000000E+00 0.  1.
        -11    1    3    3    0    0 -0.15851546316E+02  0.27746390765E+02 -0.83491554938E+01  0.33027899094E+02  0.00000000000E+00 0.  1.
         11    1    3    3    0    0 -0.18321580152E+02 -0.58229149146E+02 -0.77220901137E+02  0.98434656915E+02  0.00000000000E+00 0. -1.
          2    1    1    2  501    0  0.84442844568E+01  0.22907217976E+02 -0.11263914555E+02  0.26887215298E+02  0.00000000000E+00 0. -1.
<scales pt_clust_5="13000.00000" pt_clust_6="13000.00000" pt_clust_7="13000.00000" pt_clust_8="13000.00000" pt_clust_9="24.41408"></scales>
<clustering>
<clus scale="   24.414">  1  9  2 -1</clus>
<clus scale="   88.470">  5  6 -1 -1</clus>
<clus scale="   88.675">  7  8 -1 -1</clus>
<clus scale="   98.037">  1  5  2 -1</clus>
<clus scale="   24.414">  1  5  2 -1</clus>
</clustering>
</event>
<event>
 9    1  0.5981539E-005  0.1001835E+03  0.7546771E-02  0.1286500E+00
          1   -1    0    0  502    0 -0.00000000000E+00  0.00000000000E+00  0.71551513782E+02  0.71551513782E+02  0.00000000000E+00 0. -1.
         21   -1    0    0  501  502  0.00000000000E+00 -0.00000000000E+00 -0.26482069823E+03  0.26482069823E+03  0.00000000000E+00 0.  1.
        -24    2    1    2    0    0 -0.28449919601E+02 -0.22443693349E+02  0.50114204462E+01  0.86514220074E+02  0.78399481144E+02 0.  0.
         23    2    1    2    0    0  0.45338897319E+02  0.46113528549E+02 -0.18834139800E+03  0.21912874691E+03  0.91448632542E+02 0.  0.
         13    1    3    3    0    0 -0.32806035011E+02  0.51142064217E+01 -0.27900029697E+02  0.43368222209E+02  0.00000000000E+00 0. -1.
        -14    1    3    3    0    0  0.43561154105E+01 -0.27557899771E+02  0.32911450143E+02  0.43145997865E+02  0.00000000000E+00 0.  1.
        -13    1    4    4    0    0  0.16620120035E+02  0.43022066906E+02 -0.23475346254E+02  0.51751507346E+02  0.00000000000E+00 0. -1.
         13    1    4    4    0    0  0.28718777284E+02  0.30914616433E+01 -0.16486605175E+03  0.16737723956E+03  0.00000000000E+00 0.  1.
          2    1    1    2  501    0 -0.16888977718E+02 -0.23669835200E+02 -0.99392068971E+01  0.30729245037E+02  0.00000000000E+00 0. -1.
<scales pt_clust_5="13000.00000" pt_clust_6="13000.00000" pt_clust_7="13000.00000" pt_clust_8="13000.00000" pt_clust_9="29.07747"></scales>
<clustering>
<clus scale="   29.077">  2  9  1 -1</clus>
<clus scale="   78.399">  5  6 -1 -1</clus>
<clus scale="   88.433">  1  5  2 -1</clus>
<clus scale="   91.449">  7  8 -1 -1</clus>
<clus scale="   29.077">  2  5  1 -1</clus>
</clustering>
</event>
<event>
 9    1  0.5981539E-005  0.1160559E+03  0.7546771E-02  0.1255465E+00
          1   -1    0    0  502    0 -0.00000000000E+00  0.00000000000E+00  0.39018233064E+03  0.39018233064E+03  0.00000000000E+00 0. -1.
         21   -1    0    0  501  502  0.00000000000E+00 -0.00000000000E+00 -0.54660492815E+02  0.54660492815E+02  0.00000000000E+00 0. -1.
         23    2    1    2    0    0 -0.12590819930E+02  0.58365084600E+02  0.26811415473E+03  0.29135152096E+03  0.97136486219E+02 0.  0.
        -24    2    1    2    0    0 -0.30527885223E+01 -0.75276947999E+02  0.68142916452E+02  0.13044191689E+03  0.81827246076E+02 0.  0.
         11    1    4    4    0    0 -0.28070513272E+02  0.33109664667E+01  0.22872621746E+02  0.36360322328E+02  0.00000000000E+00 0. -1.
        -12    1    4    4    0    0  0.25017724750E+02 -0.78587914465E+02  0.45270294706E+02  0.94081594557E+02  0.00000000000E+00 0.  1.
        -11    1    3    3    0    0 -0.10245695118E+02 -0.22350958712E+02  0.24528894098E+02  0.34730480410E+02  0.00000000000E+00 0.  1.
         11    1    3    3    0    0 -0.23451248116E+01  0.80716043312E+02  0.24358526063E+03  0.25662104055E+03  0.00000000000E+00 0. -1.
          2    1    1    2  501    0  0.15643608452E+02  0.16911863399E+02 -0.73523335027E+00  0.23049385612E+02  0.00000000000E+00 0. -1.
<scales pt_clust_5="13000.00000" pt_clust_6="13000.00000" pt_clust_7="13000.00000" pt_clust_8="13000.00000" pt_clust_9="23.03766"></scales>
<clustering>
<clus scale="   23.038">  2  9  1 -1</clus>
<clus scale="   81.827">  5  6 -1 -1</clus>
<clus scale="   97.136">  7  8 -1 -1</clus>
<clus scale="  103.582">  2  5  1 -1</clus>
<clus scale="   23.038">  2  5  1 -1</clus>
</clustering>
</event>
<event>
 9    1  0.5981539E-005  0.1623299E+03  0.7546771E-02  0.1187331E+00
          1   -1    0    0  502    0 -0.00000000000E+00  0.00000000000E+00  0.51568515332E+03  0.51568515332E+03  0.00000000000E+00 0. -1.
         21   -1    0    0  501  502  0.00000000000E+00 -0.00000000000E+00 -0.86205677819E+02  0.86205677819E+02  0.00000000000E+00 0. -1.
        -24    2    1    2    0    0  0.66618119309E+02 -0.12843606193E+03  0.27703673674E+03  0.32346845631E+03  0.83358820147E+02 0.  0.
         23    2    1    2    0    0 -0.36844454016E+02  0.10107075538E+03  0.23301576310E+02  0.14309768756E+03  0.91439451781E+02 0.  0.
         13    1    3    3    0    0  0.85738218080E+02 -0.91618850484E+02  0.21007676193E+03  0.24469838926E+03  0.00000000000E+00 0. -1.
        -14    1    3    3    0    0 -0.19120098771E+02 -0.36817211446E+02  0.66959974815E+02  0.78770067049E+02  0.00000000000E+00 0.  1.
        -11    1    4    4    0    0 -0.23390200773E+02  0.52886490240E+02  0.58243685668E+02  0.82075631355E+02  0.00000000000E+00 0.  1.
         11    1    4    4    0    0 -0.13454253243E+02  0.48184265135E+02 -0.34942109357E+02  0.61022056203E+02  0.00000000000E+00 0. -1.
          2    1    1    2  501    0 -0.29773665293E+02  0.27365306554E+02  0.12914116245E+03  0.13532468728E+03  0.00000000000E+00 0. -1.
<scales pt_clust_5="13000.00000" pt_clust_6="13000.00000" pt_clust_7="13000.00000" pt_clust_8="13000.00000" pt_clust_9="40.43925"></scales>
<clustering>
<clus scale="   40.439">  2  9  1 -1</clus>
<clus scale="   83.359">  5  6 -1 -1</clus>
<clus scale="   91.439">  7  8 -1 -1</clus>
<clus scale="  157.919">  1  5  2 -1</clus>
<clus scale="   40.439">  2  5  1 -1</clus>
</clustering>
</event>
<event>
 9    1  0.5981539E-005  0.1843229E+03  0.7546771E-02  0.1182027E+00
          1   -1    0    0  502    0 -0.00000000000E+00  0.00000000000E+00  0.24090351028E+04  0.24090351028E+04  0.00000000000E+00 0. -1.
         21   -1    0    0  501  502  0.00000000000E+00 -0.00000000000E+00 -0.42460211279E+02  0.42460211279E+02  0.00000000000E+00 0. -1.
         23    2    1    2    0    0  0.72140089027E+02 -0.20472186963E+02  0.10236520717E+03  0.15880581796E+03  0.95484811863E+02 0.  0.
        -24    2    1    2    0    0 -0.20924703909E+02  0.17783758615E+03  0.11748757591E+04  0.11908568022E+04  0.75781421831E+02 0.  0.
         11    1    4    4    0    0 -0.47328193463E+02  0.12317271796E+03  0.72592079369E+03  0.73781601708E+03  0.00000000000E+00 0. -1.
        -12    1    4    4    0    0  0.26403489553E+02  0.54664868195E+02  0.44895496539E+03  0.45304078516E+03  0.00000000000E+00 0.  1.
        -11    1    3    3    0    0  0.68217608804E+02 -0.43418387478E+02  0.36071187362E+02  0.88543374003E+02  0.00000000000E+00 0. -1.
         11    1    3    3    0    0  0.39224802236E+01  0.22946200515E+02  0.66294019808E+02  0.70262443962E+02  0.00000000000E+00 0.  1.
          2    1    1    2  501    0 -0.51215385118E+02 -0.15736539919E+03  0.10893339252E+04  0.11018326938E+04  0.00000000000E+00 0. -1.
<scales pt_clust_5="13000.00000" pt_clust_6="13000.00000" pt_clust_7="13000.00000" pt_clust_8="13000.00000" pt_clust_9="168.02424"></scales>
<clustering>
<clus scale="   75.781">  5  6 -1 -1</clus>
<clus scale="   95.485">  7  8 -1 -1</clus>
<clus scale="  121.411">  1  7  2 -1</clus>
<clus scale="  168.024">  2  9  1 -1</clus>
<clus scale="  168.024">  2  5  1 -1</clus>
</clustering>
</event>
<event>
 9    1  0.5981539E-005  0.1193500E+03  0.7546771E-02  0.1254059E+00
          1   -1    0    0  502    0 -0.00000000000E+00  0.00000000000E+00  0.37947877462E+03  0.37947877462E+03  0.00000000000E+00 0. -1.
         21   -1    0    0  501  502  0.00000000000E+00 -0.00000000000E+00 -0.42467490233E+02  0.42467490233E+02  0.00000000000E+00 0. -1.
         23    2    1    2    0    0 -0.58110025678E+02 -0.23007171963E+02  0.15958302114E+03  0.19476571941E+03  0.92524806275E+02 0.  0.
        -24    2    1    2    0    0  0.75508557516E+02  0.44125904889E+02  0.16546193846E+03  0.19731580503E+03  0.62507888286E+02 0.  0.
         11    1    4    4    0    0  0.51715851616E+02 -0.15903822116E+00  0.52606679325E+02  0.73770029898E+02  0.00000000000E+00 0. -1.
        -12    1    4    4    0    0  0.23792705900E+02  0.44284943110E+02  0.11285525913E+03  0.12354577514E+03  0.00000000000E+00 0.  1.
        -11    1    3    3    0    0 -0.72426820580E+00 -0.32763083335E+02  0.11994729303E+03  0.12434346504E+03  0.00000000000E+00 0. -1.
         11    1    3    3    0    0 -0.57385757472E+02  0.97559113727E+01  0.39635728107E+02  0.70422254366E+02  0.00000000000E+00 0.  1.
          2    1    1    2  501    0 -0.17398531838E+02 -0.21118732926E+02  0.11966324792E+02  0.29864740406E+02  0.00000000000E+00 0. -1.
<scales pt_clust_5="13000.00000" pt_clust_6="13000.00000" pt_clust_7="13000.00000" pt_clust_8="13000.00000" pt_clust_9="27.36256"></scales>
<clustering>
<clus scale="   27.363">  2  9  1 -1</clus>
<clus scale="   62.508">  5  6 -1 -1</clus>
<clus scale="   92.525">  7  8 -1 -1</clus>
<clus scale="   97.933">  2  5  1 -1</clus>
<clus scale="   27.363">  2  5  1 -1</clus>
</clustering>
</event>
<event>
 9    1  0.5981539E-005  0.1106404E+03  0.7546771E-02  0.1263517E+00
          1   -1    0    0  502    0 -0.00000000000E+00  0.00000000000E+00  0.82512138170E+03  0.82512138170E+03  0.00000000000E+00 0. -1.
         21   -1    0    0  501  502  0.00000000000E+00 -0.00000000000E+00 -0.29236190216E+02  0.29236190216E+02  0.00000000000E+00 0. -1.
         23    2    1    2    0    0  0.94742193026E+02 -0.16176888401E+02  0.34297729746E+03  0.36765364341E+03  0.91093359161E+02 0.  0.
        -24    2    1    2    0    0 -0.28890982315E+02 -0.10754133787E+02  0.12924895634E+03  0.15531779444E+03  0.80423779453E+02 0.  0.
         11    1    4    4    0    0 -0.49370063239E+02 -0.30212112432E+02  0.86885749334E+02  0.10439975249E+03  0.00000000000E+00 0. -1.
        -12    1    4    4    0    0  0.20479080924E+02  0.19457978645E+02  0.42363207005E+02  0.50918041951E+02  0.00000000000E+00 0.  1.
        -13    1    3    3    0    0  0.40500859737E+02 -0.28614814329E+02  0.27671450722E+03  0.28112283035E+03  0.00000000000E+00 0. -1.
         13    1    3    3    0    0  0.54241333289E+02  0.12437925928E+02  0.66262790233E+02  0.86530813054E+02  0.00000000000E+00 0.  1.
          2    1    1    2  501    0 -0.65851210711E+02  0.26931022188E+02  0.32365893768E+03  0.33138613406E+03  0.00000000000E+00 0. -1.
<scales pt_clust_5="13000.00000" pt_clust_6="13000.00000" pt_clust_7="13000.00000" pt_clust_8="13000.00000" pt_clust_9="71.14539"></scales>
<clustering>
<clus scale="   71.145">  2  9  1 -1</clus>
<clus scale="   80.424">  5  6 -1 -1</clus>
<clus scale="   91.093">  7  8 -1 -1</clus>
<clus scale="  102.036">  2  5  1 -1</clus>
<clus scale="   71.145">  2  5  1 -1</clus>
</clustering>
</event>
<event>
 9    1  0.5981539E-005  0.1006357E+03  0.7546771E-02  0.1285027E+00
         21   -1    0    0  501  502  0.00000000000E+00  0.00000000000E+00  0.39244441258E+03  0.39244441258E+03  0.00000000000E+00 0. -1.
          1   -1    0    0  502    0 -0.00000000000E+00 -0.00000000000E+00 -0.47934182476E+02  0.47934182476E+02  0.00000000000E+00 0. -1.
        -24    2    1    2    0    0 -0.45969973153E+02  0.39539473883E+02  0.61622218159E+02  0.11667592738E+03  0.78354105402E+02 0.  0.
         23    2    1    2    0    0  0.32264209531E+00 -0.26001044485E+02  0.11260505716E+03  0.14688849236E+03  0.90665163518E+02 0.  0.
         11    1    3    3    0    0 -0.24436944001E+02  0.57957347605E+02  0.19391119591E+02  0.65819707478E+02  0.00000000000E+00 0. -1.
        -12    1    3    3    0    0 -0.21533029153E+02 -0.18417873722E+02  0.42231098567E+02  0.50856219906E+02  0.00000000000E+00 0.  1.
        -11    1    4    4    0    0  0.18730754143E+02 -0.95151675439E+01 -0.89580810448E+01  0.22839150163E+02  0.00000000000E+00 0.  1.
         11    1    4    4    0    0 -0.18408112048E+02 -0.16485876941E+02  0.12156313821E+03  0.12404934219E+03  0.00000000000E+00 0. -1.
          2    1    1    2  501    0  0.45647331058E+02 -0.13538429398E+02  0.17028295478E+03  0.17681417532E+03  0.00000000000E+00 0. -1.
<scales pt_clust_5="13000.00000" pt_clust_6="13000.00000" pt_clust_7="13000.00000" pt_clust_8="13000.00000" pt_clust_9="47.61269"></scales>
<clustering>
<clus scale="   47.613">  1  9  2 -1</clus>
<clus scale="   78.354">  5  6 -1 -1</clus>
<clus scale="   89.704">  2  5  1 -1</clus>
<clus scale="   90.665">  7  8 -1 -1</clus>
<clus scale="   47.613">  1  5  2 -1</clus>
</clustering>
</event>
<event>
 9    1  0.5981539E-005  0.1060872E+03  0.7546771E-02  0.1275389E+00
          1   -1    0    0  502    0 -0.00000000000E+00  0.00000000000E+00  0.24011474270E+03  0.24011474270E+03  0.00000000000E+00 0. -1.
         21   -1    0    0  501  502  0.00000000000E+00 -0.00000000000E+00 -0.27608970748E+03  0.27608970748E+03  0.00000000000E+00 0. -1.
         23    2    1    2    0    0 -0.12504359523E+01  0.57934292573E+02  0.19006096416E+03  0.22097315633E+03  0.96685158489E+02 0.  0.
        -24    2    1    2    0    0  0.15012931516E+02  0.18480792778E+02 -0.39487671393E+02  0.93169610331E+02  0.80959077828E+02 0.  0.
         11    1    4    4    0    0  0.38794418333E+02  0.29250499536E+02 -0.35025868411E+01  0.48712079933E+02  0.00000000000E+00 0. -1.
        -12    1    4    4    0    0 -0.23781486817E+02 -0.10769706758E+02 -0.35985084552E+02  0.44457530398E+02  0.00000000000E+00 0.  1.
        -11    1    3    3    0    0 -0.27413013544E+02 -0.28480243941E+01  0.10305602055E+02  0.29424309478E+02  0.00000000000E+00 0.  1.
         11    1    3    3    0    0  0.26162577592E+02  0.60782316967E+02  0.17975536211E+03  0.19154884685E+03  0.00000000000E+00 0. -1.
          2    1    1    2  501    0 -0.13762495563E+02 -0.76415085351E+02 -0.18654825755E+03  0.20206168352E+03  0.00000000000E+00 0. -1.
<scales pt_clust_5="13000.00000" pt_clust_6="13000.00000" pt_clust_7="13000.00000" pt_clust_8="13000.00000" pt_clust_9="77.64452"></scales>
<clustering>
<clus scale="   77.645">  2  9  1 -1</clus>
<clus scale="   80.959">  5  6 -1 -1</clus>
<clus scale="   91.983">  2  5  1 -1</clus>
<clus scale="   96.685">  7  8 -1 -1</clus>
<clus scale="   77.645">  2  5  1 -1</clus>
</clustering>
</event>
<event>
 9    1  0.5981539E-005  0.9611406E+02  0.7546771E-02  0.1294006E+00
         21   -1    0    0  501  502  0.00000000000E+00  0.00000000000E+00  0.12689098203E+03  0.12689098203E+03  0.00000000000E+00 0.  1.
         -2   -1    0    0    0  501 -0.00000000000E+00 -0.00000000000E+00 -0.26213212700E+03  0.26213212700E+03  0.00000000000E+00 0.  1.
         23    2    1    2    0    0  0.22910539613E+02  0.22556288530E+02 -0.20566853117E+03  0.22769130791E+03  0.92250246645E+02 0.  0.
        -24    2    1    2    0    0 -0.10640704725E+01 -0.10300435246E+02 -0.33243827953E+01  0.83442151088E+02  0.82730344161E+02 0.  0.
         11    1    4    4    0    0 -0.39632614344E+02 -0.17647210248E+02  0.37580720551E+01  0.43546426430E+02  0.00000000000E+00 0. -1.
        -12    1    4    4    0    0  0.38568543871E+02  0.73467750016E+01 -0.70824548504E+01  0.39895724658E+02  0.00000000000E+00 0.  1.
        -13    1    3    3    0    0  0.43952568095E+02 -0.19462615227E+02 -0.13017412292E+03  0.13876571591E+03  0.00000000000E+00 0.  1.
         13    1    3    3    0    0 -0.21042028482E+02  0.42018903757E+02 -0.75494408247E+02  0.88925591998E+02  0.00000000000E+00 0. -1.
         -1    1    1    2    0  502 -0.21846469140E+02 -0.12255853284E+02  0.73751768992E+02  0.77889650038E+02  0.00000000000E+00 0.  1.
<scales pt_clust_5="13000.00000" pt_clust_6="13000.00000" pt_clust_7="13000.00000" pt_clust_8="13000.00000" pt_clust_9="25.04943"></scales>
<clustering>
<clus scale="   25.049">  1  9  2 -1</clus>
<clus scale="   82.730">  5  6 -1 -1</clus>
<clus scale="   87.018">  1  5  2 -1</clus>
<clus scale="   92.250">  7  8 -1 -1</clus>
<clus scale="   25.049">  1  5  2 -1</clus>
</clustering>
</event>
<event>
 9    1  0.5981539E-005  0.9928246E+02  0.7546771E-02  0.1287912E+00
         21   -1    0    0  501  502  0.00000000000E+00  0.00000000000E+00  0.33985004455E+02  0.33985004455E+02  0.00000000000E+00 0. -1.
         -4   -1    0    0    0  501 -0.00000000000E+00 -0.00000000000E+00 -0.61569403589E+03  0.61569403589E+03  0.00000000000E+00 0.  1.
         23    2    1    2    0    0  0.44799578250E+02 -0.23253221770E+02 -0.26255035319E+03  0.28312196094E+03  0.93153863435E+02 0.  0.
        -24    2    1    2    0    0  0.30080822521E+02  0.41978226268E+02 -0.12731043783E+03  0.15976383105E+03  0.81544507899E+02 0.  0.
         11    1    4    4    0    0 -0.20428276506E+02 -0.46313409926E+01 -0.87038748211E+01  0.22683060581E+02  0.00000000000E+00 0. -1.
        -12    1    4    4    0    0  0.50509099027E+02  0.46609567261E+02 -0.11860656301E+03  0.13708077047E+03  0.00000000000E+00 0.  1.
        -11    1    3    3    0    0  0.58554083424E+02 -0.28925845286E+01 -0.24740933722E+03  0.25426035451E+03  0.00000000000E+00 0. -1.
         11    1    3    3    0    0 -0.13754505174E+02 -0.20360637241E+02 -0.15141015976E+02  0.28861606439E+02  0.00000000000E+00 0.  1.
         -3    1    1    2    0  502 -0.74880400771E+02 -0.18725004498E+02 -0.19184824041E+03  0.20679324835E+03  0.00000000000E+00 0.  1.
<scales pt_clust_5="13000.00000" pt_clust_6="13000.00000" pt_clust_7="13000.00000" pt_clust_8="13000.00000" pt_clust_9="77.18618"></scales>
<clustering>
<clus scale="   77.186">  1  9  2 -1</clus>
<clus scale="   81.545">  5  6 -1 -1</clus>
<clus scale="   88.481">  1  5  2 -1</clus>
<clus scale="   93.154">  7  8 -1 -1</clus>
<clus scale="   77.186">  1  5  2 -1</clus>
</clustering>
</event>
<event>
 9    1  0.5981539E-005  0.1065048E+03  0.7546771E-02  0.1269344E+00
         21   -1    0    0  501  502  0.00000000000E+00  0.00000000000E+00  0.43729561782E+03  0.43729561782E+03  0.00000000000E+00 0. -1.
          1   -1    0    0  502    0 -0.00000000000E+00 -0.00000000000E+00 -0.13038025231E+03  0.13038025231E+03  0.00000000000E+00 0. -1.
        -24    2    1    2    0    0  0.46308173554E+01  0.56389963927E+02 -0.95297944836E+02  0.14028047103E+03  0.85997905566E+02 0.  0.
         23    2    1    2    0    0  0.20398407910E+02 -0.41424148968E+02  0.21641194157E+03  0.23931938687E+03  0.91145956096E+02 0.  0.
         13    1    3    3    0    0  0.30451628565E+01  0.56332321148E+02 -0.11099203988E+03  0.12450637068E+03  0.00000000000E+00 0. -1.
        -14    1    3    3    0    0  0.15856544990E+01  0.57642779441E-01  0.15694095041E+02  0.15774100356E+02  0.00000000000E+00 0.  1.
        -11    1    4    4    0    0  0.39995003132E+02 -0.55891188009E+02  0.19545674341E+03  0.20718774992E+03  0.00000000000E+00 0.  1.
         11    1    4    4    0    0 -0.19596595222E+02  0.14467039041E+02  0.20955198164E+02  0.32131636949E+02  0.00000000000E+00 0. -1.
          2    1    1    2  501    0 -0.25029225266E+02 -0.14965814959E+02  0.18580136878E+03  0.18807601223E+03  0.00000000000E+00 0. -1.
<scales pt_clust_5="13000.00000" pt_clust_6="13000.00000" pt_clust_7="13000.00000" pt_clust_8="13000.00000" pt_clust_9="29.16227"></scales>
<clustering>
<clus scale="   29.162">  1  9  2 -1</clus>
<clus scale="   85.998">  5  6 -1 -1</clus>
<clus scale="   91.146">  7  8 -1 -1</clus>
<clus scale="  102.134">  2  5  1 -1</clus>
<clus scale="   29.162">  1  5  2 -1</clus>
</clustering>
</event>
<event>
 9    1  0.5981539E-005  0.4479098E+03  0.7546771E-02  0.1028503E+00
         21   -1    0    0  501  502  0.00000000000E+00  0.00000000000E+00  0.50092526396E+03  0.50092526396E+03  0.00000000000E+00 0.  1.
         -4   -1    0    0    0  501 -0.00000000000E+00 -0.00000000000E+00 -0.75159004012E+03  0.75159004012E+03  0.00000000000E+00 0.  1.
        -24    2    1    2    0    0 -0.60091481301E+02  0.44322763180E+03 -0.50365206597E+03  0.67853106727E+03  0.81714661949E+02 0.  0.
         23    2    1    2    0    0  0.27991531489E+01 -0.40098795032E+03  0.28014156954E+03  0.49780053471E+03  0.92341224876E+02 0.  0.
         13    1    3    3    0    0 -0.17024201069E+02  0.29070702089E+03 -0.37249624941E+03  0.47281481707E+03  0.00000000000E+00 0. -1.
        -14    1    3    3    0    0 -0.43067280232E+02  0.15252061090E+03 -0.13115581657E+03  0.20571625020E+03  0.00000000000E+00 0.  1.
        -13    1    4    4    0    0 -0.37468584919E+02 -0.27127743212E+03  0.16480542078E+03  0.31961878348E+03  0.00000000000E+00 0.  1.
         13    1    4    4    0    0  0.40267738068E+02 -0.12971051820E+03  0.11533614876E+03  0.17818175124E+03  0.00000000000E+00 0. -1.
         -3    1    1    2    0  502  0.57292328152E+02 -0.42239681475E+02 -0.27154279733E+02  0.76183702089E+02  0.00000000000E+00 0.  1.
<scales pt_clust_5="13000.00000" pt_clust_6="13000.00000" pt_clust_7="13000.00000" pt_clust_8="13000.00000" pt_clust_9="71.18010"></scales>
<clustering>
<clus scale="   71.180">  1  9  2 -1</clus>
<clus scale="   81.715">  5  6 -1 -1</clus>
<clus scale="   92.341">  7  8 -1 -1</clus>
<clus scale="  445.840">  2  5  1 -1</clus>
<clus scale="   71.180">  1  5  2 -1</clus>
</clustering>
</event>
<event>
 9    1  0.5981539E-005  0.1027204E+03  0.7546771E-02  0.1278898E+00
         21   -1    0    0  501  502  0.00000000000E+00  0.00000000000E+00  0.67311615918E+02  0.67311615918E+02  0.00000000000E+00 0.  1.
          1   -1    0    0  502    0 -0.00000000000E+00 -0.00000000000E+00 -0.40226746471E+03  0.40226746471E+03  0.00000000000E+00 0. -1.
         23    2    1    2    0    0 -0.38891619825E+02 -0.36863954836E+02 -0.32997236147E+03  0.34621362261E+03  0.90058891233E+02 0.  0.
        -24    2    1    2    0    0  0.39406935520E+01  0.35128366371E+02 -0.47658666470E+01  0.88370788798E+02  0.80852653873E+02 0.  0.
         13    1    4    4    0    0  0.21868099795E+02 -0.19263042885E+02 -0.10124376749E+02  0.30850958079E+02  0.00000000000E+00 0. -1.
        -14    1    4    4    0    0 -0.17927406243E+02  0.54391409256E+02  0.53585101022E+01  0.57519830719E+02  0.00000000000E+00 0.  1.
        -13    1    3    3    0    0  0.25603713396E+02  0.57833580620E+01 -0.10858009975E+03  0.11170781277E+03  0.00000000000E+00 0.  1.
         13    1    3    3    0    0 -0.64495333222E+02 -0.42647312898E+02 -0.22139226172E+03  0.23450580985E+03  0.00000000000E+00 0. -1.
          2    1    1    2  501    0  0.34950926273E+02  0.17355884655E+01 -0.21762067332E+00  0.34994669215E+02  0.00000000000E+00 0. -1.
<scales pt_clust_5="13000.00000" pt_clust_6="13000.00000" pt_clust_7="13000.00000" pt_clust_8="13000.00000" pt_clust_9="34.99399"></scales>
<clustering>
<clus scale="   34.994">  1  9  2 -1</clus>
<clus scale="   80.853">  5  6 -1 -1</clus>
<clus scale="   90.059">  7  8 -1 -1</clus>
<clus scale="   94.752">  1  5  2 -1</clus>
<clus scale="   34.994">  1  5  2 -1</clus>
</clustering>
</event>
<event>
 9    1  0.5981539E-005  0.1426175E+03  0.7546771E-02  0.1211476E+00
          1   -1    0    0  502    0 -0.00000000000E+00  0.00000000000E+00  0.68869202848E+03  0.68869202848E+03  0.00000000000E+00 0. -1.
         21   -1    0    0  501  502  0.00000000000E+00 -0.00000000000E+00 -0.39512996956E+02  0.39512996956E+02  0.00000000000E+00 0.  1.
         23    2    1    2    0    0 -0.60211242961E+02 -0.76097611610E+02  0.30737053619E+03  0.33545215609E+03  0.92926111699E+02 0.  0.
        -24    2    1    2    0    0  0.52445015432E+02  0.11543394884E+03  0.25811563076E+03  0.29995115979E+03  0.85273344177E+02 0.  0.
         13    1    4    4    0    0  0.13066514169E+02  0.89820140847E+02  0.22459381347E+03  0.24224114544E+03  0.00000000000E+00 0. -1.
        -14    1    4    4    0    0  0.39378501263E+02  0.25613807992E+02  0.33521817284E+02  0.57710014344E+02  0.00000000000E+00 0.  1.
        -11    1    3    3    0    0 -0.71455883013E+02 -0.18520523829E+02  0.19851360796E+03  0.21179378075E+03  0.00000000000E+00 0.  1.
         11    1    3    3    0    0  0.11244640052E+02 -0.57577087782E+02  0.10885692823E+03  0.12365837533E+03  0.00000000000E+00 0. -1.
          2    1    1    2  501    0  0.77662275290E+01 -0.39336337228E+02  0.83692864574E+02  0.92801709560E+02  0.00000000000E+00 0. -1.
<scales pt_clust_5="13000.00000" pt_clust_6="13000.00000" pt_clust_7="13000.00000" pt_clust_8="13000.00000" pt_clust_9="40.09568"></scales>
<clustering>
<clus scale="   40.096">  2  9  1 -1</clus>
<clus scale="   85.273">  5  6 -1 -1</clus>
<clus scale="   92.926">  7  8 -1 -1</clus>
<clus scale="  137.754">  2  5  1 -1</clus>
<clus scale="   40.096">  2  5  1 -1</clus>
</clustering>
</event>
<event>
 9    1  0.5981539E-005  0.1317541E+03  0.7546771E-02  0.1241669E+00
          3   -1    0    0  502    0 -0.00000000000E+00  0.00000000000E+00  0.23943888626E+03  0.23943888626E+03  0.00000000000E+00 0. -1.
         21   -1    0    0  501  502  0.00000000000E+00 -0.00000000000E+00 -0.13551135842E+03  0.13551135842E+03  0.00000000000E+00 0. -1.
         23    2    1    2    0    0  0.13728914981E+02  0.20264224783E+02 -0.13646604468E+02  0.94313824711E+02  0.90054127088E+02 0.  0.
        -24    2    1    2    0    0 -0.93113644111E+02  0.50322359587E+02  0.11391532716E+03  0.17434536688E+03  0.78848681637E+02 0.  0.
         11    1    4    4    0    0 -0.19332306639E+02  0.27256853930E+02 -0.36786174919E+01  0.33618542395E+02  0.00000000000E+00 0. -1.
        -12    1    4    4    0    0 -0.73781337472E+02  0.23065505657E+02  0.11759394465E+03  0.14072682448E+03  0.00000000000E+00 0.  1.
        -11    1    3    3    0    0 -0.28177428221E+02  0.14208896701E+02  0.22406092262E+02  0.38702624937E+02  0.00000000000E+00 0.  1.
         11    1    3    3    0    0  0.41906343202E+02  0.60553280823E+01 -0.36052696731E+02  0.55611199774E+02  0.00000000000E+00 0. -1.
          4    1    1    2  501    0  0.79384729130E+02 -0.70586584370E+02  0.36588051521E+01  0.10629105309E+03  0.00000000000E+00 0. -1.
<scales pt_clust_5="13000.00000" pt_clust_6="13000.00000" pt_clust_7="13000.00000" pt_clust_8="13000.00000" pt_clust_9="105.55584"></scales>
<clustering>
<clus scale="   78.849">  5  6 -1 -1</clus>
<clus scale="   90.054">  7  8 -1 -1</clus>
<clus scale="   93.321">  1  7  2 -1</clus>
<clus scale="  105.556">  2  9  1 -1</clus>
<clus scale="  105.556">  2  5  1 -1</clus>
</clustering>
</event>
<event>
 9    1  0.5981539E-005  0.2818141E+03  0.7546771E-02  0.1095183E+00
         21   -1    0    0  501  502  0.00000000000E+00  0.00000000000E+00  0.20124989967E+04  0.20124989967E+04  0.00000000000E+00 0. -1.
          3   -1    0    0  502    0 -0.00000000000E+00 -0.00000000000E+00 -0.56803132750E+02  0.56803132750E+02  0.00000000000E+00 0. -1.
         23    2    1    2    0    0  0.14742072353E+03 -0.16697047735E+03  0.73049393599E+03  0.76914585569E+03  0.91388986016E+02 0.  0.
        -24    2    1    2    0    0 -0.23814849174E+03  0.21491083140E+03  0.88071863676E+03  0.94071428487E+03  0.79854111004E+02 0.  0.
         13    1    4    4    0    0 -0.23096688940E+03  0.21464713793E+03  0.80334608880E+03  0.86300871155E+03  0.00000000000E+00 0. -1.
        -14    1    4    4    0    0 -0.71816023380E+01  0.26369346659E+00  0.77372547965E+02  0.77705573320E+02  0.00000000000E+00 0.  1.
        -11    1    3    3    0    0  0.10279294481E+03 -0.11863114174E+03  0.35821173891E+03  0.39109511271E+03  0.00000000000E+00 0.  1.
         11    1    3    3    0    0  0.44627778723E+02 -0.48339335615E+02  0.37228219708E+03  0.37805074297E+03  0.00000000000E+00 0. -1.
          4    1    1    2  501    0  0.90727768202E+02 -0.47940354043E+02  0.34448329118E+03  0.35944198888E+03  0.00000000000E+00 0. -1.
<scales pt_clust_5="13000.00000" pt_clust_6="13000.00000" pt_clust_7="13000.00000" pt_clust_8="13000.00000" pt_clust_9="102.61484"></scales>
<clustering>
<clus scale="   79.854">  5  6 -1 -1</clus>
<clus scale="   91.389">  7  8 -1 -1</clus>
<clus scale="  102.615">  1  9  2 -1</clus>
<clus scale="  278.287">  1  5  2 -1</clus>
<clus scale="  102.615">  1  5  2 -1</clus>
</clustering>
</event>
<event>
 9    1  0.5981539E-005  0.3546571E+03  0.7546771E-02  0.1091507E+00
         -4   -1    0    0    0  501 -0.00000000000E+00  0.00000000000E+00  0.70916842783E+03  0.70916842783E+03  0.00000000000E+00 0.  1.
         21   -1    0    0  501  502  0.00000000000E+00 -0.00000000000E+00 -0.32719115018E+03  0.32719115018E+03  0.00000000000E+00 0.  1.
        -24    2    1    2    0    0 -0.97337705851E+02 -0.86752945137E+02  0.16879936800E+02  0.15470404983E+03  0.81533479605E+02 0.  0.
         23    2    1    2    0    0  0.15109475162E+03 -0.27017195223E+03  0.40645432215E+03  0.51834353797E+03  0.87477995127E+02 0.  0.
         11    1    3    3    0    0  0.85834974113E+01 -0.32451478730E+02 -0.41780030919E+01  0.33826477934E+02  0.00000000000E+00 0. -1.
        -12    1    3    3    0    0 -0.10592120326E+03 -0.54301466406E+02  0.21057939892E+02  0.12087757189E+03  0.00000000000E+00 0.  1.
        -11    1    4    4    0    0  0.45602922311E+02 -0.51127544580E+02  0.42393439578E+02  0.80565849200E+02  0.00000000000E+00 0. -1.
         11    1    4    4    0    0  0.10549182931E+03 -0.21904440765E+03  0.36406088257E+03  0.43777768877E+03  0.00000000000E+00 0.  1.
         -3    1    1    2    0  502 -0.53757045769E+02  0.35692489736E+03 -0.41356981289E+02  0.36331199021E+03  0.00000000000E+00 0.  1.
<scales pt_clust_5="13000.00000" pt_clust_6="13000.00000" pt_clust_7="13000.00000" pt_clust_8="13000.00000" pt_clust_9="343.69937"></scales>
<clustering>
<clus scale="   81.533">  5  6 -1 -1</clus>
<clus scale="   87.478">  7  8 -1 -1</clus>
<clus scale="  153.780">  1  5  2 -1</clus>
<clus scale="  343.699">  2  9  1 -1</clus>
<clus scale="  343.699">  2  5  1 -1</clus>
</clustering>
</event>
<event>
 9    1  0.5981539E-005  0.1571242E+03  0.7546771E-02  0.1216541E+00
         21   -1    0    0  501  502  0.00000000000E+00  0.00000000000E+00  0.65358705751E+02  0.65358705751E+02  0.00000000000E+00 0. -1.
          1   -1    0    0  502    0 -0.00000000000E+00 -0.00000000000E+00 -0.66066106330E+03  0.66066106330E+03  0.00000000000E+00 0. -1.
         23    2    1    2    0    0 -0.11149047518E+02 -0.18812989149E+02 -0.52577878687E+02  0.10641814533E+03  0.89900825953E+02 0.  0.
        -24    2    1    2    0    0 -0.49318061556E+01 -0.12194018957E+03 -0.35773058125E+03  0.38659348367E+03  0.81176476340E+02 0.  0.
         13    1    4    4    0    0 -0.42268851324E+02 -0.78508336236E+02 -0.22579337583E+03  0.24276091782E+03  0.00000000000E+00 0. -1.
        -14    1    4    4    0    0  0.37337045169E+02 -0.43431853336E+02 -0.13193720542E+03  0.14383256585E+03  0.00000000000E+00 0.  1.
        -13    1    3    3    0    0  0.15271917643E+02 -0.40270393034E+02  0.84112717465E+00  0.43077180949E+02  0.00000000000E+00 0. -1.
         13    1    3    3    0    0 -0.26420965161E+02  0.21457403885E+02 -0.53419005862E+02  0.63340964381E+02  0.00000000000E+00 0.  1.
          2    1    1    2  501    0  0.16080853674E+02  0.14075317872E+03 -0.18499389761E+03  0.23300814005E+03  0.00000000000E+00 0. -1.
<scales pt_clust_5="13000.00000" pt_clust_6="13000.00000" pt_clust_7="13000.00000" pt_clust_8="13000.00000" pt_clust_9="134.53022"></scales>
<clustering>
<clus scale="   81.176">  5  6 -1 -1</clus>
<clus scale="   89.901">  7  8 -1 -1</clus>
<clus scale="   92.522">  2  7  1 -1</clus>
<clus scale="  134.530">  1  9  2 -1</clus>
<clus scale="  134.530">  1  5  2 -1</clus>
</clustering>
</event>
<event>
 9    1  0.5981539E-005  0.8506137E+02  0.7546771E-02  0.1318141E+00
         21   -1    0    0  501  502  0.00000000000E+00  0.00000000000E+00  0.26062591646E+03  0.26062591646E+03  0.00000000000E+00 0.  1.
          1   -1    0    0  502    0 -0.00000000000E+00 -0.00000000000E+00 -0.80234715595E+02  0.80234715595E+02  0.00000000000E+00 0. -1.
        -24    2    1    2    0    0  0.21775586468E+02 -0.57866596436E+01 -0.19758774667E+02  0.83676691048E+02  0.78126294246E+02 0.  0.
         23    2    1    2    0    0  0.17572855548E+02  0.53035275998E+02  0.11548638501E+03  0.15254811924E+03  0.82536524092E+02 0.  0.
         11    1    3    3    0    0  0.13350801572E+02 -0.40635061562E+02 -0.66297972755E-01  0.42772146616E+02  0.00000000000E+00 0. -1.
        -12    1    3    3    0    0  0.84247848956E+01  0.34848401918E+02 -0.19692476694E+02  0.40904544432E+02  0.00000000000E+00 0.  1.
        -11    1    4    4    0    0  0.21000424160E+01  0.31880161805E+02  0.12152264841E+03  0.12565233373E+03  0.00000000000E+00 0.  1.
         11    1    4    4    0    0  0.15472813132E+02  0.21155114194E+02 -0.60362633966E+01  0.26895785517E+02  0.00000000000E+00 0. -1.
          2    1    1    2  501    0 -0.39348442015E+02 -0.47248616355E+02  0.84663590523E+02  0.10463582177E+03  0.00000000000E+00 0. -1.
<scales pt_clust_5="13000.00000" pt_clust_6="13000.00000" pt_clust_7="13000.00000" pt_clust_8="13000.00000" pt_clust_9="61.48765"></scales>
<clustering>
<clus scale="   61.488">  1  9  2 -1</clus>
<clus scale="   78.126">  5  6 -1 -1</clus>
<clus scale="   80.789">  2  5  1 -1</clus>
<clus scale="   82.537">  7  8 -1 -1</clus>
<clus scale="   61.488">  1  5  2 -1</clus>
</clustering>
</event>
<event>
 9    1  0.5981539E-005  0.1095003E+03  0.7546771E-02  0.1265939E+00
         21   -1    0    0  501  502  0.00000000000E+00  0.00000000000E+00  0.37321069140E+03  0.37321069140E+03  0.00000000000E+00 0. -1.
         -2   -1    0    0    0  501 -0.00000000000E+00 -0.00000000000E+00 -0.79015215911E+02  0.79015215911E+02  0.00000000000E+00 0.  1.
         23    2    1    2    0    0  0.19898935458E+02 -0.61686475200E+02 -0.19352989052E+02  0.11331011134E+03  0.90903543892E+02 0.  0.
        -24    2    1    2    0    0 -0.26032138885E+01  0.38645665175E+02  0.28458247784E+03  0.29806179620E+03  0.79708114417E+02 0.  0.
         13    1    4    4    0    0  0.24131260456E+01  0.50002939861E+02  0.28058864023E+03  0.28501947687E+03  0.00000000000E+00 0. -1.
        -14    1    4    4    0    0 -0.50163399341E+01 -0.11357274687E+02  0.39938376100E+01  0.13042319330E+02  0.00000000000E+00 0.  1.
        -13    1    3    3    0    0 -0.92690773241E+01 -0.74263389945E+02 -0.28770832908E+02  0.80179347133E+02  0.00000000000E+00 0.  1.
         13    1    3    3    0    0  0.29168012782E+02  0.12576914745E+02  0.94178438558E+01  0.33130764209E+02  0.00000000000E+00 0. -1.
         -1    1    1    2    0  502 -0.17295721570E+02  0.23040810025E+02  0.28965986706E+02  0.40853999768E+02  0.00000000000E+00 0.  1.
<scales pt_clust_5="13000.00000" pt_clust_6="13000.00000" pt_clust_7="13000.00000" pt_clust_8="13000.00000" pt_clust_9="28.81008"></scales>
<clustering>
<clus scale="   28.810">  1  9  2 -1</clus>
<clus scale="   79.708">  5  6 -1 -1</clus>
<clus scale="   90.904">  7  8 -1 -1</clus>
<clus scale="  100.400">  1  5  2 -1</clus>
<clus scale="   28.810">  1  5  2 -1</clus>
</clustering>
</event>
<event>
 9    1  0.5981539E-005  0.2428724E+03  0.7546771E-02  0.1159291E+00
         21   -1    0    0  501  502  0.00000000000E+00  0.00000000000E+00  0.22120771088E+03  0.22120771088E+03  0.00000000000E+00 0. -1.
         -2   -1    0    0    0  501 -0.00000000000E+00 -0.00000000000E+00 -0.53915838816E+03  0.53915838816E+03  0.00000000000E+00 0.  1.
        -24    2    1    2    0    0 -0.35076279988E+02 -0.14037312646E+02  0.42605593200E+02  0.98873982218E+02  0.80829674153E+02 0.  0.
         23    2    1    2    0    0  0.23410765356E+03 -0.50238153822E+01 -0.18871277591E+01  0.25085801180E+03  0.89969709665E+02 0.  0.
         11    1    3    3    0    0 -0.73292222674E+01 -0.42619837751E+02  0.40073682307E+02  0.58958189275E+02  0.00000000000E+00 0. -1.
        -12    1    3    3    0    0 -0.27747057720E+02  0.28582525105E+02  0.25319108930E+01  0.39915792943E+02  0.00000000000E+00 0.  1.
        -13    1    4    4    0    0  0.22788423052E+03 -0.25321403551E+02 -0.53396304178E+01  0.22934887759E+03  0.00000000000E+00 0.  1.
         13    1    4    4    0    0  0.62234230331E+01  0.20297588169E+02  0.34525026587E+01  0.21509134207E+02  0.00000000000E+00 0. -1.
         -1    1    1    2    0  502 -0.19903137357E+03  0.19061128028E+02 -0.35866914272E+03  0.41063410502E+03  0.00000000000E+00 0.  1.
<scales pt_clust_5="13000.00000" pt_clust_6="13000.00000" pt_clust_7="13000.00000" pt_clust_8="13000.00000" pt_clust_9="225.59366"></scales>
<clustering>
<clus scale="   80.830">  5  6 -1 -1</clus>
<clus scale="   89.224">  2  5  1 -1</clus>
<clus scale="   89.970">  7  8 -1 -1</clus>
<clus scale="  225.594">  1  9  2 -1</clus>
<clus scale="  225.594">  1  5  2 -1</clus>
</clustering>
</event>
<event>
 9    1  0.5981539E-005  0.1349216E+03  0.7546771E-02  0.1231599E+00
         21   -1    0    0  501  502  0.00000000000E+00  0.00000000000E+00  0.10873655147E+03  0.10873655147E+03  0.00000000000E+00 0. -1.
         -4   -1    0    0    0  501 -0.00000000000E+00 -0.00000000000E+00 -0.10773435541E+04  0.10773435541E+04  0.00000000000E+00 0.  1.
         23    2    1    2    0    0 -0.23194101682E+02  0.52421662554E+02  0.62547316819E+02  0.12371943814E+03  0.90046296283E+02 0.  0.
        -24    2    1    2    0    0 -0.47691279222E+02  0.55421505372E+02 -0.67492399569E+03  0.68347423371E+03  0.79174660173E+02 0.  0.
         11    1    4    4    0    0  0.13574563497E+02  0.42491245740E+02 -0.24739869120E+03  0.25138792164E+03  0.00000000000E+00 0. -1.
        -12    1    4    4    0    0 -0.61265842719E+02  0.12930259632E+02 -0.42752530449E+03  0.43208631207E+03  0.00000000000E+00 0.  1.
        -13    1    3    3    0    0  0.44279113033E+01  0.68298152847E+02  0.21460040310E+02  0.71727103740E+02  0.00000000000E+00 0.  1.
         13    1    3    3    0    0 -0.27622012986E+02 -0.15876490292E+02  0.41087276509E+02  0.51992334400E+02  0.00000000000E+00 0. -1.
         -3    1    1    2    0  502  0.70885380904E+02 -0.10784316793E+03 -0.35623032376E+03  0.37888643373E+03  0.00000000000E+00 0.  1.
<scales pt_clust_5="13000.00000" pt_clust_6="13000.00000" pt_clust_7="13000.00000" pt_clust_8="13000.00000" pt_clust_9="109.24835"></scales>
<clustering>
<clus scale="   79.175">  5  6 -1 -1</clus>
<clus scale="   90.046">  7  8 -1 -1</clus>
<clus scale="  106.744">  2  7  1 -1</clus>
<clus scale="  109.248">  1  9  2 -1</clus>
<clus scale="  109.248">  1  5  2 -1</clus>
</clustering>
</event>
<event>
 9    1  0.5981539E-005  0.1571286E+03  0.7546771E-02  0.1210350E+00
         21   -1    0    0  501  502  0.00000000000E+00  0.00000000000E+00  0.73850827694E+02  0.73850827694E+02  0.00000000000E+00 0.  1.
          1   -1    0    0  502    0 -0.00000000000E+00 -0.00000000000E+00 -0.56632987369E+03  0.56632987369E+03  0.00000000000E+00 0. -1.
         23    2    1    2    0    0 -0.17847715705E+02  0.51160370526E+02 -0.11693211352E+03  0.15749700349E+03  0.90533211957E+02 0.  0.
        -24    2    1    2    0    0 -0.91156021062E+02 -0.11419421169E+03 -0.14958094141E+03  0.22400298953E+03  0.80331457874E+02 0.  0.
         11    1    4    4    0    0 -0.25773667615E+02 -0.59777163140E+02 -0.11506369473E+03  0.13220153184E+03  0.00000000000E+00 0. -1.
        -12    1    4    4    0    0 -0.65382353447E+02 -0.54417048554E+02 -0.34517246678E+02  0.91801457689E+02  0.00000000000E+00 0.  1.
        -13    1    3    3    0    0  0.10682826453E+02  0.53109408394E+02 -0.22204876413E+02  0.58547319132E+02  0.00000000000E+00 0.  1.
         13    1    3    3    0    0 -0.28530542159E+02 -0.19490378686E+01 -0.94727237103E+02  0.98949684353E+02  0.00000000000E+00 0. -1.
          2    1    1    2  501    0  0.10900373677E+03  0.63033841169E+02 -0.22596599107E+03  0.25868070837E+03  0.00000000000E+00 0. -1.
<scales pt_clust_5="13000.00000" pt_clust_6="13000.00000" pt_clust_7="13000.00000" pt_clust_8="13000.00000" pt_clust_9="135.04172"></scales>
<clustering>
<clus scale="   80.331">  5  6 -1 -1</clus>
<clus scale="   90.533">  7  8 -1 -1</clus>
<clus scale="  105.509">  2  7  1 -1</clus>
<clus scale="  135.042">  1  9  2 -1</clus>
<clus scale="  135.042">  1  5  2 -1</clus>
</clustering>
</event>
<event>
 9    1  0.5981539E-005  0.9589512E+02  0.7546771E-02  0.1297052E+00
          3   -1    0    0  502    0 -0.00000000000E+00  0.00000000000E+00  0.92648309481E+02  0.92648309481E+02  0.00000000000E+00 0. -1.
         21   -1    0    0  501  502  0.00000000000E+00 -0.00000000000E+00 -0.20005968773E+03  0.20005968773E+03  0.00000000000E+00 0.  1.
         23    2    1    2    0    0 -0.16400134894E+02  0.28080525232E+02  0.27264768708E+02  0.10243796019E+03  0.93234584529E+02 0.  0.
        -24    2    1    2    0    0 -0.14141518787E+02  0.58692232134E+01 -0.11449943078E+03  0.14034531465E+03  0.79701049925E+02 0.  0.
         11    1    4    4    0    0  0.80200799660E+01  0.38506835863E+02 -0.40318743975E+02  0.56326718408E+02  0.00000000000E+00 0. -1.
        -12    1    4    4    0    0 -0.22161598753E+02 -0.32637612650E+02 -0.74180686809E+02  0.84018596241E+02  0.00000000000E+00 0.  1.
        -13    1    3    3    0    0  0.11789335372E+02 -0.30986593682E+02  0.11760267097E+02  0.35177568118E+02  0.00000000000E+00 0.  1.
         13    1    3    3    0    0 -0.28189470266E+02  0.59067118915E+02  0.15504501612E+02  0.67260392067E+02  0.00000000000E+00 0. -1.
          4    1    1    2  501    0  0.30541653681E+02 -0.33949748446E+02 -0.20176716176E+02  0.49924722380E+02  0.00000000000E+00 0. -1.
<scales pt_clust_5="13000.00000" pt_clust_6="13000.00000" pt_clust_7="13000.00000" pt_clust_8="13000.00000" pt_clust_9="45.66594"></scales>
<clustering>
<clus scale="   45.666">  2  9  1 -1</clus>
<clus scale="   79.701">  5  6 -1 -1</clus>
<clus scale="   82.798">  2  5  1 -1</clus>
<clus scale="   93.235">  7  8 -1 -1</clus>
<clus scale="   45.666">  2  5  1 -1</clus>
</clustering>
</event>
<event>
 9    1  0.5981539E-005  0.1221341E+03  0.7546771E-02  0.1241959E+00
          1   -1    0    0  502    0 -0.00000000000E+00  0.00000000000E+00  0.75808153444E+02  0.75808153444E+02  0.00000000000E+00 0. -1.
         21   -1    0    0  501  502  0.00000000000E+00 -0.00000000000E+00 -0.54228326123E+03  0.54228326123E+03  0.00000000000E+00 0. -1.
         23    2    1    2    0    0 -0.60510301730E+02 -0.91742258020E+02 -0.32730296398E+02  0.14542360583E+03  0.89434972505E+02 0.  0.
        -24    2    1    2    0    0  0.66155767047E+01  0.43761715857E+02 -0.12534470723E+03  0.15593859003E+03  0.81527262919E+02 0.  0.
         13    1    4    4    0    0 -0.19732482304E+02 -0.91612410027E+01 -0.75623327957E+02  0.78690450029E+02  0.00000000000E+00 0. -1.
        -14    1    4    4    0    0  0.26348059008E+02  0.52922956859E+02 -0.49721379275E+02  0.77248139999E+02  0.00000000000E+00 0.  1.
        -11    1    3    3    0    0  0.20921140755E+02 -0.86723474276E+01 -0.16389543730E+02  0.27955695021E+02  0.00000000000E+00 0.  1.
         11    1    3    3    0    0 -0.81431442485E+02 -0.83069910593E+02 -0.16340752668E+02  0.11746791080E+03  0.00000000000E+00 0. -1.
          2    1    1    2  501    0  0.53894725025E+02  0.47980542164E+02 -0.30840010415E+03  0.31672921882E+03  0.00000000000E+00 0. -1.
<scales pt_clust_5="13000.00000" pt_clust_6="13000.00000" pt_clust_7="13000.00000" pt_clust_8="13000.00000" pt_clust_9="72.15798"></scales>
<clustering>
<clus scale="   72.158">  2  9  1 -1</clus>
<clus scale="   81.527">  5  6 -1 -1</clus>
<clus scale="   89.435">  7  8 -1 -1</clus>
<clus scale="  116.468">  2  5  1 -1</clus>
<clus scale="   72.158">  2  5  1 -1</clus>
</clustering>
</event>
<event>
 9    1  0.5981539E-005  0.1678616E+03  0.7546771E-02  0.1203551E+00
         21   -1    0    0  501  502  0.00000000000E+00  0.00000000000E+00  0.10555146783E+03  0.10555146783E+03  0.00000000000E+00 0. -1.
          1   -1    0    0  502    0 -0.00000000000E+00 -0.00000000000E+00 -0.98404398710E+03  0.98404398710E+03  0.00000000000E+00 0. -1.
        -24    2    1    2    0    0  0.44627693627E+02 -0.39902937518E+02 -0.73552662516E+03  0.74231122858E+03  0.80266233817E+02 0.  0.
         23    2    1    2    0    0  0.55086748632E+02 -0.90602231197E+02 -0.11400872915E+03  0.18051166729E+03  0.91340886424E+02 0.  0.
         11    1    3    3    0    0  0.21659331965E+02 -0.40121139156E+02 -0.16115870264E+03  0.16748420793E+03  0.00000000000E+00 0. -1.
        -12    1    3    3    0    0  0.22968361662E+02  0.21820163766E+00 -0.57436792252E+03  0.57482702065E+03  0.00000000000E+00 0.  1.
        -11    1    4    4    0    0  0.70141815369E+02 -0.28251351704E+02 -0.66374929791E+02  0.10061632294E+03  0.00000000000E+00 0.  1.
         11    1    4    4    0    0 -0.15055066737E+02 -0.62350879493E+02 -0.47633799357E+02  0.79895344352E+02  0.00000000000E+00 0. -1.
          2    1    1    2  501    0 -0.99714442259E+02  0.13050516872E+03 -0.28957164959E+02  0.16677255907E+03  0.00000000000E+00 0. -1.
<scales pt_clust_5="13000.00000" pt_clust_6="13000.00000" pt_clust_7="13000.00000" pt_clust_8="13000.00000" pt_clust_9="140.83453"></scales>
<clustering>
<clus scale="   80.266">  5  6 -1 -1</clus>
<clus scale="   91.341">  7  8 -1 -1</clus>
<clus scale="  100.133">  2  5  1 -1</clus>
<clus scale="  140.835">  1  9  2 -1</clus>
<clus scale="  140.835">  1  5  2 -1</clus>
</clustering>
</event>
<event>
 9    1  0.5981539E-005  0.1178375E+03  0.7546771E-02  0.1252478E+00
         21   -1    0    0  501  502  0.00000000000E+00  0.00000000000E+00  0.24375471458E+03  0.24375471458E+03  0.00000000000E+00 0.  1.
          1   -1    0    0  502    0 -0.00000000000E+00 -0.00000000000E+00 -0.12574616997E+03  0.12574616997E+03  0.00000000000E+00 0. -1.
        -24    2    1    2    0    0  0.25791322511E+02 -0.28690552061E+02  0.59176950207E+02  0.10746071211E+03  0.80978720153E+02 0.  0.
         23    2    1    2    0    0 -0.62876394597E+02  0.94713690549E+02  0.96037715138E+02  0.17766806326E+03  0.97049336923E+02 0.  0.
         13    1    3    3    0    0  0.18879936693E+02 -0.53387581018E+02  0.59050248561E+02  0.81814532154E+02  0.00000000000E+00 0. -1.
        -14    1    3    3    0    0  0.69113858181E+01  0.24697028957E+02  0.12670164660E+00  0.25646179959E+02  0.00000000000E+00 0.  1.
        -13    1    4    4    0    0 -0.21974695178E+02  0.10435875836E+03  0.76964413146E+02  0.13151866242E+03  0.00000000000E+00 0.  1.
         13    1    4    4    0    0 -0.40901699419E+02 -0.96450678101E+01  0.19073301992E+02  0.46149400833E+02  0.00000000000E+00 0. -1.
          2    1    1    2  501    0  0.37085072085E+02 -0.66023138488E+02 -0.37206120740E+02  0.84372109182E+02  0.00000000000E+00 0. -1.
<scales pt_clust_5="13000.00000" pt_clust_6="13000.00000" pt_clust_7="13000.00000" pt_clust_8="13000.00000" pt_clust_9="75.72558"></scales>
<clustering>
<clus scale="   75.726">  1  9  2 -1</clus>
<clus scale="   80.979">  5  6 -1 -1</clus>
<clus scale="   97.049">  7  8 -1 -1</clus>
<clus scale="  104.998">  2  5  1 -1</clus>
<clus scale="   75.726">  1  5  2 -1</clus>
</clustering>
</event>
<event>
 9    1  0.5981539E-005  0.1552683E+03  0.7546771E-02  0.1195604E+00
          3   -1    0    0  502    0 -0.00000000000E+00  0.00000000000E+00  0.61083593902E+03  0.61083593902E+03  0.00000000000E+00 0. -1.
         21   -1    0    0  501  502  0.00000000000E+00 -0.00000000000E+00 -0.62721650599E+02  0.62721650599E+02  0.00000000000E+00 0.  1.
         23    2    1    2    0    0 -0.12513861954E+03 -0.75073386253E+01  0.39502581748E+03  0.42420680068E+03  0.90498502950E+02 0.  0.
        -24    2    1    2    0    0  0.12825871617E+03 -0.12591629418E+02  0.16579110746E+03  0.22537036997E+03  0.81830709045E+02 0.  0.
         11    1    4    4    0    0  0.25911288619E+02 -0.18512547029E+02  0.17047347996E+01  0.31890678829E+02  0.00000000000E+00 0. -1.
        -12    1    4    4    0    0  0.10234742755E+03  0.59209176116E+01  0.16408637266E+03  0.19347969114E+03  0.00000000000E+00 0.  1.
        -11    1    3    3    0    0 -0.12420577548E+03 -0.33286118623E+02  0.31996370169E+03  0.34483591860E+03  0.00000000000E+00 0. -1.
         11    1    3    3    0    0 -0.93284406017E+00  0.25778779998E+02  0.75062115790E+02  0.79370882086E+02  0.00000000000E+00 0.  1.
          4    1    1    2  501    0 -0.31200966310E+01  0.20098968043E+02 -0.12702636517E+02  0.23980418968E+02  0.00000000000E+00 0. -1.
<scales pt_clust_5="13000.00000" pt_clust_6="13000.00000" pt_clust_7="13000.00000" pt_clust_8="13000.00000" pt_clust_9="20.33970"></scales>
<clustering>
<clus scale="   20.340">  2  9  1 -1</clus>
<clus scale="   81.831">  5  6 -1 -1</clus>
<clus scale="   90.499">  7  8 -1 -1</clus>
<clus scale="  150.381">  2  5  1 -1</clus>
<clus scale="   20.340">  2  5  1 -1</clus>
</clustering>
</event>
<event>
 9    1  0.5981539E-005  0.2398936E+03  0.7546771E-02  0.1120669E+00
          3   -1    0    0  502    0 -0.00000000000E+00  0.00000000000E+00  0.94388097751E+03  0.94388097751E+03  0.00000000000E+00 0. -1.
         21   -1    0    0  501  502  0.00000000000E+00 -0.00000000000E+00 -0.87945977688E+02  0.87945977688E+02  0.00000000000E+00 0.  1.
         23    2    1    2    0    0  0.11927705848E+03 -0.18769080384E+03  0.68111126380E+03  0.72257615550E+03  0.93535513541E+02 0.  0.
        -24    2    1    2    0    0 -0.99182334911E+02  0.19306122488E+03  0.14592700565E+03  0.27364658136E+03  0.80485951570E+02 0.  0.
         11    1    4    4    0    0 -0.32163712266E+02  0.49210119398E+02  0.11004133108E+01  0.58799244445E+02  0.00000000000E+00 0. -1.
        -12    1    4    4    0    0 -0.67018622645E+02  0.14385110548E+03  0.14482659234E+03  0.21484733691E+03  0.00000000000E+00 0.  1.
        -11    1    3    3    0    0  0.37433373117E+02 -0.14033512150E+03  0.37292229894E+03  0.40020775205E+03  0.00000000000E+00 0.  1.
         11    1    3    3    0    0  0.81843685366E+02 -0.47355682338E+02  0.30818896485E+03  0.32236840345E+03  0.00000000000E+00 0. -1.
          4    1    1    2  501    0 -0.20094723572E+02 -0.53704210368E+01  0.28896730370E+02  0.35604218340E+02  0.00000000000E+00 0. -1.
<scales pt_clust_5="13000.00000" pt_clust_6="13000.00000" pt_clust_7="13000.00000" pt_clust_8="13000.00000" pt_clust_9="20.79998"></scales>
<clustering>
<clus scale="   20.800">  2  9  1 -1</clus>
<clus scale="   80.486">  5  6 -1 -1</clus>
<clus scale="   93.536">  7  8 -1 -1</clus>
<clus scale="  235.113">  2  5  1 -1</clus>
<clus scale="   20.800">  2  5  1 -1</clus>
</clustering>
</event>
<event>
 9    1  0.5981539E-005  0.1443367E+03  0.7546771E-02  0.1208495E+00
         21   -1    0    0  501  502  0.00000000000E+00  0.00000000000E+00  0.42667240102E+02  0.42667240102E+02  0.00000000000E+00 0.  1.
         -4   -1    0    0    0  501 -0.00000000000E+00 -0.00000000000E+00 -0.86089969811E+03  0.86089969811E+03  0.00000000000E+00 0.  1.
        -24    2    1    2    0    0  0.44137554993E+02  0.11974013231E+03 -0.65067874908E+03  0.66815624372E+03  0.82244200264E+02 0.  0.
         23    2    1    2    0    0 -0.26030942503E+02 -0.77336865783E+02 -0.12440534262E+03  0.17226271001E+03  0.86828285782E+02 0.  0.
         11    1    3    3    0    0 -0.21457039212E+02  0.38083887610E+02 -0.26155991211E+03  0.26518743306E+03  0.00000000000E+00 0. -1.
        -12    1    3    3    0    0  0.65594594204E+02  0.81656244702E+02 -0.38911883697E+03  0.40296881066E+03  0.00000000000E+00 0.  1.
        -13    1    4    4    0    0 -0.10130691722E+02 -0.47889637949E+02 -0.61154506672E+01  0.49329981498E+02  0.00000000000E+00 0. -1.
         13    1    4    4    0    0 -0.15900250780E+02 -0.29447227834E+02 -0.11828989195E+03  0.12293272852E+03  0.00000000000E+00 0.  1.
         -3    1    1    2    0  502 -0.18106612490E+02 -0.42403266529E+02 -0.43148366309E+02  0.63147984475E+02  0.00000000000E+00 0.  1.
<scales pt_clust_5="13000.00000" pt_clust_6="13000.00000" pt_clust_7="13000.00000" pt_clust_8="13000.00000" pt_clust_9="46.10734"></scales>
<clustering>
<clus scale="   46.107">  1  9  2 -1</clus>
<clus scale="   82.244">  5  6 -1 -1</clus>
<clus scale="   86.828">  7  8 -1 -1</clus>
<clus scale="  141.626">  2  5  1 -1</clus>
<clus scale="   46.107">  1  5  2 -1</clus>
</clustering>
</event>
<event>
 9    1  0.5981539E-005  0.1361202E+03  0.7546771E-02  0.1227233E+00
          1   -1    0    0  502    0 -0.00000000000E+00  0.00000000000E+00  0.14534958522E+04  0.14534958522E+04  0.00000000000E+00 0. -1.
         21   -1    0    0  501  502  0.00000000000E+00 -0.00000000000E+00 -0.41706793273E+02  0.41706793273E+02  0.00000000000E+00 0. -1.
         23    2    1    2    0    0  0.13156688097E+02 -0.65951558964E+02  0.81882078969E+02  0.14016877498E+03  0.91760035148E+02 0.  0.
        -24    2    1    2    0    0  0.10031652588E+03  0.20502178540E+02  0.56864971910E+03  0.58402515870E+03  0.85083125613E+02 0.  0.
         13    1    4    4    0    0  0.38802273290E+02  0.50740849087E+02  0.30441822231E+03  0.31104775237E+03  0.00000000000E+00 0. -1.
        -14    1    4    4    0    0  0.61514252589E+02 -0.30238670547E+02  0.26423149679E+03  0.27297740633E+03  0.00000000000E+00 0.  1.
        -11    1    3    3    0    0 -0.63462858598E+01 -0.58740115324E+02  0.36214067766E+01  0.59192829630E+02  0.00000000000E+00 0. -1.
         11    1    3    3    0    0  0.19502973957E+02 -0.72114436395E+01  0.78260672193E+02  0.80975945345E+02  0.00000000000E+00 0.  1.
          2    1    1    2  501    0 -0.11347321398E+03  0.45449380424E+02  0.76125726085E+03  0.77100871179E+03  0.00000000000E+00 0. -1.
<scales pt_clust_5="13000.00000" pt_clust_6="13000.00000" pt_clust_7="13000.00000" pt_clust_8="13000.00000" pt_clust_9="106.25243"></scales>
<clustering>
<clus scale="   85.083">  5  6 -1 -1</clus>
<clus scale="   91.760">  7  8 -1 -1</clus>
<clus scale="  113.766">  1  7  2 -1</clus>
<clus scale="  106.252">  2  9  1 -1</clus>
<clus scale="  106.252">  2  5  1 -1</clus>
</clustering>
</event>
<event>
 9    1  0.5981539E-005  0.9822946E+02  0.7546771E-02  0.1293581E+00
          1   -1    0    0  502    0 -0.00000000000E+00  0.00000000000E+00  0.62276199489E+03  0.62276199489E+03  0.00000000000E+00 0. -1.
         21   -1    0    0  501  502  0.00000000000E+00 -0.00000000000E+00 -0.27224110891E+02  0.27224110891E+02  0.00000000000E+00 0. -1.
         23    2    1    2    0    0 -0.42248630101E+02 -0.31871636283E+02  0.43747839487E+03  0.44999868408E+03  0.91163160062E+02 0.  0.
        -24    2    1    2    0    0  0.94633073347E+01 -0.25282809853E+01  0.10716589294E+03  0.13035704162E+03  0.73569581350E+02 0.  0.
         13    1    4    4    0    0 -0.11807805704E+01 -0.27358144378E+02  0.98117081940E+02  0.10186669758E+03  0.00000000000E+00 0. -1.
        -14    1    4    4    0    0  0.10644087905E+02  0.24829863393E+02  0.90488110051E+01  0.28490344049E+02  0.00000000000E+00 0.  1.
        -13    1    3    3    0    0  0.12910202702E+02 -0.44589838396E+02  0.24543790033E+03  0.24978929108E+03  0.00000000000E+00 0.  1.
         13    1    3    3    0    0 -0.55158832803E+02  0.12718202114E+02  0.19204049454E+03  0.20020939300E+03  0.00000000000E+00 0. -1.
          2    1    1    2  501    0  0.32785322766E+02  0.34399917268E+02  0.50893596189E+02  0.69630380079E+02  0.00000000000E+00 0. -1.
<scales pt_clust_5="13000.00000" pt_clust_6="13000.00000" pt_clust_7="13000.00000" pt_clust_8="13000.00000" pt_clust_9="47.52086"></scales>
<clustering>
<clus scale="   47.521">  2  9  1 -1</clus>
<clus scale="   73.570">  5  6 -1 -1</clus>
<clus scale="   82.163">  2  5  1 -1</clus>
<clus scale="   91.163">  7  8 -1 -1</clus>
<clus scale="   47.521">  2  5  1 -1</clus>
</clustering>
</event>
<event>
 9    1  0.5981539E-005  0.1869750E+03  0.7546771E-02  0.1162811E+00
         21   -1    0    0  501  502  0.00000000000E+00  0.00000000000E+00  0.88476053901E+02  0.88476053901E+02  0.00000000000E+00 0. -1.
          1   -1    0    0  502    0 -0.00000000000E+00 -0.00000000000E+00 -0.96118864120E+03  0.96118864120E+03  0.00000000000E+00 0. -1.
         23    2    1    2    0    0 -0.17505599985E+02 -0.14836489527E+03 -0.43036944078E+03  0.46431647969E+03  0.89740456784E+02 0.  0.
        -24    2    1    2    0    0 -0.11330043782E+03  0.19261259736E+03 -0.33922840300E+03  0.41300922098E+03  0.74592930948E+02 0.  0.
         11    1    4    4    0    0 -0.73281395391E+02  0.12871604716E+03 -0.15720473195E+03  0.21598914661E+03  0.00000000000E+00 0. -1.
        -12    1    4    4    0    0 -0.40019042425E+02  0.63896550203E+02 -0.18202367105E+03  0.19702007437E+03  0.00000000000E+00 0.  1.
        -13    1    3    3    0    0 -0.21717497799E+02  0.36520953388E+01 -0.61744201489E+02  0.65554053486E+02  0.00000000000E+00 0.  1.
         13    1    3    3    0    0  0.42118978145E+01 -0.15201699060E+03 -0.36862523929E+03  0.39876242621E+03  0.00000000000E+00 0. -1.
          2    1    1    2  501    0  0.13080603780E+03 -0.44247702098E+02 -0.10311474353E+03  0.17233899442E+03  0.00000000000E+00 0. -1.
<scales pt_clust_5="13000.00000" pt_clust_6="13000.00000" pt_clust_7="13000.00000" pt_clust_8="13000.00000" pt_clust_9="138.08721"></scales>
<clustering>
<clus scale="   74.593">  5  6 -1 -1</clus>
<clus scale="   89.740">  7  8 -1 -1</clus>
<clus scale="  138.087">  1  9  2 -1</clus>
<clus scale="  180.195">  1  5  2 -1</clus>
<clus scale="  138.087">  1  5  2 -1</clus>
</clustering>
</event>
<event>
 9    1  0.5981539E-005  0.2284576E+03  0.7546771E-02  0.1154651E+00
         21   -1    0    0  501  502  0.00000000000E+00  0.00000000000E+00  0.10459478972E+03  0.10459478972E+03  0.00000000000E+00 0. -1.
          1   -1    0    0  502    0 -0.00000000000E+00 -0.00000000000E+00 -0.83251814704E+03  0.83251814704E+03  0.00000000000E+00 0. -1.
        -24    2    1    2    0    0 -0.80765827513E+02 -0.64683009224E+02 -0.15815110567E+03  0.19821987436E+03  0.59769020329E+02 0.  0.
         23    2    1    2    0    0  0.24668626111E+03  0.12668638294E+03 -0.38668958520E+03  0.48415148474E+03  0.89276390109E+02 0.  0.
         11    1    3    3    0    0 -0.18077199613E+02 -0.19171799634E+02 -0.94047940648E+02  0.97669638000E+02  0.00000000000E+00 0. -1.
        -12    1    3    3    0    0 -0.62688627900E+02 -0.45511209591E+02 -0.64103165022E+02  0.10055023636E+03  0.00000000000E+00 0.  1.
        -11    1    4    4    0    0  0.23863161648E+03  0.10525829285E+03 -0.31536072568E+03  0.40923922576E+03  0.00000000000E+00 0. -1.
         11    1    4    4    0    0  0.80546446268E+01  0.21428090092E+02 -0.71328859526E+02  0.74912258985E+02  0.00000000000E+00 0.  1.
          2    1    1    2  501    0 -0.16592043359E+03 -0.62003373714E+02 -0.18308266644E+03  0.25474157766E+03  0.00000000000E+00 0. -1.
<scales pt_clust_5="13000.00000" pt_clust_6="13000.00000" pt_clust_7="13000.00000" pt_clust_8="13000.00000" pt_clust_9="210.29166"></scales>
<clustering>
<clus scale="   59.769">  5  6 -1 -1</clus>
<clus scale="   89.276">  7  8 -1 -1</clus>
<clus scale="  119.496">  2  5  1 -1</clus>
<clus scale="  210.292">  1  9  2 -1</clus>
<clus scale="  210.292">  1  5  2 -1</clus>
</clustering>
</event>
<event>
 9    1  0.5981539E-005  0.9704513E+02  0.7546771E-02  0.1292759E+00
          1   -1    0    0  502    0 -0.00000000000E+00  0.00000000000E+00  0.26091655819E+03  0.26091655819E+03  0.00000000000E+00 0. -1.
         21   -1    0    0  501  502  0.00000000000E+00 -0.00000000000E+00 -0.76952691497E+02  0.76952691497E+02  0.00000000000E+00 0. -1.
        -24    2    1    2    0    0 -0.45968453389E+02  0.25987554442E+02  0.11705366984E+03  0.15157257870E+03  0.80524737172E+02 0.  0.
         23    2    1    2    0    0 -0.24469659377E+02 -0.24910239133E+02  0.61079105035E+02  0.11560940219E+03  0.91736538850E+02 0.  0.
         13    1    3    3    0    0 -0.52910813535E+02  0.36179234265E+02  0.44625242898E+02  0.78101878881E+02  0.00000000000E+00 0. -1.
        -14    1    3    3    0    0  0.69423601459E+01 -0.10191679823E+02  0.72428426944E+02  0.73470699817E+02  0.00000000000E+00 0.  1.
        -11    1    4    4    0    0  0.89181961583E+01  0.30595768351E+02  0.10930306385E+02  0.33691346981E+02  0.00000000000E+00 0.  1.
         11    1    4    4    0    0 -0.33387855535E+02 -0.55506007484E+02  0.50148798650E+02  0.81918055214E+02  0.00000000000E+00 0. -1.
          2    1    1    2  501    0  0.70438112766E+02 -0.10773153084E+01  0.58310918185E+01  0.70687268798E+02  0.00000000000E+00 0. -1.
<scales pt_clust_5="13000.00000" pt_clust_6="13000.00000" pt_clust_7="13000.00000" pt_clust_8="13000.00000" pt_clust_9="70.44635"></scales>
<clustering>
<clus scale="   70.446">  2  9  1 -1</clus>
<clus scale="   80.525">  5  6 -1 -1</clus>
<clus scale="   86.524">  1  5  2 -1</clus>
<clus scale="   91.737">  7  8 -1 -1</clus>
<clus scale="   70.446">  2  5  1 -1</clus>
</clustering>
</event>
<event>
 9    1  0.5981539E-005  0.1879566E+03  0.7546771E-02  0.1161378E+00
         21   -1    0    0  501  502  0.00000000000E+00  0.00000000000E+00  0.52125317408E+03  0.52125317408E+03  0.00000000000E+00 0. -1.
          1   -1    0    0  502    0 -0.00000000000E+00 -0.00000000000E+00 -0.20640988979E+03  0.20640988979E+03  0.00000000000E+00 0. -1.
         23    2    1    2    0    0 -0.15793945114E+03 -0.69411975228E+02  0.74077981182E+02  0.20855574144E+03  0.90802298770E+02 0.  0.
        -24    2    1    2    0    0  0.12999568294E+03  0.60332447392E+02  0.36025071638E+03  0.39606238758E+03  0.80907072699E+02 0.  0.
         13    1    4    4    0    0  0.48055819835E+02  0.66901063181E+02  0.18060732281E+03  0.19850470807E+03  0.00000000000E+00 0. -1.
        -14    1    4    4    0    0  0.81939863103E+02 -0.65686157896E+01  0.17964339357E+03  0.19755767951E+03  0.00000000000E+00 0.  1.
        -13    1    3    3    0    0 -0.64313863748E+02  0.10147482257E+02  0.52877362563E+02  0.83876456398E+02  0.00000000000E+00 0.  1.
         13    1    3    3    0    0 -0.93625587390E+02 -0.79559457484E+02  0.21200618619E+02  0.12467928504E+03  0.00000000000E+00 0. -1.
          2    1    1    2  501    0  0.27943768199E+02  0.90795278360E+01 -0.11948541327E+03  0.12304493485E+03  0.00000000000E+00 0. -1.
<scales pt_clust_5="13000.00000" pt_clust_6="13000.00000" pt_clust_7="13000.00000" pt_clust_8="13000.00000" pt_clust_9="29.38185"></scales>
<clustering>
<clus scale="   29.382">  1  9  2 -1</clus>
<clus scale="   80.907">  5  6 -1 -1</clus>
<clus scale="   90.802">  7  8 -1 -1</clus>
<clus scale="  183.381">  1  5  2 -1</clus>
<clus scale="   29.382">  1  5  2 -1</clus>
</clustering>
</event>
<event>
 9    1  0.5981539E-005  0.1329057E+03  0.7546771E-02  0.1225960E+00
         21   -1    0    0  501  502  0.00000000000E+00  0.00000000000E+00  0.20783866737E+03  0.20783866737E+03  0.00000000000E+00 0. -1.
          3   -1    0    0  502    0 -0.00000000000E+00 -0.00000000000E+00 -0.21151922362E+03  0.21151922362E+03  0.00000000000E+00 0. -1.
         23    2    1    2    0    0 -0.79313799389E+02  0.55779743652E+02 -0.16103456906E+03  0.20974487081E+03  0.93052242429E+02 0.  0.
        -24    2    1    2    0    0  0.73482430535E+02 -0.35931947849E+02  0.14455834424E+03  0.18528877313E+03  0.82122116901E+02 0.  0.
         13    1    4    4    0    0  0.40335047440E+02 -0.30668235502E+02  0.14297560581E+03  0.15168876220E+03  0.00000000000E+00 0. -1.
        -14    1    4    4    0    0  0.33147383095E+02 -0.52637123475E+01  0.15827384342E+01  0.33600010932E+02  0.00000000000E+00 0.  1.
        -13    1    3    3    0    0 -0.13672937907E+02  0.37257194582E+02 -0.56971641545E+01  0.40093708466E+02  0.00000000000E+00 0.  1.
         13    1    3    3    0    0 -0.65640861482E+02  0.18522549070E+02 -0.15533740491E+03  0.16965116234E+03  0.00000000000E+00 0. -1.
          4    1    1    2  501    0  0.58313688535E+01 -0.19847795803E+02  0.12795668570E+02  0.24324247061E+02  0.00000000000E+00 0. -1.
<scales pt_clust_5="13000.00000" pt_clust_6="13000.00000" pt_clust_7="13000.00000" pt_clust_8="13000.00000" pt_clust_9="20.68671"></scales>
<clustering>
<clus scale="   20.687">  1  9  2 -1</clus>
<clus scale="   82.122">  5  6 -1 -1</clus>
<clus scale="   93.052">  7  8 -1 -1</clus>
<clus scale="  125.496">  1  5  2 -1</clus>
<clus scale="   20.687">  1  5  2 -1</clus>
</clustering>
</event>
<event>
 9    1  0.5981539E-005  0.9915753E+02  0.7546771E-02  0.1287337E+00
          3   -1    0    0  502    0 -0.00000000000E+00  0.00000000000E+00  0.30599790349E+03  0.30599790349E+03  0.00000000000E+00 0. -1.
         21   -1    0    0  501  502  0.00000000000E+00 -0.00000000000E+00 -0.91689968592E+02  0.91689968592E+02  0.00000000000E+00 0.  1.
        -24    2    1    2    0    0 -0.96204239959E+01 -0.42137106839E+02  0.25714973616E+03  0.27276483256E+03  0.80041106568E+02 0.  0.
         23    2    1    2    0    0  0.10385861999E+02  0.17782232064E+02 -0.30687125173E+02  0.97692872948E+02  0.90432979974E+02 0.  0.
         13    1    3    3    0    0 -0.34992337089E+02 -0.31603728665E+02  0.22753953514E+03  0.23237362022E+03  0.00000000000E+00 0. -1.
        -14    1    3    3    0    0  0.25371913093E+02 -0.10533378174E+02  0.29610201022E+02  0.40391212340E+02  0.00000000000E+00 0.  1.
        -13    1    4    4    0    0  0.32671687888E+02  0.27952708774E+02  0.15258465290E+02  0.45624706906E+02  0.00000000000E+00 0. -1.
         13    1    4    4    0    0 -0.22285825889E+02 -0.10170476710E+02 -0.45945590462E+02  0.52068166042E+02  0.00000000000E+00 0.  1.
          4    1    1    2  501    0 -0.76543800349E+00  0.24354874775E+02 -0.12154676096E+02  0.27230166573E+02  0.00000000000E+00 0. -1.
<scales pt_clust_5="13000.00000" pt_clust_6="13000.00000" pt_clust_7="13000.00000" pt_clust_8="13000.00000" pt_clust_9="24.36690"></scales>
<clustering>
<clus scale="   24.367">  2  9  1 -1</clus>
<clus scale="   80.041">  5  6 -1 -1</clus>
<clus scale="   89.781">  1  5  2 -1</clus>
<clus scale="   90.433">  7  8 -1 -1</clus>
<clus scale="   24.367">  2  5  1 -1</clus>
</clustering>
</event>
<event>
 9    1  0.5981539E-005  0.1358339E+03  0.7546771E-02  0.1221324E+00
         21   -1    0    0  501  502  0.00000000000E+00  0.00000000000E+00  0.15034362349E+03  0.15034362349E+03  0.00000000000E+00 0. -1.
          1   -1    0    0  502    0 -0.00000000000E+00 -0.00000000000E+00 -0.25220134808E+03  0.25220134808E+03  0.00000000000E+00 0. -1.
         23    2    1    2    0    0 -0.10442714440E+03 -0.13684558119E+02 -0.11022172270E+03  0.18032465872E+03  0.96311259830E+02 0.  0.
        -24    2    1    2    0    0  0.76642182941E+02 -0.67870580590E+02 -0.73425350188E+01  0.13464211969E+03  0.87144406928E+02 0.  0.
         13    1    4    4    0    0  0.44301564422E+02 -0.86312281556E+02 -0.20563145890E+01  0.97039512505E+02  0.00000000000E+00 0. -1.
        -14    1    4    4    0    0  0.32340618519E+02  0.18441700966E+02 -0.52862204298E+01  0.37602607186E+02  0.00000000000E+00 0.  1.
        -13    1    3    3    0    0 -0.85199319866E+02 -0.39263838849E+02 -0.11451847468E+03  0.14803734052E+03  0.00000000000E+00 0. -1.
         13    1    3    3    0    0 -0.19227824535E+02  0.25579280729E+02  0.42967519784E+01  0.32287318199E+02  0.00000000000E+00 0.  1.
          2    1    1    2  501    0  0.27784961459E+02  0.81555138709E+02  0.15706533124E+02  0.87578193153E+02  0.00000000000E+00 0. -1.
<scales pt_clust_5="13000.00000" pt_clust_6="13000.00000" pt_clust_7="13000.00000" pt_clust_8="13000.00000" pt_clust_9="86.15825"></scales>
<clustering>
<clus scale="   86.158">  1  9  2 -1</clus>
<clus scale="   87.144">  5  6 -1 -1</clus>
<clus scale="   96.311">  7  8 -1 -1</clus>
<clus scale="  129.496">  1  5  2 -1</clus>
<clus scale="   86.158">  1  5  2 -1</clus>
</clustering>
</event>
<event>
 9    1  0.5981539E-005  0.3340640E+03  0.7546771E-02  0.1119899E+00
         21   -1    0    0  501  502  0.00000000000E+00  0.00000000000E+00  0.15381039344E+03  0.15381039344E+03  0.00000000000E+00 0. -1.
          1   -1    0    0  502    0 -0.00000000000E+00 -0.00000000000E+00 -0.94159758798E+03  0.94159758798E+03  0.00000000000E+00 0. -1.
        -24    2    1    2    0    0  0.41046341685E+02 -0.10133932818E+02 -0.59373870057E+02  0.10678490879E+03  0.78040127751E+02 0.  0.
         23    2    1    2    0    0  0.29599422637E+03  0.22079210503E+02 -0.47139688180E+03  0.56459891532E+03  0.91961086542E+02 0.  0.
         11    1    3    3    0    0 -0.68016305907E+01  0.26361641195E+02 -0.27459997953E+02  0.38668459923E+02  0.00000000000E+00 0. -1.
        -12    1    3    3    0    0  0.47847972276E+02 -0.36495574014E+02 -0.31913872103E+02  0.68116448866E+02  0.00000000000E+00 0.  1.
        -13    1    4    4    0    0  0.85643523239E+02  0.20170849393E+02 -0.21912096006E+03  0.23612638856E+03  0.00000000000E+00 0. -1.
         13    1    4    4    0    0  0.21035070313E+03  0.19083611100E+01 -0.25227592174E+03  0.32847252676E+03  0.00000000000E+00 0.  1.
          2    1    1    2  501    0 -0.33704056805E+03 -0.11945277685E+02 -0.25701644269E+03  0.42402415731E+03  0.00000000000E+00 0. -1.
<scales pt_clust_5="13000.00000" pt_clust_6="13000.00000" pt_clust_7="13000.00000" pt_clust_8="13000.00000" pt_clust_9="321.15711"></scales>
<clustering>
<clus scale="   78.040">  5  6 -1 -1</clus>
<clus scale="   88.757">  2  5  1 -1</clus>
<clus scale="   91.961">  7  8 -1 -1</clus>
<clus scale="  321.157">  1  9  2 -1</clus>
<clus scale="  321.157">  1  5  2 -1</clus>
</clustering>
</event>
<event>
 9    1  0.5981539E-005  0.1252631E+03  0.7546771E-02  0.1238073E+00
         21   -1    0    0  501  502  0.00000000000E+00  0.00000000000E+00  0.49406888805E+02  0.49406888805E+02  0.00000000000E+00 0. -1.
         -2   -1    0    0    0  501 -0.00000000000E+00 -0.00000000000E+00 -0.65387821158E+03  0.65387821158E+03  0.00000000000E+00 0.  1.
         23    2    1    2    0    0 -0.50742309072E+02 -0.72250842061E+02 -0.50603368225E+03  0.52181719984E+03  0.91804882048E+02 0.  0.
        -24    2    1    2    0    0  0.60289732186E+02  0.49747911717E+02 -0.10780129606E+03  0.15529132310E+03  0.79903498480E+02 0.  0.
         11    1    4    4    0    0  0.49178689795E+02 -0.85530573969E+01 -0.33148316089E+02  0.59920857640E+02  0.00000000000E+00 0. -1.
        -12    1    4    4    0    0  0.11111042391E+02  0.58300969114E+02 -0.74652979971E+02  0.95370465455E+02  0.00000000000E+00 0.  1.
        -11    1    3    3    0    0 -0.99875059729E+01  0.20112867613E+02 -0.51101100680E+02  0.55817561841E+02  0.00000000000E+00 0.  1.
         11    1    3    3    0    0 -0.40754803099E+02 -0.92363709674E+02 -0.45493258157E+03  0.46599963799E+03  0.00000000000E+00 0. -1.
         -1    1    1    2    0  502 -0.95474231140E+01  0.22502930344E+02  0.93636555328E+01  0.26176577452E+02  0.00000000000E+00 0.  1.
<scales pt_clust_5="13000.00000" pt_clust_6="13000.00000" pt_clust_7="13000.00000" pt_clust_8="13000.00000" pt_clust_9="24.44453"></scales>
<clustering>
<clus scale="   24.445">  1  9  2 -1</clus>
<clus scale="   79.903">  5  6 -1 -1</clus>
<clus scale="   91.805">  7  8 -1 -1</clus>
<clus scale="  116.822">  1  5  2 -1</clus>
<clus scale="   24.445">  1  5  2 -1</clus>
</clustering>
</event>
<event>
 9    1  0.5981539E-005  0.1005800E+03  0.7546771E-02  0.1283814E+00
          3   -1    0    0  502    0 -0.00000000000E+00  0.00000000000E+00  0.40839142477E+02  0.40839142477E+02  0.00000000000E+00 0. -1.
         21   -1    0    0  501  502  0.00000000000E+00 -0.00000000000E+00 -0.49233667460E+03  0.49233667460E+03  0.00000000000E+00 0.  1.
         23    2    1    2    0    0  0.10262777520E+02 -0.42300117466E+02 -0.10404802288E+03  0.14534974460E+03  0.91683873439E+02 0.  0.
        -24    2    1    2    0    0 -0.28888409830E+02  0.27638706262E+02 -0.35203072366E+03  0.36368360610E+03  0.82107835410E+02 0.  0.
         13    1    4    4    0    0 -0.54989075580E+02  0.28359950798E+02 -0.19756582548E+03  0.20702739104E+03  0.00000000000E+00 0. -1.
        -14    1    4    4    0    0  0.26100665750E+02 -0.72124453649E+00 -0.15446489818E+03  0.15665621506E+03  0.00000000000E+00 0.  1.
        -11    1    3    3    0    0 -0.16140270272E+02 -0.37524125610E+02 -0.31773818327E+01  0.40971503299E+02  0.00000000000E+00 0.  1.
         11    1    3    3    0    0  0.26403047792E+02 -0.47759918553E+01 -0.10087064105E+03  0.10437824130E+03  0.00000000000E+00 0. -1.
          4    1    1    2  501    0  0.18625632310E+02  0.14661411204E+02  0.45812144210E+01  0.24142466382E+02  0.00000000000E+00 0. -1.
<scales pt_clust_5="13000.00000" pt_clust_6="13000.00000" pt_clust_7="13000.00000" pt_clust_8="13000.00000" pt_clust_9="23.70383"></scales>
<clustering>
<clus scale="   23.704">  2  9  1 -1</clus>
<clus scale="   82.108">  5  6 -1 -1</clus>
<clus scale="   91.684">  7  8 -1 -1</clus>
<clus scale="   91.935">  2  5  1 -1</clus>
<clus scale="   23.704">  2  5  1 -1</clus>
</clustering>
</event>
<event>
 9    1  0.5981539E-005  0.1879392E+03  0.7546771E-02  0.1197355E+00
          1   -1    0    0  502    0 -0.00000000000E+00  0.00000000000E+00  0.92795241586E+03  0.92795241586E+03  0.00000000000E+00 0. -1.
         21   -1    0    0  501  502  0.00000000000E+00 -0.00000000000E+00 -0.71249866544E+02  0.71249866544E+02  0.00000000000E+00 0.  1.
        -24    2    1    2    0    0  0.71420471195E+01  0.11691500747E+01  0.16093414006E+03  0.18044656318E+03  0.81294458474E+02 0.  0.
         23    2    1    2    0    0  0.29451159080E+02 -0.15964818772E+03  0.12602629319E+03  0.22625192435E+03  0.94617081345E+02 0.  0.
         11    1    3    3    0    0  0.29380007043E+02  0.31953579662E+02  0.92589295163E+02  0.10225944282E+03  0.00000000000E+00 0. -1.
        -12    1    3    3    0    0 -0.22237959923E+02 -0.30784429588E+02  0.68344844896E+02  0.78187120361E+02  0.00000000000E+00 0.  1.
        -13    1    4    4    0    0  0.62223047838E+02 -0.85817446448E+02  0.59181300728E+02  0.12140332843E+03  0.00000000000E+00 0.  1.
         13    1    4    4    0    0 -0.32771888757E+02 -0.73830741276E+02  0.66844992457E+02  0.10484859592E+03  0.00000000000E+00 0. -1.
          2    1    1    2  501    0 -0.36593206200E+02  0.15847903765E+03  0.56974211607E+03  0.59250379487E+03  0.00000000000E+00 0. -1.
<scales pt_clust_5="13000.00000" pt_clust_6="13000.00000" pt_clust_7="13000.00000" pt_clust_8="13000.00000" pt_clust_9="162.38471"></scales>
<clustering>
<clus scale="   81.294">  5  6 -1 -1</clus>
<clus scale="   81.616">  1  5  2 -1</clus>
<clus scale="   94.617">  7  8 -1 -1</clus>
<clus scale="  162.385">  2  9  1 -1</clus>
<clus scale="  162.385">  2  5  1 -1</clus>
</clustering>
</event>
<event>
 9    1  0.5981539E-005  0.2712537E+03  0.7546771E-02  0.1101657E+00
         21   -1    0    0  501  502  0.00000000000E+00  0.00000000000E+00  0.21532737584E+03  0.21532737584E+03  0.00000000000E+00 0.  1.
          1   -1    0    0  502    0 -0.00000000000E+00 -0.00000000000E+00 -0.11136526705E+04  0.11136526705E+04  0.00000000000E+00 0. -1.
         23    2    1    2    0    0 -0.19877906810E+03  0.14872612522E+03 -0.22711721406E+02  0.26466484873E+03  0.88876777761E+02 0.  0.
        -24    2    1    2    0    0  0.25311938523E+03  0.13194339811E+03 -0.30087049652E+03  0.42239786987E+03  0.80115050438E+02 0.  0.
         13    1    4    4    0    0  0.18965367712E+03  0.12315229785E+03 -0.19474168125E+03  0.29842809540E+03  0.00000000000E+00 0. -1.
        -14    1    4    4    0    0  0.63465708113E+02  0.87911002643E+01 -0.10612881527E+03  0.12396977446E+03  0.00000000000E+00 0.  1.
        -13    1    3    3    0    0 -0.90028058302E+02  0.67029081826E+02  0.34028657970E+02  0.11728554325E+03  0.00000000000E+00 0. -1.
         13    1    3    3    0    0 -0.10875100980E+03  0.81697043396E+02 -0.56740379377E+02  0.14737930548E+03  0.00000000000E+00 0.  1.
          2    1    1    2  501    0 -0.54340317128E+02 -0.28066952333E+03 -0.57474307672E+03  0.64191732773E+03  0.00000000000E+00 0. -1.
<scales pt_clust_5="13000.00000" pt_clust_6="13000.00000" pt_clust_7="13000.00000" pt_clust_8="13000.00000" pt_clust_9="259.15290"></scales>
<clustering>
<clus scale="   80.115">  5  6 -1 -1</clus>
<clus scale="   88.877">  7  8 -1 -1</clus>
<clus scale="  263.689">  2  7  1 -1</clus>
<clus scale="  259.153">  1  9  2 -1</clus>
<clus scale="  259.153">  1  5  2 -1</clus>
</clustering>
</event>
<event>
 9    1  0.5981539E-005  0.2511688E+03  0.7546771E-02  0.1160415E+00
          1   -1    0    0  502    0 -0.00000000000E+00  0.00000000000E+00  0.19334544381E+04  0.19334544381E+04  0.00000000000E+00 0. -1.
         21   -1    0    0  501  502  0.00000000000E+00 -0.00000000000E+00 -0.42338614087E+02  0.42338614087E+02  0.00000000000E+00 0.  1.
        -24    2    1    2    0    0 -0.53665252864E+01 -0.11439488475E+02  0.19769017417E+03  0.21273770227E+03  0.77564576399E+02 0.  0.
         23    2    1    2    0    0  0.17625142975E+03  0.16197016277E+03  0.74849234884E+03  0.79106765565E+03  0.90820368992E+02 0.  0.
         13    1    3    3    0    0  0.15047138504E+02 -0.38556881557E+02  0.13798718253E+03  0.14406079284E+03  0.00000000000E+00 0. -1.
        -14    1    3    3    0    0 -0.20413663791E+02  0.27117393082E+02  0.59702991647E+02  0.68676909427E+02  0.00000000000E+00 0.  1.
        -13    1    4    4    0    0  0.14658970892E+03  0.14763224406E+03  0.71259160216E+03  0.74234130541E+03  0.00000000000E+00 0.  1.
         13    1    4    4    0    0  0.29661720825E+02  0.14337918708E+02  0.35900746676E+02  0.48726350233E+02  0.00000000000E+00 0. -1.
          2    1    1    2  501    0 -0.17088490446E+03 -0.15053067429E+03  0.94493330098E+03  0.97198769426E+03  0.00000000000E+00 0. -1.
<scales pt_clust_5="13000.00000" pt_clust_6="13000.00000" pt_clust_7="13000.00000" pt_clust_8="13000.00000" pt_clust_9="234.17401"></scales>
<clustering>
<clus scale="   77.565">  5  6 -1 -1</clus>
<clus scale="   78.587">  1  5  2 -1</clus>
<clus scale="   90.820">  7  8 -1 -1</clus>
<clus scale="  234.174">  2  9  1 -1</clus>
<clus scale="  234.174">  2  5  1 -1</clus>
</clustering>
</event>
<event>
 9    1  0.5981539E-005  0.1062046E+03  0.7546771E-02  0.1271676E+00
         21   -1    0    0  501  502  0.00000000000E+00  0.00000000000E+00  0.28146653620E+03  0.28146653620E+03  0.00000000000E+00 0. -1.
          1   -1    0    0  502    0 -0.00000000000E+00 -0.00000000000E+00 -0.51854855728E+02  0.51854855728E+02  0.00000000000E+00 0. -1.
        -24    2    1    2    0    0  0.26822039011E+01  0.67111240819E+02  0.70383679707E+02  0.12543633201E+03  0.79178899694E+02 0.  0.
         23    2    1    2    0    0  0.20657519226E+02 -0.45533576983E+02  0.11763281917E+03  0.15553529980E+03  0.88621157775E+02 0.  0.
         11    1    3    3    0    0 -0.53439000804E+01  0.52315214854E+02 -0.49146105959E+00  0.52589737661E+02  0.00000000000E+00 0. -1.
        -12    1    3    3    0    0  0.80261039815E+01  0.14796025965E+02  0.70875140767E+02  0.72846594349E+02  0.00000000000E+00 0.  1.
        -11    1    4    4    0    0  0.40932622956E+01 -0.30647842974E+02 -0.46265281514E+01  0.31264194183E+02  0.00000000000E+00 0.  1.
         11    1    4    4    0    0  0.16564256930E+02 -0.14885734009E+02  0.12225934732E+03  0.12427110562E+03  0.00000000000E+00 0. -1.
          2    1    1    2  501    0 -0.23339723127E+02 -0.21577663835E+02  0.41595181596E+02  0.52349760117E+02  0.00000000000E+00 0. -1.
<scales pt_clust_5="13000.00000" pt_clust_6="13000.00000" pt_clust_7="13000.00000" pt_clust_8="13000.00000" pt_clust_9="31.78582"></scales>
<clustering>
<clus scale="   31.786">  1  9  2 -1</clus>
<clus scale="   79.179">  5  6 -1 -1</clus>
<clus scale="   88.621">  7  8 -1 -1</clus>
<clus scale="   98.463">  2  5  1 -1</clus>
<clus scale="   31.786">  1  5  2 -1</clus>
</clustering>
</event>
<event>
 9    1  0.5981539E-005  0.2220272E+03  0.7546771E-02  0.1133088E+00
         21   -1    0    0  501  502  0.00000000000E+00  0.00000000000E+00  0.14719375827E+03  0.14719375827E+03  0.00000000000E+00 0.  1.
          1   -1    0    0  502    0 -0.00000000000E+00 -0.00000000000E+00 -0.47698502837E+03  0.47698502837E+03  0.00000000000E+00 0. -1.
        -24    2    1    2    0    0  0.19452185036E+03 -0.44318510434E+02 -0.29435190724E+03  0.36445453544E+03  0.79882303875E+02 0.  0.
         23    2    1    2    0    0 -0.21157994569E+03  0.28690883440E+02 -0.42618414012E+02  0.23550153217E+03  0.89751892650E+02 0.  0.
         11    1    3    3    0    0  0.11253176923E+03 -0.29302093819E+02 -0.23478599274E+03  0.26200472167E+03  0.00000000000E+00 0. -1.
        -12    1    3    3    0    0  0.81990081136E+02 -0.15016416615E+02 -0.59565914499E+02  0.10244981378E+03  0.00000000000E+00 0.  1.
        -13    1    4    4    0    0 -0.11539250447E+03  0.58980660183E+02 -0.12176631910E+02  0.13016304671E+03  0.00000000000E+00 0. -1.
         13    1    4    4    0    0 -0.96187441216E+02 -0.30289776743E+02 -0.30441782102E+02  0.10533848547E+03  0.00000000000E+00 0.  1.
          2    1    1    2  501    0  0.17058095324E+02  0.15627626994E+02  0.71790511449E+01  0.24222719023E+02  0.00000000000E+00 0. -1.
<scales pt_clust_5="13000.00000" pt_clust_6="13000.00000" pt_clust_7="13000.00000" pt_clust_8="13000.00000" pt_clust_9="23.13442"></scales>
<clustering>
<clus scale="   23.134">  1  9  2 -1</clus>
<clus scale="   79.882">  5  6 -1 -1</clus>
<clus scale="   89.752">  7  8 -1 -1</clus>
<clus scale="  218.224">  2  5  1 -1</clus>
<clus scale="   23.134">  1  5  2 -1</clus>
</clustering>
</event>
<event>
 9    1  0.5981539E-005  0.9489434E+02  0.7546771E-02  0.1296800E+00
         -2   -1    0    0    0  501 -0.00000000000E+00  0.00000000000E+00  0.29326755975E+03  0.29326755975E+03  0.00000000000E+00 0.  1.
         21   -1    0    0  501  502  0.00000000000E+00 -0.00000000000E+00 -0.17858557805E+03  0.17858557805E+03  0.00000000000E+00 0. -1.
         23    2    1    2    0    0  0.31550643568E+02 -0.52564159973E+00  0.25898981722E+03  0.27585552673E+03  0.89581397576E+02 0.  0.
        -24    2    1    2    0    0 -0.25402056003E+02  0.36897762372E+02 -0.12306369570E+03  0.15342943311E+03  0.79932524214E+02 0.  0.
         11    1    4    4    0    0  0.23635199896E+01  0.50514388530E+02 -0.39010694256E+02  0.63868019710E+02  0.00000000000E+00 0. -1.
        -12    1    4    4    0    0 -0.27765575992E+02 -0.13616626158E+02 -0.84053001441E+02  0.89561413395E+02  0.00000000000E+00 0.  1.
        -11    1    3    3    0    0  0.42716699044E+02 -0.23190287027E+02  0.23827894917E+03  0.24318586186E+03  0.00000000000E+00 0.  1.
         11    1    3    3    0    0 -0.11166055477E+02  0.22664645427E+02  0.20710868057E+02  0.32669664873E+02  0.00000000000E+00 0. -1.
         -1    1    1    2    0  502 -0.61485875649E+01 -0.36372120772E+02 -0.21244139831E+02  0.42568177970E+02  0.00000000000E+00 0.  1.
<scales pt_clust_5="13000.00000" pt_clust_6="13000.00000" pt_clust_7="13000.00000" pt_clust_8="13000.00000" pt_clust_9="36.88816"></scales>
<clustering>
<clus scale="   36.888">  2  9  1 -1</clus>
<clus scale="   79.933">  5  6 -1 -1</clus>
<clus scale="   85.845">  2  5  1 -1</clus>
<clus scale="   89.581">  7  8 -1 -1</clus>
<clus scale="   36.888">  2  5  1 -1</clus>
</clustering>
</event>
<event>
 9    1  0.5981539E-005  0.1316629E+03  0.7546771E-02  0.1227844E+00
         -4   -1    0    0    0  501 -0.00000000000E+00  0.00000000000E+00  0.14497479288E+03  0.14497479288E+03  0.00000000000E+00 0.  1.
         21   -1    0    0  501  502  0.00000000000E+00 -0.00000000000E+00 -0.16414042031E+03  0.16414042031E+03  0.00000000000E+00 0. -1.
        -24    2    1    2    0    0 -0.96927762995E+02 -0.27527206461E+02  0.57007562704E+02  0.14141809902E+03  0.81218705915E+02 0.  0.
         23    2    1    2    0    0  0.76458915868E+02  0.22217433258E+02 -0.44839424334E+02  0.12989536457E+03  0.92318208420E+02 0.  0.
         11    1    3    3    0    0 -0.79879755705E+02 -0.51933166674E+02  0.58158261421E+02  0.11162532214E+03  0.00000000000E+00 0. -1.
        -12    1    3    3    0    0 -0.17048007290E+02  0.24405960213E+02 -0.11506987166E+01  0.29792776877E+02  0.00000000000E+00 0.  1.
        -11    1    4    4    0    0  0.41654707892E+02  0.58200726533E+02 -0.30683352895E+02  0.77871094788E+02  0.00000000000E+00 0.  1.
         11    1    4    4    0    0  0.34804207976E+02 -0.35983293275E+02 -0.14156071439E+02  0.52024269782E+02  0.00000000000E+00 0. -1.
         -3    1    1    2    0  502  0.20468847127E+02  0.53097732029E+01 -0.31333765798E+02  0.37801749605E+02  0.00000000000E+00 0.  1.
<scales pt_clust_5="13000.00000" pt_clust_6="13000.00000" pt_clust_7="13000.00000" pt_clust_8="13000.00000" pt_clust_9="21.14633"></scales>
<clustering>
<clus scale="   21.146">  2  9  1 -1</clus>
<clus scale="   81.219">  5  6 -1 -1</clus>
<clus scale="   92.318">  7  8 -1 -1</clus>
<clus scale="  124.133">  1  5  2 -1</clus>
<clus scale="   21.146">  2  5  1 -1</clus>
</clustering>
</event>
<event>
 9    1  0.5981539E-005  0.1125873E+03  0.7546771E-02  0.1258891E+00
          3   -1    0    0  502    0 -0.00000000000E+00  0.00000000000E+00  0.18416385997E+03  0.18416385997E+03  0.00000000000E+00 0. -1.
         21   -1    0    0  501  502  0.00000000000E+00 -0.00000000000E+00 -0.17970974210E+03  0.17970974210E+03  0.00000000000E+00 0. -1.
         23    2    1    2    0    0 -0.54887276471E+02  0.57384127407E+02  0.99197149762E+02  0.15702186415E+03  0.92250962618E+02 0.  0.
        -24    2    1    2    0    0  0.19284334117E+01 -0.45546977800E+01 -0.10129001202E+03  0.13176212051E+03  0.84125654456E+02 0.  0.
         11    1    4    4    0    0  0.29223095307E+02  0.28764256705E+02 -0.44928618562E+02  0.60827235093E+02  0.00000000000E+00 0. -1.
        -12    1    4    4    0    0 -0.27294661895E+02 -0.33318954485E+02 -0.56361393461E+02  0.70934885415E+02  0.00000000000E+00 0.  1.
        -13    1    3    3    0    0 -0.10870651746E+02  0.73751502833E+02  0.65316574769E+02  0.99114631508E+02  0.00000000000E+00 0.  1.
         13    1    3    3    0    0 -0.44016624725E+02 -0.16367375426E+02  0.33880574993E+02  0.57907232643E+02  0.00000000000E+00 0. -1.
          4    1    1    2  501    0  0.52958843059E+02 -0.52829429627E+02  0.65469801312E+01  0.75089617403E+02  0.00000000000E+00 0. -1.
<scales pt_clust_5="13000.00000" pt_clust_6="13000.00000" pt_clust_7="13000.00000" pt_clust_8="13000.00000" pt_clust_9="74.80370"></scales>
<clustering>
<clus scale="   74.804">  2  9  1 -1</clus>
<clus scale="   84.126">  5  6 -1 -1</clus>
<clus scale="   92.251">  7  8 -1 -1</clus>
<clus scale="  106.032">  2  5  1 -1</clus>
<clus scale="   74.804">  2  5  1 -1</clus>
</clustering>
</event>
<event>
 9    1  0.5981539E-005  0.1229691E+03  0.7546771E-02  0.1241341E+00
          1   -1    0    0  502    0 -0.00000000000E+00  0.00000000000E+00  0.41658427603E+03  0.41658427603E+03  0.00000000000E+00 0. -1.
         21   -1    0    0  501  502  0.00000000000E+00 -0.00000000000E+00 -0.75445094666E+02  0.75445094666E+02  0.00000000000E+00 0. -1.
         23    2    1    2    0    0 -0.39057240843E+02 -0.88908110098E+02  0.16378836486E+03  0.21067669356E+03  0.90154981253E+02 0.  0.
        -24    2    1    2    0    0  0.39553323552E+02  0.42415331395E+02  0.61249507756E+00  0.98600771996E+02  0.79738393178E+02 0.  0.
         13    1    4    4    0    0 -0.21254700303E+02  0.16555894471E+02 -0.14813703740E+02  0.30745824842E+02  0.00000000000E+00 0. -1.
        -14    1    4    4    0    0  0.60808023856E+02  0.25859436924E+02  0.15426198818E+02  0.67854947154E+02  0.00000000000E+00 0.  1.
        -11    1    3    3    0    0 -0.15463680945E+02  0.17453308803E+02  0.24216380099E+02  0.33618097532E+02  0.00000000000E+00 0.  1.
         11    1    3    3    0    0 -0.23593559898E+02 -0.10636141890E+03  0.13957198476E+03  0.17705859603E+03  0.00000000000E+00 0. -1.
          2    1    1    2  501    0 -0.49608270906E+00  0.46492778703E+02  0.17673832143E+03  0.18275190513E+03  0.00000000000E+00 0. -1.
<scales pt_clust_5="13000.00000" pt_clust_6="13000.00000" pt_clust_7="13000.00000" pt_clust_8="13000.00000" pt_clust_9="46.49545"></scales>
<clustering>
<clus scale="   46.495">  2  9  1 -1</clus>
<clus scale="   79.738">  5  6 -1 -1</clus>
<clus scale="   90.155">  7  8 -1 -1</clus>
<clus scale="  115.550">  2  5  1 -1</clus>
<clus scale="   46.495">  2  5  1 -1</clus>
</clustering>
</event>
<event>
 9    1  0.5981539E-005  0.1086886E+03  0.7546771E-02  0.1267571E+00
          1   -1    0    0  502    0 -0.00000000000E+00  0.00000000000E+00  0.52323184505E+03  0.52323184505E+03  0.00000000000E+00 0. -1.
         21   -1    0    0  501  502  0.00000000000E+00 -0.00000000000E+00 -0.48943004908E+02  0.48943004908E+02  0.00000000000E+00 0.  1.
         23    2    1    2    0    0 -0.46156635935E+02 -0.36907622165E+02  0.42930637675E+03  0.44307782643E+03  0.92311361888E+02 0.  0.
        -24    2    1    2    0    0  0.24217223747E+02  0.46902207417E+02  0.35317022573E+02  0.10312299251E+03  0.81245113787E+02 0.  0.
         13    1    4    4    0    0  0.28834276685E+02  0.36551212956E+02  0.60011029418E+02  0.75952158181E+02  0.00000000000E+00 0. -1.
        -14    1    4    4    0    0 -0.46170529372E+01  0.10350994461E+02 -0.24694006844E+02  0.27170834330E+02  0.00000000000E+00 0.  1.
        -11    1    3    3    0    0  0.28230599171E+02 -0.50324388328E+01  0.11395315770E+03  0.11750580548E+03  0.00000000000E+00 0.  1.
         11    1    3    3    0    0 -0.74387235105E+02 -0.31875183333E+02  0.31535321905E+03  0.32557202095E+03  0.00000000000E+00 0. -1.
          2    1    1    2  501    0  0.21939412187E+02 -0.99945852515E+01  0.96654408179E+01  0.25974031025E+02  0.00000000000E+00 0. -1.
<scales pt_clust_5="13000.00000" pt_clust_6="13000.00000" pt_clust_7="13000.00000" pt_clust_8="13000.00000" pt_clust_9="24.10870"></scales>
<clustering>
<clus scale="   24.109">  2  9  1 -1</clus>
<clus scale="   81.245">  5  6 -1 -1</clus>
<clus scale="   92.311">  7  8 -1 -1</clus>
<clus scale="   99.461">  2  5  1 -1</clus>
<clus scale="   24.109">  2  5  1 -1</clus>
</clustering>
</event>
<event>
 9    1  0.5981539E-005  0.1210487E+03  0.7546771E-02  0.1244959E+00
          1   -1    0    0  502    0 -0.00000000000E+00  0.00000000000E+00  0.53494156607E+03  0.53494156607E+03  0.00000000000E+00 0. -1.
         21   -1    0    0  501  502  0.00000000000E+00 -0.00000000000E+00 -0.32628627171E+02  0.32628627171E+02  0.00000000000E+00 0. -1.
        -24    2    1    2    0    0  0.24505199190E+02  0.68202904157E+02  0.21957435445E+03  0.24455280903E+03  0.79630637021E+02 0.  0.
         23    2    1    2    0    0 -0.14199183903E+02 -0.87336729297E+02  0.26846669129E+03  0.29701730440E+03  0.91189877024E+02 0.  0.
         13    1    3    3    0    0  0.49746853038E+02  0.22057923357E+02  0.12510972125E+03  0.13643219459E+03  0.00000000000E+00 0. -1.
        -14    1    3    3    0    0 -0.25241653848E+02  0.46144980800E+02  0.94464633204E+02  0.10812061445E+03  0.00000000000E+00 0.  1.
        -13    1    4    4    0    0 -0.27826879835E+02 -0.39271131839E+02  0.38353355390E+02  0.61542967973E+02  0.00000000000E+00 0.  1.
         13    1    4    4    0    0  0.13627695932E+02 -0.48065597458E+02  0.23011333590E+03  0.23547433643E+03  0.00000000000E+00 0. -1.
          2    1    1    2  501    0 -0.10306015287E+02  0.19133825140E+02  0.14271893156E+02  0.26000079804E+02  0.00000000000E+00 0. -1.
<scales pt_clust_5="13000.00000" pt_clust_6="13000.00000" pt_clust_7="13000.00000" pt_clust_8="13000.00000" pt_clust_9="21.73286"></scales>
<clustering>
<clus scale="   21.733">  2  9  1 -1</clus>
<clus scale="   79.631">  5  6 -1 -1</clus>
<clus scale="   91.190">  7  8 -1 -1</clus>
<clus scale="  112.598">  1  5  2 -1</clus>
<clus scale="   21.733">  2  5  1 -1</clus>
</clustering>
</event>
<event>
 9    1  0.5981539E-005  0.1334802E+03  0.7546771E-02  0.1225047E+00
          3   -1    0    0  502    0 -0.00000000000E+00  0.00000000000E+00  0.13934213958E+03  0.13934213958E+03  0.00000000000E+00 0. -1.
         21   -1    0    0  501  502  0.00000000000E+00 -0.00000000000E+00 -0.25413270079E+03  0.25413270079E+03  0.00000000000E+00 0. -1.
         23    2    1    2    0    0 -0.18291653070E+02  0.11049903128E+03  0.29163457439E+02  0.14760015524E+03  0.91600644596E+02 0.  0.
        -24    2    1    2    0    0  0.50960112609E+02 -0.47430242502E+02 -0.13832023900E+03  0.17462414239E+03  0.80712710317E+02 0.  0.
         11    1    4    4    0    0  0.71300889308E+02 -0.48389016899E+02 -0.10963383693E+03  0.13944494244E+03  0.00000000000E+00 0. -1.
        -12    1    4    4    0    0 -0.20340776700E+02  0.95877439702E+00 -0.28686402070E+02  0.35179199946E+02  0.00000000000E+00 0.  1.
        -13    1    3    3    0    0 -0.34164061569E+02  0.10424185571E+02 -0.12779771196E+02  0.37936384903E+02  0.00000000000E+00 0.  1.
         13    1    3    3    0    0  0.15872408500E+02  0.10007484571E+03  0.41943228635E+02  0.10966377034E+03  0.00000000000E+00 0. -1.
          4    1    1    2  501    0 -0.32668459539E+02 -0.63068788782E+02 -0.56337796511E+01  0.71250542737E+02  0.00000000000E+00 0. -1.
<scales pt_clust_5="13000.00000" pt_clust_6="13000.00000" pt_clust_7="13000.00000" pt_clust_8="13000.00000" pt_clust_9="71.02750"></scales>
<clustering>
<clus scale="   71.027">  2  9  1 -1</clus>
<clus scale="   80.713">  5  6 -1 -1</clus>
<clus scale="   91.601">  7  8 -1 -1</clus>
<clus scale="  126.257">  2  5  1 -1</clus>
<clus scale="   71.027">  2  5  1 -1</clus>
</clustering>
</event>
<event>
 9    1  0.5981539E-005  0.1767627E+03  0.7546771E-02  0.1172431E+00
          1   -1    0    0  502    0 -0.00000000000E+00  0.00000000000E+00  0.10908873072E+04  0.10908873072E+04  0.00000000000E+00 0. -1.
         21   -1    0    0  501  502  0.00000000000E+00 -0.00000000000E+00 -0.66181681295E+02  0.66181681295E+02  0.00000000000E+00 0.  1.
         23    2    1    2    0    0  0.76838163848E+02  0.91419570048E+02  0.30351661450E+03  0.33837210839E+03  0.90065016759E+02 0.  0.
        -24    2    1    2    0    0 -0.16285045283E+03 -0.16225864822E+03  0.31623470203E+03  0.39869178308E+03  0.78119217956E+02 0.  0.
         11    1    4    4    0    0 -0.78951677407E+02 -0.10533681823E+03  0.23257481878E+03  0.26724569027E+03  0.00000000000E+00 0. -1.
        -12    1    4    4    0    0 -0.83898775426E+02 -0.56921829990E+02  0.83659883254E+02  0.13144609280E+03  0.00000000000E+00 0.  1.
        -11    1    3    3    0    0  0.80308590606E+02  0.43992469010E+02  0.25268332134E+03  0.26876321910E+03  0.00000000000E+00 0. -1.
         11    1    3    3    0    0 -0.34704267579E+01  0.47427101038E+02  0.50833293162E+02  0.69608889292E+02  0.00000000000E+00 0.  1.
          2    1    1    2  501    0  0.86012288985E+02  0.70839078176E+02  0.40495430941E+03  0.42000509706E+03  0.00000000000E+00 0. -1.
<scales pt_clust_5="13000.00000" pt_clust_6="13000.00000" pt_clust_7="13000.00000" pt_clust_8="13000.00000" pt_clust_9="111.42846"></scales>
<clustering>
<clus scale="   78.119">  5  6 -1 -1</clus>
<clus scale="   90.065">  7  8 -1 -1</clus>
<clus scale="  111.428">  2  9  1 -1</clus>
<clus scale="  170.985">  2  5  1 -1</clus>
<clus scale="  111.428">  2  5  1 -1</clus>
</clustering>
</event>
<event>
 9    1  0.5981539E-005  0.2853813E+03  0.7546771E-02  0.1093589E+00
          1   -1    0    0  502    0 -0.00000000000E+00  0.00000000000E+00  0.32290144998E+03  0.32290144998E+03  0.00000000000E+00 0. -1.
         21   -1    0    0  501  502  0.00000000000E+00 -0.00000000000E+00 -0.34114501861E+03  0.34114501861E+03  0.00000000000E+00 0. -1.
        -24    2    1    2    0    0 -0.17004535132E+03 -0.19676549212E+03  0.56174140449E+02  0.27404824941E+03  0.65687354622E+02 0.  0.
         23    2    1    2    0    0  0.18571275965E+03  0.22995997780E+03 -0.12055664878E+03  0.33103939185E+03  0.87649032562E+02 0.  0.
         11    1    3    3    0    0 -0.14095318851E+03 -0.13356599009E+03  0.18856511458E+02  0.19509803455E+03  0.00000000000E+00 0. -1.
        -12    1    3    3    0    0 -0.29092162801E+02 -0.63199502022E+02  0.37317628990E+02  0.78950214855E+02  0.00000000000E+00 0.  1.
        -11    1    4    4    0    0  0.42156955984E+02  0.11363885372E+03 -0.28056187231E+02  0.12441120390E+03  0.00000000000E+00 0.  1.
         11    1    4    4    0    0  0.14355580366E+03  0.11632112408E+03 -0.92500461553E+02  0.20662818796E+03  0.00000000000E+00 0. -1.
          2    1    1    2  501    0 -0.15667408330E+02 -0.33194485680E+02  0.46138939699E+02  0.58958827328E+02  0.00000000000E+00 0. -1.
<scales pt_clust_5="13000.00000" pt_clust_6="13000.00000" pt_clust_7="13000.00000" pt_clust_8="13000.00000" pt_clust_9="36.70617"></scales>
<clustering>
<clus scale="   36.706">  2  9  1 -1</clus>
<clus scale="   65.687">  5  6 -1 -1</clus>
<clus scale="   87.649">  7  8 -1 -1</clus>
<clus scale="  279.419">  1  5  2 -1</clus>
<clus scale="   36.706">  2  5  1 -1</clus>
</clustering>
</event>
<event>
 9    1  0.5981539E-005  0.9474447E+02  0.7546771E-02  0.1296777E+00
         -2   -1    0    0    0  501 -0.00000000000E+00  0.00000000000E+00  0.79931367615E+02  0.79931367615E+02  0.00000000000E+00 0.  1.
         21   -1    0    0  501  502  0.00000000000E+00 -0.00000000000E+00 -0.34902893126E+03  0.34902893126E+03  0.00000000000E+00 0.  1.
        -24    2    1    2    0    0  0.54492315996E+01  0.27012748492E+02  0.88453862152E+01  0.87111992091E+02  0.82163712201E+02 0.  0.
         23    2    1    2    0    0  0.57418843314E+02 -0.15290057321E+02 -0.83201329830E+02  0.13687485752E+03  0.91003054426E+02 0.  0.
         13    1    3    3    0    0 -0.33305243649E+02  0.13183775853E+02 -0.15798251525E+02  0.39148894640E+02  0.00000000000E+00 0. -1.
        -14    1    3    3    0    0  0.38754475249E+02  0.13828972639E+02  0.24643637740E+02  0.47963097451E+02  0.00000000000E+00 0.  1.
        -11    1    4    4    0    0  0.26463129896E+02 -0.20107557241E+02  0.13010079971E+02  0.35691361461E+02  0.00000000000E+00 0. -1.
         11    1    4    4    0    0  0.30955713418E+02  0.48174999199E+01 -0.96211409800E+02  0.10118349606E+03  0.00000000000E+00 0.  1.
         -1    1    1    2    0  502 -0.62868074914E+02 -0.11722691171E+02 -0.19474162003E+03  0.20497344926E+03  0.00000000000E+00 0.  1.
<scales pt_clust_5="13000.00000" pt_clust_6="13000.00000" pt_clust_7="13000.00000" pt_clust_8="13000.00000" pt_clust_9="63.95167"></scales>
<clustering>
<clus scale="   63.952">  2  9  1 -1</clus>
<clus scale="   82.164">  5  6 -1 -1</clus>
<clus scale="   86.289">  1  5  2 -1</clus>
<clus scale="   91.003">  7  8 -1 -1</clus>
<clus scale="   63.952">  2  5  1 -1</clus>
</clustering>
</event>
<event>
 9    1  0.5981539E-005  0.4120360E+03  0.7546771E-02  0.1039690E+00
          1   -1    0    0  502    0 -0.00000000000E+00  0.00000000000E+00  0.13170312892E+04  0.13170312892E+04  0.00000000000E+00 0. -1.
         21   -1    0    0  501  502  0.00000000000E+00 -0.00000000000E+00 -0.13002285231E+03  0.13002285231E+03  0.00000000000E+00 0. -1.
        -24    2    1    2    0    0 -0.78945752747E+02 -0.22389568913E+03  0.70256723320E+03  0.74598889935E+03  0.80851773652E+02 0.  0.
         23    2    1    2    0    0 -0.48003946923E+02 -0.10181839254E+03  0.21451205251E+03  0.25940062292E+03  0.92746420531E+02 0.  0.
         13    1    3    3    0    0  0.77329628111E+01 -0.37010452850E+02  0.18706125370E+03  0.19084413790E+03  0.00000000000E+00 0. -1.
        -14    1    3    3    0    0 -0.86678715558E+02 -0.18688523628E+03  0.51550597950E+03  0.55514476145E+03  0.00000000000E+00 0.  1.
        -11    1    4    4    0    0  0.25933590661E+02 -0.44766416715E+02  0.64375116281E+02  0.82587764144E+02  0.00000000000E+00 0.  1.
         11    1    4    4    0    0 -0.73937537584E+02 -0.57051975825E+02  0.15013693623E+03  0.17681285878E+03  0.00000000000E+00 0. -1.
          2    1    1    2  501    0  0.12694969967E+03  0.32571408167E+03  0.26992915123E+03  0.44166461928E+03  0.00000000000E+00 0. -1.
<scales pt_clust_5="13000.00000" pt_clust_6="13000.00000" pt_clust_7="13000.00000" pt_clust_8="13000.00000" pt_clust_9="349.57959"></scales>
<clustering>
<clus scale="   80.852">  5  6 -1 -1</clus>
<clus scale="   92.746">  7  8 -1 -1</clus>
<clus scale="  115.832">  5  7 -1 -1</clus>
<clus scale="  349.580">  2  9  1 -1</clus>
<clus scale="  349.580">  2  5  1 -1</clus>
</clustering>
</event>
<event>
 9    1  0.5981539E-005  0.1247775E+03  0.7546771E-02  0.1236972E+00
         21   -1    0    0  501  502  0.00000000000E+00  0.00000000000E+00  0.69793392316E+03  0.69793392316E+03  0.00000000000E+00 0. -1.
         -4   -1    0    0    0  501 -0.00000000000E+00 -0.00000000000E+00 -0.77057597048E+02  0.77057597048E+02  0.00000000000E+00 0.  1.
         23    2    1    2    0    0 -0.48553919951E+02  0.74775768910E+02 -0.82528470846E+01  0.12416054438E+03  0.86016466668E+02 0.  0.
        -24    2    1    2    0    0  0.79491944818E+02 -0.67047728682E+02  0.44582178571E+03  0.46477054936E+03  0.80251054374E+02 0.  0.
         13    1    4    4    0    0  0.68087685318E+02 -0.29656420956E+02  0.38754579898E+03  0.39459749430E+03  0.00000000000E+00 0. -1.
        -14    1    4    4    0    0  0.11404259501E+02 -0.37391307725E+02  0.58275986727E+02  0.70173055065E+02  0.00000000000E+00 0.  1.
        -11    1    3    3    0    0 -0.64000843851E+01  0.80292221672E+02  0.14256459468E+01  0.80559508486E+02  0.00000000000E+00 0.  1.
         11    1    3    3    0    0 -0.42153835565E+02 -0.55164527623E+01 -0.96784930314E+01  0.43601035897E+02  0.00000000000E+00 0. -1.
         -3    1    1    2    0  502 -0.30938024867E+02 -0.77280402282E+01  0.18330738748E+03  0.18606042646E+03  0.00000000000E+00 0.  1.
<scales pt_clust_5="13000.00000" pt_clust_6="13000.00000" pt_clust_7="13000.00000" pt_clust_8="13000.00000" pt_clust_9="31.88862"></scales>
<clustering>
<clus scale="   31.889">  1  9  2 -1</clus>
<clus scale="   80.251">  5  6 -1 -1</clus>
<clus scale="   86.016">  7  8 -1 -1</clus>
<clus scale="  120.875">  1  5  2 -1</clus>
<clus scale="   31.889">  1  5  2 -1</clus>
</clustering>
</event>
<event>
 9    1  0.5981539E-005  0.1443206E+03  0.7546771E-02  0.1231942E+00
         21   -1    0    0  501  502  0.00000000000E+00  0.00000000000E+00  0.21367711101E+03  0.21367711101E+03  0.00000000000E+00 0. -1.
         -2   -1    0    0    0  501 -0.00000000000E+00 -0.00000000000E+00 -0.67878642051E+03  0.67878642051E+03  0.00000000000E+00 0.  1.
        -24    2    1    2    0    0 -0.27671512369E+02 -0.15577602685E+02 -0.59368366867E+03  0.59996721882E+03  0.80572891922E+02 0.  0.
         23    2    1    2    0    0  0.10113289586E+03  0.83293421350E+02  0.61990748050E+02  0.17243222885E+03  0.93404304168E+02 0.  0.
         11    1    3    3    0    0  0.21340315680E+02 -0.24705558694E+02 -0.15122376182E+03  0.15470746537E+03  0.00000000000E+00 0. -1.
        -12    1    3    3    0    0 -0.49011828049E+02  0.91279560084E+01 -0.44245990685E+03  0.44525975345E+03  0.00000000000E+00 0.  1.
        -13    1    4    4    0    0 -0.13514953114E+02  0.25253028372E+02 -0.23196500190E+01  0.28735869150E+02  0.00000000000E+00 0.  1.
         13    1    4    4    0    0  0.11464784897E+03  0.58040392978E+02  0.64310398069E+02  0.14369635970E+03  0.00000000000E+00 0. -1.
         -1    1    1    2    0  502 -0.73461383488E+02 -0.67715818665E+02  0.66583611121E+02  0.12006408385E+03  0.00000000000E+00 0.  1.
<scales pt_clust_5="13000.00000" pt_clust_6="13000.00000" pt_clust_7="13000.00000" pt_clust_8="13000.00000" pt_clust_9="110.01845"></scales>
<clustering>
<clus scale="   80.573">  5  6 -1 -1</clus>
<clus scale="   86.605">  2  5  1 -1</clus>
<clus scale="   93.404">  7  8 -1 -1</clus>
<clus scale="  110.018">  1  9  2 -1</clus>
<clus scale="  110.018">  1  5  2 -1</clus>
</clustering>
</event>
<event>
 9    1  0.5981539E-005  0.1333252E+03  0.7546771E-02  0.1225187E+00
         21   -1    0    0  501  502  0.00000000000E+00  0.00000000000E+00  0.47749383306E+03  0.47749383306E+03  0.00000000000E+00 0.  1.
         -2   -1    0    0    0  501 -0.00000000000E+00 -0.00000000000E+00 -0.71734786327E+02  0.71734786327E+02  0.00000000000E+00 0.  1.
         23    2    1    2    0    0  0.62127155500E+02  0.95165427243E+02  0.50718183990E+02  0.15331464059E+03  0.89536600560E+02 0.  0.
        -24    2    1    2    0    0 -0.35527376483E+02 -0.66890682666E+02  0.14097669463E+03  0.17835829053E+03  0.78744482131E+02 0.  0.
         11    1    4    4    0    0 -0.50403741938E+02 -0.73484645761E+02  0.98265347324E+02  0.13265221012E+03  0.00000000000E+00 0. -1.
        -12    1    4    4    0    0  0.14876365456E+02  0.65939630952E+01  0.42711347303E+02  0.45706080415E+02  0.00000000000E+00 0.  1.
        -11    1    3    3    0    0  0.33935023555E+02  0.10152594439E+03  0.16152972664E+02  0.10825904920E+03  0.00000000000E+00 0.  1.
         11    1    3    3    0    0  0.28192131945E+02 -0.63605171432E+01  0.34565211326E+02  0.45055591395E+02  0.00000000000E+00 0. -1.
         -1    1    1    2    0  502 -0.26599779017E+02 -0.28274744577E+02  0.21406416812E+03  0.21755568827E+03  0.00000000000E+00 0.  1.
<scales pt_clust_5="13000.00000" pt_clust_6="13000.00000" pt_clust_7="13000.00000" pt_clust_8="13000.00000" pt_clust_9="38.82022"></scales>
<clustering>
<clus scale="   38.820">  1  9  2 -1</clus>
<clus scale="   78.744">  5  6 -1 -1</clus>
<clus scale="   89.537">  7  8 -1 -1</clus>
<clus scale="  126.331">  1  5  2 -1</clus>
<clus scale="   38.820">  1  5  2 -1</clus>
</clustering>
</event>
<event>
 9    1  0.5981539E-005  0.2179170E+03  0.7546771E-02  0.1136122E+00
         21   -1    0    0  501  502  0.00000000000E+00  0.00000000000E+00  0.12651281838E+03  0.12651281838E+03  0.00000000000E+00 0. -1.
          1   -1    0    0  502    0 -0.00000000000E+00 -0.00000000000E+00 -0.57660378997E+03  0.57660378997E+03  0.00000000000E+00 0. -1.
        -24    2    1    2    0    0  0.10772769764E+03  0.12438560295E+03 -0.13918938432E+03  0.23060475673E+03  0.82023375071E+02 0.  0.
         23    2    1    2    0    0 -0.18301580775E+03 -0.16675679082E+03 -0.19528192918E+03  0.32818055764E+03  0.90911129038E+02 0.  0.
         11    1    3    3    0    0  0.11267561734E+03  0.11708401260E+03 -0.10081087878E+03  0.19122576717E+03  0.00000000000E+00 0. -1.
        -12    1    3    3    0    0 -0.49479197018E+01  0.73015903566E+01 -0.38378505546E+02  0.39378989564E+02  0.00000000000E+00 0.  1.
        -13    1    4    4    0    0 -0.18678596045E+03 -0.14695181817E+03 -0.15677222162E+03  0.28471276992E+03  0.00000000000E+00 0. -1.
         13    1    4    4    0    0  0.37701527070E+01 -0.19804972651E+02 -0.38509707560E+02  0.43467787723E+02  0.00000000000E+00 0.  1.
          2    1    1    2  501    0  0.75288110108E+02  0.42371187864E+02 -0.11561965809E+03  0.14433129398E+03  0.00000000000E+00 0. -1.
<scales pt_clust_5="13000.00000" pt_clust_6="13000.00000" pt_clust_7="13000.00000" pt_clust_8="13000.00000" pt_clust_9="86.39227"></scales>
<clustering>
<clus scale="   82.023">  5  6 -1 -1</clus>
<clus scale="   86.392">  1  9  2 -1</clus>
<clus scale="   90.911">  7  8 -1 -1</clus>
<clus scale="  214.361">  2  5  1 -1</clus>
<clus scale="   86.392">  1  5  2 -1</clus>
</clustering>
</event>
<event>
 9    1  0.5981539E-005  0.1005536E+03  0.7546771E-02  0.1289727E+00
         21   -1    0    0  501  502  0.00000000000E+00  0.00000000000E+00  0.91413039885E+02  0.91413039885E+02  0.00000000000E+00 0.  1.
          1   -1    0    0  502    0 -0.00000000000E+00 -0.00000000000E+00 -0.39128466408E+03  0.39128466408E+03  0.00000000000E+00 0. -1.
        -24    2    1    2    0    0  0.12099436485E+02  0.28148535675E+00 -0.23829360753E+03  0.25197962009E+03  0.81014874899E+02 0.  0.
         23    2    1    2    0    0 -0.43990041959E+02  0.11260186014E+02  0.45459126627E+02  0.11843642491E+03  0.99492406601E+02 0.  0.
         13    1    3    3    0    0 -0.24938713926E+02 -0.25438786969E+02 -0.84258561443E+02  0.91479924088E+02  0.00000000000E+00 0. -1.
        -14    1    3    3    0    0  0.37038150411E+02  0.25720272326E+02 -0.15403504608E+03  0.16049969600E+03  0.00000000000E+00 0.  1.
        -13    1    4    4    0    0  0.10731130601E+02 -0.29840347264E+02  0.38151839440E+02  0.49610143534E+02  0.00000000000E+00 0.  1.
         13    1    4    4    0    0 -0.54721172560E+02  0.41100533278E+02  0.73072871869E+01  0.68826281376E+02  0.00000000000E+00 0. -1.
          2    1    1    2  501    0  0.31890605473E+02 -0.11541671371E+02 -0.10703714330E+03  0.11228165897E+03  0.00000000000E+00 0. -1.
<scales pt_clust_5="13000.00000" pt_clust_6="13000.00000" pt_clust_7="13000.00000" pt_clust_8="13000.00000" pt_clust_9="33.91492"></scales>
<clustering>
<clus scale="   33.915">  1  9  2 -1</clus>
<clus scale="   81.015">  5  6 -1 -1</clus>
<clus scale="   82.315">  2  5  1 -1</clus>
<clus scale="   99.492">  7  8 -1 -1</clus>
<clus scale="   33.915">  1  5  2 -1</clus>
</clustering>
</event>
<event>
 9    1  0.5981539E-005  0.2181331E+03  0.7546771E-02  0.1175527E+00
          3   -1    0    0  502    0 -0.00000000000E+00  0.00000000000E+00  0.37888563025E+03  0.37888563025E+03  0.00000000000E+00 0. -1.
         21   -1    0    0  501  502  0.00000000000E+00 -0.00000000000E+00 -0.41048170271E+03  0.41048170271E+03  0.00000000000E+00 0. -1.
        -24    2    1    2    0    0 -0.16064229360E+02 -0.16023909358E+02  0.26345732451E+03  0.27676958604E+03  0.81711790961E+02 0.  0.
         23    2    1    2    0    0  0.18571969761E+03  0.99134211977E+02 -0.14699544305E+03  0.27257387721E+03  0.91484753877E+02 0.  0.
         13    1    3    3    0    0  0.29655084005E+02 -0.20129919020E+02  0.80094453322E+02  0.87748271208E+02  0.00000000000E+00 0. -1.
        -14    1    3    3    0    0 -0.45719313365E+02  0.41060096624E+01  0.18336287119E+03  0.18902131484E+03  0.00000000000E+00 0.  1.
        -13    1    4    4    0    0  0.18970167479E+03  0.76133405376E+02 -0.14145907038E+03  0.24858336515E+03  0.00000000000E+00 0. -1.
         13    1    4    4    0    0 -0.39819771833E+01  0.23000806601E+02 -0.55363726718E+01  0.23990512061E+02  0.00000000000E+00 0.  1.
          4    1    1    2  501    0 -0.16965546825E+03 -0.83110302619E+02 -0.14805795392E+03  0.24002386970E+03  0.00000000000E+00 0. -1.
<scales pt_clust_5="13000.00000" pt_clust_6="13000.00000" pt_clust_7="13000.00000" pt_clust_8="13000.00000" pt_clust_9="198.02166"></scales>
<clustering>
<clus scale="   81.712">  5  6 -1 -1</clus>
<clus scale="   84.804">  1  5  2 -1</clus>
<clus scale="   91.485">  7  8 -1 -1</clus>
<clus scale="  198.022">  2  9  1 -1</clus>
<clus scale="  198.022">  2  5  1 -1</clus>
</clustering>
</event>
<event>
 9    1  0.5981539E-005  0.1460318E+03  0.7546771E-02  0.1207829E+00
         21   -1    0    0  501  502  0.00000000000E+00  0.00000000000E+00  0.10135042433E+03  0.10135042433E+03  0.00000000000E+00 0. -1.
         -2   -1    0    0    0  501 -0.00000000000E+00 -0.00000000000E+00 -0.39579869515E+03  0.39579869515E+03  0.00000000000E+00 0.  1.
        -24    2    1    2    0    0  0.55275434978E+02 -0.67845040316E+02 -0.12099017113E+03  0.16961603006E+03  0.80452799422E+02 0.  0.
         23    2    1    2    0    0 -0.73245121212E+02  0.15102072162E+03 -0.13324697126E+03  0.23341593672E+03  0.92499394728E+02 0.  0.
         13    1    3    3    0    0  0.69994532203E+02 -0.45600169180E+02 -0.59416421622E+02  0.10251302905E+03  0.00000000000E+00 0. -1.
        -14    1    3    3    0    0 -0.14719097225E+02 -0.22244871135E+02 -0.61573749512E+02  0.67103001005E+02  0.00000000000E+00 0.  1.
        -13    1    4    4    0    0 -0.24996088451E+02  0.44884500378E+01  0.54379124604E+01  0.25971552005E+02  0.00000000000E+00 0.  1.
         13    1    4    4    0    0 -0.48249032760E+02  0.14653227158E+03 -0.13868488372E+03  0.20744438472E+03  0.00000000000E+00 0. -1.
         -1    1    1    2    0  502  0.17969686233E+02 -0.83175681306E+02 -0.40211128424E+02  0.94117152705E+02  0.00000000000E+00 0.  1.
<scales pt_clust_5="13000.00000" pt_clust_6="13000.00000" pt_clust_7="13000.00000" pt_clust_8="13000.00000" pt_clust_9="85.09467"></scales>
<clustering>
<clus scale="   80.453">  5  6 -1 -1</clus>
<clus scale="   85.095">  1  9  2 -1</clus>
<clus scale="   92.499">  7  8 -1 -1</clus>
<clus scale="  138.715">  2  5  1 -1</clus>
<clus scale="   85.095">  1  5  2 -1</clus>
</clustering>
</event>
<event>
 9    1  0.5981539E-005  0.1760406E+03  0.7546771E-02  0.1172992E+00
         -2   -1    0    0    0  501 -0.00000000000E+00  0.00000000000E+00  0.63722960592E+03  0.63722960592E+03  0.00000000000E+00 0.  1.
         21   -1    0    0  501  502  0.00000000000E+00 -0.00000000000E+00 -0.12765943930E+03  0.12765943930E+03  0.00000000000E+00 0. -1.
         23    2    1    2    0    0 -0.87098550702E+02 -0.13998248124E+03  0.26582318342E+03  0.32580506427E+03  0.91135736539E+02 0.  0.
        -24    2    1    2    0    0 -0.86005163398E+01  0.12728431803E+03 -0.25435694254E+02  0.15311393247E+03  0.80756642313E+02 0.  0.
         13    1    4    4    0    0 -0.12042923468E+02  0.10534925110E+03 -0.52324423789E+02  0.11824272509E+03  0.00000000000E+00 0. -1.
        -14    1    4    4    0    0  0.34424071279E+01  0.21935066929E+02  0.26888729535E+02  0.34871207379E+02  0.00000000000E+00 0.  1.
        -11    1    3    3    0    0 -0.92542157725E+02 -0.84228479188E+02  0.22137687062E+03  0.25429551021E+03  0.00000000000E+00 0.  1.
         11    1    3    3    0    0  0.54436070234E+01 -0.55754002048E+02  0.44446312794E+02  0.71509554066E+02  0.00000000000E+00 0. -1.
         -1    1    1    2    0  502  0.95699067041E+02  0.12698163210E+02  0.26918267746E+03  0.28597004847E+03  0.00000000000E+00 0.  1.
<scales pt_clust_5="13000.00000" pt_clust_6="13000.00000" pt_clust_7="13000.00000" pt_clust_8="13000.00000" pt_clust_9="96.53789"></scales>
<clustering>
<clus scale="   80.757">  5  6 -1 -1</clus>
<clus scale="   91.136">  7  8 -1 -1</clus>
<clus scale="   96.538">  2  9  1 -1</clus>
<clus scale="  170.898">  2  5  1 -1</clus>
<clus scale="   96.538">  2  5  1 -1</clus>
</clustering>
</event>
<event>
 9    1  0.5981539E-005  0.1787464E+03  0.7546771E-02  0.1187209E+00
         21   -1    0    0  501  502  0.00000000000E+00  0.00000000000E+00  0.48236547709E+02  0.48236547709E+02  0.00000000000E+00 0. -1.
          1   -1    0    0  502    0 -0.00000000000E+00 -0.00000000000E+00 -0.15112938727E+04  0.15112938727E+04  0.00000000000E+00 0. -1.
        -24    2    1    2    0    0  0.86524451587E+02 -0.18019142015E+02 -0.60939679607E+03  0.62083111922E+03  0.79092688217E+02 0.  0.
         23    2    1    2    0    0 -0.96518923667E+01  0.16442224664E+03 -0.23256527568E+03  0.29596874100E+03  0.79894017170E+02 0.  0.
         11    1    3    3    0    0  0.60500750113E+02  0.27235928164E+02 -0.33197729271E+03  0.33854255186E+03  0.00000000000E+00 0. -1.
        -12    1    3    3    0    0  0.26023701474E+02 -0.45255070179E+02 -0.27741950337E+03  0.28228856736E+03  0.00000000000E+00 0.  1.
        -13    1    4    4    0    0 -0.29285507156E+02  0.37657352677E+02 -0.30486170373E+02  0.56613812131E+02  0.00000000000E+00 0.  1.
         13    1    4    4    0    0  0.19633614789E+02  0.12676489396E+03 -0.20207910531E+03  0.23935492887E+03  0.00000000000E+00 0. -1.
          2    1    1    2  501    0 -0.76872559221E+02 -0.14640310463E+03 -0.62109525325E+03  0.64273056020E+03  0.00000000000E+00 0. -1.
<scales pt_clust_5="13000.00000" pt_clust_6="13000.00000" pt_clust_7="13000.00000" pt_clust_8="13000.00000" pt_clust_9="159.89758"></scales>
<clustering>
<clus scale="   79.093">  5  6 -1 -1</clus>
<clus scale="   79.894">  7  8 -1 -1</clus>
<clus scale="  118.604">  2  5  1 -1</clus>
<clus scale="  159.898">  1  9  2 -1</clus>
<clus scale="  159.898">  1  5  2 -1</clus>
</clustering>
</event>
<event>
 9    1  0.5981539E-005  0.9970527E+02  0.7546771E-02  0.1285796E+00
         21   -1    0    0  501  502  0.00000000000E+00  0.00000000000E+00  0.31256793243E+03  0.31256793243E+03  0.00000000000E+00 0. -1.
         -2   -1    0    0    0  501 -0.00000000000E+00 -0.00000000000E+00 -0.87028297376E+02  0.87028297376E+02  0.00000000000E+00 0.  1.
         23    2    1    2    0    0  0.39396116423E+02  0.20193636331E+01 -0.38365091250E+02  0.10665597627E+03  0.91364573155E+02 0.  0.
        -24    2    1    2    0    0 -0.39975361329E+02 -0.24057774912E+02  0.15098029990E+03  0.17788394917E+03  0.81675224931E+02 0.  0.
         13    1    4    4    0    0 -0.63100388045E+02 -0.14457161265E+02  0.12996439651E+03  0.14519439674E+03  0.00000000000E+00 0. -1.
        -14    1    4    4    0    0  0.23125026716E+02 -0.96006136473E+01  0.21015903384E+02  0.32689552429E+02  0.00000000000E+00 0.  1.
        -11    1    3    3    0    0  0.31547907256E+01 -0.35384327778E+02  0.85727349425E+01  0.36544426952E+02  0.00000000000E+00 0. -1.
         11    1    3    3    0    0  0.36241325697E+02  0.37403691411E+02 -0.46937826193E+02  0.70111549314E+02  0.00000000000E+00 0.  1.
         -1    1    1    2    0  502  0.57924490613E+00  0.22038411279E+02  0.11292442641E+03  0.11505630437E+03  0.00000000000E+00 0.  1.
<scales pt_clust_5="13000.00000" pt_clust_6="13000.00000" pt_clust_7="13000.00000" pt_clust_8="13000.00000" pt_clust_9="22.04602"></scales>
<clustering>
<clus scale="   22.046">  1  9  2 -1</clus>
<clus scale="   81.675">  5  6 -1 -1</clus>
<clus scale="   90.909">  1  5  2 -1</clus>
<clus scale="   91.365">  7  8 -1 -1</clus>
<clus scale="   22.046">  1  5  2 -1</clus>
</clustering>
</event>
<event>
 9    1  0.5981539E-005  0.1128862E+03  0.7546771E-02  0.1257615E+00
          1   -1    0    0  502    0 -0.00000000000E+00  0.00000000000E+00  0.78079002087E+02  0.78079002087E+02  0.00000000000E+00 0. -1.
         21   -1    0    0  501  502  0.00000000000E+00 -0.00000000000E+00 -0.26797717189E+03  0.26797717189E+03  0.00000000000E+00 0. -1.
         23    2    1    2    0    0  0.71131017739E+02 -0.17727750490E+02 -0.30209724805E+02  0.11817212672E+03  0.87624935026E+02 0.  0.
        -24    2    1    2    0    0 -0.51309969499E+02  0.54081848901E+02 -0.14870459526E+03  0.18504552045E+03  0.81063115137E+02 0.  0.
         13    1    4    4    0    0 -0.17749439656E+02  0.38682456299E+02 -0.14105576322E+03  0.14733670069E+03  0.00000000000E+00 0. -1.
        -14    1    4    4    0    0 -0.33560529843E+02  0.15399392602E+02 -0.76488320417E+01  0.37708819757E+02  0.00000000000E+00 0.  1.
        -11    1    3    3    0    0  0.53061721721E+02  0.19194974744E+02 -0.47323985309E+02  0.73644775462E+02  0.00000000000E+00 0. -1.
         11    1    3    3    0    0  0.18069296018E+02 -0.36922725234E+02  0.17114260504E+02  0.44527351256E+02  0.00000000000E+00 0.  1.
          2    1    1    2  501    0 -0.19821048240E+02 -0.36354098411E+02 -0.10983849743E+02  0.42838526816E+02  0.00000000000E+00 0. -1.
<scales pt_clust_5="13000.00000" pt_clust_6="13000.00000" pt_clust_7="13000.00000" pt_clust_8="13000.00000" pt_clust_9="41.40647"></scales>
<clustering>
<clus scale="   41.406">  2  9  1 -1</clus>
<clus scale="   81.063">  5  6 -1 -1</clus>
<clus scale="   87.625">  7  8 -1 -1</clus>
<clus scale="  107.872">  2  5  1 -1</clus>
<clus scale="   41.406">  2  5  1 -1</clus>
</clustering>
</event>
<event>
 9    1  0.5981539E-005  0.1050365E+03  0.7546771E-02  0.1274538E+00
         21   -1    0    0  501  502  0.00000000000E+00  0.00000000000E+00  0.53813908815E+03  0.53813908815E+03  0.00000000000E+00 0.  1.
          3   -1    0    0  502    0 -0.00000000000E+00 -0.00000000000E+00 -0.54084278098E+02  0.54084278098E+02  0.00000000000E+00 0. -1.
         23    2    1    2    0    0 -0.21766788933E+02  0.45229258204E+02  0.15465639366E+02  0.10453940410E+03  0.90387068268E+02 0.  0.
        -24    2    1    2    0    0  0.28043921744E+02 -0.66173315830E+02  0.32288035783E+03  0.34034383153E+03  0.80105111670E+02 0.  0.
         13    1    4    4    0    0  0.23448522116E+02  0.62237147036E+01  0.29838746875E+02  0.38456711108E+02  0.00000000000E+00 0. -1.
        -14    1    4    4    0    0  0.45953996275E+01 -0.72397030534E+02  0.29304161095E+03  0.30188712042E+03  0.00000000000E+00 0.  1.
        -13    1    3    3    0    0  0.33325184320E+02  0.24142649993E+02 -0.63633845443E+01  0.41640462552E+02  0.00000000000E+00 0.  1.
         13    1    3    3    0    0 -0.55091973253E+02  0.21086608211E+02  0.21829023910E+02  0.62898941546E+02  0.00000000000E+00 0. -1.
          4    1    1    2  501    0 -0.62771328108E+01  0.20944057626E+02  0.14570881285E+03  0.14734013062E+03  0.00000000000E+00 0. -1.
<scales pt_clust_5="13000.00000" pt_clust_6="13000.00000" pt_clust_7="13000.00000" pt_clust_8="13000.00000" pt_clust_9="21.86449"></scales>
<clustering>
<clus scale="   21.864">  1  9  2 -1</clus>
<clus scale="   80.105">  5  6 -1 -1</clus>
<clus scale="   90.387">  7  8 -1 -1</clus>
<clus scale="   96.331">  1  5  2 -1</clus>
<clus scale="   21.864">  1  5  2 -1</clus>
</clustering>
</event>
<event>
 9    1  0.5981539E-005  0.1029934E+03  0.7546771E-02  0.1286350E+00
          1   -1    0    0  502    0 -0.00000000000E+00  0.00000000000E+00  0.37974067513E+02  0.37974067513E+02  0.00000000000E+00 0. -1.
         21   -1    0    0  501  502  0.00000000000E+00 -0.00000000000E+00 -0.79839967322E+03  0.79839967322E+03  0.00000000000E+00 0. -1.
         23    2    1    2    0    0 -0.59642747428E+01  0.10455430504E+02 -0.73051372045E+02  0.12673625547E+03  0.10286246591E+03 0.  0.
        -24    2    1    2    0    0 -0.23132389121E+02  0.51606358615E+02 -0.29233570102E+03  0.30869643749E+03  0.81455538503E+02 0.  0.
         11    1    4    4    0    0 -0.19419825875E+02  0.73270786172E+02 -0.20282434737E+03  0.21652587289E+03  0.00000000000E+00 0. -1.
        -12    1    4    4    0    0 -0.37125632460E+01 -0.21664427556E+02 -0.89511353655E+02  0.92170564609E+02  0.00000000000E+00 0.  1.
        -11    1    3    3    0    0 -0.30971343303E+02  0.34964705817E+02 -0.78454793044E+02  0.91306677250E+02  0.00000000000E+00 0. -1.
         11    1    3    3    0    0  0.25007068560E+02 -0.24509275313E+02  0.54034209991E+01  0.35429578219E+02  0.00000000000E+00 0.  1.
          2    1    1    2  501    0  0.29096663864E+02 -0.62061789119E+02 -0.39503853264E+03  0.40094104777E+03  0.00000000000E+00 0. -1.
<scales pt_clust_5="13000.00000" pt_clust_6="13000.00000" pt_clust_7="13000.00000" pt_clust_8="13000.00000" pt_clust_9="68.54401"></scales>
<clustering>
<clus scale="   68.544">  2  9  1 -1</clus>
<clus scale="   81.456">  5  6 -1 -1</clus>
<clus scale="   81.621">  2  5  1 -1</clus>
<clus scale="  102.862">  7  8 -1 -1</clus>
<clus scale="   68.544">  2  5  1 -1</clus>
</clustering>
</event>
<event>
 9    1  0.5981539E-005  0.3230911E+03  0.7546771E-02  0.1086872E+00
         -2   -1    0    0    0  501 -0.00000000000E+00  0.00000000000E+00  0.19371589140E+03  0.19371589140E+03  0.00000000000E+00 0.  1.
         21   -1    0    0  501  502  0.00000000000E+00 -0.00000000000E+00 -0.14022820693E+04  0.14022820693E+04  0.00000000000E+00 0.  1.
         23    2    1    2    0    0  0.11312277005E+03 -0.16939198559E+03 -0.23033315604E+03  0.32547060443E+03  0.10671150684E+03 0.  0.
        -24    2    1    2    0    0  0.22377810501E+03  0.14062742590E+03 -0.46053759345E+02  0.27891867489E+03  0.76301803732E+02 0.  0.
         13    1    4    4    0    0  0.67479857615E+02  0.15084986207E+02 -0.36568537646E+02  0.78219856418E+02  0.00000000000E+00 0. -1.
        -14    1    4    4    0    0  0.15629824740E+03  0.12554243970E+03 -0.94852216990E+01  0.20069881847E+03  0.00000000000E+00 0.  1.
        -13    1    3    3    0    0  0.76276418906E+02 -0.16494706228E+03 -0.14524555478E+03  0.23264113269E+03  0.00000000000E+00 0.  1.
         13    1    3    3    0    0  0.36846351142E+02 -0.44449233067E+01 -0.85087601255E+02  0.92829471738E+02  0.00000000000E+00 0. -1.
         -1    1    1    2    0  502 -0.33690087506E+03  0.28764559682E+02 -0.93217926251E+03  0.99160868136E+03  0.00000000000E+00 0.  1.
<scales pt_clust_5="13000.00000" pt_clust_6="13000.00000" pt_clust_7="13000.00000" pt_clust_8="13000.00000" pt_clust_9="313.95202"></scales>
<clustering>
<clus scale="   76.302">  5  6 -1 -1</clus>
<clus scale="  106.712">  7  8 -1 -1</clus>
<clus scale="  229.952">  1  7  2 -1</clus>
<clus scale="  313.952">  2  9  1 -1</clus>
<clus scale="  313.952">  2  5  1 -1</clus>
</clustering>
</event>
<event>
 9    1  0.5981539E-005  0.1244719E+03  0.7546771E-02  0.1238166E+00
          3   -1    0    0  502    0 -0.00000000000E+00  0.00000000000E+00  0.67421794379E+03  0.67421794379E+03  0.00000000000E+00 0. -1.
         21   -1    0    0  501  502  0.00000000000E+00 -0.00000000000E+00 -0.43183211784E+02  0.43183211784E+02  0.00000000000E+00 0. -1.
         23    2    1    2    0    0  0.45323016645E+02 -0.68878630097E+02  0.25547319102E+03  0.28354814638E+03  0.91293802974E+02 0.  0.
        -24    2    1    2    0    0  0.15380891217E+02  0.10273424293E+03  0.16481693238E+03  0.21194208787E+03  0.83450170314E+02 0.  0.
         11    1    4    4    0    0 -0.38196444544E+01  0.33342375863E+02  0.12549480130E+03  0.12990476845E+03  0.00000000000E+00 0. -1.
        -12    1    4    4    0    0  0.19200535672E+02  0.69391867064E+02  0.39322131079E+02  0.82037319419E+02  0.00000000000E+00 0.  1.
        -11    1    3    3    0    0  0.37545774674E+02  0.11540033826E+01  0.16308950362E+03  0.16735950260E+03  0.00000000000E+00 0.  1.
         11    1    3    3    0    0  0.77772419707E+01 -0.70032633480E+02  0.92383687403E+02  0.11618864378E+03  0.00000000000E+00 0. -1.
          4    1    1    2  501    0 -0.60703907862E+02 -0.33855612830E+02  0.21074460860E+03  0.22191092133E+03  0.00000000000E+00 0. -1.
<scales pt_clust_5="13000.00000" pt_clust_6="13000.00000" pt_clust_7="13000.00000" pt_clust_8="13000.00000" pt_clust_9="69.50663"></scales>
<clustering>
<clus scale="   69.507">  2  9  1 -1</clus>
<clus scale="   83.450">  5  6 -1 -1</clus>
<clus scale="   91.294">  7  8 -1 -1</clus>
<clus scale="  118.839">  2  5  1 -1</clus>
<clus scale="   69.507">  2  5  1 -1</clus>
</clustering>
</event>
<event>
 9    1  0.5981539E-005  0.1471998E+03  0.7546771E-02  0.1209533E+00
         21   -1    0    0  501  502  0.00000000000E+00  0.00000000000E+00  0.37215836533E+03  0.37215836533E+03  0.00000000000E+00 0. -1.
         -2   -1    0    0    0  501 -0.00000000000E+00 -0.00000000000E+00 -0.17398384670E+03  0.17398384670E+03  0.00000000000E+00 0.  1.
         23    2    1    2    0    0 -0.27050370526E+02 -0.10480233860E+03 -0.12067646613E+03  0.19146861001E+03  0.10189291644E+03 0.  0.
        -24    2    1    2    0    0  0.13928154164E+02  0.87356450526E+02  0.30985277143E+03  0.33106175296E+03  0.75947359290E+02 0.  0.
         13    1    4    4    0    0  0.20152266941E+02  0.42827365518E+02  0.25854167608E+03  0.26283853479E+03  0.00000000000E+00 0. -1.
        -14    1    4    4    0    0 -0.62241127771E+01  0.44529085008E+02  0.51311095350E+02  0.68223218170E+02  0.00000000000E+00 0.  1.
        -11    1    3    3    0    0  0.35572751621E+02 -0.13898863948E+02 -0.28403892235E+02  0.47596010032E+02  0.00000000000E+00 0. -1.
         11    1    3    3    0    0 -0.62623122146E+02 -0.90903474652E+02 -0.92272573899E+02  0.14387259998E+03  0.00000000000E+00 0.  1.
         -1    1    1    2    0  502  0.13122216362E+02  0.17445888074E+02  0.89982133360E+01  0.23611849063E+02  0.00000000000E+00 0.  1.
<scales pt_clust_5="13000.00000" pt_clust_6="13000.00000" pt_clust_7="13000.00000" pt_clust_8="13000.00000" pt_clust_9="21.83006"></scales>
<clustering>
<clus scale="   21.830">  1  9  2 -1</clus>
<clus scale="   75.947">  5  6 -1 -1</clus>
<clus scale="  101.893">  7  8 -1 -1</clus>
<clus scale="  130.590">  1  5  2 -1</clus>
<clus scale="   21.830">  1  5  2 -1</clus>
</clustering>
</event>
<event>
 9    1  0.5981539E-005  0.9587416E+02  0.7546771E-02  0.1294172E+00
         21   -1    0    0  501  502  0.00000000000E+00  0.00000000000E+00  0.25411060868E+03  0.25411060868E+03  0.00000000000E+00 0.  1.
         -4   -1    0    0    0  501 -0.00000000000E+00 -0.00000000000E+00 -0.30805507249E+03  0.30805507249E+03  0.00000000000E+00 0.  1.
         23    2    1    2    0    0 -0.23874333147E+02  0.22614190754E+02 -0.28582588735E+03  0.30163234889E+03  0.90577318401E+02 0.  0.
        -24    2    1    2    0    0 -0.76541404264E+01 -0.13488192974E+02  0.13762915958E+03  0.16072943585E+03  0.81557640758E+02 0.  0.
         11    1    4    4    0    0 -0.13675795208E+01  0.30016734591E+02  0.22632199641E+02  0.37617696499E+02  0.00000000000E+00 0. -1.
        -12    1    4    4    0    0 -0.62865609056E+01 -0.43504927565E+02  0.11499695994E+03  0.12311173935E+03  0.00000000000E+00 0.  1.
        -13    1    3    3    0    0  0.25087120990E+02  0.90447077480E+00 -0.25236026290E+02  0.35595487493E+02  0.00000000000E+00 0. -1.
         13    1    3    3    0    0 -0.48961454138E+02  0.21709719980E+02 -0.26058986106E+03  0.26603686140E+03  0.00000000000E+00 0.  1.
         -3    1    1    2    0  502  0.31528473574E+02 -0.91259977808E+01  0.94252263959E+02  0.99803896430E+02  0.00000000000E+00 0.  1.
<scales pt_clust_5="13000.00000" pt_clust_6="13000.00000" pt_clust_7="13000.00000" pt_clust_8="13000.00000" pt_clust_9="32.82268"></scales>
<clustering>
<clus scale="   32.823">  1  9  2 -1</clus>
<clus scale="   81.558">  5  6 -1 -1</clus>
<clus scale="   87.403">  1  5  2 -1</clus>
<clus scale="   90.577">  7  8 -1 -1</clus>
<clus scale="   32.823">  1  5  2 -1</clus>
</clustering>
</event>
<event>
 9    1  0.5981539E-005  0.9717938E+02  0.7546771E-02  0.1295730E+00
         21   -1    0    0  501  502  0.00000000000E+00  0.00000000000E+00  0.60041134873E+02  0.60041134873E+02  0.00000000000E+00 0. -1.
          3   -1    0    0  502    0 -0.00000000000E+00 -0.00000000000E+00 -0.38225555203E+03  0.38225555203E+03  0.00000000000E+00 0. -1.
        -24    2    1    2    0    0 -0.22227396302E+02 -0.65305205056E+01 -0.23703387461E+03  0.25111758660E+03  0.79613313859E+02 0.  0.
         23    2    1    2    0    0  0.59617817508E+01 -0.10963841522E+02 -0.11687365514E+03  0.15149186929E+03  0.95575030908E+02 0.  0.
         11    1    3    3    0    0 -0.21420721540E+01 -0.40343444385E+02 -0.15446192854E+03  0.15965797614E+03  0.00000000000E+00 0. -1.
        -12    1    3    3    0    0 -0.20085324148E+02  0.33812923879E+02 -0.82571946076E+02  0.91459610464E+02  0.00000000000E+00 0.  1.
        -11    1    4    4    0    0 -0.41590594405E+02 -0.22648771555E+02 -0.54750693055E+02  0.72390488228E+02  0.00000000000E+00 0. -1.
         11    1    4    4    0    0  0.47552376156E+02  0.11684930033E+02 -0.62122962085E+02  0.79101381064E+02  0.00000000000E+00 0.  1.
          4    1    1    2  501    0  0.16265614551E+02  0.17494362028E+02  0.31693112592E+02  0.39687231010E+02  0.00000000000E+00 0. -1.
<scales pt_clust_5="13000.00000" pt_clust_6="13000.00000" pt_clust_7="13000.00000" pt_clust_8="13000.00000" pt_clust_9="23.88771"></scales>
<clustering>
<clus scale="   23.888">  1  9  2 -1</clus>
<clus scale="   79.613">  5  6 -1 -1</clus>
<clus scale="   81.532">  2  5  1 -1</clus>
<clus scale="   95.575">  7  8 -1 -1</clus>
<clus scale="   23.888">  1  5  2 -1</clus>
</clustering>
</event>
<event>
 9    1  0.5981539E-005  0.9081130E+02  0.7546771E-02  0.1307187E+00
          1   -1    0    0  502    0 -0.00000000000E+00  0.00000000000E+00  0.45737684987E+03  0.45737684987E+03  0.00000000000E+00 0. -1.
         21   -1    0    0  501  502  0.00000000000E+00 -0.00000000000E+00 -0.37097981486E+02  0.37097981486E+02  0.00000000000E+00 0.  1.
        -24    2    1    2    0    0 -0.11011500596E+02  0.12200555294E+02  0.20783410726E+03  0.22362636908E+03  0.80892707412E+02 0.  0.
         23    2    1    2    0    0 -0.32432966068E+02  0.25798582247E+02  0.85540295633E+02  0.13143505008E+03  0.90777563746E+02 0.  0.
         11    1    3    3    0    0 -0.12911317513E+02 -0.28373320402E+02  0.38752466104E+02  0.49734304657E+02  0.00000000000E+00 0. -1.
        -12    1    3    3    0    0  0.18998169171E+01  0.40573875696E+02  0.16908164115E+03  0.17389206442E+03  0.00000000000E+00 0.  1.
        -11    1    4    4    0    0 -0.59855090187E+02  0.34149128217E+02  0.47042748577E+02  0.83437491411E+02  0.00000000000E+00 0.  1.
         11    1    4    4    0    0  0.27422124120E+02 -0.83505459695E+01  0.38497547056E+02  0.47997558673E+02  0.00000000000E+00 0. -1.
          2    1    1    2  501    0  0.43444466664E+02 -0.37999137541E+02  0.12690446549E+03  0.13941341219E+03  0.00000000000E+00 0. -1.
<scales pt_clust_5="13000.00000" pt_clust_6="13000.00000" pt_clust_7="13000.00000" pt_clust_8="13000.00000" pt_clust_9="57.71793"></scales>
<clustering>
<clus scale="   57.718">  2  9  1 -1</clus>
<clus scale="   80.893">  5  6 -1 -1</clus>
<clus scale="   80.931">  1  5  2 -1</clus>
<clus scale="   90.778">  7  8 -1 -1</clus>
<clus scale="   57.718">  2  5  1 -1</clus>
</clustering>
</event>
<event>
 9    1  0.5981539E-005  0.9309263E+02  0.7546771E-02  0.1298128E+00
          1   -1    0    0  502    0 -0.00000000000E+00  0.00000000000E+00  0.19474775116E+03  0.19474775116E+03  0.00000000000E+00 0. -1.
         21   -1    0    0  501  502  0.00000000000E+00 -0.00000000000E+00 -0.18473971672E+03  0.18473971672E+03  0.00000000000E+00 0. -1.
         23    2    1    2    0    0  0.75412738323E+01  0.39783533855E+02  0.14589915316E+03  0.17487407792E+03  0.87491598786E+02 0.  0.
        -24    2    1    2    0    0  0.58380994171E+00  0.19976292890E+01 -0.26103365953E+02  0.86863514213E+02  0.82822418647E+02 0.  0.
         11    1    4    4    0    0 -0.22820287985E+02  0.34702265474E+02 -0.62063844691E+01  0.41994427974E+02  0.00000000000E+00 0. -1.
        -12    1    4    4    0    0  0.23404097927E+02 -0.32704636185E+02 -0.19896981484E+02  0.44869086239E+02  0.00000000000E+00 0.  1.
        -11    1    3    3    0    0 -0.45786746292E+01  0.66335933937E+02  0.91090601750E+02  0.11277818105E+03  0.00000000000E+00 0. -1.
         11    1    3    3    0    0  0.12119948461E+02 -0.26552400082E+02  0.54808551409E+02  0.62095896872E+02  0.00000000000E+00 0.  1.
          2    1    1    2  501    0 -0.81250837740E+01 -0.41781163144E+02 -0.10978775277E+03  0.11774987575E+03  0.00000000000E+00 0. -1.
<scales pt_clust_5="13000.00000" pt_clust_6="13000.00000" pt_clust_7="13000.00000" pt_clust_8="13000.00000" pt_clust_9="42.56386"></scales>
<clustering>
<clus scale="   42.564">  2  9  1 -1</clus>
<clus scale="   82.822">  5  6 -1 -1</clus>
<clus scale="   87.492">  7  8 -1 -1</clus>
<clus scale="   88.719">  2  5  1 -1</clus>
<clus scale="   42.564">  2  5  1 -1</clus>
</clustering>
</event>
<event>
 9    1  0.5981539E-005  0.9388334E+02  0.7546771E-02  0.1301319E+00
          1   -1    0    0  502    0 -0.00000000000E+00  0.00000000000E+00  0.42261119731E+03  0.42261119731E+03  0.00000000000E+00 0. -1.
         21   -1    0    0  501  502  0.00000000000E+00 -0.00000000000E+00 -0.10493687570E+03  0.10493687570E+03  0.00000000000E+00 0. -1.
         23    2    1    2    0    0  0.16565544358E+02  0.10720330154E+01  0.33346068010E+03  0.34599738951E+03  0.90788776068E+02 0.  0.
        -24    2    1    2    0    0 -0.66684801483E+02  0.79331574370E+01  0.35907567032E+02  0.10898832875E+03  0.77969896096E+02 0.  0.
         13    1    4    4    0    0 -0.73274521388E+02  0.25877967862E+02  0.42739615545E+02  0.88687651013E+02  0.00000000000E+00 0. -1.
        -14    1    4    4    0    0  0.65897199047E+01 -0.17944810425E+02 -0.68320485130E+01  0.20300677735E+02  0.00000000000E+00 0.  1.
        -13    1    3    3    0    0 -0.34238894396E+02  0.13873463657E+02  0.18255381096E+03  0.18625431211E+03  0.00000000000E+00 0.  1.
         13    1    3    3    0    0  0.50804438754E+02 -0.12801430641E+02  0.15090686914E+03  0.15974307740E+03  0.00000000000E+00 0. -1.
          2    1    1    2  501    0  0.50119257125E+02 -0.90051904524E+01 -0.51693925530E+02  0.72562354748E+02  0.00000000000E+00 0. -1.
<scales pt_clust_5="13000.00000" pt_clust_6="13000.00000" pt_clust_7="13000.00000" pt_clust_8="13000.00000" pt_clust_9="50.92184"></scales>
<clustering>
<clus scale="   50.922">  2  9  1 -1</clus>
<clus scale="   77.970">  5  6 -1 -1</clus>
<clus scale="   81.552">  2  5  1 -1</clus>
<clus scale="   90.789">  7  8 -1 -1</clus>
<clus scale="   50.922">  2  5  1 -1</clus>
</clustering>
</event>
<event>
 9    1  0.5981539E-005  0.9305948E+02  0.7546771E-02  0.1297558E+00
         21   -1    0    0  501  502  0.00000000000E+00  0.00000000000E+00  0.27373900239E+03  0.27373900239E+03  0.00000000000E+00 0. -1.
         -2   -1    0    0    0  501 -0.00000000000E+00 -0.00000000000E+00 -0.99896941946E+02  0.99896941946E+02  0.00000000000E+00 0.  1.
        -24    2    1    2    0    0 -0.68886793849E+01 -0.21654277025E+02 -0.61224211190E+02  0.10901016942E+03  0.87283740667E+02 0.  0.
         23    2    1    2    0    0 -0.14383080530E+02  0.12686275221E+02  0.14863549508E+03  0.17516521398E+03  0.90678151763E+02 0.  0.
         13    1    3    3    0    0  0.21177650301E+02  0.16123242038E+02  0.56754874538E+01  0.27215123809E+02  0.00000000000E+00 0. -1.
        -14    1    3    3    0    0 -0.28066329686E+02 -0.37777519062E+02 -0.66899698644E+02  0.81795045615E+02  0.00000000000E+00 0.  1.
        -13    1    4    4    0    0  0.16770083785E+02  0.41198570656E+02  0.45084788295E+02  0.63334004057E+02  0.00000000000E+00 0. -1.
         13    1    4    4    0    0 -0.31153164315E+02 -0.28512295435E+02  0.10355070678E+03  0.11183120992E+03  0.00000000000E+00 0.  1.
         -1    1    1    2    0  502  0.21271759915E+02  0.89680018033E+01  0.86430776554E+02  0.89460560930E+02  0.00000000000E+00 0.  1.
<scales pt_clust_5="13000.00000" pt_clust_6="13000.00000" pt_clust_7="13000.00000" pt_clust_8="13000.00000" pt_clust_9="23.08490"></scales>
<clustering>
<clus scale="   23.085">  1  9  2 -1</clus>
<clus scale="   87.284">  5  6 -1 -1</clus>
<clus scale="   89.755">  2  5  1 -1</clus>
<clus scale="   90.678">  7  8 -1 -1</clus>
<clus scale="   23.085">  1  5  2 -1</clus>
</clustering>
</event>
<event>
 9    1  0.5981539E-005  0.1063728E+03  0.7546771E-02  0.1272012E+00
         21   -1    0    0  501  502  0.00000000000E+00  0.00000000000E+00  0.24200516442E+03  0.24200516442E+03  0.00000000000E+00 0. -1.
          1   -1    0    0  502    0 -0.00000000000E+00 -0.00000000000E+00 -0.10495417168E+03  0.10495417168E+03  0.00000000000E+00 0. -1.
         23    2    1    2    0    0 -0.23211204943E+01  0.51389960737E+02 -0.45435000950E+02  0.11325183859E+03  0.90085092930E+02 0.  0.
        -24    2    1    2    0    0 -0.12695293721E+02 -0.79289267711E+02  0.12751123370E+03  0.17025603369E+03  0.79246727581E+02 0.  0.
         11    1    4    4    0    0  0.25511399475E+01 -0.90969982359E+02  0.11742534487E+03  0.14856230216E+03  0.00000000000E+00 0. -1.
        -12    1    4    4    0    0 -0.15246433669E+02  0.11680714649E+02  0.10085888833E+02  0.21693731534E+02  0.00000000000E+00 0.  1.
        -13    1    3    3    0    0  0.11763328883E+02 -0.22901293019E+02 -0.22617746011E+02  0.34269630330E+02  0.00000000000E+00 0.  1.
         13    1    3    3    0    0 -0.14084449377E+02  0.74291253756E+02 -0.22817254939E+02  0.78982208262E+02  0.00000000000E+00 0. -1.
          2    1    1    2  501    0  0.15016414215E+02  0.27899306974E+02  0.54974759986E+02  0.63451463821E+02  0.00000000000E+00 0. -1.
<scales pt_clust_5="13000.00000" pt_clust_6="13000.00000" pt_clust_7="13000.00000" pt_clust_8="13000.00000" pt_clust_9="31.68381"></scales>
<clustering>
<clus scale="   31.684">  1  9  2 -1</clus>
<clus scale="   79.247">  5  6 -1 -1</clus>
<clus scale="   90.085">  7  8 -1 -1</clus>
<clus scale="   97.365">  1  5  2 -1</clus>
<clus scale="   31.684">  1  5  2 -1</clus>
</clustering>
</event>
<event>
 9    1  0.5981539E-005  0.1520188E+03  0.7546771E-02  0.1199780E+00
          1   -1    0    0  502    0 -0.00000000000E+00  0.00000000000E+00  0.79458121210E+03  0.79458121210E+03  0.00000000000E+00 0. -1.
         21   -1    0    0  501  502  0.00000000000E+00 -0.00000000000E+00 -0.10611049859E+03  0.10611049859E+03  0.00000000000E+00 0. -1.
         23    2    1    2    0    0 -0.54243659297E+02 -0.10116230743E+03  0.45837805462E+03  0.48145484533E+03  0.92261260103E+02 0.  0.
        -24    2    1    2    0    0  0.41173085584E+02  0.16713532402E+03  0.12266930989E+02  0.19126465970E+03  0.82475771850E+02 0.  0.
         13    1    4    4    0    0  0.96505844088E+01  0.67880243637E+02 -0.34907549514E+02  0.76937625833E+02  0.00000000000E+00 0. -1.
        -14    1    4    4    0    0  0.31522501175E+02  0.99255080382E+02  0.47174480503E+02  0.11432703387E+03  0.00000000000E+00 0.  1.
        -11    1    3    3    0    0  0.22202086510E+02 -0.49380785432E+01  0.48865488734E+02  0.53899473599E+02  0.00000000000E+00 0.  1.
         11    1    3    3    0    0 -0.76445745807E+02 -0.96224228888E+02  0.40951256589E+03  0.42755537173E+03  0.00000000000E+00 0. -1.
          2    1    1    2  501    0  0.13070573713E+02 -0.65973016589E+02  0.21782572790E+03  0.22797220565E+03  0.00000000000E+00 0. -1.
<scales pt_clust_5="13000.00000" pt_clust_6="13000.00000" pt_clust_7="13000.00000" pt_clust_8="13000.00000" pt_clust_9="67.25536"></scales>
<clustering>
<clus scale="   67.255">  2  9  1 -1</clus>
<clus scale="   82.476">  5  6 -1 -1</clus>
<clus scale="   92.261">  7  8 -1 -1</clus>
<clus scale="  146.287">  2  5  1 -1</clus>
<clus scale="   67.255">  2  5  1 -1</clus>
</clustering>
</event>
<event>
 9    1  0.5981539E-005  0.1208554E+03  0.7546771E-02  0.1246440E+00
         21   -1    0    0  501  502  0.00000000000E+00  0.00000000000E+00  0.92114742212E+02  0.92114742212E+02  0.00000000000E+00 0. -1.
          3   -1    0    0  502    0 -0.00000000000E+00 -0.00000000000E+00 -0.69088320653E+03  0.69088320653E+03  0.00000000000E+00 0. -1.
        -24    2    1    2    0    0 -0.51625925351E+01  0.10189154384E+03 -0.49840530461E+03  0.51503090759E+03  0.80252408329E+02 0.  0.
         23    2    1    2    0    0 -0.35780222591E+02 -0.16879115973E+02 -0.13306644302E+03  0.16810247416E+03  0.94797862190E+02 0.  0.
         11    1    3    3    0    0  0.63347641668E+00  0.11502128147E+03 -0.42863946933E+03  0.44380411349E+03  0.00000000000E+00 0. -1.
        -12    1    3    3    0    0 -0.57960689518E+01 -0.13129737630E+02 -0.69765835280E+02  0.71226794101E+02  0.00000000000E+00 0.  1.
        -11    1    4    4    0    0 -0.60853926830E+02 -0.29883697173E+02 -0.11800198461E+03  0.13609079374E+03  0.00000000000E+00 0. -1.
         11    1    4    4    0    0  0.25073704239E+02  0.13004581200E+02 -0.15064458410E+02  0.32011680425E+02  0.00000000000E+00 0.  1.
          4    1    1    2  501    0  0.40942815127E+02 -0.85012427864E+02  0.32703283311E+02  0.99864566995E+02  0.00000000000E+00 0. -1.
<scales pt_clust_5="13000.00000" pt_clust_6="13000.00000" pt_clust_7="13000.00000" pt_clust_8="13000.00000" pt_clust_9="94.35797"></scales>
<clustering>
<clus scale="   80.252">  5  6 -1 -1</clus>
<clus scale="   94.358">  1  9  2 -1</clus>
<clus scale="   94.798">  7  8 -1 -1</clus>
<clus scale="  109.817">  2  5  1 -1</clus>
<clus scale="   94.358">  1  5  2 -1</clus>
</clustering>
</event>
<event>
 9    1  0.5981539E-005  0.1605705E+03  0.7546771E-02  0.1211472E+00
         21   -1    0    0  501  502  0.00000000000E+00  0.00000000000E+00  0.17034926005E+03  0.17034926005E+03  0.00000000000E+00 0. -1.
          3   -1    0    0  502    0 -0.00000000000E+00 -0.00000000000E+00 -0.26758971239E+03  0.26758971239E+03  0.00000000000E+00 0. -1.
        -24    2    1    2    0    0  0.53423792226E+02  0.29680436943E+02 -0.76873555123E+02  0.12340052701E+03  0.74720256127E+02 0.  0.
         23    2    1    2    0    0 -0.11046367679E+03 -0.11310623488E+03  0.54717427007E+02  0.18863742106E+03  0.87148353658E+02 0.  0.
         13    1    3    3    0    0  0.41252469728E+02  0.49621273351E+02 -0.30284998364E+02  0.71282663766E+02  0.00000000000E+00 0. -1.
        -14    1    3    3    0    0  0.12171322498E+02 -0.19940836408E+02 -0.46588556759E+02  0.52117863242E+02  0.00000000000E+00 0.  1.
        -13    1    4    4    0    0 -0.11144209561E+03 -0.76709255420E+02  0.65983705424E+02  0.15052408420E+03  0.00000000000E+00 0. -1.
         13    1    4    4    0    0  0.97841881949E+00 -0.36396979462E+02 -0.11266278418E+02  0.38113336861E+02  0.00000000000E+00 0.  1.
          4    1    1    2  501    0  0.57039884567E+02  0.83425797938E+02 -0.75084324231E+02  0.12590102437E+03  0.00000000000E+00 0. -1.
<scales pt_clust_5="13000.00000" pt_clust_6="13000.00000" pt_clust_7="13000.00000" pt_clust_8="13000.00000" pt_clust_9="134.86318"></scales>
<clustering>
<clus scale="   74.720">  5  6 -1 -1</clus>
<clus scale="   87.148">  7  8 -1 -1</clus>
<clus scale="   96.531">  2  5  1 -1</clus>
<clus scale="  134.863">  1  9  2 -1</clus>
<clus scale="  134.863">  1  5  2 -1</clus>
</clustering>
</event>
<event>
 9    1  0.5981539E-005  0.1060960E+03  0.7546771E-02  0.1273605E+00
         21   -1    0    0  501  502  0.00000000000E+00  0.00000000000E+00  0.29542532699E+03  0.29542532699E+03  0.00000000000E+00 0. -1.
         -4   -1    0    0    0  501 -0.00000000000E+00 -0.00000000000E+00 -0.74872259112E+02  0.74872259112E+02  0.00000000000E+00 0.  1.
         23    2    1    2    0    0  0.50169878396E+01 -0.46194527466E+02  0.10193700571E+03  0.14439033527E+03  0.91095067111E+02 0.  0.
        -24    2    1    2    0    0  0.62088108785E+02  0.48476992566E+02  0.11329478437E+03  0.15855281788E+03  0.78091842298E+02 0.  0.
         13    1    4    4    0    0  0.71680222254E+02  0.57221856467E+02  0.76167608298E+02  0.11922206035E+03  0.00000000000E+00 0. -1.
        -14    1    4    4    0    0 -0.95921134690E+01 -0.87448639008E+01  0.37127176070E+02  0.39330757536E+02  0.00000000000E+00 0.  1.
        -13    1    3    3    0    0  0.46409411898E+02 -0.13372135608E+02  0.38008667296E+02  0.61459794281E+02  0.00000000000E+00 0.  1.
         13    1    3    3    0    0 -0.41392424058E+02 -0.32822391858E+02  0.63928338414E+02  0.82930540991E+02  0.00000000000E+00 0. -1.
         -3    1    1    2    0  502 -0.67105096625E+02 -0.22824650998E+01  0.53212777996E+01  0.67354432945E+02  0.00000000000E+00 0.  1.
<scales pt_clust_5="13000.00000" pt_clust_6="13000.00000" pt_clust_7="13000.00000" pt_clust_8="13000.00000" pt_clust_9="67.14394"></scales>
<clustering>
<clus scale="   67.144">  1  9  2 -1</clus>
<clus scale="   78.092">  5  6 -1 -1</clus>
<clus scale="   91.095">  7  8 -1 -1</clus>
<clus scale="   95.165">  1  5  2 -1</clus>
<clus scale="   67.144">  1  5  2 -1</clus>
</clustering>
</event>
<event>
 9    1  0.5981539E-005  0.1638644E+03  0.7546771E-02  0.1186159E+00
         21   -1    0    0  501  502  0.00000000000E+00  0.00000000000E+00  0.90598194029E+02  0.90598194029E+02  0.00000000000E+00 0. -1.
          1   -1    0    0  502    0 -0.00000000000E+00 -0.00000000000E+00 -0.52613753243E+03  0.52613753243E+03  0.00000000000E+00 0. -1.
         23    2    1    2    0    0 -0.12620629763E+03 -0.10670478872E+03 -0.30354125045E+03  0.35782113137E+03  0.92653817141E+02 0.  0.
        -24    2    1    2    0    0  0.82242330993E+02  0.29374672485E+02 -0.28577252942E+02  0.12250108273E+03  0.81013477237E+02 0.  0.
         13    1    4    4    0    0  0.96493225750E+02  0.18279204139E+02 -0.33526555847E+02  0.10377428326E+03  0.00000000000E+00 0. -1.
        -14    1    4    4    0    0 -0.14250894756E+02  0.11095468346E+02  0.49493029040E+01  0.18726799471E+02  0.00000000000E+00 0.  1.
        -13    1    3    3    0    0 -0.63004442951E+02 -0.74149047684E+02 -0.25164309150E+03  0.26979971572E+03  0.00000000000E+00 0. -1.
         13    1    3    3    0    0 -0.63201854684E+02 -0.32555741037E+02 -0.51898158947E+02  0.88021415644E+02  0.00000000000E+00 0.  1.
          2    1    1    2  501    0  0.43963966641E+02  0.77330116237E+02 -0.10342083501E+03  0.13641351236E+03  0.00000000000E+00 0. -1.
<scales pt_clust_5="13000.00000" pt_clust_6="13000.00000" pt_clust_7="13000.00000" pt_clust_8="13000.00000" pt_clust_9="88.95384"></scales>
<clustering>
<clus scale="   81.013">  5  6 -1 -1</clus>
<clus scale="   88.954">  1  9  2 -1</clus>
<clus scale="   92.654">  7  8 -1 -1</clus>
<clus scale="  157.575">  1  5  2 -1</clus>
<clus scale="   88.954">  1  5  2 -1</clus>
</clustering>
</event>
<event>
 9    1  0.5981539E-005  0.9378815E+02  0.7546771E-02  0.1297564E+00
         -2   -1    0    0    0  501 -0.00000000000E+00  0.00000000000E+00  0.69428868344E+03  0.69428868344E+03  0.00000000000E+00 0.  1.
         21   -1    0    0  501  502  0.00000000000E+00 -0.00000000000E+00 -0.24606652787E+02  0.24606652787E+02  0.00000000000E+00 0.  1.
        -24    2    1    2    0    0 -0.58148758461E+00 -0.60009619751E+02  0.31685444759E+03  0.33244437727E+03  0.80752897378E+02 0.  0.
         23    2    1    2    0    0 -0.19924671781E+02 -0.35290338877E+01  0.17804956552E+03  0.19935467760E+03  0.87356700225E+02 0.  0.
         11    1    3    3    0    0 -0.22467666676E+02 -0.56270077918E+01  0.22435406164E+02  0.32246034055E+02  0.00000000000E+00 0. -1.
        -12    1    3    3    0    0  0.21886179091E+02 -0.54382611959E+02  0.29441904142E+03  0.30019834322E+03  0.00000000000E+00 0.  1.
        -11    1    4    4    0    0 -0.44724997348E+01 -0.44913307004E+02  0.81062063593E+02  0.92780744521E+02  0.00000000000E+00 0.  1.
         11    1    4    4    0    0 -0.15452172047E+02  0.41384273117E+02  0.96987501925E+02  0.10657393308E+03  0.00000000000E+00 0. -1.
         -1    1    1    2    0  502  0.20506159366E+02  0.63538653638E+02  0.17477801755E+03  0.18709628135E+03  0.00000000000E+00 0.  1.
<scales pt_clust_5="13000.00000" pt_clust_6="13000.00000" pt_clust_7="13000.00000" pt_clust_8="13000.00000" pt_clust_9="66.76577"></scales>
<clustering>
<clus scale="   66.766">  2  9  1 -1</clus>
<clus scale="   80.753">  5  6 -1 -1</clus>
<clus scale="   87.357">  7  8 -1 -1</clus>
<clus scale="   87.670">  1  5  2 -1</clus>
<clus scale="   66.766">  2  5  1 -1</clus>
</clustering>
</event>
<event>
 9    1  0.5981539E-005  0.2975889E+03  0.7546771E-02  0.1086785E+00
          1   -1    0    0  502    0 -0.00000000000E+00  0.00000000000E+00  0.21733280332E+04  0.21733280332E+04  0.00000000000E+00 0. -1.
         21   -1    0    0  501  502  0.00000000000E+00 -0.00000000000E+00 -0.63252887610E+02  0.63252887610E+02  0.00000000000E+00 0. -1.
         23    2    1    2    0    0  0.29655491756E+02 -0.30800206680E+03  0.14732417086E+04  0.15080421313E+04  0.89471875899E+02 0.  0.
        -24    2    1    2    0    0  0.42298408596E+01  0.22641570978E+03  0.32336839819E+03  0.40286275418E+03  0.80307612131E+02 0.  0.
         11    1    4    4    0    0  0.15183149559E+02  0.16957250163E+03  0.17761103555E+03  0.24603056983E+03  0.00000000000E+00 0. -1.
        -12    1    4    4    0    0 -0.10953308699E+02  0.56843208150E+02  0.14575736264E+03  0.15683218435E+03  0.00000000000E+00 0.  1.
        -11    1    3    3    0    0  0.53317290529E+02 -0.17090549176E+03  0.94357577919E+03  0.96040963742E+03  0.00000000000E+00 0. -1.
         11    1    3    3    0    0 -0.23661798772E+02 -0.13709657504E+03  0.52966592941E+03  0.54763249391E+03  0.00000000000E+00 0.  1.
          2    1    1    2  501    0 -0.33885332616E+02  0.81586357013E+02  0.31346503883E+03  0.32567603533E+03  0.00000000000E+00 0. -1.
<scales pt_clust_5="13000.00000" pt_clust_6="13000.00000" pt_clust_7="13000.00000" pt_clust_8="13000.00000" pt_clust_9="88.34341"></scales>
<clustering>
<clus scale="   80.308">  5  6 -1 -1</clus>
<clus scale="   88.343">  2  9  1 -1</clus>
<clus scale="   89.472">  7  8 -1 -1</clus>
<clus scale="  294.963">  2  5  1 -1</clus>
<clus scale="   88.343">  2  5  1 -1</clus>
</clustering>
</event>
<event>
 9    1  0.5981539E-005  0.9571161E+02  0.7546771E-02  0.1298491E+00
          1   -1    0    0  502    0 -0.00000000000E+00  0.00000000000E+00  0.23136731577E+03  0.23136731577E+03  0.00000000000E+00 0. -1.
         21   -1    0    0  501  502  0.00000000000E+00 -0.00000000000E+00 -0.13282372621E+03  0.13282372621E+03  0.00000000000E+00 0.  1.
        -24    2    1    2    0    0 -0.22630728661E+02 -0.26393870749E+01  0.17747286760E+03  0.19562595203E+03  0.79080832898E+02 0.  0.
         23    2    1    2    0    0 -0.11622156181E+02 -0.81863262595E+01 -0.16456376997E+02  0.96500399884E+02  0.94018213033E+02 0.  0.
         11    1    3    3    0    0 -0.45792103628E+02 -0.41432812191E+01  0.16027180379E+03  0.16673672248E+03  0.00000000000E+00 0. -1.
        -12    1    3    3    0    0  0.23161374967E+02  0.15038941442E+01  0.17201063808E+02  0.28889229552E+02  0.00000000000E+00 0.  1.
        -13    1    4    4    0    0 -0.35596939296E+02  0.30115030235E+02  0.42022448668E+01  0.46815766524E+02  0.00000000000E+00 0. -1.
         13    1    4    4    0    0  0.23974783115E+02 -0.38301356495E+02 -0.20658621864E+02  0.49684633359E+02  0.00000000000E+00 0.  1.
          2    1    1    2  501    0  0.34252884842E+02  0.10825713334E+02 -0.62472901046E+02  0.72064690066E+02  0.00000000000E+00 0. -1.
<scales pt_clust_5="13000.00000" pt_clust_6="13000.00000" pt_clust_7="13000.00000" pt_clust_8="13000.00000" pt_clust_9="35.92292"></scales>
<clustering>
<clus scale="   35.923">  2  9  1 -1</clus>
<clus scale="   79.081">  5  6 -1 -1</clus>
<clus scale="   81.087">  1  5  2 -1</clus>
<clus scale="   94.018">  7  8 -1 -1</clus>
<clus scale="   35.923">  2  5  1 -1</clus>
</clustering>
</event>
<event>
 9    1  0.5981539E-005  0.1043858E+03  0.7546771E-02  0.1274536E+00
          1   -1    0    0  502    0 -0.00000000000E+00  0.00000000000E+00  0.20279144076E+03  0.20279144076E+03  0.00000000000E+00 0. -1.
         21   -1    0    0  501  502  0.00000000000E+00 -0.00000000000E+00 -0.86138542398E+02  0.86138542398E+02  0.00000000000E+00 0. -1.
         23    2    1    2    0    0 -0.26016671392E+02 -0.55052127159E+02  0.53963235954E+02  0.11992692367E+03  0.88106936682E+02 0.  0.
        -24    2    1    2    0    0  0.93983950225E+00  0.51349463660E+02 -0.60094350023E+01  0.95776539703E+02  0.80618741816E+02 0.  0.
         11    1    4    4    0    0  0.39619842880E+02  0.20091509578E+02 -0.11090165976E+02  0.45786378852E+02  0.00000000000E+00 0. -1.
        -12    1    4    4    0    0 -0.38680003378E+02  0.31257954082E+02  0.50807309740E+01  0.49990160851E+02  0.00000000000E+00 0.  1.
        -11    1    3    3    0    0  0.29615133229E+02 -0.33104067345E+02  0.95460664290E+01  0.45431957642E+02  0.00000000000E+00 0.  1.
         11    1    3    3    0    0 -0.55631804621E+02 -0.21948059814E+02  0.44417169525E+02  0.74494966029E+02  0.00000000000E+00 0. -1.
          2    1    1    2  501    0  0.25076831890E+02  0.37026634987E+01  0.68699097409E+02  0.73226519783E+02  0.00000000000E+00 0. -1.
<scales pt_clust_5="13000.00000" pt_clust_6="13000.00000" pt_clust_7="13000.00000" pt_clust_8="13000.00000" pt_clust_9="25.34872"></scales>
<clustering>
<clus scale="   25.349">  2  9  1 -1</clus>
<clus scale="   80.619">  5  6 -1 -1</clus>
<clus scale="   88.107">  7  8 -1 -1</clus>
<clus scale="   98.148">  2  5  1 -1</clus>
<clus scale="   25.349">  2  5  1 -1</clus>
</clustering>
</event>
<event>
 9    1  0.5981539E-005  0.1039648E+03  0.7546771E-02  0.1276840E+00
         -2   -1    0    0    0  501 -0.00000000000E+00  0.00000000000E+00  0.26120478426E+03  0.26120478426E+03  0.00000000000E+00 0.  1.
         21   -1    0    0  501  502  0.00000000000E+00 -0.00000000000E+00 -0.12496507200E+03  0.12496507200E+03  0.00000000000E+00 0.  1.
         23    2    1    2    0    0 -0.35376297509E+00 -0.48108369694E+02  0.19288322639E+03  0.21903822323E+03  0.91974256328E+02 0.  0.
        -24    2    1    2    0    0 -0.21311031928E+02  0.51094890558E+02 -0.85711322903E+02  0.13075553991E+03  0.81766328154E+02 0.  0.
         11    1    4    4    0    0  0.11501188442E+01  0.62452577487E+02 -0.29320199460E+02  0.69002328254E+02  0.00000000000E+00 0. -1.
        -12    1    4    4    0    0 -0.22461150772E+02 -0.11357686929E+02 -0.56391123443E+02  0.61753211654E+02  0.00000000000E+00 0.  1.
        -11    1    3    3    0    0 -0.17950853499E+02 -0.69003004126E+02  0.16621405402E+03  0.18086116077E+03  0.00000000000E+00 0.  1.
         11    1    3    3    0    0  0.17597090524E+02  0.20894634433E+02  0.26669172373E+02  0.38177062459E+02  0.00000000000E+00 0. -1.
         -1    1    1    2    0  502  0.21664794903E+02 -0.29865208645E+01  0.29067808762E+02  0.36376093128E+02  0.00000000000E+00 0.  1.
<scales pt_clust_5="13000.00000" pt_clust_6="13000.00000" pt_clust_7="13000.00000" pt_clust_8="13000.00000" pt_clust_9="21.86969"></scales>
<clustering>
<clus scale="   21.870">  2  9  1 -1</clus>
<clus scale="   81.766">  5  6 -1 -1</clus>
<clus scale="   91.974">  7  8 -1 -1</clus>
<clus scale="   95.053">  2  5  1 -1</clus>
<clus scale="   21.870">  2  5  1 -1</clus>
</clustering>
</event>
<event>
 9    1  0.5981539E-005  0.1334814E+03  0.7546771E-02  0.1232316E+00
         21   -1    0    0  501  502  0.00000000000E+00  0.00000000000E+00  0.88144926201E+02  0.88144926201E+02  0.00000000000E+00 0. -1.
          1   -1    0    0  502    0 -0.00000000000E+00 -0.00000000000E+00 -0.61619995982E+03  0.61619995982E+03  0.00000000000E+00 0. -1.
         23    2    1    2    0    0  0.35740522967E+02  0.50642904088E+02  0.10344308335E+02  0.10911417395E+03  0.89200950247E+02 0.  0.
        -24    2    1    2    0    0  0.86780553719E+02 -0.65453347937E+02 -0.27992630901E+03  0.30880607585E+03  0.72023945619E+02 0.  0.
         13    1    4    4    0    0  0.33494490782E+02  0.51287905877E+01 -0.13360365253E+03  0.13783367286E+03  0.00000000000E+00 0. -1.
        -14    1    4    4    0    0  0.53286062937E+02 -0.70582138525E+02 -0.14632265649E+03  0.17097240299E+03  0.00000000000E+00 0.  1.
        -13    1    3    3    0    0 -0.25007411237E+02  0.33807877676E+02  0.17747600409E+02  0.45643406205E+02  0.00000000000E+00 0.  1.
         13    1    3    3    0    0  0.60747934204E+02  0.16835026411E+02 -0.74032920743E+01  0.63470767743E+02  0.00000000000E+00 0. -1.
          2    1    1    2  501    0 -0.12252107669E+03  0.14810443850E+02 -0.25847303294E+03  0.28642463622E+03  0.00000000000E+00 0. -1.
<scales pt_clust_5="13000.00000" pt_clust_6="13000.00000" pt_clust_7="13000.00000" pt_clust_8="13000.00000" pt_clust_9="112.38261"></scales>
<clustering>
<clus scale="   72.024">  5  6 -1 -1</clus>
<clus scale="   89.201">  7  8 -1 -1</clus>
<clus scale="  108.623">  2  7  1 -1</clus>
<clus scale="  112.383">  1  9  2 -1</clus>
<clus scale="  112.383">  1  5  2 -1</clus>
</clustering>
</event>
<event>
 9    1  0.5981539E-005  0.1027291E+03  0.7546771E-02  0.1279613E+00
         21   -1    0    0  501  502  0.00000000000E+00  0.00000000000E+00  0.16580746130E+03  0.16580746130E+03  0.00000000000E+00 0.  1.
          1   -1    0    0  502    0 -0.00000000000E+00 -0.00000000000E+00 -0.10457823262E+03  0.10457823262E+03  0.00000000000E+00 0. -1.
        -24    2    1    2    0    0 -0.13018024607E+02  0.59592097593E+02 -0.24202291647E+02  0.10475580525E+03  0.81653785902E+02 0.  0.
         23    2    1    2    0    0 -0.71380129006E+01 -0.17819426735E+02  0.45994192703E+02  0.10474865438E+03  0.92132142248E+02 0.  0.
         11    1    3    3    0    0  0.27255846131E+02 -0.27333942985E+01 -0.10265521879E+02  0.29252923481E+02  0.00000000000E+00 0. -1.
        -12    1    3    3    0    0 -0.40273870738E+02  0.62325491892E+02 -0.13936769768E+02  0.75502881769E+02  0.00000000000E+00 0.  1.
        -13    1    4    4    0    0 -0.33743284674E+02 -0.28123439756E+02 -0.70784949580E+01  0.44493170433E+02  0.00000000000E+00 0. -1.
         13    1    4    4    0    0  0.26605271773E+02  0.10304013022E+02  0.53072687661E+02  0.60255483950E+02  0.00000000000E+00 0.  1.
          2    1    1    2  501    0  0.20156037507E+02 -0.41772670859E+02  0.39437327619E+02  0.60881234288E+02  0.00000000000E+00 0. -1.
<scales pt_clust_5="13000.00000" pt_clust_6="13000.00000" pt_clust_7="13000.00000" pt_clust_8="13000.00000" pt_clust_9="46.38127"></scales>
<clustering>
<clus scale="   46.381">  1  9  2 -1</clus>
<clus scale="   81.654">  5  6 -1 -1</clus>
<clus scale="   92.132">  7  8 -1 -1</clus>
<clus scale="   93.447">  2  5  1 -1</clus>
<clus scale="   46.381">  1  5  2 -1</clus>
</clustering>
</event>
<event>
 9    1  0.5981539E-005  0.1166965E+03  0.7546771E-02  0.1265107E+00
         21   -1    0    0  501  502  0.00000000000E+00  0.00000000000E+00  0.61479389511E+02  0.61479389511E+02  0.00000000000E+00 0. -1.
          3   -1    0    0  502    0 -0.00000000000E+00 -0.00000000000E+00 -0.56656938512E+03  0.56656938512E+03  0.00000000000E+00 0. -1.
        -24    2    1    2    0    0  0.14698327930E+02  0.19911416273E+02 -0.30396446425E+03  0.31543881736E+03  0.80589990910E+02 0.  0.
         23    2    1    2    0    0  0.37740769666E+02  0.50165041246E+02 -0.24434027185E+02  0.11542867899E+03  0.93732924791E+02 0.  0.
         11    1    3    3    0    0  0.41723024122E+02 -0.95923801066E+01 -0.12750793862E+03  0.13450315576E+03  0.00000000000E+00 0. -1.
        -12    1    3    3    0    0 -0.27024696192E+02  0.29503796380E+02 -0.17645652563E+03  0.18093566161E+03  0.00000000000E+00 0.  1.
        -11    1    4    4    0    0  0.31832011776E+02 -0.21059834761E+02  0.42789072034E+01  0.38407065245E+02  0.00000000000E+00 0.  1.
         11    1    4    4    0    0  0.59087578899E+01  0.71224876007E+02 -0.28712934389E+02  0.77021613741E+02  0.00000000000E+00 0. -1.
          4    1    1    2  501    0 -0.52439097596E+02 -0.70076457519E+02 -0.17669150417E+03  0.19718127828E+03  0.00000000000E+00 0. -1.
<scales pt_clust_5="13000.00000" pt_clust_6="13000.00000" pt_clust_7="13000.00000" pt_clust_8="13000.00000" pt_clust_9="69.51414"></scales>
<clustering>
<clus scale="   80.590">  5  6 -1 -1</clus>
<clus scale="   84.305">  2  5  1 -1</clus>
<clus scale="   69.514">  1  9  2 -1</clus>
<clus scale="   93.733">  7  8 -1 -1</clus>
<clus scale="   69.514">  1  5  2 -1</clus>
</clustering>
</event>
<event>
 9    1  0.5981539E-005  0.9441498E+02  0.7546771E-02  0.1295460E+00
         -2   -1    0    0    0  501 -0.00000000000E+00  0.00000000000E+00  0.44396460926E+03  0.44396460926E+03  0.00000000000E+00 0.  1.
         21   -1    0    0  501  502  0.00000000000E+00 -0.00000000000E+00 -0.84730892437E+02  0.84730892437E+02  0.00000000000E+00 0.  1.
         23    2    1    2    0    0  0.15124859558E+02 -0.67188051756E+01  0.19317904501E+03  0.21446826445E+03  0.91676547194E+02 0.  0.
        -24    2    1    2    0    0 -0.64232083082E+02 -0.67930218408E+02 -0.55510278321E+01  0.12075240096E+03  0.76223706014E+02 0.  0.
         11    1    4    4    0    0 -0.69427394352E+02 -0.65908923990E+02  0.17257357978E+02  0.97272636196E+02  0.00000000000E+00 0. -1.
        -12    1    4    4    0    0  0.51953112702E+01 -0.20212944181E+01 -0.22808385810E+02  0.23479764768E+02  0.00000000000E+00 0.  1.
        -11    1    3    3    0    0  0.51116420906E+02 -0.19069794059E+02  0.12504233281E+03  0.13642628239E+03  0.00000000000E+00 0.  1.
         11    1    3    3    0    0 -0.35991561348E+02  0.12350988883E+02  0.68136712198E+02  0.78041982060E+02  0.00000000000E+00 0. -1.
         -1    1    1    2    0  502  0.49107223524E+02  0.74649023584E+02  0.17160569965E+03  0.19347483629E+03  0.00000000000E+00 0.  1.
<scales pt_clust_5="13000.00000" pt_clust_6="13000.00000" pt_clust_7="13000.00000" pt_clust_8="13000.00000" pt_clust_9="89.35325"></scales>
<clustering>
<clus scale="   76.224">  5  6 -1 -1</clus>
<clus scale="   89.353">  2  9  1 -1</clus>
<clus scale="   89.353">  2  5  1 -1</clus>
<clus scale="   91.677">  7  8 -1 -1</clus>
<clus scale="   89.353">  2  5  1 -1</clus>
</clustering>
</event>
<event>
 9    1  0.5981539E-005  0.8936081E+02  0.7546771E-02  0.1311801E+00
         21   -1    0    0  501  502  0.00000000000E+00  0.00000000000E+00  0.12642318136E+03  0.12642318136E+03  0.00000000000E+00 0.  1.
          1   -1    0    0  502    0 -0.00000000000E+00 -0.00000000000E+00 -0.17582747700E+03  0.17582747700E+03  0.00000000000E+00 0. -1.
         23    2    1    2    0    0  0.16055686332E+02 -0.14077230409E+02 -0.93862452490E+02  0.13071875145E+03  0.88437992481E+02 0.  0.
        -24    2    1    2    0    0 -0.26221178758E+01 -0.47078527919E+02 -0.68336012998E+01  0.90591607962E+02  0.77051139078E+02 0.  0.
         13    1    4    4    0    0  0.19421891809E+02 -0.30665612238E+02 -0.35575009185E+02  0.50824904662E+02  0.00000000000E+00 0. -1.
        -14    1    4    4    0    0 -0.22044009685E+02 -0.16412915681E+02  0.28741407885E+02  0.39766703300E+02  0.00000000000E+00 0.  1.
        -13    1    3    3    0    0  0.29906817277E+02  0.31012980915E+02 -0.36610011698E+02  0.56537736614E+02  0.00000000000E+00 0. -1.
         13    1    3    3    0    0 -0.13851130945E+02 -0.45090211324E+02 -0.57252440792E+02  0.74181014838E+02  0.00000000000E+00 0.  1.
          2    1    1    2  501    0 -0.13433568456E+02  0.61155758329E+02  0.51291758151E+02  0.80940298939E+02  0.00000000000E+00 0. -1.
<scales pt_clust_5="13000.00000" pt_clust_6="13000.00000" pt_clust_7="13000.00000" pt_clust_8="13000.00000" pt_clust_9="62.61380"></scales>
<clustering>
<clus scale="   62.614">  1  9  2 -1</clus>
<clus scale="   77.051">  5  6 -1 -1</clus>
<clus scale="   78.109">  1  5  2 -1</clus>
<clus scale="   88.438">  7  8 -1 -1</clus>
<clus scale="   62.614">  1  5  2 -1</clus>
</clustering>
</event>
<event>
 9    1  0.5981539E-005  0.9638397E+02  0.7546771E-02  0.1295176E+00
         21   -1    0    0  501  502  0.00000000000E+00  0.00000000000E+00  0.16001505140E+03  0.16001505140E+03  0.00000000000E+00 0. -1.
          1   -1    0    0  502    0 -0.00000000000E+00 -0.00000000000E+00 -0.25838140982E+03  0.25838140982E+03  0.00000000000E+00 0. -1.
        -24    2    1    2    0    0 -0.82156736858E+01  0.39510667319E+02 -0.12255810905E+03  0.15297268314E+03  0.82167886469E+02 0.  0.
         23    2    1    2    0    0 -0.41196973529E+02  0.22347570046E+02 -0.81594217934E+02  0.13329231938E+03  0.94406681383E+02 0.  0.
         13    1    3    3    0    0  0.92433657578E+01  0.31988615874E+02 -0.47427086609E+01  0.33633385817E+02  0.00000000000E+00 0. -1.
        -14    1    3    3    0    0 -0.17459039444E+02  0.75220514443E+01 -0.11781540039E+03  0.11933929732E+03  0.00000000000E+00 0.  1.
        -13    1    4    4    0    0 -0.13177332852E+02  0.27082424910E+02  0.14253649243E+02  0.33320659610E+02  0.00000000000E+00 0.  1.
         13    1    4    4    0    0 -0.28019640676E+02 -0.47348548644E+01 -0.95847867177E+02  0.99971659767E+02  0.00000000000E+00 0. -1.
          2    1    1    2  501    0  0.49412647214E+02 -0.61858237365E+02  0.10578596856E+03  0.13213145870E+03  0.00000000000E+00 0. -1.
<scales pt_clust_5="13000.00000" pt_clust_6="13000.00000" pt_clust_7="13000.00000" pt_clust_8="13000.00000" pt_clust_9="79.17103"></scales>
<clustering>
<clus scale="   79.171">  1  9  2 -1</clus>
<clus scale="   82.168">  5  6 -1 -1</clus>
<clus scale="   84.432">  2  5  1 -1</clus>
<clus scale="   94.407">  7  8 -1 -1</clus>
<clus scale="   79.171">  1  5  2 -1</clus>
</clustering>
</event>
<event>
 9    1  0.5981539E-005  0.1083455E+03  0.7546771E-02  0.1268152E+00
          1   -1    0    0  502    0 -0.00000000000E+00  0.00000000000E+00  0.68342377797E+02  0.68342377797E+02  0.00000000000E+00 0. -1.
         21   -1    0    0  501  502  0.00000000000E+00 -0.00000000000E+00 -0.23102082724E+03  0.23102082724E+03  0.00000000000E+00 0.  1.
         23    2    1    2    0    0 -0.25691331921E+02  0.45734796422E+02 -0.48639627543E+02  0.11558954350E+03  0.90793243461E+02 0.  0.
        -24    2    1    2    0    0  0.61114407560E+02 -0.38268180994E+02 -0.79324246983E+02  0.13361744213E+03  0.79761270019E+02 0.  0.
         11    1    4    4    0    0  0.24732151806E+02 -0.55683309344E+01  0.13478283493E+02  0.28711491919E+02  0.00000000000E+00 0. -1.
        -12    1    4    4    0    0  0.36382255755E+02 -0.32699850060E+02 -0.92802530476E+02  0.10490595022E+03  0.00000000000E+00 0.  1.
        -11    1    3    3    0    0 -0.39242175103E+02  0.43044094480E+01 -0.58807352516E+02  0.70829238013E+02  0.00000000000E+00 0.  1.
         11    1    3    3    0    0  0.13550843182E+02  0.41430386974E+02  0.10167724973E+02  0.44760305482E+02  0.00000000000E+00 0. -1.
          2    1    1    2  501    0 -0.35423075639E+02 -0.74666154277E+01 -0.34714574920E+02  0.50156219410E+02  0.00000000000E+00 0. -1.
<scales pt_clust_5="13000.00000" pt_clust_6="13000.00000" pt_clust_7="13000.00000" pt_clust_8="13000.00000" pt_clust_9="36.20145"></scales>
<clustering>
<clus scale="   36.201">  2  9  1 -1</clus>
<clus scale="   79.761">  5  6 -1 -1</clus>
<clus scale="   90.793">  7  8 -1 -1</clus>
<clus scale="   99.283">  2  5  1 -1</clus>
<clus scale="   36.201">  2  5  1 -1</clus>
</clustering>
</event>
<event>
 9    1  0.5981539E-005  0.1231250E+03  0.7546771E-02  0.1242177E+00
         21   -1    0    0  501  502  0.00000000000E+00  0.00000000000E+00  0.15073279169E+03  0.15073279169E+03  0.00000000000E+00 0. -1.
          1   -1    0    0  502    0 -0.00000000000E+00 -0.00000000000E+00 -0.36879281983E+03  0.36879281983E+03  0.00000000000E+00 0. -1.
         23    2    1    2    0    0  0.75791415143E+02  0.31369781884E+02 -0.28693796323E+03  0.31175775135E+03  0.90172606472E+02 0.  0.
        -24    2    1    2    0    0 -0.10800506352E+03  0.17404487977E+02  0.27185492341E+02  0.13597016993E+03  0.76031744485E+02 0.  0.
         11    1    4    4    0    0 -0.72420991054E+02 -0.44378322944E+01  0.50261167722E+02  0.88264824712E+02  0.00000000000E+00 0. -1.
        -12    1    4    4    0    0 -0.35584072465E+02  0.21842320272E+02 -0.23075675381E+02  0.47705345218E+02  0.00000000000E+00 0.  1.
        -13    1    3    3    0    0  0.93633629876E+02  0.14254435214E+02 -0.19865090492E+03  0.22007414113E+03  0.00000000000E+00 0. -1.
         13    1    3    3    0    0 -0.17842214733E+02  0.17115346669E+02 -0.88287058308E+02  0.91683610220E+02  0.00000000000E+00 0.  1.
          2    1    1    2  501    0  0.32213648376E+02 -0.48774269861E+02  0.41692442744E+02  0.71797690242E+02  0.00000000000E+00 0. -1.
<scales pt_clust_5="13000.00000" pt_clust_6="13000.00000" pt_clust_7="13000.00000" pt_clust_8="13000.00000" pt_clust_9="58.45210"></scales>
<clustering>
<clus scale="   58.452">  1  9  2 -1</clus>
<clus scale="   76.032">  5  6 -1 -1</clus>
<clus scale="   90.173">  7  8 -1 -1</clus>
<clus scale="  113.179">  1  5  2 -1</clus>
<clus scale="   58.452">  1  5  2 -1</clus>
</clustering>
</event>
<event>
 9    1  0.5981539E-005  0.2603571E+03  0.7546771E-02  0.1148870E+00
          1   -1    0    0  502    0 -0.00000000000E+00  0.00000000000E+00  0.17512886416E+03  0.17512886416E+03  0.00000000000E+00 0. -1.
         21   -1    0    0  501  502  0.00000000000E+00 -0.00000000000E+00 -0.55160469912E+03  0.55160469912E+03  0.00000000000E+00 0. -1.
         23    2    1    2    0    0 -0.82520119188E-01 -0.12767819212E+02 -0.36280663277E+02  0.99405135690E+02  0.91662808471E+02 0.  0.
        -24    2    1    2    0    0  0.22671023173E+03 -0.91995480057E+02 -0.86797899241E+02  0.27159587885E+03  0.79810704642E+02 0.  0.
         13    1    4    4    0    0  0.20140067089E+03 -0.54469371212E+02 -0.53449682736E+02  0.21537411919E+03  0.00000000000E+00 0. -1.
        -14    1    4    4    0    0  0.25309560843E+02 -0.37526108846E+02 -0.33348216504E+02  0.56221759659E+02  0.00000000000E+00 0.  1.
        -13    1    3    3    0    0 -0.14331385960E+02 -0.47722932530E+02 -0.44472678691E+01  0.50026444050E+02  0.00000000000E+00 0. -1.
         13    1    3    3    0    0  0.14248865841E+02  0.34955113319E+02 -0.31833395408E+02  0.49378691640E+02  0.00000000000E+00 0.  1.
          2    1    1    2  501    0 -0.22662771161E+03  0.10476329927E+03 -0.25339727245E+03  0.35573254873E+03  0.00000000000E+00 0. -1.
<scales pt_clust_5="13000.00000" pt_clust_6="13000.00000" pt_clust_7="13000.00000" pt_clust_8="13000.00000" pt_clust_9="247.82263"></scales>
<clustering>
<clus scale="   79.811">  5  6 -1 -1</clus>
<clus scale="   91.663">  7  8 -1 -1</clus>
<clus scale="   92.548">  1  7  2 -1</clus>
<clus scale="  247.823">  2  9  1 -1</clus>
<clus scale="  247.823">  2  5  1 -1</clus>
</clustering>
</event>
<event>
 9    1  0.5981539E-005  0.9160332E+02  0.7546771E-02  0.1304455E+00
         21   -1    0    0  501  502  0.00000000000E+00  0.00000000000E+00  0.76495131703E+02  0.76495131703E+02  0.00000000000E+00 0.  1.
          1   -1    0    0  502    0 -0.00000000000E+00 -0.00000000000E+00 -0.30776340967E+03  0.30776340967E+03  0.00000000000E+00 0. -1.
        -24    2    1    2    0    0 -0.71538046062E+01 -0.21197862995E+02 -0.48650191958E+02  0.97388423123E+02  0.81345789473E+02 0.  0.
         23    2    1    2    0    0 -0.37051688009E+02 -0.47029410404E+00  0.21292304976E+00  0.97527010419E+02  0.90213212249E+02 0.  0.
         11    1    3    3    0    0  0.23936148860E+02 -0.31026095139E+02 -0.44199796576E+00  0.39188686684E+02  0.00000000000E+00 0. -1.
        -12    1    3    3    0    0 -0.31089953466E+02  0.98282321443E+01 -0.48208193992E+02  0.58199736439E+02  0.00000000000E+00 0.  1.
        -11    1    4    4    0    0 -0.28259231316E+02  0.41225377795E+02  0.15382642555E+02  0.52294757107E+02  0.00000000000E+00 0.  1.
         11    1    4    4    0    0 -0.87924566932E+01 -0.41695671899E+02 -0.15169719505E+02  0.45232253312E+02  0.00000000000E+00 0. -1.
          2    1    1    2  501    0  0.44205492616E+02  0.21668157099E+02 -0.18283100906E+03  0.18934310783E+03  0.00000000000E+00 0. -1.
<scales pt_clust_5="13000.00000" pt_clust_6="13000.00000" pt_clust_7="13000.00000" pt_clust_8="13000.00000" pt_clust_9="49.23045"></scales>
<clustering>
<clus scale="   49.230">  1  9  2 -1</clus>
<clus scale="   81.346">  5  6 -1 -1</clus>
<clus scale="   82.885">  2  5  1 -1</clus>
<clus scale="   90.213">  7  8 -1 -1</clus>
<clus scale="   49.230">  1  5  2 -1</clus>
</clustering>
</event>
<event>
 9    1  0.8602466E-005  0.1853739E+03  0.7546771E-02  0.1192108E+00
          1   -1    0    0  502    0 -0.00000000000E+00  0.00000000000E+00  0.10100799169E+04  0.10100799169E+04  0.00000000000E+00 0. -1.
         21   -1    0    0  501  502  0.00000000000E+00 -0.00000000000E+00 -0.22054128208E+03  0.22054128208E+03  0.00000000000E+00 0.  1.
         23    2    1    2    0    0 -0.18212975065E+02  0.41702450541E+02  0.52693777520E+03  0.53550703677E+03  0.83866326100E+02 0.  0.
        -24    2    1    2    0    0  0.14862958841E+03  0.76535044403E+02 -0.15532293457E+03  0.24162888572E+03  0.79441405078E+02 0.  0.
         13    1    4    4    0    0  0.26024352524E+02  0.60923337689E+01 -0.73617561204E+02  0.78319402275E+02  0.00000000000E+00 0. -1.
        -14    1    4    4    0    0  0.12260523588E+03  0.70442710634E+02 -0.81705373365E+02  0.16330948345E+03  0.00000000000E+00 0.  1.
        -13    1    3    3    0    0 -0.10325107775E+02  0.67523244593E+02  0.38898721872E+03  0.39493930260E+03  0.00000000000E+00 0. -1.
         13    1    3    3    0    0 -0.78878672901E+01 -0.25820794052E+02  0.13795055647E+03  0.14056773416E+03  0.00000000000E+00 0.  1.
          2    1    1    2  501    0 -0.13041661334E+03 -0.11823749494E+03  0.41792379414E+03  0.45348527645E+03  0.00000000000E+00 0. -1.
<scales pt_clust_5="13000.00000" pt_clust_6="13000.00000" pt_clust_7="13000.00000" pt_clust_8="13000.00000" pt_clust_9="167.48903"></scales>
<clustering>
<clus scale="   79.441">  5  6 -1 -1</clus>
<clus scale="   83.866">  7  8 -1 -1</clus>
<clus scale="   95.417">  1  7  2 -1</clus>
<clus scale="  167.489">  2  9  1 -1</clus>
<clus scale="  167.489">  2  5  1 -1</clus>
</clustering>
</event>
<event>
 9    1  0.5981539E-005  0.1665700E+03  0.7546771E-02  0.1183181E+00
         21   -1    0    0  501  502  0.00000000000E+00  0.00000000000E+00  0.22108014609E+03  0.22108014609E+03  0.00000000000E+00 0. -1.
          3   -1    0    0  502    0 -0.00000000000E+00 -0.00000000000E+00 -0.34046877001E+03  0.34046877001E+03  0.00000000000E+00 0. -1.
        -24    2    1    2    0    0  0.13911252491E+03  0.35446643103E+02 -0.24695477323E+03  0.29680445413E+03  0.80606853795E+02 0.  0.
         23    2    1    2    0    0 -0.94946655867E+02 -0.86492826097E+02  0.59955451071E+02  0.16920628477E+03  0.92413387907E+02 0.  0.
         11    1    3    3    0    0  0.14526369359E+03  0.44875619540E+02 -0.23801078326E+03  0.28242608742E+03  0.00000000000E+00 0. -1.
        -12    1    3    3    0    0 -0.61511686857E+01 -0.94289764371E+01 -0.89439899712E+01  0.14378366717E+02  0.00000000000E+00 0.  1.
        -13    1    4    4    0    0  0.66657699440E+01 -0.47621715892E+02  0.28752417119E+02  0.56026438434E+02  0.00000000000E+00 0. -1.
         13    1    4    4    0    0 -0.10161242581E+03 -0.38871110205E+02  0.31203033952E+02  0.11317984633E+03  0.00000000000E+00 0.  1.
          4    1    1    2  501    0 -0.44165869042E+02  0.51046182994E+02  0.67610698237E+02  0.95538177200E+02  0.00000000000E+00 0. -1.
<scales pt_clust_5="13000.00000" pt_clust_6="13000.00000" pt_clust_7="13000.00000" pt_clust_8="13000.00000" pt_clust_9="67.50064"></scales>
<clustering>
<clus scale="   67.501">  1  9  2 -1</clus>
<clus scale="   80.607">  5  6 -1 -1</clus>
<clus scale="   92.413">  7  8 -1 -1</clus>
<clus scale="  160.321">  2  5  1 -1</clus>
<clus scale="   67.501">  1  5  2 -1</clus>
</clustering>
</event>
<event>
 9    1  0.5981539E-005  0.1168391E+03  0.7546771E-02  0.1251727E+00
         21   -1    0    0  501  502  0.00000000000E+00  0.00000000000E+00  0.16142156268E+03  0.16142156268E+03  0.00000000000E+00 0. -1.
          1   -1    0    0  502    0 -0.00000000000E+00 -0.00000000000E+00 -0.16942184514E+03  0.16942184514E+03  0.00000000000E+00 0. -1.
         23    2    1    2    0    0  0.45593778559E+02 -0.56604490049E+02 -0.83545836279E+02  0.14298668497E+03  0.90456754217E+02 0.  0.
        -24    2    1    2    0    0 -0.77511924385E+02  0.36582115846E+02  0.89380959615E+02  0.14771843744E+03  0.80532174914E+02 0.  0.
         11    1    4    4    0    0 -0.50230590374E+02  0.58966141168E+02  0.79667036674E+02  0.11111685176E+03  0.00000000000E+00 0. -1.
        -12    1    4    4    0    0 -0.27281334011E+02 -0.22384025323E+02  0.97139229410E+01  0.36601585675E+02  0.00000000000E+00 0.  1.
        -11    1    3    3    0    0 -0.15901869894E+02 -0.36868510249E+02 -0.63921812552E+02  0.75486122129E+02  0.00000000000E+00 0.  1.
         11    1    3    3    0    0  0.61495648452E+02 -0.19735979800E+02 -0.19624023727E+02  0.67500562846E+02  0.00000000000E+00 0. -1.
          2    1    1    2  501    0  0.31918145826E+02  0.20022374203E+02 -0.13835405795E+02  0.40138285405E+02  0.00000000000E+00 0. -1.
<scales pt_clust_5="13000.00000" pt_clust_6="13000.00000" pt_clust_7="13000.00000" pt_clust_8="13000.00000" pt_clust_9="37.67844"></scales>
<clustering>
<clus scale="   37.678">  1  9  2 -1</clus>
<clus scale="   80.532">  5  6 -1 -1</clus>
<clus scale="   90.457">  7  8 -1 -1</clus>
<clus scale="  109.336">  1  5  2 -1</clus>
<clus scale="   37.678">  1  5  2 -1</clus>
</clustering>
</event>
<event>
 9    1  0.5981539E-005  0.1016296E+03  0.7546771E-02  0.1284990E+00
          1   -1    0    0  502    0 -0.00000000000E+00  0.00000000000E+00  0.22083230966E+03  0.22083230966E+03  0.00000000000E+00 0. -1.
         21   -1    0    0  501  502  0.00000000000E+00 -0.00000000000E+00 -0.18033582470E+03  0.18033582470E+03  0.00000000000E+00 0.  1.
         23    2    1    2    0    0  0.27269721427E+02  0.37253334163E+02  0.17932315279E+03  0.20690259308E+03  0.92306236424E+02 0.  0.
        -24    2    1    2    0    0  0.64794957207E+01 -0.33038448629E+02 -0.45266920392E+02  0.94715547499E+02  0.76081652872E+02 0.  0.
         13    1    4    4    0    0  0.12822012046E+02  0.23183716489E+02 -0.16892597272E+02  0.31420511545E+02  0.00000000000E+00 0. -1.
        -14    1    4    4    0    0 -0.63425163255E+01 -0.56222165118E+02 -0.28374323120E+02  0.63295035954E+02  0.00000000000E+00 0.  1.
        -11    1    3    3    0    0 -0.20261470345E+02  0.19510988664E+01  0.25943768828E+01  0.20519862542E+02  0.00000000000E+00 0.  1.
         11    1    3    3    0    0  0.47531191772E+02  0.35302235296E+02  0.17672877591E+03  0.18638273054E+03  0.00000000000E+00 0. -1.
          2    1    1    2  501    0 -0.33749217148E+02 -0.42148855341E+01 -0.93559747448E+02  0.99549993776E+02  0.00000000000E+00 0. -1.
<scales pt_clust_5="13000.00000" pt_clust_6="13000.00000" pt_clust_7="13000.00000" pt_clust_8="13000.00000" pt_clust_9="34.01139"></scales>
<clustering>
<clus scale="   34.011">  2  9  1 -1</clus>
<clus scale="   76.082">  5  6 -1 -1</clus>
<clus scale="   87.158">  2  5  1 -1</clus>
<clus scale="   92.306">  7  8 -1 -1</clus>
<clus scale="   34.011">  2  5  1 -1</clus>
</clustering>
</event>
<event>
 9    1  0.5981539E-005  0.9039669E+02  0.7546771E-02  0.1308093E+00
         21   -1    0    0  501  502  0.00000000000E+00  0.00000000000E+00  0.81687329762E+02  0.81687329762E+02  0.00000000000E+00 0. -1.
          3   -1    0    0  502    0 -0.00000000000E+00 -0.00000000000E+00 -0.12063377960E+03  0.12063377960E+03  0.00000000000E+00 0. -1.
         23    2    1    2    0    0  0.86994228085E+01 -0.85038229588E+01 -0.42287669855E+02  0.10021225702E+03  0.90034740374E+02 0.  0.
        -24    2    1    2    0    0  0.11820325071E+02  0.74474714447E+01  0.28293448343E+01  0.81555557031E+02  0.80300179170E+02 0.  0.
         11    1    4    4    0    0  0.34651458818E+02 -0.42229387317E+01 -0.25586884853E+02  0.43281006067E+02  0.00000000000E+00 0. -1.
        -12    1    4    4    0    0 -0.22831133747E+02  0.11670410176E+02  0.28416229687E+02  0.38274550964E+02  0.00000000000E+00 0.  1.
        -11    1    3    3    0    0  0.11040871035E+02  0.40192605445E+02 -0.24296266769E+02  0.48245776443E+02  0.00000000000E+00 0.  1.
         11    1    3    3    0    0 -0.23414482265E+01 -0.48696428404E+02 -0.17991403086E+02  0.51966480582E+02  0.00000000000E+00 0. -1.
          4    1    1    2  501    0 -0.20519747879E+02  0.10563515140E+01  0.51187518604E+00  0.20553295302E+02  0.00000000000E+00 0. -1.
<scales pt_clust_5="13000.00000" pt_clust_6="13000.00000" pt_clust_7="13000.00000" pt_clust_8="13000.00000" pt_clust_9="20.54692"></scales>
<clustering>
<clus scale="   20.547">  1  9  2 -1</clus>
<clus scale="   80.300">  5  6 -1 -1</clus>
<clus scale="   80.706">  1  5  2 -1</clus>
<clus scale="   90.035">  7  8 -1 -1</clus>
<clus scale="   20.547">  1  5  2 -1</clus>
</clustering>
</event>
<event>
 9    1  0.6376837E-005  0.1183899E+03  0.7546771E-02  0.1256560E+00
          3   -1    0    0  502    0 -0.00000000000E+00  0.00000000000E+00  0.38737193026E+03  0.38737193026E+03  0.00000000000E+00 0. -1.
         21   -1    0    0  501  502  0.00000000000E+00 -0.00000000000E+00 -0.81495567419E+02  0.81495567419E+02  0.00000000000E+00 0.  1.
         23    2    1    2    0    0  0.21049809561E+02  0.52092305446E+02  0.13312062783E+03  0.17664008545E+03  0.10160667038E+03 0.  0.
        -24    2    1    2    0    0  0.56795933473E+01 -0.78053104578E+02 -0.79084105478E+01  0.10776072808E+03  0.73656545148E+02 0.  0.
         11    1    4    4    0    0  0.14075591765E+02 -0.29667973918E+02  0.30960492440E+02  0.45131619205E+02  0.00000000000E+00 0. -1.
        -12    1    4    4    0    0 -0.83959984177E+01 -0.48385130660E+02 -0.38868902988E+02  0.62629108870E+02  0.00000000000E+00 0.  1.
        -13    1    3    3    0    0 -0.35885106906E+02  0.22369020218E+02  0.20501408277E+02  0.46993847518E+02  0.00000000000E+00 0. -1.
         13    1    3    3    0    0  0.56934916467E+02  0.29723285228E+02  0.11261921955E+03  0.12964623793E+03  0.00000000000E+00 0.  1.
          4    1    1    2  501    0 -0.26729402908E+02  0.25960799132E+02  0.18066414556E+03  0.18446668416E+03  0.00000000000E+00 0. -1.
<scales pt_clust_5="13000.00000" pt_clust_6="13000.00000" pt_clust_7="13000.00000" pt_clust_8="13000.00000" pt_clust_9="37.26158"></scales>
<clustering>
<clus scale="   37.262">  2  9  1 -1</clus>
<clus scale="   73.657">  5  6 -1 -1</clus>
<clus scale="   95.486">  2  5  1 -1</clus>
<clus scale="  101.607">  7  8 -1 -1</clus>
<clus scale="   37.262">  2  5  1 -1</clus>
</clustering>
</event>
<event>
 9    1  0.5981539E-005  0.1005442E+03  0.7546771E-02  0.1286754E+00
         21   -1    0    0  501  502  0.00000000000E+00  0.00000000000E+00  0.62396259017E+02  0.62396259017E+02  0.00000000000E+00 0. -1.
          1   -1    0    0  502    0 -0.00000000000E+00 -0.00000000000E+00 -0.42248805782E+03  0.42248805782E+03  0.00000000000E+00 0. -1.
         23    2    1    2    0    0  0.13791211924E+02 -0.44201806636E+02 -0.31847922343E+03  0.33461739096E+03  0.91628518169E+02 0.  0.
        -24    2    1    2    0    0 -0.43234735549E+02  0.92801297136E+01 -0.53107001080E+02  0.10316526534E+03  0.76598663464E+02 0.  0.
         11    1    4    4    0    0  0.10609434699E+02 -0.23234639386E+02 -0.14900237201E+02  0.29570688877E+02  0.00000000000E+00 0. -1.
        -12    1    4    4    0    0 -0.53844170248E+02  0.32514769099E+02 -0.38206763879E+02  0.73594576467E+02  0.00000000000E+00 0.  1.
        -13    1    3    3    0    0  0.53166642342E+02 -0.27946958406E+02 -0.18583532153E+03  0.19530102680E+03  0.00000000000E+00 0.  1.
         13    1    3    3    0    0 -0.39375430417E+02 -0.16254848230E+02 -0.13264390190E+03  0.13931636416E+03  0.00000000000E+00 0. -1.
          2    1    1    2  501    0  0.29443523624E+02  0.34921676923E+02  0.11494425705E+02  0.47101660531E+02  0.00000000000E+00 0. -1.
<scales pt_clust_5="13000.00000" pt_clust_6="13000.00000" pt_clust_7="13000.00000" pt_clust_8="13000.00000" pt_clust_9="45.67762"></scales>
<clustering>
<clus scale="   45.678">  1  9  2 -1</clus>
<clus scale="   76.599">  5  6 -1 -1</clus>
<clus scale="   87.067">  1  5  2 -1</clus>
<clus scale="   91.629">  7  8 -1 -1</clus>
<clus scale="   45.678">  1  5  2 -1</clus>
</clustering>
</event>
<event>
 9    1  0.5981539E-005  0.1153419E+03  0.7546771E-02  0.1255053E+00
          3   -1    0    0  502    0 -0.00000000000E+00  0.00000000000E+00  0.11917293943E+04  0.11917293943E+04  0.00000000000E+00 0. -1.
         21   -1    0    0  501  502  0.00000000000E+00 -0.00000000000E+00 -0.16675025005E+02  0.16675025005E+02  0.00000000000E+00 0. -1.
        -24    2    1    2    0    0 -0.41582656034E+02  0.45195579241E+02  0.52050425761E+03  0.53053067498E+03  0.82257870341E+02 0.  0.
         23    2    1    2    0    0  0.81893481986E+02 -0.25719918228E+02  0.40826638287E+03  0.42755407043E+03  0.93557400439E+02 0.  0.
         13    1    3    3    0    0 -0.13244430037E+02 -0.24142577743E+02  0.15556251218E+03  0.15798092981E+03  0.00000000000E+00 0. -1.
        -14    1    3    3    0    0 -0.28338225997E+02  0.69338156984E+02  0.36494174543E+03  0.37254974517E+03  0.00000000000E+00 0.  1.
        -11    1    4    4    0    0  0.62738575008E+02  0.19306650540E+02  0.13705130312E+03  0.15196030809E+03  0.00000000000E+00 0. -1.
         11    1    4    4    0    0  0.19154906977E+02 -0.45026568768E+02  0.27121507975E+03  0.27559376234E+03  0.00000000000E+00 0.  1.
          4    1    1    2  501    0 -0.40310825952E+02 -0.19475661014E+02  0.24628372883E+03  0.25031967391E+03  0.00000000000E+00 0. -1.
<scales pt_clust_5="13000.00000" pt_clust_6="13000.00000" pt_clust_7="13000.00000" pt_clust_8="13000.00000" pt_clust_9="44.76903"></scales>
<clustering>
<clus scale="   44.769">  2  9  1 -1</clus>
<clus scale="   82.258">  5  6 -1 -1</clus>
<clus scale="   93.557">  7  8 -1 -1</clus>
<clus scale="  106.382">  1  5  2 -1</clus>
<clus scale="   44.769">  2  5  1 -1</clus>
</clustering>
</event>
<event>
 9    1  0.5981539E-005  0.2790032E+03  0.7546771E-02  0.1134526E+00
         21   -1    0    0  501  502  0.00000000000E+00  0.00000000000E+00  0.20340946451E+03  0.20340946451E+03  0.00000000000E+00 0.  1.
          1   -1    0    0  502    0 -0.00000000000E+00 -0.00000000000E+00 -0.58125557052E+03  0.58125557052E+03  0.00000000000E+00 0. -1.
        -24    2    1    2    0    0  0.44314095382E+01 -0.74999874698E+02 -0.12424462965E+03  0.16343661536E+03  0.75034529700E+02 0.  0.
         23    2    1    2    0    0  0.17598350522E+03 -0.17356471670E+03 -0.81959614327E+02  0.26938353003E+03  0.68957979059E+02 0.  0.
         11    1    3    3    0    0 -0.54306437745E+01 -0.87404446363E+02 -0.11664934400E+03  0.14586328734E+03  0.00000000000E+00 0. -1.
        -12    1    3    3    0    0  0.98620533127E+01  0.12404571665E+02 -0.75952856469E+01  0.17573328022E+02  0.00000000000E+00 0.  1.
        -13    1    4    4    0    0  0.14951504374E+03 -0.16223639991E+03 -0.49716992472E+02  0.22615741664E+03  0.00000000000E+00 0.  1.
         13    1    4    4    0    0  0.26468461483E+02 -0.11328316789E+02 -0.32242621855E+02  0.43226113388E+02  0.00000000000E+00 0. -1.
          2    1    1    2  501    0 -0.18041491476E+03  0.24856459140E+03 -0.17164186202E+03  0.35184488964E+03  0.00000000000E+00 0. -1.
<scales pt_clust_5="13000.00000" pt_clust_6="13000.00000" pt_clust_7="13000.00000" pt_clust_8="13000.00000" pt_clust_9="270.34733"></scales>
<clustering>
<clus scale="   68.958">  7  8 -1 -1</clus>
<clus scale="   75.035">  5  6 -1 -1</clus>
<clus scale="  106.183">  2  5  1 -1</clus>
<clus scale="  270.347">  1  9  2 -1</clus>
<clus scale="  270.347">  1  5  2 -1</clus>
</clustering>
</event>
<event>
 9    1  0.5981539E-005  0.9451026E+02  0.7546771E-02  0.1300292E+00
         21   -1    0    0  501  502  0.00000000000E+00  0.00000000000E+00  0.14849147179E+03  0.14849147179E+03  0.00000000000E+00 0. -1.
          3   -1    0    0  502    0 -0.00000000000E+00 -0.00000000000E+00 -0.31105560246E+03  0.31105560246E+03  0.00000000000E+00 0. -1.
        -24    2    1    2    0    0 -0.17368727149E+02 -0.77758245936E+01 -0.22737491822E+03  0.24143190853E+03  0.78916898640E+02 0.  0.
         23    2    1    2    0    0  0.27369208199E+00  0.46366117681E+02 -0.35536771482E+02  0.10925248364E+03  0.92321997801E+02 0.  0.
         11    1    3    3    0    0 -0.34883872545E+02  0.40383895216E+01 -0.41516654418E+02  0.54376702251E+02  0.00000000000E+00 0. -1.
        -12    1    3    3    0    0  0.17515145395E+02 -0.11814214115E+02 -0.18585826380E+03  0.18705520628E+03  0.00000000000E+00 0.  1.
        -13    1    4    4    0    0  0.25525858865E+02  0.41885041021E+02 -0.57434529301E+02  0.75529141979E+02  0.00000000000E+00 0. -1.
         13    1    4    4    0    0 -0.25252166783E+02  0.44810766596E+01  0.21897757819E+02  0.33723341660E+02  0.00000000000E+00 0.  1.
          4    1    1    2  501    0  0.17095035067E+02 -0.38590293087E+02  0.10034755903E+03  0.10886268208E+03  0.00000000000E+00 0. -1.
<scales pt_clust_5="13000.00000" pt_clust_6="13000.00000" pt_clust_7="13000.00000" pt_clust_8="13000.00000" pt_clust_9="42.20724"></scales>
<clustering>
<clus scale="   42.207">  1  9  2 -1</clus>
<clus scale="   78.917">  5  6 -1 -1</clus>
<clus scale="   81.466">  2  5  1 -1</clus>
<clus scale="   92.322">  7  8 -1 -1</clus>
<clus scale="   42.207">  1  5  2 -1</clus>
</clustering>
</event>
<event>
 9    1  0.5981539E-005  0.9768520E+02  0.7546771E-02  0.1287862E+00
         21   -1    0    0  501  502  0.00000000000E+00  0.00000000000E+00  0.28624071630E+03  0.28624071630E+03  0.00000000000E+00 0. -1.
          1   -1    0    0  502    0 -0.00000000000E+00 -0.00000000000E+00 -0.11090535146E+03  0.11090535146E+03  0.00000000000E+00 0. -1.
        -24    2    1    2    0    0  0.49884602056E+02  0.24720585806E+01 -0.13802116691E+02  0.98329639998E+02  0.83568146331E+02 0.  0.
         23    2    1    2    0    0  0.11749250565E+02 -0.45519136385E+02  0.19907511235E+03  0.22298411800E+03  0.88774883018E+02 0.  0.
         13    1    3    3    0    0  0.31038156974E+02 -0.20269715517E+02 -0.43016652352E+02  0.56786098079E+02  0.00000000000E+00 0. -1.
        -14    1    3    3    0    0  0.18846445082E+02  0.22741774098E+02  0.29214535661E+02  0.41543541919E+02  0.00000000000E+00 0.  1.
        -11    1    4    4    0    0  0.23448316124E+02  0.12579963525E+02  0.12658121225E+03  0.12934791187E+03  0.00000000000E+00 0. -1.
         11    1    4    4    0    0 -0.11699065559E+02 -0.58099099910E+02  0.72493900104E+02  0.93636206125E+02  0.00000000000E+00 0.  1.
          2    1    1    2  501    0 -0.61633852621E+02  0.43047077805E+02 -0.99376308213E+01  0.75832309755E+02  0.00000000000E+00 0. -1.
<scales pt_clust_5="13000.00000" pt_clust_6="13000.00000" pt_clust_7="13000.00000" pt_clust_8="13000.00000" pt_clust_9="75.17838"></scales>
<clustering>
<clus scale="   75.178">  1  9  2 -1</clus>
<clus scale="   83.568">  5  6 -1 -1</clus>
<clus scale="   88.775">  7  8 -1 -1</clus>
<clus scale="   92.979">  2  5  1 -1</clus>
<clus scale="   75.178">  1  5  2 -1</clus>
</clustering>
</event>
<event>
 9    1  0.5981539E-005  0.1004874E+03  0.7546771E-02  0.1285114E+00
         21   -1    0    0  501  502  0.00000000000E+00  0.00000000000E+00  0.76145883116E+02  0.76145883116E+02  0.00000000000E+00 0. -1.
          1   -1    0    0  502    0 -0.00000000000E+00 -0.00000000000E+00 -0.27305530421E+03  0.27305530421E+03  0.00000000000E+00 0. -1.
         23    2    1    2    0    0 -0.25201735780E+02 -0.60003505597E+02 -0.11561160970E+03  0.16007229290E+03  0.89563086632E+02 0.  0.
        -24    2    1    2    0    0  0.39362499664E+01  0.46411620122E+01  0.11859340927E+02  0.78695815130E+02  0.77558706172E+02 0.  0.
         11    1    4    4    0    0  0.28339646858E+02  0.25378157516E+02  0.23391916057E+02  0.44658349720E+02  0.00000000000E+00 0. -1.
        -12    1    4    4    0    0 -0.24403396891E+02 -0.20736995504E+02 -0.11532575130E+02  0.34037465409E+02  0.00000000000E+00 0.  1.
        -11    1    3    3    0    0  0.21100895107E+02  0.11497579717E+02 -0.37244030659E+02  0.44323356522E+02  0.00000000000E+00 0.  1.
         11    1    3    3    0    0 -0.46302630887E+02 -0.71501085314E+02 -0.78367579044E+02  0.11574893638E+03  0.00000000000E+00 0. -1.
          2    1    1    2  501    0  0.21265485814E+02  0.55362343585E+02 -0.93157152315E+02  0.11043307929E+03  0.00000000000E+00 0. -1.
<scales pt_clust_5="13000.00000" pt_clust_6="13000.00000" pt_clust_7="13000.00000" pt_clust_8="13000.00000" pt_clust_9="59.30610"></scales>
<clustering>
<clus scale="   59.306">  1  9  2 -1</clus>
<clus scale="   77.559">  5  6 -1 -1</clus>
<clus scale="   89.563">  7  8 -1 -1</clus>
<clus scale="   89.953">  1  5  2 -1</clus>
<clus scale="   59.306">  1  5  2 -1</clus>
</clustering>
</event>
<event>
 9    1  0.5981539E-005  0.1029531E+03  0.7546771E-02  0.1277114E+00
         21   -1    0    0  501  502  0.00000000000E+00  0.00000000000E+00  0.70398181886E+03  0.70398181886E+03  0.00000000000E+00 0. -1.
         -2   -1    0    0    0  501 -0.00000000000E+00 -0.00000000000E+00 -0.27949796676E+02  0.27949796676E+02  0.00000000000E+00 0.  1.
         23    2    1    2    0    0  0.21995955781E+02  0.34046626373E+02  0.18966894320E+03  0.21278751005E+03  0.87528404409E+02 0.  0.
        -24    2    1    2    0    0  0.88349449832E+01 -0.86988569730E+02  0.34809489721E+03  0.36791089519E+03  0.80890678178E+02 0.  0.
         11    1    4    4    0    0 -0.33568227938E+02 -0.21207812585E+02  0.14232905177E+03  0.14776385288E+03  0.00000000000E+00 0. -1.
        -12    1    4    4    0    0  0.42403172921E+02 -0.65780757145E+02  0.20576584544E+03  0.22014704230E+03  0.00000000000E+00 0.  1.
        -13    1    3    3    0    0 -0.22202854463E+02  0.31369363161E+01  0.13175144474E+03  0.13364598874E+03  0.00000000000E+00 0.  1.
         13    1    3    3    0    0  0.44198810244E+02  0.30909690057E+02  0.57917498464E+02  0.79141521307E+02  0.00000000000E+00 0. -1.
         -1    1    1    2    0  502 -0.30830900764E+02  0.52941943357E+02  0.13826818177E+03  0.15123321030E+03  0.00000000000E+00 0.  1.
<scales pt_clust_5="13000.00000" pt_clust_6="13000.00000" pt_clust_7="13000.00000" pt_clust_8="13000.00000" pt_clust_9="61.26498"></scales>
<clustering>
<clus scale="   61.265">  1  9  2 -1</clus>
<clus scale="   80.891">  5  6 -1 -1</clus>
<clus scale="   87.528">  7  8 -1 -1</clus>
<clus scale="   97.373">  1  5  2 -1</clus>
<clus scale="   61.265">  1  5  2 -1</clus>
</clustering>
</event>
<event>
 9    1  0.5981539E-005  0.2326105E+03  0.7546771E-02  0.1135171E+00
          1   -1    0    0  502    0 -0.00000000000E+00  0.00000000000E+00  0.17471440992E+04  0.17471440992E+04  0.00000000000E+00 0. -1.
         21   -1    0    0  501  502  0.00000000000E+00 -0.00000000000E+00 -0.89522895177E+02  0.89522895177E+02  0.00000000000E+00 0. -1.
        -24    2    1    2    0    0  0.66714310035E+02 -0.15240471389E+03  0.56676039559E+03  0.59477066242E+03  0.69690737475E+02 0.  0.
         23    2    1    2    0    0 -0.15167049899E+03 -0.66393420350E+02  0.94935648569E+03  0.96782763446E+03  0.89445886298E+02 0.  0.
         13    1    3    3    0    0  0.40975121674E+02 -0.14883490436E+03  0.48786927151E+03  0.51171008925E+03  0.00000000000E+00 0. -1.
        -14    1    3    3    0    0  0.25739188361E+02 -0.35698095221E+01  0.78891124077E+02  0.83060573172E+02  0.00000000000E+00 0.  1.
        -11    1    4    4    0    0 -0.21860558552E+02 -0.53049085670E+02  0.26490148725E+03  0.27104406922E+03  0.00000000000E+00 0.  1.
         11    1    4    4    0    0 -0.12980994044E+03 -0.13344334680E+02  0.68445499844E+03  0.69678356524E+03  0.00000000000E+00 0. -1.
          2    1    1    2  501    0  0.84956188954E+02  0.21879813424E+03  0.14150432273E+03  0.27406869748E+03  0.00000000000E+00 0. -1.
<scales pt_clust_5="13000.00000" pt_clust_6="13000.00000" pt_clust_7="13000.00000" pt_clust_8="13000.00000" pt_clust_9="214.72554"></scales>
<clustering>
<clus scale="   69.691">  5  6 -1 -1</clus>
<clus scale="   89.446">  7  8 -1 -1</clus>
<clus scale="  180.374">  1  5  2 -1</clus>
<clus scale="  214.726">  2  9  1 -1</clus>
<clus scale="  214.726">  2  5  1 -1</clus>
</clustering>
</event>
<event>
 9    1  0.5981539E-005  0.1132996E+03  0.7546771E-02  0.1259305E+00
         -4   -1    0    0    0  501 -0.00000000000E+00  0.00000000000E+00  0.27650299471E+03  0.27650299471E+03  0.00000000000E+00 0.  1.
         21   -1    0    0  501  502  0.00000000000E+00 -0.00000000000E+00 -0.86684040832E+02  0.86684040832E+02  0.00000000000E+00 0.  1.
         23    2    1    2    0    0 -0.63101129009E+02  0.15297863766E+02  0.99422361607E+02  0.15139085821E+03  0.93907448290E+02 0.  0.
        -24    2    1    2    0    0  0.36187723317E+02 -0.68229109117E+02  0.11175318210E+02  0.11279083200E+03  0.81437837623E+02 0.  0.
         13    1    4    4    0    0  0.73981189362E+01  0.18994105159E+02  0.19593119065E+01  0.20477966153E+02  0.00000000000E+00 0. -1.
        -14    1    4    4    0    0  0.28789604381E+02 -0.87223214276E+02  0.92160063033E+01  0.92312865849E+02  0.00000000000E+00 0.  1.
        -11    1    3    3    0    0 -0.59169190601E+02 -0.26017195130E+02  0.86383993938E+02  0.10788921154E+03  0.00000000000E+00 0.  1.
         11    1    3    3    0    0 -0.39319384075E+01  0.41315058896E+02  0.13038367669E+02  0.43501646667E+02  0.00000000000E+00 0. -1.
         -3    1    1    2    0  502  0.26913405692E+02  0.52931245351E+02  0.79221274063E+02  0.99005345333E+02  0.00000000000E+00 0.  1.
<scales pt_clust_5="13000.00000" pt_clust_6="13000.00000" pt_clust_7="13000.00000" pt_clust_8="13000.00000" pt_clust_9="59.38057"></scales>
<clustering>
<clus scale="   59.381">  2  9  1 -1</clus>
<clus scale="   81.438">  5  6 -1 -1</clus>
<clus scale="   93.907">  7  8 -1 -1</clus>
<clus scale="  103.200">  2  5  1 -1</clus>
<clus scale="   59.381">  2  5  1 -1</clus>
</clustering>
</event>
<event>
 9    1  0.5981539E-005  0.8956203E+02  0.7546771E-02  0.1310691E+00
         21   -1    0    0  501  502  0.00000000000E+00  0.00000000000E+00  0.11842813345E+03  0.11842813345E+03  0.00000000000E+00 0. -1.
          1   -1    0    0  502    0 -0.00000000000E+00 -0.00000000000E+00 -0.13152846102E+03  0.13152846102E+03  0.00000000000E+00 0. -1.
         23    2    1    2    0    0 -0.12995136948E+02  0.11467033277E+01 -0.73407454604E+02  0.11528794302E+03  0.87934446613E+02 0.  0.
        -24    2    1    2    0    0  0.33492935002E+02  0.12829610021E+02  0.67631553941E+02  0.10880082801E+03  0.77312466646E+02 0.  0.
         11    1    4    4    0    0  0.47506616432E+02  0.32741243066E+02  0.33001889614E+02  0.66467979663E+02  0.00000000000E+00 0. -1.
        -12    1    4    4    0    0 -0.14013681430E+02 -0.19911633045E+02  0.34629664327E+02  0.42332848347E+02  0.00000000000E+00 0.  1.
        -13    1    3    3    0    0  0.10776120258E+02  0.34222467139E+02 -0.57802104297E+01  0.36341613303E+02  0.00000000000E+00 0.  1.
         13    1    3    3    0    0 -0.23771257206E+02 -0.33075763811E+02 -0.67627244174E+02  0.78946329715E+02  0.00000000000E+00 0. -1.
          2    1    1    2  501    0 -0.20497798054E+02 -0.13976313349E+02 -0.73244269039E+01  0.25867823437E+02  0.00000000000E+00 0. -1.
<scales pt_clust_5="13000.00000" pt_clust_6="13000.00000" pt_clust_7="13000.00000" pt_clust_8="13000.00000" pt_clust_9="24.80923"></scales>
<clustering>
<clus scale="   24.809">  1  9  2 -1</clus>
<clus scale="   77.312">  5  6 -1 -1</clus>
<clus scale="   79.159">  1  5  2 -1</clus>
<clus scale="   87.934">  7  8 -1 -1</clus>
<clus scale="   24.809">  1  5  2 -1</clus>
</clustering>
</event>
<event>
 9    1  0.5981539E-005  0.1889898E+03  0.7546771E-02  0.1160471E+00
          3   -1    0    0  502    0 -0.00000000000E+00  0.00000000000E+00  0.38897589854E+03  0.38897589854E+03  0.00000000000E+00 0. -1.
         21   -1    0    0  501  502  0.00000000000E+00 -0.00000000000E+00 -0.16817319616E+03  0.16817319616E+03  0.00000000000E+00 0.  1.
        -24    2    1    2    0    0  0.35211317920E+02 -0.16647320674E+03  0.27570714889E+03  0.33342146642E+03  0.78754535408E+02 0.  0.
         23    2    1    2    0    0 -0.15522642396E+02  0.15417176559E+03 -0.17500289026E+02  0.17970444808E+03  0.89317091381E+02 0.  0.
         13    1    3    3    0    0  0.53008009718E+02 -0.14212855716E+03  0.19358819321E+03  0.24594057088E+03  0.00000000000E+00 0. -1.
        -14    1    3    3    0    0 -0.17796691798E+02 -0.24344649579E+02  0.82118955674E+02  0.87480895532E+02  0.00000000000E+00 0.  1.
        -13    1    4    4    0    0 -0.49304261865E+02  0.93375318814E+02 -0.28300053920E+02  0.10931950171E+03  0.00000000000E+00 0. -1.
         13    1    4    4    0    0  0.33781619469E+02  0.60796446778E+02  0.10799764894E+02  0.70384946377E+02  0.00000000000E+00 0.  1.
          4    1    1    2  501    0 -0.19688675523E+02  0.12301441150E+02 -0.37404157478E+02  0.44023180199E+02  0.00000000000E+00 0. -1.
<scales pt_clust_5="13000.00000" pt_clust_6="13000.00000" pt_clust_7="13000.00000" pt_clust_8="13000.00000" pt_clust_9="23.21571"></scales>
<clustering>
<clus scale="   23.216">  2  9  1 -1</clus>
<clus scale="   78.755">  5  6 -1 -1</clus>
<clus scale="   89.317">  7  8 -1 -1</clus>
<clus scale="  184.233">  1  5  2 -1</clus>
<clus scale="   23.216">  2  5  1 -1</clus>
</clustering>
</event>
<event>
 9    1  0.5981539E-005  0.1259418E+03  0.7546771E-02  0.1236887E+00
         21   -1    0    0  501  502  0.00000000000E+00  0.00000000000E+00  0.21461789054E+03  0.21461789054E+03  0.00000000000E+00 0.  1.
          3   -1    0    0  502    0 -0.00000000000E+00 -0.00000000000E+00 -0.15775169638E+03  0.15775169638E+03  0.00000000000E+00 0. -1.
         23    2    1    2    0    0 -0.73028210057E+02  0.45550129618E+02 -0.10049427823E+03  0.16122265334E+03  0.92117914761E+02 0.  0.
        -24    2    1    2    0    0  0.83102050463E+02 -0.26349033402E+02  0.13847414584E+03  0.18239180035E+03  0.80569581224E+02 0.  0.
         11    1    4    4    0    0  0.14814505456E+02 -0.31327907356E+02  0.88038088620E+01  0.35754921363E+02  0.00000000000E+00 0. -1.
        -12    1    4    4    0    0  0.68287545007E+02  0.49788739539E+01  0.12967033697E+03  0.14663687899E+03  0.00000000000E+00 0.  1.
        -13    1    3    3    0    0 -0.32649656965E+02 -0.17042063286E+02 -0.88124397197E+00  0.36840312321E+02  0.00000000000E+00 0. -1.
         13    1    3    3    0    0 -0.40378553092E+02  0.62592192904E+02 -0.99613034262E+02  0.12438234102E+03  0.00000000000E+00 0.  1.
          4    1    1    2  501    0 -0.10073840406E+02 -0.19201096216E+02  0.18886326552E+02  0.28755133229E+02  0.00000000000E+00 0. -1.
<scales pt_clust_5="13000.00000" pt_clust_6="13000.00000" pt_clust_7="13000.00000" pt_clust_8="13000.00000" pt_clust_9="21.68327"></scales>
<clustering>
<clus scale="   21.683">  1  9  2 -1</clus>
<clus scale="   80.570">  5  6 -1 -1</clus>
<clus scale="   92.118">  7  8 -1 -1</clus>
<clus scale="  117.759">  1  5  2 -1</clus>
<clus scale="   21.683">  1  5  2 -1</clus>
</clustering>
</event>
<event>
 9    1  0.5981539E-005  0.9757738E+02  0.7546771E-02  0.1294205E+00
         21   -1    0    0  501  502  0.00000000000E+00  0.00000000000E+00  0.36800023462E+03  0.36800023462E+03  0.00000000000E+00 0.  1.
         -2   -1    0    0    0  501 -0.00000000000E+00 -0.00000000000E+00 -0.35917780335E+02  0.35917780335E+02  0.00000000000E+00 0.  1.
        -24    2    1    2    0    0  0.18493407665E+02 -0.19988684155E+02  0.76334922958E+02  0.11005677445E+03  0.74457501416E+02 0.  0.
         23    2    1    2    0    0 -0.35306426791E+02  0.36948932050E+02  0.13305759398E+03  0.16886864734E+03  0.90556774381E+02 0.  0.
         13    1    3    3    0    0  0.22577315406E+02 -0.28878731033E+02  0.87704909705E+02  0.95057179967E+02  0.00000000000E+00 0. -1.
        -14    1    3    3    0    0 -0.40839077403E+01  0.88900468773E+01 -0.11369986747E+02  0.14999594479E+02  0.00000000000E+00 0.  1.
        -13    1    4    4    0    0 -0.34783546507E+02 -0.21538989951E+02  0.80202643544E+02  0.90034922264E+02  0.00000000000E+00 0.  1.
         13    1    4    4    0    0 -0.52288028407E+00  0.58487922001E+02  0.52854950439E+02  0.78833725078E+02  0.00000000000E+00 0. -1.
         -1    1    1    2    0  502  0.16813019126E+02 -0.16960247895E+02  0.12268993735E+03  0.12499259317E+03  0.00000000000E+00 0.  1.
<scales pt_clust_5="13000.00000" pt_clust_6="13000.00000" pt_clust_7="13000.00000" pt_clust_8="13000.00000" pt_clust_9="23.88153"></scales>
<clustering>
<clus scale="   23.882">  1  9  2 -1</clus>
<clus scale="   74.458">  5  6 -1 -1</clus>
<clus scale="   82.854">  2  5  1 -1</clus>
<clus scale="   90.557">  7  8 -1 -1</clus>
<clus scale="   23.882">  1  5  2 -1</clus>
</clustering>
</event>
<event>
 9    1  0.5981539E-005  0.1231506E+03  0.7546771E-02  0.1241543E+00
         21   -1    0    0  501  502  0.00000000000E+00  0.00000000000E+00  0.12029759309E+03  0.12029759309E+03  0.00000000000E+00 0. -1.
          3   -1    0    0  502    0 -0.00000000000E+00 -0.00000000000E+00 -0.41464635077E+03  0.41464635077E+03  0.00000000000E+00 0. -1.
        -24    2    1    2    0    0  0.79734128468E+02  0.65199453910E+02 -0.31019011343E+03  0.33636682441E+03  0.79474738489E+02 0.  0.
         23    2    1    2    0    0  0.67721913036E+01 -0.36460344305E+02 -0.19955211080E+02  0.10064513296E+03  0.91411230473E+02 0.  0.
         11    1    3    3    0    0  0.86269633616E+02  0.66072073280E+02 -0.31126386690E+03  0.32968646225E+03  0.00000000000E+00 0. -1.
        -12    1    3    3    0    0 -0.65355051479E+01 -0.87261936953E+00  0.10737534658E+01  0.66803621614E+01  0.00000000000E+00 0.  1.
        -13    1    4    4    0    0 -0.36258308998E+02 -0.35026928148E+02 -0.26728798701E+02  0.57061189498E+02  0.00000000000E+00 0.  1.
         13    1    4    4    0    0  0.43030500302E+02 -0.14334161567E+01  0.67735876203E+01  0.43583943458E+02  0.00000000000E+00 0. -1.
          4    1    1    2  501    0 -0.86506319771E+02 -0.28739109605E+02  0.35796566836E+02  0.97931986493E+02  0.00000000000E+00 0. -1.
<scales pt_clust_5="13000.00000" pt_clust_6="13000.00000" pt_clust_7="13000.00000" pt_clust_8="13000.00000" pt_clust_9="91.15525"></scales>
<clustering>
<clus scale="   79.475">  5  6 -1 -1</clus>
<clus scale="   91.155">  1  9  2 -1</clus>
<clus scale="   91.411">  7  8 -1 -1</clus>
<clus scale="  114.570">  2  5  1 -1</clus>
<clus scale="   91.155">  1  5  2 -1</clus>
</clustering>
</event>
<event>
 9    1  0.5981539E-005  0.1295695E+03  0.7546771E-02  0.1247099E+00
         21   -1    0    0  501  502  0.00000000000E+00  0.00000000000E+00  0.35901431541E+03  0.35901431541E+03  0.00000000000E+00 0. -1.
          1   -1    0    0  502    0 -0.00000000000E+00 -0.00000000000E+00 -0.85802837149E+02  0.85802837149E+02  0.00000000000E+00 0. -1.
        -24    2    1    2    0    0  0.34439293252E+02  0.30533143493E+02  0.26668686624E+02  0.91900067024E+02  0.74940414340E+02 0.  0.
         23    2    1    2    0    0 -0.60172986621E+02  0.65081746979E+02  0.21192859810E+03  0.24802393681E+03  0.93518556610E+02 0.  0.
         13    1    3    3    0    0  0.11962078775E+02  0.36815262144E+02 -0.17083795297E+02  0.42312065857E+02  0.00000000000E+00 0. -1.
        -14    1    3    3    0    0  0.22477214477E+02 -0.62821186506E+01  0.43752481922E+02  0.49588001166E+02  0.00000000000E+00 0.  1.
        -13    1    4    4    0    0 -0.14882512502E+02  0.75658502433E+02  0.96128342476E+02  0.12323293552E+03  0.00000000000E+00 0.  1.
         13    1    4    4    0    0 -0.45290474120E+02 -0.10576755454E+02  0.11580025562E+03  0.12479100130E+03  0.00000000000E+00 0. -1.
          2    1    1    2  501    0  0.25733693369E+02 -0.95614890472E+02  0.34614193533E+02  0.10489314872E+03  0.00000000000E+00 0. -1.
<scales pt_clust_5="13000.00000" pt_clust_6="13000.00000" pt_clust_7="13000.00000" pt_clust_8="13000.00000" pt_clust_9="89.68021"></scales>
<clustering>
<clus scale="   74.940">  5  6 -1 -1</clus>
<clus scale="   87.945">  2  5  1 -1</clus>
<clus scale="   89.680">  1  9  2 -1</clus>
<clus scale="   93.519">  7  8 -1 -1</clus>
<clus scale="   89.680">  1  5  2 -1</clus>
</clustering>
</event>
<event>
 9    1  0.5981539E-005  0.1258859E+03  0.7546771E-02  0.1248300E+00
         21   -1    0    0  501  502  0.00000000000E+00  0.00000000000E+00  0.10996138564E+03  0.10996138564E+03  0.00000000000E+00 0. -1.
          1   -1    0    0  502    0 -0.00000000000E+00 -0.00000000000E+00 -0.23754110080E+03  0.23754110080E+03  0.00000000000E+00 0. -1.
         23    2    1    2    0    0  0.22346858781E+02  0.16838499643E+02 -0.36579175313E+02  0.10050455042E+03  0.89332029091E+02 0.  0.
        -24    2    1    2    0    0 -0.34914444178E+02  0.83293626697E+02 -0.80786249094E+02  0.14556461475E+03  0.80658492202E+02 0.  0.
         11    1    4    4    0    0 -0.48065857294E+02  0.87076265341E+02 -0.48829863407E+02  0.11080143584E+03  0.00000000000E+00 0. -1.
        -12    1    4    4    0    0  0.13151413116E+02 -0.37826386440E+01 -0.31956385687E+02  0.34763178914E+02  0.00000000000E+00 0.  1.
        -11    1    3    3    0    0  0.49741504096E+02  0.31965367552E+02 -0.35962685597E+02  0.69204889335E+02  0.00000000000E+00 0. -1.
         11    1    3    3    0    0 -0.27394645315E+02 -0.15126867910E+02 -0.61648971569E+00  0.31299661088E+02  0.00000000000E+00 0.  1.
          2    1    1    2  501    0  0.12567585397E+02 -0.10013212634E+03 -0.10214290750E+02  0.10143332127E+03  0.00000000000E+00 0. -1.
<scales pt_clust_5="13000.00000" pt_clust_6="13000.00000" pt_clust_7="13000.00000" pt_clust_8="13000.00000" pt_clust_9="96.65124"></scales>
<clustering>
<clus scale="   80.658">  5  6 -1 -1</clus>
<clus scale="   89.332">  7  8 -1 -1</clus>
<clus scale="   93.612">  2  7  1 -1</clus>
<clus scale="   96.651">  1  9  2 -1</clus>
<clus scale="   96.651">  1  5  2 -1</clus>
</clustering>
</event>
<event>
 9    1  0.5981539E-005  0.1096910E+03  0.7546771E-02  0.1266654E+00
         -2   -1    0    0    0  501 -0.00000000000E+00  0.00000000000E+00  0.26928987568E+03  0.26928987568E+03  0.00000000000E+00 0.  1.
         21   -1    0    0  501  502  0.00000000000E+00 -0.00000000000E+00 -0.98019772134E+02  0.98019772134E+02  0.00000000000E+00 0.  1.
         23    2    1    2    0    0  0.83750435574E+01 -0.62166292820E+02  0.12350138692E+03  0.16618225838E+03  0.91810462980E+02 0.  0.
        -24    2    1    2    0    0  0.11400752072E+02  0.58001958186E+02  0.10310841616E+03  0.14221299289E+03  0.78096002229E+02 0.  0.
         13    1    4    4    0    0 -0.76678152083E+01  0.60517209037E+02  0.32675795929E+02  0.69201413420E+02  0.00000000000E+00 0. -1.
        -14    1    4    4    0    0  0.19068567280E+02 -0.25152508519E+01  0.70432620228E+02  0.73011579473E+02  0.00000000000E+00 0.  1.
        -13    1    3    3    0    0 -0.35644903925E+02 -0.45774041641E+02  0.40308320841E+02  0.70644057025E+02  0.00000000000E+00 0. -1.
         13    1    3    3    0    0  0.44019947483E+02 -0.16392251179E+02  0.83193066076E+02  0.95538201356E+02  0.00000000000E+00 0.  1.
         -1    1    1    2    0  502 -0.19775795629E+02  0.41643346340E+01 -0.55339699528E+02  0.58914396539E+02  0.00000000000E+00 0.  1.
<scales pt_clust_5="13000.00000" pt_clust_6="13000.00000" pt_clust_7="13000.00000" pt_clust_8="13000.00000" pt_clust_9="20.20950"></scales>
<clustering>
<clus scale="   20.209">  2  9  1 -1</clus>
<clus scale="   78.096">  5  6 -1 -1</clus>
<clus scale="   91.810">  7  8 -1 -1</clus>
<clus scale="   98.498">  2  5  1 -1</clus>
<clus scale="   20.209">  2  5  1 -1</clus>
</clustering>
</event>
<event>
 9    1  0.5981539E-005  0.1072848E+03  0.7546771E-02  0.1271178E+00
         21   -1    0    0  501  502  0.00000000000E+00  0.00000000000E+00  0.14438272061E+03  0.14438272061E+03  0.00000000000E+00 0. -1.
         -4   -1    0    0    0  501 -0.00000000000E+00 -0.00000000000E+00 -0.18201806654E+03  0.18201806654E+03  0.00000000000E+00 0.  1.
        -24    2    1    2    0    0  0.16314146157E+01 -0.56951604761E+02 -0.13419376877E+03  0.16649586373E+03  0.80416156735E+02 0.  0.
         23    2    1    2    0    0 -0.43065492643E+01  0.33013399789E+02  0.58664731060E+02  0.11500363302E+03  0.93144264480E+02 0.  0.
         13    1    3    3    0    0 -0.31529242231E+02 -0.28751748020E+02 -0.26231656748E+02  0.50088481167E+02  0.00000000000E+00 0. -1.
        -14    1    3    3    0    0  0.33160656847E+02 -0.28199856741E+02 -0.10796211203E+03  0.11640738257E+03  0.00000000000E+00 0.  1.
        -11    1    4    4    0    0 -0.33857167397E+02  0.53248468937E+02  0.37394608077E+02  0.73348919157E+02  0.00000000000E+00 0. -1.
         11    1    4    4    0    0  0.29550618132E+02 -0.20235069148E+02  0.21270122982E+02  0.41654713864E+02  0.00000000000E+00 0.  1.
         -3    1    1    2    0  502  0.26751346486E+01  0.23938204972E+02  0.37893691784E+02  0.44901290401E+02  0.00000000000E+00 0.  1.
<scales pt_clust_5="13000.00000" pt_clust_6="13000.00000" pt_clust_7="13000.00000" pt_clust_8="13000.00000" pt_clust_9="24.08722"></scales>
<clustering>
<clus scale="   24.087">  1  9  2 -1</clus>
<clus scale="   80.416">  5  6 -1 -1</clus>
<clus scale="   93.144">  7  8 -1 -1</clus>
<clus scale="   96.441">  2  5  1 -1</clus>
<clus scale="   24.087">  1  5  2 -1</clus>
</clustering>
</event>
<event>
 9    1  0.5981539E-005  0.2901647E+03  0.7546771E-02  0.1092165E+00
         -2   -1    0    0    0  501 -0.00000000000E+00  0.00000000000E+00  0.15646599531E+04  0.15646599531E+04  0.00000000000E+00 0.  1.
         21   -1    0    0  501  502  0.00000000000E+00 -0.00000000000E+00 -0.57927533854E+02  0.57927533854E+02  0.00000000000E+00 0.  1.
        -24    2    1    2    0    0  0.13014098694E+03 -0.21710523686E+03  0.66625913331E+03  0.71711785025E+03  0.79280628625E+02 0.  0.
         23    2    1    2    0    0 -0.13506904738E+03  0.24319056035E+03  0.70293187945E+03  0.76538977241E+03  0.11967865460E+03 0.  0.
         13    1    3    3    0    0  0.35040225337E+02 -0.10525066289E+03  0.37321519777E+03  0.38935215844E+03  0.00000000000E+00 0. -1.
        -14    1    3    3    0    0  0.95100761598E+02 -0.11185457397E+03  0.29304393553E+03  0.32776569181E+03  0.00000000000E+00 0.  1.
        -11    1    4    4    0    0 -0.52456662403E+02  0.39703400006E+02  0.72991358771E+02  0.98263929586E+02  0.00000000000E+00 0. -1.
         11    1    4    4    0    0 -0.82612384981E+02  0.20348716034E+03  0.62994052068E+03  0.66712584283E+03  0.00000000000E+00 0.  1.
         -1    1    1    2    0  502  0.49280604486E+01 -0.26085323489E+02  0.13754140650E+03  0.14007986430E+03  0.00000000000E+00 0.  1.
<scales pt_clust_5="13000.00000" pt_clust_6="13000.00000" pt_clust_7="13000.00000" pt_clust_8="13000.00000" pt_clust_9="26.54676"></scales>
<clustering>
<clus scale="   26.547">  2  9  1 -1</clus>
<clus scale="   79.281">  5  6 -1 -1</clus>
<clus scale="  119.679">  7  8 -1 -1</clus>
<clus scale="  275.967">  1  5  2 -1</clus>
<clus scale="   26.547">  2  5  1 -1</clus>
</clustering>
</event>
<event>
 9    1  0.5981539E-005  0.1048448E+03  0.7546771E-02  0.1274957E+00
          1   -1    0    0  502    0 -0.00000000000E+00  0.00000000000E+00  0.30096326457E+03  0.30096326457E+03  0.00000000000E+00 0. -1.
         21   -1    0    0  501  502  0.00000000000E+00 -0.00000000000E+00 -0.77447742774E+02  0.77447742774E+02  0.00000000000E+00 0. -1.
         23    2    1    2    0    0  0.22613076279E+01 -0.32406943240E+02  0.88426313917E+02  0.13005359144E+03  0.89662702230E+02 0.  0.
        -24    2    1    2    0    0  0.65584037537E+02  0.75771277450E+02  0.87083893746E+02  0.15461326127E+03  0.79240794707E+02 0.  0.
         13    1    4    4    0    0  0.48207988362E+01  0.64456370753E+02  0.55544459284E+02  0.85223534245E+02  0.00000000000E+00 0. -1.
        -14    1    4    4    0    0  0.60763238701E+02  0.11314906697E+02  0.31539434462E+02  0.69389727028E+02  0.00000000000E+00 0.  1.
        -11    1    3    3    0    0 -0.27171354686E+02  0.15561330237E+01  0.79770899357E+02  0.84285825912E+02  0.00000000000E+00 0.  1.
         11    1    3    3    0    0  0.29432662314E+02 -0.33963076264E+02  0.86554145603E+01  0.45767765528E+02  0.00000000000E+00 0. -1.
          2    1    1    2  501    0 -0.67845345165E+02 -0.43364334210E+02  0.48005314129E+02  0.93744154626E+02  0.00000000000E+00 0. -1.
<scales pt_clust_5="13000.00000" pt_clust_6="13000.00000" pt_clust_7="13000.00000" pt_clust_8="13000.00000" pt_clust_9="80.51991"></scales>
<clustering>
<clus scale="   79.241">  5  6 -1 -1</clus>
<clus scale="   80.520">  2  9  1 -1</clus>
<clus scale="   89.663">  7  8 -1 -1</clus>
<clus scale="   96.084">  2  5  1 -1</clus>
<clus scale="   80.520">  2  5  1 -1</clus>
</clustering>
</event>
<event>
 9    1  0.5981539E-005  0.2279305E+03  0.7546771E-02  0.1129227E+00
         21   -1    0    0  501  502  0.00000000000E+00  0.00000000000E+00  0.12619135446E+03  0.12619135446E+03  0.00000000000E+00 0. -1.
          1   -1    0    0  502    0 -0.00000000000E+00 -0.00000000000E+00 -0.60826873171E+03  0.60826873171E+03  0.00000000000E+00 0. -1.
        -24    2    1    2    0    0 -0.18523009985E+03 -0.14474937484E+03 -0.35803647238E+03  0.43558855008E+03  0.79276087225E+02 0.  0.
         23    2    1    2    0    0  0.14737797653E+03  0.72152521421E+02 -0.80202288618E+02  0.20600113907E+03  0.95277530849E+02 0.  0.
         11    1    3    3    0    0 -0.17776151086E+03 -0.10536183203E+03 -0.31540549268E+03  0.37706882025E+03  0.00000000000E+00 0. -1.
        -12    1    3    3    0    0 -0.74685889883E+01 -0.39387542808E+02 -0.42630979702E+02  0.58519729838E+02  0.00000000000E+00 0.  1.
        -13    1    4    4    0    0  0.71939072256E+02  0.83692017889E+02 -0.29026450101E+02  0.11411449856E+03  0.00000000000E+00 0.  1.
         13    1    4    4    0    0  0.75438904270E+02 -0.11539496468E+02 -0.51175838517E+02  0.91886640509E+02  0.00000000000E+00 0. -1.
          2    1    1    2  501    0  0.37852123320E+02  0.72596853419E+02 -0.43838616254E+02  0.92870397012E+02  0.00000000000E+00 0. -1.
<scales pt_clust_5="13000.00000" pt_clust_6="13000.00000" pt_clust_7="13000.00000" pt_clust_8="13000.00000" pt_clust_9="81.87238"></scales>
<clustering>
<clus scale="   79.276">  5  6 -1 -1</clus>
<clus scale="   81.872">  1  9  2 -1</clus>
<clus scale="   95.278">  7  8 -1 -1</clus>
<clus scale="  221.719">  2  5  1 -1</clus>
<clus scale="   81.872">  1  5  2 -1</clus>
</clustering>
</event>
<event>
 9    1  0.5981539E-005  0.1958814E+03  0.7546771E-02  0.1172223E+00
         21   -1    0    0  501  502  0.00000000000E+00  0.00000000000E+00  0.47420050758E+03  0.47420050758E+03  0.00000000000E+00 0. -1.
          1   -1    0    0  502    0 -0.00000000000E+00 -0.00000000000E+00 -0.18158520709E+03  0.18158520709E+03  0.00000000000E+00 0. -1.
         23    2    1    2    0    0 -0.22558234193E+02 -0.82638630097E+02 -0.54413906525E+02  0.13746916289E+03  0.92730148323E+02 0.  0.
        -24    2    1    2    0    0 -0.72324597697E+02 -0.11042867966E+03  0.76607248194E+02  0.17276514649E+03  0.80955448504E+02 0.  0.
         11    1    4    4    0    0 -0.87896113700E+02 -0.94473573470E+02  0.50842363468E+02  0.13869365094E+03  0.00000000000E+00 0. -1.
        -12    1    4    4    0    0  0.15571516004E+02 -0.15955106194E+02  0.25764884726E+02  0.34071495553E+02  0.00000000000E+00 0.  1.
        -13    1    3    3    0    0  0.13945792072E+02  0.15644382035E+02 -0.49047813019E+01  0.21524141920E+02  0.00000000000E+00 0. -1.
         13    1    3    3    0    0 -0.36504026265E+02 -0.98283012132E+02 -0.49509125223E+02  0.11594502097E+03  0.00000000000E+00 0.  1.
          2    1    1    2  501    0  0.94882831890E+02  0.19306730976E+03  0.27042195882E+03  0.34555140529E+03  0.00000000000E+00 0. -1.
<scales pt_clust_5="13000.00000" pt_clust_6="13000.00000" pt_clust_7="13000.00000" pt_clust_8="13000.00000" pt_clust_9="178.36969"></scales>
<clustering>
<clus scale="   80.955">  5  6 -1 -1</clus>
<clus scale="   92.730">  7  8 -1 -1</clus>
<clus scale="  126.241">  2  7  1 -1</clus>
<clus scale="  178.370">  1  9  2 -1</clus>
<clus scale="  178.370">  1  5  2 -1</clus>
</clustering>
</event>
<event>
 9    1  0.5981539E-005  0.2233599E+03  0.7546771E-02  0.1164779E+00
          1   -1    0    0  502    0 -0.00000000000E+00  0.00000000000E+00  0.19699712643E+03  0.19699712643E+03  0.00000000000E+00 0. -1.
         21   -1    0    0  501  502  0.00000000000E+00 -0.00000000000E+00 -0.49751755510E+03  0.49751755510E+03  0.00000000000E+00 0.  1.
         23    2    1    2    0    0 -0.46992592541E+02  0.10572333184E+01  0.61662964030E+02  0.11833374235E+03  0.89393131448E+02 0.  0.
        -24    2    1    2    0    0  0.43974428487E+01  0.20797249952E+03 -0.25153810822E+03  0.33586831993E+03  0.79146764847E+02 0.  0.
         11    1    4    4    0    0 -0.13650707025E+02  0.19314682738E+02 -0.38043290733E+01  0.23955619200E+02  0.00000000000E+00 0. -1.
        -12    1    4    4    0    0  0.18048149873E+02  0.18865781679E+03 -0.24773377915E+03  0.31191270073E+03  0.00000000000E+00 0.  1.
        -13    1    3    3    0    0 -0.16686580818E+01  0.27170696683E+02  0.60127667483E+02  0.66002784600E+02  0.00000000000E+00 0. -1.
         13    1    3    3    0    0 -0.45323934460E+02 -0.26113463365E+02  0.15352965474E+01  0.52330957752E+02  0.00000000000E+00 0.  1.
          2    1    1    2  501    0  0.42595149693E+02 -0.20902973284E+03 -0.11064528448E+03  0.24031261924E+03  0.00000000000E+00 0. -1.
<scales pt_clust_5="13000.00000" pt_clust_6="13000.00000" pt_clust_7="13000.00000" pt_clust_8="13000.00000" pt_clust_9="208.86712"></scales>
<clustering>
<clus scale="   79.147">  5  6 -1 -1</clus>
<clus scale="   89.393">  7  8 -1 -1</clus>
<clus scale="  100.998">  1  7  2 -1</clus>
<clus scale="  208.867">  2  9  1 -1</clus>
<clus scale="  208.867">  2  5  1 -1</clus>
</clustering>
</event>
<event>
 9    1  0.5981539E-005  0.1015597E+03  0.7546771E-02  0.1281976E+00
         21   -1    0    0  501  502  0.00000000000E+00  0.00000000000E+00  0.10181180976E+03  0.10181180976E+03  0.00000000000E+00 0. -1.
          1   -1    0    0  502    0 -0.00000000000E+00 -0.00000000000E+00 -0.43215992343E+03  0.43215992343E+03  0.00000000000E+00 0. -1.
        -24    2    1    2    0    0  0.20697222756E+02  0.45701009068E+02 -0.27591665779E+03  0.29196898772E+03  0.81233801372E+02 0.  0.
         23    2    1    2    0    0  0.99206812705E+01 -0.36725217110E+02 -0.12797960550E+03  0.16183198270E+03  0.91452991816E+02 0.  0.
         11    1    3    3    0    0  0.44475900953E+02  0.39011293438E+02 -0.24677176176E+03  0.25376423937E+03  0.00000000000E+00 0. -1.
        -12    1    3    3    0    0 -0.23778678196E+02  0.66897156300E+01 -0.29144896033E+02  0.38204748354E+02  0.00000000000E+00 0.  1.
        -11    1    4    4    0    0 -0.28224002712E+02 -0.50887184096E+02 -0.70605387334E+02  0.91494374443E+02  0.00000000000E+00 0.  1.
         11    1    4    4    0    0  0.38144683982E+02  0.14161966986E+02 -0.57374218170E+02  0.70337608259E+02  0.00000000000E+00 0. -1.
          2    1    1    2  501    0 -0.30617904027E+02 -0.89757919588E+01  0.73548149628E+02  0.80170762763E+02  0.00000000000E+00 0. -1.
<scales pt_clust_5="13000.00000" pt_clust_6="13000.00000" pt_clust_7="13000.00000" pt_clust_8="13000.00000" pt_clust_9="31.90644"></scales>
<clustering>
<clus scale="   31.906">  1  9  2 -1</clus>
<clus scale="   81.234">  5  6 -1 -1</clus>
<clus scale="   91.453">  7  8 -1 -1</clus>
<clus scale="   92.464">  2  5  1 -1</clus>
<clus scale="   31.906">  1  5  2 -1</clus>
</clustering>
</event>
<event>
 9    1  0.6406613E-005  0.1406324E+03  0.7546771E-02  0.1215189E+00
         21   -1    0    0  501  502  0.00000000000E+00  0.00000000000E+00  0.13676906448E+03  0.13676906448E+03  0.00000000000E+00 0. -1.
          1   -1    0    0  502    0 -0.00000000000E+00 -0.00000000000E+00 -0.36949007829E+03  0.36949007829E+03  0.00000000000E+00 0. -1.
         23    2    1    2    0    0  0.86766685306E+02 -0.36381191039E+02 -0.62223562458E+02  0.14528231476E+03  0.91559437077E+02 0.  0.
        -24    2    1    2    0    0 -0.11845128515E+03  0.65932834310E+02  0.26640519802E+02  0.15913383665E+03  0.78968443551E+02 0.  0.
         13    1    4    4    0    0 -0.80479964850E+02  0.78206885332E+02  0.36538818393E+02  0.11801875658E+03  0.00000000000E+00 0. -1.
        -14    1    4    4    0    0 -0.37971320301E+02 -0.12274051021E+02 -0.98982985902E+01  0.41115080066E+02  0.00000000000E+00 0.  1.
        -13    1    3    3    0    0  0.16455680594E+02 -0.48616414657E+02 -0.11324183008E+01  0.51338363522E+02  0.00000000000E+00 0.  1.
         13    1    3    3    0    0  0.70311004711E+02  0.12235223618E+02 -0.61091144158E+02  0.93943951242E+02  0.00000000000E+00 0. -1.
          2    1    1    2  501    0  0.31684599845E+02 -0.29551643271E+02 -0.19713797115E+03  0.20184299135E+03  0.00000000000E+00 0. -1.
<scales pt_clust_5="13000.00000" pt_clust_6="13000.00000" pt_clust_7="13000.00000" pt_clust_8="13000.00000" pt_clust_9="43.32684"></scales>
<clustering>
<clus scale="   43.327">  1  9  2 -1</clus>
<clus scale="   78.968">  5  6 -1 -1</clus>
<clus scale="   91.559">  7  8 -1 -1</clus>
<clus scale="  132.779">  1  5  2 -1</clus>
<clus scale="   43.327">  1  5  2 -1</clus>
</clustering>
</event>
<event>
 9    1  0.5981539E-005  0.1576987E+03  0.7546771E-02  0.1216939E+00
         -2   -1    0    0    0  501 -0.00000000000E+00  0.00000000000E+00  0.36395773132E+02  0.36395773132E+02  0.00000000000E+00 0.  1.
         21   -1    0    0  501  502  0.00000000000E+00 -0.00000000000E+00 -0.10314553052E+04  0.10314553052E+04  0.00000000000E+00 0.  1.
         23    2    1    2    0    0  0.64785181613E+01 -0.58305204959E+01 -0.19174300809E+03  0.21213326317E+03  0.90328146347E+02 0.  0.
        -24    2    1    2    0    0  0.11601002046E+03  0.65265016885E+02 -0.48097834308E+03  0.50580667742E+03  0.82355213158E+02 0.  0.
         13    1    4    4    0    0  0.69694355996E+02 -0.71556639994E+01 -0.19603360965E+03  0.20817704700E+03  0.00000000000E+00 0. -1.
        -14    1    4    4    0    0  0.46315664461E+02  0.72420680885E+02 -0.28494473344E+03  0.29762963043E+03  0.00000000000E+00 0.  1.
        -13    1    3    3    0    0 -0.24087496133E+02  0.33153626314E+02 -0.79352253926E+02  0.89309297449E+02  0.00000000000E+00 0. -1.
         13    1    3    3    0    0  0.30566014294E+02 -0.38984146810E+02 -0.11239075417E+03  0.12282396572E+03  0.00000000000E+00 0.  1.
         -1    1    1    2    0  502 -0.12248853862E+03 -0.59434496390E+02 -0.32233818085E+03  0.34991113770E+03  0.00000000000E+00 0.  1.
<scales pt_clust_5="13000.00000" pt_clust_6="13000.00000" pt_clust_7="13000.00000" pt_clust_8="13000.00000" pt_clust_9="134.48617"></scales>
<clustering>
<clus scale="   82.355">  5  6 -1 -1</clus>
<clus scale="   90.328">  7  8 -1 -1</clus>
<clus scale="   90.748">  1  7  2 -1</clus>
<clus scale="  134.486">  2  9  1 -1</clus>
<clus scale="  134.486">  2  5  1 -1</clus>
</clustering>
</event>
<event>
 9    1  0.6336279E-005  0.1074232E+03  0.7546771E-02  0.1266443E+00
          1   -1    0    0  502    0 -0.00000000000E+00  0.00000000000E+00  0.58525891336E+03  0.58525891336E+03  0.00000000000E+00 0. -1.
         21   -1    0    0  501  502  0.00000000000E+00 -0.00000000000E+00 -0.20687405955E+03  0.20687405955E+03  0.00000000000E+00 0.  1.
        -24    2    1    2    0    0 -0.66643842500E+02 -0.11542564609E+02  0.52826970416E+03  0.53868831489E+03  0.80880082399E+02 0.  0.
         23    2    1    2    0    0  0.70033079778E+02 -0.53778643026E+02 -0.14292878529E+03  0.18766674427E+03  0.83626518122E+02 0.  0.
         13    1    3    3    0    0 -0.68990700272E+02 -0.37126691535E+02  0.35645449070E+03  0.36496289111E+03  0.00000000000E+00 0. -1.
        -14    1    3    3    0    0  0.23468577722E+01  0.25584126926E+02  0.17181521346E+03  0.17372542378E+03  0.00000000000E+00 0.  1.
        -13    1    4    4    0    0  0.30336636849E+02 -0.58258062209E+02 -0.13004613484E+03  0.14569252051E+03  0.00000000000E+00 0.  1.
         13    1    4    4    0    0  0.39696442930E+02  0.44794191835E+01 -0.12882650450E+02  0.41974223758E+02  0.00000000000E+00 0. -1.
          2    1    1    2  501    0 -0.33892372789E+01  0.65321207635E+02 -0.69560650653E+01  0.65777913751E+02  0.00000000000E+00 0. -1.
<scales pt_clust_5="13000.00000" pt_clust_6="13000.00000" pt_clust_7="13000.00000" pt_clust_8="13000.00000" pt_clust_9="65.40908"></scales>
<clustering>
<clus scale="   65.409">  2  9  1 -1</clus>
<clus scale="   80.880">  5  6 -1 -1</clus>
<clus scale="   83.627">  7  8 -1 -1</clus>
<clus scale="  105.299">  1  5  2 -1</clus>
<clus scale="   65.409">  2  5  1 -1</clus>
</clustering>
</event>
<event>
 9    1  0.5981539E-005  0.1637578E+03  0.7546771E-02  0.1207833E+00
          1   -1    0    0  502    0 -0.00000000000E+00  0.00000000000E+00  0.48754078996E+03  0.48754078996E+03  0.00000000000E+00 0. -1.
         21   -1    0    0  501  502  0.00000000000E+00 -0.00000000000E+00 -0.11795613657E+03  0.11795613657E+03  0.00000000000E+00 0. -1.
        -24    2    1    2    0    0 -0.36294421741E+02  0.32611737939E+02  0.26942568822E+03  0.28681868273E+03  0.85404594662E+02 0.  0.
         23    2    1    2    0    0  0.29400644002E+02  0.11685477558E+03  0.53463984410E+02  0.16193583071E+03  0.94049876103E+02 0.  0.
         11    1    3    3    0    0 -0.43521530368E+02 -0.15702916638E+02  0.16778406021E+03  0.17404653417E+03  0.00000000000E+00 0. -1.
        -12    1    3    3    0    0  0.72271086272E+01  0.48314654578E+02  0.10164162801E+03  0.11277214856E+03  0.00000000000E+00 0.  1.
        -13    1    4    4    0    0 -0.22000715835E+02 -0.32239934991E+01  0.80737362267E+01  0.23656095366E+02  0.00000000000E+00 0.  1.
         13    1    4    4    0    0  0.51401359837E+02  0.12007876907E+03  0.45390248183E+02  0.13827973534E+03  0.00000000000E+00 0. -1.
          2    1    1    2  501    0  0.68937777393E+01 -0.14946651352E+03  0.46694980762E+02  0.15674241309E+03  0.00000000000E+00 0. -1.
<scales pt_clust_5="13000.00000" pt_clust_6="13000.00000" pt_clust_7="13000.00000" pt_clust_8="13000.00000" pt_clust_9="134.05694"></scales>
<clustering>
<clus scale="   85.405">  5  6 -1 -1</clus>
<clus scale="   94.050">  7  8 -1 -1</clus>
<clus scale="   98.360">  1  5  2 -1</clus>
<clus scale="  134.057">  2  9  1 -1</clus>
<clus scale="  134.057">  2  5  1 -1</clus>
</clustering>
</event>
<event>
 9    1  0.5981539E-005  0.9246257E+02  0.7546771E-02  0.1315157E+00
          1   -1    0    0  502    0 -0.00000000000E+00  0.00000000000E+00  0.24801003562E+02  0.24801003562E+02  0.00000000000E+00 0. -1.
         21   -1    0    0  501  502  0.00000000000E+00 -0.00000000000E+00 -0.45348142665E+03  0.45348142665E+03  0.00000000000E+00 0. -1.
        -24    2    1    2    0    0 -0.15863582465E+01 -0.68656482124E+00 -0.10731404102E+03  0.12561836102E+03  0.65273894648E+02 0.  0.
         23    2    1    2    0    0 -0.39918947710E+02  0.11304263465E+02 -0.24900104038E+03  0.26856788245E+03  0.91683589655E+02 0.  0.
         11    1    3    3    0    0  0.22808451204E+02  0.21565913268E+02 -0.42017830660E+02  0.52448185428E+02  0.00000000000E+00 0. -1.
        -12    1    3    3    0    0 -0.24394809450E+02 -0.22252478089E+02 -0.65296210361E+02  0.73170175596E+02  0.00000000000E+00 0.  1.
        -13    1    4    4    0    0 -0.26893330063E+02  0.44892248753E+02 -0.78785477822E+02  0.94581799071E+02  0.00000000000E+00 0. -1.
         13    1    4    4    0    0 -0.13025617647E+02 -0.33587985288E+02 -0.17021556256E+03  0.17398608338E+03  0.00000000000E+00 0.  1.
          2    1    1    2  501    0  0.41505305956E+02 -0.10617698644E+02 -0.72365341689E+02  0.84096186744E+02  0.00000000000E+00 0. -1.
<scales pt_clust_5="13000.00000" pt_clust_6="13000.00000" pt_clust_7="13000.00000" pt_clust_8="13000.00000" pt_clust_9="42.84189"></scales>
<clustering>
<clus scale="   42.842">  2  9  1 -1</clus>
<clus scale="   65.274">  5  6 -1 -1</clus>
<clus scale="   66.364">  1  5  2 -1</clus>
<clus scale="   91.684">  7  8 -1 -1</clus>
<clus scale="   42.842">  2  5  1 -1</clus>
</clustering>
</event>
<event>
 9    1  0.5981539E-005  0.9088719E+02  0.7546771E-02  0.1304745E+00
          3   -1    0    0  502    0 -0.00000000000E+00  0.00000000000E+00  0.58820495010E+03  0.58820495010E+03  0.00000000000E+00 0. -1.
         21   -1    0    0  501  502  0.00000000000E+00 -0.00000000000E+00 -0.58961661347E+02  0.58961661347E+02  0.00000000000E+00 0.  1.
        -24    2    1    2    0    0 -0.17850416344E+02 -0.16680856000E+02  0.50956382861E+03  0.51663803038E+03  0.81625184119E+02 0.  0.
         23    2    1    2    0    0  0.45603197191E+01 -0.98673687804E+01  0.36769489188E+02  0.96272136416E+02  0.88307233182E+02 0.  0.
         11    1    3    3    0    0 -0.39363302552E+02 -0.37956590800E+02  0.30813007963E+03  0.31294459309E+03  0.00000000000E+00 0. -1.
        -12    1    3    3    0    0  0.21512886208E+02  0.21275734799E+02  0.20143374898E+03  0.20369343729E+03  0.00000000000E+00 0.  1.
        -11    1    4    4    0    0  0.31095268986E+02  0.24704779186E+02  0.34540935855E+02  0.52633811544E+02  0.00000000000E+00 0. -1.
         11    1    4    4    0    0 -0.26534949267E+02 -0.34572147967E+02  0.22285533327E+01  0.43638324871E+02  0.00000000000E+00 0.  1.
          4    1    1    2  501    0  0.13290096625E+02  0.26548224781E+02 -0.17090029049E+02  0.34256444652E+02  0.00000000000E+00 0. -1.
<scales pt_clust_5="13000.00000" pt_clust_6="13000.00000" pt_clust_7="13000.00000" pt_clust_8="13000.00000" pt_clust_9="29.68897"></scales>
<clustering>
<clus scale="   29.689">  2  9  1 -1</clus>
<clus scale="   81.625">  5  6 -1 -1</clus>
<clus scale="   84.410">  1  5  2 -1</clus>
<clus scale="   88.307">  7  8 -1 -1</clus>
<clus scale="   29.689">  2  5  1 -1</clus>
</clustering>
</event>
<event>
 9    1  0.5981539E-005  0.9663873E+02  0.7546771E-02  0.1293483E+00
          1   -1    0    0  502    0 -0.00000000000E+00  0.00000000000E+00  0.40427936009E+03  0.40427936009E+03  0.00000000000E+00 0. -1.
         21   -1    0    0  501  502  0.00000000000E+00 -0.00000000000E+00 -0.80337400489E+02  0.80337400489E+02  0.00000000000E+00 0. -1.
        -24    2    1    2    0    0  0.24962436101E+02  0.22468435647E+02  0.29912664180E+03  0.31147733941E+03  0.80083901707E+02 0.  0.
         23    2    1    2    0    0  0.12808712815E+02 -0.47650242258E+02  0.56361104613E+02  0.11785904726E+03  0.90992154585E+02 0.  0.
         13    1    3    3    0    0  0.26958862051E+02 -0.23506596106E+02  0.18492997473E+03  0.18835720283E+03  0.00000000000E+00 0. -1.
        -14    1    3    3    0    0 -0.19964259505E+01  0.45975031752E+02  0.11419666708E+03  0.12312013658E+03  0.00000000000E+00 0.  1.
        -11    1    4    4    0    0  0.20491413412E+02  0.19611995473E+02 -0.20577020065E+01  0.28438750457E+02  0.00000000000E+00 0.  1.
         11    1    4    4    0    0 -0.76827005963E+01 -0.67262237731E+02  0.58418806620E+02  0.89420296800E+02  0.00000000000E+00 0. -1.
          2    1    1    2  501    0 -0.37771148916E+02  0.25181806612E+02 -0.31545786812E+02  0.55280373916E+02  0.00000000000E+00 0. -1.
<scales pt_clust_5="13000.00000" pt_clust_6="13000.00000" pt_clust_7="13000.00000" pt_clust_8="13000.00000" pt_clust_9="45.39585"></scales>
<clustering>
<clus scale="   45.396">  2  9  1 -1</clus>
<clus scale="   80.084">  5  6 -1 -1</clus>
<clus scale="   86.446">  1  5  2 -1</clus>
<clus scale="   90.992">  7  8 -1 -1</clus>
<clus scale="   45.396">  2  5  1 -1</clus>
</clustering>
</event>
<event>
 9    1  0.5981539E-005  0.1142723E+03  0.7546771E-02  0.1255116E+00
         21   -1    0    0  501  502  0.00000000000E+00  0.00000000000E+00  0.35125641740E+02  0.35125641740E+02  0.00000000000E+00 0. -1.
          1   -1    0    0  502    0 -0.00000000000E+00 -0.00000000000E+00 -0.64821810415E+03  0.64821810415E+03  0.00000000000E+00 0. -1.
         23    2    1    2    0    0  0.22933748162E+02 -0.70352841827E+02 -0.26771299039E+03  0.29196993927E+03  0.90004005781E+02 0.  0.
        -24    2    1    2    0    0 -0.74547302317E+02  0.31478670875E+02 -0.25497227148E+03  0.28024945263E+03  0.83550520488E+02 0.  0.
         13    1    4    4    0    0 -0.60515155590E+02  0.59376872182E+02 -0.19503209091E+03  0.21266220513E+03  0.00000000000E+00 0. -1.
        -14    1    4    4    0    0 -0.14032146728E+02 -0.27898201308E+02 -0.59940180563E+02  0.67587247495E+02  0.00000000000E+00 0.  1.
        -11    1    3    3    0    0 -0.14070091000E+02 -0.38279946089E+02 -0.21947561515E+03  0.22323276503E+03  0.00000000000E+00 0.  1.
         11    1    3    3    0    0  0.37003839162E+02 -0.32072895739E+02 -0.48237375238E+02  0.68737174249E+02  0.00000000000E+00 0. -1.
          2    1    1    2  501    0  0.51613554155E+02  0.38874170953E+02 -0.90407200544E+02  0.11112435399E+03  0.00000000000E+00 0. -1.
<scales pt_clust_5="13000.00000" pt_clust_6="13000.00000" pt_clust_7="13000.00000" pt_clust_8="13000.00000" pt_clust_9="64.61548"></scales>
<clustering>
<clus scale="   64.615">  1  9  2 -1</clus>
<clus scale="   83.551">  5  6 -1 -1</clus>
<clus scale="   90.004">  7  8 -1 -1</clus>
<clus scale="  109.262">  1  5  2 -1</clus>
<clus scale="   64.615">  1  5  2 -1</clus>
</clustering>
</event>
<event>
 9    1  0.5981539E-005  0.1159511E+03  0.7546771E-02  0.1255583E+00
          1   -1    0    0  502    0 -0.00000000000E+00  0.00000000000E+00  0.91177880953E+03  0.91177880953E+03  0.00000000000E+00 0. -1.
         21   -1    0    0  501  502  0.00000000000E+00 -0.00000000000E+00 -0.44668435239E+02  0.44668435239E+02  0.00000000000E+00 0. -1.
         23    2    1    2    0    0 -0.82576200194E+01 -0.53052128717E+02  0.36465962320E+03  0.38089812692E+03  0.96041791157E+02 0.  0.
        -24    2    1    2    0    0 -0.34499719664E+02  0.11336432723E+03  0.12284386339E+03  0.18881000608E+03  0.80727332896E+02 0.  0.
         11    1    4    4    0    0 -0.53396307231E+02  0.73697340643E+02  0.50262185532E+02  0.10396514290E+03  0.00000000000E+00 0. -1.
        -12    1    4    4    0    0  0.18896587567E+02  0.39666986588E+02  0.72581677859E+02  0.84844863177E+02  0.00000000000E+00 0.  1.
        -13    1    3    3    0    0 -0.73766965680E+01 -0.81337684091E+02  0.27621709508E+03  0.28803839696E+03  0.00000000000E+00 0.  1.
         13    1    3    3    0    0 -0.88092345144E+00  0.28285555374E+02  0.88442528115E+02  0.92859729961E+02  0.00000000000E+00 0. -1.
          2    1    1    2  501    0  0.42757339684E+02 -0.60312198514E+02  0.37960688770E+03  0.38673911177E+03  0.00000000000E+00 0. -1.
<scales pt_clust_5="13000.00000" pt_clust_6="13000.00000" pt_clust_7="13000.00000" pt_clust_8="13000.00000" pt_clust_9="73.93076"></scales>
<clustering>
<clus scale="   73.931">  2  9  1 -1</clus>
<clus scale="   80.727">  5  6 -1 -1</clus>
<clus scale="   96.042">  7  8 -1 -1</clus>
<clus scale="  103.622">  2  5  1 -1</clus>
<clus scale="   73.931">  2  5  1 -1</clus>
</clustering>
</event>
<event>
 9    1  0.5981539E-005  0.1978958E+03  0.7546771E-02  0.1171880E+00
         21   -1    0    0  501  502  0.00000000000E+00  0.00000000000E+00  0.74747872769E+03  0.74747872769E+03  0.00000000000E+00 0.  1.
         -4   -1    0    0    0  501 -0.00000000000E+00 -0.00000000000E+00 -0.94162487739E+02  0.94162487739E+02  0.00000000000E+00 0.  1.
         23    2    1    2    0    0  0.38999067926E+01 -0.83032276898E+02  0.18433017890E+03  0.22181505266E+03  0.91185165736E+02 0.  0.
        -24    2    1    2    0    0 -0.18174456911E+03  0.85306661365E+02  0.18163813823E+03  0.28188722526E+03  0.78483626528E+02 0.  0.
         11    1    4    4    0    0 -0.72343533588E+02  0.66512983895E+01  0.10246643376E+03  0.12560731137E+03  0.00000000000E+00 0. -1.
        -12    1    4    4    0    0 -0.10940103552E+03  0.78655362975E+02  0.79171704473E+02  0.15627991389E+03  0.00000000000E+00 0.  1.
        -11    1    3    3    0    0  0.27860700181E+02 -0.11177292455E+02  0.98347907171E+01  0.31589137210E+02  0.00000000000E+00 0. -1.
         11    1    3    3    0    0 -0.23960793388E+02 -0.71854984443E+02  0.17449538819E+03  0.19022591545E+03  0.00000000000E+00 0.  1.
         -3    1    1    2    0  502  0.17784466231E+03 -0.22743844664E+01  0.28734792282E+03  0.33793893751E+03  0.00000000000E+00 0.  1.
<scales pt_clust_5="13000.00000" pt_clust_6="13000.00000" pt_clust_7="13000.00000" pt_clust_8="13000.00000" pt_clust_9="181.66748"></scales>
<clustering>
<clus scale="   78.484">  5  6 -1 -1</clus>
<clus scale="   91.185">  7  8 -1 -1</clus>
<clus scale="  123.387">  2  7  1 -1</clus>
<clus scale="  181.667">  1  9  2 -1</clus>
<clus scale="  181.667">  1  5  2 -1</clus>
</clustering>
</event>
<event>
 9    1  0.5981539E-005  0.1005388E+03  0.7546771E-02  0.1285075E+00
          1   -1    0    0  502    0 -0.00000000000E+00  0.00000000000E+00  0.63694681729E+03  0.63694681729E+03  0.00000000000E+00 0. -1.
         21   -1    0    0  501  502  0.00000000000E+00 -0.00000000000E+00 -0.43641676688E+02  0.43641676688E+02  0.00000000000E+00 0.  1.
         23    2    1    2    0    0  0.51194660006E+02  0.20949751669E+00  0.15000512063E+03  0.18318307933E+03  0.91834455593E+02 0.  0.
        -24    2    1    2    0    0 -0.17566615791E+02 -0.38704205120E+02  0.55517757582E+02  0.10626890281E+03  0.80026600660E+02 0.  0.
         13    1    4    4    0    0  0.21354426465E+02  0.65005122929E+01  0.38046668386E+02  0.44111417626E+02  0.00000000000E+00 0. -1.
        -14    1    4    4    0    0 -0.38921042256E+02 -0.45204717413E+02  0.17471089196E+02  0.62157485184E+02  0.00000000000E+00 0.  1.
        -13    1    3    3    0    0 -0.22831345881E+02  0.17768160257E+02  0.45478025599E+02  0.53900173340E+02  0.00000000000E+00 0. -1.
         13    1    3    3    0    0  0.74026005887E+02 -0.17558662740E+02  0.10452709503E+03  0.12928290599E+03  0.00000000000E+00 0.  1.
          2    1    1    2  501    0 -0.33628044215E+02  0.38494707603E+02  0.38778226239E+03  0.39113651184E+03  0.00000000000E+00 0. -1.
<scales pt_clust_5="13000.00000" pt_clust_6="13000.00000" pt_clust_7="13000.00000" pt_clust_8="13000.00000" pt_clust_9="51.11448"></scales>
<clustering>
<clus scale="   51.114">  2  9  1 -1</clus>
<clus scale="   80.027">  5  6 -1 -1</clus>
<clus scale="   89.882">  2  5  1 -1</clus>
<clus scale="   91.834">  7  8 -1 -1</clus>
<clus scale="   51.114">  2  5  1 -1</clus>
</clustering>
</event>
<event>
 9    1  0.5981539E-005  0.1767691E+03  0.7546771E-02  0.1196624E+00
          1   -1    0    0  502    0 -0.00000000000E+00  0.00000000000E+00  0.25752435472E+03  0.25752435472E+03  0.00000000000E+00 0. -1.
         21   -1    0    0  501  502  0.00000000000E+00 -0.00000000000E+00 -0.32152396193E+03  0.32152396193E+03  0.00000000000E+00 0. -1.
        -24    2    1    2    0    0 -0.25155968959E+02  0.50804043200E+02  0.63579416178E+02  0.11821805082E+03  0.81971286428E+02 0.  0.
         23    2    1    2    0    0 -0.67535312162E+02 -0.16608978977E+03  0.71026046654E+02  0.21318848663E+03  0.90872409868E+02 0.  0.
         13    1    3    3    0    0 -0.33657246088E+00  0.37882404489E+02  0.78019027060E+02  0.86730377806E+02  0.00000000000E+00 0. -1.
        -14    1    3    3    0    0 -0.24819396498E+02  0.12921638711E+02 -0.14439610882E+02  0.31487673015E+02  0.00000000000E+00 0.  1.
        -13    1    4    4    0    0 -0.18709215026E+02 -0.12900206226E+03  0.16977357808E+02  0.13145264346E+03  0.00000000000E+00 0. -1.
         13    1    4    4    0    0 -0.48826097136E+02 -0.37087727507E+02  0.54048688845E+02  0.81735843173E+02  0.00000000000E+00 0.  1.
          2    1    1    2  501    0  0.92691281121E+02  0.11528574657E+03 -0.19860507004E+03  0.24764177919E+03  0.00000000000E+00 0. -1.
<scales pt_clust_5="13000.00000" pt_clust_6="13000.00000" pt_clust_7="13000.00000" pt_clust_8="13000.00000" pt_clust_9="151.62294"></scales>
<clustering>
<clus scale="   81.971">  5  6 -1 -1</clus>
<clus scale="   90.872">  7  8 -1 -1</clus>
<clus scale="   99.665">  1  5  2 -1</clus>
<clus scale="  151.623">  2  9  1 -1</clus>
<clus scale="  151.623">  2  5  1 -1</clus>
</clustering>
</event>
<event>
 9    1  0.5981539E-005  0.9885179E+02  0.7546771E-02  0.1286385E+00
          1   -1    0    0  502    0 -0.00000000000E+00  0.00000000000E+00  0.32444900713E+03  0.32444900713E+03  0.00000000000E+00 0. -1.
         21   -1    0    0  501  502  0.00000000000E+00 -0.00000000000E+00 -0.12318497510E+03  0.12318497510E+03  0.00000000000E+00 0.  1.
        -24    2    1    2    0    0  0.20976978823E+02  0.33698381131E+02  0.25673442033E+03  0.27275885714E+03  0.83121700150E+02 0.  0.
         23    2    1    2    0    0 -0.45116993990E+02 -0.19600137511E+02  0.10289701377E+02  0.10341961306E+03  0.90388217563E+02 0.  0.
         13    1    3    3    0    0  0.28356001509E+02  0.58982952441E+02  0.19309354741E+03  0.20388273480E+03  0.00000000000E+00 0. -1.
        -14    1    3    3    0    0 -0.73790226859E+01 -0.25284571310E+02  0.63640872924E+02  0.68876122341E+02  0.00000000000E+00 0.  1.
        -13    1    4    4    0    0 -0.68709873460E+02 -0.25877372386E+02 -0.66239148513E+01  0.73719477484E+02  0.00000000000E+00 0.  1.
         13    1    4    4    0    0  0.23592879471E+02  0.62772348754E+01  0.16913616228E+02  0.29700135577E+02  0.00000000000E+00 0. -1.
          2    1    1    2  501    0  0.24140015167E+02 -0.14098243621E+02 -0.65760089675E+02  0.71455512030E+02  0.00000000000E+00 0. -1.
<scales pt_clust_5="13000.00000" pt_clust_6="13000.00000" pt_clust_7="13000.00000" pt_clust_8="13000.00000" pt_clust_9="27.95534"></scales>
<clustering>
<clus scale="   27.955">  2  9  1 -1</clus>
<clus scale="   83.122">  5  6 -1 -1</clus>
<clus scale="   90.388">  7  8 -1 -1</clus>
<clus scale="   92.254">  1  5  2 -1</clus>
<clus scale="   27.955">  2  5  1 -1</clus>
</clustering>
</event>
<event>
 9    1  0.5981539E-005  0.1000337E+03  0.7546771E-02  0.1282621E+00
          1   -1    0    0  502    0 -0.00000000000E+00  0.00000000000E+00  0.45758917827E+03  0.45758917827E+03  0.00000000000E+00 0. -1.
         21   -1    0    0  501  502  0.00000000000E+00 -0.00000000000E+00 -0.57838009737E+02  0.57838009737E+02  0.00000000000E+00 0. -1.
         23    2    1    2    0    0 -0.47451927434E+02  0.18902428110E+02  0.30981461462E+03  0.32711584274E+03  0.91709824630E+02 0.  0.
        -24    2    1    2    0    0  0.13450409226E+02 -0.18632921961E+02  0.11510591755E+03  0.14600682139E+03  0.86836169587E+02 0.  0.
         11    1    4    4    0    0 -0.25908083834E+02 -0.10943664402E+02  0.98784489722E+02  0.10271011639E+03  0.00000000000E+00 0. -1.
        -12    1    4    4    0    0  0.39358493060E+02 -0.76892575591E+01  0.16321427825E+02  0.43296705002E+02  0.00000000000E+00 0.  1.
        -13    1    3    3    0    0 -0.35819106115E+02 -0.24638717854E+02  0.65075625531E+02  0.78261815840E+02  0.00000000000E+00 0.  1.
         13    1    3    3    0    0 -0.11632821319E+02  0.43541145965E+02  0.24473898909E+03  0.24885402690E+03  0.00000000000E+00 0. -1.
          2    1    1    2  501    0  0.34001518208E+02 -0.26950614908E+00 -0.25169363640E+02  0.42304523872E+02  0.00000000000E+00 0. -1.
<scales pt_clust_5="13000.00000" pt_clust_6="13000.00000" pt_clust_7="13000.00000" pt_clust_8="13000.00000" pt_clust_9="34.00259"></scales>
<clustering>
<clus scale="   34.003">  2  9  1 -1</clus>
<clus scale="   86.836">  5  6 -1 -1</clus>
<clus scale="   91.710">  7  8 -1 -1</clus>
<clus scale="   95.585">  2  5  1 -1</clus>
<clus scale="   34.003">  2  5  1 -1</clus>
</clustering>
</event>
<event>
 9    1  0.5981539E-005  0.9625396E+02  0.7546771E-02  0.1294021E+00
          3   -1    0    0  502    0 -0.00000000000E+00  0.00000000000E+00  0.18887081046E+03  0.18887081046E+03  0.00000000000E+00 0. -1.
         21   -1    0    0  501  502  0.00000000000E+00 -0.00000000000E+00 -0.15248980447E+03  0.15248980447E+03  0.00000000000E+00 0. -1.
        -24    2    1    2    0    0  0.33056993937E+02 -0.20261800661E+02  0.12829582148E+03  0.15654195407E+03  0.80884239252E+02 0.  0.
         23    2    1    2    0    0 -0.65773577172E+01 -0.29874368963E+01 -0.56006984768E+01  0.91588703359E+02  0.91131423481E+02 0.  0.
         11    1    3    3    0    0  0.37031092652E+02 -0.48174462224E+02  0.96598573747E+02  0.11411995918E+03  0.00000000000E+00 0. -1.
        -12    1    3    3    0    0 -0.39740987152E+01  0.27912661564E+02  0.31697247736E+02  0.42421994887E+02  0.00000000000E+00 0.  1.
        -13    1    4    4    0    0 -0.28719508604E+02  0.35126585664E+02 -0.12283415402E+02  0.47006058001E+02  0.00000000000E+00 0.  1.
         13    1    4    4    0    0  0.22142150887E+02 -0.38114022560E+02  0.66827169248E+01  0.44582645358E+02  0.00000000000E+00 0. -1.
          4    1    1    2  501    0 -0.26479636220E+02  0.23249237557E+02 -0.86314117014E+02  0.93229957509E+02  0.00000000000E+00 0. -1.
<scales pt_clust_5="13000.00000" pt_clust_6="13000.00000" pt_clust_7="13000.00000" pt_clust_8="13000.00000" pt_clust_9="35.23774"></scales>
<clustering>
<clus scale="   35.238">  2  9  1 -1</clus>
<clus scale="   80.884">  5  6 -1 -1</clus>
<clus scale="   86.615">  1  5  2 -1</clus>
<clus scale="   91.131">  7  8 -1 -1</clus>
<clus scale="   35.238">  2  5  1 -1</clus>
</clustering>
</event>
<event>
 9    1  0.5981539E-005  0.2857436E+03  0.7546771E-02  0.1092916E+00
          1   -1    0    0  502    0 -0.00000000000E+00  0.00000000000E+00  0.10800758767E+04  0.10800758767E+04  0.00000000000E+00 0. -1.
         21   -1    0    0  501  502  0.00000000000E+00 -0.00000000000E+00 -0.11259013458E+03  0.11259013458E+03  0.00000000000E+00 0. -1.
        -24    2    1    2    0    0 -0.38952310167E+02 -0.29959248651E+03  0.58348168079E+03  0.66236630119E+03  0.83697698334E+02 0.  0.
         23    2    1    2    0    0  0.80760297376E+02  0.21053459448E+03  0.17643834784E+03  0.30059829227E+03  0.91552179779E+02 0.  0.
         13    1    3    3    0    0 -0.16975688161E+02 -0.25437096287E+03  0.53443938126E+03  0.59213023313E+03  0.00000000000E+00 0. -1.
        -14    1    3    3    0    0 -0.21976622006E+02 -0.45221523638E+02  0.49042299524E+02  0.70236068067E+02  0.00000000000E+00 0.  1.
        -13    1    4    4    0    0  0.40930497924E+02  0.15212979764E+03  0.68998713900E+02  0.17198721904E+03  0.00000000000E+00 0.  1.
         13    1    4    4    0    0  0.39829799451E+02  0.58404796834E+02  0.10743963394E+03  0.12861107323E+03  0.00000000000E+00 0. -1.
          2    1    1    2  501    0 -0.41807987209E+02  0.89057892031E+02  0.20756571347E+03  0.22970141780E+03  0.00000000000E+00 0. -1.
<scales pt_clust_5="13000.00000" pt_clust_6="13000.00000" pt_clust_7="13000.00000" pt_clust_8="13000.00000" pt_clust_9="98.38306"></scales>
<clustering>
<clus scale="   83.698">  5  6 -1 -1</clus>
<clus scale="   91.552">  7  8 -1 -1</clus>
<clus scale="   98.383">  2  9  1 -1</clus>
<clus scale="  283.325">  1  5  2 -1</clus>
<clus scale="   98.383">  2  5  1 -1</clus>
</clustering>
</event>
<event>
 9    1  0.5981539E-005  0.1248665E+03  0.7546771E-02  0.1247219E+00
          1   -1    0    0  502    0 -0.00000000000E+00  0.00000000000E+00  0.12741853420E+04  0.12741853420E+04  0.00000000000E+00 0. -1.
         21   -1    0    0  501  502  0.00000000000E+00 -0.00000000000E+00 -0.45214287840E+02  0.45214287840E+02  0.00000000000E+00 0. -1.
         23    2    1    2    0    0 -0.35645829923E+02 -0.11512536714E+02  0.36675603482E+02  0.10466103371E+03  0.90585144439E+02 0.  0.
        -24    2    1    2    0    0  0.17287537083E+02 -0.88848404889E+02  0.49089524648E+03  0.50595683002E+03  0.82590997362E+02 0.  0.
         11    1    4    4    0    0  0.46978418777E+02 -0.38535527846E+02  0.30875259190E+03  0.31467462837E+03  0.00000000000E+00 0. -1.
        -12    1    4    4    0    0 -0.29690881694E+02 -0.50312877043E+02  0.18214265458E+03  0.19128220165E+03  0.00000000000E+00 0.  1.
        -13    1    3    3    0    0 -0.13492307746E+02  0.35511662903E+02  0.36496616057E+02  0.52679441474E+02  0.00000000000E+00 0.  1.
         13    1    3    3    0    0 -0.22153522177E+02 -0.47024199617E+02  0.17898742523E+00  0.51981592231E+02  0.00000000000E+00 0. -1.
          2    1    1    2  501    0  0.18358292840E+02  0.10036094160E+03  0.70140020421E+03  0.70878176611E+03  0.00000000000E+00 0. -1.
<scales pt_clust_5="13000.00000" pt_clust_6="13000.00000" pt_clust_7="13000.00000" pt_clust_8="13000.00000" pt_clust_9="93.65032"></scales>
<clustering>
<clus scale="   82.591">  5  6 -1 -1</clus>
<clus scale="   90.585">  7  8 -1 -1</clus>
<clus scale="   98.025">  1  7  2 -1</clus>
<clus scale="   93.650">  2  9  1 -1</clus>
<clus scale="   93.650">  2  5  1 -1</clus>
</clustering>
</event>
<event>
 9    1  0.5981539E-005  0.2720696E+03  0.7546771E-02  0.1142279E+00
          3   -1    0    0  502    0 -0.00000000000E+00  0.00000000000E+00  0.16766260973E+04  0.16766260973E+04  0.00000000000E+00 0. -1.
         21   -1    0    0  501  502  0.00000000000E+00 -0.00000000000E+00 -0.59326415681E+02  0.59326415681E+02  0.00000000000E+00 0. -1.
        -24    2    1    2    0    0 -0.50233021530E+02  0.40422318905E+01  0.15567827501E+03  0.18233736140E+03  0.80445583869E+02 0.  0.
         23    2    1    2    0    0  0.16830624323E+03  0.20612797397E+03  0.79596131711E+03  0.84564894061E+03  0.10369175115E+03 0.  0.
         13    1    3    3    0    0 -0.44939201318E+02  0.15646022909E+02  0.16146561370E+03  0.16833144167E+03  0.00000000000E+00 0. -1.
        -14    1    3    3    0    0 -0.52938202119E+01 -0.11603791019E+02 -0.57873386917E+01  0.14005919733E+02  0.00000000000E+00 0.  1.
        -11    1    4    4    0    0  0.94391185735E+02  0.12649969175E+03  0.31210597911E+03  0.34974563636E+03  0.00000000000E+00 0.  1.
         11    1    4    4    0    0  0.73915057496E+02  0.79628282215E+02  0.48385533801E+03  0.49590330425E+03  0.00000000000E+00 0. -1.
          4    1    1    2  501    0 -0.11807322170E+03 -0.21017020586E+03  0.66566008949E+03  0.70796621095E+03  0.00000000000E+00 0. -1.
<scales pt_clust_5="13000.00000" pt_clust_6="13000.00000" pt_clust_7="13000.00000" pt_clust_8="13000.00000" pt_clust_9="251.53501"></scales>
<clustering>
<clus scale="   80.446">  5  6 -1 -1</clus>
<clus scale="   94.927">  1  5  2 -1</clus>
<clus scale="  103.692">  7  8 -1 -1</clus>
<clus scale="  251.535">  2  9  1 -1</clus>
<clus scale="  251.535">  2  5  1 -1</clus>
</clustering>
</event>
<event>
 9    1  0.5981539E-005  0.1841403E+03  0.7546771E-02  0.1164157E+00
         21   -1    0    0  501  502  0.00000000000E+00  0.00000000000E+00  0.17996230323E+03  0.17996230323E+03  0.00000000000E+00 0. -1.
          1   -1    0    0  502    0 -0.00000000000E+00 -0.00000000000E+00 -0.32258839195E+03  0.32258839195E+03  0.00000000000E+00 0. -1.
         23    2    1    2    0    0  0.16779116878E+03 -0.68327768189E+02 -0.14745360267E+03  0.25255125346E+03  0.96005262677E+02 0.  0.
        -24    2    1    2    0    0 -0.12462823138E+03 -0.11362484771E+02  0.66710534064E+01  0.15935191434E+03  0.98423714284E+02 0.  0.
         13    1    4    4    0    0 -0.86644855688E+02 -0.53457853410E+02 -0.29032995547E+01  0.10185039154E+03  0.00000000000E+00 0. -1.
        -14    1    4    4    0    0 -0.37983375693E+02  0.42095368639E+02  0.95743529610E+01  0.57501522802E+02  0.00000000000E+00 0.  1.
        -13    1    3    3    0    0  0.10261439343E+02 -0.44337908710E+02 -0.28432850422E+02  0.53661664802E+02  0.00000000000E+00 0.  1.
         13    1    3    3    0    0  0.15752972944E+03 -0.23989859479E+02 -0.11902075224E+03  0.19888958866E+03  0.00000000000E+00 0. -1.
          2    1    1    2  501    0 -0.43162937397E+02  0.79690252960E+02 -0.18435394677E+01  0.90647527376E+02  0.00000000000E+00 0. -1.
<scales pt_clust_5="13000.00000" pt_clust_6="13000.00000" pt_clust_7="13000.00000" pt_clust_8="13000.00000" pt_clust_9="90.62878"></scales>
<clustering>
<clus scale="   90.629">  1  9  2 -1</clus>
<clus scale="   96.005">  7  8 -1 -1</clus>
<clus scale="   98.424">  5  6 -1 -1</clus>
<clus scale="  182.859">  2  7  1 -1</clus>
<clus scale="   90.629">  1  5  2 -1</clus>
</clustering>
</event>
<event>
 9    1  0.5981539E-005  0.1112218E+03  0.7546771E-02  0.1261571E+00
         21   -1    0    0  501  502  0.00000000000E+00  0.00000000000E+00  0.30658810276E+03  0.30658810276E+03  0.00000000000E+00 0.  1.
         -4   -1    0    0    0  501 -0.00000000000E+00 -0.00000000000E+00 -0.62336729538E+02  0.62336729538E+02  0.00000000000E+00 0.  1.
        -24    2    1    2    0    0  0.83071994901E+02 -0.16157405743E+02  0.61309394913E+02  0.13183827598E+03  0.80377055251E+02 0.  0.
         23    2    1    2    0    0 -0.33746256868E+02  0.14888075292E+02  0.14788269372E+03  0.17655728185E+03  0.89121927906E+02 0.  0.
         13    1    3    3    0    0 -0.51150803240E+01 -0.27173409602E+02  0.17822113637E+02  0.32896595122E+02  0.00000000000E+00 0. -1.
        -14    1    3    3    0    0  0.88187075225E+02  0.11016003858E+02  0.43487281277E+02  0.98941680856E+02  0.00000000000E+00 0.  1.
        -11    1    4    4    0    0  0.20312373495E+02  0.55154763174E+01  0.10453922536E+03  0.10663706033E+03  0.00000000000E+00 0.  1.
         11    1    4    4    0    0 -0.54058630363E+02  0.93725989749E+01  0.43343468356E+02  0.69920221520E+02  0.00000000000E+00 0. -1.
         -3    1    1    2    0  502 -0.49325738033E+02  0.12693304512E+01  0.35059284593E+02  0.60529274475E+02  0.00000000000E+00 0.  1.
<scales pt_clust_5="13000.00000" pt_clust_6="13000.00000" pt_clust_7="13000.00000" pt_clust_8="13000.00000" pt_clust_9="49.34209"></scales>
<clustering>
<clus scale="   49.342">  1  9  2 -1</clus>
<clus scale="   80.377">  5  6 -1 -1</clus>
<clus scale="   89.122">  7  8 -1 -1</clus>
<clus scale="  104.346">  2  5  1 -1</clus>
<clus scale="   49.342">  1  5  2 -1</clus>
</clustering>
</event>
<event>
 9    1  0.5981539E-005  0.1443856E+03  0.7546771E-02  0.1209378E+00
         21   -1    0    0  501  502  0.00000000000E+00  0.00000000000E+00  0.36962022977E+03  0.36962022977E+03  0.00000000000E+00 0. -1.
          1   -1    0    0  502    0 -0.00000000000E+00 -0.00000000000E+00 -0.10429962537E+03  0.10429962537E+03  0.00000000000E+00 0. -1.
         23    2    1    2    0    0 -0.77408245939E+02  0.92167515757E+02  0.33844568179E+02  0.15372637121E+03  0.89439671895E+02 0.  0.
        -24    2    1    2    0    0  0.10897129121E+03 -0.27631662459E+02  0.19683832115E+03  0.24043839949E+03  0.80168873015E+02 0.  0.
         13    1    4    4    0    0  0.12083745206E+03 -0.26843617177E+02  0.16370472832E+03  0.20523524960E+03  0.00000000000E+00 0. -1.
        -14    1    4    4    0    0 -0.11866160853E+02 -0.78804528146E+00  0.33133592821E+02  0.35203149888E+02  0.00000000000E+00 0.  1.
        -13    1    3    3    0    0 -0.16300027927E+01  0.57431431658E+02  0.40203645730E+02  0.70123885954E+02  0.00000000000E+00 0.  1.
         13    1    3    3    0    0 -0.75778243147E+02  0.34736084099E+02 -0.63590775508E+01  0.83602485252E+02  0.00000000000E+00 0. -1.
          2    1    1    2  501    0 -0.31563045270E+02 -0.64535853299E+02  0.34637715075E+02  0.79755084435E+02  0.00000000000E+00 0. -1.
<scales pt_clust_5="13000.00000" pt_clust_6="13000.00000" pt_clust_7="13000.00000" pt_clust_8="13000.00000" pt_clust_9="71.84085"></scales>
<clustering>
<clus scale="   71.841">  1  9  2 -1</clus>
<clus scale="   80.169">  5  6 -1 -1</clus>
<clus scale="   89.440">  7  8 -1 -1</clus>
<clus scale="  138.834">  1  5  2 -1</clus>
<clus scale="   71.841">  1  5  2 -1</clus>
</clustering>
</event>
<event>
 9    1  0.5981539E-005  0.1910935E+03  0.7546771E-02  0.1183693E+00
         21   -1    0    0  501  502  0.00000000000E+00  0.00000000000E+00  0.10342833238E+03  0.10342833238E+03  0.00000000000E+00 0. -1.
          1   -1    0    0  502    0 -0.00000000000E+00 -0.00000000000E+00 -0.78719472835E+03  0.78719472835E+03  0.00000000000E+00 0. -1.
         23    2    1    2    0    0  0.22959678228E+02  0.46501862858E+02 -0.18972005824E+03  0.21682350066E+03  0.91264231036E+02 0.  0.
        -24    2    1    2    0    0  0.12970255952E+03 -0.11719492212E+03 -0.51380340313E+02  0.20024232728E+03  0.83064111071E+02 0.  0.
         13    1    4    4    0    0  0.84013602334E+02 -0.47259270047E+02  0.95203505295E+01  0.96862588530E+02  0.00000000000E+00 0. -1.
        -14    1    4    4    0    0  0.45688957189E+02 -0.69935652069E+02 -0.60900690842E+02  0.10337973875E+03  0.00000000000E+00 0.  1.
        -13    1    3    3    0    0 -0.23387271282E+02 -0.59793893787E+01 -0.14566463060E+02  0.28193960372E+02  0.00000000000E+00 0.  1.
         13    1    3    3    0    0  0.46346949510E+02  0.52481252236E+02 -0.17515359518E+03  0.18862954029E+03  0.00000000000E+00 0. -1.
          2    1    1    2  501    0 -0.15266223775E+03  0.70693059258E+02 -0.44266599741E+03  0.47355723279E+03  0.00000000000E+00 0. -1.
<scales pt_clust_5="13000.00000" pt_clust_6="13000.00000" pt_clust_7="13000.00000" pt_clust_8="13000.00000" pt_clust_9="172.09627"></scales>
<clustering>
<clus scale="   83.064">  5  6 -1 -1</clus>
<clus scale="   91.264">  7  8 -1 -1</clus>
<clus scale="  104.970">  2  7  1 -1</clus>
<clus scale="  172.096">  1  9  2 -1</clus>
<clus scale="  172.096">  1  5  2 -1</clus>
</clustering>
</event>
<event>
 9    1  0.5981539E-005  0.1006832E+03  0.7546771E-02  0.1282099E+00
         -2   -1    0    0    0  501 -0.00000000000E+00  0.00000000000E+00  0.62600615477E+02  0.62600615477E+02  0.00000000000E+00 0.  1.
         21   -1    0    0  501  502  0.00000000000E+00 -0.00000000000E+00 -0.97392133469E+03  0.97392133469E+03  0.00000000000E+00 0.  1.
         23    2    1    2    0    0  0.41727677963E+02  0.53525356209E+01 -0.36678472376E+02  0.10642802394E+03  0.90618790530E+02 0.  0.
        -24    2    1    2    0    0 -0.69333187799E+02  0.31488802461E+02 -0.87671976254E+03  0.88401069244E+03  0.83897119800E+02 0.  0.
         13    1    4    4    0    0 -0.76823046214E+02  0.25891008606E+02 -0.45358950453E+03  0.46077712983E+03  0.00000000000E+00 0. -1.
        -14    1    4    4    0    0  0.74898584145E+01  0.55977938547E+01 -0.42313025802E+03  0.42323356261E+03  0.00000000000E+00 0.  1.
        -11    1    3    3    0    0  0.24465762715E+02 -0.28543898240E+02 -0.53046377468E+02  0.65017273355E+02  0.00000000000E+00 0.  1.
         11    1    3    3    0    0  0.17261915248E+02  0.33896433861E+02  0.16367905092E+02  0.41410750581E+02  0.00000000000E+00 0. -1.
         -1    1    1    2    0  502  0.27605509836E+02 -0.36841338082E+02  0.20775157041E+01  0.46083233789E+02  0.00000000000E+00 0.  1.
<scales pt_clust_5="13000.00000" pt_clust_6="13000.00000" pt_clust_7="13000.00000" pt_clust_8="13000.00000" pt_clust_9="46.03640"></scales>
<clustering>
<clus scale="   46.036">  2  9  1 -1</clus>
<clus scale="   83.897">  5  6 -1 -1</clus>
<clus scale="   90.619">  7  8 -1 -1</clus>
<clus scale="   94.679">  2  5  1 -1</clus>
<clus scale="   46.036">  2  5  1 -1</clus>
</clustering>
</event>
<event>
 9    1  0.5981539E-005  0.3320032E+03  0.7546771E-02  0.1070254E+00
          1   -1    0    0  502    0 -0.00000000000E+00  0.00000000000E+00  0.30009631727E+03  0.30009631727E+03  0.00000000000E+00 0. -1.
         21   -1    0    0  501  502  0.00000000000E+00 -0.00000000000E+00 -0.32063460776E+03  0.32063460776E+03  0.00000000000E+00 0. -1.
        -24    2    1    2    0    0 -0.66266289255E+02 -0.18281840256E+03  0.60899628809E+02  0.22130944138E+03  0.86344163945E+02 0.  0.
         23    2    1    2    0    0  0.35162623407E+02 -0.68303950618E+02  0.30023956507E+02  0.12291899894E+03  0.91136176028E+02 0.  0.
         11    1    3    3    0    0 -0.55793088589E+02 -0.19121009528E+03  0.54915593793E+02  0.20661532303E+03  0.00000000000E+00 0. -1.
        -12    1    3    3    0    0 -0.10473200666E+02  0.83916927175E+01  0.59840350156E+01  0.14694118344E+02  0.00000000000E+00 0.  1.
        -13    1    4    4    0    0  0.16094629264E+02 -0.56047527070E+02 -0.24972104525E+02  0.63434756926E+02  0.00000000000E+00 0. -1.
         13    1    4    4    0    0  0.19067994143E+02 -0.12256423548E+02  0.54996061032E+02  0.59484242013E+02  0.00000000000E+00 0.  1.
          2    1    1    2  501    0  0.31103665848E+02  0.25112235318E+03 -0.11146187581E+03  0.27650248471E+03  0.00000000000E+00 0. -1.
<scales pt_clust_5="13000.00000" pt_clust_6="13000.00000" pt_clust_7="13000.00000" pt_clust_8="13000.00000" pt_clust_9="253.04125"></scales>
<clustering>
<clus scale="   86.344">  5  6 -1 -1</clus>
<clus scale="   91.136">  7  8 -1 -1</clus>
<clus scale="  110.128">  5  7 -1 -1</clus>
<clus scale="  253.041">  2  9  1 -1</clus>
<clus scale="  253.041">  2  5  1 -1</clus>
</clustering>
</event>
<event>
 9    1  0.5981539E-005  0.9702409E+02  0.7546771E-02  0.1293390E+00
         21   -1    0    0  501  502  0.00000000000E+00  0.00000000000E+00  0.43108701056E+03  0.43108701056E+03  0.00000000000E+00 0.  1.
         -2   -1    0    0    0  501 -0.00000000000E+00 -0.00000000000E+00 -0.95491616945E+02  0.95491616945E+02  0.00000000000E+00 0.  1.
         23    2    1    2    0    0 -0.19272090254E+02 -0.27785009090E+02 -0.48131315319E+02  0.10930193834E+03  0.92124209721E+02 0.  0.
        -24    2    1    2    0    0  0.34777066264E+02 -0.31695684780E+02  0.29567867915E+03  0.30989506703E+03  0.79968809517E+02 0.  0.
         11    1    4    4    0    0  0.47898565233E+00  0.25800309223E+02  0.78686998738E+02  0.82810199575E+02  0.00000000000E+00 0. -1.
        -12    1    4    4    0    0  0.34298080612E+02 -0.57495994003E+02  0.21699168041E+03  0.22708486745E+03  0.00000000000E+00 0.  1.
        -13    1    3    3    0    0  0.21018535276E+02 -0.25884767195E+02  0.13228489642E+02  0.35871896188E+02  0.00000000000E+00 0. -1.
         13    1    3    3    0    0 -0.40290625530E+02 -0.19002418941E+01 -0.61359804961E+02  0.73430042147E+02  0.00000000000E+00 0.  1.
         -1    1    1    2    0  502 -0.15504976010E+02  0.59480693869E+02  0.88048029789E+02  0.10738162214E+03  0.00000000000E+00 0.  1.
<scales pt_clust_5="13000.00000" pt_clust_6="13000.00000" pt_clust_7="13000.00000" pt_clust_8="13000.00000" pt_clust_9="61.46834"></scales>
<clustering>
<clus scale="   61.468">  1  9  2 -1</clus>
<clus scale="   79.969">  5  6 -1 -1</clus>
<clus scale="   85.568">  1  5  2 -1</clus>
<clus scale="   92.124">  7  8 -1 -1</clus>
<clus scale="   61.468">  1  5  2 -1</clus>
</clustering>
</event>
<event>
 9    1  0.5981539E-005  0.9809211E+02  0.7546771E-02  0.1288736E+00
         -2   -1    0    0    0  501 -0.00000000000E+00  0.00000000000E+00  0.87308952733E+02  0.87308952733E+02  0.00000000000E+00 0.  1.
         21   -1    0    0  501  502  0.00000000000E+00 -0.00000000000E+00 -0.20574224234E+03  0.20574224234E+03  0.00000000000E+00 0. -1.
        -24    2    1    2    0    0 -0.44974083542E+02  0.80643149328E+01  0.32812830286E+02  0.98421135261E+02  0.80760984819E+02 0.  0.
         23    2    1    2    0    0  0.16208951300E+02 -0.79541942848E+01 -0.13039833218E+03  0.15910436190E+03  0.89355881907E+02 0.  0.
         13    1    3    3    0    0  0.16687317003E+02 -0.18904568451E+02  0.12349336443E+02  0.28077666706E+02  0.00000000000E+00 0. -1.
        -14    1    3    3    0    0 -0.61661400545E+02  0.26968883384E+02  0.20463493843E+02  0.70343468555E+02  0.00000000000E+00 0.  1.
        -13    1    4    4    0    0 -0.29867933230E+02 -0.97264231702E+01 -0.14949671725E+02  0.34787776988E+02  0.00000000000E+00 0.  1.
         13    1    4    4    0    0  0.46076884530E+02  0.17722288854E+01 -0.11544866046E+03  0.12431658492E+03  0.00000000000E+00 0. -1.
         -1    1    1    2    0  502  0.28765132242E+02 -0.11012064799E+00 -0.20847787704E+02  0.35525697905E+02  0.00000000000E+00 0.  1.
<scales pt_clust_5="13000.00000" pt_clust_6="13000.00000" pt_clust_7="13000.00000" pt_clust_8="13000.00000" pt_clust_9="28.76534"></scales>
<clustering>
<clus scale="   28.765">  2  9  1 -1</clus>
<clus scale="   80.761">  5  6 -1 -1</clus>
<clus scale="   89.356">  7  8 -1 -1</clus>
<clus scale="   90.332">  1  5  2 -1</clus>
<clus scale="   28.765">  2  5  1 -1</clus>
</clustering>
</event>
<event>
 9    1  0.5981539E-005  0.1462806E+03  0.7546771E-02  0.1207247E+00
         21   -1    0    0  501  502  0.00000000000E+00  0.00000000000E+00  0.61008059097E+03  0.61008059097E+03  0.00000000000E+00 0. -1.
          1   -1    0    0  502    0 -0.00000000000E+00 -0.00000000000E+00 -0.13604081145E+03  0.13604081145E+03  0.00000000000E+00 0. -1.
        -24    2    1    2    0    0  0.82271577688E+02  0.80181884042E+02 -0.59504703232E+02  0.15252201022E+03  0.80773800650E+02 0.  0.
         23    2    1    2    0    0 -0.13788939607E+03 -0.59877203813E+01  0.37436144255E+03  0.40937844896E+03  0.91623613012E+02 0.  0.
         11    1    3    3    0    0  0.69128080038E+02  0.96342416751E+02 -0.43696638082E+02  0.12637226315E+03  0.00000000000E+00 0. -1.
        -12    1    3    3    0    0  0.13143497650E+02 -0.16160532708E+02 -0.15808065151E+02  0.26149747067E+02  0.00000000000E+00 0.  1.
        -11    1    4    4    0    0 -0.10897037210E+03 -0.37118944362E+02  0.20859093964E+03  0.23824889953E+03  0.00000000000E+00 0.  1.
         11    1    4    4    0    0 -0.28919023964E+02  0.31131223980E+02  0.16577050290E+03  0.17112954943E+03  0.00000000000E+00 0. -1.
          2    1    1    2  501    0  0.55617818379E+02 -0.74194163661E+02  0.15918304020E+03  0.18422094324E+03  0.00000000000E+00 0. -1.
<scales pt_clust_5="13000.00000" pt_clust_6="13000.00000" pt_clust_7="13000.00000" pt_clust_8="13000.00000" pt_clust_9="92.72602"></scales>
<clustering>
<clus scale="   80.774">  5  6 -1 -1</clus>
<clus scale="   91.624">  7  8 -1 -1</clus>
<clus scale="   92.726">  1  9  2 -1</clus>
<clus scale="  139.741">  2  5  1 -1</clus>
<clus scale="   92.726">  1  5  2 -1</clus>
</clustering>
</event>
<event>
 9    1  0.5981539E-005  0.9485380E+02  0.7546771E-02  0.1297905E+00
         -4   -1    0    0    0  501 -0.00000000000E+00  0.00000000000E+00  0.57739664341E+03  0.57739664341E+03  0.00000000000E+00 0.  1.
         21   -1    0    0  501  502  0.00000000000E+00 -0.00000000000E+00 -0.37687740997E+02  0.37687740997E+02  0.00000000000E+00 0.  1.
         23    2    1    2    0    0  0.44610573565E+02  0.51310510621E+01  0.34132313370E+03  0.35595729483E+03  0.90485817595E+02 0.  0.
        -24    2    1    2    0    0  0.24729523944E+02 -0.17016746452E+02  0.59870685731E+02  0.10377025165E+03  0.79263150977E+02 0.  0.
         11    1    4    4    0    0 -0.21776792414E+02 -0.20546796109E+02  0.46404961713E+02  0.55225175326E+02  0.00000000000E+00 0. -1.
        -12    1    4    4    0    0  0.46506316358E+02  0.35300496574E+01  0.13465724018E+02  0.48545076322E+02  0.00000000000E+00 0.  1.
        -13    1    3    3    0    0  0.57196357234E+02 -0.29163105044E+02  0.20448517046E+03  0.21432707462E+03  0.00000000000E+00 0.  1.
         13    1    3    3    0    0 -0.12585783670E+02  0.34294156106E+02  0.13683796324E+03  0.14163022021E+03  0.00000000000E+00 0. -1.
         -3    1    1    2    0  502 -0.69340097508E+02  0.11885695390E+02  0.13851508298E+03  0.15535683793E+03  0.00000000000E+00 0.  1.
<scales pt_clust_5="13000.00000" pt_clust_6="13000.00000" pt_clust_7="13000.00000" pt_clust_8="13000.00000" pt_clust_9="70.35143"></scales>
<clustering>
<clus scale="   70.351">  2  9  1 -1</clus>
<clus scale="   79.263">  5  6 -1 -1</clus>
<clus scale="   84.215">  2  5  1 -1</clus>
<clus scale="   90.486">  7  8 -1 -1</clus>
<clus scale="   70.351">  2  5  1 -1</clus>
</clustering>
</event>
<event>
 9    1  0.5981539E-005  0.1138807E+03  0.7546771E-02  0.1257957E+00
         -4   -1    0    0    0  501 -0.00000000000E+00  0.00000000000E+00  0.40854712179E+03  0.40854712179E+03  0.00000000000E+00 0.  1.
         21   -1    0    0  501  502  0.00000000000E+00 -0.00000000000E+00 -0.26904596954E+03  0.26904596954E+03  0.00000000000E+00 0.  1.
        -24    2    1    2    0    0  0.36719293992E+02 -0.83671635087E+02  0.29361677988E+03  0.31830370399E+03  0.82202101433E+02 0.  0.
         23    2    1    2    0    0  0.20786886059E+02  0.64291914187E+02  0.75207174989E+02  0.12207327886E+03  0.68412143517E+02 0.  0.
         11    1    3    3    0    0 -0.23767864459E+02 -0.24489537201E+02  0.51113175794E+02  0.61458974552E+02  0.00000000000E+00 0. -1.
        -12    1    3    3    0    0  0.60487158450E+02 -0.59182097886E+02  0.24250360408E+03  0.25684472944E+03  0.00000000000E+00 0.  1.
        -13    1    4    4    0    0  0.45619142503E+02  0.39390829211E+02  0.54524642902E+02  0.81275336186E+02  0.00000000000E+00 0.  1.
         13    1    4    4    0    0 -0.24832256444E+02  0.24901084977E+02  0.20682532087E+02  0.40797942677E+02  0.00000000000E+00 0. -1.
         -3    1    1    2    0  502 -0.57506180050E+02  0.19379720900E+02 -0.22932280261E+03  0.23721610848E+03  0.00000000000E+00 0.  1.
<scales pt_clust_5="13000.00000" pt_clust_6="13000.00000" pt_clust_7="13000.00000" pt_clust_8="13000.00000" pt_clust_9="60.68389"></scales>
<clustering>
<clus scale="   60.684">  2  9  1 -1</clus>
<clus scale="   68.412">  7  8 -1 -1</clus>
<clus scale="   82.202">  5  6 -1 -1</clus>
<clus scale="  104.364">  2  7  1 -1</clus>
<clus scale="   60.684">  2  5  1 -1</clus>
</clustering>
</event>
<event>
 9    1  0.5981539E-005  0.1091034E+03  0.7546771E-02  0.1276888E+00
         21   -1    0    0  501  502  0.00000000000E+00  0.00000000000E+00  0.25173478652E+03  0.25173478652E+03  0.00000000000E+00 0.  1.
         -2   -1    0    0    0  501 -0.00000000000E+00 -0.00000000000E+00 -0.13838241438E+03  0.13838241438E+03  0.00000000000E+00 0.  1.
         23    2    1    2    0    0  0.11583007052E+02 -0.32109280530E+02 -0.78183457474E+02  0.13682916567E+03  0.10697848198E+03 0.  0.
        -24    2    1    2    0    0 -0.67129901939E+01 -0.58151273329E+01  0.26844595019E+02  0.84216510348E+02  0.79327853811E+02 0.  0.
         11    1    4    4    0    0  0.34719786427E+01  0.34720765843E+02  0.23946214237E+02  0.42320295281E+02  0.00000000000E+00 0. -1.
        -12    1    4    4    0    0 -0.10184968837E+02 -0.40535893176E+02  0.28983807818E+01  0.41896215067E+02  0.00000000000E+00 0.  1.
        -13    1    3    3    0    0 -0.41457166831E+02 -0.39517321702E+02 -0.29366950887E+02  0.64364067620E+02  0.00000000000E+00 0.  1.
         13    1    3    3    0    0  0.53040173884E+02  0.74080411721E+01 -0.48816506588E+02  0.72465098048E+02  0.00000000000E+00 0. -1.
         -1    1    1    2    0  502 -0.48700168585E+01  0.37924407863E+02  0.16469123460E+03  0.16907152489E+03  0.00000000000E+00 0.  1.
<scales pt_clust_5="13000.00000" pt_clust_6="13000.00000" pt_clust_7="13000.00000" pt_clust_8="13000.00000" pt_clust_9="38.23582"></scales>
<clustering>
<clus scale="   38.236">  1  9  2 -1</clus>
<clus scale="   79.328">  5  6 -1 -1</clus>
<clus scale="   82.171">  1  5  2 -1</clus>
<clus scale="  106.978">  7  8 -1 -1</clus>
<clus scale="   38.236">  1  5  2 -1</clus>
</clustering>
</event>
<event>
 9    1  0.5981539E-005  0.1710315E+03  0.7546771E-02  0.1194045E+00
         21   -1    0    0  501  502  0.00000000000E+00  0.00000000000E+00  0.14438332404E+03  0.14438332404E+03  0.00000000000E+00 0. -1.
          1   -1    0    0  502    0 -0.00000000000E+00 -0.00000000000E+00 -0.45789320511E+03  0.45789320511E+03  0.00000000000E+00 0. -1.
        -24    2    1    2    0    0  0.32019484721E+02  0.80213210378E+02 -0.23187880237E+03  0.25946658142E+03  0.78075100819E+02 0.  0.
         23    2    1    2    0    0 -0.42998990821E+02  0.91624580968E+02 -0.10066064630E+03  0.16957340271E+03  0.91534671806E+02 0.  0.
         13    1    3    3    0    0  0.12977515081E+02  0.84567508823E+02 -0.22127669427E+03  0.23724134309E+03  0.00000000000E+00 0. -1.
        -14    1    3    3    0    0  0.19041969640E+02 -0.43542984454E+01 -0.10602108098E+02  0.22225238331E+02  0.00000000000E+00 0.  1.
        -13    1    4    4    0    0 -0.14510715347E+02  0.10365733369E+03 -0.85402964598E+02  0.13508911892E+03  0.00000000000E+00 0. -1.
         13    1    4    4    0    0 -0.28488275474E+02 -0.12032752723E+02 -0.15257681706E+02  0.34484283791E+02  0.00000000000E+00 0.  1.
          2    1    1    2  501    0  0.10979506100E+02 -0.17183779135E+03  0.19029567599E+02  0.17323654502E+03  0.00000000000E+00 0. -1.
<scales pt_clust_5="13000.00000" pt_clust_6="13000.00000" pt_clust_7="13000.00000" pt_clust_8="13000.00000" pt_clust_9="144.47551"></scales>
<clustering>
<clus scale="   78.075">  5  6 -1 -1</clus>
<clus scale="   91.535">  7  8 -1 -1</clus>
<clus scale="  116.426">  2  5  1 -1</clus>
<clus scale="  144.476">  1  9  2 -1</clus>
<clus scale="  144.476">  1  5  2 -1</clus>
</clustering>
</event>
<event>
 9    1  0.5981539E-005  0.3519877E+03  0.7546771E-02  0.1062006E+00
         21   -1    0    0  501  502  0.00000000000E+00  0.00000000000E+00  0.23576504049E+03  0.23576504049E+03  0.00000000000E+00 0.  1.
         -4   -1    0    0    0  501 -0.00000000000E+00 -0.00000000000E+00 -0.11372543308E+04  0.11372543308E+04  0.00000000000E+00 0.  1.
        -24    2    1    2    0    0 -0.20896813337E+03  0.28805888613E+03 -0.93181125864E+03  0.10007307797E+04  0.80896656776E+02 0.  0.
         23    2    1    2    0    0  0.16753939155E+03 -0.21531641839E+03  0.16900869475E+02  0.28750691223E+03  0.89128993272E+02 0.  0.
         11    1    3    3    0    0 -0.81720323528E+02  0.52894461590E+02 -0.26442824876E+03  0.28177710000E+03  0.00000000000E+00 0. -1.
        -12    1    3    3    0    0 -0.12724780984E+03  0.23516442454E+03 -0.66738300988E+03  0.71895367970E+03  0.00000000000E+00 0.  1.
        -13    1    4    4    0    0  0.13189820369E+01 -0.24624750960E+02  0.24039732144E+02  0.34438739742E+02  0.00000000000E+00 0. -1.
         13    1    4    4    0    0  0.16622040952E+03 -0.19069166743E+03 -0.71388626693E+01  0.25306817249E+03  0.00000000000E+00 0.  1.
         -3    1    1    2    0  502  0.41428741817E+02 -0.72742467739E+02  0.13421098849E+02  0.84781679363E+02  0.00000000000E+00 0.  1.
<scales pt_clust_5="13000.00000" pt_clust_6="13000.00000" pt_clust_7="13000.00000" pt_clust_8="13000.00000" pt_clust_9="83.71265"></scales>
<clustering>
<clus scale="   80.897">  5  6 -1 -1</clus>
<clus scale="   83.713">  1  9  2 -1</clus>
<clus scale="   89.129">  7  8 -1 -1</clus>
<clus scale="  349.994">  2  5  1 -1</clus>
<clus scale="   83.713">  1  5  2 -1</clus>
</clustering>
</event>
<event>
 9    1  0.5981539E-005  0.1550698E+03  0.7546771E-02  0.1206315E+00
         -2   -1    0    0    0  501 -0.00000000000E+00  0.00000000000E+00  0.10771137157E+03  0.10771137157E+03  0.00000000000E+00 0.  1.
         21   -1    0    0  501  502  0.00000000000E+00 -0.00000000000E+00 -0.41743681286E+03  0.41743681286E+03  0.00000000000E+00 0. -1.
         23    2    1    2    0    0 -0.39939521722E+01  0.76565943627E+02 -0.10122169424E+03  0.15673968635E+03  0.91886900670E+02 0.  0.
        -24    2    1    2    0    0 -0.12422722055E+03  0.34396955916E+01 -0.13010844773E+03  0.19815164977E+03  0.83015867776E+02 0.  0.
         13    1    4    4    0    0 -0.87263561856E+02 -0.12482864789E+02 -0.13099603951E+03  0.15789462787E+03  0.00000000000E+00 0. -1.
        -14    1    4    4    0    0 -0.36963658691E+02  0.15922560380E+02  0.88759178112E+00  0.40257021897E+02  0.00000000000E+00 0.  1.
        -11    1    3    3    0    0 -0.36966225218E+02  0.14566976989E+02 -0.88490905697E+01  0.40706326651E+02  0.00000000000E+00 0. -1.
         11    1    3    3    0    0  0.32972273046E+02  0.61998966638E+02 -0.92372603674E+02  0.11603335970E+03  0.00000000000E+00 0.  1.
         -1    1    1    2    0  502  0.12822117272E+03 -0.80005639219E+02 -0.78395299316E+02  0.17025684831E+03  0.00000000000E+00 0.  1.
<scales pt_clust_5="13000.00000" pt_clust_6="13000.00000" pt_clust_7="13000.00000" pt_clust_8="13000.00000" pt_clust_9="130.97718"></scales>
<clustering>
<clus scale="   83.016">  5  6 -1 -1</clus>
<clus scale="   91.887">  7  8 -1 -1</clus>
<clus scale="  119.673">  1  7  2 -1</clus>
<clus scale="  130.977">  2  9  1 -1</clus>
<clus scale="  130.977">  2  5  1 -1</clus>
</clustering>
</event>
<event>
 9    1  0.5981539E-005  0.9672870E+02  0.7546771E-02  0.1293184E+00
         21   -1    0    0  501  502  0.00000000000E+00  0.00000000000E+00  0.40552770709E+02  0.40552770709E+02  0.00000000000E+00 0. -1.
         -2   -1    0    0    0  501 -0.00000000000E+00 -0.00000000000E+00 -0.53475126200E+03  0.53475126200E+03  0.00000000000E+00 0.  1.
        -24    2    1    2    0    0 -0.45957774651E+01  0.18663132977E+02 -0.35175983822E+03  0.36191765163E+03  0.82945578986E+02 0.  0.
         23    2    1    2    0    0  0.20698958117E+02 -0.39429531384E+02 -0.15330270267E+03  0.18495078184E+03  0.93391317829E+02 0.  0.
         11    1    3    3    0    0 -0.40149049164E+02 -0.19773572819E+00 -0.11610927898E+03  0.12285499548E+03  0.00000000000E+00 0. -1.
        -12    1    3    3    0    0  0.35553271699E+02  0.18860868705E+02 -0.23565055924E+03  0.23906265615E+03  0.00000000000E+00 0.  1.
        -11    1    4    4    0    0  0.48599959584E+02  0.50664778476E+01 -0.92442930081E+02  0.10456252001E+03  0.00000000000E+00 0.  1.
         11    1    4    4    0    0 -0.27901001468E+02 -0.44496009231E+02 -0.60859772588E+02  0.80388261829E+02  0.00000000000E+00 0. -1.
         -1    1    1    2    0  502 -0.16103180652E+02  0.20766398407E+02  0.10864049605E+02  0.28435599232E+02  0.00000000000E+00 0.  1.
<scales pt_clust_5="13000.00000" pt_clust_6="13000.00000" pt_clust_7="13000.00000" pt_clust_8="13000.00000" pt_clust_9="26.27843"></scales>
<clustering>
<clus scale="   26.278">  1  9  2 -1</clus>
<clus scale="   82.946">  5  6 -1 -1</clus>
<clus scale="   86.686">  2  5  1 -1</clus>
<clus scale="   93.391">  7  8 -1 -1</clus>
<clus scale="   26.278">  1  5  2 -1</clus>
</clustering>
</event>
<event>
 9    1  0.5981539E-005  0.1805598E+03  0.7546771E-02  0.1188078E+00
          1   -1    0    0  502    0 -0.00000000000E+00  0.00000000000E+00  0.10917775103E+04  0.10917775103E+04  0.00000000000E+00 0. -1.
         21   -1    0    0  501  502  0.00000000000E+00 -0.00000000000E+00 -0.67014793306E+02  0.67014793306E+02  0.00000000000E+00 0. -1.
        -24    2    1    2    0    0  0.20450516184E+02 -0.75757614657E+02  0.58164699961E+03  0.59249662380E+03  0.81126920745E+02 0.  0.
         23    2    1    2    0    0  0.73954649920E+02  0.16784357080E+03  0.17818502249E+03  0.27035576732E+03  0.87758670091E+02 0.  0.
         13    1    3    3    0    0 -0.29324898138E+02 -0.46952696054E+02  0.28511329516E+03  0.29043776681E+03  0.00000000000E+00 0. -1.
        -14    1    3    3    0    0  0.49775414322E+02 -0.28804918603E+02  0.29653370446E+03  0.30205885699E+03  0.00000000000E+00 0.  1.
        -13    1    4    4    0    0  0.85234876078E+02  0.14313765171E+03  0.17714837279E+03  0.24317672055E+03  0.00000000000E+00 0. -1.
         13    1    4    4    0    0 -0.11280226158E+02  0.24705919090E+02  0.10366497030E+01  0.27179046762E+02  0.00000000000E+00 0.  1.
          2    1    1    2  501    0 -0.94405166105E+02 -0.92085956143E+02  0.26493069485E+03  0.29593991245E+03  0.00000000000E+00 0. -1.
<scales pt_clust_5="13000.00000" pt_clust_6="13000.00000" pt_clust_7="13000.00000" pt_clust_8="13000.00000" pt_clust_9="157.79822"></scales>
<clustering>
<clus scale="   81.127">  5  6 -1 -1</clus>
<clus scale="   87.759">  7  8 -1 -1</clus>
<clus scale="  112.867">  1  5  2 -1</clus>
<clus scale="  157.798">  2  9  1 -1</clus>
<clus scale="  157.798">  2  5  1 -1</clus>
</clustering>
</event>
<event>
 9    1  0.5981539E-005  0.1062208E+03  0.7546771E-02  0.1275212E+00
          1   -1    0    0  502    0 -0.00000000000E+00  0.00000000000E+00  0.22086374304E+03  0.22086374304E+03  0.00000000000E+00 0. -1.
         21   -1    0    0  501  502  0.00000000000E+00 -0.00000000000E+00 -0.89499457886E+02  0.89499457886E+02  0.00000000000E+00 0.  1.
         23    2    1    2    0    0 -0.49784043807E+01 -0.52512927716E+02  0.14583553851E+03  0.18294027960E+03  0.97039937755E+02 0.  0.
        -24    2    1    2    0    0  0.80097328802E+01  0.24055673714E+02  0.14992831465E+02  0.86348153502E+02  0.81168881717E+02 0.  0.
         13    1    4    4    0    0 -0.24839109206E+02 -0.12188789823E+02 -0.12360893144E+02  0.30304118908E+02  0.00000000000E+00 0. -1.
        -14    1    4    4    0    0  0.32848842086E+02  0.36244463537E+02  0.27353724609E+02  0.56044034593E+02  0.00000000000E+00 0.  1.
        -11    1    3    3    0    0  0.45705179987E+02 -0.24858366712E+02  0.79325885047E+02  0.94865683530E+02  0.00000000000E+00 0.  1.
         11    1    3    3    0    0 -0.50683584368E+02 -0.27654561004E+02  0.66509653459E+02  0.88074596065E+02  0.00000000000E+00 0. -1.
          2    1    1    2  501    0 -0.30313284996E+01  0.28457254002E+02 -0.29464084819E+02  0.41074767827E+02  0.00000000000E+00 0. -1.
<scales pt_clust_5="13000.00000" pt_clust_6="13000.00000" pt_clust_7="13000.00000" pt_clust_8="13000.00000" pt_clust_9="28.61825"></scales>
<clustering>
<clus scale="   28.618">  2  9  1 -1</clus>
<clus scale="   81.169">  5  6 -1 -1</clus>
<clus scale="   91.948">  2  5  1 -1</clus>
<clus scale="   97.040">  7  8 -1 -1</clus>
<clus scale="   28.618">  2  5  1 -1</clus>
</clustering>
</event>
<event>
 9    1  0.5981539E-005  0.8982657E+02  0.7546771E-02  0.1308083E+00
         21   -1    0    0  501  502  0.00000000000E+00  0.00000000000E+00  0.23412255757E+03  0.23412255757E+03  0.00000000000E+00 0. -1.
          1   -1    0    0  502    0 -0.00000000000E+00 -0.00000000000E+00 -0.74783005527E+02  0.74783005527E+02  0.00000000000E+00 0. -1.
         23    2    1    2    0    0  0.73297538317E+01  0.24429932608E+02 -0.20897090623E+02  0.94029212624E+02  0.88058262143E+02 0.  0.
        -24    2    1    2    0    0  0.11659218107E+01  0.63800661885E+01  0.99510946513E+02  0.12805428790E+03  0.80333103727E+02 0.  0.
         11    1    4    4    0    0 -0.26018647911E+02  0.33225404008E+02  0.56583064280E+02  0.70587114078E+02  0.00000000000E+00 0. -1.
        -12    1    4    4    0    0  0.27184569722E+02 -0.26845337819E+02  0.42927882233E+02  0.57467173818E+02  0.00000000000E+00 0.  1.
        -11    1    3    3    0    0  0.79358626699E+01 -0.32848869507E+02 -0.12987900379E+02  0.36203752574E+02  0.00000000000E+00 0.  1.
         11    1    3    3    0    0 -0.60610883818E+00  0.57278802115E+02 -0.79091902449E+01  0.57825460050E+02  0.00000000000E+00 0. -1.
          2    1    1    2  501    0 -0.84956756424E+01 -0.30809998797E+02  0.80725696151E+02  0.86822062574E+02  0.00000000000E+00 0. -1.
<scales pt_clust_5="13000.00000" pt_clust_6="13000.00000" pt_clust_7="13000.00000" pt_clust_8="13000.00000" pt_clust_9="31.95986"></scales>
<clustering>
<clus scale="   31.960">  1  9  2 -1</clus>
<clus scale="   80.333">  5  6 -1 -1</clus>
<clus scale="   82.268">  1  5  2 -1</clus>
<clus scale="   88.058">  7  8 -1 -1</clus>
<clus scale="   31.960">  1  5  2 -1</clus>
</clustering>
</event>
<event>
 9    1  0.5981539E-005  0.9425731E+02  0.7546771E-02  0.1298300E+00
          1   -1    0    0  502    0 -0.00000000000E+00  0.00000000000E+00  0.37271663483E+03  0.37271663483E+03  0.00000000000E+00 0. -1.
         21   -1    0    0  501  502  0.00000000000E+00 -0.00000000000E+00 -0.42981220183E+02  0.42981220183E+02  0.00000000000E+00 0.  1.
        -24    2    1    2    0    0  0.30451783600E+02 -0.12857596744E+02  0.23665579884E+03  0.25231294596E+03  0.81013743629E+02 0.  0.
         23    2    1    2    0    0 -0.10659647962E+02 -0.21729214951E+02  0.57157659629E+02  0.10973453056E+03  0.90492443144E+02 0.  0.
         13    1    3    3    0    0  0.48724610363E+02 -0.50595779890E+01  0.75908702010E+02  0.90342780704E+02  0.00000000000E+00 0. -1.
        -14    1    3    3    0    0 -0.18272826763E+02 -0.77980187552E+01  0.16074709683E+03  0.16197016526E+03  0.00000000000E+00 0.  1.
        -11    1    4    4    0    0 -0.16284434912E+01 -0.50060342418E+02  0.61896774919E+02  0.79623491864E+02  0.00000000000E+00 0. -1.
         11    1    4    4    0    0 -0.90312044705E+01  0.28331127467E+02 -0.47391152902E+01  0.30111038698E+02  0.00000000000E+00 0.  1.
          2    1    1    2  501    0 -0.19792135638E+02  0.34586811695E+02  0.35921956174E+02  0.53650378486E+02  0.00000000000E+00 0. -1.
<scales pt_clust_5="13000.00000" pt_clust_6="13000.00000" pt_clust_7="13000.00000" pt_clust_8="13000.00000" pt_clust_9="39.84942"></scales>
<clustering>
<clus scale="   39.849">  2  9  1 -1</clus>
<clus scale="   81.014">  5  6 -1 -1</clus>
<clus scale="   85.199">  1  5  2 -1</clus>
<clus scale="   90.492">  7  8 -1 -1</clus>
<clus scale="   39.849">  2  5  1 -1</clus>
</clustering>
</event>
<event>
 9    1  0.5981539E-005  0.9863546E+02  0.7546771E-02  0.1292365E+00
          1   -1    0    0  502    0 -0.00000000000E+00  0.00000000000E+00  0.10235110737E+03  0.10235110737E+03  0.00000000000E+00 0. -1.
         21   -1    0    0  501  502  0.00000000000E+00 -0.00000000000E+00 -0.21440507950E+03  0.21440507950E+03  0.00000000000E+00 0.  1.
         23    2    1    2    0    0  0.21583542271E+02  0.28780115328E+02  0.53875716521E+02  0.11419019468E+03  0.94035436913E+02 0.  0.
        -24    2    1    2    0    0 -0.50100173509E+01  0.32008306291E+01 -0.13142591013E+03  0.15268640353E+03  0.77492079449E+02 0.  0.
         13    1    4    4    0    0  0.23757720688E+02  0.29166426123E+02 -0.78929945260E+02  0.87435953497E+02  0.00000000000E+00 0. -1.
        -14    1    4    4    0    0 -0.28767738039E+02 -0.25965595494E+02 -0.52495964870E+02  0.65250450028E+02  0.00000000000E+00 0.  1.
        -13    1    3    3    0    0 -0.67154668325E+01 -0.31683535608E+02  0.27219906038E+02  0.42306822241E+02  0.00000000000E+00 0.  1.
         13    1    3    3    0    0  0.28299009103E+02  0.60463650936E+02  0.26655810482E+02  0.71883372439E+02  0.00000000000E+00 0. -1.
          2    1    1    2  501    0 -0.16573524920E+02 -0.31980945957E+02 -0.34503778527E+02  0.49879588663E+02  0.00000000000E+00 0. -1.
<scales pt_clust_5="13000.00000" pt_clust_6="13000.00000" pt_clust_7="13000.00000" pt_clust_8="13000.00000" pt_clust_9="36.02031"></scales>
<clustering>
<clus scale="   36.020">  2  9  1 -1</clus>
<clus scale="   77.492">  5  6 -1 -1</clus>
<clus scale="   83.014">  2  5  1 -1</clus>
<clus scale="   94.035">  7  8 -1 -1</clus>
<clus scale="   36.020">  2  5  1 -1</clus>
</clustering>
</event>
<event>
 9    1  0.5981539E-005  0.1104425E+03  0.7546771E-02  0.1264920E+00
         21   -1    0    0  501  502  0.00000000000E+00  0.00000000000E+00  0.63626379336E+02  0.63626379336E+02  0.00000000000E+00 0.  1.
          3   -1    0    0  502    0 -0.00000000000E+00 -0.00000000000E+00 -0.30693028711E+03  0.30693028711E+03  0.00000000000E+00 0. -1.
        -24    2    1    2    0    0  0.12303228866E+02 -0.49997790695E+02 -0.67458650558E+02  0.11672346868E+03  0.80140814136E+02 0.  0.
         23    2    1    2    0    0 -0.17965732776E+02  0.69637777742E+02 -0.52462644499E+02  0.12876896562E+03  0.93042623545E+02 0.  0.
         13    1    3    3    0    0  0.17786616654E+02 -0.50347043946E+02 -0.83865307587E+02  0.99421216965E+02  0.00000000000E+00 0. -1.
        -14    1    3    3    0    0 -0.54833877880E+01  0.34925325143E+00  0.16406657030E+02  0.17302251713E+02  0.00000000000E+00 0.  1.
        -13    1    4    4    0    0 -0.48013221141E+02  0.99082021952E+01 -0.33126182200E+02  0.59167438868E+02  0.00000000000E+00 0.  1.
         13    1    4    4    0    0  0.30047488365E+02  0.59729575546E+02 -0.19336462299E+02  0.69601526752E+02  0.00000000000E+00 0. -1.
          4    1    1    2  501    0  0.56625039099E+01 -0.19639987047E+02 -0.12338261271E+03  0.12506423215E+03  0.00000000000E+00 0. -1.
<scales pt_clust_5="13000.00000" pt_clust_6="13000.00000" pt_clust_7="13000.00000" pt_clust_8="13000.00000" pt_clust_9="20.44000"></scales>
<clustering>
<clus scale="   20.440">  1  9  2 -1</clus>
<clus scale="   80.141">  5  6 -1 -1</clus>
<clus scale="   93.043">  7  8 -1 -1</clus>
<clus scale="   99.816">  2  5  1 -1</clus>
<clus scale="   20.440">  1  5  2 -1</clus>
</clustering>
</event>
<event>
 9    1  0.5981539E-005  0.9348051E+02  0.7546771E-02  0.1296799E+00
         21   -1    0    0  501  502  0.00000000000E+00  0.00000000000E+00  0.15259337366E+03  0.15259337366E+03  0.00000000000E+00 0.  1.
          1   -1    0    0  502    0 -0.00000000000E+00 -0.00000000000E+00 -0.14865590735E+03  0.14865590735E+03  0.00000000000E+00 0. -1.
        -24    2    1    2    0    0 -0.12082666536E+02  0.37414098831E+01 -0.15519947968E+02  0.88271946005E+02  0.85971382960E+02 0.  0.
         23    2    1    2    0    0  0.11174345528E+02  0.81845566771E+02  0.32799708900E+02  0.12635186274E+03  0.89807625040E+02 0.  0.
         11    1    3    3    0    0  0.28822187177E+02  0.50480669006E+01 -0.32705359647E+02  0.43884416400E+02  0.00000000000E+00 0. -1.
        -12    1    3    3    0    0 -0.40904853713E+02 -0.13066570175E+01  0.17185411679E+02  0.44387529605E+02  0.00000000000E+00 0.  1.
        -13    1    4    4    0    0 -0.16832068081E+02  0.82015641660E+02  0.45845919744E+02  0.95455394556E+02  0.00000000000E+00 0.  1.
         13    1    4    4    0    0  0.28006413609E+02 -0.17007488851E+00 -0.13046210844E+02  0.30896468182E+02  0.00000000000E+00 0. -1.
          2    1    1    2  501    0  0.90832100763E+00 -0.85586976654E+02 -0.13342294617E+02  0.86625472267E+02  0.00000000000E+00 0. -1.
<scales pt_clust_5="13000.00000" pt_clust_6="13000.00000" pt_clust_7="13000.00000" pt_clust_8="13000.00000" pt_clust_9="85.59184"></scales>
<clustering>
<clus scale="   85.592">  1  9  2 -1</clus>
<clus scale="   85.971">  5  6 -1 -1</clus>
<clus scale="   89.801">  2  5  1 -1</clus>
<clus scale="   89.808">  7  8 -1 -1</clus>
<clus scale="   85.592">  1  5  2 -1</clus>
</clustering>
</event>
<event>
 9    1  0.5981539E-005  0.1089828E+03  0.7546771E-02  0.1266649E+00
         21   -1    0    0  501  502  0.00000000000E+00  0.00000000000E+00  0.37515593780E+03  0.37515593780E+03  0.00000000000E+00 0. -1.
         -4   -1    0    0    0  501 -0.00000000000E+00 -0.00000000000E+00 -0.90096544107E+02  0.90096544107E+02  0.00000000000E+00 0.  1.
        -24    2    1    2    0    0 -0.58399590689E+02 -0.52709628791E+01 -0.26171115596E+02  0.10333457176E+03  0.80961788438E+02 0.  0.
         23    2    1    2    0    0  0.57502609009E+02  0.57718988029E+02  0.26538415216E+03  0.29225092815E+03  0.91344540978E+02 0.  0.
         13    1    3    3    0    0  0.13488122615E+01  0.27001136317E+02  0.67552446342E+01  0.27866000556E+02  0.00000000000E+00 0. -1.
        -14    1    3    3    0    0 -0.59748402950E+02 -0.32272099196E+02 -0.32926360230E+02  0.75468571204E+02  0.00000000000E+00 0.  1.
        -13    1    4    4    0    0 -0.18564218402E+02  0.39712001720E+02  0.10684309383E+03  0.11548644935E+03  0.00000000000E+00 0.  1.
         13    1    4    4    0    0  0.76066827410E+02  0.18006986309E+02  0.15854105833E+03  0.17676447880E+03  0.00000000000E+00 0. -1.
         -3    1    1    2    0  502  0.89698167976E+00 -0.52448025150E+02  0.45846357133E+02  0.69666981997E+02  0.00000000000E+00 0.  1.
<scales pt_clust_5="13000.00000" pt_clust_6="13000.00000" pt_clust_7="13000.00000" pt_clust_8="13000.00000" pt_clust_9="52.45569"></scales>
<clustering>
<clus scale="   52.456">  1  9  2 -1</clus>
<clus scale="   80.962">  5  6 -1 -1</clus>
<clus scale="   91.345">  7  8 -1 -1</clus>
<clus scale="  100.440">  2  5  1 -1</clus>
<clus scale="   52.456">  1  5  2 -1</clus>
</clustering>
</event>
<event>
 9    1  0.5981539E-005  0.1308146E+03  0.7546771E-02  0.1228870E+00
          1   -1    0    0  502    0 -0.00000000000E+00  0.00000000000E+00  0.46368132236E+03  0.46368132236E+03  0.00000000000E+00 0. -1.
         21   -1    0    0  501  502  0.00000000000E+00 -0.00000000000E+00 -0.10310803226E+03  0.10310803226E+03  0.00000000000E+00 0.  1.
         23    2    1    2    0    0 -0.26514102046E+02  0.93267192646E+02  0.30828822387E+03  0.33603784273E+03  0.92076250678E+02 0.  0.
        -24    2    1    2    0    0  0.54220317671E+01 -0.68634743165E+02 -0.53814472464E+02  0.11980672785E+03  0.81960528266E+02 0.  0.
         13    1    4    4    0    0  0.16631127493E+02 -0.74072862404E+02 -0.12859083643E+02  0.76998307635E+02  0.00000000000E+00 0. -1.
        -14    1    4    4    0    0 -0.11209095726E+02  0.54381192388E+01 -0.40955388821E+02  0.42808420215E+02  0.00000000000E+00 0.  1.
        -11    1    3    3    0    0  0.60128083474E+01  0.99014450253E+02  0.25128998823E+03  0.27016045863E+03  0.00000000000E+00 0.  1.
         11    1    3    3    0    0 -0.32526910394E+02 -0.57472576072E+01  0.56998235641E+02  0.65877384101E+02  0.00000000000E+00 0. -1.
          2    1    1    2  501    0  0.21092070279E+02 -0.24632449480E+02  0.10609953869E+03  0.11094478404E+03  0.00000000000E+00 0. -1.
<scales pt_clust_5="13000.00000" pt_clust_6="13000.00000" pt_clust_7="13000.00000" pt_clust_8="13000.00000" pt_clust_9="32.42891"></scales>
<clustering>
<clus scale="   32.429">  2  9  1 -1</clus>
<clus scale="   81.961">  5  6 -1 -1</clus>
<clus scale="   92.076">  7  8 -1 -1</clus>
<clus scale="  123.903">  2  5  1 -1</clus>
<clus scale="   32.429">  2  5  1 -1</clus>
</clustering>
</event>
<event>
 9    1  0.5981539E-005  0.1182165E+03  0.7546771E-02  0.1247842E+00
         -2   -1    0    0    0  501 -0.00000000000E+00  0.00000000000E+00  0.53151776066E+03  0.53151776066E+03  0.00000000000E+00 0.  1.
         21   -1    0    0  501  502  0.00000000000E+00 -0.00000000000E+00 -0.62339970737E+02  0.62339970737E+02  0.00000000000E+00 0.  1.
         23    2    1    2    0    0 -0.51510185658E+01  0.77098734093E+02  0.19519414596E+03  0.22894633382E+03  0.91350541118E+02 0.  0.
        -24    2    1    2    0    0  0.21735475343E+02 -0.42936876284E+02  0.21928482560E+02  0.11001165037E+03  0.96466049138E+02 0.  0.
         13    1    4    4    0    0  0.38416174265E+02 -0.96413783857E+00  0.45097699728E+02  0.59249763946E+02  0.00000000000E+00 0. -1.
        -14    1    4    4    0    0 -0.16680698922E+02 -0.41972738445E+02 -0.23169217168E+02  0.50761886424E+02  0.00000000000E+00 0.  1.
        -11    1    3    3    0    0  0.39626586772E+02  0.13644408864E+02  0.64568877858E+02  0.76977764713E+02  0.00000000000E+00 0. -1.
         11    1    3    3    0    0 -0.44777605338E+02  0.63454325229E+02  0.13062526810E+03  0.15196856911E+03  0.00000000000E+00 0.  1.
         -1    1    1    2    0  502 -0.16584456777E+02 -0.34161857809E+02  0.25205516141E+03  0.25489974721E+03  0.00000000000E+00 0.  1.
<scales pt_clust_5="13000.00000" pt_clust_6="13000.00000" pt_clust_7="13000.00000" pt_clust_8="13000.00000" pt_clust_9="37.97470"></scales>
<clustering>
<clus scale="   37.975">  2  9  1 -1</clus>
<clus scale="   91.351">  7  8 -1 -1</clus>
<clus scale="   96.466">  5  6 -1 -1</clus>
<clus scale="  114.081">  1  7  2 -1</clus>
<clus scale="   37.975">  2  5  1 -1</clus>
</clustering>
</event>
<event>
 9    1  0.5981539E-005  0.2398964E+03  0.7546771E-02  0.1120201E+00
         21   -1    0    0  501  502  0.00000000000E+00  0.00000000000E+00  0.22249084354E+03  0.22249084354E+03  0.00000000000E+00 0.  1.
          1   -1    0    0  502    0 -0.00000000000E+00 -0.00000000000E+00 -0.57710482272E+03  0.57710482272E+03  0.00000000000E+00 0. -1.
        -24    2    1    2    0    0 -0.23074508755E+03  0.72514653072E+02 -0.39278359417E+03  0.46808602273E+03  0.79522968296E+02 0.  0.
         23    2    1    2    0    0  0.13418816702E+03 -0.66810726565E+02  0.11555301342E+03  0.20763888817E+03  0.85388943186E+02 0.  0.
         13    1    3    3    0    0 -0.12821952259E+03  0.79439807486E+02 -0.25383190563E+03  0.29526524567E+03  0.00000000000E+00 0. -1.
        -14    1    3    3    0    0 -0.10252556496E+03 -0.69251544143E+01 -0.13895168854E+03  0.17282077706E+03  0.00000000000E+00 0.  1.
        -13    1    4    4    0    0  0.10673220817E+03 -0.54659795188E+02  0.12776689106E+03  0.17522510072E+03  0.00000000000E+00 0.  1.
         13    1    4    4    0    0  0.27455958843E+02 -0.12150931377E+02 -0.12213877646E+02  0.32413787444E+02  0.00000000000E+00 0. -1.
          2    1    1    2  501    0  0.96556920539E+02 -0.57039265071E+01 -0.77383398432E+02  0.12387075536E+03  0.00000000000E+00 0. -1.
<scales pt_clust_5="13000.00000" pt_clust_6="13000.00000" pt_clust_7="13000.00000" pt_clust_8="13000.00000" pt_clust_9="96.72530"></scales>
<clustering>
<clus scale="   79.523">  5  6 -1 -1</clus>
<clus scale="   85.389">  7  8 -1 -1</clus>
<clus scale="   96.725">  1  9  2 -1</clus>
<clus scale="  237.872">  2  5  1 -1</clus>
<clus scale="   96.725">  1  5  2 -1</clus>
</clustering>
</event>
<event>
 9    1  0.5981539E-005  0.1004386E+03  0.7546771E-02  0.1285540E+00
          1   -1    0    0  502    0 -0.00000000000E+00  0.00000000000E+00  0.49748001404E+02  0.49748001404E+02  0.00000000000E+00 0. -1.
         21   -1    0    0  501  502  0.00000000000E+00 -0.00000000000E+00 -0.66777383735E+03  0.66777383735E+03  0.00000000000E+00 0. -1.
         23    2    1    2    0    0 -0.46309365200E+02 -0.32048748579E+02 -0.19128201344E+03  0.21880095217E+03  0.90074238341E+02 0.  0.
        -24    2    1    2    0    0 -0.85519753405E+01  0.37572424959E+02 -0.43449748266E+03  0.44303967851E+03  0.77532386121E+02 0.  0.
         13    1    4    4    0    0 -0.37182671758E+02  0.41129505067E+02 -0.23412004399E+03  0.24059588995E+03  0.00000000000E+00 0. -1.
        -14    1    4    4    0    0  0.28630696417E+02 -0.35570801080E+01 -0.20037743868E+03  0.20244378856E+03  0.00000000000E+00 0.  1.
        -13    1    3    3    0    0 -0.49934873287E+02  0.18329608631E+02 -0.74274968306E+02  0.91357742089E+02  0.00000000000E+00 0.  1.
         13    1    3    3    0    0  0.36255080864E+01 -0.50378357209E+02 -0.11700704513E+03  0.12744321008E+03  0.00000000000E+00 0. -1.
          2    1    1    2  501    0  0.54861340541E+02 -0.55236763805E+01  0.77536601561E+01  0.55681208073E+02  0.00000000000E+00 0. -1.
<scales pt_clust_5="13000.00000" pt_clust_6="13000.00000" pt_clust_7="13000.00000" pt_clust_8="13000.00000" pt_clust_9="55.13874"></scales>
<clustering>
<clus scale="   55.139">  2  9  1 -1</clus>
<clus scale="   77.532">  5  6 -1 -1</clus>
<clus scale="   89.363">  2  5  1 -1</clus>
<clus scale="   90.074">  7  8 -1 -1</clus>
<clus scale="   55.139">  2  5  1 -1</clus>
</clustering>
</event>
<event>
 9    1  0.5981539E-005  0.1139086E+03  0.7546771E-02  0.1257693E+00
          1   -1    0    0  502    0 -0.00000000000E+00  0.00000000000E+00  0.81667309707E+03  0.81667309707E+03  0.00000000000E+00 0. -1.
         21   -1    0    0  501  502  0.00000000000E+00 -0.00000000000E+00 -0.12230887459E+03  0.12230887459E+03  0.00000000000E+00 0. -1.
        -24    2    1    2    0    0 -0.59021536974E+02  0.28602833976E+02  0.66758908226E+03  0.67545490284E+03  0.79135826782E+02 0.  0.
         23    2    1    2    0    0  0.12563428090E+03  0.15411247864E+02  0.72162174770E+02  0.17168764396E+03  0.90817336035E+02 0.  0.
         11    1    3    3    0    0 -0.64256226944E+02  0.46819166958E+02  0.44383861992E+03  0.45090311335E+03  0.00000000000E+00 0. -1.
        -12    1    3    3    0    0  0.52346899699E+01 -0.18216332982E+02  0.22375046234E+03  0.22455178949E+03  0.00000000000E+00 0.  1.
        -11    1    4    4    0    0  0.37808617630E+01  0.32467543071E+02  0.17064881238E+02  0.36873383902E+02  0.00000000000E+00 0.  1.
         11    1    4    4    0    0  0.12185341913E+03 -0.17056295207E+02  0.55097293532E+02  0.13481426006E+03  0.00000000000E+00 0. -1.
          2    1    1    2  501    0 -0.66612743923E+02 -0.44014081840E+02 -0.45387034543E+02  0.91839424855E+02  0.00000000000E+00 0. -1.
<scales pt_clust_5="13000.00000" pt_clust_6="13000.00000" pt_clust_7="13000.00000" pt_clust_8="13000.00000" pt_clust_9="79.84045"></scales>
<clustering>
<clus scale="   79.136">  5  6 -1 -1</clus>
<clus scale="   79.840">  2  9  1 -1</clus>
<clus scale="   90.817">  7  8 -1 -1</clus>
<clus scale="  104.833">  1  5  2 -1</clus>
<clus scale="   79.840">  2  5  1 -1</clus>
</clustering>
</event>
<event>
 9    1  0.5981539E-005  0.1120223E+03  0.7546771E-02  0.1261502E+00
         21   -1    0    0  501  502  0.00000000000E+00  0.00000000000E+00  0.94872631336E+02  0.94872631336E+02  0.00000000000E+00 0.  1.
          1   -1    0    0  502    0 -0.00000000000E+00 -0.00000000000E+00 -0.25101467641E+03  0.25101467641E+03  0.00000000000E+00 0. -1.
         23    2    1    2    0    0 -0.53103268421E+02  0.23318491851E+02 -0.14471581013E+03  0.18103095474E+03  0.92009954306E+02 0.  0.
        -24    2    1    2    0    0  0.58437380610E+02 -0.67109669556E+02 -0.11387156012E+01  0.11955786460E+03  0.79838281010E+02 0.  0.
         13    1    4    4    0    0  0.71216796717E+02 -0.73205675950E+02 -0.10367763303E+02  0.10265667851E+03  0.00000000000E+00 0. -1.
        -14    1    4    4    0    0 -0.12779416107E+02  0.60960063943E+01  0.92290477015E+01  0.16901186097E+02  0.00000000000E+00 0.  1.
        -13    1    3    3    0    0 -0.63463699841E+02 -0.17798591182E+02 -0.95956978739E+02  0.11641379993E+03  0.00000000000E+00 0. -1.
         13    1    3    3    0    0  0.10360431420E+02  0.41117083034E+02 -0.48758831395E+02  0.64617154808E+02  0.00000000000E+00 0.  1.
          2    1    1    2  501    0 -0.53341121885E+01  0.43791177704E+02 -0.10287519337E+02  0.45298488404E+02  0.00000000000E+00 0. -1.
<scales pt_clust_5="13000.00000" pt_clust_6="13000.00000" pt_clust_7="13000.00000" pt_clust_8="13000.00000" pt_clust_9="44.11485"></scales>
<clustering>
<clus scale="   44.115">  1  9  2 -1</clus>
<clus scale="   79.838">  5  6 -1 -1</clus>
<clus scale="   92.010">  7  8 -1 -1</clus>
<clus scale="  102.261">  1  5  2 -1</clus>
<clus scale="   44.115">  1  5  2 -1</clus>
</clustering>
</event>
<event>
 9    1  0.6993748E-005  0.1131198E+03  0.7546771E-02  0.1257362E+00
          1   -1    0    0  502    0 -0.00000000000E+00  0.00000000000E+00  0.83268607615E+03  0.83268607615E+03  0.00000000000E+00 0. -1.
         21   -1    0    0  501  502  0.00000000000E+00 -0.00000000000E+00 -0.55094712431E+02  0.55094712431E+02  0.00000000000E+00 0. -1.
         23    2    1    2    0    0 -0.45653782121E+02  0.40477660266E+02  0.36780422320E+03  0.38329637108E+03  0.88957589188E+02 0.  0.
        -24    2    1    2    0    0  0.53484175236E+02 -0.11498338787E+03  0.89493080905E+02  0.17554566465E+03  0.82009343136E+02 0.  0.
         11    1    4    4    0    0  0.53320763652E+02 -0.11916907185E+03  0.99858572406E+02  0.16436576896E+03  0.00000000000E+00 0. -1.
        -12    1    4    4    0    0  0.16341158407E+00  0.41856839780E+01 -0.10365491501E+02  0.11179895696E+02  0.00000000000E+00 0.  1.
        -13    1    3    3    0    0  0.27105129317E+02  0.86197793674E+01  0.96486583959E+02  0.10059149823E+03  0.00000000000E+00 0.  1.
         13    1    3    3    0    0 -0.72758911438E+02  0.31857880899E+02  0.27131763924E+03  0.28270487285E+03  0.00000000000E+00 0. -1.
          2    1    1    2  501    0 -0.78303931148E+01  0.74505727607E+02  0.32029405961E+03  0.32893875285E+03  0.00000000000E+00 0. -1.
<scales pt_clust_5="13000.00000" pt_clust_6="13000.00000" pt_clust_7="13000.00000" pt_clust_8="13000.00000" pt_clust_9="74.91611"></scales>
<clustering>
<clus scale="   74.916">  2  9  1 -1</clus>
<clus scale="   82.009">  5  6 -1 -1</clus>
<clus scale="   88.958">  7  8 -1 -1</clus>
<clus scale="  107.741">  2  5  1 -1</clus>
<clus scale="   74.916">  2  5  1 -1</clus>
</clustering>
</event>
<event>
 9    1  0.5981539E-005  0.2204866E+03  0.7546771E-02  0.1134568E+00
         -2   -1    0    0    0  501 -0.00000000000E+00  0.00000000000E+00  0.49772427970E+03  0.49772427970E+03  0.00000000000E+00 0.  1.
         21   -1    0    0  501  502  0.00000000000E+00 -0.00000000000E+00 -0.18407615952E+03  0.18407615952E+03  0.00000000000E+00 0.  1.
         23    2    1    2    0    0  0.23258717118E+03 -0.97153786804E+01  0.31993633225E+03  0.40677784685E+03  0.94433993981E+02 0.  0.
        -24    2    1    2    0    0 -0.14795250733E+03 -0.18090847142E+02  0.40747434297E+02  0.17428250826E+03  0.80602829394E+02 0.  0.
         13    1    4    4    0    0 -0.35687714800E+02 -0.21579778425E+01 -0.24611093719E+02  0.43404789943E+02  0.00000000000E+00 0. -1.
        -14    1    4    4    0    0 -0.11226479254E+03 -0.15932869300E+02  0.65358528016E+02  0.13087771832E+03  0.00000000000E+00 0.  1.
        -13    1    3    3    0    0  0.88503551754E+01  0.19278681948E+02  0.54110956426E+02  0.58120495264E+02  0.00000000000E+00 0. -1.
         13    1    3    3    0    0  0.22373681600E+03 -0.28994060629E+02  0.26582537582E+03  0.34865735159E+03  0.00000000000E+00 0.  1.
         -1    1    1    2    0  502 -0.84634663843E+02  0.27806225823E+02 -0.47035646355E+02  0.10074008411E+03  0.00000000000E+00 0.  1.
<scales pt_clust_5="13000.00000" pt_clust_6="13000.00000" pt_clust_7="13000.00000" pt_clust_8="13000.00000" pt_clust_9="89.08542"></scales>
<clustering>
<clus scale="   80.603">  5  6 -1 -1</clus>
<clus scale="   89.085">  2  9  1 -1</clus>
<clus scale="   94.434">  7  8 -1 -1</clus>
<clus scale="  214.926">  2  5  1 -1</clus>
<clus scale="   89.085">  2  5  1 -1</clus>
</clustering>
</event>
<event>
 9    1  0.5981539E-005  0.1083899E+03  0.7546771E-02  0.1269459E+00
         21   -1    0    0  501  502  0.00000000000E+00  0.00000000000E+00  0.91967293473E+02  0.91967293473E+02  0.00000000000E+00 0.  1.
         -2   -1    0    0    0  501 -0.00000000000E+00 -0.00000000000E+00 -0.28011311892E+03  0.28011311892E+03  0.00000000000E+00 0.  1.
        -24    2    1    2    0    0  0.61201050978E+02 -0.13188202992E+01 -0.11862913085E+03  0.15446311808E+03  0.77708919915E+02 0.  0.
         23    2    1    2    0    0 -0.40728520069E+02 -0.44803827714E+02  0.22841028839E+02  0.11237294881E+03  0.91868230094E+02 0.  0.
         11    1    3    3    0    0  0.43767817969E+02  0.28532010695E+02 -0.10504601585E+03  0.11732162192E+03  0.00000000000E+00 0. -1.
        -12    1    3    3    0    0  0.17433233008E+02 -0.29850830994E+02 -0.13583114999E+02  0.37141496163E+02  0.00000000000E+00 0.  1.
        -13    1    4    4    0    0 -0.22289682415E+02 -0.67936661880E+02 -0.50996498391E+01  0.71681422964E+02  0.00000000000E+00 0. -1.
         13    1    4    4    0    0 -0.18438837654E+02  0.23132834166E+02  0.27940678678E+02  0.40691525844E+02  0.00000000000E+00 0.  1.
         -1    1    1    2    0  502 -0.20472530909E+02  0.46122648013E+02 -0.92357723439E+02  0.10524434550E+03  0.00000000000E+00 0.  1.
<scales pt_clust_5="13000.00000" pt_clust_6="13000.00000" pt_clust_7="13000.00000" pt_clust_8="13000.00000" pt_clust_9="50.46212"></scales>
<clustering>
<clus scale="   50.462">  1  9  2 -1</clus>
<clus scale="   77.709">  5  6 -1 -1</clus>
<clus scale="   91.868">  7  8 -1 -1</clus>
<clus scale="   96.681">  2  5  1 -1</clus>
<clus scale="   50.462">  1  5  2 -1</clus>
</clustering>
</event>
<event>
 9    1  0.5981539E-005  0.1000197E+03  0.7546771E-02  0.1285810E+00
         21   -1    0    0  501  502  0.00000000000E+00  0.00000000000E+00  0.15816489380E+03  0.15816489380E+03  0.00000000000E+00 0. -1.
          1   -1    0    0  502    0 -0.00000000000E+00 -0.00000000000E+00 -0.14906889742E+03  0.14906889742E+03  0.00000000000E+00 0. -1.
         23    2    1    2    0    0  0.46246273028E+01 -0.45353439345E+02 -0.79952102150E+02  0.12963292651E+03  0.91290937997E+02 0.  0.
        -24    2    1    2    0    0 -0.48755836470E+02  0.15735789516E+02  0.33983112801E+02  0.10107033840E+03  0.80222282979E+02 0.  0.
         13    1    4    4    0    0 -0.70548964482E+02  0.16183456936E+02  0.19715672245E+02  0.75018453730E+02  0.00000000000E+00 0. -1.
        -14    1    4    4    0    0  0.21793128012E+02 -0.44766741950E+00  0.14267440557E+02  0.26051884667E+02  0.00000000000E+00 0.  1.
        -11    1    3    3    0    0 -0.37992566547E+02 -0.42678023354E+02 -0.32255295438E+02  0.65614425807E+02  0.00000000000E+00 0. -1.
         11    1    3    3    0    0  0.42617193849E+02 -0.26754159913E+01 -0.47696806712E+02  0.64018500707E+02  0.00000000000E+00 0.  1.
          2    1    1    2  501    0  0.44131209167E+02  0.29617649829E+02  0.55064985727E+02  0.76530526309E+02  0.00000000000E+00 0. -1.
<scales pt_clust_5="13000.00000" pt_clust_6="13000.00000" pt_clust_7="13000.00000" pt_clust_8="13000.00000" pt_clust_9="53.14855"></scales>
<clustering>
<clus scale="   53.149">  1  9  2 -1</clus>
<clus scale="   80.222">  5  6 -1 -1</clus>
<clus scale="   90.031">  1  5  2 -1</clus>
<clus scale="   91.291">  7  8 -1 -1</clus>
<clus scale="   53.149">  1  5  2 -1</clus>
</clustering>
</event>
<event>
 9    1  0.5981539E-005  0.9187624E+02  0.7546771E-02  0.1304613E+00
         21   -1    0    0  501  502  0.00000000000E+00  0.00000000000E+00  0.77539785050E+02  0.77539785050E+02  0.00000000000E+00 0. -1.
          3   -1    0    0  502    0 -0.00000000000E+00 -0.00000000000E+00 -0.16720945620E+03  0.16720945620E+03  0.00000000000E+00 0. -1.
         23    2    1    2    0    0  0.90182258713E+01 -0.34321680504E+01 -0.78719587382E+02  0.12064967386E+03  0.90920086837E+02 0.  0.
        -24    2    1    2    0    0 -0.14934520733E+02 -0.30472453770E+02  0.97030324268E+00  0.87676751019E+02  0.80837249041E+02 0.  0.
         13    1    4    4    0    0  0.18598998175E+02 -0.31202557823E+02  0.26966424972E+02  0.45240583811E+02  0.00000000000E+00 0. -1.
        -14    1    4    4    0    0 -0.33533518908E+02  0.73010405347E+00 -0.25996121729E+02  0.42436167207E+02  0.00000000000E+00 0.  1.
        -11    1    3    3    0    0 -0.59957154462E+01 -0.45824061808E+02 -0.44296439138E+02  0.64015371315E+02  0.00000000000E+00 0. -1.
         11    1    3    3    0    0  0.15013941318E+02  0.42391893757E+02 -0.34423148244E+02  0.56634302550E+02  0.00000000000E+00 0.  1.
          4    1    1    2  501    0  0.59162948615E+01  0.33904621820E+02 -0.11920387010E+02  0.36422816367E+02  0.00000000000E+00 0. -1.
<scales pt_clust_5="13000.00000" pt_clust_6="13000.00000" pt_clust_7="13000.00000" pt_clust_8="13000.00000" pt_clust_9="34.41694"></scales>
<clustering>
<clus scale="   34.417">  1  9  2 -1</clus>
<clus scale="   80.837">  5  6 -1 -1</clus>
<clus scale="   81.911">  1  5  2 -1</clus>
<clus scale="   90.920">  7  8 -1 -1</clus>
<clus scale="   34.417">  1  5  2 -1</clus>
</clustering>
</event>
<event>
 9    1  0.5981539E-005  0.1164793E+03  0.7546771E-02  0.1253709E+00
         -2   -1    0    0    0  501 -0.00000000000E+00  0.00000000000E+00  0.41295974195E+02  0.41295974195E+02  0.00000000000E+00 0.  1.
         21   -1    0    0  501  502  0.00000000000E+00 -0.00000000000E+00 -0.48974617510E+03  0.48974617510E+03  0.00000000000E+00 0.  1.
        -24    2    1    2    0    0  0.57072573936E+02  0.11162878963E+02 -0.15453987981E+03  0.18298444324E+03  0.78859644012E+02 0.  0.
         23    2    1    2    0    0 -0.93057689452E+02  0.19676082074E+02 -0.25219177351E+03  0.28491970427E+03  0.92367015135E+02 0.  0.
         13    1    3    3    0    0  0.29105122075E+02  0.40438783570E+02 -0.48727691318E+02  0.69690682654E+02  0.00000000000E+00 0. -1.
        -14    1    3    3    0    0  0.27967451861E+02 -0.29275904608E+02 -0.10581218849E+03  0.11329376059E+03  0.00000000000E+00 0.  1.
        -11    1    4    4    0    0 -0.44005709038E+02  0.22714425611E+02 -0.22151990086E+03  0.22698791606E+03  0.00000000000E+00 0. -1.
         11    1    4    4    0    0 -0.49051980413E+02 -0.30383435374E+01 -0.30671872647E+02  0.57931788213E+02  0.00000000000E+00 0.  1.
         -1    1    1    2    0  502  0.35985115516E+02 -0.30838961036E+02 -0.41718547587E+02  0.63138001784E+02  0.00000000000E+00 0.  1.
<scales pt_clust_5="13000.00000" pt_clust_6="13000.00000" pt_clust_7="13000.00000" pt_clust_8="13000.00000" pt_clust_9="47.39169"></scales>
<clustering>
<clus scale="   47.392">  2  9  1 -1</clus>
<clus scale="   78.860">  5  6 -1 -1</clus>
<clus scale="   92.367">  7  8 -1 -1</clus>
<clus scale="  106.088">  1  5  2 -1</clus>
<clus scale="   47.392">  2  5  1 -1</clus>
</clustering>
</event>
<event>
 9    1  0.5981539E-005  0.8779089E+02  0.7546771E-02  0.1312147E+00
          1   -1    0    0  502    0 -0.00000000000E+00  0.00000000000E+00  0.21014776618E+03  0.21014776618E+03  0.00000000000E+00 0. -1.
         21   -1    0    0  501  502  0.00000000000E+00 -0.00000000000E+00 -0.83518846121E+02  0.83518846121E+02  0.00000000000E+00 0. -1.
         23    2    1    2    0    0 -0.10653605078E+02 -0.12768261313E+01  0.12681553720E+03  0.15447222030E+03  0.87546312212E+02 0.  0.
        -24    2    1    2    0    0 -0.21964888022E+02 -0.25464193934E+02  0.22808484642E+02  0.91154586085E+02  0.81596875640E+02 0.  0.
         13    1    4    4    0    0 -0.16632547932E+02 -0.51367518966E+02  0.32463119686E+02  0.63000934876E+02  0.00000000000E+00 0. -1.
        -14    1    4    4    0    0 -0.53323400898E+01  0.25903325032E+02 -0.96546350443E+01  0.28153651209E+02  0.00000000000E+00 0.  1.
        -13    1    3    3    0    0 -0.30458839229E+02 -0.23612238605E+02  0.11678618435E+03  0.12298085848E+03  0.00000000000E+00 0.  1.
         13    1    3    3    0    0  0.19805234151E+02  0.22335412474E+02  0.10029352852E+02  0.31491361812E+02  0.00000000000E+00 0. -1.
          2    1    1    2  501    0  0.32618493100E+02  0.26741020065E+02 -0.22995101786E+02  0.48039805915E+02  0.00000000000E+00 0. -1.
<scales pt_clust_5="13000.00000" pt_clust_6="13000.00000" pt_clust_7="13000.00000" pt_clust_8="13000.00000" pt_clust_9="42.17877"></scales>
<clustering>
<clus scale="   42.179">  2  9  1 -1</clus>
<clus scale="   81.597">  5  6 -1 -1</clus>
<clus scale="   81.859">  2  5  1 -1</clus>
<clus scale="   87.546">  7  8 -1 -1</clus>
<clus scale="   42.179">  2  5  1 -1</clus>
</clustering>
</event>
<event>
 9    1  0.5981539E-005  0.1517516E+03  0.7546771E-02  0.1200612E+00
         21   -1    0    0  501  502  0.00000000000E+00  0.00000000000E+00  0.13873171266E+03  0.13873171266E+03  0.00000000000E+00 0.  1.
          1   -1    0    0  502    0 -0.00000000000E+00 -0.00000000000E+00 -0.36795885834E+03  0.36795885834E+03  0.00000000000E+00 0. -1.
         23    2    1    2    0    0 -0.10143735518E+03 -0.94659268643E+02 -0.16192614532E+03  0.23256558372E+03  0.92826504964E+02 0.  0.
        -24    2    1    2    0    0  0.73596094380E+02  0.23298282596E+02  0.59273228989E+02  0.12617715300E+03  0.80300455692E+02 0.  0.
         11    1    4    4    0    0  0.21231598694E+02 -0.30009807125E+01 -0.18829333003E+02  0.28536475775E+02  0.00000000000E+00 0. -1.
        -12    1    4    4    0    0  0.52364495687E+02  0.26299263309E+02  0.78102561992E+02  0.97640677224E+02  0.00000000000E+00 0.  1.
        -11    1    3    3    0    0 -0.39075426822E+02 -0.80157183251E+02 -0.13781652110E+03  0.16415071275E+03  0.00000000000E+00 0. -1.
         11    1    3    3    0    0 -0.62361928359E+02 -0.14502085392E+02 -0.24109624227E+02  0.68414870970E+02  0.00000000000E+00 0.  1.
          2    1    1    2  501    0  0.27841260801E+02  0.71360986047E+02 -0.12657422935E+03  0.14794783428E+03  0.00000000000E+00 0. -1.
<scales pt_clust_5="13000.00000" pt_clust_6="13000.00000" pt_clust_7="13000.00000" pt_clust_8="13000.00000" pt_clust_9="76.59982"></scales>
<clustering>
<clus scale="   76.600">  1  9  2 -1</clus>
<clus scale="   80.300">  5  6 -1 -1</clus>
<clus scale="   92.827">  7  8 -1 -1</clus>
<clus scale="  144.430">  1  5  2 -1</clus>
<clus scale="   76.600">  1  5  2 -1</clus>
</clustering>
</event>
<event>
 9    1  0.5981539E-005  0.1198511E+03  0.7546771E-02  0.1254366E+00
         -2   -1    0    0    0  501 -0.00000000000E+00  0.00000000000E+00  0.62206658052E+02  0.62206658052E+02  0.00000000000E+00 0.  1.
         21   -1    0    0  501  502  0.00000000000E+00 -0.00000000000E+00 -0.64262896275E+03  0.64262896275E+03  0.00000000000E+00 0. -1.
         23    2    1    2    0    0  0.24048844833E+02  0.17255732639E+02 -0.12225141365E+03  0.15551452752E+03  0.91450822221E+02 0.  0.
        -24    2    1    2    0    0  0.49739448460E+02  0.66681160268E+02 -0.41254649743E+03  0.42860779861E+03  0.81176613726E+02 0.  0.
         11    1    4    4    0    0  0.60091174795E+02  0.65839102474E+02 -0.40736035584E+03  0.41699903622E+03  0.00000000000E+00 0. -1.
        -12    1    4    4    0    0 -0.10351726335E+02  0.84205779420E+00 -0.51861415932E+01  0.11608762383E+02  0.00000000000E+00 0.  1.
        -13    1    3    3    0    0 -0.27129536405E+02 -0.88986826570E+01 -0.77747167536E+02  0.82824032493E+02  0.00000000000E+00 0. -1.
         13    1    3    3    0    0  0.51178381238E+02  0.26154415296E+02 -0.44504246110E+02  0.72690495028E+02  0.00000000000E+00 0.  1.
         -1    1    1    2    0  502 -0.73788293293E+02 -0.83936892907E+02 -0.45624393622E+02  0.12071329467E+03  0.00000000000E+00 0.  1.
<scales pt_clust_5="13000.00000" pt_clust_6="13000.00000" pt_clust_7="13000.00000" pt_clust_8="13000.00000" pt_clust_9="88.17396"></scales>
<clustering>
<clus scale="   81.177">  5  6 -1 -1</clus>
<clus scale="   91.451">  7  8 -1 -1</clus>
<clus scale="   96.122">  1  7  2 -1</clus>
<clus scale="   88.174">  2  9  1 -1</clus>
<clus scale="   88.174">  2  5  1 -1</clus>
</clustering>
</event>
<event>
 9    1  0.5981539E-005  0.1568225E+03  0.7546771E-02  0.1195285E+00
         21   -1    0    0  501  502  0.00000000000E+00  0.00000000000E+00  0.62544433142E+02  0.62544433142E+02  0.00000000000E+00 0. -1.
          1   -1    0    0  502    0 -0.00000000000E+00 -0.00000000000E+00 -0.72393187267E+03  0.72393187267E+03  0.00000000000E+00 0. -1.
        -24    2    1    2    0    0 -0.84334609684E+02  0.74637437164E+02 -0.41060403096E+03  0.43336727967E+03  0.80798857816E+02 0.  0.
         23    2    1    2    0    0  0.13999824282E+03 -0.67960887025E+02 -0.22752941873E+03  0.29241500322E+03  0.97563864041E+02 0.  0.
         13    1    3    3    0    0 -0.83670996118E+02  0.87417040285E+02 -0.39536257142E+03  0.41346600513E+03  0.00000000000E+00 0. -1.
        -14    1    3    3    0    0 -0.66361356559E+00 -0.12779603121E+02 -0.15241459547E+02  0.19901274532E+02  0.00000000000E+00 0.  1.
        -13    1    4    4    0    0  0.29536141677E+02 -0.53272532499E+02 -0.35799034983E+02  0.70653501610E+02  0.00000000000E+00 0. -1.
         13    1    4    4    0    0  0.11046210114E+03 -0.14688354526E+02 -0.19173038375E+03  0.22176150161E+03  0.00000000000E+00 0.  1.
          2    1    1    2  501    0 -0.55663633132E+02 -0.66765501386E+01 -0.23253989836E+02  0.60694022922E+02  0.00000000000E+00 0. -1.
<scales pt_clust_5="13000.00000" pt_clust_6="13000.00000" pt_clust_7="13000.00000" pt_clust_8="13000.00000" pt_clust_9="56.06261"></scales>
<clustering>
<clus scale="   56.063">  1  9  2 -1</clus>
<clus scale="   80.799">  5  6 -1 -1</clus>
<clus scale="   97.564">  7  8 -1 -1</clus>
<clus scale="  146.980">  2  5  1 -1</clus>
<clus scale="   56.063">  1  5  2 -1</clus>
</clustering>
</event>
<event>
 9    1  0.5981539E-005  0.1838841E+03  0.7546771E-02  0.1166223E+00
         21   -1    0    0  501  502  0.00000000000E+00  0.00000000000E+00  0.17857328422E+03  0.17857328422E+03  0.00000000000E+00 0. -1.
          1   -1    0    0  502    0 -0.00000000000E+00 -0.00000000000E+00 -0.43081704418E+03  0.43081704418E+03  0.00000000000E+00 0. -1.
         23    2    1    2    0    0 -0.90140547830E+02 -0.13554015326E+03 -0.23068273257E+03  0.29866842211E+03  0.97426134853E+02 0.  0.
        -24    2    1    2    0    0  0.52314888713E+02  0.13994168446E+03 -0.11846456309E+03  0.20660442843E+03  0.79567672501E+02 0.  0.
         11    1    4    4    0    0  0.10430589626E+02  0.10484922973E+03 -0.10815979517E+03  0.15099900486E+03  0.00000000000E+00 0. -1.
        -12    1    4    4    0    0  0.41884299087E+02  0.35092454729E+02 -0.10304767915E+02  0.55605423572E+02  0.00000000000E+00 0.  1.
        -11    1    3    3    0    0 -0.12094075517E+02 -0.64174516980E+02 -0.30086214990E+02  0.71901429920E+02  0.00000000000E+00 0. -1.
         11    1    3    3    0    0 -0.78046472314E+02 -0.71365636276E+02 -0.20059651758E+03  0.22676699219E+03  0.00000000000E+00 0.  1.
          2    1    1    2  501    0  0.37825659117E+02 -0.44015312080E+01  0.96903535700E+02  0.10411747786E+03  0.00000000000E+00 0. -1.
<scales pt_clust_5="13000.00000" pt_clust_6="13000.00000" pt_clust_7="13000.00000" pt_clust_8="13000.00000" pt_clust_9="38.08089"></scales>
<clustering>
<clus scale="   38.081">  1  9  2 -1</clus>
<clus scale="   79.568">  5  6 -1 -1</clus>
<clus scale="   97.426">  7  8 -1 -1</clus>
<clus scale="  175.079">  1  5  2 -1</clus>
<clus scale="   38.081">  1  5  2 -1</clus>
</clustering>
</event>
<event>
 9    1  0.5981539E-005  0.2077328E+03  0.7546771E-02  0.1147101E+00
          1   -1    0    0  502    0 -0.00000000000E+00  0.00000000000E+00  0.92784446074E+03  0.92784446074E+03  0.00000000000E+00 0. -1.
         21   -1    0    0  501  502  0.00000000000E+00 -0.00000000000E+00 -0.14530578975E+03  0.14530578975E+03  0.00000000000E+00 0. -1.
         23    2    1    2    0    0  0.24321154254E+02 -0.16466754428E+03  0.31704773816E+02  0.19265924346E+03  0.91681365206E+02 0.  0.
        -24    2    1    2    0    0 -0.17563893623E+03 -0.36299427900E+02  0.23686731356E+03  0.30826164382E+03  0.82173185596E+02 0.  0.
         13    1    4    4    0    0 -0.15621025664E+03 -0.69911755772E+01  0.21822157476E+03  0.26846075413E+03  0.00000000000E+00 0. -1.
        -14    1    4    4    0    0 -0.19428679588E+02 -0.29308252322E+02  0.18645738796E+02  0.39800889688E+02  0.00000000000E+00 0.  1.
        -13    1    3    3    0    0  0.33666013469E+01 -0.33049236448E+02 -0.30938118896E+02  0.45395519991E+02  0.00000000000E+00 0.  1.
         13    1    3    3    0    0  0.20954552907E+02 -0.13161830783E+03  0.62642892711E+02  0.14726372347E+03  0.00000000000E+00 0. -1.
          2    1    1    2  501    0  0.15131778198E+03  0.20096697218E+03  0.51396658362E+03  0.57222936321E+03  0.00000000000E+00 0. -1.
<scales pt_clust_5="13000.00000" pt_clust_6="13000.00000" pt_clust_7="13000.00000" pt_clust_8="13000.00000" pt_clust_9="190.78918"></scales>
<clustering>
<clus scale="   82.173">  5  6 -1 -1</clus>
<clus scale="   91.681">  7  8 -1 -1</clus>
<clus scale="  190.033">  1  7  2 -1</clus>
<clus scale="  190.789">  2  9  1 -1</clus>
<clus scale="  190.789">  2  5  1 -1</clus>
</clustering>
</event>
<event>
 9    1  0.8902089E-005  0.2414732E+03  0.7546771E-02  0.1164150E+00
         21   -1    0    0  501  502  0.00000000000E+00  0.00000000000E+00  0.60674834643E+02  0.60674834643E+02  0.00000000000E+00 0. -1.
          1   -1    0    0  502    0 -0.00000000000E+00 -0.00000000000E+00 -0.20634677623E+04  0.20634677623E+04  0.00000000000E+00 0. -1.
        -24    2    1    2    0    0 -0.22077371741E+01 -0.84737426166E+01 -0.66130399033E+03  0.66625855529E+03  0.80627640721E+02 0.  0.
         23    2    1    2    0    0 -0.50263613517E+02  0.21993059749E+03 -0.26513119439E+03  0.35969770278E+03  0.90509604973E+02 0.  0.
         11    1    3    3    0    0  0.31246946128E+02 -0.19685506155E+02 -0.18504105729E+03  0.18869044406E+03  0.00000000000E+00 0. -1.
        -12    1    3    3    0    0 -0.33454683302E+02  0.11211763538E+02 -0.47626293304E+03  0.47756811123E+03  0.00000000000E+00 0.  1.
        -11    1    4    4    0    0  0.21515142237E+02  0.20314568821E+02 -0.46122618768E+02  0.54798531129E+02  0.00000000000E+00 0.  1.
         11    1    4    4    0    0 -0.71778755754E+02  0.19961602867E+03 -0.21900857562E+03  0.30489917165E+03  0.00000000000E+00 0. -1.
          2    1    1    2  501    0  0.52471350691E+02 -0.21145685487E+03 -0.10763577430E+04  0.10981863389E+04  0.00000000000E+00 0. -1.
<scales pt_clust_5="13000.00000" pt_clust_6="13000.00000" pt_clust_7="13000.00000" pt_clust_8="13000.00000" pt_clust_9="223.86909"></scales>
<clustering>
<clus scale="   80.628">  5  6 -1 -1</clus>
<clus scale="   81.102">  2  5  1 -1</clus>
<clus scale="   90.510">  7  8 -1 -1</clus>
<clus scale="  223.869">  1  9  2 -1</clus>
<clus scale="  223.869">  1  5  2 -1</clus>
</clustering>
</event>
<event>
 9    1  0.5981539E-005  0.1020616E+03  0.7546771E-02  0.1281043E+00
         -2   -1    0    0    0  501 -0.00000000000E+00  0.00000000000E+00  0.16477241098E+03  0.16477241098E+03  0.00000000000E+00 0.  1.
         21   -1    0    0  501  502  0.00000000000E+00 -0.00000000000E+00 -0.18087388998E+03  0.18087388998E+03  0.00000000000E+00 0. -1.
         23    2    1    2    0    0 -0.33782760571E+02 -0.54050134018E+02  0.64669898212E+02  0.12603466159E+03  0.87406225681E+02 0.  0.
        -24    2    1    2    0    0 -0.43202917758E+02  0.32033369207E+02 -0.10047212081E+03  0.13715163756E+03  0.76310522078E+02 0.  0.
         11    1    4    4    0    0 -0.17307665677E+02  0.53927734691E+02 -0.78296827083E+02  0.96634098492E+02  0.00000000000E+00 0. -1.
        -12    1    4    4    0    0 -0.25895252081E+02 -0.21894365484E+02 -0.22175293728E+02  0.40517539069E+02  0.00000000000E+00 0.  1.
        -13    1    3    3    0    0 -0.37960669996E+02 -0.79370853796E+01 -0.82568170856E+01  0.39650785860E+02  0.00000000000E+00 0. -1.
         13    1    3    3    0    0  0.41779094249E+01 -0.46113048638E+02  0.72926715297E+02  0.86383875729E+02  0.00000000000E+00 0.  1.
         -1    1    1    2    0  502  0.76985678330E+02  0.22016764811E+02  0.19700743599E+02  0.82460001813E+02  0.00000000000E+00 0.  1.
<scales pt_clust_5="13000.00000" pt_clust_6="13000.00000" pt_clust_7="13000.00000" pt_clust_8="13000.00000" pt_clust_9="80.07209"></scales>
<clustering>
<clus scale="   76.311">  5  6 -1 -1</clus>
<clus scale="   80.072">  2  9  1 -1</clus>
<clus scale="   87.406">  7  8 -1 -1</clus>
<clus scale="   92.736">  2  5  1 -1</clus>
<clus scale="   80.072">  2  5  1 -1</clus>
</clustering>
</event>
<event>
 9    1  0.5981539E-005  0.1657335E+03  0.7546771E-02  0.1215341E+00
          1   -1    0    0  502    0 -0.00000000000E+00  0.00000000000E+00  0.12129619104E+04  0.12129619104E+04  0.00000000000E+00 0. -1.
         21   -1    0    0  501  502  0.00000000000E+00 -0.00000000000E+00 -0.49584866820E+02  0.49584866820E+02  0.00000000000E+00 0. -1.
        -24    2    1    2    0    0  0.58378630447E+01  0.27885065037E+01  0.80771126551E+02  0.11429384977E+03  0.80605538256E+02 0.  0.
         23    2    1    2    0    0  0.87631604139E+02 -0.10228175502E+03  0.92601533343E+03  0.94051256386E+03  0.94438496225E+02 0.  0.
         13    1    3    3    0    0  0.90044360713E+01  0.24337620480E+02 -0.44541459574E+01  0.26329433260E+02  0.00000000000E+00 0. -1.
        -14    1    3    3    0    0 -0.31665730266E+01 -0.21549113976E+02  0.85225272509E+02  0.87964416511E+02  0.00000000000E+00 0.  1.
        -11    1    4    4    0    0  0.38581254058E+02  0.10917501722E+02  0.18473327348E+03  0.18903461942E+03  0.00000000000E+00 0.  1.
         11    1    4    4    0    0  0.49050350081E+02 -0.11319925675E+03  0.74128205995E+03  0.75147794444E+03  0.00000000000E+00 0. -1.
          2    1    1    2  501    0 -0.93469467184E+02  0.99493248521E+02  0.15659058362E+03  0.20774036362E+03  0.00000000000E+00 0. -1.
<scales pt_clust_5="13000.00000" pt_clust_6="13000.00000" pt_clust_7="13000.00000" pt_clust_8="13000.00000" pt_clust_9="136.19455"></scales>
<clustering>
<clus scale="   80.606">  5  6 -1 -1</clus>
<clus scale="   80.865">  1  5  2 -1</clus>
<clus scale="   94.438">  7  8 -1 -1</clus>
<clus scale="  136.195">  2  9  1 -1</clus>
<clus scale="  136.195">  2  5  1 -1</clus>
</clustering>
</event>
<event>
 9    1  0.5981539E-005  0.1923638E+03  0.7546771E-02  0.1182895E+00
         21   -1    0    0  501  502  0.00000000000E+00  0.00000000000E+00  0.44391373530E+03  0.44391373530E+03  0.00000000000E+00 0. -1.
         -2   -1    0    0    0  501 -0.00000000000E+00 -0.00000000000E+00 -0.13731189189E+03  0.13731189189E+03  0.00000000000E+00 0.  1.
         23    2    1    2    0    0  0.43317327663E+02 -0.21942204533E+02  0.67780878269E+02  0.12477275167E+03  0.92823169979E+02 0.  0.
        -24    2    1    2    0    0 -0.19123286001E+03  0.16661063604E+02  0.22759874425E+03  0.30801826566E+03  0.78907957832E+02 0.  0.
         13    1    4    4    0    0 -0.15867133765E+03 -0.15663333289E+02  0.19420023593E+03  0.25126811385E+03  0.00000000000E+00 0. -1.
        -14    1    4    4    0    0 -0.32561522367E+02  0.32324396893E+02  0.33398508316E+02  0.56750151815E+02  0.00000000000E+00 0.  1.
        -13    1    3    3    0    0 -0.23270762245E+01  0.33041505973E+02  0.18174328741E+02  0.37781776373E+02  0.00000000000E+00 0. -1.
         13    1    3    3    0    0  0.45644403888E+02 -0.54983710506E+02  0.49606549527E+02  0.86990975298E+02  0.00000000000E+00 0.  1.
         -1    1    1    2    0  502  0.14791553235E+03  0.52811409294E+01  0.11222220893E+02  0.14843460985E+03  0.00000000000E+00 0.  1.
<scales pt_clust_5="13000.00000" pt_clust_6="13000.00000" pt_clust_7="13000.00000" pt_clust_8="13000.00000" pt_clust_9="175.43491"></scales>
<clustering>
<clus scale="   78.908">  5  6 -1 -1</clus>
<clus scale="   92.823">  7  8 -1 -1</clus>
<clus scale="  104.757">  2  7  1 -1</clus>
<clus scale="  175.435">  1  9  2 -1</clus>
<clus scale="  175.435">  1  5  2 -1</clus>
</clustering>
</event>
<event>
 9    1  0.5981539E-005  0.9093331E+02  0.7546771E-02  0.1306236E+00
         -4   -1    0    0    0  501 -0.00000000000E+00  0.00000000000E+00  0.27245555531E+03  0.27245555531E+03  0.00000000000E+00 0.  1.
         21   -1    0    0  501  502  0.00000000000E+00 -0.00000000000E+00 -0.53144010676E+02  0.53144010676E+02  0.00000000000E+00 0.  1.
        -24    2    1    2    0    0 -0.14615541647E+02 -0.20931524467E+01  0.14447257430E+03  0.16591252500E+03  0.80228709834E+02 0.  0.
         23    2    1    2    0    0  0.70054830922E+01  0.31697586278E+02  0.84969224021E+02  0.12748521599E+03  0.89324674619E+02 0.  0.
         13    1    3    3    0    0  0.86949154517E+01 -0.35238386830E+02  0.96595593889E+02  0.10318940944E+03  0.00000000000E+00 0. -1.
        -14    1    3    3    0    0 -0.23310457099E+02  0.33145234384E+02  0.47876980412E+02  0.62723115562E+02  0.00000000000E+00 0.  1.
        -13    1    4    4    0    0  0.43348440864E+02 -0.38932178476E+01  0.31803740543E+02  0.53904752880E+02  0.00000000000E+00 0. -1.
         13    1    4    4    0    0 -0.36342957772E+02  0.35590804125E+02  0.53165483478E+02  0.73580463109E+02  0.00000000000E+00 0.  1.
         -3    1    1    2    0  502  0.76100585548E+01 -0.29604433831E+02 -0.10130253686E+02  0.32201825001E+02  0.00000000000E+00 0.  1.
<scales pt_clust_5="13000.00000" pt_clust_6="13000.00000" pt_clust_7="13000.00000" pt_clust_8="13000.00000" pt_clust_9="30.56690"></scales>
<clustering>
<clus scale="   30.567">  2  9  1 -1</clus>
<clus scale="   80.229">  5  6 -1 -1</clus>
<clus scale="   82.016">  1  5  2 -1</clus>
<clus scale="   89.325">  7  8 -1 -1</clus>
<clus scale="   30.567">  2  5  1 -1</clus>
</clustering>
</event>
<event>
 9    1  0.5981539E-005  0.1086672E+03  0.7546771E-02  0.1267745E+00
          1   -1    0    0  502    0 -0.00000000000E+00  0.00000000000E+00  0.93765112722E+02  0.93765112722E+02  0.00000000000E+00 0. -1.
         21   -1    0    0  501  502  0.00000000000E+00 -0.00000000000E+00 -0.49688851599E+03  0.49688851599E+03  0.00000000000E+00 0.  1.
        -24    2    1    2    0    0 -0.47648670189E+02  0.31494436316E+02  0.49442321374E+02  0.10940974876E+03  0.79143254235E+02 0.  0.
         23    2    1    2    0    0  0.79847583571E+02 -0.41494419854E+02 -0.32300710053E+03  0.34737003346E+03  0.90746513273E+02 0.  0.
         13    1    3    3    0    0 -0.60285969329E+02 -0.28556666066E+01  0.36794334027E+02  0.70685047543E+02  0.00000000000E+00 0. -1.
        -14    1    3    3    0    0  0.12637299139E+02  0.34350102923E+02  0.12647987346E+02  0.38724701216E+02  0.00000000000E+00 0.  1.
        -11    1    4    4    0    0  0.44842672235E+01 -0.36764386270E+02 -0.40222071325E+02  0.54676720568E+02  0.00000000000E+00 0. -1.
         11    1    4    4    0    0  0.75363316347E+02 -0.47300335836E+01 -0.28278502921E+03  0.29269331289E+03  0.00000000000E+00 0.  1.
          2    1    1    2  501    0 -0.32198913381E+02  0.99999835379E+01 -0.12955862410E+03  0.13387384649E+03  0.00000000000E+00 0. -1.
<scales pt_clust_5="13000.00000" pt_clust_6="13000.00000" pt_clust_7="13000.00000" pt_clust_8="13000.00000" pt_clust_9="33.71602"></scales>
<clustering>
<clus scale="   33.716">  2  9  1 -1</clus>
<clus scale="   79.143">  5  6 -1 -1</clus>
<clus scale="   90.747">  7  8 -1 -1</clus>
<clus scale="   99.183">  1  5  2 -1</clus>
<clus scale="   33.716">  2  5  1 -1</clus>
</clustering>
</event>
<event>
 9    1  0.5981539E-005  0.1178800E+03  0.7546771E-02  0.1261052E+00
         21   -1    0    0  501  502  0.00000000000E+00  0.00000000000E+00  0.90354750346E+02  0.90354750346E+02  0.00000000000E+00 0. -1.
          1   -1    0    0  502    0 -0.00000000000E+00 -0.00000000000E+00 -0.39128293440E+03  0.39128293440E+03  0.00000000000E+00 0. -1.
        -24    2    1    2    0    0 -0.10917865580E+02  0.35358235360E+02 -0.26574780534E+03  0.28010926033E+03  0.80435670438E+02 0.  0.
         23    2    1    2    0    0 -0.34989495911E+02  0.43427066227E+02 -0.16515258402E+02  0.10845320591E+03  0.91537802061E+02 0.  0.
         11    1    3    3    0    0 -0.40439710394E+02  0.21010236772E+02 -0.21422888115E+03  0.21902240466E+03  0.00000000000E+00 0. -1.
        -12    1    3    3    0    0  0.29521844814E+02  0.14347998589E+02 -0.51518924198E+02  0.61086855666E+02  0.00000000000E+00 0.  1.
        -11    1    4    4    0    0 -0.32745566171E+02  0.20767468430E+02  0.34933269960E+02  0.52190930236E+02  0.00000000000E+00 0.  1.
         11    1    4    4    0    0 -0.22439297399E+01  0.22659597797E+02 -0.51448528362E+02  0.56262275670E+02  0.00000000000E+00 0. -1.
          2    1    1    2  501    0  0.45907361491E+02 -0.78785301587E+02 -0.18665120307E+02  0.93075218513E+02  0.00000000000E+00 0. -1.
<scales pt_clust_5="13000.00000" pt_clust_6="13000.00000" pt_clust_7="13000.00000" pt_clust_8="13000.00000" pt_clust_9="74.27339"></scales>
<clustering>
<clus scale="   80.436">  5  6 -1 -1</clus>
<clus scale="   88.540">  2  5  1 -1</clus>
<clus scale="   74.273">  1  9  2 -1</clus>
<clus scale="   91.538">  7  8 -1 -1</clus>
<clus scale="   74.273">  1  5  2 -1</clus>
</clustering>
</event>
<event>
 9    1  0.5981539E-005  0.1088952E+03  0.7546771E-02  0.1267440E+00
         21   -1    0    0  501  502  0.00000000000E+00  0.00000000000E+00  0.23750490740E+03  0.23750490740E+03  0.00000000000E+00 0.  1.
         -2   -1    0    0    0  501 -0.00000000000E+00 -0.00000000000E+00 -0.85875228388E+02  0.85875228388E+02  0.00000000000E+00 0.  1.
         23    2    1    2    0    0  0.90118838255E+01  0.69625657334E+02  0.11613837562E+01  0.11625339972E+03  0.92652889457E+02 0.  0.
        -24    2    1    2    0    0 -0.14973502126E+02 -0.37557910348E+02  0.54226977959E+02  0.10550846781E+03  0.80973262528E+02 0.  0.
         11    1    4    4    0    0 -0.15443156061E+02 -0.41908442182E+02 -0.60514929758E+01  0.45071378529E+02  0.00000000000E+00 0. -1.
        -12    1    4    4    0    0  0.46965393467E+00  0.43505318337E+01  0.60278470934E+02  0.60437089277E+02  0.00000000000E+00 0.  1.
        -11    1    3    3    0    0 -0.37786076483E+02  0.41757707977E+02 -0.17020173764E+02  0.58831794689E+02  0.00000000000E+00 0.  1.
         11    1    3    3    0    0  0.46797960308E+02  0.27867949358E+02  0.18181557520E+02  0.57421605030E+02  0.00000000000E+00 0. -1.
         -1    1    1    2    0  502  0.59616183007E+01 -0.32067746986E+02  0.96241317297E+02  0.10161826826E+03  0.00000000000E+00 0.  1.
<scales pt_clust_5="13000.00000" pt_clust_6="13000.00000" pt_clust_7="13000.00000" pt_clust_8="13000.00000" pt_clust_9="32.61719"></scales>
<clustering>
<clus scale="   32.617">  1  9  2 -1</clus>
<clus scale="   80.973">  5  6 -1 -1</clus>
<clus scale="   92.653">  7  8 -1 -1</clus>
<clus scale="   99.148">  1  5  2 -1</clus>
<clus scale="   32.617">  1  5  2 -1</clus>
</clustering>
</event>
<event>
 9    1  0.5981539E-005  0.1411622E+03  0.7546771E-02  0.1213950E+00
         21   -1    0    0  501  502  0.00000000000E+00  0.00000000000E+00  0.10619403624E+03  0.10619403624E+03  0.00000000000E+00 0.  1.
          3   -1    0    0  502    0 -0.00000000000E+00 -0.00000000000E+00 -0.36053353673E+03  0.36053353673E+03  0.00000000000E+00 0. -1.
         23    2    1    2    0    0  0.88610110368E+01 -0.11627079419E+03 -0.24696824206E+03  0.28795307309E+03  0.91248258158E+02 0.  0.
        -24    2    1    2    0    0 -0.20229931902E+02  0.87941900139E+02 -0.45850961378E+02  0.12965763782E+03  0.81029404790E+02 0.  0.
         13    1    4    4    0    0 -0.36007638416E+02  0.44311851348E+01 -0.14569684982E+02  0.39095538703E+02  0.00000000000E+00 0. -1.
        -14    1    4    4    0    0  0.15777706514E+02  0.83510715004E+02 -0.31281276396E+02  0.90562099116E+02  0.00000000000E+00 0.  1.
        -13    1    3    3    0    0 -0.32910320598E+02 -0.48238188414E+02 -0.15785599653E+03  0.16831080673E+03  0.00000000000E+00 0.  1.
         13    1    3    3    0    0  0.41771331634E+02 -0.68032605772E+02 -0.89112245533E+02  0.11964226635E+03  0.00000000000E+00 0. -1.
          4    1    1    2  501    0  0.11368920865E+02  0.28328894047E+02  0.38479702951E+02  0.49116862061E+02  0.00000000000E+00 0. -1.
<scales pt_clust_5="13000.00000" pt_clust_6="13000.00000" pt_clust_7="13000.00000" pt_clust_8="13000.00000" pt_clust_9="30.52505"></scales>
<clustering>
<clus scale="   30.525">  1  9  2 -1</clus>
<clus scale="   81.029">  5  6 -1 -1</clus>
<clus scale="   91.248">  7  8 -1 -1</clus>
<clus scale="  134.782">  1  5  2 -1</clus>
<clus scale="   30.525">  1  5  2 -1</clus>
</clustering>
</event>
<event>
 9    1  0.5981539E-005  0.1801697E+03  0.7546771E-02  0.1169010E+00
         -2   -1    0    0    0  501 -0.00000000000E+00  0.00000000000E+00  0.89700098069E+03  0.89700098069E+03  0.00000000000E+00 0.  1.
         21   -1    0    0  501  502  0.00000000000E+00 -0.00000000000E+00 -0.12752484972E+03  0.12752484972E+03  0.00000000000E+00 0. -1.
         23    2    1    2    0    0 -0.42455236961E+02 -0.15140929272E+03  0.72428239945E+03  0.74690407511E+03  0.92485037670E+02 0.  0.
        -24    2    1    2    0    0  0.10912067636E+03  0.11306930369E+03  0.78936727588E+02  0.19364065414E+03  0.81078397393E+02 0.  0.
         11    1    4    4    0    0  0.75406471276E+02  0.70752220254E+02  0.70148257810E+01  0.10363985894E+03  0.00000000000E+00 0. -1.
        -12    1    4    4    0    0  0.33714205088E+02  0.42317083439E+02  0.71921901807E+02  0.90000795191E+02  0.00000000000E+00 0.  1.
        -11    1    3    3    0    0 -0.67967111812E+02 -0.12868363770E+03  0.52887906778E+03  0.54853630257E+03  0.00000000000E+00 0.  1.
         11    1    3    3    0    0  0.25511874851E+02 -0.22725655016E+02  0.19540333166E+03  0.19836777253E+03  0.00000000000E+00 0. -1.
         -1    1    1    2    0  502 -0.66665439403E+02  0.38339989025E+02 -0.33742996072E+02  0.83981101167E+02  0.00000000000E+00 0.  1.
<scales pt_clust_5="13000.00000" pt_clust_6="13000.00000" pt_clust_7="13000.00000" pt_clust_8="13000.00000" pt_clust_9="76.90407"></scales>
<clustering>
<clus scale="   76.904">  2  9  1 -1</clus>
<clus scale="   81.078">  5  6 -1 -1</clus>
<clus scale="   92.485">  7  8 -1 -1</clus>
<clus scale="  174.589">  2  5  1 -1</clus>
<clus scale="   76.904">  2  5  1 -1</clus>
</clustering>
</event>
<event>
 9    1  0.5981539E-005  0.1088337E+03  0.7546771E-02  0.1267975E+00
          3   -1    0    0  502    0 -0.00000000000E+00  0.00000000000E+00  0.53376122503E+02  0.53376122503E+02  0.00000000000E+00 0. -1.
         21   -1    0    0  501  502  0.00000000000E+00 -0.00000000000E+00 -0.28025934148E+03  0.28025934148E+03  0.00000000000E+00 0. -1.
        -24    2    1    2    0    0 -0.62961006483E+02 -0.18830674772E+02 -0.67111256656E+02  0.12362751473E+03  0.80381334758E+02 0.  0.
         23    2    1    2    0    0  0.41792150211E+02  0.12474151430E+01 -0.14881973967E+03  0.18038966646E+03  0.92978368377E+02 0.  0.
         11    1    3    3    0    0 -0.43749505142E+02 -0.22829337081E+02 -0.84207348291E+02  0.97601615447E+02  0.00000000000E+00 0. -1.
        -12    1    3    3    0    0 -0.19211501341E+02  0.39986623093E+01  0.17096091635E+02  0.26025899278E+02  0.00000000000E+00 0.  1.
        -13    1    4    4    0    0 -0.21696411273E+02 -0.41101062248E+01 -0.43673959309E+01  0.22510028487E+02  0.00000000000E+00 0. -1.
         13    1    4    4    0    0  0.63488561484E+02  0.53575213677E+01 -0.14445234374E+03  0.15787963797E+03  0.00000000000E+00 0.  1.
          4    1    1    2  501    0  0.21168856272E+02  0.17583259629E+02 -0.10952222654E+02  0.29618282801E+02  0.00000000000E+00 0. -1.
<scales pt_clust_5="13000.00000" pt_clust_6="13000.00000" pt_clust_7="13000.00000" pt_clust_8="13000.00000" pt_clust_9="27.51894"></scales>
<clustering>
<clus scale="   27.519">  2  9  1 -1</clus>
<clus scale="   80.381">  5  6 -1 -1</clus>
<clus scale="   92.978">  7  8 -1 -1</clus>
<clus scale="   98.290">  1  5  2 -1</clus>
<clus scale="   27.519">  2  5  1 -1</clus>
</clustering>
</event>
<event>
 9    1  0.5981539E-005  0.1129434E+03  0.7546771E-02  0.1259067E+00
         21   -1    0    0  501  502  0.00000000000E+00  0.00000000000E+00  0.79890831634E+02  0.79890831634E+02  0.00000000000E+00 0. -1.
          1   -1    0    0  502    0 -0.00000000000E+00 -0.00000000000E+00 -0.22399042689E+03  0.22399042689E+03  0.00000000000E+00 0. -1.
        -24    2    1    2    0    0  0.56464289130E+02 -0.15231535902E+02 -0.30533958622E+02  0.10339636651E+03  0.79613254836E+02 0.  0.
         23    2    1    2    0    0 -0.79307405538E+02  0.43964818636E+01 -0.46617783388E+02  0.12892218233E+03  0.90214842140E+02 0.  0.
         11    1    3    3    0    0  0.36944992995E+02 -0.44258925021E+02 -0.10718093146E+01  0.57662238307E+02  0.00000000000E+00 0. -1.
        -12    1    3    3    0    0  0.19519296135E+02  0.29027389119E+02 -0.29462149307E+02  0.45734128203E+02  0.00000000000E+00 0.  1.
        -11    1    4    4    0    0 -0.48747790725E+02  0.30316478303E+02  0.11286178917E+02  0.58504818535E+02  0.00000000000E+00 0. -1.
         11    1    4    4    0    0 -0.30559614813E+02 -0.25919996440E+02 -0.57903962305E+02  0.70417363793E+02  0.00000000000E+00 0.  1.
          2    1    1    2  501    0  0.22843116408E+02  0.10835054038E+02 -0.66947853251E+02  0.71562709690E+02  0.00000000000E+00 0. -1.
<scales pt_clust_5="13000.00000" pt_clust_6="13000.00000" pt_clust_7="13000.00000" pt_clust_8="13000.00000" pt_clust_9="25.28254"></scales>
<clustering>
<clus scale="   25.283">  1  9  2 -1</clus>
<clus scale="   79.613">  5  6 -1 -1</clus>
<clus scale="   90.215">  7  8 -1 -1</clus>
<clus scale="  104.670">  2  5  1 -1</clus>
<clus scale="   25.283">  1  5  2 -1</clus>
</clustering>
</event>
<event>
 9    1  0.5981539E-005  0.1394412E+03  0.7546771E-02  0.1218752E+00
         21   -1    0    0  501  502  0.00000000000E+00  0.00000000000E+00  0.20738111679E+03  0.20738111679E+03  0.00000000000E+00 0.  1.
          1   -1    0    0  502    0 -0.00000000000E+00 -0.00000000000E+00 -0.22854123847E+03  0.22854123847E+03  0.00000000000E+00 0. -1.
         23    2    1    2    0    0  0.86532336040E+02  0.72090189248E+02 -0.33856906022E+02  0.15439032866E+03  0.10002621122E+03 0.  0.
        -24    2    1    2    0    0 -0.48600753049E+02 -0.36728961956E+02  0.12322926385E+03  0.15943923234E+03  0.80773556909E+02 0.  0.
         13    1    4    4    0    0 -0.40331493694E+01  0.21827629282E+02  0.98772395876E+01  0.24295504847E+02  0.00000000000E+00 0. -1.
        -14    1    4    4    0    0 -0.44567603680E+02 -0.58556591238E+02  0.11335202427E+03  0.13514372749E+03  0.00000000000E+00 0.  1.
        -11    1    3    3    0    0  0.10783629506E+03  0.66051502671E+02 -0.37608957679E+02  0.13193142626E+03  0.00000000000E+00 0.  1.
         11    1    3    3    0    0 -0.21303959018E+02  0.60386865769E+01  0.37520516574E+01  0.22458902401E+02  0.00000000000E+00 0. -1.
          2    1    1    2  501    0 -0.37931582991E+02 -0.35361227292E+02 -0.11053247951E+03  0.12209279426E+03  0.00000000000E+00 0. -1.
<scales pt_clust_5="13000.00000" pt_clust_6="13000.00000" pt_clust_7="13000.00000" pt_clust_8="13000.00000" pt_clust_9="51.85773"></scales>
<clustering>
<clus scale="   51.858">  1  9  2 -1</clus>
<clus scale="   80.774">  5  6 -1 -1</clus>
<clus scale="  100.026">  7  8 -1 -1</clus>
<clus scale="  126.345">  1  5  2 -1</clus>
<clus scale="   51.858">  1  5  2 -1</clus>
</clustering>
</event>
<event>
 9    1  0.5981539E-005  0.1333959E+03  0.7546771E-02  0.1225505E+00
         -4   -1    0    0    0  501 -0.00000000000E+00  0.00000000000E+00  0.12972627939E+03  0.12972627939E+03  0.00000000000E+00 0.  1.
         21   -1    0    0  501  502  0.00000000000E+00 -0.00000000000E+00 -0.24565022670E+03  0.24565022670E+03  0.00000000000E+00 0.  1.
         23    2    1    2    0    0  0.17646593801E+02  0.75644531660E+02 -0.86042212242E+01  0.11931121290E+03  0.90153399594E+02 0.  0.
        -24    2    1    2    0    0  0.16890182067E+02 -0.13323584664E+03 -0.38373796852E+02  0.15982034731E+03  0.77671912873E+02 0.  0.
         11    1    4    4    0    0  0.30526784099E+02 -0.19388109170E+02  0.64033826155E+01  0.36725830604E+02  0.00000000000E+00 0. -1.
        -12    1    4    4    0    0 -0.13636602032E+02 -0.11384773747E+03 -0.44777179467E+02  0.12309451671E+03  0.00000000000E+00 0.  1.
        -11    1    3    3    0    0 -0.17102078382E+02  0.54669467468E+02  0.28801411056E+02  0.64115154503E+02  0.00000000000E+00 0. -1.
         11    1    3    3    0    0  0.34748672184E+02  0.20975064193E+02 -0.37405632280E+02  0.55196058398E+02  0.00000000000E+00 0.  1.
         -3    1    1    2    0  502 -0.34536775869E+02  0.57591314982E+02 -0.68945929234E+02  0.96244945876E+02  0.00000000000E+00 0.  1.
<scales pt_clust_5="13000.00000" pt_clust_6="13000.00000" pt_clust_7="13000.00000" pt_clust_8="13000.00000" pt_clust_9="67.15317"></scales>
<clustering>
<clus scale="   67.153">  2  9  1 -1</clus>
<clus scale="   77.672">  5  6 -1 -1</clus>
<clus scale="   90.153">  7  8 -1 -1</clus>
<clus scale="  125.299">  2  5  1 -1</clus>
<clus scale="   67.153">  2  5  1 -1</clus>
</clustering>
</event>
<event>
 9    1  0.5981539E-005  0.1229753E+03  0.7546771E-02  0.1242308E+00
         21   -1    0    0  501  502  0.00000000000E+00  0.00000000000E+00  0.45731869513E+03  0.45731869513E+03  0.00000000000E+00 0. -1.
         -2   -1    0    0    0  501 -0.00000000000E+00 -0.00000000000E+00 -0.10577103832E+03  0.10577103832E+03  0.00000000000E+00 0.  1.
         23    2    1    2    0    0  0.22065445647E+02  0.59202917426E+02  0.44347496054E+02  0.12067509520E+03  0.92757257785E+02 0.  0.
        -24    2    1    2    0    0 -0.87116642737E+02 -0.12592172961E+03  0.30356459164E+03  0.34916081525E+03  0.79474663733E+02 0.  0.
         13    1    4    4    0    0 -0.60118545866E+01 -0.71419400216E+02  0.96569842515E+02  0.12026058210E+03  0.00000000000E+00 0. -1.
        -14    1    4    4    0    0 -0.81104788150E+02 -0.54502329392E+02  0.20699474913E+03  0.22890023315E+03  0.00000000000E+00 0.  1.
        -11    1    3    3    0    0  0.24241525333E+02 -0.49545280850E+01 -0.18456656229E+02  0.30868220846E+02  0.00000000000E+00 0.  1.
         11    1    3    3    0    0 -0.21760796860E+01  0.64157445511E+02  0.62804152283E+02  0.89806874354E+02  0.00000000000E+00 0. -1.
         -1    1    1    2    0  502  0.65051197090E+02  0.66718812182E+02  0.36355691179E+01  0.93253823003E+02  0.00000000000E+00 0.  1.
<scales pt_clust_5="13000.00000" pt_clust_6="13000.00000" pt_clust_7="13000.00000" pt_clust_8="13000.00000" pt_clust_9="93.18297"></scales>
<clustering>
<clus scale="   79.475">  5  6 -1 -1</clus>
<clus scale="   92.757">  7  8 -1 -1</clus>
<clus scale="   93.183">  1  9  2 -1</clus>
<clus scale="  113.293">  1  5  2 -1</clus>
<clus scale="   93.183">  1  5  2 -1</clus>
</clustering>
</event>
<event>
 9    1  0.5981539E-005  0.1585331E+03  0.7546771E-02  0.1208192E+00
         21   -1    0    0  501  502  0.00000000000E+00  0.00000000000E+00  0.33621636613E+03  0.33621636613E+03  0.00000000000E+00 0.  1.
         -4   -1    0    0    0  501 -0.00000000000E+00 -0.00000000000E+00 -0.12749427909E+03  0.12749427909E+03  0.00000000000E+00 0.  1.
         23    2    1    2    0    0  0.18542919567E+02  0.53125452802E+02  0.66412391967E+02  0.12642865516E+03  0.91692123097E+02 0.  0.
        -24    2    1    2    0    0 -0.61329958454E+02  0.94164577558E+02  0.16573621878E+02  0.13895235575E+03  0.80029624235E+02 0.  0.
         11    1    4    4    0    0 -0.54301723534E+02  0.13882485952E+02  0.16272619334E+02  0.58362648458E+02  0.00000000000E+00 0. -1.
        -12    1    4    4    0    0 -0.70282349204E+01  0.80282091606E+02  0.30100254363E+00  0.80589707291E+02  0.00000000000E+00 0.  1.
        -11    1    3    3    0    0 -0.11370878845E+02  0.62980924876E+02  0.69861924785E+02  0.94744827397E+02  0.00000000000E+00 0.  1.
         11    1    3    3    0    0  0.29913798412E+02 -0.98554720745E+01 -0.34495328177E+01  0.31683827766E+02  0.00000000000E+00 0. -1.
         -3    1    1    2    0  502  0.42787038887E+02 -0.14729003036E+03  0.12573607320E+03  0.19832963431E+03  0.00000000000E+00 0.  1.
<scales pt_clust_5="13000.00000" pt_clust_6="13000.00000" pt_clust_7="13000.00000" pt_clust_8="13000.00000" pt_clust_9="136.85026"></scales>
<clustering>
<clus scale="   80.030">  5  6 -1 -1</clus>
<clus scale="   91.692">  7  8 -1 -1</clus>
<clus scale="  107.581">  2  7  1 -1</clus>
<clus scale="  136.850">  1  9  2 -1</clus>
<clus scale="  136.850">  1  5  2 -1</clus>
</clustering>
</event>
<event>
 9    1  0.5981539E-005  0.1513781E+03  0.7546771E-02  0.1219006E+00
         21   -1    0    0  501  502  0.00000000000E+00  0.00000000000E+00  0.38173204492E+03  0.38173204492E+03  0.00000000000E+00 0. -1.
          1   -1    0    0  502    0 -0.00000000000E+00 -0.00000000000E+00 -0.23595080031E+03  0.23595080031E+03  0.00000000000E+00 0. -1.
        -24    2    1    2    0    0  0.48050793064E+02 -0.27481129701E+02 -0.14729406391E+03  0.17704091438E+03  0.81140944641E+02 0.  0.
         23    2    1    2    0    0  0.67751488799E+02 -0.39585059374E+02 -0.31511742058E+00  0.11817335216E+03  0.88360628686E+02 0.  0.
         13    1    3    3    0    0  0.44121041565E+02 -0.49322196245E+02 -0.13787260944E+03  0.15293201688E+03  0.00000000000E+00 0. -1.
        -14    1    3    3    0    0  0.39297514997E+01  0.21841066544E+02 -0.94214544707E+01  0.24108897506E+02  0.00000000000E+00 0.  1.
        -11    1    4    4    0    0  0.77720716435E+02 -0.35570878840E+01  0.12198710462E+02  0.78752594715E+02  0.00000000000E+00 0. -1.
         11    1    4    4    0    0 -0.99692276361E+01 -0.36027971490E+02 -0.12513827882E+02  0.39420757446E+02  0.00000000000E+00 0.  1.
          2    1    1    2  501    0 -0.11580228186E+03  0.67066189075E+02  0.29339042594E+03  0.32246857868E+03  0.00000000000E+00 0. -1.
<scales pt_clust_5="13000.00000" pt_clust_6="13000.00000" pt_clust_7="13000.00000" pt_clust_8="13000.00000" pt_clust_9="122.91350"></scales>
<clustering>
<clus scale="   81.141">  5  6 -1 -1</clus>
<clus scale="   88.361">  7  8 -1 -1</clus>
<clus scale="   98.224">  2  5  1 -1</clus>
<clus scale="  122.914">  1  9  2 -1</clus>
<clus scale="  122.914">  1  5  2 -1</clus>
</clustering>
</event>
<event>
 9    1  0.5981539E-005  0.1109569E+03  0.7546771E-02  0.1262938E+00
         21   -1    0    0  501  502  0.00000000000E+00  0.00000000000E+00  0.33909409782E+02  0.33909409782E+02  0.00000000000E+00 0.  1.
         -4   -1    0    0    0  501 -0.00000000000E+00 -0.00000000000E+00 -0.83813464384E+03  0.83813464384E+03  0.00000000000E+00 0.  1.
        -24    2    1    2    0    0  0.25198429809E+02  0.58630048780E+02 -0.69261419688E+03  0.70026133235E+03  0.81111431890E+02 0.  0.
         23    2    1    2    0    0 -0.37723776940E+02 -0.41801708124E+02 -0.10333171100E+03  0.14923001385E+03  0.91769757472E+02 0.  0.
         11    1    3    3    0    0 -0.28128623251E+02  0.33677956047E+02 -0.26387470788E+03  0.26749819743E+03  0.00000000000E+00 0. -1.
        -12    1    3    3    0    0  0.53327053060E+02  0.24952092733E+02 -0.42873948900E+03  0.43276313492E+03  0.00000000000E+00 0.  1.
        -13    1    4    4    0    0 -0.57035020181E+02 -0.38068055825E+01 -0.30362481291E+02  0.64725308543E+02  0.00000000000E+00 0.  1.
         13    1    4    4    0    0  0.19311243241E+02 -0.37994902542E+02 -0.72969229706E+02  0.84504705305E+02  0.00000000000E+00 0. -1.
         -3    1    1    2    0  502  0.12525347131E+02 -0.16828340656E+02 -0.82793261779E+01  0.22552707419E+02  0.00000000000E+00 0.  1.
<scales pt_clust_5="13000.00000" pt_clust_6="13000.00000" pt_clust_7="13000.00000" pt_clust_8="13000.00000" pt_clust_9="20.97802"></scales>
<clustering>
<clus scale="   20.978">  1  9  2 -1</clus>
<clus scale="   81.111">  5  6 -1 -1</clus>
<clus scale="   91.770">  7  8 -1 -1</clus>
<clus scale="  102.317">  2  5  1 -1</clus>
<clus scale="   20.978">  1  5  2 -1</clus>
</clustering>
</event>
<event>
 9    1  0.5981539E-005  0.9336956E+02  0.7546771E-02  0.1302360E+00
         21   -1    0    0  501  502  0.00000000000E+00  0.00000000000E+00  0.17304343171E+03  0.17304343171E+03  0.00000000000E+00 0.  1.
         -2   -1    0    0    0  501 -0.00000000000E+00 -0.00000000000E+00 -0.93345024967E+02  0.93345024967E+02  0.00000000000E+00 0.  1.
        -24    2    1    2    0    0 -0.11895261386E+01  0.27037992662E+02 -0.23811498291E+02  0.86142376710E+02  0.78237162492E+02 0.  0.
         23    2    1    2    0    0 -0.36568952537E+02 -0.12426535867E-02  0.87231318913E+02  0.13103550256E+03  0.90684682503E+02 0.  0.
         13    1    3    3    0    0  0.36521644406E+02  0.74718204692E+01  0.32578589060E+00  0.37279548652E+02  0.00000000000E+00 0. -1.
        -14    1    3    3    0    0 -0.37711170545E+02  0.19566172193E+02 -0.24137284182E+02  0.48862828058E+02  0.00000000000E+00 0.  1.
        -11    1    4    4    0    0  0.22540333373E+01 -0.40992587143E+02  0.31978616701E+02  0.52039454197E+02  0.00000000000E+00 0. -1.
         11    1    4    4    0    0 -0.38822985874E+02  0.40991344490E+02  0.55252702212E+02  0.78996048363E+02  0.00000000000E+00 0.  1.
         -1    1    1    2    0  502  0.37758478676E+02 -0.27036750008E+02  0.16278586126E+02  0.49210577412E+02  0.00000000000E+00 0.  1.
<scales pt_clust_5="13000.00000" pt_clust_6="13000.00000" pt_clust_7="13000.00000" pt_clust_8="13000.00000" pt_clust_9="46.44016"></scales>
<clustering>
<clus scale="   46.440">  1  9  2 -1</clus>
<clus scale="   78.237">  5  6 -1 -1</clus>
<clus scale="   81.334">  2  5  1 -1</clus>
<clus scale="   90.685">  7  8 -1 -1</clus>
<clus scale="   46.440">  1  5  2 -1</clus>
</clustering>
</event>
<event>
 9    1  0.5981539E-005  0.1018101E+03  0.7546771E-02  0.1280832E+00
         -2   -1    0    0    0  501 -0.00000000000E+00  0.00000000000E+00  0.14202723943E+03  0.14202723943E+03  0.00000000000E+00 0.  1.
         21   -1    0    0  501  502  0.00000000000E+00 -0.00000000000E+00 -0.15917812624E+03  0.15917812624E+03  0.00000000000E+00 0. -1.
        -24    2    1    2    0    0  0.54078023612E+01  0.24178866527E+02 -0.43429932475E+02  0.94809294662E+02  0.80552972674E+02 0.  0.
         23    2    1    2    0    0  0.31609179770E+02 -0.71487153111E+02 -0.31429266100E+02  0.12309793061E+03  0.89753821352E+02 0.  0.
         11    1    3    3    0    0 -0.89287467570E+01 -0.28386679860E+02 -0.16630596251E+02  0.34089629564E+02  0.00000000000E+00 0. -1.
        -12    1    3    3    0    0  0.14336549118E+02  0.52565546387E+02 -0.26799336224E+02  0.60719665098E+02  0.00000000000E+00 0.  1.
        -13    1    4    4    0    0 -0.10307357114E+02 -0.26990999924E+02 -0.51251452083E+02  0.58834233472E+02  0.00000000000E+00 0. -1.
         13    1    4    4    0    0  0.41916536884E+02 -0.44496153187E+02  0.19822185983E+02  0.64263697139E+02  0.00000000000E+00 0.  1.
         -1    1    1    2    0  502 -0.37016982132E+02  0.47308286584E+02  0.57708311770E+02  0.83298140393E+02  0.00000000000E+00 0.  1.
<scales pt_clust_5="13000.00000" pt_clust_6="13000.00000" pt_clust_7="13000.00000" pt_clust_8="13000.00000" pt_clust_9="60.06941"></scales>
<clustering>
<clus scale="   60.069">  2  9  1 -1</clus>
<clus scale="   80.553">  5  6 -1 -1</clus>
<clus scale="   89.754">  7  8 -1 -1</clus>
<clus scale="   93.799">  1  5  2 -1</clus>
<clus scale="   60.069">  2  5  1 -1</clus>
</clustering>
</event>
<event>
 9    1  0.5981539E-005  0.9804039E+02  0.7546771E-02  0.1291181E+00
         -2   -1    0    0    0  501 -0.00000000000E+00  0.00000000000E+00  0.22770757604E+03  0.22770757604E+03  0.00000000000E+00 0.  1.
         21   -1    0    0  501  502  0.00000000000E+00 -0.00000000000E+00 -0.13677682132E+03  0.13677682132E+03  0.00000000000E+00 0.  1.
        -24    2    1    2    0    0 -0.51031526456E+01 -0.27117575031E+02  0.10731147074E+03  0.13577281381E+03  0.78467191717E+02 0.  0.
         23    2    1    2    0    0  0.56818265221E+02  0.83512411094E+02 -0.50284377581E+02  0.14501995511E+03  0.91102308874E+02 0.  0.
         11    1    3    3    0    0 -0.17062639129E+02  0.22399218412E+02  0.59875524344E+02  0.66165981100E+02  0.00000000000E+00 0. -1.
        -12    1    3    3    0    0  0.11959486484E+02 -0.49516793442E+02  0.47435946392E+02  0.69606832710E+02  0.00000000000E+00 0.  1.
        -13    1    4    4    0    0 -0.22465997445E+02  0.26620911740E+02 -0.28564458362E+02  0.45047999563E+02  0.00000000000E+00 0. -1.
         13    1    4    4    0    0  0.79284262666E+02  0.56891499354E+02 -0.21719919219E+02  0.99971955548E+02  0.00000000000E+00 0.  1.
         -1    1    1    2    0  502 -0.51715112576E+02 -0.56394836063E+02  0.33903661561E+02  0.83691628437E+02  0.00000000000E+00 0.  1.
<scales pt_clust_5="13000.00000" pt_clust_6="13000.00000" pt_clust_7="13000.00000" pt_clust_8="13000.00000" pt_clust_9="76.51690"></scales>
<clustering>
<clus scale="   76.517">  2  9  1 -1</clus>
<clus scale="   78.467">  5  6 -1 -1</clus>
<clus scale="   86.426">  1  5  2 -1</clus>
<clus scale="   91.102">  7  8 -1 -1</clus>
<clus scale="   76.517">  2  5  1 -1</clus>
</clustering>
</event>
<event>
 9    1  0.5981539E-005  0.1682918E+03  0.7546771E-02  0.1182079E+00
          1   -1    0    0  502    0 -0.00000000000E+00  0.00000000000E+00  0.18206068912E+03  0.18206068912E+03  0.00000000000E+00 0. -1.
         21   -1    0    0  501  502  0.00000000000E+00 -0.00000000000E+00 -0.45716567742E+03  0.45716567742E+03  0.00000000000E+00 0. -1.
         23    2    1    2    0    0 -0.57872959096E+02 -0.12967769401E+03  0.87652129249E+02  0.19096511189E+03  0.92839616973E+02 0.  0.
        -24    2    1    2    0    0  0.10814014786E+02  0.14117732421E+03 -0.11897933178E+03  0.19971670217E+03  0.75383684891E+02 0.  0.
         11    1    4    4    0    0 -0.30454485301E+02  0.39335213641E+02 -0.28203242956E+02  0.57185291994E+02  0.00000000000E+00 0. -1.
        -12    1    4    4    0    0  0.41268500087E+02  0.10184211057E+03 -0.90776088821E+02  0.14253141018E+03  0.00000000000E+00 0.  1.
        -11    1    3    3    0    0  0.39052769284E+00 -0.34271552514E+02 -0.16622584388E+02  0.38092021938E+02  0.00000000000E+00 0.  1.
         11    1    3    3    0    0 -0.58263486788E+02 -0.95406141495E+02  0.10427471364E+03  0.15287308995E+03  0.00000000000E+00 0. -1.
          2    1    1    2  501    0  0.47058944310E+02 -0.11499630204E+02 -0.24377778577E+03  0.24854455248E+03  0.00000000000E+00 0. -1.
<scales pt_clust_5="13000.00000" pt_clust_6="13000.00000" pt_clust_7="13000.00000" pt_clust_8="13000.00000" pt_clust_9="48.44363"></scales>
<clustering>
<clus scale="   48.444">  2  9  1 -1</clus>
<clus scale="   75.384">  5  6 -1 -1</clus>
<clus scale="   92.840">  7  8 -1 -1</clus>
<clus scale="  159.329">  2  5  1 -1</clus>
<clus scale="   48.444">  2  5  1 -1</clus>
</clustering>
</event>
<event>
 9    1  0.5981539E-005  0.1439842E+03  0.7546771E-02  0.1215546E+00
         -2   -1    0    0    0  501 -0.00000000000E+00  0.00000000000E+00  0.48777619036E+03  0.48777619036E+03  0.00000000000E+00 0.  1.
         21   -1    0    0  501  502  0.00000000000E+00 -0.00000000000E+00 -0.49854002948E+02  0.49854002948E+02  0.00000000000E+00 0. -1.
         23    2    1    2    0    0  0.49420003418E+02 -0.86675213272E+02  0.30054783188E+03  0.33505942527E+03  0.10945725139E+03 0.  0.
        -24    2    1    2    0    0 -0.20318453204E+02  0.83074936872E+02  0.92606029136E+02  0.14905380565E+03  0.79541659957E+02 0.  0.
         13    1    4    4    0    0 -0.17609656558E+02  0.34262916922E+02 -0.60061821205E+01  0.38988738166E+02  0.00000000000E+00 0. -1.
        -14    1    4    4    0    0 -0.27087966456E+01  0.48812019951E+02  0.98612211256E+02  0.11006506748E+03  0.00000000000E+00 0.  1.
        -11    1    3    3    0    0  0.68247086227E+02 -0.11946150523E+02  0.11677052862E+03  0.13577824437E+03  0.00000000000E+00 0. -1.
         11    1    3    3    0    0 -0.18827082809E+02 -0.74729062749E+02  0.18377730327E+03  0.19928118090E+03  0.00000000000E+00 0.  1.
         -1    1    1    2    0  502 -0.29101550214E+02  0.36002763997E+01  0.44768326389E+02  0.53516962383E+02  0.00000000000E+00 0.  1.
<scales pt_clust_5="13000.00000" pt_clust_6="13000.00000" pt_clust_7="13000.00000" pt_clust_8="13000.00000" pt_clust_9="29.32342"></scales>
<clustering>
<clus scale="   29.323">  2  9  1 -1</clus>
<clus scale="   79.542">  5  6 -1 -1</clus>
<clus scale="  109.457">  7  8 -1 -1</clus>
<clus scale="  122.790">  2  5  1 -1</clus>
<clus scale="   29.323">  2  5  1 -1</clus>
</clustering>
</event>
<event>
 9    1  0.5981539E-005  0.1027193E+03  0.7546771E-02  0.1280514E+00
          1   -1    0    0  502    0 -0.00000000000E+00  0.00000000000E+00  0.22852676494E+03  0.22852676494E+03  0.00000000000E+00 0. -1.
         21   -1    0    0  501  502  0.00000000000E+00 -0.00000000000E+00 -0.14496421975E+03  0.14496421975E+03  0.00000000000E+00 0. -1.
        -24    2    1    2    0    0  0.32779041123E+02 -0.30911287152E+02  0.17344043551E+03  0.19630834847E+03  0.80158653919E+02 0.  0.
         23    2    1    2    0    0 -0.11002219609E+01  0.59418730196E+02 -0.60297381565E+02  0.12530558552E+03  0.92379216015E+02 0.  0.
         13    1    3    3    0    0  0.21117880098E+02 -0.52825640795E+02  0.15578096094E+03  0.16584396575E+03  0.00000000000E+00 0. -1.
        -14    1    3    3    0    0  0.11661161025E+02  0.21914353643E+02  0.17659474565E+02  0.30464382711E+02  0.00000000000E+00 0.  1.
        -11    1    4    4    0    0  0.24710415192E+02  0.59280345611E+02 -0.51665433107E+01  0.64431802431E+02  0.00000000000E+00 0. -1.
         11    1    4    4    0    0 -0.25810637153E+02  0.13838458555E+00 -0.55130838255E+02  0.60873783086E+02  0.00000000000E+00 0.  1.
          2    1    1    2  501    0 -0.31678819162E+02 -0.28507443044E+02 -0.29580508745E+02  0.51877050706E+02  0.00000000000E+00 0. -1.
<scales pt_clust_5="13000.00000" pt_clust_6="13000.00000" pt_clust_7="13000.00000" pt_clust_8="13000.00000" pt_clust_9="42.61715"></scales>
<clustering>
<clus scale="   42.617">  2  9  1 -1</clus>
<clus scale="   80.159">  5  6 -1 -1</clus>
<clus scale="   91.884">  1  5  2 -1</clus>
<clus scale="   92.379">  7  8 -1 -1</clus>
<clus scale="   42.617">  2  5  1 -1</clus>
</clustering>
</event>
<event>
 9    1  0.5981539E-005  0.9937367E+02  0.7546771E-02  0.1287578E+00
         -2   -1    0    0    0  501 -0.00000000000E+00  0.00000000000E+00  0.22002245205E+03  0.22002245205E+03  0.00000000000E+00 0.  1.
         21   -1    0    0  501  502  0.00000000000E+00 -0.00000000000E+00 -0.77078016026E+02  0.77078016026E+02  0.00000000000E+00 0.  1.
        -24    2    1    2    0    0  0.40234063944E+02  0.28409602125E+02  0.13092635221E+03  0.16090505098E+03  0.79516289724E+02 0.  0.
         23    2    1    2    0    0  0.47705644699E+00 -0.21926641743E+02  0.14509200315E+02  0.94896146399E+02  0.91179803173E+02 0.  0.
         11    1    3    3    0    0  0.52287032807E+02  0.14336619564E+02  0.38143794427E+02  0.66290433047E+02  0.00000000000E+00 0. -1.
        -12    1    3    3    0    0 -0.12052968863E+02  0.14072982561E+02  0.92782557786E+02  0.94614617929E+02  0.00000000000E+00 0.  1.
        -13    1    4    4    0    0 -0.42178400600E+02  0.29185442908E+01  0.16762818135E+02  0.45481066937E+02  0.00000000000E+00 0. -1.
         13    1    4    4    0    0  0.42655457047E+02 -0.24845186034E+02 -0.22536178200E+01  0.49415079462E+02  0.00000000000E+00 0.  1.
         -1    1    1    2    0  502 -0.40711120391E+02 -0.64829603812E+01 -0.24911165051E+01  0.41299270698E+02  0.00000000000E+00 0.  1.
<scales pt_clust_5="13000.00000" pt_clust_6="13000.00000" pt_clust_7="13000.00000" pt_clust_8="13000.00000" pt_clust_9="41.22407"></scales>
<clustering>
<clus scale="   41.224">  2  9  1 -1</clus>
<clus scale="   79.516">  5  6 -1 -1</clus>
<clus scale="   88.793">  1  5  2 -1</clus>
<clus scale="   91.180">  7  8 -1 -1</clus>
<clus scale="   41.224">  2  5  1 -1</clus>
</clustering>
</event>
<event>
 9    1  0.5981539E-005  0.1153077E+03  0.7546771E-02  0.1255405E+00
         -2   -1    0    0    0  501 -0.00000000000E+00  0.00000000000E+00  0.75710213854E+03  0.75710213854E+03  0.00000000000E+00 0.  1.
         21   -1    0    0  501  502  0.00000000000E+00 -0.00000000000E+00 -0.24910947540E+02  0.24910947540E+02  0.00000000000E+00 0.  1.
         23    2    1    2    0    0 -0.36174333672E+02 -0.56815002111E+02  0.39373582557E+03  0.40948987098E+03  0.90097320844E+02 0.  0.
        -24    2    1    2    0    0  0.60341516616E+02  0.56927238097E+02  0.18404109650E+03  0.21622915962E+03  0.77473319289E+02 0.  0.
         11    1    4    4    0    0  0.26675997981E+02 -0.16853420058E+02  0.64074598929E+02  0.71422691519E+02  0.00000000000E+00 0. -1.
        -12    1    4    4    0    0  0.33665518634E+02  0.73780658155E+02  0.11996649757E+03  0.14480646810E+03  0.00000000000E+00 0.  1.
        -13    1    3    3    0    0 -0.18938084520E+02 -0.80776407510E+02  0.28842697407E+03  0.30012263897E+03  0.00000000000E+00 0.  1.
         13    1    3    3    0    0 -0.17236249152E+02  0.23961405399E+02  0.10530885150E+03  0.10936723201E+03  0.00000000000E+00 0. -1.
         -1    1    1    2    0  502 -0.24167182944E+02 -0.11223598612E+00  0.15441426893E+03  0.15629405548E+03  0.00000000000E+00 0.  1.
<scales pt_clust_5="13000.00000" pt_clust_6="13000.00000" pt_clust_7="13000.00000" pt_clust_8="13000.00000" pt_clust_9="24.16746"></scales>
<clustering>
<clus scale="   24.167">  2  9  1 -1</clus>
<clus scale="   77.473">  5  6 -1 -1</clus>
<clus scale="   90.097">  7  8 -1 -1</clus>
<clus scale="  105.738">  2  5  1 -1</clus>
<clus scale="   24.167">  2  5  1 -1</clus>
</clustering>
</event>
<event>
 9    1  0.5981539E-005  0.9682935E+02  0.7546771E-02  0.1292484E+00
         -2   -1    0    0    0  501 -0.00000000000E+00  0.00000000000E+00  0.49304487220E+03  0.49304487220E+03  0.00000000000E+00 0.  1.
         21   -1    0    0  501  502  0.00000000000E+00 -0.00000000000E+00 -0.52172574605E+02  0.52172574605E+02  0.00000000000E+00 0.  1.
        -24    2    1    2    0    0 -0.24692552849E+02  0.82509317394E+01  0.20677832331E+03  0.22370647682E+03  0.81298909847E+02 0.  0.
         23    2    1    2    0    0  0.11534797073E+02 -0.48673679399E+02  0.25406861054E+03  0.27454171238E+03  0.91214660903E+02 0.  0.
         13    1    3    3    0    0  0.10043535469E+02  0.27032690356E+02  0.26536386958E+02  0.39189523924E+02  0.00000000000E+00 0. -1.
        -14    1    3    3    0    0 -0.34736088318E+02 -0.18781758617E+02  0.18024193635E+03  0.18451695290E+03  0.00000000000E+00 0.  1.
        -11    1    4    4    0    0  0.38821999353E+02 -0.60106805644E+02  0.14745553416E+03  0.16389969576E+03  0.00000000000E+00 0.  1.
         11    1    4    4    0    0 -0.27287202280E+02  0.11433126246E+02  0.10661307639E+03  0.11064201662E+03  0.00000000000E+00 0. -1.
         -1    1    1    2    0  502  0.13157755777E+02  0.40422747659E+02 -0.19974636260E+02  0.46969257596E+02  0.00000000000E+00 0.  1.
<scales pt_clust_5="13000.00000" pt_clust_6="13000.00000" pt_clust_7="13000.00000" pt_clust_8="13000.00000" pt_clust_9="42.51029"></scales>
<clustering>
<clus scale="   42.510">  2  9  1 -1</clus>
<clus scale="   81.299">  5  6 -1 -1</clus>
<clus scale="   87.552">  1  5  2 -1</clus>
<clus scale="   91.215">  7  8 -1 -1</clus>
<clus scale="   42.510">  2  5  1 -1</clus>
</clustering>
</event>
<event>
 9    1  0.5981539E-005  0.1416119E+03  0.7546771E-02  0.1235354E+00
          1   -1    0    0  502    0 -0.00000000000E+00  0.00000000000E+00  0.43730642328E+03  0.43730642328E+03  0.00000000000E+00 0. -1.
         21   -1    0    0  501  502  0.00000000000E+00 -0.00000000000E+00 -0.69284377845E+02  0.69284377845E+02  0.00000000000E+00 0.  1.
         23    2    1    2    0    0 -0.95719572048E+01 -0.11459483955E+02  0.79039123922E+02  0.11641437608E+03  0.84155699221E+02 0.  0.
        -24    2    1    2    0    0  0.11838464955E+03 -0.22339675300E+02  0.12776925075E+03  0.19276205671E+03  0.79487374647E+02 0.  0.
         11    1    4    4    0    0  0.10447667064E+03  0.23630967797E+01  0.12691125416E+03  0.16440019880E+03  0.00000000000E+00 0. -1.
        -12    1    4    4    0    0  0.13907978911E+02 -0.24702772080E+02  0.85799659203E+00  0.28361857908E+02  0.00000000000E+00 0.  1.
        -11    1    3    3    0    0  0.16976681725E+02  0.10579480196E+02  0.79427767154E+02  0.81907895338E+02  0.00000000000E+00 0.  1.
         11    1    3    3    0    0 -0.26548638930E+02 -0.22038964151E+02 -0.38864323166E+00  0.34506480746E+02  0.00000000000E+00 0. -1.
          2    1    1    2  501    0 -0.10881269235E+03  0.33799159256E+02  0.16121367077E+03  0.19741436833E+03  0.00000000000E+00 0. -1.
<scales pt_clust_5="13000.00000" pt_clust_6="13000.00000" pt_clust_7="13000.00000" pt_clust_8="13000.00000" pt_clust_9="117.19936"></scales>
<clustering>
<clus scale="   79.487">  5  6 -1 -1</clus>
<clus scale="   84.156">  7  8 -1 -1</clus>
<clus scale="   85.470">  1  7  2 -1</clus>
<clus scale="  117.199">  2  9  1 -1</clus>
<clus scale="  117.199">  2  5  1 -1</clus>
</clustering>
</event>
<event>
 9    1  0.5981539E-005  0.1866760E+03  0.7546771E-02  0.1181609E+00
         -4   -1    0    0    0  501 -0.00000000000E+00  0.00000000000E+00  0.13066412493E+03  0.13066412493E+03  0.00000000000E+00 0.  1.
         21   -1    0    0  501  502  0.00000000000E+00 -0.00000000000E+00 -0.53505382603E+03  0.53505382603E+03  0.00000000000E+00 0.  1.
        -24    2    1    2    0    0  0.79002632399E+02  0.34498097046E+02 -0.13394521749E+02  0.11873292326E+03  0.80539178212E+02 0.  0.
         23    2    1    2    0    0  0.82811291498E+02 -0.10403817203E+03 -0.64538578346E+02  0.17604907590E+03  0.95636801444E+02 0.  0.
         11    1    3    3    0    0  0.31497509980E+01  0.27435338434E+02 -0.29987283299E+02  0.40765866678E+02  0.00000000000E+00 0. -1.
        -12    1    3    3    0    0  0.75852881401E+02  0.70627586115E+01  0.16592761550E+02  0.77967056581E+02  0.00000000000E+00 0.  1.
        -13    1    4    4    0    0  0.21367823000E+02  0.17026102548E+02 -0.17120112450E+02  0.32242367749E+02  0.00000000000E+00 0. -1.
         13    1    4    4    0    0  0.61443468498E+02 -0.12106427458E+03 -0.47418465896E+02  0.14380670815E+03  0.00000000000E+00 0.  1.
         -3    1    1    2    0  502 -0.16181392390E+03  0.69540074989E+02 -0.32645660100E+03  0.37093595180E+03  0.00000000000E+00 0.  1.
<scales pt_clust_5="13000.00000" pt_clust_6="13000.00000" pt_clust_7="13000.00000" pt_clust_8="13000.00000" pt_clust_9="160.31701"></scales>
<clustering>
<clus scale="   80.539">  5  6 -1 -1</clus>
<clus scale="   95.637">  7  8 -1 -1</clus>
<clus scale="  117.975">  1  5  2 -1</clus>
<clus scale="  160.317">  2  9  1 -1</clus>
<clus scale="  160.317">  2  5  1 -1</clus>
</clustering>
</event>
<event>
 9    1  0.5981539E-005  0.1027801E+03  0.7546771E-02  0.1279052E+00
         21   -1    0    0  501  502  0.00000000000E+00  0.00000000000E+00  0.10192745403E+03  0.10192745403E+03  0.00000000000E+00 0. -1.
          1   -1    0    0  502    0 -0.00000000000E+00 -0.00000000000E+00 -0.26937898653E+03  0.26937898653E+03  0.00000000000E+00 0. -1.
        -24    2    1    2    0    0  0.76965524947E+02  0.11677006496E+02 -0.11104447921E+03  0.15763060907E+03  0.80352274640E+02 0.  0.
         23    2    1    2    0    0  0.18359173275E+02 -0.50108107501E+02 -0.25326328076E+02  0.10629911570E+03  0.88375321352E+02 0.  0.
         13    1    3    3    0    0  0.62300139301E+02 -0.20331097288E+02 -0.10207005902E+03  0.12129698192E+03  0.00000000000E+00 0. -1.
        -14    1    3    3    0    0  0.14665385646E+02  0.32008103785E+02 -0.89744201935E+01  0.36333627149E+02  0.00000000000E+00 0.  1.
        -13    1    4    4    0    0 -0.15002681130E+02 -0.62989523059E+02 -0.27766122476E+02  0.70453658625E+02  0.00000000000E+00 0. -1.
         13    1    4    4    0    0  0.33361854405E+02  0.12881415559E+02  0.24397944002E+01  0.35845457074E+02  0.00000000000E+00 0.  1.
          2    1    1    2  501    0 -0.95324698222E+02  0.38431101005E+02 -0.31080725208E+02  0.10737671580E+03  0.00000000000E+00 0. -1.
<scales pt_clust_5="13000.00000" pt_clust_6="13000.00000" pt_clust_7="13000.00000" pt_clust_8="13000.00000" pt_clust_9="102.78009"></scales>
<clustering>
<clus scale="   80.352">  5  6 -1 -1</clus>
<clus scale="   88.375">  7  8 -1 -1</clus>
<clus scale="  102.780">  1  9  2 -1</clus>
<clus scale="   94.310">  2  5  1 -1</clus>
<clus scale="  102.780">  1  5  2 -1</clus>
</clustering>
</event>
<event>
 9    1  0.5981539E-005  0.1120772E+03  0.7546771E-02  0.1261184E+00
         -2   -1    0    0    0  501 -0.00000000000E+00  0.00000000000E+00  0.18957850599E+03  0.18957850599E+03  0.00000000000E+00 0.  1.
         21   -1    0    0  501  502  0.00000000000E+00 -0.00000000000E+00 -0.10426323630E+03  0.10426323630E+03  0.00000000000E+00 0.  1.
         23    2    1    2    0    0 -0.66313260801E+02 -0.23557939682E+01  0.40717393999E+02  0.12108028286E+03  0.92733653012E+02 0.  0.
        -24    2    1    2    0    0  0.50265052328E+02  0.45140787029E+02 -0.44378254425E+01  0.10573459457E+03  0.81214801944E+02 0.  0.
         13    1    4    4    0    0  0.43661322253E+02  0.60688950127E+02  0.18719624231E+02  0.77070643306E+02  0.00000000000E+00 0. -1.
        -14    1    4    4    0    0  0.66037300754E+01 -0.15548163097E+02 -0.23157449673E+02  0.28663951262E+02  0.00000000000E+00 0.  1.
        -13    1    3    3    0    0 -0.20454658115E+02  0.35446303052E+02  0.45814634906E+02  0.61431378059E+02  0.00000000000E+00 0.  1.
         13    1    3    3    0    0 -0.45858602686E+02 -0.37802097021E+02 -0.50972409070E+01  0.59648904804E+02  0.00000000000E+00 0. -1.
         -1    1    1    2    0  502  0.16048208473E+02 -0.42784993061E+02  0.49035701137E+02  0.67026864856E+02  0.00000000000E+00 0.  1.
<scales pt_clust_5="13000.00000" pt_clust_6="13000.00000" pt_clust_7="13000.00000" pt_clust_8="13000.00000" pt_clust_9="45.69576"></scales>
<clustering>
<clus scale="   45.696">  2  9  1 -1</clus>
<clus scale="   81.215">  5  6 -1 -1</clus>
<clus scale="   92.734">  7  8 -1 -1</clus>
<clus scale="  102.750">  2  5  1 -1</clus>
<clus scale="   45.696">  2  5  1 -1</clus>
</clustering>
</event>
<event>
 9    1  0.5981539E-005  0.1512313E+03  0.7546771E-02  0.1200784E+00
          1   -1    0    0  502    0 -0.00000000000E+00  0.00000000000E+00  0.36524736140E+03  0.36524736140E+03  0.00000000000E+00 0. -1.
         21   -1    0    0  501  502  0.00000000000E+00 -0.00000000000E+00 -0.40686263939E+03  0.40686263939E+03  0.00000000000E+00 0. -1.
         23    2    1    2    0    0  0.10221865520E+03 -0.37915559077E+02  0.23144099227E+03  0.27193699786E+03  0.92187606602E+02 0.  0.
        -24    2    1    2    0    0 -0.21563416506E+03 -0.33211428796E+02 -0.47609292468E+02  0.23797371597E+03  0.82242036819E+02 0.  0.
         11    1    4    4    0    0 -0.18322184042E+03  0.41608824890E+01 -0.31566355289E+02  0.18596771370E+03  0.00000000000E+00 0. -1.
        -12    1    4    4    0    0 -0.32412324631E+02 -0.37372311285E+02 -0.16042937179E+02  0.52006002270E+02  0.00000000000E+00 0.  1.
        -13    1    3    3    0    0  0.11608164355E+02 -0.31255881188E+02  0.13784309367E+02  0.36078896508E+02  0.00000000000E+00 0.  1.
         13    1    3    3    0    0  0.90610490846E+02 -0.66596778894E+01  0.21765668291E+03  0.23585810136E+03  0.00000000000E+00 0. -1.
          2    1    1    2  501    0  0.11341550985E+03  0.71126987873E+02 -0.22544697781E+03  0.26219928696E+03  0.00000000000E+00 0. -1.
<scales pt_clust_5="13000.00000" pt_clust_6="13000.00000" pt_clust_7="13000.00000" pt_clust_8="13000.00000" pt_clust_9="133.87355"></scales>
<clustering>
<clus scale="   82.242">  5  6 -1 -1</clus>
<clus scale="   92.188">  7  8 -1 -1</clus>
<clus scale="  133.874">  2  9  1 -1</clus>
<clus scale="  145.383">  2  5  1 -1</clus>
<clus scale="  133.874">  2  5  1 -1</clus>
</clustering>
</event>
<event>
 9    1  0.5981539E-005  0.3457807E+03  0.7546771E-02  0.1064681E+00
          1   -1    0    0  502    0 -0.00000000000E+00  0.00000000000E+00  0.18463529570E+04  0.18463529570E+04  0.00000000000E+00 0. -1.
         21   -1    0    0  501  502  0.00000000000E+00 -0.00000000000E+00 -0.93112417030E+02  0.93112417030E+02  0.00000000000E+00 0. -1.
        -24    2    1    2    0    0  0.20552591177E+03 -0.27101698115E+03  0.13583903631E+04  0.14025453560E+04  0.78854248810E+02 0.  0.
         23    2    1    2    0    0 -0.20037951593E+03  0.24390938900E+03  0.38808819078E+03  0.50851172002E+03  0.91257794907E+02 0.  0.
         11    1    3    3    0    0  0.18917144367E+03 -0.26850272557E+03  0.12302052873E+04  0.12732967438E+04  0.00000000000E+00 0. -1.
        -12    1    3    3    0    0  0.16354468094E+02 -0.25142555794E+01  0.12818507574E+03  0.12924861218E+03  0.00000000000E+00 0.  1.
        -11    1    4    4    0    0 -0.38868237864E+01  0.45150469442E+02  0.30360950311E+02  0.54547773500E+02  0.00000000000E+00 0.  1.
         11    1    4    4    0    0 -0.19649269214E+03  0.19875891956E+03  0.35772724047E+03  0.45396394652E+03  0.00000000000E+00 0. -1.
          2    1    1    2  501    0 -0.51463958394E+01  0.27107592146E+02  0.67619861234E+01  0.28408298055E+02  0.00000000000E+00 0. -1.
<scales pt_clust_5="13000.00000" pt_clust_6="13000.00000" pt_clust_7="13000.00000" pt_clust_8="13000.00000" pt_clust_9="27.59179"></scales>
<clustering>
<clus scale="   27.592">  2  9  1 -1</clus>
<clus scale="   78.854">  5  6 -1 -1</clus>
<clus scale="   91.258">  7  8 -1 -1</clus>
<clus scale="  342.716">  1  5  2 -1</clus>
<clus scale="   27.592">  2  5  1 -1</clus>
</clustering>
</event>
<event>
 9    1  0.5981539E-005  0.2346768E+03  0.7546771E-02  0.1124007E+00
         21   -1    0    0  501  502  0.00000000000E+00  0.00000000000E+00  0.86881974972E+02  0.86881974972E+02  0.00000000000E+00 0. -1.
          1   -1    0    0  502    0 -0.00000000000E+00 -0.00000000000E+00 -0.13274980957E+04  0.13274980957E+04  0.00000000000E+00 0. -1.
         23    2    1    2    0    0 -0.26597545525E+02  0.17213344795E+03 -0.44268091578E+03  0.48413688046E+03  0.89915362967E+02 0.  0.
        -24    2    1    2    0    0  0.87265497874E+01 -0.31825438315E+03 -0.50391298393E+03  0.60142748705E+03  0.80154361933E+02 0.  0.
         11    1    4    4    0    0 -0.29553886906E+02 -0.20720899398E+03 -0.35008362361E+03  0.40788177569E+03  0.00000000000E+00 0. -1.
        -12    1    4    4    0    0  0.38280436693E+02 -0.11104538917E+03 -0.15382936032E+03  0.19354571136E+03  0.00000000000E+00 0.  1.
        -13    1    3    3    0    0 -0.58967385146E+02  0.11302999950E+03 -0.26397987882E+03  0.29315236604E+03  0.00000000000E+00 0.  1.
         13    1    3    3    0    0  0.32369839620E+02  0.59103448456E+02 -0.17870103696E+03  0.19098451442E+03  0.00000000000E+00 0. -1.
          2    1    1    2  501    0  0.17870995738E+02  0.14612093519E+03 -0.29402222098E+03  0.32881570312E+03  0.00000000000E+00 0. -1.
<scales pt_clust_5="13000.00000" pt_clust_6="13000.00000" pt_clust_7="13000.00000" pt_clust_8="13000.00000" pt_clust_9="147.20979"></scales>
<clustering>
<clus scale="   80.154">  5  6 -1 -1</clus>
<clus scale="   89.915">  7  8 -1 -1</clus>
<clus scale="  147.210">  1  9  2 -1</clus>
<clus scale="  231.113">  1  5  2 -1</clus>
<clus scale="  147.210">  1  5  2 -1</clus>
</clustering>
</event>
<event>
 9    1  0.5981539E-005  0.2108727E+03  0.7546771E-02  0.1157589E+00
         21   -1    0    0  501  502  0.00000000000E+00  0.00000000000E+00  0.22008285703E+03  0.22008285703E+03  0.00000000000E+00 0. -1.
          1   -1    0    0  502    0 -0.00000000000E+00 -0.00000000000E+00 -0.49054752031E+03  0.49054752031E+03  0.00000000000E+00 0. -1.
         23    2    1    2    0    0 -0.91999615559E+02  0.58674596892E+02  0.73493872585E+02  0.15975197450E+03  0.90623983946E+02 0.  0.
        -24    2    1    2    0    0 -0.13681652431E+03 -0.15127655776E+02 -0.25746639003E+03  0.30241501874E+03  0.78856161914E+02 0.  0.
         11    1    4    4    0    0 -0.12898381463E+03 -0.25675823366E+02 -0.17500113842E+03  0.21890973206E+03  0.00000000000E+00 0. -1.
        -12    1    4    4    0    0 -0.78327096777E+01  0.10548167590E+02 -0.82465251618E+02  0.83505286688E+02  0.00000000000E+00 0.  1.
        -11    1    3    3    0    0 -0.79555651459E+02  0.37260792943E+02  0.62259066800E+01  0.88069462833E+02  0.00000000000E+00 0.  1.
         11    1    3    3    0    0 -0.12443964100E+02  0.21413803950E+02  0.67267965905E+02  0.71682511669E+02  0.00000000000E+00 0. -1.
          2    1    1    2  501    0  0.22881613987E+03 -0.43546941116E+02 -0.86492145838E+02  0.24846338409E+03  0.00000000000E+00 0. -1.
<scales pt_clust_5="13000.00000" pt_clust_6="13000.00000" pt_clust_7="13000.00000" pt_clust_8="13000.00000" pt_clust_9="195.57349"></scales>
<clustering>
<clus scale="   78.856">  5  6 -1 -1</clus>
<clus scale="   90.624">  7  8 -1 -1</clus>
<clus scale="  141.843">  2  7  1 -1</clus>
<clus scale="  195.573">  1  9  2 -1</clus>
<clus scale="  195.573">  1  5  2 -1</clus>
</clustering>
</event>
<event>
 9    1  0.5981539E-005  0.1155294E+03  0.7546771E-02  0.1254414E+00
         21   -1    0    0  501  502  0.00000000000E+00  0.00000000000E+00  0.20412152964E+03  0.20412152964E+03  0.00000000000E+00 0. -1.
          1   -1    0    0  502    0 -0.00000000000E+00 -0.00000000000E+00 -0.29207100846E+03  0.29207100846E+03  0.00000000000E+00 0. -1.
         23    2    1    2    0    0  0.52574816113E+01 -0.80243866910E+02 -0.20186233451E+03  0.23535573111E+03  0.90427865077E+02 0.  0.
        -24    2    1    2    0    0  0.23070449506E+01  0.55552850257E+02 -0.39862807717E+02  0.10490790325E+03  0.79531019713E+02 0.  0.
         13    1    4    4    0    0  0.34670199338E+02  0.50867992473E+02 -0.37589100301E+02  0.72128467624E+02  0.00000000000E+00 0. -1.
        -14    1    4    4    0    0 -0.32363154387E+02  0.46848577838E+01 -0.22737074157E+01  0.32779435623E+02  0.00000000000E+00 0.  1.
        -11    1    3    3    0    0 -0.26420808097E+02 -0.24620688129E+02 -0.17370297593E+02  0.40074488430E+02  0.00000000000E+00 0.  1.
         11    1    3    3    0    0  0.31678289708E+02 -0.55623178782E+02 -0.18449203692E+03  0.19528124268E+03  0.00000000000E+00 0. -1.
          2    1    1    2  501    0 -0.75645265619E+01  0.24691016654E+02  0.15377566341E+03  0.15592890374E+03  0.00000000000E+00 0. -1.
<scales pt_clust_5="13000.00000" pt_clust_6="13000.00000" pt_clust_7="13000.00000" pt_clust_8="13000.00000" pt_clust_9="25.82379"></scales>
<clustering>
<clus scale="   25.824">  1  9  2 -1</clus>
<clus scale="   79.531">  5  6 -1 -1</clus>
<clus scale="   90.428">  7  8 -1 -1</clus>
<clus scale="  107.215">  1  5  2 -1</clus>
<clus scale="   25.824">  1  5  2 -1</clus>
</clustering>
</event>
<event>
 9    1  0.5981539E-005  0.9651533E+02  0.7546771E-02  0.1294304E+00
         21   -1    0    0  501  502  0.00000000000E+00  0.00000000000E+00  0.43479859160E+02  0.43479859160E+02  0.00000000000E+00 0.  1.
          1   -1    0    0  502    0 -0.00000000000E+00 -0.00000000000E+00 -0.39484176894E+03  0.39484176894E+03  0.00000000000E+00 0. -1.
         23    2    1    2    0    0  0.27354184405E+02 -0.13349540979E+02 -0.29743230096E+03  0.31267711807E+03  0.91512539379E+02 0.  0.
        -24    2    1    2    0    0 -0.36279029834E+02 -0.51621684516E+01 -0.27146161231E+02  0.91885225130E+02  0.79769446148E+02 0.  0.
         11    1    4    4    0    0  0.22959409991E+01  0.32620268830E+02 -0.33289676105E+01  0.32869975798E+02  0.00000000000E+00 0. -1.
        -12    1    4    4    0    0 -0.38574970833E+02 -0.37782437282E+02 -0.23817193621E+02  0.59015249332E+02  0.00000000000E+00 0.  1.
        -11    1    3    3    0    0  0.30935876312E+02  0.25693124465E+02 -0.23868199425E+03  0.24204598627E+03  0.00000000000E+00 0. -1.
         11    1    3    3    0    0 -0.35816919070E+01 -0.39042665444E+02 -0.58750306706E+02  0.70631131804E+02  0.00000000000E+00 0.  1.
          2    1    1    2  501    0  0.89248454285E+01  0.18511709431E+02 -0.26783447588E+02  0.33759284896E+02  0.00000000000E+00 0. -1.
<scales pt_clust_5="13000.00000" pt_clust_6="13000.00000" pt_clust_7="13000.00000" pt_clust_8="13000.00000" pt_clust_9="20.55082"></scales>
<clustering>
<clus scale="   20.551">  1  9  2 -1</clus>
<clus scale="   79.769">  5  6 -1 -1</clus>
<clus scale="   85.462">  1  5  2 -1</clus>
<clus scale="   91.513">  7  8 -1 -1</clus>
<clus scale="   20.551">  1  5  2 -1</clus>
</clustering>
</event>
<event>
 9    1  0.5981539E-005  0.1719277E+03  0.7546771E-02  0.1177843E+00
          1   -1    0    0  502    0 -0.00000000000E+00  0.00000000000E+00  0.16686863994E+03  0.16686863994E+03  0.00000000000E+00 0. -1.
         21   -1    0    0  501  502  0.00000000000E+00 -0.00000000000E+00 -0.42068243414E+03  0.42068243414E+03  0.00000000000E+00 0. -1.
         23    2    1    2    0    0 -0.13252716667E+03 -0.43668284953E+02  0.38529943709E+01  0.16544521372E+03  0.88808243764E+02 0.  0.
        -24    2    1    2    0    0  0.18817598893E+03 -0.57469801209E+02 -0.21091873335E+03  0.29756235567E+03  0.73100359626E+02 0.  0.
         11    1    4    4    0    0  0.19324200387E+03 -0.62084787438E+02 -0.20536305357E+03  0.28874032739E+03  0.00000000000E+00 0. -1.
        -12    1    4    4    0    0 -0.50660149391E+01  0.46149862293E+01 -0.55556797813E+01  0.88220282868E+01  0.00000000000E+00 0.  1.
        -13    1    3    3    0    0 -0.10439711484E+03 -0.41932864688E+02  0.40183327128E+02  0.11946473332E+03  0.00000000000E+00 0. -1.
         13    1    3    3    0    0 -0.28130051828E+02 -0.17354202650E+01 -0.36330332758E+02  0.45980480398E+02  0.00000000000E+00 0.  1.
          2    1    1    2  501    0 -0.55648822255E+02  0.10113808616E+03 -0.46748055225E+02  0.12454350468E+03  0.00000000000E+00 0. -1.
<scales pt_clust_5="13000.00000" pt_clust_6="13000.00000" pt_clust_7="13000.00000" pt_clust_8="13000.00000" pt_clust_9="115.43707"></scales>
<clustering>
<clus scale="   73.100">  5  6 -1 -1</clus>
<clus scale="   88.808">  7  8 -1 -1</clus>
<clus scale="  115.437">  2  9  1 -1</clus>
<clus scale="  164.365">  2  5  1 -1</clus>
<clus scale="  115.437">  2  5  1 -1</clus>
</clustering>
</event>
<event>
 9    1  0.5981539E-005  0.1018749E+03  0.7546771E-02  0.1281199E+00
         21   -1    0    0  501  502  0.00000000000E+00  0.00000000000E+00  0.65768608930E+03  0.65768608930E+03  0.00000000000E+00 0.  1.
          1   -1    0    0  502    0 -0.00000000000E+00 -0.00000000000E+00 -0.59644435695E+02  0.59644435695E+02  0.00000000000E+00 0. -1.
         23    2    1    2    0    0  0.10114284419E+02 -0.48556000492E+02  0.23845579578E+02  0.10369954729E+03  0.87891982058E+02 0.  0.
        -24    2    1    2    0    0  0.17631263714E+02  0.72759554659E+02  0.56568374078E+03  0.57584093546E+03  0.77394277005E+02 0.  0.
         11    1    4    4    0    0  0.26937662804E+02  0.42493157285E+02  0.13626851411E+03  0.14525981561E+03  0.00000000000E+00 0. -1.
        -12    1    4    4    0    0 -0.93063990900E+01  0.30266397374E+02  0.42941522667E+03  0.43058111985E+03  0.00000000000E+00 0.  1.
        -11    1    3    3    0    0  0.24265076004E+02  0.95197751162E+01 -0.17164023888E+02  0.31209353531E+02  0.00000000000E+00 0.  1.
         11    1    3    3    0    0 -0.14150791586E+02 -0.58075775608E+02  0.41009603467E+02  0.72490193761E+02  0.00000000000E+00 0. -1.
          2    1    1    2  501    0 -0.27745548132E+02 -0.24203554166E+02  0.85123332444E+01  0.37790042243E+02  0.00000000000E+00 0. -1.
<scales pt_clust_5="13000.00000" pt_clust_6="13000.00000" pt_clust_7="13000.00000" pt_clust_8="13000.00000" pt_clust_9="36.81887"></scales>
<clustering>
<clus scale="   36.819">  1  9  2 -1</clus>
<clus scale="   77.394">  5  6 -1 -1</clus>
<clus scale="   87.892">  7  8 -1 -1</clus>
<clus scale="   92.970">  1  5  2 -1</clus>
<clus scale="   36.819">  1  5  2 -1</clus>
</clustering>
</event>
<event>
 9    1  0.5981539E-005  0.1644294E+03  0.7546771E-02  0.1185063E+00
          1   -1    0    0  502    0 -0.00000000000E+00  0.00000000000E+00  0.35504258737E+03  0.35504258737E+03  0.00000000000E+00 0. -1.
         21   -1    0    0  501  502  0.00000000000E+00 -0.00000000000E+00 -0.22607431225E+03  0.22607431225E+03  0.00000000000E+00 0.  1.
        -24    2    1    2    0    0 -0.90857852985E+02 -0.10127805337E+03  0.27158593934E+03  0.31420144557E+03  0.80319564286E+02 0.  0.
         23    2    1    2    0    0  0.83839592733E+02  0.12727766841E+03 -0.70846933974E+02  0.19025859735E+03  0.89164811596E+02 0.  0.
         11    1    3    3    0    0 -0.80153611290E+02 -0.49237377214E+02  0.22370878320E+03  0.24268197378E+03  0.00000000000E+00 0. -1.
        -12    1    3    3    0    0 -0.10704241695E+02 -0.52040676155E+02  0.47877156149E+02  0.71519471795E+02  0.00000000000E+00 0.  1.
        -13    1    4    4    0    0  0.94416178119E+02  0.77000585470E+02 -0.66235340868E+02  0.13867452986E+03  0.00000000000E+00 0.  1.
         13    1    4    4    0    0 -0.10576585386E+02  0.50277082942E+02 -0.46115931055E+01  0.51584067487E+02  0.00000000000E+00 0. -1.
          2    1    1    2  501    0  0.70182602523E+01 -0.25999615043E+02 -0.71770730250E+02  0.76656856705E+02  0.00000000000E+00 0. -1.
<scales pt_clust_5="13000.00000" pt_clust_6="13000.00000" pt_clust_7="13000.00000" pt_clust_8="13000.00000" pt_clust_9="26.93021"></scales>
<clustering>
<clus scale="   26.930">  2  9  1 -1</clus>
<clus scale="   80.320">  5  6 -1 -1</clus>
<clus scale="   89.165">  7  8 -1 -1</clus>
<clus scale="  159.806">  1  5  2 -1</clus>
<clus scale="   26.930">  2  5  1 -1</clus>
</clustering>
</event>
<event>
 9    1  0.5981539E-005  0.9422340E+02  0.7546771E-02  0.1298852E+00
         21   -1    0    0  501  502  0.00000000000E+00  0.00000000000E+00  0.49292454830E+02  0.49292454830E+02  0.00000000000E+00 0. -1.
          3   -1    0    0  502    0 -0.00000000000E+00 -0.00000000000E+00 -0.28596508578E+03  0.28596508578E+03  0.00000000000E+00 0. -1.
         23    2    1    2    0    0  0.43741254658E+02 -0.15524939892E+02 -0.17559182710E+03  0.20184131837E+03  0.88051728763E+02 0.  0.
        -24    2    1    2    0    0 -0.84908672937E+01 -0.17513132858E+01 -0.30741387425E+02  0.83802323764E+02  0.77476671598E+02 0.  0.
         13    1    4    4    0    0  0.18550502410E+02  0.30016881225E+02 -0.76018620797E+01  0.36096019243E+02  0.00000000000E+00 0. -1.
        -14    1    4    4    0    0 -0.27041369704E+02 -0.31768194510E+02 -0.23139525345E+02  0.47706304521E+02  0.00000000000E+00 0.  1.
        -13    1    3    3    0    0  0.69364462688E+02 -0.20957229617E+01 -0.13739385905E+03  0.15392495978E+03  0.00000000000E+00 0. -1.
         13    1    3    3    0    0 -0.25623208030E+02 -0.13429216930E+02 -0.38197968053E+02  0.47916358589E+02  0.00000000000E+00 0.  1.
          4    1    1    2  501    0 -0.35250387364E+02  0.17276253178E+02 -0.30339416423E+02  0.49613898477E+02  0.00000000000E+00 0. -1.
<scales pt_clust_5="13000.00000" pt_clust_6="13000.00000" pt_clust_7="13000.00000" pt_clust_8="13000.00000" pt_clust_9="39.25632"></scales>
<clustering>
<clus scale="   39.256">  1  9  2 -1</clus>
<clus scale="   77.477">  5  6 -1 -1</clus>
<clus scale="   84.425">  1  5  2 -1</clus>
<clus scale="   88.052">  7  8 -1 -1</clus>
<clus scale="   39.256">  1  5  2 -1</clus>
</clustering>
</event>
<event>
 9    1  0.5981539E-005  0.1163178E+03  0.7546771E-02  0.1252142E+00
         21   -1    0    0  501  502  0.00000000000E+00  0.00000000000E+00  0.22286530166E+03  0.22286530166E+03  0.00000000000E+00 0.  1.
          1   -1    0    0  502    0 -0.00000000000E+00 -0.00000000000E+00 -0.13126080108E+03  0.13126080108E+03  0.00000000000E+00 0. -1.
         23    2    1    2    0    0 -0.65025435192E+02  0.36325335751E+02 -0.79007117879E+02  0.14215913688E+03  0.91756516294E+02 0.  0.
        -24    2    1    2    0    0  0.53098731372E+02 -0.18025120163E+02  0.15629349972E+03  0.18584891312E+03  0.83473230584E+02 0.  0.
         13    1    4    4    0    0  0.20637510661E+02  0.49806559683E+01 -0.31981209204E+01  0.21469554200E+02  0.00000000000E+00 0. -1.
        -14    1    4    4    0    0  0.32461220712E+02 -0.23005776131E+02  0.15949162064E+03  0.16437935892E+03  0.00000000000E+00 0.  1.
        -11    1    3    3    0    0 -0.55718861584E+02  0.10440927085E+02  0.18831934378E+01  0.56719933993E+02  0.00000000000E+00 0.  1.
         11    1    3    3    0    0 -0.93065736078E+01  0.25884408666E+02 -0.80890311317E+02  0.85439202883E+02  0.00000000000E+00 0. -1.
          2    1    1    2  501    0  0.11926703820E+02 -0.18300215589E+02  0.14318118739E+02  0.26118052738E+02  0.00000000000E+00 0. -1.
<scales pt_clust_5="13000.00000" pt_clust_6="13000.00000" pt_clust_7="13000.00000" pt_clust_8="13000.00000" pt_clust_9="21.84363"></scales>
<clustering>
<clus scale="   21.844">  1  9  2 -1</clus>
<clus scale="   83.473">  5  6 -1 -1</clus>
<clus scale="   91.757">  7  8 -1 -1</clus>
<clus scale="  109.902">  1  5  2 -1</clus>
<clus scale="   21.844">  1  5  2 -1</clus>
</clustering>
</event>
<event>
 9    1  0.5981539E-005  0.9397635E+02  0.7546771E-02  0.1298633E+00
         21   -1    0    0  501  502  0.00000000000E+00  0.00000000000E+00  0.85604922066E+02  0.85604922066E+02  0.00000000000E+00 0. -1.
          3   -1    0    0  502    0 -0.00000000000E+00 -0.00000000000E+00 -0.24404146857E+03  0.24404146857E+03  0.00000000000E+00 0. -1.
         23    2    1    2    0    0  0.43658869190E+01  0.12713720921E+02 -0.13338828553E+03  0.16163337359E+03  0.90289606684E+02 0.  0.
        -24    2    1    2    0    0  0.17494188508E+02 -0.67211762464E+02 -0.22000682039E+02  0.10921516702E+03  0.81366178802E+02 0.  0.
         11    1    4    4    0    0 -0.15823243782E+02 -0.13344976340E+02  0.23433750333E+02  0.31266661031E+02  0.00000000000E+00 0. -1.
        -12    1    4    4    0    0  0.33317432290E+02 -0.53866786124E+02 -0.45434432372E+02  0.77948505994E+02  0.00000000000E+00 0.  1.
        -11    1    3    3    0    0  0.27724759992E+01  0.42879269145E+02 -0.26328448894E+02  0.50393507188E+02  0.00000000000E+00 0. -1.
         11    1    3    3    0    0  0.15934109199E+01 -0.30165548224E+02 -0.10705983663E+03  0.11123986640E+03  0.00000000000E+00 0.  1.
          4    1    1    2  501    0 -0.21860075427E+02  0.54498041543E+02 -0.30475789408E+01  0.58797850021E+02  0.00000000000E+00 0. -1.
<scales pt_clust_5="13000.00000" pt_clust_6="13000.00000" pt_clust_7="13000.00000" pt_clust_8="13000.00000" pt_clust_9="58.71882"></scales>
<clustering>
<clus scale="   58.719">  1  9  2 -1</clus>
<clus scale="   81.366">  5  6 -1 -1</clus>
<clus scale="   85.439">  1  5  2 -1</clus>
<clus scale="   90.290">  7  8 -1 -1</clus>
<clus scale="   58.719">  1  5  2 -1</clus>
</clustering>
</event>
<event>
 9    1  0.5981539E-005  0.1248346E+03  0.7546771E-02  0.1238752E+00
         21   -1    0    0  501  502  0.00000000000E+00  0.00000000000E+00  0.73421338028E+02  0.73421338028E+02  0.00000000000E+00 0.  1.
         -2   -1    0    0    0  501 -0.00000000000E+00 -0.00000000000E+00 -0.23600518631E+03  0.23600518631E+03  0.00000000000E+00 0.  1.
         23    2    1    2    0    0 -0.29855137532E+02 -0.73012568512E+02 -0.74456078540E+02  0.14246297037E+03  0.92357056566E+02 0.  0.
        -24    2    1    2    0    0  0.16756461502E+02  0.88522255999E+02 -0.69677387761E+02  0.13953104925E+03  0.80604010637E+02 0.  0.
         13    1    4    4    0    0 -0.27186631461E+02  0.65806995285E+02 -0.45226619565E+02  0.84351174716E+02  0.00000000000E+00 0. -1.
        -14    1    4    4    0    0  0.43943092963E+02  0.22715260714E+02 -0.24450768196E+02  0.55179874536E+02  0.00000000000E+00 0.  1.
        -11    1    3    3    0    0  0.15809339746E+02  0.14610697601E+02 -0.21213354817E+02  0.30222741937E+02  0.00000000000E+00 0. -1.
         11    1    3    3    0    0 -0.45664477278E+02 -0.87623266113E+02 -0.53242723724E+02  0.11224022843E+03  0.00000000000E+00 0.  1.
         -1    1    1    2    0  502  0.13098676030E+02 -0.15509687488E+02 -0.18450381976E+02  0.27432504712E+02  0.00000000000E+00 0.  1.
<scales pt_clust_5="13000.00000" pt_clust_6="13000.00000" pt_clust_7="13000.00000" pt_clust_8="13000.00000" pt_clust_9="20.30089"></scales>
<clustering>
<clus scale="   20.301">  1  9  2 -1</clus>
<clus scale="   80.604">  5  6 -1 -1</clus>
<clus scale="   92.357">  7  8 -1 -1</clus>
<clus scale="  116.408">  1  5  2 -1</clus>
<clus scale="   20.301">  1  5  2 -1</clus>
</clustering>
</event>
<event>
 9    1  0.5981539E-005  0.1187988E+03  0.7546771E-02  0.1251165E+00
         -4   -1    0    0    0  501 -0.00000000000E+00  0.00000000000E+00  0.18877690493E+03  0.18877690493E+03  0.00000000000E+00 0.  1.
         21   -1    0    0  501  502  0.00000000000E+00 -0.00000000000E+00 -0.18985295811E+03  0.18985295811E+03  0.00000000000E+00 0.  1.
        -24    2    1    2    0    0 -0.68621650671E+02  0.16122026551E+02  0.12818893933E+03  0.16750149939E+03  0.81581232219E+02 0.  0.
         23    2    1    2    0    0  0.30037724478E+02 -0.21915182833E+02 -0.13551591043E+03  0.17161439151E+03  0.98510899200E+02 0.  0.
         13    1    3    3    0    0 -0.16683968036E+02  0.12418864885E+02  0.11060425591E+03  0.11254281150E+03  0.00000000000E+00 0. -1.
        -14    1    3    3    0    0 -0.51937682635E+02  0.37031616661E+01  0.17584683420E+02  0.54958687892E+02  0.00000000000E+00 0.  1.
        -11    1    4    4    0    0 -0.38567218546E+01  0.33717690915E+02 -0.76593128009E+02  0.83775081273E+02  0.00000000000E+00 0.  1.
         11    1    4    4    0    0  0.33894446332E+02 -0.55632873748E+02 -0.58922782422E+02  0.87839310232E+02  0.00000000000E+00 0. -1.
         -3    1    1    2    0  502  0.38583926194E+02  0.57931562820E+01  0.62509179213E+01  0.39513972150E+02  0.00000000000E+00 0.  1.
<scales pt_clust_5="13000.00000" pt_clust_6="13000.00000" pt_clust_7="13000.00000" pt_clust_8="13000.00000" pt_clust_9="39.01643"></scales>
<clustering>
<clus scale="   39.016">  2  9  1 -1</clus>
<clus scale="   81.581">  5  6 -1 -1</clus>
<clus scale="   98.511">  7  8 -1 -1</clus>
<clus scale="  105.187">  1  5  2 -1</clus>
<clus scale="   39.016">  2  5  1 -1</clus>
</clustering>
</event>
<event>
 9    1  0.5981539E-005  0.1236369E+03  0.7546771E-02  0.1239923E+00
          1   -1    0    0  502    0 -0.00000000000E+00  0.00000000000E+00  0.38380050087E+03  0.38380050087E+03  0.00000000000E+00 0. -1.
         21   -1    0    0  501  502  0.00000000000E+00 -0.00000000000E+00 -0.12891901132E+03  0.12891901132E+03  0.00000000000E+00 0.  1.
         23    2    1    2    0    0  0.30648710987E+02 -0.80576860714E+02  0.32356567566E+03  0.34676151215E+03  0.90093428580E+02 0.  0.
        -24    2    1    2    0    0 -0.47207044424E+02  0.62343227966E+02 -0.24013010207E+02  0.11494665106E+03  0.80752243395E+02 0.  0.
         13    1    4    4    0    0 -0.17325768438E+02  0.15819924840E+02  0.29707272057E+02  0.37854646835E+02  0.00000000000E+00 0. -1.
        -14    1    4    4    0    0 -0.29881275986E+02  0.46523303126E+02 -0.53720282264E+02  0.77092004221E+02  0.00000000000E+00 0.  1.
        -13    1    3    3    0    0  0.54145457505E+02 -0.41502618602E+02  0.25822772476E+03  0.26708754324E+03  0.00000000000E+00 0. -1.
         13    1    3    3    0    0 -0.23496746518E+02 -0.39074242112E+02  0.65337950899E+02  0.79673968906E+02  0.00000000000E+00 0.  1.
          2    1    1    2  501    0  0.16558333438E+02  0.18233632748E+02 -0.44671175897E+02  0.51011348987E+02  0.00000000000E+00 0. -1.
<scales pt_clust_5="13000.00000" pt_clust_6="13000.00000" pt_clust_7="13000.00000" pt_clust_8="13000.00000" pt_clust_9="24.63014"></scales>
<clustering>
<clus scale="   24.630">  2  9  1 -1</clus>
<clus scale="   80.752">  5  6 -1 -1</clus>
<clus scale="   90.093">  7  8 -1 -1</clus>
<clus scale="  117.005">  2  5  1 -1</clus>
<clus scale="   24.630">  2  5  1 -1</clus>
</clustering>
</event>
<event>
 9    1  0.5981539E-005  0.1058781E+03  0.7546771E-02  0.1273030E+00
          1   -1    0    0  502    0 -0.00000000000E+00  0.00000000000E+00  0.17475908828E+03  0.17475908828E+03  0.00000000000E+00 0. -1.
         21   -1    0    0  501  502  0.00000000000E+00 -0.00000000000E+00 -0.25656100007E+03  0.25656100007E+03  0.00000000000E+00 0. -1.
        -24    2    1    2    0    0  0.17147511095E+01 -0.55792929172E+02  0.13981488839E+03  0.17121894368E+03  0.81559379236E+02 0.  0.
         23    2    1    2    0    0  0.85139014168E+01  0.18736476074E+02 -0.12925945813E+03  0.16006272864E+03  0.92133205374E+02 0.  0.
         11    1    3    3    0    0 -0.64751599575E+01 -0.55493412232E+02  0.14886838858E+03  0.15900705524E+03  0.00000000000E+00 0. -1.
        -12    1    3    3    0    0  0.81899110669E+01 -0.29951694034E+00 -0.90535001857E+01  0.12211888441E+02  0.00000000000E+00 0.  1.
        -13    1    4    4    0    0  0.32667167781E+02 -0.26560347329E+02 -0.47000424790E+02  0.63100204687E+02  0.00000000000E+00 0. -1.
         13    1    4    4    0    0 -0.24153266364E+02  0.45296823403E+02 -0.82259033339E+02  0.96962523958E+02  0.00000000000E+00 0.  1.
          2    1    1    2  501    0 -0.10228652526E+02  0.37056453099E+02 -0.92357342054E+02  0.10003841602E+03  0.00000000000E+00 0. -1.
<scales pt_clust_5="13000.00000" pt_clust_6="13000.00000" pt_clust_7="13000.00000" pt_clust_8="13000.00000" pt_clust_9="38.44224"></scales>
<clustering>
<clus scale="   38.442">  2  9  1 -1</clus>
<clus scale="   81.559">  5  6 -1 -1</clus>
<clus scale="   92.133">  7  8 -1 -1</clus>
<clus scale="   96.817">  1  5  2 -1</clus>
<clus scale="   38.442">  2  5  1 -1</clus>
</clustering>
</event>
<event>
 9    1  0.5981539E-005  0.1010499E+03  0.7546771E-02  0.1284817E+00
          3   -1    0    0  502    0 -0.00000000000E+00  0.00000000000E+00  0.17689134653E+03  0.17689134653E+03  0.00000000000E+00 0. -1.
         21   -1    0    0  501  502  0.00000000000E+00 -0.00000000000E+00 -0.22369859936E+03  0.22369859936E+03  0.00000000000E+00 0.  1.
        -24    2    1    2    0    0 -0.20585638965E+02  0.31295980372E+02  0.13889822462E+03  0.16478376164E+03  0.80360216383E+02 0.  0.
         23    2    1    2    0    0  0.45175257285E+02 -0.27992346562E+02 -0.18097106633E+03  0.21054795837E+03  0.93571045672E+02 0.  0.
         13    1    3    3    0    0 -0.36197887391E+02  0.29971989109E+02  0.14132006586E+03  0.14892940676E+03  0.00000000000E+00 0. -1.
        -14    1    3    3    0    0  0.15612248426E+02  0.13239912630E+01 -0.24218412340E+01  0.15854354882E+02  0.00000000000E+00 0.  1.
        -13    1    4    4    0    0  0.54484648878E+02  0.20255348995E+02 -0.10640825610E+03  0.12125004368E+03  0.00000000000E+00 0. -1.
         13    1    4    4    0    0 -0.93093915929E+01 -0.48247695557E+02 -0.74562810232E+02  0.89297914691E+02  0.00000000000E+00 0.  1.
          4    1    1    2  501    0 -0.24589618320E+02 -0.33036338098E+01 -0.47344111239E+01  0.25258225871E+02  0.00000000000E+00 0. -1.
<scales pt_clust_5="13000.00000" pt_clust_6="13000.00000" pt_clust_7="13000.00000" pt_clust_8="13000.00000" pt_clust_9="24.81055"></scales>
<clustering>
<clus scale="   24.811">  2  9  1 -1</clus>
<clus scale="   80.360">  5  6 -1 -1</clus>
<clus scale="   88.957">  1  5  2 -1</clus>
<clus scale="   93.571">  7  8 -1 -1</clus>
<clus scale="   24.811">  2  5  1 -1</clus>
</clustering>
</event>
<event>
 9    1  0.1030272E-004  0.2616476E+03  0.7546771E-02  0.1140444E+00
          3   -1    0    0  502    0 -0.00000000000E+00  0.00000000000E+00  0.19409449780E+03  0.19409449780E+03  0.00000000000E+00 0. -1.
         21   -1    0    0  501  502  0.00000000000E+00 -0.00000000000E+00 -0.62089580972E+03  0.62089580972E+03  0.00000000000E+00 0. -1.
        -24    2    1    2    0    0  0.65771508320E+02 -0.40718931078E+02 -0.77546060395E+01  0.11181785344E+03  0.80368997621E+02 0.  0.
         23    2    1    2    0    0 -0.23166474870E+03  0.13437622453E+03 -0.42693055636E+03  0.51250412709E+03  0.93087350479E+02 0.  0.
         11    1    3    3    0    0  0.52487618158E+02 -0.59851786051E+02 -0.24316768615E+02  0.83237561168E+02  0.00000000000E+00 0. -1.
        -12    1    3    3    0    0  0.13283890161E+02  0.19132854973E+02  0.16562162575E+02  0.28580292273E+02  0.00000000000E+00 0.  1.
        -11    1    4    4    0    0  0.44078868494E+01  0.20220994082E+02 -0.23200463556E+02  0.31089862936E+02  0.00000000000E+00 0.  1.
         11    1    4    4    0    0 -0.23607263555E+03  0.11415523045E+03 -0.40373009281E+03  0.48141426415E+03  0.00000000000E+00 0. -1.
          4    1    1    2  501    0  0.16589324038E+03 -0.93657293450E+02  0.78838504818E+01  0.19066832699E+03  0.00000000000E+00 0. -1.
<scales pt_clust_5="13000.00000" pt_clust_6="13000.00000" pt_clust_7="13000.00000" pt_clust_8="13000.00000" pt_clust_9="244.52868"></scales>
<clustering>
<clus scale="   80.369">  5  6 -1 -1</clus>
<clus scale="   93.087">  7  8 -1 -1</clus>
<clus scale="  111.549">  1  5  2 -1</clus>
<clus scale="  244.529">  2  9  1 -1</clus>
<clus scale="  244.529">  2  5  1 -1</clus>
</clustering>
</event>
<event>
 9    1  0.5981539E-005  0.9088871E+02  0.7546771E-02  0.1305175E+00
         -2   -1    0    0    0  501 -0.00000000000E+00  0.00000000000E+00  0.25205043630E+03  0.25205043630E+03  0.00000000000E+00 0.  1.
         21   -1    0    0  501  502  0.00000000000E+00 -0.00000000000E+00 -0.26630681767E+03  0.26630681767E+03  0.00000000000E+00 0. -1.
        -24    2    1    2    0    0  0.21466391938E+02  0.43080284646E+02  0.21477174964E+03  0.23411928605E+03  0.79801119990E+02 0.  0.
         23    2    1    2    0    0 -0.37754346651E+02  0.33635812735E+02 -0.97353984631E+02  0.13097760810E+03  0.71558206458E+02 0.  0.
         11    1    3    3    0    0  0.22270304799E+02  0.80308159790E+01  0.89125868317E+01  0.25296139729E+02  0.00000000000E+00 0. -1.
        -12    1    3    3    0    0 -0.80391286104E+00  0.35049468667E+02  0.20585916281E+03  0.20882314633E+03  0.00000000000E+00 0.  1.
        -13    1    4    4    0    0 -0.47170776704E+02 -0.53478005999E+01 -0.50731307544E+02  0.69479109891E+02  0.00000000000E+00 0.  1.
         13    1    4    4    0    0  0.94164300532E+01  0.38983613335E+02 -0.46622677087E+02  0.61498498212E+02  0.00000000000E+00 0. -1.
         -1    1    1    2    0  502  0.16287954712E+02 -0.76716097381E+02 -0.13167414638E+03  0.15326035982E+03  0.00000000000E+00 0.  1.
<scales pt_clust_5="13000.00000" pt_clust_6="13000.00000" pt_clust_7="13000.00000" pt_clust_8="13000.00000" pt_clust_9="78.42612"></scales>
<clustering>
<clus scale="   71.558">  7  8 -1 -1</clus>
<clus scale="   78.426">  2  9  1 -1</clus>
<clus scale="   79.801">  5  6 -1 -1</clus>
<clus scale="   83.744">  2  7  1 -1</clus>
<clus scale="   78.426">  2  5  1 -1</clus>
</clustering>
</event>
<event>
 9    1  0.5981539E-005  0.1231140E+03  0.7546771E-02  0.1242514E+00
         21   -1    0    0  501  502  0.00000000000E+00  0.00000000000E+00  0.13701162886E+03  0.13701162886E+03  0.00000000000E+00 0.  1.
          1   -1    0    0  502    0 -0.00000000000E+00 -0.00000000000E+00 -0.16198568043E+03  0.16198568043E+03  0.00000000000E+00 0. -1.
        -24    2    1    2    0    0  0.54314832220E+02  0.65410823036E+02 -0.72841583390E+02  0.13607008157E+03  0.77333654120E+02 0.  0.
         23    2    1    2    0    0 -0.34013680460E+02 -0.67990828553E+02  0.10013311940E+02  0.11989543535E+03  0.92168138611E+02 0.  0.
         11    1    3    3    0    0  0.34876088871E+01  0.62558150370E+02 -0.50512854048E+02  0.80481265010E+02  0.00000000000E+00 0. -1.
        -12    1    3    3    0    0  0.50827223333E+02  0.28526726664E+01 -0.22328729342E+02  0.55588816565E+02  0.00000000000E+00 0.  1.
        -11    1    4    4    0    0  0.76372665205E+01 -0.52396546591E+02 -0.29317397553E+02  0.60524670456E+02  0.00000000000E+00 0. -1.
         11    1    4    4    0    0 -0.41650946980E+02 -0.15594281962E+02  0.39330709493E+02  0.59370764889E+02  0.00000000000E+00 0.  1.
          2    1    1    2  501    0 -0.20301151760E+02  0.25800055165E+01  0.37854219885E+02  0.43031792368E+02  0.00000000000E+00 0. -1.
<scales pt_clust_5="13000.00000" pt_clust_6="13000.00000" pt_clust_7="13000.00000" pt_clust_8="13000.00000" pt_clust_9="20.46444"></scales>
<clustering>
<clus scale="   20.464">  1  9  2 -1</clus>
<clus scale="   77.334">  5  6 -1 -1</clus>
<clus scale="   92.168">  7  8 -1 -1</clus>
<clus scale="  112.439">  2  5  1 -1</clus>
<clus scale="   20.464">  1  5  2 -1</clus>
</clustering>
</event>
<event>
 9    1  0.5981539E-005  0.1416621E+03  0.7546771E-02  0.1213842E+00
         21   -1    0    0  501  502  0.00000000000E+00  0.00000000000E+00  0.28612897907E+02  0.28612897907E+02  0.00000000000E+00 0.  1.
          1   -1    0    0  502    0 -0.00000000000E+00 -0.00000000000E+00 -0.16899737777E+04  0.16899737777E+04  0.00000000000E+00 0. -1.
        -24    2    1    2    0    0 -0.16105652547E+02  0.81135590926E+02 -0.55802677988E+03  0.56997135435E+03  0.81431453139E+02 0.  0.
         23    2    1    2    0    0 -0.41317311390E+02 -0.17524462102E+03 -0.60321230210E+03  0.63648670560E+03  0.93981102227E+02 0.  0.
         11    1    3    3    0    0 -0.47483699765E+02  0.65164110483E+02 -0.37121383763E+03  0.37986942004E+03  0.00000000000E+00 0. -1.
        -12    1    3    3    0    0  0.31378047218E+02  0.15971480443E+02 -0.18681294225E+03  0.19010193431E+03  0.00000000000E+00 0.  1.
        -13    1    4    4    0    0 -0.26999143580E+02 -0.74549784202E+02 -0.41543811108E+03  0.42293669528E+03  0.00000000000E+00 0.  1.
         13    1    4    4    0    0 -0.14318167810E+02 -0.10069483682E+03 -0.18777419103E+03  0.21355001032E+03  0.00000000000E+00 0. -1.
          2    1    1    2  501    0  0.57422963937E+02  0.94109030093E+02 -0.50012179785E+03  0.51212861570E+03  0.00000000000E+00 0. -1.
<scales pt_clust_5="13000.00000" pt_clust_6="13000.00000" pt_clust_7="13000.00000" pt_clust_8="13000.00000" pt_clust_9="110.24481"></scales>
<clustering>
<clus scale="   81.431">  5  6 -1 -1</clus>
<clus scale="   93.981">  7  8 -1 -1</clus>
<clus scale="  110.245">  1  9  2 -1</clus>
<clus scale="  133.667">  2  5  1 -1</clus>
<clus scale="  110.245">  1  5  2 -1</clus>
</clustering>
</event>
<event>
 9    1  0.5981539E-005  0.1491535E+03  0.7546771E-02  0.1229411E+00
         21   -1    0    0  501  502  0.00000000000E+00  0.00000000000E+00  0.34058530351E+03  0.34058530351E+03  0.00000000000E+00 0.  1.
          1   -1    0    0  502    0 -0.00000000000E+00 -0.00000000000E+00 -0.15723266923E+03  0.15723266923E+03  0.00000000000E+00 0. -1.
        -24    2    1    2    0    0 -0.12387106660E+02 -0.20072716389E+02 -0.91312175914E+02  0.12316885088E+03  0.79223090086E+02 0.  0.
         23    2    1    2    0    0  0.90674916526E+02  0.59789311294E+02  0.22470498623E+03  0.27364232459E+03  0.11221002066E+03 0.  0.
         13    1    3    3    0    0  0.31718547802E+02 -0.17510529768E+02 -0.27183723499E+02  0.45295030088E+02  0.00000000000E+00 0. -1.
        -14    1    3    3    0    0 -0.44105654462E+02 -0.25621866214E+01 -0.64128452416E+02  0.77873820794E+02  0.00000000000E+00 0.  1.
        -11    1    4    4    0    0  0.68010840756E+02  0.73509058043E+02  0.84723894544E+02  0.13117619594E+03  0.00000000000E+00 0. -1.
         11    1    4    4    0    0  0.22664075770E+02 -0.13719746749E+02  0.13998109169E+03  0.14246612865E+03  0.00000000000E+00 0.  1.
          2    1    1    2  501    0 -0.78287809866E+02 -0.39716594905E+02  0.49959823965E+02  0.10100679727E+03  0.00000000000E+00 0. -1.
<scales pt_clust_5="13000.00000" pt_clust_6="13000.00000" pt_clust_7="13000.00000" pt_clust_8="13000.00000" pt_clust_9="98.26332"></scales>
<clustering>
<clus scale="   79.223">  5  6 -1 -1</clus>
<clus scale="   82.660">  2  5  1 -1</clus>
<clus scale="   98.263">  1  9  2 -1</clus>
<clus scale="  112.210">  7  8 -1 -1</clus>
<clus scale="   98.263">  1  5  2 -1</clus>
</clustering>
</event>
<event>
 9    1  0.5981539E-005  0.9857083E+02  0.7546771E-02  0.1290624E+00
         21   -1    0    0  501  502  0.00000000000E+00  0.00000000000E+00  0.13619519360E+03  0.13619519360E+03  0.00000000000E+00 0.  1.
          1   -1    0    0  502    0 -0.00000000000E+00 -0.00000000000E+00 -0.33498161385E+03  0.33498161385E+03  0.00000000000E+00 0. -1.
        -24    2    1    2    0    0 -0.30065818483E+02  0.81513384393E+01 -0.12458484742E+03  0.15060432891E+03  0.78675802631E+02 0.  0.
         23    2    1    2    0    0  0.34904053069E+02 -0.85732558505E+02  0.76166149522E+02  0.15130137603E+03  0.92317168208E+02 0.  0.
         13    1    3    3    0    0 -0.44758846797E+02  0.19286178884E+02 -0.12275748475E+03  0.13207842793E+03  0.00000000000E+00 0. -1.
        -14    1    3    3    0    0  0.14693028314E+02 -0.11134840445E+02 -0.18273626738E+01  0.18525900980E+02  0.00000000000E+00 0.  1.
        -11    1    4    4    0    0 -0.75653905223E+01 -0.59886599099E+02  0.20246646980E-01  0.60362573630E+02  0.00000000000E+00 0. -1.
         11    1    4    4    0    0  0.42469443591E+02 -0.25845959407E+02  0.76145902875E+02  0.90938802396E+02  0.00000000000E+00 0.  1.
          2    1    1    2  501    0 -0.48382345852E+01  0.77581220066E+02 -0.15036772235E+03  0.16927110252E+03  0.00000000000E+00 0. -1.
<scales pt_clust_5="13000.00000" pt_clust_6="13000.00000" pt_clust_7="13000.00000" pt_clust_8="13000.00000" pt_clust_9="77.73198"></scales>
<clustering>
<clus scale="   77.732">  1  9  2 -1</clus>
<clus scale="   78.676">  5  6 -1 -1</clus>
<clus scale="   85.928">  2  5  1 -1</clus>
<clus scale="   92.317">  7  8 -1 -1</clus>
<clus scale="   77.732">  1  5  2 -1</clus>
</clustering>
</event>
<event>
 9    1  0.5981539E-005  0.1223014E+03  0.7546771E-02  0.1243855E+00
         21   -1    0    0  501  502  0.00000000000E+00  0.00000000000E+00  0.33848853534E+02  0.33848853534E+02  0.00000000000E+00 0. -1.
          3   -1    0    0  502    0 -0.00000000000E+00 -0.00000000000E+00 -0.73632262519E+03  0.73632262519E+03  0.00000000000E+00 0. -1.
         23    2    1    2    0    0  0.62727758963E+02  0.60522745624E+02 -0.40682647673E+03  0.42580990192E+03  0.90600860467E+02 0.  0.
        -24    2    1    2    0    0 -0.30689796509E+02 -0.67137909578E+02 -0.98254212345E+02  0.14427604389E+03  0.75579918531E+02 0.  0.
         11    1    4    4    0    0  0.36200591286E+01 -0.53146534337E+02 -0.18596653342E+02  0.56422464105E+02  0.00000000000E+00 0. -1.
        -12    1    4    4    0    0 -0.34309855637E+02 -0.13991375241E+02 -0.79657559003E+02  0.87853579786E+02  0.00000000000E+00 0.  1.
        -11    1    3    3    0    0  0.35354166727E+02  0.78725309516E+02 -0.22395301909E+03  0.24000530458E+03  0.00000000000E+00 0.  1.
         11    1    3    3    0    0  0.27373592237E+02 -0.18202563893E+02 -0.18287345764E+03  0.18580459734E+03  0.00000000000E+00 0. -1.
          4    1    1    2  501    0 -0.32037962455E+02  0.66151639547E+01 -0.19739308258E+03  0.20008553292E+03  0.00000000000E+00 0. -1.
<scales pt_clust_5="13000.00000" pt_clust_6="13000.00000" pt_clust_7="13000.00000" pt_clust_8="13000.00000" pt_clust_9="32.71380"></scales>
<clustering>
<clus scale="   32.714">  1  9  2 -1</clus>
<clus scale="   75.580">  5  6 -1 -1</clus>
<clus scale="   90.601">  7  8 -1 -1</clus>
<clus scale="  111.631">  1  5  2 -1</clus>
<clus scale="   32.714">  1  5  2 -1</clus>
</clustering>
</event>
<event>
 9    1  0.5981539E-005  0.1143872E+03  0.7546771E-02  0.1256044E+00
          3   -1    0    0  502    0 -0.00000000000E+00  0.00000000000E+00  0.13166879204E+03  0.13166879204E+03  0.00000000000E+00 0. -1.
         21   -1    0    0  501  502  0.00000000000E+00 -0.00000000000E+00 -0.23610096915E+03  0.23610096915E+03  0.00000000000E+00 0.  1.
        -24    2    1    2    0    0 -0.60397394741E+02  0.12646524024E+02  0.25735220938E+02  0.10551261623E+03  0.81626164471E+02 0.  0.
         23    2    1    2    0    0  0.81445574962E+02  0.75448166876E+01  0.63721099626E+01  0.12263711281E+03  0.91153451458E+02 0.  0.
         11    1    3    3    0    0 -0.59660334260E+02 -0.12056881936E+02  0.43725113080E+02  0.74944041791E+02  0.00000000000E+00 0. -1.
        -12    1    3    3    0    0 -0.73706048020E+00  0.24703405960E+02 -0.17989892142E+02  0.30568574443E+02  0.00000000000E+00 0.  1.
        -11    1    4    4    0    0  0.92494881355E+01  0.41561470280E+02  0.43893725739E+01  0.42803918445E+02  0.00000000000E+00 0.  1.
         11    1    4    4    0    0  0.72196086826E+02 -0.34016653593E+02  0.19827373887E+01  0.79833194363E+02  0.00000000000E+00 0. -1.
          4    1    1    2  501    0 -0.21048180221E+02 -0.20191340712E+02 -0.13653950801E+03  0.13962003215E+03  0.00000000000E+00 0. -1.
<scales pt_clust_5="13000.00000" pt_clust_6="13000.00000" pt_clust_7="13000.00000" pt_clust_8="13000.00000" pt_clust_9="29.16704"></scales>
<clustering>
<clus scale="   29.167">  2  9  1 -1</clus>
<clus scale="   81.626">  5  6 -1 -1</clus>
<clus scale="   91.153">  7  8 -1 -1</clus>
<clus scale="  106.950">  1  5  2 -1</clus>
<clus scale="   29.167">  2  5  1 -1</clus>
</clustering>
</event>
<event>
 9    1  0.5981539E-005  0.1319427E+03  0.7546771E-02  0.1225269E+00
         21   -1    0    0  501  502  0.00000000000E+00  0.00000000000E+00  0.15067061419E+04  0.15067061419E+04  0.00000000000E+00 0.  1.
         -4   -1    0    0    0  501 -0.00000000000E+00 -0.00000000000E+00 -0.14434253290E+02  0.14434253290E+02  0.00000000000E+00 0.  1.
         23    2    1    2    0    0 -0.13902605836E+02 -0.10618781248E+03  0.51645353182E+03  0.53439496499E+03  0.85933661043E+02 0.  0.
        -24    2    1    2    0    0  0.19931864343E+01  0.88532197244E+02  0.89355445135E+03  0.90176952093E+03  0.83107091174E+02 0.  0.
         13    1    4    4    0    0 -0.10758121293E+02  0.77298343394E+02  0.37987071066E+03  0.38780475485E+03  0.00000000000E+00 0. -1.
        -14    1    4    4    0    0  0.12751307727E+02  0.11233853850E+02  0.51368374069E+03  0.51396476608E+03  0.00000000000E+00 0.  1.
        -13    1    3    3    0    0  0.20145592351E+02 -0.93946882843E+02  0.30216763417E+03  0.31707592281E+03  0.00000000000E+00 0.  1.
         13    1    3    3    0    0 -0.34048198187E+02 -0.12240929641E+02  0.21428589766E+03  0.21731904218E+03  0.00000000000E+00 0. -1.
         -3    1    1    2    0  502  0.11909419401E+02  0.17655615240E+02  0.82263905456E+02  0.84975909297E+02  0.00000000000E+00 0.  1.
<scales pt_clust_5="13000.00000" pt_clust_6="13000.00000" pt_clust_7="13000.00000" pt_clust_8="13000.00000" pt_clust_9="21.29684"></scales>
<clustering>
<clus scale="   21.297">  1  9  2 -1</clus>
<clus scale="   83.107">  5  6 -1 -1</clus>
<clus scale="   85.934">  7  8 -1 -1</clus>
<clus scale="  130.119">  1  5  2 -1</clus>
<clus scale="   21.297">  1  5  2 -1</clus>
</clustering>
</event>
<event>
 9    1  0.5981539E-005  0.1163524E+03  0.7546771E-02  0.1252864E+00
         21   -1    0    0  501  502  0.00000000000E+00  0.00000000000E+00  0.93424974682E+02  0.93424974682E+02  0.00000000000E+00 0. -1.
         -2   -1    0    0    0  501 -0.00000000000E+00 -0.00000000000E+00 -0.64672005986E+03  0.64672005986E+03  0.00000000000E+00 0.  1.
        -24    2    1    2    0    0  0.29132884880E+02  0.64854479516E+02 -0.52107854938E+03  0.53199729750E+03  0.80271049727E+02 0.  0.
         23    2    1    2    0    0 -0.17241282245E+02 -0.81211806888E+02 -0.86334580553E+02  0.15037460194E+03  0.90918874370E+02 0.  0.
         13    1    3    3    0    0  0.21444774685E+02 -0.13053069942E+02 -0.74698551010E+02  0.78804406725E+02  0.00000000000E+00 0. -1.
        -14    1    3    3    0    0  0.76881101954E+01  0.77907549458E+02 -0.44637999837E+03  0.45319289077E+03  0.00000000000E+00 0.  1.
        -11    1    4    4    0    0 -0.30277742798E+02  0.62954680560E+01 -0.39822768166E+02  0.50420506655E+02  0.00000000000E+00 0.  1.
         11    1    4    4    0    0  0.13036460553E+02 -0.87507274944E+02 -0.46511812387E+02  0.99954095281E+02  0.00000000000E+00 0. -1.
         -1    1    1    2    0  502 -0.11891602635E+02  0.16357327372E+02  0.54118044757E+02  0.57773135109E+02  0.00000000000E+00 0.  1.
<scales pt_clust_5="13000.00000" pt_clust_6="13000.00000" pt_clust_7="13000.00000" pt_clust_8="13000.00000" pt_clust_9="20.22307"></scales>
<clustering>
<clus scale="   20.223">  1  9  2 -1</clus>
<clus scale="   80.271">  5  6 -1 -1</clus>
<clus scale="   90.919">  7  8 -1 -1</clus>
<clus scale="  108.236">  2  5  1 -1</clus>
<clus scale="   20.223">  1  5  2 -1</clus>
</clustering>
</event>
<event>
 9    1  0.5981539E-005  0.9362158E+02  0.7546771E-02  0.1301079E+00
          1   -1    0    0  502    0 -0.00000000000E+00  0.00000000000E+00  0.13139841595E+03  0.13139841595E+03  0.00000000000E+00 0. -1.
         21   -1    0    0  501  502  0.00000000000E+00 -0.00000000000E+00 -0.48575436619E+03  0.48575436619E+03  0.00000000000E+00 0. -1.
         23    2    1    2    0    0 -0.10895860657E+02  0.10586857013E+02  0.85735386767E+02  0.12673500835E+03  0.92089111606E+02 0.  0.
        -24    2    1    2    0    0 -0.39754165047E+02 -0.51563228769E+02 -0.10000627891E+03  0.14414860842E+03  0.80860406182E+02 0.  0.
         11    1    4    4    0    0 -0.55025507123E+02 -0.63748474177E+02 -0.79124721716E+02  0.11555256804E+03  0.00000000000E+00 0. -1.
        -12    1    4    4    0    0  0.15271342076E+02  0.12185245408E+02 -0.20881557194E+02  0.28596040378E+02  0.00000000000E+00 0.  1.
        -13    1    3    3    0    0  0.25689367713E+02 -0.89534944172E+01  0.80447230073E+02  0.84922703103E+02  0.00000000000E+00 0.  1.
         13    1    3    3    0    0 -0.36585228370E+02  0.19540351430E+02  0.52881566939E+01  0.41812305247E+02  0.00000000000E+00 0. -1.
          2    1    1    2  501    0  0.50650025704E+02  0.40976371756E+02 -0.34008505810E+03  0.34626916537E+03  0.00000000000E+00 0. -1.
<scales pt_clust_5="13000.00000" pt_clust_6="13000.00000" pt_clust_7="13000.00000" pt_clust_8="13000.00000" pt_clust_9="65.14974"></scales>
<clustering>
<clus scale="   65.150">  2  9  1 -1</clus>
<clus scale="   80.860">  5  6 -1 -1</clus>
<clus scale="   82.601">  2  5  1 -1</clus>
<clus scale="   92.089">  7  8 -1 -1</clus>
<clus scale="   65.150">  2  5  1 -1</clus>
</clustering>
</event>
<event>
 9    1  0.5981539E-005  0.2249546E+03  0.7546771E-02  0.1130964E+00
         -2   -1    0    0    0  501 -0.00000000000E+00  0.00000000000E+00  0.21394230446E+03  0.21394230446E+03  0.00000000000E+00 0.  1.
         21   -1    0    0  501  502  0.00000000000E+00 -0.00000000000E+00 -0.45861392401E+03  0.45861392401E+03  0.00000000000E+00 0.  1.
         23    2    1    2    0    0 -0.22118707161E+03  0.12700414795E+03 -0.10895290465E+03  0.29186917167E+03  0.90901615456E+02 0.  0.
        -24    2    1    2    0    0  0.12220257770E+03 -0.87839915729E+02 -0.19472445612E+03  0.25897656171E+03  0.80634514402E+02 0.  0.
         13    1    4    4    0    0  0.39105846878E+02 -0.38135819797E+02 -0.18083921111E+02  0.57538128353E+02  0.00000000000E+00 0. -1.
        -14    1    4    4    0    0  0.83096730818E+02 -0.49704095933E+02 -0.17664053500E+03  0.20143843335E+03  0.00000000000E+00 0.  1.
        -13    1    3    3    0    0 -0.12154044020E+03  0.70823180917E+02 -0.10704966821E+02  0.14107656742E+03  0.00000000000E+00 0.  1.
         13    1    3    3    0    0 -0.99646631407E+02  0.56180967034E+02 -0.98247937830E+02  0.15079260425E+03  0.00000000000E+00 0. -1.
         -1    1    1    2    0  502  0.98984493914E+02 -0.39164232221E+02  0.59005741220E+02  0.12171049510E+03  0.00000000000E+00 0.  1.
<scales pt_clust_5="13000.00000" pt_clust_6="13000.00000" pt_clust_7="13000.00000" pt_clust_8="13000.00000" pt_clust_9="106.45083"></scales>
<clustering>
<clus scale="   80.635">  5  6 -1 -1</clus>
<clus scale="   90.902">  7  8 -1 -1</clus>
<clus scale="  106.451">  2  9  1 -1</clus>
<clus scale="  221.005">  2  5  1 -1</clus>
<clus scale="  106.451">  2  5  1 -1</clus>
</clustering>
</event>
<event>
 9    1  0.5981539E-005  0.9593643E+02  0.7546771E-02  0.1295262E+00
         21   -1    0    0  501  502  0.00000000000E+00  0.00000000000E+00  0.49339691122E+02  0.49339691122E+02  0.00000000000E+00 0. -1.
         -2   -1    0    0    0  501 -0.00000000000E+00 -0.00000000000E+00 -0.29879217239E+03  0.29879217239E+03  0.00000000000E+00 0.  1.
        -24    2    1    2    0    0  0.21776491624E+01  0.19910828974E+02 -0.19085097110E+03  0.20887979517E+03  0.82495408318E+02 0.  0.
         23    2    1    2    0    0 -0.27318828315E+02 -0.25333701041E+02 -0.43857657878E+02  0.10960636695E+03  0.93284225529E+02 0.  0.
         13    1    3    3    0    0  0.17565613188E+02  0.12367758321E+02 -0.47631629520E+01  0.22004543482E+02  0.00000000000E+00 0. -1.
        -14    1    3    3    0    0 -0.15387964025E+02  0.75430706534E+01 -0.18608780815E+03  0.18687525169E+03  0.00000000000E+00 0.  1.
        -13    1    4    4    0    0 -0.28460119570E+02 -0.50798966990E+02 -0.56516187544E+02  0.81145504544E+02  0.00000000000E+00 0.  1.
         13    1    4    4    0    0  0.11412912553E+01  0.25465265949E+02  0.12658529666E+02  0.28460862406E+02  0.00000000000E+00 0. -1.
         -1    1    1    2    0  502  0.25141179153E+02  0.54228720676E+01 -0.14743852287E+02  0.29645701390E+02  0.00000000000E+00 0.  1.
<scales pt_clust_5="13000.00000" pt_clust_6="13000.00000" pt_clust_7="13000.00000" pt_clust_8="13000.00000" pt_clust_9="25.71938"></scales>
<clustering>
<clus scale="   25.719">  1  9  2 -1</clus>
<clus scale="   82.495">  5  6 -1 -1</clus>
<clus scale="   85.483">  2  5  1 -1</clus>
<clus scale="   93.284">  7  8 -1 -1</clus>
<clus scale="   25.719">  1  5  2 -1</clus>
</clustering>
</event>
<event>
 9    1  0.5981539E-005  0.1305642E+03  0.7546771E-02  0.1228016E+00
         21   -1    0    0  501  502  0.00000000000E+00  0.00000000000E+00  0.61316521988E+02  0.61316521988E+02  0.00000000000E+00 0. -1.
          1   -1    0    0  502    0 -0.00000000000E+00 -0.00000000000E+00 -0.47977038464E+03  0.47977038464E+03  0.00000000000E+00 0. -1.
        -24    2    1    2    0    0  0.46893917574E+02 -0.11715385749E+03 -0.22965758753E+03  0.27506283408E+03  0.83623497602E+02 0.  0.
         23    2    1    2    0    0  0.94459350045E+01  0.68292135175E+02 -0.10881134042E+03  0.15666577759E+03  0.89169594871E+02 0.  0.
         11    1    3    3    0    0 -0.20234233623E+02 -0.53781457511E+02 -0.69230823627E+02  0.89970974889E+02  0.00000000000E+00 0. -1.
        -12    1    3    3    0    0  0.67128151197E+02 -0.63372399982E+02 -0.16042676390E+03  0.18509185919E+03  0.00000000000E+00 0.  1.
        -13    1    4    4    0    0 -0.37812084467E+02  0.22610227476E+02 -0.61626696568E+02  0.75755038434E+02  0.00000000000E+00 0.  1.
         13    1    4    4    0    0  0.47258019472E+02  0.45681907700E+02 -0.47184643847E+02  0.80910739154E+02  0.00000000000E+00 0. -1.
          2    1    1    2  501    0 -0.56339852578E+02  0.48861722318E+02 -0.79984934703E+02  0.10935829496E+03  0.00000000000E+00 0. -1.
<scales pt_clust_5="13000.00000" pt_clust_6="13000.00000" pt_clust_7="13000.00000" pt_clust_8="13000.00000" pt_clust_9="74.57645"></scales>
<clustering>
<clus scale="   74.576">  1  9  2 -1</clus>
<clus scale="   83.623">  5  6 -1 -1</clus>
<clus scale="   89.170">  7  8 -1 -1</clus>
<clus scale="  126.841">  2  5  1 -1</clus>
<clus scale="   74.576">  1  5  2 -1</clus>
</clustering>
</event>
<event>
 9    1  0.5981539E-005  0.1095181E+03  0.7546771E-02  0.1265265E+00
         21   -1    0    0  501  502  0.00000000000E+00  0.00000000000E+00  0.16067286524E+03  0.16067286524E+03  0.00000000000E+00 0.  1.
         -4   -1    0    0    0  501 -0.00000000000E+00 -0.00000000000E+00 -0.20438538223E+03  0.20438538223E+03  0.00000000000E+00 0.  1.
        -24    2    1    2    0    0  0.48020851447E+02 -0.20878911677E+02 -0.11934804619E+03  0.15397643569E+03  0.81993021005E+02 0.  0.
         23    2    1    2    0    0 -0.78981106939E+02  0.41495647133E+02  0.11531422880E+01  0.12782790400E+03  0.91535453891E+02 0.  0.
         13    1    3    3    0    0  0.11388469873E+02 -0.20643304600E+02  0.52082755548E+01  0.24144759372E+02  0.00000000000E+00 0. -1.
        -14    1    3    3    0    0  0.36632381574E+02 -0.23560707642E+00 -0.12455632174E+03  0.12983167632E+03  0.00000000000E+00 0.  1.
        -13    1    4    4    0    0 -0.21326396263E+02  0.28691919737E+02 -0.41650125504E+02  0.54888745571E+02  0.00000000000E+00 0.  1.
         13    1    4    4    0    0 -0.57654710676E+02  0.12803727396E+02  0.42803267792E+02  0.72939158427E+02  0.00000000000E+00 0. -1.
         -3    1    1    2    0  502  0.30960255492E+02 -0.20616735457E+02  0.74482386905E+02  0.83253907776E+02  0.00000000000E+00 0.  1.
<scales pt_clust_5="13000.00000" pt_clust_6="13000.00000" pt_clust_7="13000.00000" pt_clust_8="13000.00000" pt_clust_9="37.19660"></scales>
<clustering>
<clus scale="   37.197">  1  9  2 -1</clus>
<clus scale="   81.993">  5  6 -1 -1</clus>
<clus scale="   91.535">  7  8 -1 -1</clus>
<clus scale="  101.678">  2  5  1 -1</clus>
<clus scale="   37.197">  1  5  2 -1</clus>
</clustering>
</event>
<event>
 9    1  0.5981539E-005  0.1007824E+03  0.7546771E-02  0.1283887E+00
          1   -1    0    0  502    0 -0.00000000000E+00  0.00000000000E+00  0.40139021117E+03  0.40139021117E+03  0.00000000000E+00 0. -1.
         21   -1    0    0  501  502  0.00000000000E+00 -0.00000000000E+00 -0.17448254762E+03  0.17448254762E+03  0.00000000000E+00 0. -1.
        -24    2    1    2    0    0 -0.15706572064E+02  0.31374434200E+02  0.18256554469E+03  0.20225048936E+03  0.79649424428E+02 0.  0.
         23    2    1    2    0    0  0.39070477651E+02 -0.44092598847E+02  0.19379965136E+03  0.22181588676E+03  0.90406433705E+02 0.  0.
         13    1    3    3    0    0 -0.17057551452E+02  0.57271814869E+02  0.14252438220E+03  0.15454520492E+03  0.00000000000E+00 0. -1.
        -14    1    3    3    0    0  0.13509793874E+01 -0.25897380669E+02  0.40041162484E+02  0.47705284444E+02  0.00000000000E+00 0.  1.
        -13    1    4    4    0    0 -0.27482785050E+02 -0.63496691485E+01  0.78741772383E+02  0.83641428075E+02  0.00000000000E+00 0.  1.
         13    1    4    4    0    0  0.66553262701E+02 -0.37742929698E+02  0.11505787898E+03  0.13817445869E+03  0.00000000000E+00 0. -1.
          2    1    1    2  501    0 -0.23363905587E+02  0.12718164647E+02 -0.14945753250E+03  0.15180638267E+03  0.00000000000E+00 0. -1.
<scales pt_clust_5="13000.00000" pt_clust_6="13000.00000" pt_clust_7="13000.00000" pt_clust_8="13000.00000" pt_clust_9="26.60120"></scales>
<clustering>
<clus scale="   26.601">  2  9  1 -1</clus>
<clus scale="   79.649">  5  6 -1 -1</clus>
<clus scale="   90.406">  7  8 -1 -1</clus>
<clus scale="   91.257">  1  5  2 -1</clus>
<clus scale="   26.601">  2  5  1 -1</clus>
</clustering>
</event>
<event>
 9    1  0.5981539E-005  0.1286703E+03  0.7546771E-02  0.1230543E+00
         21   -1    0    0  501  502  0.00000000000E+00  0.00000000000E+00  0.18817433343E+03  0.18817433343E+03  0.00000000000E+00 0. -1.
          1   -1    0    0  502    0 -0.00000000000E+00 -0.00000000000E+00 -0.15949218865E+03  0.15949218865E+03  0.00000000000E+00 0. -1.
         23    2    1    2    0    0  0.54821521567E+02  0.92555319058E+02 -0.91816489305E+02  0.16008171592E+03  0.74993344700E+02 0.  0.
        -24    2    1    2    0    0 -0.43043511697E+02 -0.67379659503E+02  0.79706329561E+02  0.13822340972E+03  0.79748665254E+02 0.  0.
         13    1    4    4    0    0  0.14327694053E+02 -0.50564146155E+02  0.44342992724E+02  0.68762756613E+02  0.00000000000E+00 0. -1.
        -14    1    4    4    0    0 -0.57371205750E+02 -0.16815513348E+02  0.35363336838E+02  0.69460653112E+02  0.00000000000E+00 0.  1.
        -11    1    3    3    0    0 -0.35550742312E+01  0.24603710286E+02 -0.60118280694E+02  0.65055274854E+02  0.00000000000E+00 0.  1.
         11    1    3    3    0    0  0.58376595798E+02  0.67951608772E+02 -0.31698208611E+02  0.95026441062E+02  0.00000000000E+00 0. -1.
          2    1    1    2  501    0 -0.11778009870E+02 -0.25175659555E+02  0.40792304519E+02  0.49361396440E+02  0.00000000000E+00 0. -1.
<scales pt_clust_5="13000.00000" pt_clust_6="13000.00000" pt_clust_7="13000.00000" pt_clust_8="13000.00000" pt_clust_9="27.79452"></scales>
<clustering>
<clus scale="   27.795">  1  9  2 -1</clus>
<clus scale="   74.993">  7  8 -1 -1</clus>
<clus scale="   79.749">  5  6 -1 -1</clus>
<clus scale="  125.778">  2  7  1 -1</clus>
<clus scale="   27.795">  1  5  2 -1</clus>
</clustering>
</event>
<event>
 9    1  0.5981539E-005  0.1545412E+03  0.7546771E-02  0.1224273E+00
         21   -1    0    0  501  502  0.00000000000E+00  0.00000000000E+00  0.12397823452E+03  0.12397823452E+03  0.00000000000E+00 0. -1.
          1   -1    0    0  502    0 -0.00000000000E+00 -0.00000000000E+00 -0.41182345480E+03  0.41182345480E+03  0.00000000000E+00 0. -1.
        -24    2    1    2    0    0 -0.33707738131E+01 -0.12551127772E+02 -0.61012374277E+02  0.10275100540E+03  0.81647819148E+02 0.  0.
         23    2    1    2    0    0  0.80908925790E+02  0.97459784448E+02  0.22862479210E+02  0.15815179265E+03  0.91894682683E+02 0.  0.
         11    1    3    3    0    0  0.28480890734E+02 -0.31909720811E+02 -0.45299897448E+02  0.62301461684E+02  0.00000000000E+00 0. -1.
        -12    1    3    3    0    0 -0.31851664547E+02  0.19358593039E+02 -0.15712476829E+02  0.40449543718E+02  0.00000000000E+00 0.  1.
        -13    1    4    4    0    0  0.34917335240E+02  0.73919131816E+02 -0.27251839602E+02  0.86173784357E+02  0.00000000000E+00 0.  1.
         13    1    4    4    0    0  0.45991590550E+02  0.23540652631E+02  0.50114318813E+02  0.71978008292E+02  0.00000000000E+00 0. -1.
          2    1    1    2  501    0 -0.77538151977E+02 -0.84908656676E+02 -0.24969532521E+03  0.27489889127E+03  0.00000000000E+00 0. -1.
<scales pt_clust_5="13000.00000" pt_clust_6="13000.00000" pt_clust_7="13000.00000" pt_clust_8="13000.00000" pt_clust_9="124.25126"></scales>
<clustering>
<clus scale="   81.648">  5  6 -1 -1</clus>
<clus scale="   82.676">  2  5  1 -1</clus>
<clus scale="   91.895">  7  8 -1 -1</clus>
<clus scale="  124.251">  1  9  2 -1</clus>
<clus scale="  124.251">  1  5  2 -1</clus>
</clustering>
</event>
<event>
 9    1  0.5981539E-005  0.1292780E+03  0.7546771E-02  0.1232488E+00
          1   -1    0    0  502    0 -0.00000000000E+00  0.00000000000E+00  0.14450760432E+03  0.14450760432E+03  0.00000000000E+00 0. -1.
         21   -1    0    0  501  502  0.00000000000E+00 -0.00000000000E+00 -0.38655483313E+03  0.38655483313E+03  0.00000000000E+00 0.  1.
         23    2    1    2    0    0  0.22741245929E+02  0.97976626345E+02  0.88482295081E+02  0.14818405463E+03  0.63346775190E+02 0.  0.
        -24    2    1    2    0    0 -0.74385313300E+02 -0.87733898880E+02 -0.23756216960E+03  0.27603760350E+03  0.80811894377E+02 0.  0.
         11    1    4    4    0    0 -0.47732204545E+02 -0.22351540336E+02 -0.39788704024E+02  0.66038592308E+02  0.00000000000E+00 0. -1.
        -12    1    4    4    0    0 -0.26653108755E+02 -0.65382358544E+02 -0.19777346558E+03  0.20999901119E+03  0.00000000000E+00 0.  1.
        -13    1    3    3    0    0 -0.75877902868E+01  0.42950814909E+02  0.52963309261E+01  0.43936296886E+02  0.00000000000E+00 0.  1.
         13    1    3    3    0    0  0.30329036216E+02  0.55025811437E+02  0.83185964155E+02  0.10424775774E+03  0.00000000000E+00 0. -1.
          2    1    1    2  501    0  0.51644067371E+02 -0.10242727465E+02 -0.92967354290E+02  0.10684077931E+03  0.00000000000E+00 0. -1.
<scales pt_clust_5="13000.00000" pt_clust_6="13000.00000" pt_clust_7="13000.00000" pt_clust_8="13000.00000" pt_clust_9="52.65001"></scales>
<clustering>
<clus scale="   52.650">  2  9  1 -1</clus>
<clus scale="   63.347">  7  8 -1 -1</clus>
<clus scale="   80.812">  5  6 -1 -1</clus>
<clus scale="  119.143">  1  7  2 -1</clus>
<clus scale="   52.650">  2  5  1 -1</clus>
</clustering>
</event>
<event>
 9    1  0.5981539E-005  0.1279227E+03  0.7546771E-02  0.1234107E+00
         21   -1    0    0  501  502  0.00000000000E+00  0.00000000000E+00  0.32615438875E+02  0.32615438875E+02  0.00000000000E+00 0.  1.
          1   -1    0    0  502    0 -0.00000000000E+00 -0.00000000000E+00 -0.61987436172E+03  0.61987436172E+03  0.00000000000E+00 0. -1.
        -24    2    1    2    0    0  0.72477268609E+02 -0.48544308967E+02 -0.33062208775E+03  0.35086487514E+03  0.78649165930E+02 0.  0.
         23    2    1    2    0    0 -0.88723130118E+02  0.33773298996E+02 -0.18896887672E+03  0.23048377461E+03  0.91657538968E+02 0.  0.
         11    1    3    3    0    0  0.79096854281E+02 -0.15524966344E+02 -0.26669417004E+03  0.27860925554E+03  0.00000000000E+00 0. -1.
        -12    1    3    3    0    0 -0.66195856720E+01 -0.33019342622E+02 -0.63927917703E+02  0.72255619599E+02  0.00000000000E+00 0.  1.
        -13    1    4    4    0    0 -0.64129973688E+02  0.11285727975E+02 -0.36977961637E+02  0.74882513500E+02  0.00000000000E+00 0.  1.
         13    1    4    4    0    0 -0.24593156430E+02  0.22487571022E+02 -0.15199091508E+03  0.15560126112E+03  0.00000000000E+00 0. -1.
          2    1    1    2  501    0  0.16245861510E+02  0.14771009970E+02 -0.67667958381E+02  0.71141150842E+02  0.00000000000E+00 0. -1.
<scales pt_clust_5="13000.00000" pt_clust_6="13000.00000" pt_clust_7="13000.00000" pt_clust_8="13000.00000" pt_clust_9="21.95703"></scales>
<clustering>
<clus scale="   21.957">  1  9  2 -1</clus>
<clus scale="   78.649">  5  6 -1 -1</clus>
<clus scale="   91.658">  7  8 -1 -1</clus>
<clus scale="  118.949">  2  5  1 -1</clus>
<clus scale="   21.957">  1  5  2 -1</clus>
</clustering>
</event>
<event>
 9    1  0.5981539E-005  0.9366563E+02  0.7546771E-02  0.1299938E+00
          3   -1    0    0  502    0 -0.00000000000E+00  0.00000000000E+00  0.28141302900E+03  0.28141302900E+03  0.00000000000E+00 0. -1.
         21   -1    0    0  501  502  0.00000000000E+00 -0.00000000000E+00 -0.76830916569E+02  0.76830916569E+02  0.00000000000E+00 0.  1.
        -24    2    1    2    0    0 -0.25627714460E+02 -0.14745345398E+02  0.38526271293E+02  0.93755462997E+02  0.80197308575E+02 0.  0.
         23    2    1    2    0    0 -0.21232412882E+02  0.40523854009E+02  0.12365255961E+02  0.10175803363E+03  0.90048874245E+02 0.  0.
         13    1    3    3    0    0 -0.12624586067E+02  0.28936362518E+02  0.36324175812E+02  0.48126281776E+02  0.00000000000E+00 0. -1.
        -14    1    3    3    0    0 -0.13003128393E+02 -0.43681707915E+02  0.22020954805E+01  0.45629181221E+02  0.00000000000E+00 0.  1.
        -13    1    4    4    0    0 -0.48859681499E+02  0.52467317161E+01 -0.12235762764E+02  0.50640996834E+02  0.00000000000E+00 0.  1.
         13    1    4    4    0    0  0.27627268617E+02  0.35277122293E+02  0.24601018726E+02  0.51117036796E+02  0.00000000000E+00 0. -1.
          4    1    1    2  501    0  0.46860127342E+02 -0.25778508611E+02  0.15369058518E+03  0.16273044894E+03  0.00000000000E+00 0. -1.
<scales pt_clust_5="13000.00000" pt_clust_6="13000.00000" pt_clust_7="13000.00000" pt_clust_8="13000.00000" pt_clust_9="53.48276"></scales>
<clustering>
<clus scale="   53.483">  2  9  1 -1</clus>
<clus scale="   80.197">  5  6 -1 -1</clus>
<clus scale="   84.238">  1  5  2 -1</clus>
<clus scale="   90.049">  7  8 -1 -1</clus>
<clus scale="   53.483">  2  5  1 -1</clus>
</clustering>
</event>
<event>
 9    1  0.5981539E-005  0.1418178E+03  0.7546771E-02  0.1213193E+00
          3   -1    0    0  502    0 -0.00000000000E+00  0.00000000000E+00  0.31654193405E+03  0.31654193405E+03  0.00000000000E+00 0. -1.
         21   -1    0    0  501  502  0.00000000000E+00 -0.00000000000E+00 -0.19213548802E+03  0.19213548802E+03  0.00000000000E+00 0.  1.
         23    2    1    2    0    0  0.59058788871E+02 -0.99777780442E+02  0.12888155012E+03  0.19591331353E+03  0.91258021255E+02 0.  0.
        -24    2    1    2    0    0 -0.96472036563E+02  0.26977279955E+02 -0.11691996902E+03  0.17368315506E+03  0.80379921147E+02 0.  0.
         13    1    4    4    0    0  0.37538296036E+01  0.26970491059E+02 -0.34291859263E+02  0.43788471500E+02  0.00000000000E+00 0. -1.
        -14    1    4    4    0    0 -0.10022586617E+03  0.67888958314E-02 -0.82628109754E+02  0.12989468356E+03  0.00000000000E+00 0.  1.
        -11    1    3    3    0    0  0.16899914915E+02 -0.97850790803E+02  0.11395304665E+03  0.15114787867E+03  0.00000000000E+00 0. -1.
         11    1    3    3    0    0  0.42158873956E+02 -0.19269896396E+01  0.14928503467E+02  0.44765434859E+02  0.00000000000E+00 0.  1.
          4    1    1    2  501    0  0.37413247692E+02  0.72800500487E+02  0.11244486493E+03  0.13908095349E+03  0.00000000000E+00 0. -1.
<scales pt_clust_5="13000.00000" pt_clust_6="13000.00000" pt_clust_7="13000.00000" pt_clust_8="13000.00000" pt_clust_9="81.85152"></scales>
<clustering>
<clus scale="   80.380">  5  6 -1 -1</clus>
<clus scale="   81.852">  2  9  1 -1</clus>
<clus scale="   91.258">  7  8 -1 -1</clus>
<clus scale="  135.075">  2  5  1 -1</clus>
<clus scale="   81.852">  2  5  1 -1</clus>
</clustering>
</event>
<event>
 9    1  0.5981539E-005  0.9770918E+02  0.7546771E-02  0.1289951E+00
          1   -1    0    0  502    0 -0.00000000000E+00  0.00000000000E+00  0.21978409707E+03  0.21978409707E+03  0.00000000000E+00 0. -1.
         21   -1    0    0  501  502  0.00000000000E+00 -0.00000000000E+00 -0.81053805532E+02  0.81053805532E+02  0.00000000000E+00 0. -1.
         23    2    1    2    0    0  0.32658911919E+01  0.54920142368E+02  0.12609488759E+03  0.16467338081E+03  0.90501456279E+02 0.  0.
        -24    2    1    2    0    0 -0.99694216425E+01 -0.72676059867E+01  0.25804158260E+02  0.86273464134E+02  0.81394401315E+02 0.  0.
         13    1    4    4    0    0 -0.19878686786E+02  0.31200829832E+02 -0.31319150329E+01  0.37127656300E+02  0.00000000000E+00 0. -1.
        -14    1    4    4    0    0  0.99092651435E+01 -0.38468435819E+02  0.28936073293E+02  0.49145807834E+02  0.00000000000E+00 0.  1.
        -13    1    3    3    0    0 -0.16562829247E+02 -0.13596563619E+02  0.19771054887E+01  0.21519823443E+02  0.00000000000E+00 0.  1.
         13    1    3    3    0    0  0.19828720439E+02  0.68516705987E+02  0.12411778210E+03  0.14315355737E+03  0.00000000000E+00 0. -1.
          2    1    1    2  501    0  0.67035304506E+01 -0.47652536381E+02 -0.13168754311E+02  0.49891057657E+02  0.00000000000E+00 0. -1.
<scales pt_clust_5="13000.00000" pt_clust_6="13000.00000" pt_clust_7="13000.00000" pt_clust_8="13000.00000" pt_clust_9="48.12174"></scales>
<clustering>
<clus scale="   48.122">  2  9  1 -1</clus>
<clus scale="   81.394">  5  6 -1 -1</clus>
<clus scale="   89.340">  2  5  1 -1</clus>
<clus scale="   90.501">  7  8 -1 -1</clus>
<clus scale="   48.122">  2  5  1 -1</clus>
</clustering>
</event>
<event>
 9    1  0.5981539E-005  0.9249290E+02  0.7546771E-02  0.1304862E+00
         21   -1    0    0  501  502  0.00000000000E+00  0.00000000000E+00  0.66320436806E+02  0.66320436806E+02  0.00000000000E+00 0. -1.
          1   -1    0    0  502    0 -0.00000000000E+00 -0.00000000000E+00 -0.61102741595E+03  0.61102741595E+03  0.00000000000E+00 0. -1.
        -24    2    1    2    0    0  0.42902597786E+01 -0.19060492596E+02 -0.54159218165E+03  0.54749501586E+03  0.77762410359E+02 0.  0.
         23    2    1    2    0    0  0.27923384184E+02  0.67296112950E+01 -0.58029523547E+01  0.95255211720E+02  0.90635964447E+02 0.  0.
         11    1    3    3    0    0 -0.52432890343E+01 -0.47638732561E+02 -0.26825681536E+03  0.27250442181E+03  0.00000000000E+00 0. -1.
        -12    1    3    3    0    0  0.95335488129E+01  0.28578239965E+02 -0.27333536629E+03  0.27499059405E+03  0.00000000000E+00 0.  1.
        -13    1    4    4    0    0  0.15388422925E+02  0.28960905194E+02 -0.40543894075E+02  0.52147338729E+02  0.00000000000E+00 0.  1.
         13    1    4    4    0    0  0.12534961259E+02 -0.22231293899E+02  0.34740941720E+02  0.43107872991E+02  0.00000000000E+00 0. -1.
          2    1    1    2  501    0 -0.32213643962E+02  0.12330881301E+02  0.26881548598E+01  0.34597625172E+02  0.00000000000E+00 0. -1.
<scales pt_clust_5="13000.00000" pt_clust_6="13000.00000" pt_clust_7="13000.00000" pt_clust_8="13000.00000" pt_clust_9="34.49304"></scales>
<clustering>
<clus scale="   34.493">  1  9  2 -1</clus>
<clus scale="   77.762">  5  6 -1 -1</clus>
<clus scale="   79.919">  2  5  1 -1</clus>
<clus scale="   90.636">  7  8 -1 -1</clus>
<clus scale="   34.493">  1  5  2 -1</clus>
</clustering>
</event>
<event>
 9    1  0.5981539E-005  0.1165773E+03  0.7546771E-02  0.1252881E+00
         21   -1    0    0  501  502  0.00000000000E+00  0.00000000000E+00  0.35045979288E+03  0.35045979288E+03  0.00000000000E+00 0.  1.
         -2   -1    0    0    0  501 -0.00000000000E+00 -0.00000000000E+00 -0.68067999588E+02  0.68067999588E+02  0.00000000000E+00 0.  1.
        -24    2    1    2    0    0 -0.44541403972E+02  0.52234725721E+02  0.33769597493E+02  0.10996933232E+03  0.78996614460E+02 0.  0.
         23    2    1    2    0    0  0.39168356656E+02 -0.82430630491E+02  0.24612685456E+03  0.27778689812E+03  0.90874436571E+02 0.  0.
         11    1    3    3    0    0 -0.38294397441E+02  0.79182203828E+01 -0.16694138484E+02  0.42518858746E+02  0.00000000000E+00 0. -1.
        -12    1    3    3    0    0 -0.62470065312E+01  0.44316505338E+02  0.50463735977E+02  0.67450473569E+02  0.00000000000E+00 0.  1.
        -11    1    4    4    0    0  0.27926927575E+02 -0.10180690183E+03  0.21398806197E+03  0.23861150268E+03  0.00000000000E+00 0.  1.
         11    1    4    4    0    0  0.11241429081E+02  0.19376271335E+02  0.32138792586E+02  0.39175395436E+02  0.00000000000E+00 0. -1.
         -1    1    1    2    0  502  0.53730473156E+01  0.30195904770E+02  0.24953412393E+01  0.30771562038E+02  0.00000000000E+00 0.  1.
<scales pt_clust_5="13000.00000" pt_clust_6="13000.00000" pt_clust_7="13000.00000" pt_clust_8="13000.00000" pt_clust_9="30.67023"></scales>
<clustering>
<clus scale="   30.670">  1  9  2 -1</clus>
<clus scale="   78.997">  5  6 -1 -1</clus>
<clus scale="   90.874">  7  8 -1 -1</clus>
<clus scale="  107.576">  2  5  1 -1</clus>
<clus scale="   30.670">  1  5  2 -1</clus>
</clustering>
</event>
<event>
 9    1  0.5981539E-005  0.1378416E+03  0.7546771E-02  0.1218708E+00
         -2   -1    0    0    0  501 -0.00000000000E+00  0.00000000000E+00  0.15060446919E+03  0.15060446919E+03  0.00000000000E+00 0.  1.
         21   -1    0    0  501  502  0.00000000000E+00 -0.00000000000E+00 -0.35647904807E+03  0.35647904807E+03  0.00000000000E+00 0.  1.
        -24    2    1    2    0    0 -0.77769405770E+02 -0.65623493261E+02 -0.39280794451E+02  0.13517049382E+03  0.79834567990E+02 0.  0.
         23    2    1    2    0    0  0.50965715648E+01  0.14050282656E+03 -0.20146197498E+03  0.26189463361E+03  0.90746087719E+02 0.  0.
         13    1    3    3    0    0 -0.37025511866E+02 -0.72198230077E+02 -0.46129863538E+02  0.93335080572E+02  0.00000000000E+00 0. -1.
        -14    1    3    3    0    0 -0.40743893903E+02  0.65747368163E+01  0.68490690867E+01  0.41835413252E+02  0.00000000000E+00 0.  1.
        -11    1    4    4    0    0  0.24851015234E+02  0.15614112185E+02 -0.85249155519E+02  0.90159813521E+02  0.00000000000E+00 0. -1.
         11    1    4    4    0    0 -0.19754443669E+02  0.12488871438E+03 -0.11621281946E+03  0.17173482009E+03  0.00000000000E+00 0.  1.
         -1    1    1    2    0  502  0.72672834205E+02 -0.74879333300E+02  0.34868190559E+02  0.11001838982E+03  0.00000000000E+00 0.  1.
<scales pt_clust_5="13000.00000" pt_clust_6="13000.00000" pt_clust_7="13000.00000" pt_clust_8="13000.00000" pt_clust_9="104.34686"></scales>
<clustering>
<clus scale="   79.835">  5  6 -1 -1</clus>
<clus scale="   90.746">  7  8 -1 -1</clus>
<clus scale="  104.347">  2  9  1 -1</clus>
<clus scale="  130.916">  1  5  2 -1</clus>
<clus scale="  104.347">  2  5  1 -1</clus>
</clustering>
</event>
<event>
 9    1  0.5981539E-005  0.1013087E+03  0.7546771E-02  0.1284334E+00
         -4   -1    0    0    0  501 -0.00000000000E+00  0.00000000000E+00  0.47167309424E+03  0.47167309424E+03  0.00000000000E+00 0.  1.
         21   -1    0    0  501  502  0.00000000000E+00 -0.00000000000E+00 -0.30476689977E+02  0.30476689977E+02  0.00000000000E+00 0. -1.
        -24    2    1    2    0    0  0.48195756489E+02 -0.18580230595E+02  0.28094365804E+03  0.29566896083E+03  0.76306877088E+02 0.  0.
         23    2    1    2    0    0 -0.31769132765E+02 -0.68912686082E+00  0.88356374628E+02  0.13025595637E+03  0.90277419878E+02 0.  0.
         11    1    3    3    0    0  0.17509217583E+01  0.25449568638E+02  0.11538641530E+03  0.11817263265E+03  0.00000000000E+00 0. -1.
        -12    1    3    3    0    0  0.46444834730E+02 -0.44029799233E+02  0.16555724274E+03  0.17749632818E+03  0.00000000000E+00 0.  1.
        -11    1    4    4    0    0 -0.34746861495E+02  0.37966564274E+02  0.28193352693E+02  0.58682787277E+02  0.00000000000E+00 0. -1.
         11    1    4    4    0    0  0.29777287298E+01 -0.38655691135E+02  0.60163021935E+02  0.71573169092E+02  0.00000000000E+00 0.  1.
         -3    1    1    2    0  502 -0.16426623724E+02  0.19269357455E+02  0.71896371586E+02  0.76224867012E+02  0.00000000000E+00 0.  1.
<scales pt_clust_5="13000.00000" pt_clust_6="13000.00000" pt_clust_7="13000.00000" pt_clust_8="13000.00000" pt_clust_9="25.32080"></scales>
<clustering>
<clus scale="   25.321">  2  9  1 -1</clus>
<clus scale="   76.307">  5  6 -1 -1</clus>
<clus scale="   89.085">  1  5  2 -1</clus>
<clus scale="   90.277">  7  8 -1 -1</clus>
<clus scale="   25.321">  2  5  1 -1</clus>
</clustering>
</event>
<event>
 9    1  0.5981539E-005  0.9699210E+02  0.7546771E-02  0.1293103E+00
         -2   -1    0    0    0  501 -0.00000000000E+00  0.00000000000E+00  0.10102993216E+03  0.10102993216E+03  0.00000000000E+00 0.  1.
         21   -1    0    0  501  502  0.00000000000E+00 -0.00000000000E+00 -0.25007084287E+03  0.25007084287E+03  0.00000000000E+00 0. -1.
         23    2    1    2    0    0 -0.33923327151E+02  0.90607514124E+01 -0.17352983412E+02  0.96933474165E+02  0.88668388049E+02 0.  0.
        -24    2    1    2    0    0  0.42020598749E+02  0.76669294171E+02 -0.12092095674E+03  0.16738519339E+03  0.75842031877E+02 0.  0.
         11    1    4    4    0    0  0.46653136024E+01  0.22564745181E+02 -0.93245734726E+02  0.96050507134E+02  0.00000000000E+00 0. -1.
        -12    1    4    4    0    0  0.37355285146E+02  0.54104548990E+02 -0.27675222016E+02  0.71334686257E+02  0.00000000000E+00 0.  1.
        -13    1    3    3    0    0 -0.64047647477E+02  0.27011381117E+01 -0.16217899472E+02  0.66124258466E+02  0.00000000000E+00 0.  1.
         13    1    3    3    0    0  0.30124320326E+02  0.63596133007E+01 -0.11350839394E+01  0.30809215699E+02  0.00000000000E+00 0. -1.
         -1    1    1    2    0  502 -0.80972715977E+01 -0.85730045583E+02 -0.10766970561E+02  0.86782107477E+02  0.00000000000E+00 0.  1.
<scales pt_clust_5="13000.00000" pt_clust_6="13000.00000" pt_clust_7="13000.00000" pt_clust_8="13000.00000" pt_clust_9="86.11164"></scales>
<clustering>
<clus scale="   75.842">  5  6 -1 -1</clus>
<clus scale="   86.112">  2  9  1 -1</clus>
<clus scale="   86.112">  2  5  1 -1</clus>
<clus scale="   88.668">  7  8 -1 -1</clus>
<clus scale="   86.112">  2  5  1 -1</clus>
</clustering>
</event>
<event>
 9    1  0.5981539E-005  0.1880046E+03  0.7546771E-02  0.1161527E+00
         21   -1    0    0  501  502  0.00000000000E+00  0.00000000000E+00  0.40115571593E+03  0.40115571593E+03  0.00000000000E+00 0.  1.
         -4   -1    0    0    0  501 -0.00000000000E+00 -0.00000000000E+00 -0.23733414466E+03  0.23733414466E+03  0.00000000000E+00 0.  1.
        -24    2    1    2    0    0 -0.49966573100E+02  0.15357371841E+03 -0.83569997758E+02  0.19833387495E+03  0.79188610395E+02 0.  0.
         23    2    1    2    0    0 -0.57621051300E+02 -0.19957467132E+03  0.22796748271E+03  0.32154536334E+03  0.90950604862E+02 0.  0.
         11    1    3    3    0    0  0.16206767605E+01  0.77575781498E+02 -0.55028826513E+01  0.77787596605E+02  0.00000000000E+00 0. -1.
        -12    1    3    3    0    0 -0.51587249860E+02  0.75997936909E+02 -0.78067115107E+02  0.12054627835E+03  0.00000000000E+00 0.  1.
        -13    1    4    4    0    0  0.23292325290E+02 -0.39138407545E+02  0.31959325697E+02  0.55639427222E+02  0.00000000000E+00 0. -1.
         13    1    4    4    0    0 -0.80913376591E+02 -0.16043626378E+03  0.19600815701E+03  0.26590593612E+03  0.00000000000E+00 0.  1.
         -3    1    1    2    0  502  0.10758762440E+03  0.46000952918E+02  0.19424086318E+02  0.11861062230E+03  0.00000000000E+00 0.  1.
<scales pt_clust_5="13000.00000" pt_clust_6="13000.00000" pt_clust_7="13000.00000" pt_clust_8="13000.00000" pt_clust_9="117.00939"></scales>
<clustering>
<clus scale="   79.189">  5  6 -1 -1</clus>
<clus scale="   90.951">  7  8 -1 -1</clus>
<clus scale="  117.009">  1  9  2 -1</clus>
<clus scale="  182.605">  2  5  1 -1</clus>
<clus scale="  117.009">  1  5  2 -1</clus>
</clustering>
</event>
<event>
 9    1  0.5981539E-005  0.1380917E+03  0.7546771E-02  0.1225742E+00
          3   -1    0    0  502    0 -0.00000000000E+00  0.00000000000E+00  0.50622182078E+03  0.50622182078E+03  0.00000000000E+00 0. -1.
         21   -1    0    0  501  502  0.00000000000E+00 -0.00000000000E+00 -0.19311444064E+03  0.19311444064E+03  0.00000000000E+00 0. -1.
        -24    2    1    2    0    0  0.20439406371E+02  0.98902966142E+02  0.37591694569E+03  0.39248669921E+03  0.50325867705E+02 0.  0.
         23    2    1    2    0    0 -0.12146435406E+03 -0.65433550809E+02 -0.99000347771E+02  0.19443953359E+03  0.94712852792E+02 0.  0.
         11    1    3    3    0    0  0.19783705292E+02  0.10111162209E+03  0.31286283407E+03  0.32939050997E+03  0.00000000000E+00 0. -1.
        -12    1    3    3    0    0  0.65570107952E+00 -0.22086559497E+01  0.63054111617E+02  0.63096189241E+02  0.00000000000E+00 0.  1.
        -11    1    4    4    0    0 -0.33029340513E+02 -0.71305143648E+02 -0.50438912654E+02  0.93377967182E+02  0.00000000000E+00 0. -1.
         11    1    4    4    0    0 -0.88435013545E+02  0.58715928398E+01 -0.48561435117E+02  0.10106156640E+03  0.00000000000E+00 0.  1.
          4    1    1    2  501    0  0.10102494769E+03 -0.33469415334E+02  0.36190782221E+02  0.11241002863E+03  0.00000000000E+00 0. -1.
<scales pt_clust_5="13000.00000" pt_clust_6="13000.00000" pt_clust_7="13000.00000" pt_clust_8="13000.00000" pt_clust_9="106.42482"></scales>
<clustering>
<clus scale="   50.326">  5  6 -1 -1</clus>
<clus scale="   94.713">  7  8 -1 -1</clus>
<clus scale="  106.425">  2  9  1 -1</clus>
<clus scale="  112.390">  1  5  2 -1</clus>
<clus scale="  106.425">  2  5  1 -1</clus>
</clustering>
</event>
<event>
 9    1  0.5981539E-005  0.1635928E+03  0.7546771E-02  0.1210761E+00
          1   -1    0    0  502    0 -0.00000000000E+00  0.00000000000E+00  0.12671158732E+04  0.12671158732E+04  0.00000000000E+00 0. -1.
         21   -1    0    0  501  502  0.00000000000E+00 -0.00000000000E+00 -0.39529397702E+02  0.39529397702E+02  0.00000000000E+00 0. -1.
        -24    2    1    2    0    0  0.76576318402E+01 -0.39727760330E+02  0.96197742674E+02  0.13357535103E+03  0.83375262771E+02 0.  0.
         23    2    1    2    0    0  0.55898306578E+02  0.14730418079E+03  0.74654926468E+03  0.76845472021E+03  0.91453321807E+02 0.  0.
         13    1    3    3    0    0  0.36276896624E+02 -0.49843657588E+02  0.71777134194E+02  0.94616914046E+02  0.00000000000E+00 0. -1.
        -14    1    3    3    0    0 -0.28619264783E+02  0.10115897258E+02  0.24420608480E+02  0.38958436989E+02  0.00000000000E+00 0.  1.
        -13    1    4    4    0    0 -0.23271039717E+02  0.58846352517E+02  0.27606613272E+03  0.28322595949E+03  0.00000000000E+00 0.  1.
         13    1    4    4    0    0  0.79169346295E+02  0.88457828276E+02  0.47048313195E+03  0.48522876072E+03  0.00000000000E+00 0. -1.
          2    1    1    2  501    0 -0.63555938418E+02 -0.10757642046E+03  0.38483946814E+03  0.40461519965E+03  0.00000000000E+00 0. -1.
<scales pt_clust_5="13000.00000" pt_clust_6="13000.00000" pt_clust_7="13000.00000" pt_clust_8="13000.00000" pt_clust_9="135.64250"></scales>
<clustering>
<clus scale="   83.375">  5  6 -1 -1</clus>
<clus scale="   91.453">  7  8 -1 -1</clus>
<clus scale="   92.673">  1  5  2 -1</clus>
<clus scale="  135.642">  2  9  1 -1</clus>
<clus scale="  135.642">  2  5  1 -1</clus>
</clustering>
</event>
<event>
 9    1  0.5981539E-005  0.9788995E+02  0.7546771E-02  0.1290950E+00
         -2   -1    0    0    0  501 -0.00000000000E+00  0.00000000000E+00  0.95470924828E+02  0.95470924828E+02  0.00000000000E+00 0.  1.
         21   -1    0    0  501  502  0.00000000000E+00 -0.00000000000E+00 -0.32949254268E+03  0.32949254268E+03  0.00000000000E+00 0.  1.
        -24    2    1    2    0    0 -0.27781692765E+02  0.64631136468E+01  0.33153159892E+02  0.91224425091E+02  0.80057288435E+02 0.  0.
         23    2    1    2    0    0  0.81087842657E+02 -0.32137299548E+02 -0.23377907268E+03  0.26579801979E+03  0.91585415083E+02 0.  0.
         13    1    3    3    0    0 -0.40842491989E+02  0.23979431192E+02 -0.46206981823E+01  0.47586480473E+02  0.00000000000E+00 0. -1.
        -14    1    3    3    0    0  0.13060799224E+02 -0.17516317545E+02  0.37773858074E+02  0.43637944618E+02  0.00000000000E+00 0.  1.
        -13    1    4    4    0    0  0.17391251377E+02  0.20769944581E+02 -0.13120739457E+03  0.13397472378E+03  0.00000000000E+00 0. -1.
         13    1    4    4    0    0  0.63696591280E+02 -0.52907244129E+02 -0.10257167810E+03  0.13182329601E+03  0.00000000000E+00 0.  1.
         -1    1    1    2    0  502 -0.53306149892E+02  0.25674185901E+02 -0.33395705065E+02  0.67941022621E+02  0.00000000000E+00 0.  1.
<scales pt_clust_5="13000.00000" pt_clust_6="13000.00000" pt_clust_7="13000.00000" pt_clust_8="13000.00000" pt_clust_9="59.16682"></scales>
<clustering>
<clus scale="   59.167">  2  9  1 -1</clus>
<clus scale="   80.057">  5  6 -1 -1</clus>
<clus scale="   87.199">  1  5  2 -1</clus>
<clus scale="   91.585">  7  8 -1 -1</clus>
<clus scale="   59.167">  2  5  1 -1</clus>
</clustering>
</event>
<event>
 9    1  0.5981539E-005  0.1818056E+03  0.7546771E-02  0.1195760E+00
         21   -1    0    0  501  502  0.00000000000E+00  0.00000000000E+00  0.40225490516E+02  0.40225490516E+02  0.00000000000E+00 0. -1.
         -2   -1    0    0    0  501 -0.00000000000E+00 -0.00000000000E+00 -0.20003239786E+04  0.20003239786E+04  0.00000000000E+00 0.  1.
         23    2    1    2    0    0  0.22673821202E+02 -0.17616305038E+02 -0.71520696592E+02  0.11760286663E+03  0.88830106543E+02 0.  0.
        -24    2    1    2    0    0  0.15311568099E+03  0.27215441280E+02 -0.70945945148E+03  0.73075779518E+03  0.80555260025E+02 0.  0.
         11    1    4    4    0    0  0.10778250397E+03 -0.15555899398E+02 -0.52101446881E+03  0.53227354892E+03  0.00000000000E+00 0. -1.
        -12    1    4    4    0    0  0.45333177015E+02  0.42771340678E+02 -0.18844498267E+03  0.19848424626E+03  0.00000000000E+00 0.  1.
        -11    1    3    3    0    0  0.41356518916E+00  0.28357620375E+02 -0.58312186192E+02  0.64843170249E+02  0.00000000000E+00 0.  1.
         11    1    3    3    0    0  0.22260256013E+02 -0.45973925412E+02 -0.13208510400E+02  0.52759696384E+02  0.00000000000E+00 0. -1.
         -1    1    1    2    0  502 -0.17578950219E+03 -0.95991362420E+01 -0.11791183400E+04  0.11921888073E+04  0.00000000000E+00 0.  1.
<scales pt_clust_5="13000.00000" pt_clust_6="13000.00000" pt_clust_7="13000.00000" pt_clust_8="13000.00000" pt_clust_9="162.98512"></scales>
<clustering>
<clus scale="   80.555">  5  6 -1 -1</clus>
<clus scale="   88.830">  7  8 -1 -1</clus>
<clus scale="   93.355">  2  7  1 -1</clus>
<clus scale="  162.985">  1  9  2 -1</clus>
<clus scale="  162.985">  1  5  2 -1</clus>
</clustering>
</event>
<event>
 9    1  0.5981539E-005  0.1225665E+03  0.7546771E-02  0.1241746E+00
         21   -1    0    0  501  502  0.00000000000E+00  0.00000000000E+00  0.86541670609E+02  0.86541670609E+02  0.00000000000E+00 0. -1.
          1   -1    0    0  502    0 -0.00000000000E+00 -0.00000000000E+00 -0.24676268034E+03  0.24676268034E+03  0.00000000000E+00 0. -1.
        -24    2    1    2    0    0  0.78983014212E+02 -0.63304116017E+02 -0.11407091360E+03  0.17232452865E+03  0.80236165188E+02 0.  0.
         23    2    1    2    0    0 -0.51419180139E+02  0.26319776445E+02 -0.22418253732E+02  0.10910683640E+03  0.89805684294E+02 0.  0.
         13    1    3    3    0    0  0.84278790607E+02 -0.33188076301E+02 -0.55436906372E+02  0.10619610889E+03  0.00000000000E+00 0. -1.
        -14    1    3    3    0    0 -0.52957763945E+01 -0.30116039716E+02 -0.58634007233E+02  0.66128419760E+02  0.00000000000E+00 0.  1.
        -13    1    4    4    0    0 -0.71333182856E+02  0.39828223719E+02 -0.23523716875E+02  0.85018090055E+02  0.00000000000E+00 0. -1.
         13    1    4    4    0    0  0.19914002717E+02 -0.13508447274E+02  0.11054631436E+01  0.24088746350E+02  0.00000000000E+00 0.  1.
          2    1    1    2  501    0 -0.27563834073E+02  0.36984339572E+02 -0.23731842392E+02  0.51872985895E+02  0.00000000000E+00 0. -1.
<scales pt_clust_5="13000.00000" pt_clust_6="13000.00000" pt_clust_7="13000.00000" pt_clust_8="13000.00000" pt_clust_9="46.12598"></scales>
<clustering>
<clus scale="   46.126">  1  9  2 -1</clus>
<clus scale="   80.236">  5  6 -1 -1</clus>
<clus scale="   89.806">  7  8 -1 -1</clus>
<clus scale="  115.738">  2  5  1 -1</clus>
<clus scale="   46.126">  1  5  2 -1</clus>
</clustering>
</event>
<event>
 9    1  0.5981539E-005  0.9881718E+02  0.7546771E-02  0.1286111E+00
          1   -1    0    0  502    0 -0.00000000000E+00  0.00000000000E+00  0.53400663277E+03  0.53400663277E+03  0.00000000000E+00 0. -1.
         21   -1    0    0  501  502  0.00000000000E+00 -0.00000000000E+00 -0.30727639248E+02  0.30727639248E+02  0.00000000000E+00 0. -1.
        -24    2    1    2    0    0  0.12579911371E+02  0.36757579713E+02  0.26994298660E+03  0.28609736769E+03  0.86447174323E+02 0.  0.
         23    2    1    2    0    0  0.17857942613E+02 -0.25420668725E+02  0.94574795879E+02  0.13612493221E+03  0.92846586591E+02 0.  0.
         13    1    3    3    0    0  0.46679665132E+02  0.21224284559E+02  0.20304518349E+03  0.20942017078E+03  0.00000000000E+00 0. -1.
        -14    1    3    3    0    0 -0.34099753761E+02  0.15533295154E+02  0.66897803118E+02  0.76677196916E+02  0.00000000000E+00 0.  1.
        -13    1    4    4    0    0  0.88308401621E+01  0.31433332383E+02  0.10628357997E+02  0.34336571122E+02  0.00000000000E+00 0.  1.
         13    1    4    4    0    0  0.90271024510E+01 -0.56854001107E+02  0.83946437882E+02  0.10178836109E+03  0.00000000000E+00 0. -1.
          2    1    1    2  501    0 -0.30437853984E+02 -0.11336910989E+02  0.13876121104E+03  0.14251197211E+03  0.00000000000E+00 0. -1.
<scales pt_clust_5="13000.00000" pt_clust_6="13000.00000" pt_clust_7="13000.00000" pt_clust_8="13000.00000" pt_clust_9="32.48060"></scales>
<clustering>
<clus scale="   32.481">  2  9  1 -1</clus>
<clus scale="   86.447">  5  6 -1 -1</clus>
<clus scale="   92.830">  1  5  2 -1</clus>
<clus scale="   92.847">  7  8 -1 -1</clus>
<clus scale="   32.481">  2  5  1 -1</clus>
</clustering>
</event>
<event>
 9    1  0.5981539E-005  0.1217374E+03  0.7546771E-02  0.1245303E+00
         21   -1    0    0  501  502  0.00000000000E+00  0.00000000000E+00  0.50725495230E+03  0.50725495230E+03  0.00000000000E+00 0. -1.
         -4   -1    0    0    0  501 -0.00000000000E+00 -0.00000000000E+00 -0.67318408766E+02  0.67318408766E+02  0.00000000000E+00 0.  1.
         23    2    1    2    0    0 -0.45301040573E+02  0.22852218206E+02  0.12967160966E+03  0.16905941857E+03  0.95874670801E+02 0.  0.
        -24    2    1    2    0    0  0.12682569512E+03  0.32369764949E+02  0.23847716504E+03  0.28365656489E+03  0.80356268793E+02 0.  0.
         13    1    4    4    0    0  0.37688146844E+02  0.33978425827E+02  0.14875890817E+03  0.15717551525E+03  0.00000000000E+00 0. -1.
        -14    1    4    4    0    0  0.89137548278E+02 -0.16086608774E+01  0.89718256875E+02  0.12648104965E+03  0.00000000000E+00 0.  1.
        -13    1    3    3    0    0 -0.37878220256E+02 -0.34024502080E+02  0.66086914585E+02  0.83426054629E+02  0.00000000000E+00 0.  1.
         13    1    3    3    0    0 -0.74228203171E+01  0.56876720286E+02  0.63584695078E+02  0.85633363942E+02  0.00000000000E+00 0. -1.
         -3    1    1    2    0  502 -0.81524654549E+02 -0.55221983155E+02  0.71787768832E+02  0.12185737760E+03  0.00000000000E+00 0.  1.
<scales pt_clust_5="13000.00000" pt_clust_6="13000.00000" pt_clust_7="13000.00000" pt_clust_8="13000.00000" pt_clust_9="98.46698"></scales>
<clustering>
<clus scale="   80.356">  5  6 -1 -1</clus>
<clus scale="   95.875">  7  8 -1 -1</clus>
<clus scale="   98.467">  1  9  2 -1</clus>
<clus scale="  109.933">  1  5  2 -1</clus>
<clus scale="   98.467">  1  5  2 -1</clus>
</clustering>
</event>
<event>
 9    1  0.5981539E-005  0.9397805E+02  0.7546771E-02  0.1300751E+00
         -2   -1    0    0    0  501 -0.00000000000E+00  0.00000000000E+00  0.14339570361E+03  0.14339570361E+03  0.00000000000E+00 0.  1.
         21   -1    0    0  501  502  0.00000000000E+00 -0.00000000000E+00 -0.94399720046E+02  0.94399720046E+02  0.00000000000E+00 0. -1.
        -24    2    1    2    0    0  0.44812828181E+01  0.12626221328E+02  0.81257980319E+02  0.11539375336E+03  0.80829175353E+02 0.  0.
         23    2    1    2    0    0  0.14567742664E+02 -0.22510775114E+02 -0.26555087474E+02  0.10019494634E+03  0.92816488188E+02 0.  0.
         13    1    3    3    0    0  0.21080936777E+01 -0.32819602018E+02  0.51210292703E+02  0.60861025413E+02  0.00000000000E+00 0. -1.
        -14    1    3    3    0    0  0.23731891404E+01  0.45445823346E+02  0.30047687616E+02  0.54532727947E+02  0.00000000000E+00 0.  1.
        -13    1    4    4    0    0 -0.23290232330E+02 -0.31571826615E+02  0.16135308101E+02  0.42421260299E+02  0.00000000000E+00 0.  1.
         13    1    4    4    0    0  0.37857974993E+02  0.90610515009E+01 -0.42690395575E+02  0.57773686045E+02  0.00000000000E+00 0. -1.
         -1    1    1    2    0  502 -0.19049025482E+02  0.98845537859E+01 -0.57069092772E+01  0.22206723956E+02  0.00000000000E+00 0.  1.
<scales pt_clust_5="13000.00000" pt_clust_6="13000.00000" pt_clust_7="13000.00000" pt_clust_8="13000.00000" pt_clust_9="21.46089"></scales>
<clustering>
<clus scale="   21.461">  2  9  1 -1</clus>
<clus scale="   80.829">  5  6 -1 -1</clus>
<clus scale="   82.160">  1  5  2 -1</clus>
<clus scale="   92.816">  7  8 -1 -1</clus>
<clus scale="   21.461">  2  5  1 -1</clus>
</clustering>
</event>
<event>
 9    1  0.5981539E-005  0.1786614E+03  0.7546771E-02  0.1191201E+00
         21   -1    0    0  501  502  0.00000000000E+00  0.00000000000E+00  0.70524053038E+02  0.70524053038E+02  0.00000000000E+00 0. -1.
          3   -1    0    0  502    0 -0.00000000000E+00 -0.00000000000E+00 -0.78409599493E+03  0.78409599493E+03  0.00000000000E+00 0. -1.
        -24    2    1    2    0    0  0.70378267871E+02 -0.38896228992E+01 -0.15048229975E+03  0.18565416229E+03  0.82790794659E+02 0.  0.
         23    2    1    2    0    0 -0.12347669819E+03 -0.13221574798E+03 -0.41058996358E+03  0.45777813215E+03  0.90825112546E+02 0.  0.
         13    1    3    3    0    0  0.85556490559E+02 -0.76298076785E+01 -0.14599756923E+03  0.16939131401E+03  0.00000000000E+00 0. -1.
        -14    1    3    3    0    0 -0.15178222687E+02  0.37401847794E+01 -0.44847305250E+01  0.16262848275E+02  0.00000000000E+00 0.  1.
        -11    1    4    4    0    0 -0.27472630665E+02  0.53446052230E+01 -0.26020384780E+02  0.38214796411E+02  0.00000000000E+00 0.  1.
         11    1    4    4    0    0 -0.96004067524E+02 -0.13756035320E+03 -0.38456957880E+03  0.41956333574E+03  0.00000000000E+00 0. -1.
          4    1    1    2  501    0  0.53098430318E+02  0.13610537088E+03 -0.15249967856E+03  0.21118775354E+03  0.00000000000E+00 0. -1.
<scales pt_clust_5="13000.00000" pt_clust_6="13000.00000" pt_clust_7="13000.00000" pt_clust_8="13000.00000" pt_clust_9="153.85285"></scales>
<clustering>
<clus scale="   82.791">  5  6 -1 -1</clus>
<clus scale="   90.825">  7  8 -1 -1</clus>
<clus scale="  108.732">  2  5  1 -1</clus>
<clus scale="  153.853">  1  9  2 -1</clus>
<clus scale="  153.853">  1  5  2 -1</clus>
</clustering>
</event>
<event>
 9    1  0.5981539E-005  0.9701124E+02  0.7546771E-02  0.1290946E+00
          3   -1    0    0  502    0 -0.00000000000E+00  0.00000000000E+00  0.21708942819E+03  0.21708942819E+03  0.00000000000E+00 0. -1.
         21   -1    0    0  501  502  0.00000000000E+00 -0.00000000000E+00 -0.16130256712E+03  0.16130256712E+03  0.00000000000E+00 0. -1.
        -24    2    1    2    0    0  0.16368882882E+02  0.36888683342E+02  0.11973485122E+03  0.15109269123E+03  0.82848364257E+02 0.  0.
         23    2    1    2    0    0  0.36030608397E+02  0.41534482226E+01 -0.10937457628E+03  0.14671557138E+03  0.90814123766E+02 0.  0.
         13    1    3    3    0    0  0.15420444787E+02  0.58624837262E+02  0.11314352414E+03  0.12835933435E+03  0.00000000000E+00 0. -1.
        -14    1    3    3    0    0  0.94843809539E+00 -0.21736153920E+02  0.65913270842E+01  0.22733356875E+02  0.00000000000E+00 0.  1.
        -11    1    4    4    0    0  0.53743146293E+02 -0.25603411433E+02 -0.48949672571E+02  0.77070947155E+02  0.00000000000E+00 0.  1.
         11    1    4    4    0    0 -0.17712537896E+02  0.29756859656E+02 -0.60424903710E+02  0.69644624226E+02  0.00000000000E+00 0. -1.
          4    1    1    2  501    0 -0.52399491279E+02 -0.41042131564E+02  0.45426586124E+02  0.80583732704E+02  0.00000000000E+00 0. -1.
<scales pt_clust_5="13000.00000" pt_clust_6="13000.00000" pt_clust_7="13000.00000" pt_clust_8="13000.00000" pt_clust_9="66.55950"></scales>
<clustering>
<clus scale="   66.560">  2  9  1 -1</clus>
<clus scale="   82.848">  5  6 -1 -1</clus>
<clus scale="   89.598">  1  5  2 -1</clus>
<clus scale="   90.814">  7  8 -1 -1</clus>
<clus scale="   66.560">  2  5  1 -1</clus>
</clustering>
</event>
<event>
 9    1  0.5981539E-005  0.1418637E+03  0.7546771E-02  0.1211650E+00
         21   -1    0    0  501  502  0.00000000000E+00  0.00000000000E+00  0.67774353088E+02  0.67774353088E+02  0.00000000000E+00 0. -1.
          3   -1    0    0  502    0 -0.00000000000E+00 -0.00000000000E+00 -0.70710441431E+03  0.70710441431E+03  0.00000000000E+00 0. -1.
         23    2    1    2    0    0 -0.88754704449E+02  0.83022255359E+02 -0.53136843272E+03  0.55162807250E+03  0.84681914420E+02 0.  0.
        -24    2    1    2    0    0  0.81608982107E+02 -0.50838387003E+02 -0.13226890593E+03  0.18229087963E+03  0.80562607750E+02 0.  0.
         13    1    4    4    0    0  0.30081867544E+02  0.18270546557E+02 -0.19146249899E+02  0.40066326406E+02  0.00000000000E+00 0. -1.
        -14    1    4    4    0    0  0.51527114563E+02 -0.69108933560E+02 -0.11312265603E+03  0.14222455323E+03  0.00000000000E+00 0.  1.
        -13    1    3    3    0    0 -0.20529359400E+02 -0.72661966653E+01 -0.26839532373E+02  0.34563169839E+02  0.00000000000E+00 0.  1.
         13    1    3    3    0    0 -0.68225345050E+02  0.90288452024E+02 -0.50452890035E+03  0.51706490266E+03  0.00000000000E+00 0. -1.
          4    1    1    2  501    0  0.71457223422E+01 -0.32183868356E+02  0.24307277432E+02  0.40959815263E+02  0.00000000000E+00 0. -1.
<scales pt_clust_5="13000.00000" pt_clust_6="13000.00000" pt_clust_7="13000.00000" pt_clust_8="13000.00000" pt_clust_9="32.96760"></scales>
<clustering>
<clus scale="   32.968">  1  9  2 -1</clus>
<clus scale="   80.563">  5  6 -1 -1</clus>
<clus scale="   84.682">  7  8 -1 -1</clus>
<clus scale="  139.444">  1  5  2 -1</clus>
<clus scale="   32.968">  1  5  2 -1</clus>
</clustering>
</event>
<event>
 9    1  0.5981539E-005  0.1300746E+03  0.7546771E-02  0.1230341E+00
         21   -1    0    0  501  502  0.00000000000E+00  0.00000000000E+00  0.81682118319E+02  0.81682118319E+02  0.00000000000E+00 0.  1.
          1   -1    0    0  502    0 -0.00000000000E+00 -0.00000000000E+00 -0.27016614815E+03  0.27016614815E+03  0.00000000000E+00 0. -1.
         23    2    1    2    0    0 -0.83249013539E+02 -0.14915682299E+02 -0.11196282895E+03  0.16759978414E+03  0.91657715137E+02 0.  0.
        -24    2    1    2    0    0  0.96372394647E+02  0.35470441723E+02 -0.88076196602E+02  0.15726257503E+03  0.80176744831E+02 0.  0.
         13    1    4    4    0    0  0.63151758222E+02  0.28221474714E+02 -0.99685149187E+02  0.12133311654E+03  0.00000000000E+00 0. -1.
        -14    1    4    4    0    0  0.33220636425E+02  0.72489670087E+01  0.11608952585E+02  0.35929458489E+02  0.00000000000E+00 0.  1.
        -11    1    3    3    0    0 -0.20637631616E+02  0.32019452671E+02 -0.67743547185E+02  0.77719658860E+02  0.00000000000E+00 0. -1.
         11    1    3    3    0    0 -0.62611381922E+02 -0.46935134969E+02 -0.44219281765E+02  0.89880125281E+02  0.00000000000E+00 0.  1.
          2    1    1    2  501    0 -0.13123381109E+02 -0.20554759425E+02  0.11554995717E+02  0.26985907299E+02  0.00000000000E+00 0. -1.
<scales pt_clust_5="13000.00000" pt_clust_6="13000.00000" pt_clust_7="13000.00000" pt_clust_8="13000.00000" pt_clust_9="24.38691"></scales>
<clustering>
<clus scale="   24.387">  1  9  2 -1</clus>
<clus scale="   80.177">  5  6 -1 -1</clus>
<clus scale="   91.658">  7  8 -1 -1</clus>
<clus scale="  122.256">  1  5  2 -1</clus>
<clus scale="   24.387">  1  5  2 -1</clus>
</clustering>
</event>
<event>
 9    1  0.5981539E-005  0.1143207E+03  0.7546771E-02  0.1258125E+00
         21   -1    0    0  501  502  0.00000000000E+00  0.00000000000E+00  0.80973887579E+02  0.80973887579E+02  0.00000000000E+00 0. -1.
          1   -1    0    0  502    0 -0.00000000000E+00 -0.00000000000E+00 -0.46775383463E+03  0.46775383463E+03  0.00000000000E+00 0. -1.
        -24    2    1    2    0    0 -0.63432345281E+02  0.57288958297E+02 -0.15024237854E+03  0.19053810690E+03  0.80164273225E+02 0.  0.
         23    2    1    2    0    0 -0.29338967690E+02 -0.39941395694E+02 -0.34609755014E+01  0.10672957346E+03  0.94462338440E+02 0.  0.
         13    1    3    3    0    0 -0.71020763862E+02  0.16694502127E+02 -0.11529051696E+03  0.13643518095E+03  0.00000000000E+00 0. -1.
        -14    1    3    3    0    0  0.75884185812E+01  0.40594456169E+02 -0.34951861580E+02  0.54102925948E+02  0.00000000000E+00 0.  1.
        -13    1    4    4    0    0 -0.48032420557E+02 -0.21792281226E+02  0.32775465513E+02  0.62098696324E+02  0.00000000000E+00 0. -1.
         13    1    4    4    0    0  0.18693452867E+02 -0.18149114469E+02 -0.36236441015E+02  0.44630877131E+02  0.00000000000E+00 0.  1.
          2    1    1    2  501    0  0.92771312971E+02 -0.17347562602E+02 -0.23307659301E+03  0.25146004185E+03  0.00000000000E+00 0. -1.
<scales pt_clust_5="13000.00000" pt_clust_6="13000.00000" pt_clust_7="13000.00000" pt_clust_8="13000.00000" pt_clust_9="94.37936"></scales>
<clustering>
<clus scale="   80.164">  5  6 -1 -1</clus>
<clus scale="   94.379">  1  9  2 -1</clus>
<clus scale="   94.462">  7  8 -1 -1</clus>
<clus scale="  102.822">  2  5  1 -1</clus>
<clus scale="   94.379">  1  5  2 -1</clus>
</clustering>
</event>
<event>
 9    1  0.5981539E-005  0.9180438E+02  0.7546771E-02  0.1306345E+00
         21   -1    0    0  501  502  0.00000000000E+00  0.00000000000E+00  0.11123652187E+03  0.11123652187E+03  0.00000000000E+00 0.  1.
          3   -1    0    0  502    0 -0.00000000000E+00 -0.00000000000E+00 -0.16601370420E+03  0.16601370420E+03  0.00000000000E+00 0. -1.
         23    2    1    2    0    0 -0.74948566677E+01  0.23268142137E+02 -0.36768880650E+02  0.10166642501E+03  0.91578010869E+02 0.  0.
        -24    2    1    2    0    0  0.44681176342E+01  0.43818569890E+02  0.27131111634E+02  0.94668075065E+02  0.79283769308E+02 0.  0.
         11    1    4    4    0    0  0.44591433001E+01 -0.22869600301E+02  0.19410885586E+01  0.23380983762E+02  0.00000000000E+00 0. -1.
        -12    1    4    4    0    0  0.89743340899E-02  0.66688170191E+02  0.25190023075E+02  0.71287091303E+02  0.00000000000E+00 0.  1.
        -11    1    3    3    0    0 -0.19494465200E+02  0.56280134964E+02 -0.25357866286E+02  0.64734142055E+02  0.00000000000E+00 0. -1.
         11    1    3    3    0    0  0.11999608533E+02 -0.33011992827E+02 -0.11411014364E+02  0.36932282953E+02  0.00000000000E+00 0.  1.
          4    1    1    2  501    0  0.30267390334E+01 -0.67086712027E+02 -0.45139413315E+02  0.80915726001E+02  0.00000000000E+00 0. -1.
<scales pt_clust_5="13000.00000" pt_clust_6="13000.00000" pt_clust_7="13000.00000" pt_clust_8="13000.00000" pt_clust_9="67.15499"></scales>
<clustering>
<clus scale="   67.155">  1  9  2 -1</clus>
<clus scale="   79.284">  5  6 -1 -1</clus>
<clus scale="   79.545">  1  5  2 -1</clus>
<clus scale="   91.578">  7  8 -1 -1</clus>
<clus scale="   67.155">  1  5  2 -1</clus>
</clustering>
</event>
<event>
 9    1  0.5981539E-005  0.1496284E+03  0.7546771E-02  0.1203827E+00
         21   -1    0    0  501  502  0.00000000000E+00  0.00000000000E+00  0.61645220160E+02  0.61645220160E+02  0.00000000000E+00 0.  1.
          1   -1    0    0  502    0 -0.00000000000E+00 -0.00000000000E+00 -0.68116573558E+03  0.68116573558E+03  0.00000000000E+00 0. -1.
         23    2    1    2    0    0  0.13293177288E+03  0.75106710914E+02 -0.46819585769E+03  0.50105483119E+03  0.92394309561E+02 0.  0.
        -24    2    1    2    0    0 -0.58922372126E+02 -0.39148704384E+02 -0.10116836617E+03  0.14539211043E+03  0.76807294379E+02 0.  0.
         11    1    4    4    0    0 -0.59973256279E+02 -0.52120590734E+02 -0.10513850744E+03  0.13178563349E+03  0.00000000000E+00 0. -1.
        -12    1    4    4    0    0  0.10508841527E+01  0.12971886350E+02  0.39701412732E+01  0.13606476940E+02  0.00000000000E+00 0.  1.
        -11    1    3    3    0    0  0.12439765328E+03  0.94107646894E+02 -0.38756668215E+03  0.41777859980E+03  0.00000000000E+00 0. -1.
         11    1    3    3    0    0  0.85341196012E+01 -0.19000935979E+02 -0.80629175546E+02  0.83276231391E+02  0.00000000000E+00 0.  1.
          2    1    1    2  501    0 -0.74009400753E+02 -0.35958006530E+02 -0.50156291559E+02  0.96364014115E+02  0.00000000000E+00 0. -1.
<scales pt_clust_5="13000.00000" pt_clust_6="13000.00000" pt_clust_7="13000.00000" pt_clust_8="13000.00000" pt_clust_9="82.28226"></scales>
<clustering>
<clus scale="   76.807">  5  6 -1 -1</clus>
<clus scale="   82.282">  1  9  2 -1</clus>
<clus scale="   92.394">  7  8 -1 -1</clus>
<clus scale="  140.539">  1  5  2 -1</clus>
<clus scale="   82.282">  1  5  2 -1</clus>
</clustering>
</event>
<event>
 9    1  0.5981539E-005  0.3204222E+03  0.7546771E-02  0.1114380E+00
         21   -1    0    0  501  502  0.00000000000E+00  0.00000000000E+00  0.27445748694E+03  0.27445748694E+03  0.00000000000E+00 0. -1.
          1   -1    0    0  502    0 -0.00000000000E+00 -0.00000000000E+00 -0.51767530856E+03  0.51767530856E+03  0.00000000000E+00 0. -1.
        -24    2    1    2    0    0  0.51106155675E+02  0.65274504996E+02 -0.73951002212E+02  0.13719126273E+03  0.80499016713E+02 0.  0.
         23    2    1    2    0    0  0.28019783882E+03 -0.74208482190E+01 -0.95931178719E+02  0.31072140180E+03  0.93696854883E+02 0.  0.
         13    1    3    3    0    0  0.29807175342E+02  0.81893289089E+02 -0.46930260551E+02  0.98981957220E+02  0.00000000000E+00 0. -1.
        -14    1    3    3    0    0  0.21298980332E+02 -0.16618784093E+02 -0.27020741661E+02  0.38209305514E+02  0.00000000000E+00 0.  1.
        -11    1    4    4    0    0  0.23210318621E+03  0.56125121223E+01 -0.39617341962E+02  0.23552690531E+03  0.00000000000E+00 0. -1.
         11    1    4    4    0    0  0.48094652617E+02 -0.13033360341E+02 -0.56313836757E+02  0.75194496490E+02  0.00000000000E+00 0.  1.
          2    1    1    2  501    0 -0.33130399450E+03 -0.57853656777E+02 -0.73335640691E+02  0.34422013098E+03  0.00000000000E+00 0. -1.
<scales pt_clust_5="13000.00000" pt_clust_6="13000.00000" pt_clust_7="13000.00000" pt_clust_8="13000.00000" pt_clust_9="306.41704"></scales>
<clustering>
<clus scale="   80.499">  5  6 -1 -1</clus>
<clus scale="   93.697">  7  8 -1 -1</clus>
<clus scale="  115.554">  2  5  1 -1</clus>
<clus scale="  306.417">  1  9  2 -1</clus>
<clus scale="  306.417">  1  5  2 -1</clus>
</clustering>
</event>
<event>
 9    1  0.5981539E-005  0.1009488E+03  0.7546771E-02  0.1284110E+00
         21   -1    0    0  501  502  0.00000000000E+00  0.00000000000E+00  0.30892939461E+03  0.30892939461E+03  0.00000000000E+00 0. -1.
         -4   -1    0    0    0  501 -0.00000000000E+00 -0.00000000000E+00 -0.79907455341E+02  0.79907455341E+02  0.00000000000E+00 0.  1.
        -24    2    1    2    0    0  0.29020161276E+02  0.36115116130E+02 -0.27181486148E+02  0.97422133315E+02  0.81275872784E+02 0.  0.
         23    2    1    2    0    0 -0.72409101138E+01  0.32672851310E+01  0.18578834106E+03  0.20784681960E+03  0.92843345542E+02 0.  0.
         11    1    3    3    0    0 -0.70446423391E+01  0.48040487266E+02 -0.33397752667E+02  0.58931530488E+02  0.00000000000E+00 0. -1.
        -12    1    3    3    0    0  0.36064803615E+02 -0.11925371137E+02  0.62162665182E+01  0.38490602827E+02  0.00000000000E+00 0.  1.
        -13    1    4    4    0    0 -0.31019169862E+02 -0.13756627636E+01  0.18036740192E+03  0.18302043881E+03  0.00000000000E+00 0. -1.
         13    1    4    4    0    0  0.23778259748E+02  0.46429478946E+01  0.54209391407E+01  0.24826380787E+02  0.00000000000E+00 0.  1.
         -3    1    1    2    0  502 -0.21779251162E+02 -0.39382401261E+02  0.70415084349E+02  0.83567897031E+02  0.00000000000E+00 0.  1.
<scales pt_clust_5="13000.00000" pt_clust_6="13000.00000" pt_clust_7="13000.00000" pt_clust_8="13000.00000" pt_clust_9="45.00344"></scales>
<clustering>
<clus scale="   45.003">  1  9  2 -1</clus>
<clus scale="   81.276">  5  6 -1 -1</clus>
<clus scale="   90.424">  2  5  1 -1</clus>
<clus scale="   92.843">  7  8 -1 -1</clus>
<clus scale="   45.003">  1  5  2 -1</clus>
</clustering>
</event>
<event>
 9    1  0.5981539E-005  0.9676709E+02  0.7546771E-02  0.1293636E+00
          1   -1    0    0  502    0 -0.00000000000E+00  0.00000000000E+00  0.78549108192E+03  0.78549108192E+03  0.00000000000E+00 0. -1.
         21   -1    0    0  501  502  0.00000000000E+00 -0.00000000000E+00 -0.23620341371E+02  0.23620341371E+02  0.00000000000E+00 0.  1.
         23    2    1    2    0    0 -0.27450137131E+02  0.15023627464E+02  0.47485899839E+03  0.48464307451E+03  0.91698538188E+02 0.  0.
        -24    2    1    2    0    0  0.39325046848E+01 -0.44003455464E+02  0.10766469131E+03  0.14127917302E+03  0.80102124126E+02 0.  0.
         13    1    4    4    0    0  0.29559574466E+01 -0.66308805460E+02  0.94103226355E+02  0.11515646997E+03  0.00000000000E+00 0. -1.
        -14    1    4    4    0    0  0.97654723818E+00  0.22305349996E+02  0.13561464952E+02  0.26122703050E+02  0.00000000000E+00 0.  1.
        -11    1    3    3    0    0 -0.59144105383E+02  0.23351909601E+02  0.28845064399E+03  0.29537621925E+03  0.00000000000E+00 0. -1.
         11    1    3    3    0    0  0.31693968252E+02 -0.83282821370E+01  0.18640835440E+03  0.18926685526E+03  0.00000000000E+00 0.  1.
          2    1    1    2  501    0  0.23517632446E+02  0.28979828000E+02  0.17934705085E+03  0.18318917576E+03  0.00000000000E+00 0. -1.
<scales pt_clust_5="13000.00000" pt_clust_6="13000.00000" pt_clust_7="13000.00000" pt_clust_8="13000.00000" pt_clust_9="37.32172"></scales>
<clustering>
<clus scale="   37.322">  2  9  1 -1</clus>
<clus scale="   80.102">  5  6 -1 -1</clus>
<clus scale="   85.858">  2  5  1 -1</clus>
<clus scale="   91.699">  7  8 -1 -1</clus>
<clus scale="   37.322">  2  5  1 -1</clus>
</clustering>
</event>
<event>
 9    1  0.5981539E-005  0.9944414E+02  0.7546771E-02  0.1286752E+00
         -4   -1    0    0    0  501 -0.00000000000E+00  0.00000000000E+00  0.27683602582E+03  0.27683602582E+03  0.00000000000E+00 0.  1.
         21   -1    0    0  501  502  0.00000000000E+00 -0.00000000000E+00 -0.11026530917E+03  0.11026530917E+03  0.00000000000E+00 0.  1.
         23    2    1    2    0    0  0.30532342797E+02  0.26662168316E+02  0.22505373777E+03  0.24574290244E+03  0.89984965633E+02 0.  0.
        -24    2    1    2    0    0 -0.24070260094E+02 -0.54577557599E+02 -0.38975430361E+02  0.10669471133E+03  0.79414041829E+02 0.  0.
         13    1    4    4    0    0 -0.16109104575E+02 -0.15199495881E+02  0.23579538891E+02  0.32350001230E+02  0.00000000000E+00 0. -1.
        -14    1    4    4    0    0 -0.79611555190E+01 -0.39378061718E+02 -0.62554969252E+02  0.74344710101E+02  0.00000000000E+00 0.  1.
        -11    1    3    3    0    0  0.43638131740E+02 -0.16046602386E+02  0.67396980462E+02  0.81878769931E+02  0.00000000000E+00 0.  1.
         11    1    3    3    0    0 -0.13105788944E+02  0.42708770701E+02  0.15765675730E+03  0.16386413251E+03  0.00000000000E+00 0. -1.
         -3    1    1    2    0  502 -0.64620827023E+01  0.27915389283E+02 -0.19507590752E+02  0.34663721217E+02  0.00000000000E+00 0.  1.
<scales pt_clust_5="13000.00000" pt_clust_6="13000.00000" pt_clust_7="13000.00000" pt_clust_8="13000.00000" pt_clust_9="28.65358"></scales>
<clustering>
<clus scale="   28.654">  2  9  1 -1</clus>
<clus scale="   79.414">  5  6 -1 -1</clus>
<clus scale="   89.985">  7  8 -1 -1</clus>
<clus scale="   89.991">  2  5  1 -1</clus>
<clus scale="   28.654">  2  5  1 -1</clus>
</clustering>
</event>
<event>
 9    1  0.5981539E-005  0.1179797E+03  0.7546771E-02  0.1249087E+00
         21   -1    0    0  501  502  0.00000000000E+00  0.00000000000E+00  0.15678535127E+03  0.15678535127E+03  0.00000000000E+00 0. -1.
          1   -1    0    0  502    0 -0.00000000000E+00 -0.00000000000E+00 -0.40410155462E+03  0.40410155462E+03  0.00000000000E+00 0. -1.
         23    2    1    2    0    0 -0.73268697238E+02  0.29050600587E+02 -0.33654411448E+03  0.35749816259E+03  0.91272974537E+02 0.  0.
        -24    2    1    2    0    0  0.52314705450E+02 -0.22868186739E+02 -0.10263579959E+02  0.10152683280E+03  0.83322111913E+02 0.  0.
         13    1    4    4    0    0 -0.81734745233E-01  0.27081488862E+02  0.50142622907E+01  0.27541905270E+02  0.00000000000E+00 0. -1.
        -14    1    4    4    0    0  0.52396440195E+02 -0.49949675601E+02 -0.15277842250E+02  0.73984927529E+02  0.00000000000E+00 0.  1.
        -11    1    3    3    0    0  0.18226283262E+02  0.22287781157E+02 -0.85216760986E+02  0.89949090842E+02  0.00000000000E+00 0.  1.
         11    1    3    3    0    0 -0.91494980500E+02  0.67628194300E+01 -0.25132735349E+03  0.26754907175E+03  0.00000000000E+00 0. -1.
          2    1    1    2  501    0  0.20953991789E+02 -0.61824138480E+01  0.99491491086E+02  0.10186191050E+03  0.00000000000E+00 0. -1.
<scales pt_clust_5="13000.00000" pt_clust_6="13000.00000" pt_clust_7="13000.00000" pt_clust_8="13000.00000" pt_clust_9="21.84701"></scales>
<clustering>
<clus scale="   21.847">  1  9  2 -1</clus>
<clus scale="   83.322">  5  6 -1 -1</clus>
<clus scale="   91.273">  7  8 -1 -1</clus>
<clus scale="  111.942">  1  5  2 -1</clus>
<clus scale="   21.847">  1  5  2 -1</clus>
</clustering>
</event>
<event>
 9    1  0.5981539E-005  0.1460121E+03  0.7546771E-02  0.1208053E+00
         21   -1    0    0  501  502  0.00000000000E+00  0.00000000000E+00  0.95026174165E+02  0.95026174165E+02  0.00000000000E+00 0.  1.
          1   -1    0    0  502    0 -0.00000000000E+00 -0.00000000000E+00 -0.62397992224E+03  0.62397992224E+03  0.00000000000E+00 0. -1.
        -24    2    1    2    0    0 -0.11370034376E+03  0.27195335386E+02 -0.40784368003E+03  0.43168163268E+03  0.79656827786E+02 0.  0.
         23    2    1    2    0    0  0.10957628234E+03  0.53325186244E+02 -0.13664411501E+03  0.20521557929E+03  0.92689172397E+02 0.  0.
         11    1    3    3    0    0 -0.47961715213E+02 -0.22458726423E+02 -0.10190600260E+03  0.11484578305E+03  0.00000000000E+00 0. -1.
        -12    1    3    3    0    0 -0.65738628548E+02  0.49654061810E+02 -0.30593767743E+03  0.31683584963E+03  0.00000000000E+00 0.  1.
        -11    1    4    4    0    0  0.60394573023E+02  0.75819978191E+02 -0.70956772930E+02  0.12012925193E+03  0.00000000000E+00 0.  1.
         11    1    4    4    0    0  0.49181709314E+02 -0.22494791946E+02 -0.65687342078E+02  0.85086327368E+02  0.00000000000E+00 0. -1.
          2    1    1    2  501    0  0.41240614241E+01 -0.80520521631E+02  0.15534046971E+02  0.82108884426E+02  0.00000000000E+00 0. -1.
<scales pt_clust_5="13000.00000" pt_clust_6="13000.00000" pt_clust_7="13000.00000" pt_clust_8="13000.00000" pt_clust_9="80.62606"></scales>
<clustering>
<clus scale="   79.657">  5  6 -1 -1</clus>
<clus scale="   80.626">  1  9  2 -1</clus>
<clus scale="   92.689">  7  8 -1 -1</clus>
<clus scale="  138.107">  2  5  1 -1</clus>
<clus scale="   80.626">  1  5  2 -1</clus>
</clustering>
</event>
<event>
 9    1  0.5981539E-005  0.9762352E+02  0.7546771E-02  0.1291772E+00
         -4   -1    0    0    0  501 -0.00000000000E+00  0.00000000000E+00  0.34850658633E+02  0.34850658633E+02  0.00000000000E+00 0.  1.
         21   -1    0    0  501  502  0.00000000000E+00 -0.00000000000E+00 -0.46506970621E+03  0.46506970621E+03  0.00000000000E+00 0. -1.
        -24    2    1    2    0    0 -0.37406705394E+01  0.34155087455E+02 -0.60968780417E+02  0.10584648878E+03  0.79408591389E+02 0.  0.
         23    2    1    2    0    0  0.34898664986E+02 -0.27471157384E+02 -0.23341129742E+03  0.25454710000E+03  0.91328040863E+02 0.  0.
         13    1    3    3    0    0 -0.14603258026E+02  0.53274828483E+02 -0.62969958298E+02  0.83765614323E+02  0.00000000000E+00 0. -1.
        -14    1    3    3    0    0  0.10862587486E+02 -0.19119741028E+02  0.20011778812E+01  0.22080874457E+02  0.00000000000E+00 0.  1.
        -11    1    4    4    0    0  0.57992611918E+02  0.24482302687E+01 -0.97417272919E+02  0.11339868576E+03  0.00000000000E+00 0.  1.
         11    1    4    4    0    0 -0.23093946932E+02 -0.29919387653E+02 -0.13599402451E+03  0.14114841424E+03  0.00000000000E+00 0. -1.
         -3    1    1    2    0  502 -0.31157994447E+02 -0.66839300706E+01 -0.13583896974E+03  0.13952677606E+03  0.00000000000E+00 0.  1.
<scales pt_clust_5="13000.00000" pt_clust_6="13000.00000" pt_clust_7="13000.00000" pt_clust_8="13000.00000" pt_clust_9="31.86684"></scales>
<clustering>
<clus scale="   31.867">  2  9  1 -1</clus>
<clus scale="   79.409">  5  6 -1 -1</clus>
<clus scale="   86.575">  1  5  2 -1</clus>
<clus scale="   91.328">  7  8 -1 -1</clus>
<clus scale="   31.867">  2  5  1 -1</clus>
</clustering>
</event>
<event>
 9    1  0.5981539E-005  0.4314933E+03  0.7546771E-02  0.1033389E+00
          1   -1    0    0  502    0 -0.00000000000E+00  0.00000000000E+00  0.31297371229E+03  0.31297371229E+03  0.00000000000E+00 0. -1.
         21   -1    0    0  501  502  0.00000000000E+00 -0.00000000000E+00 -0.53991354027E+03  0.53991354027E+03  0.00000000000E+00 0. -1.
        -24    2    1    2    0    0 -0.16469298502E+03  0.15797733601E+03 -0.91936425514E+02  0.25871868010E+03  0.80015192872E+02 0.  0.
         23    2    1    2    0    0 -0.73406590740E+02  0.14860964454E+03 -0.60431241891E+02  0.19888640521E+03  0.91817825968E+02 0.  0.
         11    1    3    3    0    0 -0.14406827725E+03  0.15890474844E+03 -0.63719927183E+02  0.22375570766E+03  0.00000000000E+00 0. -1.
        -12    1    3    3    0    0 -0.20624707762E+02 -0.92741243189E+00 -0.28216498331E+02  0.34962972445E+02  0.00000000000E+00 0.  1.
        -11    1    4    4    0    0 -0.51908589851E+02  0.75306997847E+02  0.13647330258E+02  0.92476457806E+02  0.00000000000E+00 0. -1.
         11    1    4    4    0    0 -0.21498000889E+02  0.73302646692E+02 -0.74078572149E+02  0.10640994740E+03  0.00000000000E+00 0.  1.
          2    1    1    2  501    0  0.23809957576E+03 -0.30658698055E+03 -0.74572160570E+02  0.39528216725E+03  0.00000000000E+00 0. -1.
<scales pt_clust_5="13000.00000" pt_clust_6="13000.00000" pt_clust_7="13000.00000" pt_clust_8="13000.00000" pt_clust_9="388.18441"></scales>
<clustering>
<clus scale="   80.015">  5  6 -1 -1</clus>
<clus scale="   91.818">  7  8 -1 -1</clus>
<clus scale="  108.650">  5  7 -1 -1</clus>
<clus scale="  388.184">  2  9  1 -1</clus>
<clus scale="  388.184">  2  5  1 -1</clus>
</clustering>
</event>
<event>
 9    1  0.5981539E-005  0.9264604E+02  0.7546771E-02  0.1301738E+00
         21   -1    0    0  501  502  0.00000000000E+00  0.00000000000E+00  0.38059032942E+03  0.38059032942E+03  0.00000000000E+00 0. -1.
          3   -1    0    0  502    0 -0.00000000000E+00 -0.00000000000E+00 -0.10522240699E+03  0.10522240699E+03  0.00000000000E+00 0. -1.
         23    2    1    2    0    0  0.49153817270E+01  0.14597267671E+02 -0.49883779414E+02  0.10490108908E+03  0.90986844330E+02 0.  0.
        -24    2    1    2    0    0  0.43247596795E+02 -0.21478333362E+02  0.63500694709E+02  0.11467751859E+03  0.82382774951E+02 0.  0.
         11    1    4    4    0    0  0.57754056004E+02 -0.58221555311E+01  0.71311284400E+02  0.91949593597E+02  0.00000000000E+00 0. -1.
        -12    1    4    4    0    0 -0.14506459209E+02 -0.15656177831E+02 -0.78105896917E+01  0.22727924991E+02  0.00000000000E+00 0.  1.
        -11    1    3    3    0    0  0.11789246303E+01  0.47473338977E+02 -0.53593957106E+02  0.71606005441E+02  0.00000000000E+00 0. -1.
         11    1    3    3    0    0  0.37364570967E+01 -0.32876071307E+02  0.37101776917E+01  0.33295083642E+02  0.00000000000E+00 0.  1.
          4    1    1    2  501    0 -0.48162978522E+02  0.68810656915E+01  0.26175100714E+03  0.26623412873E+03  0.00000000000E+00 0. -1.
<scales pt_clust_5="13000.00000" pt_clust_6="13000.00000" pt_clust_7="13000.00000" pt_clust_8="13000.00000" pt_clust_9="48.65205"></scales>
<clustering>
<clus scale="   48.652">  1  9  2 -1</clus>
<clus scale="   82.383">  5  6 -1 -1</clus>
<clus scale="   84.212">  1  5  2 -1</clus>
<clus scale="   90.987">  7  8 -1 -1</clus>
<clus scale="   48.652">  1  5  2 -1</clus>
</clustering>
</event>
<event>
 9    1  0.5981539E-005  0.1361847E+03  0.7546771E-02  0.1222464E+00
         21   -1    0    0  501  502  0.00000000000E+00  0.00000000000E+00  0.16489121297E+03  0.16489121297E+03  0.00000000000E+00 0. -1.
          1   -1    0    0  502    0 -0.00000000000E+00 -0.00000000000E+00 -0.39072147855E+03  0.39072147855E+03  0.00000000000E+00 0. -1.
         23    2    1    2    0    0  0.16612543903E+02 -0.99768214433E+02 -0.30780539465E+03  0.33803869932E+03  0.96417467488E+02 0.  0.
        -24    2    1    2    0    0 -0.33190678785E+02  0.74724021843E+02 -0.15262232910E+02  0.11580390474E+03  0.80574859608E+02 0.  0.
         11    1    4    4    0    0 -0.38295032555E+02  0.20205917811E+02 -0.36937188490E+02  0.56913482818E+02  0.00000000000E+00 0. -1.
        -12    1    4    4    0    0  0.51043537700E+01  0.54518104031E+02  0.21674955580E+02  0.58890421921E+02  0.00000000000E+00 0.  1.
        -11    1    3    3    0    0 -0.18018121626E+02 -0.33651838883E+02 -0.21776848078E+03  0.22108869303E+03  0.00000000000E+00 0.  1.
         11    1    3    3    0    0  0.34630665529E+02 -0.66116375550E+02 -0.90036913870E+02  0.11695000628E+03  0.00000000000E+00 0. -1.
          2    1    1    2  501    0  0.16578134882E+02  0.25044192590E+02  0.97237361977E+02  0.10177008747E+03  0.00000000000E+00 0. -1.
<scales pt_clust_5="13000.00000" pt_clust_6="13000.00000" pt_clust_7="13000.00000" pt_clust_8="13000.00000" pt_clust_9="30.03408"></scales>
<clustering>
<clus scale="   30.034">  1  9  2 -1</clus>
<clus scale="   80.575">  5  6 -1 -1</clus>
<clus scale="   96.417">  7  8 -1 -1</clus>
<clus scale="  125.468">  1  5  2 -1</clus>
<clus scale="   30.034">  1  5  2 -1</clus>
</clustering>
</event>
<event>
 9    1  0.5981539E-005  0.1400853E+03  0.7546771E-02  0.1215580E+00
         -2   -1    0    0    0  501 -0.00000000000E+00  0.00000000000E+00  0.36378509055E+03  0.36378509055E+03  0.00000000000E+00 0.  1.
         21   -1    0    0  501  502  0.00000000000E+00 -0.00000000000E+00 -0.99817056853E+02  0.99817056853E+02  0.00000000000E+00 0.  1.
         23    2    1    2    0    0  0.60594088548E+02 -0.96119521226E+02  0.21778619585E+03  0.26188206326E+03  0.90778753179E+02 0.  0.
        -24    2    1    2    0    0 -0.10813587039E+02  0.91594234312E+02 -0.14816252926E+02  0.12285726888E+03  0.79799434479E+02 0.  0.
         11    1    4    4    0    0 -0.33009330604E+02  0.30375750715E+02  0.19886975000E+02  0.49069276672E+02  0.00000000000E+00 0. -1.
        -12    1    4    4    0    0  0.22195743565E+02  0.61218483596E+02 -0.34703227926E+02  0.73787992212E+02  0.00000000000E+00 0.  1.
        -11    1    3    3    0    0  0.18039720321E+02 -0.68223834147E+02  0.19257178829E+03  0.20509465302E+03  0.00000000000E+00 0.  1.
         11    1    3    3    0    0  0.42554368227E+02 -0.27895687079E+02  0.25214407560E+02  0.56787410237E+02  0.00000000000E+00 0. -1.
         -1    1    1    2    0  502 -0.49780501510E+02  0.45252869147E+01  0.60998090781E+02  0.78862815262E+02  0.00000000000E+00 0.  1.
<scales pt_clust_5="13000.00000" pt_clust_6="13000.00000" pt_clust_7="13000.00000" pt_clust_8="13000.00000" pt_clust_9="49.98579"></scales>
<clustering>
<clus scale="   49.986">  2  9  1 -1</clus>
<clus scale="   79.799">  5  6 -1 -1</clus>
<clus scale="   90.779">  7  8 -1 -1</clus>
<clus scale="  133.233">  2  5  1 -1</clus>
<clus scale="   49.986">  2  5  1 -1</clus>
</clustering>
</event>
<event>
 9    1  0.9257863E-005  0.2122424E+03  0.7546771E-02  0.1163047E+00
          1   -1    0    0  502    0 -0.00000000000E+00  0.00000000000E+00  0.56342719460E+03  0.56342719460E+03  0.00000000000E+00 0. -1.
         21   -1    0    0  501  502  0.00000000000E+00 -0.00000000000E+00 -0.14472426269E+03  0.14472426269E+03  0.00000000000E+00 0. -1.
         23    2    1    2    0    0 -0.77849481448E+02 -0.15674960264E+02  0.77395620093E+02  0.14492204641E+03  0.93306330900E+02 0.  0.
        -24    2    1    2    0    0  0.10291659256E+03  0.18222209716E+03  0.58706841412E+02  0.23424713971E+03  0.87341350557E+02 0.  0.
         11    1    4    4    0    0  0.71766130832E+02  0.16750932203E+03  0.73830786690E+02  0.19662333424E+03  0.00000000000E+00 0. -1.
        -12    1    4    4    0    0  0.31150461727E+02  0.14712775128E+02 -0.15123945278E+02  0.37623805477E+02  0.00000000000E+00 0.  1.
        -11    1    3    3    0    0  0.65831463328E+01 -0.32783773938E+02  0.82104179482E+01  0.34431448012E+02  0.00000000000E+00 0. -1.
         11    1    3    3    0    0 -0.84432627780E+02  0.17108813675E+02  0.69185202145E+02  0.11049059840E+03  0.00000000000E+00 0.  1.
          2    1    1    2  501    0 -0.25067111112E+02 -0.16654713690E+03  0.28260047040E+03  0.32898227116E+03  0.00000000000E+00 0. -1.
<scales pt_clust_5="13000.00000" pt_clust_6="13000.00000" pt_clust_7="13000.00000" pt_clust_8="13000.00000" pt_clust_9="193.43822"></scales>
<clustering>
<clus scale="   87.341">  5  6 -1 -1</clus>
<clus scale="   93.306">  7  8 -1 -1</clus>
<clus scale="  122.525">  1  7  2 -1</clus>
<clus scale="  193.438">  2  9  1 -1</clus>
<clus scale="  193.438">  2  5  1 -1</clus>
</clustering>
</event>
<event>
 9    1  0.5981539E-005  0.9212758E+02  0.7546771E-02  0.1308135E+00
          3   -1    0    0  502    0 -0.00000000000E+00  0.00000000000E+00  0.83852434075E+02  0.83852434075E+02  0.00000000000E+00 0. -1.
         21   -1    0    0  501  502  0.00000000000E+00 -0.00000000000E+00 -0.14003451314E+03  0.14003451314E+03  0.00000000000E+00 0. -1.
        -24    2    1    2    0    0  0.11029668716E+02 -0.63455286921E+01 -0.30036654557E+02  0.78851292072E+02  0.71787229492E+02 0.  0.
         23    2    1    2    0    0 -0.43390459326E+02  0.78081874084E+01 -0.43778720130E+02  0.10815350155E+03  0.88526288803E+02 0.  0.
         11    1    3    3    0    0  0.36939100971E+02 -0.12177594871E+02 -0.18385363375E+00  0.38895048522E+02  0.00000000000E+00 0. -1.
        -12    1    3    3    0    0 -0.25909432255E+02  0.58320661784E+01 -0.29852800924E+02  0.39956243551E+02  0.00000000000E+00 0.  1.
        -13    1    4    4    0    0  0.49944870649E+01  0.30382894842E+02 -0.45260261647E+02  0.54740811872E+02  0.00000000000E+00 0.  1.
         13    1    4    4    0    0 -0.48384946391E+02 -0.22574707434E+02  0.14815415167E+01  0.53412689674E+02  0.00000000000E+00 0. -1.
          4    1    1    2  501    0  0.32360790611E+02 -0.14626587163E+01  0.17633295623E+02  0.36882153597E+02  0.00000000000E+00 0. -1.
<scales pt_clust_5="13000.00000" pt_clust_6="13000.00000" pt_clust_7="13000.00000" pt_clust_8="13000.00000" pt_clust_9="32.39384"></scales>
<clustering>
<clus scale="   32.394">  2  9  1 -1</clus>
<clus scale="   71.787">  5  6 -1 -1</clus>
<clus scale="   76.184">  1  5  2 -1</clus>
<clus scale="   88.526">  7  8 -1 -1</clus>
<clus scale="   32.394">  2  5  1 -1</clus>
</clustering>
</event>
<event>
 9    1  0.5981539E-005  0.9781555E+02  0.7546771E-02  0.1285818E+00
          1   -1    0    0  502    0 -0.00000000000E+00  0.00000000000E+00  0.12803228551E+03  0.12803228551E+03  0.00000000000E+00 0. -1.
         21   -1    0    0  501  502  0.00000000000E+00 -0.00000000000E+00 -0.12401484279E+03  0.12401484279E+03  0.00000000000E+00 0. -1.
        -24    2    1    2    0    0  0.41639920950E+02 -0.24685832006E+02  0.26927850360E+02  0.10743646635E+03  0.92055482502E+02 0.  0.
         23    2    1    2    0    0 -0.15049349018E+01  0.24279333665E+02  0.80188089719E+01  0.93939182922E+02  0.90379853499E+02 0.  0.
         13    1    3    3    0    0  0.47379556506E+02  0.17892535900E+02  0.37707529359E+02  0.63141293826E+02  0.00000000000E+00 0. -1.
        -14    1    3    3    0    0 -0.57396355559E+01 -0.42578367906E+02 -0.10779678999E+02  0.44295172526E+02  0.00000000000E+00 0.  1.
        -11    1    4    4    0    0 -0.46220751311E+01 -0.22892064121E+02  0.33033103476E+02  0.40454865016E+02  0.00000000000E+00 0.  1.
         11    1    4    4    0    0  0.31171402293E+01  0.47171397786E+02 -0.25014294504E+02  0.53484317906E+02  0.00000000000E+00 0. -1.
          2    1    1    2  501    0 -0.40134986049E+02  0.40649834135E+00 -0.30929216615E+02  0.50671479023E+02  0.00000000000E+00 0. -1.
<scales pt_clust_5="13000.00000" pt_clust_6="13000.00000" pt_clust_7="13000.00000" pt_clust_8="13000.00000" pt_clust_9="40.13704"></scales>
<clustering>
<clus scale="   40.137">  2  9  1 -1</clus>
<clus scale="   90.380">  7  8 -1 -1</clus>
<clus scale="   92.055">  5  6 -1 -1</clus>
<clus scale="   96.240">  2  7  1 -1</clus>
<clus scale="   40.137">  2  5  1 -1</clus>
</clustering>
</event>
<event>
 9    1  0.5981539E-005  0.1682396E+03  0.7546771E-02  0.1181114E+00
         21   -1    0    0  501  502  0.00000000000E+00  0.00000000000E+00  0.28508597055E+03  0.28508597055E+03  0.00000000000E+00 0. -1.
          3   -1    0    0  502    0 -0.00000000000E+00 -0.00000000000E+00 -0.16564584100E+03  0.16564584100E+03  0.00000000000E+00 0. -1.
         23    2    1    2    0    0 -0.31568443571E+02  0.10369267875E+03  0.39450899983E+02  0.14708725429E+03  0.91266360776E+02 0.  0.
        -24    2    1    2    0    0  0.28762677289E+02 -0.17228922370E+03 -0.71252639865E+01  0.19272885373E+03  0.81134292784E+02 0.  0.
         13    1    4    4    0    0  0.61770897440E+01 -0.99067384831E+02  0.35045716244E+02  0.10526492959E+03  0.00000000000E+00 0. -1.
        -14    1    4    4    0    0  0.22585587545E+02 -0.73221838868E+02 -0.42170980231E+02  0.87463924138E+02  0.00000000000E+00 0.  1.
        -11    1    3    3    0    0 -0.28701344123E+02  0.56302950901E+02 -0.24207719602E+02  0.67674242685E+02  0.00000000000E+00 0.  1.
         11    1    3    3    0    0 -0.28670994478E+01  0.47389727853E+02  0.63658619585E+02  0.79413011608E+02  0.00000000000E+00 0. -1.
          4    1    1    2  501    0  0.28057662818E+01  0.68596544946E+02  0.87114493547E+02  0.11091570353E+03  0.00000000000E+00 0. -1.
<scales pt_clust_5="13000.00000" pt_clust_6="13000.00000" pt_clust_7="13000.00000" pt_clust_8="13000.00000" pt_clust_9="68.65390"></scales>
<clustering>
<clus scale="   68.654">  1  9  2 -1</clus>
<clus scale="   81.134">  5  6 -1 -1</clus>
<clus scale="   91.266">  7  8 -1 -1</clus>
<clus scale="  162.966">  1  5  2 -1</clus>
<clus scale="   68.654">  1  5  2 -1</clus>
</clustering>
</event>
<event>
 9    1  0.5981539E-005  0.1544514E+03  0.7546771E-02  0.1196754E+00
         21   -1    0    0  501  502  0.00000000000E+00  0.00000000000E+00  0.14120094696E+04  0.14120094696E+04  0.00000000000E+00 0. -1.
         -4   -1    0    0    0  501 -0.00000000000E+00 -0.00000000000E+00 -0.54308535856E+02  0.54308535856E+02  0.00000000000E+00 0.  1.
         23    2    1    2    0    0 -0.93079948871E+02  0.58724516518E+02  0.12045319121E+03  0.18647872835E+03  0.90293405803E+02 0.  0.
        -24    2    1    2    0    0  0.13466485815E+03 -0.15138858169E+03  0.70369070360E+03  0.73670112944E+03  0.80590452914E+02 0.  0.
         13    1    4    4    0    0  0.26674123193E+02 -0.83892993655E+02  0.34575905788E+03  0.35678967101E+03  0.00000000000E+00 0. -1.
        -14    1    4    4    0    0  0.10799073496E+03 -0.67495588037E+02  0.35793164571E+03  0.37991145843E+03  0.00000000000E+00 0.  1.
        -11    1    3    3    0    0 -0.15397869978E+02 -0.18738746676E+02  0.51442952724E+02  0.56873653055E+02  0.00000000000E+00 0. -1.
         11    1    3    3    0    0 -0.77682078893E+02  0.77463263194E+02  0.69010238482E+02  0.12960507529E+03  0.00000000000E+00 0.  1.
         -3    1    1    2    0  502 -0.41584909277E+02  0.92664065173E+02  0.53355703897E+03  0.54313814770E+03  0.00000000000E+00 0.  1.
<scales pt_clust_5="13000.00000" pt_clust_6="13000.00000" pt_clust_7="13000.00000" pt_clust_8="13000.00000" pt_clust_9="101.56738"></scales>
<clustering>
<clus scale="   80.590">  5  6 -1 -1</clus>
<clus scale="   90.293">  7  8 -1 -1</clus>
<clus scale="  101.567">  1  9  2 -1</clus>
<clus scale="  148.987">  1  5  2 -1</clus>
<clus scale="  101.567">  1  5  2 -1</clus>
</clustering>
</event>
<event>
 9    1  0.5981539E-005  0.1363146E+03  0.7546771E-02  0.1219997E+00
         21   -1    0    0  501  502  0.00000000000E+00  0.00000000000E+00  0.51026073667E+02  0.51026073667E+02  0.00000000000E+00 0.  1.
         -4   -1    0    0    0  501 -0.00000000000E+00 -0.00000000000E+00 -0.43779183914E+03  0.43779183914E+03  0.00000000000E+00 0.  1.
        -24    2    1    2    0    0  0.88425593142E+02 -0.10688331770E+02 -0.14899626886E+03  0.19288340713E+03  0.84088017286E+02 0.  0.
         23    2    1    2    0    0 -0.11561845610E+03  0.83603615740E+00 -0.19533325417E+03  0.24457932876E+03  0.91080412393E+02 0.  0.
         13    1    3    3    0    0 -0.55825599570E+01  0.22152366680E+02 -0.30340655213E+02  0.37979569297E+02  0.00000000000E+00 0. -1.
        -14    1    3    3    0    0  0.94008153099E+02 -0.32840698450E+02 -0.11865561365E+03  0.15490383783E+03  0.00000000000E+00 0.  1.
        -11    1    4    4    0    0  0.48122297325E+01  0.23843849269E+02 -0.27221926766E+02  0.36506437786E+02  0.00000000000E+00 0. -1.
         11    1    4    4    0    0 -0.12043068583E+03 -0.23007813112E+02 -0.16811132741E+03  0.20807289097E+03  0.00000000000E+00 0.  1.
         -3    1    1    2    0  502  0.27192862958E+02  0.98522956121E+01 -0.42436242434E+02  0.51355176921E+02  0.00000000000E+00 0.  1.
<scales pt_clust_5="13000.00000" pt_clust_6="13000.00000" pt_clust_7="13000.00000" pt_clust_8="13000.00000" pt_clust_9="28.92266"></scales>
<clustering>
<clus scale="   28.923">  1  9  2 -1</clus>
<clus scale="   84.088">  5  6 -1 -1</clus>
<clus scale="   91.080">  7  8 -1 -1</clus>
<clus scale="  131.745">  2  5  1 -1</clus>
<clus scale="   28.923">  1  5  2 -1</clus>
</clustering>
</event>
<event>
 9    1  0.5981539E-005  0.1035103E+03  0.7546771E-02  0.1275568E+00
          1   -1    0    0  502    0 -0.00000000000E+00  0.00000000000E+00  0.23837395842E+03  0.23837395842E+03  0.00000000000E+00 0. -1.
         21   -1    0    0  501  502  0.00000000000E+00 -0.00000000000E+00 -0.96869869815E+02  0.96869869815E+02  0.00000000000E+00 0. -1.
         23    2    1    2    0    0  0.33728541689E+02 -0.13758328130E+02  0.54831598892E+02  0.11299905497E+03  0.91844303409E+02 0.  0.
        -24    2    1    2    0    0 -0.15839636957E+02  0.84389199045E+02  0.19877987430E+02  0.12340025711E+03  0.86371627615E+02 0.  0.
         11    1    4    4    0    0 -0.17621823594E+02  0.96626267133E+02 -0.20324206880E+01  0.98241004172E+02  0.00000000000E+00 0. -1.
        -12    1    4    4    0    0  0.17821866376E+01 -0.12237068088E+02  0.21910408118E+02  0.25159252941E+02  0.00000000000E+00 0.  1.
        -13    1    3    3    0    0  0.12005593475E+02  0.36480032895E+02  0.41742936688E+02  0.56722128292E+02  0.00000000000E+00 0.  1.
         13    1    3    3    0    0  0.21722948214E+02 -0.50238361024E+02  0.13088662204E+02  0.56276926674E+02  0.00000000000E+00 0. -1.
          2    1    1    2  501    0 -0.17888904732E+02 -0.70630870915E+02  0.66794502280E+02  0.98844516153E+02  0.00000000000E+00 0. -1.
<scales pt_clust_5="13000.00000" pt_clust_6="13000.00000" pt_clust_7="13000.00000" pt_clust_8="13000.00000" pt_clust_9="72.86109"></scales>
<clustering>
<clus scale="   72.861">  2  9  1 -1</clus>
<clus scale="   86.372">  5  6 -1 -1</clus>
<clus scale="   91.844">  7  8 -1 -1</clus>
<clus scale="   98.687">  2  5  1 -1</clus>
<clus scale="   72.861">  2  5  1 -1</clus>
</clustering>
</event>
<event>
 9    1  0.5981539E-005  0.9942448E+02  0.7546771E-02  0.1291329E+00
         21   -1    0    0  501  502  0.00000000000E+00  0.00000000000E+00  0.24952556824E+03  0.24952556824E+03  0.00000000000E+00 0. -1.
         -4   -1    0    0    0  501 -0.00000000000E+00 -0.00000000000E+00 -0.10669044885E+03  0.10669044885E+03  0.00000000000E+00 0.  1.
        -24    2    1    2    0    0  0.37296547840E+02 -0.93889793763E+01 -0.71369236573E+02  0.10932693465E+03  0.73345928974E+02 0.  0.
         23    2    1    2    0    0 -0.27209794267E+02  0.29524460854E+02  0.17443299598E+03  0.20118414520E+03  0.91848372342E+02 0.  0.
         11    1    3    3    0    0 -0.15472534539E+02  0.17575203389E+02 -0.23164560291E+02  0.32937576607E+02  0.00000000000E+00 0. -1.
        -12    1    3    3    0    0  0.52769082379E+02 -0.26964182765E+02 -0.48204676282E+02  0.76389358046E+02  0.00000000000E+00 0.  1.
        -11    1    4    4    0    0 -0.23113814647E+01  0.58543643445E+02  0.78831862901E+02  0.98219973938E+02  0.00000000000E+00 0.  1.
         11    1    4    4    0    0 -0.24898412803E+02 -0.29019182590E+02  0.95601133081E+02  0.10296417127E+03  0.00000000000E+00 0. -1.
         -3    1    1    2    0  502 -0.10086753572E+02 -0.20135481478E+02  0.39771359986E+02  0.45704937229E+02  0.00000000000E+00 0.  1.
<scales pt_clust_5="13000.00000" pt_clust_6="13000.00000" pt_clust_7="13000.00000" pt_clust_8="13000.00000" pt_clust_9="22.52066"></scales>
<clustering>
<clus scale="   22.521">  1  9  2 -1</clus>
<clus scale="   73.346">  5  6 -1 -1</clus>
<clus scale="   82.636">  2  5  1 -1</clus>
<clus scale="   91.848">  7  8 -1 -1</clus>
<clus scale="   22.521">  1  5  2 -1</clus>
</clustering>
</event>
<event>
 9    1  0.5981539E-005  0.9502423E+02  0.7546771E-02  0.1299248E+00
         21   -1    0    0  501  502  0.00000000000E+00  0.00000000000E+00  0.27753807574E+03  0.27753807574E+03  0.00000000000E+00 0. -1.
         -2   -1    0    0    0  501 -0.00000000000E+00 -0.00000000000E+00 -0.76569939041E+02  0.76569939041E+02  0.00000000000E+00 0.  1.
        -24    2    1    2    0    0  0.18975630482E+02  0.14428813561E+02 -0.32779474490E+02  0.88166424631E+02  0.78297888039E+02 0.  0.
         23    2    1    2    0    0 -0.87957484983E+00 -0.30013705884E+02  0.14766727715E+03  0.17660973690E+03  0.92107427668E+02 0.  0.
         13    1    3    3    0    0  0.77003856100E+01 -0.26883612269E+02  0.79440228149E+01  0.29071154873E+02  0.00000000000E+00 0. -1.
        -14    1    3    3    0    0  0.11275244872E+02  0.41312425831E+02 -0.40723497305E+02  0.59095269757E+02  0.00000000000E+00 0.  1.
        -13    1    4    4    0    0 -0.11463891377E+02  0.31128016300E+02  0.36685560753E+02  0.49459120211E+02  0.00000000000E+00 0.  1.
         13    1    4    4    0    0  0.10584316527E+02 -0.61141722184E+02  0.11098171640E+03  0.12715061668E+03  0.00000000000E+00 0. -1.
         -1    1    1    2    0  502 -0.18096055632E+02  0.15584892323E+02  0.86080334035E+02  0.89331853254E+02  0.00000000000E+00 0.  1.
<scales pt_clust_5="13000.00000" pt_clust_6="13000.00000" pt_clust_7="13000.00000" pt_clust_8="13000.00000" pt_clust_9="23.88213"></scales>
<clustering>
<clus scale="   23.882">  1  9  2 -1</clus>
<clus scale="   78.298">  5  6 -1 -1</clus>
<clus scale="   81.709">  2  5  1 -1</clus>
<clus scale="   92.107">  7  8 -1 -1</clus>
<clus scale="   23.882">  1  5  2 -1</clus>
</clustering>
</event>
<event>
 9    1  0.5981539E-005  0.1503137E+03  0.7546771E-02  0.1225253E+00
         -2   -1    0    0    0  501 -0.00000000000E+00  0.00000000000E+00  0.12275035492E+03  0.12275035492E+03  0.00000000000E+00 0.  1.
         21   -1    0    0  501  502  0.00000000000E+00 -0.00000000000E+00 -0.32591410038E+03  0.32591410038E+03  0.00000000000E+00 0.  1.
        -24    2    1    2    0    0  0.38126365425E+02  0.20252907507E+02 -0.10679889430E+03  0.13840530995E+03  0.76721743949E+02 0.  0.
         23    2    1    2    0    0 -0.66655609426E+02 -0.12806697639E+03 -0.13444097616E+02  0.17128561340E+03  0.91180572982E+02 0.  0.
         11    1    3    3    0    0 -0.23508547420E+02  0.10012830484E+02 -0.30538075509E+02  0.39818119391E+02  0.00000000000E+00 0. -1.
        -12    1    3    3    0    0  0.61634912845E+02  0.10240077023E+02 -0.76260818791E+02  0.98587190555E+02  0.00000000000E+00 0.  1.
        -11    1    4    4    0    0 -0.37668987132E+02 -0.49767955910E+02 -0.50162985375E+02  0.80075758683E+02  0.00000000000E+00 0. -1.
         11    1    4    4    0    0 -0.28986622295E+02 -0.78299020478E+02  0.36718887759E+02  0.91209854720E+02  0.00000000000E+00 0.  1.
         -1    1    1    2    0  502  0.28529244002E+02  0.10781406888E+03 -0.82920753546E+02  0.13897353194E+03  0.00000000000E+00 0.  1.
<scales pt_clust_5="13000.00000" pt_clust_6="13000.00000" pt_clust_7="13000.00000" pt_clust_8="13000.00000" pt_clust_9="119.50026"></scales>
<clustering>
<clus scale="   76.722">  5  6 -1 -1</clus>
<clus scale="   88.034">  1  5  2 -1</clus>
<clus scale="   91.181">  7  8 -1 -1</clus>
<clus scale="  119.500">  2  9  1 -1</clus>
<clus scale="  119.500">  2  5  1 -1</clus>
</clustering>
</event>
<event>
 9    1  0.5981539E-005  0.9650752E+02  0.7546771E-02  0.1295612E+00
          1   -1    0    0  502    0 -0.00000000000E+00  0.00000000000E+00  0.22155653871E+03  0.22155653871E+03  0.00000000000E+00 0. -1.
         21   -1    0    0  501  502  0.00000000000E+00 -0.00000000000E+00 -0.91634388060E+02  0.91634388060E+02  0.00000000000E+00 0. -1.
        -24    2    1    2    0    0  0.13076818133E+02 -0.16355495235E+02  0.57300705190E+02  0.10040953588E+03  0.79750853806E+02 0.  0.
         23    2    1    2    0    0  0.47052053314E+01  0.43314586835E+02 -0.28290961476E+02  0.10682712316E+03  0.93345398121E+02 0.  0.
         13    1    3    3    0    0  0.97194938650E+01 -0.46929426479E+02  0.49023410875E+02  0.68557526534E+02  0.00000000000E+00 0. -1.
        -14    1    3    3    0    0  0.33573242679E+01  0.30573931244E+02  0.82772943156E+01  0.31852009343E+02  0.00000000000E+00 0.  1.
        -11    1    4    4    0    0  0.21609573334E+02  0.58409444661E+02 -0.46526102542E+02  0.77738761908E+02  0.00000000000E+00 0. -1.
         11    1    4    4    0    0 -0.16904368002E+02 -0.15094857826E+02  0.18235141066E+02  0.29088361247E+02  0.00000000000E+00 0.  1.
          2    1    1    2  501    0 -0.17782023464E+02 -0.26959091600E+02  0.10091240693E+03  0.10595426774E+03  0.00000000000E+00 0. -1.
<scales pt_clust_5="13000.00000" pt_clust_6="13000.00000" pt_clust_7="13000.00000" pt_clust_8="13000.00000" pt_clust_9="32.29542"></scales>
<clustering>
<clus scale="   32.295">  2  9  1 -1</clus>
<clus scale="   79.751">  5  6 -1 -1</clus>
<clus scale="   83.430">  1  5  2 -1</clus>
<clus scale="   93.345">  7  8 -1 -1</clus>
<clus scale="   32.295">  2  5  1 -1</clus>
</clustering>
</event>
<event>
 9    1  0.5981539E-005  0.1208016E+03  0.7546771E-02  0.1244661E+00
         21   -1    0    0  501  502  0.00000000000E+00  0.00000000000E+00  0.87349723351E+02  0.87349723351E+02  0.00000000000E+00 0. -1.
          1   -1    0    0  502    0 -0.00000000000E+00 -0.00000000000E+00 -0.51277807937E+03  0.51277807937E+03  0.00000000000E+00 0. -1.
         23    2    1    2    0    0 -0.56862899048E+02 -0.52174984591E+02 -0.37682408196E+03  0.39542111778E+03  0.91683440907E+02 0.  0.
        -24    2    1    2    0    0  0.17036205659E+02  0.10260607860E+03 -0.45663710689E+02  0.14037855996E+03  0.82478639381E+02 0.  0.
         11    1    4    4    0    0 -0.14744115093E+02  0.99645368915E+02 -0.32379345408E+02  0.10580647657E+03  0.00000000000E+00 0. -1.
        -12    1    4    4    0    0  0.31780320751E+02  0.29607096873E+01 -0.13284365280E+02  0.34572083388E+02  0.00000000000E+00 0.  1.
        -13    1    3    3    0    0  0.22164286301E+02 -0.14515860173E+02 -0.44779095076E+02  0.52030117621E+02  0.00000000000E+00 0.  1.
         13    1    3    3    0    0 -0.79027185349E+02 -0.37659124418E+02 -0.33204498689E+03  0.34339100016E+03  0.00000000000E+00 0. -1.
          2    1    1    2  501    0  0.39826693390E+02 -0.50431094012E+02 -0.29405633653E+01  0.64328124972E+02  0.00000000000E+00 0. -1.
<scales pt_clust_5="13000.00000" pt_clust_6="13000.00000" pt_clust_7="13000.00000" pt_clust_8="13000.00000" pt_clust_9="64.26088"></scales>
<clustering>
<clus scale="   64.261">  1  9  2 -1</clus>
<clus scale="   82.479">  5  6 -1 -1</clus>
<clus scale="   91.683">  7  8 -1 -1</clus>
<clus scale="  113.973">  1  5  2 -1</clus>
<clus scale="   64.261">  1  5  2 -1</clus>
</clustering>
</event>
<event>
 9    1  0.5981539E-005  0.9426185E+02  0.7546771E-02  0.1297622E+00
         21   -1    0    0  501  502  0.00000000000E+00  0.00000000000E+00  0.41607558390E+02  0.41607558390E+02  0.00000000000E+00 0.  1.
          1   -1    0    0  502    0 -0.00000000000E+00 -0.00000000000E+00 -0.34818469627E+03  0.34818469627E+03  0.00000000000E+00 0. -1.
         23    2    1    2    0    0  0.31929073458E+02 -0.13170116474E+02 -0.25108837004E+03  0.26875883215E+03  0.89403705683E+02 0.  0.
        -24    2    1    2    0    0 -0.14343868001E+02  0.27767720163E+01 -0.28173148683E+02  0.86924712334E+02  0.80924176212E+02 0.  0.
         13    1    4    4    0    0  0.12291653229E+02 -0.32400779949E+02 -0.24914893861E+02  0.42680759324E+02  0.00000000000E+00 0. -1.
        -14    1    4    4    0    0 -0.26635521230E+02  0.35177551965E+02 -0.32582548214E+01  0.44243953010E+02  0.00000000000E+00 0.  1.
        -13    1    3    3    0    0  0.18583130739E+02 -0.39250406447E+02 -0.22615999862E+03  0.23029171094E+03  0.00000000000E+00 0. -1.
         13    1    3    3    0    0  0.13345942719E+02  0.26080289972E+02 -0.24928371416E+02  0.38467121202E+02  0.00000000000E+00 0.  1.
          2    1    1    2  501    0 -0.17585205456E+02  0.10393344458E+02 -0.27315619162E+02  0.34108710180E+02  0.00000000000E+00 0. -1.
<scales pt_clust_5="13000.00000" pt_clust_6="13000.00000" pt_clust_7="13000.00000" pt_clust_8="13000.00000" pt_clust_9="20.42698"></scales>
<clustering>
<clus scale="   20.427">  1  9  2 -1</clus>
<clus scale="   80.924">  5  6 -1 -1</clus>
<clus scale="   86.261">  1  5  2 -1</clus>
<clus scale="   89.404">  7  8 -1 -1</clus>
<clus scale="   20.427">  1  5  2 -1</clus>
</clustering>
</event>
<event>
 9    1  0.5981539E-005  0.9303024E+02  0.7546771E-02  0.1295954E+00
          1   -1    0    0  502    0 -0.00000000000E+00  0.00000000000E+00  0.39878036186E+03  0.39878036186E+03  0.00000000000E+00 0. -1.
         21   -1    0    0  501  502  0.00000000000E+00 -0.00000000000E+00 -0.69381986653E+02  0.69381986653E+02  0.00000000000E+00 0.  1.
        -24    2    1    2    0    0  0.14812587818E+01 -0.10605956801E+02  0.23395888151E+03  0.25156555147E+03  0.91835657574E+02 0.  0.
         23    2    1    2    0    0 -0.35322267991E+02  0.32823284818E+02 -0.98792928777E+01  0.10376563834E+03  0.91349201584E+02 0.  0.
         11    1    3    3    0    0 -0.20882607655E+02 -0.34908435248E+02  0.20037851305E+03  0.20446571998E+03  0.00000000000E+00 0. -1.
        -12    1    3    3    0    0  0.22363866437E+02  0.24302478447E+02  0.33580368459E+02  0.47099831492E+02  0.00000000000E+00 0.  1.
        -11    1    4    4    0    0 -0.65427852486E+02  0.31800288271E+02 -0.11251006731E+02  0.73611462202E+02  0.00000000000E+00 0.  1.
         11    1    4    4    0    0  0.30105584494E+02  0.10229965467E+01  0.13717138535E+01  0.30154176138E+02  0.00000000000E+00 0. -1.
          2    1    1    2  501    0  0.33841009209E+02 -0.22217328018E+02  0.10531878657E+03  0.11283115870E+03  0.00000000000E+00 0. -1.
<scales pt_clust_5="13000.00000" pt_clust_6="13000.00000" pt_clust_7="13000.00000" pt_clust_8="13000.00000" pt_clust_9="40.48241"></scales>
<clustering>
<clus scale="   40.482">  2  9  1 -1</clus>
<clus scale="   91.349">  7  8 -1 -1</clus>
<clus scale="   91.836">  5  6 -1 -1</clus>
<clus scale="   92.550">  2  7  1 -1</clus>
<clus scale="   40.482">  2  5  1 -1</clus>
</clustering>
</event>
<event>
 9    1  0.5981539E-005  0.1001423E+03  0.7546771E-02  0.1282972E+00
          1   -1    0    0  502    0 -0.00000000000E+00  0.00000000000E+00  0.60094336919E+03  0.60094336919E+03  0.00000000000E+00 0. -1.
         21   -1    0    0  501  502  0.00000000000E+00 -0.00000000000E+00 -0.57155079453E+02  0.57155079453E+02  0.00000000000E+00 0. -1.
         23    2    1    2    0    0  0.38791844690E+02  0.19412991323E+02  0.45215443319E+03  0.46317197551E+03  0.90570282087E+02 0.  0.
        -24    2    1    2    0    0 -0.45300793718E+02  0.28334200900E+01  0.12298328359E+03  0.15593857995E+03  0.84449763120E+02 0.  0.
         11    1    4    4    0    0 -0.25101905993E+02 -0.70835591322E+01  0.12982527067E+03  0.13241934677E+03  0.00000000000E+00 0. -1.
        -12    1    4    4    0    0 -0.20198887724E+02  0.99169792222E+01 -0.68419870731E+01  0.23519233178E+02  0.00000000000E+00 0.  1.
        -11    1    3    3    0    0  0.53097496359E+02 -0.21341912206E+02  0.25959381428E+03  0.26582657833E+03  0.00000000000E+00 0. -1.
         11    1    3    3    0    0 -0.14305651670E+02  0.40754903529E+02  0.19256061892E+03  0.19734539718E+03  0.00000000000E+00 0.  1.
          2    1    1    2  501    0  0.65089490278E+01 -0.22246411413E+02 -0.31349427053E+02  0.38987893182E+02  0.00000000000E+00 0. -1.
<scales pt_clust_5="13000.00000" pt_clust_6="13000.00000" pt_clust_7="13000.00000" pt_clust_8="13000.00000" pt_clust_9="23.17907"></scales>
<clustering>
<clus scale="   23.179">  2  9  1 -1</clus>
<clus scale="   84.450">  5  6 -1 -1</clus>
<clus scale="   90.570">  7  8 -1 -1</clus>
<clus scale="   94.643">  2  5  1 -1</clus>
<clus scale="   23.179">  2  5  1 -1</clus>
</clustering>
</event>
<event>
 9    1  0.5981539E-005  0.1626603E+03  0.7546771E-02  0.1187234E+00
          1   -1    0    0  502    0 -0.00000000000E+00  0.00000000000E+00  0.10904906552E+03  0.10904906552E+03  0.00000000000E+00 0. -1.
         21   -1    0    0  501  502  0.00000000000E+00 -0.00000000000E+00 -0.57481287359E+03  0.57481287359E+03  0.00000000000E+00 0. -1.
         23    2    1    2    0    0 -0.16774306452E+02 -0.10799803112E+03 -0.11039019222E+03  0.17977095574E+03  0.90480107799E+02 0.  0.
        -24    2    1    2    0    0 -0.74592222835E+02  0.19350459835E+03 -0.28149395758E+03  0.35877264447E+03  0.80442109477E+02 0.  0.
         13    1    4    4    0    0 -0.66960043510E+02  0.17560730703E+03 -0.19780742220E+03  0.27285408185E+03  0.00000000000E+00 0. -1.
        -14    1    4    4    0    0 -0.76321793255E+01  0.17897291321E+02 -0.83686535378E+02  0.85918562613E+02  0.00000000000E+00 0.  1.
        -11    1    3    3    0    0 -0.35866609816E+02 -0.55311737169E+02 -0.12679383875E+02  0.67130981996E+02  0.00000000000E+00 0.  1.
         11    1    3    3    0    0  0.19092303364E+02 -0.52686293953E+02 -0.97710808345E+02  0.11263997375E+03  0.00000000000E+00 0. -1.
          2    1    1    2  501    0  0.91366529288E+02 -0.85506567226E+02 -0.73879658273E+02  0.14531833890E+03  0.00000000000E+00 0. -1.
<scales pt_clust_5="13000.00000" pt_clust_6="13000.00000" pt_clust_7="13000.00000" pt_clust_8="13000.00000" pt_clust_9="125.13685"></scales>
<clustering>
<clus scale="   80.442">  5  6 -1 -1</clus>
<clus scale="   90.480">  7  8 -1 -1</clus>
<clus scale="  125.137">  2  9  1 -1</clus>
<clus scale="  157.298">  2  5  1 -1</clus>
<clus scale="  125.137">  2  5  1 -1</clus>
</clustering>
</event>
<event>
 9    1  0.5981539E-005  0.1326083E+03  0.7546771E-02  0.1225670E+00
         21   -1    0    0  501  502  0.00000000000E+00  0.00000000000E+00  0.82270023683E+03  0.82270023683E+03  0.00000000000E+00 0. -1.
          1   -1    0    0  502    0 -0.00000000000E+00 -0.00000000000E+00 -0.65431988743E+02  0.65431988743E+02  0.00000000000E+00 0. -1.
        -24    2    1    2    0    0  0.11665838091E+03  0.31613060599E+02  0.50212077875E+02  0.15397279637E+03  0.81103673285E+02 0.  0.
         23    2    1    2    0    0 -0.19504584587E+02 -0.34937334639E+02  0.29780795389E+03  0.31352417925E+03  0.89480653789E+02 0.  0.
         11    1    3    3    0    0  0.81596006515E+02  0.71864673137E+01 -0.73971320322E+01  0.82245189245E+02  0.00000000000E+00 0. -1.
        -12    1    3    3    0    0  0.35062374398E+02  0.24426593285E+02  0.57609209908E+02  0.71727607127E+02  0.00000000000E+00 0.  1.
        -11    1    4    4    0    0 -0.10858359460E+02  0.28693379640E+02  0.13647960069E+03  0.13988529376E+03  0.00000000000E+00 0.  1.
         11    1    4    4    0    0 -0.86462251275E+01 -0.63630714279E+02  0.16132835320E+03  0.17363888550E+03  0.00000000000E+00 0. -1.
          2    1    1    2  501    0 -0.97153796326E+02  0.33242740401E+01  0.40924821632E+03  0.42063524995E+03  0.00000000000E+00 0. -1.
<scales pt_clust_5="13000.00000" pt_clust_6="13000.00000" pt_clust_7="13000.00000" pt_clust_8="13000.00000" pt_clust_9="97.21065"></scales>
<clustering>
<clus scale="   81.104">  5  6 -1 -1</clus>
<clus scale="   89.481">  7  8 -1 -1</clus>
<clus scale="   97.211">  1  9  2 -1</clus>
<clus scale="  127.106">  2  5  1 -1</clus>
<clus scale="   97.211">  1  5  2 -1</clus>
</clustering>
</event>
<event>
 9    1  0.5981539E-005  0.2313442E+03  0.7546771E-02  0.1154127E+00
         21   -1    0    0  501  502  0.00000000000E+00  0.00000000000E+00  0.44038644752E+03  0.44038644752E+03  0.00000000000E+00 0.  1.
          1   -1    0    0  502    0 -0.00000000000E+00 -0.00000000000E+00 -0.29916521465E+03  0.29916521465E+03  0.00000000000E+00 0. -1.
         23    2    1    2    0    0 -0.72232237112E+02  0.53088411284E+01  0.24195742125E+03  0.26854539303E+03  0.91255435724E+02 0.  0.
        -24    2    1    2    0    0 -0.56646153442E+02  0.19501600539E+03 -0.24121901152E+02  0.22078749948E+03  0.83217935288E+02 0.  0.
         11    1    4    4    0    0 -0.58201017671E+02  0.20306973955E+03 -0.23752794966E+02  0.21257674579E+03  0.00000000000E+00 0. -1.
        -12    1    4    4    0    0  0.15548642286E+01 -0.80537341671E+01 -0.36910618572E+00  0.82107536914E+01  0.00000000000E+00 0.  1.
        -13    1    3    3    0    0 -0.85766398007E+02  0.26598158329E+02  0.16941115594E+03  0.19173804215E+03  0.00000000000E+00 0.  1.
         13    1    3    3    0    0  0.13534160896E+02 -0.21289317201E+02  0.72546265314E+02  0.76807350879E+02  0.00000000000E+00 0. -1.
          2    1    1    2  501    0  0.12887839055E+03 -0.20032484652E+03 -0.76614287219E+02  0.25021876966E+03  0.00000000000E+00 0. -1.
<scales pt_clust_5="13000.00000" pt_clust_6="13000.00000" pt_clust_7="13000.00000" pt_clust_8="13000.00000" pt_clust_9="215.85864"></scales>
<clustering>
<clus scale="   83.218">  5  6 -1 -1</clus>
<clus scale="   91.255">  7  8 -1 -1</clus>
<clus scale="  116.504">  2  7  1 -1</clus>
<clus scale="  215.859">  1  9  2 -1</clus>
<clus scale="  215.859">  1  5  2 -1</clus>
</clustering>
</event>
<event>
 9    1  0.5981539E-005  0.1812581E+03  0.7546771E-02  0.1193956E+00
          1   -1    0    0  502    0 -0.00000000000E+00  0.00000000000E+00  0.38040753271E+03  0.38040753271E+03  0.00000000000E+00 0. -1.
         21   -1    0    0  501  502  0.00000000000E+00 -0.00000000000E+00 -0.24809253083E+03  0.24809253083E+03  0.00000000000E+00 0. -1.
        -24    2    1    2    0    0 -0.16278282829E+02  0.50827636440E+02  0.72489437212E+02  0.12189804148E+03  0.82194786286E+02 0.  0.
         23    2    1    2    0    0 -0.99025433348E+02 -0.15211518437E+03  0.20955480338E+03  0.29218896449E+03  0.92282769711E+02 0.  0.
         13    1    3    3    0    0 -0.17975207960E+02  0.50694989628E+02  0.45961992735E+01  0.53983470825E+02  0.00000000000E+00 0. -1.
        -14    1    3    3    0    0  0.16969251302E+01  0.13264681214E+00  0.67893237939E+02  0.67914570660E+02  0.00000000000E+00 0.  1.
        -13    1    4    4    0    0 -0.74541672110E+02 -0.76804985183E+02  0.17641604002E+03  0.20634458027E+03  0.00000000000E+00 0. -1.
         13    1    4    4    0    0 -0.24483761238E+02 -0.75310199183E+02  0.33138763362E+02  0.85844384223E+02  0.00000000000E+00 0.  1.
          2    1    1    2  501    0  0.11530371618E+03  0.10128754793E+03 -0.14972923872E+03  0.21441305757E+03  0.00000000000E+00 0. -1.
<scales pt_clust_5="13000.00000" pt_clust_6="13000.00000" pt_clust_7="13000.00000" pt_clust_8="13000.00000" pt_clust_9="156.00766"></scales>
<clustering>
<clus scale="   82.195">  5  6 -1 -1</clus>
<clus scale="   92.283">  7  8 -1 -1</clus>
<clus scale="   98.002">  1  5  2 -1</clus>
<clus scale="  156.008">  2  9  1 -1</clus>
<clus scale="  156.008">  2  5  1 -1</clus>
</clustering>
</event>
<event>
 9    1  0.5981539E-005  0.2006261E+03  0.7546771E-02  0.1150364E+00
          1   -1    0    0  502    0 -0.00000000000E+00  0.00000000000E+00  0.51229587132E+03  0.51229587132E+03  0.00000000000E+00 0. -1.
         21   -1    0    0  501  502  0.00000000000E+00 -0.00000000000E+00 -0.10922001397E+03  0.10922001397E+03  0.00000000000E+00 0.  1.
        -24    2    1    2    0    0  0.28083967873E+01  0.16924318291E+03  0.27362756457E+03  0.33142476783E+03  0.79493336713E+02 0.  0.
         23    2    1    2    0    0  0.17962150748E+02 -0.20042362112E+03  0.10188433340E+03  0.24357867581E+03  0.91966771994E+02 0.  0.
         13    1    3    3    0    0 -0.98708008612E+01  0.15889858528E+03  0.27175326583E+03  0.31495401348E+03  0.00000000000E+00 0. -1.
        -14    1    3    3    0    0  0.12679197648E+02  0.10344597623E+02  0.18742987376E+01  0.16470754347E+02  0.00000000000E+00 0.  1.
        -13    1    4    4    0    0  0.67676705113E+01 -0.16818408176E+03  0.40155302512E+02  0.17304373737E+03  0.00000000000E+00 0.  1.
         13    1    4    4    0    0  0.11194480237E+02 -0.32239539363E+02  0.61729030890E+02  0.70534938440E+02  0.00000000000E+00 0. -1.
          2    1    1    2  501    0 -0.20770547536E+02  0.31180438216E+02  0.27563959373E+02  0.46512441653E+02  0.00000000000E+00 0. -1.
<scales pt_clust_5="13000.00000" pt_clust_6="13000.00000" pt_clust_7="13000.00000" pt_clust_8="13000.00000" pt_clust_9="37.46512"></scales>
<clustering>
<clus scale="   37.465">  2  9  1 -1</clus>
<clus scale="   79.493">  5  6 -1 -1</clus>
<clus scale="   91.967">  7  8 -1 -1</clus>
<clus scale="  195.223">  1  5  2 -1</clus>
<clus scale="   37.465">  2  5  1 -1</clus>
</clustering>
</event>
<event>
 9    1  0.5981539E-005  0.1035393E+03  0.7546771E-02  0.1279477E+00
         -4   -1    0    0    0  501 -0.00000000000E+00  0.00000000000E+00  0.10832384136E+03  0.10832384136E+03  0.00000000000E+00 0.  1.
         21   -1    0    0  501  502  0.00000000000E+00 -0.00000000000E+00 -0.38168392910E+03  0.38168392910E+03  0.00000000000E+00 0.  1.
        -24    2    1    2    0    0  0.26500879053E+02  0.19776684277E+02  0.39222600810E+02  0.95328441327E+02  0.80347280476E+02 0.  0.
         23    2    1    2    0    0 -0.70481828870E+02 -0.43396568938E+02 -0.62864187689E+02  0.14001964923E+03  0.93822415658E+02 0.  0.
         11    1    3    3    0    0  0.44170545759E+02 -0.73656489139E+01  0.41564651811E+00  0.44782392283E+02  0.00000000000E+00 0. -1.
        -12    1    3    3    0    0 -0.17669666706E+02  0.27142333191E+02  0.38806954291E+02  0.50546049044E+02  0.00000000000E+00 0.  1.
        -11    1    4    4    0    0  0.82829168308E+01 -0.44716724494E+02 -0.31028382808E+02  0.55054088862E+02  0.00000000000E+00 0. -1.
         11    1    4    4    0    0 -0.78764745701E+02  0.13201555565E+01 -0.31835804881E+02  0.84965560367E+02  0.00000000000E+00 0.  1.
         -3    1    1    2    0  502  0.43980949817E+02  0.23619884660E+02 -0.24971850086E+03  0.25465967991E+03  0.00000000000E+00 0.  1.
<scales pt_clust_5="13000.00000" pt_clust_6="13000.00000" pt_clust_7="13000.00000" pt_clust_8="13000.00000" pt_clust_9="49.92217"></scales>
<clustering>
<clus scale="   49.922">  2  9  1 -1</clus>
<clus scale="   80.347">  5  6 -1 -1</clus>
<clus scale="   91.506">  1  5  2 -1</clus>
<clus scale="   93.822">  7  8 -1 -1</clus>
<clus scale="   49.922">  2  5  1 -1</clus>
</clustering>
</event>
<event>
 9    1  0.5981539E-005  0.1981813E+03  0.7546771E-02  0.1169226E+00
          1   -1    0    0  502    0 -0.00000000000E+00  0.00000000000E+00  0.71437931653E+03  0.71437931653E+03  0.00000000000E+00 0. -1.
         21   -1    0    0  501  502  0.00000000000E+00 -0.00000000000E+00 -0.13278800695E+03  0.13278800695E+03  0.00000000000E+00 0. -1.
         23    2    1    2    0    0  0.71276360359E+02  0.59341179416E+02  0.37202833427E+03  0.39426508417E+03  0.91859566600E+02 0.  0.
        -24    2    1    2    0    0 -0.20934524339E+03 -0.47314305260E+02  0.36901565282E+02  0.23149847992E+03  0.78522266094E+02 0.  0.
         11    1    4    4    0    0 -0.17582641614E+03 -0.68071788024E+01  0.28937190816E+02  0.17832169613E+03  0.00000000000E+00 0. -1.
        -12    1    4    4    0    0 -0.33518827244E+02 -0.40507126458E+02  0.79643744656E+01  0.53176783791E+02  0.00000000000E+00 0.  1.
        -13    1    3    3    0    0  0.61926017228E+02 -0.50004372890E+01  0.13736795621E+03  0.15076402547E+03  0.00000000000E+00 0. -1.
         13    1    3    3    0    0  0.93503431314E+01  0.64341616705E+02  0.23466037806E+03  0.24350105870E+03  0.00000000000E+00 0.  1.
          2    1    1    2  501    0  0.13806888303E+03 -0.12026874156E+02  0.17266141002E+03  0.22140375939E+03  0.00000000000E+00 0. -1.
<scales pt_clust_5="13000.00000" pt_clust_6="13000.00000" pt_clust_7="13000.00000" pt_clust_8="13000.00000" pt_clust_9="181.96180"></scales>
<clustering>
<clus scale="   78.522">  5  6 -1 -1</clus>
<clus scale="   91.860">  7  8 -1 -1</clus>
<clus scale="  130.537">  1  7  2 -1</clus>
<clus scale="  181.962">  2  9  1 -1</clus>
<clus scale="  181.962">  2  5  1 -1</clus>
</clustering>
</event>
<event>
 9    1  0.5981539E-005  0.1040453E+03  0.7546771E-02  0.1278230E+00
         -4   -1    0    0    0  501 -0.00000000000E+00  0.00000000000E+00  0.10447077171E+03  0.10447077171E+03  0.00000000000E+00 0.  1.
         21   -1    0    0  501  502  0.00000000000E+00 -0.00000000000E+00 -0.22708919501E+03  0.22708919501E+03  0.00000000000E+00 0. -1.
         23    2    1    2    0    0 -0.50264553678E+02 -0.41033435437E+02 -0.11503020464E+02  0.11463375539E+03  0.93799308178E+02 0.  0.
        -24    2    1    2    0    0  0.24841984839E+02 -0.30701270363E+02 -0.10842589334E+03  0.14077236386E+03  0.80628728554E+02 0.  0.
         13    1    4    4    0    0 -0.10912682715E+02 -0.41598907023E+02 -0.88542488580E+02  0.98434384203E+02  0.00000000000E+00 0. -1.
        -14    1    4    4    0    0  0.35754667554E+02  0.10897636661E+02 -0.19883404757E+02  0.42337979657E+02  0.00000000000E+00 0.  1.
        -11    1    3    3    0    0 -0.73948011456E+02 -0.29429627688E+02  0.10511053746E+02  0.80280094887E+02  0.00000000000E+00 0.  1.
         11    1    3    3    0    0  0.23683457779E+02 -0.11603807750E+02 -0.22014074210E+02  0.34353660503E+02  0.00000000000E+00 0. -1.
         -3    1    1    2    0  502  0.25422568839E+02  0.71734705800E+02 -0.26895094980E+01  0.76153847466E+02  0.00000000000E+00 0.  1.
<scales pt_clust_5="13000.00000" pt_clust_6="13000.00000" pt_clust_7="13000.00000" pt_clust_8="13000.00000" pt_clust_9="76.10638"></scales>
<clustering>
<clus scale="   76.106">  2  9  1 -1</clus>
<clus scale="   80.629">  5  6 -1 -1</clus>
<clus scale="   92.348">  2  5  1 -1</clus>
<clus scale="   93.799">  7  8 -1 -1</clus>
<clus scale="   76.106">  2  5  1 -1</clus>
</clustering>
</event>
<event>
 9    1  0.5981539E-005  0.1393249E+03  0.7546771E-02  0.1216828E+00
          3   -1    0    0  502    0 -0.00000000000E+00  0.00000000000E+00  0.94512932821E+02  0.94512932821E+02  0.00000000000E+00 0. -1.
         21   -1    0    0  501  502  0.00000000000E+00 -0.00000000000E+00 -0.37093235501E+03  0.37093235501E+03  0.00000000000E+00 0. -1.
         23    2    1    2    0    0  0.96250100388E+02 -0.55823443386E+01 -0.13177574897E+03  0.18776235895E+03  0.92707125017E+02 0.  0.
        -24    2    1    2    0    0 -0.90171153108E+02  0.86538645011E+02 -0.12416831353E+03  0.19395648997E+03  0.81126912806E+02 0.  0.
         11    1    4    4    0    0 -0.23172225944E+02  0.53637380192E+02 -0.12680179956E+02  0.59788858267E+02  0.00000000000E+00 0. -1.
        -12    1    4    4    0    0 -0.66998927164E+02  0.32901264819E+02 -0.11148813357E+03  0.13416763170E+03  0.00000000000E+00 0.  1.
        -11    1    3    3    0    0  0.38988415230E+02  0.99515433911E+01  0.31563080253E+01  0.40362012071E+02  0.00000000000E+00 0.  1.
         11    1    3    3    0    0  0.57261685158E+02 -0.15533887730E+02 -0.13493205700E+03  0.14740034688E+03  0.00000000000E+00 0. -1.
          4    1    1    2  501    0 -0.60789472799E+01 -0.80956300673E+02 -0.20475359685E+02  0.83726438912E+02  0.00000000000E+00 0. -1.
<scales pt_clust_5="13000.00000" pt_clust_6="13000.00000" pt_clust_7="13000.00000" pt_clust_8="13000.00000" pt_clust_9="81.18425"></scales>
<clustering>
<clus scale="   81.127">  5  6 -1 -1</clus>
<clus scale="   81.184">  2  9  1 -1</clus>
<clus scale="   92.707">  7  8 -1 -1</clus>
<clus scale="  131.903">  2  5  1 -1</clus>
<clus scale="   81.184">  2  5  1 -1</clus>
</clustering>
</event>
<event>
 9    1  0.5981539E-005  0.1110225E+03  0.7546771E-02  0.1263501E+00
         21   -1    0    0  501  502  0.00000000000E+00  0.00000000000E+00  0.10429305167E+03  0.10429305167E+03  0.00000000000E+00 0. -1.
          3   -1    0    0  502    0 -0.00000000000E+00 -0.00000000000E+00 -0.17537090734E+03  0.17537090734E+03  0.00000000000E+00 0. -1.
         23    2    1    2    0    0 -0.16489697469E+02  0.60851010577E+02 -0.81850321658E+02  0.13646158689E+03  0.89148942397E+02 0.  0.
        -24    2    1    2    0    0 -0.11408228876E+02 -0.75131230160E+02 -0.55783636532E+01  0.10785313456E+03  0.76330407189E+02 0.  0.
         11    1    4    4    0    0 -0.25356936950E+02 -0.79951132669E+02 -0.21044495858E+02  0.86475595820E+02  0.00000000000E+00 0. -1.
        -12    1    4    4    0    0  0.13948708074E+02  0.48199025090E+01  0.15466132205E+02  0.21377538738E+02  0.00000000000E+00 0.  1.
        -11    1    3    3    0    0  0.30056070842E+02  0.22609398130E+02 -0.37053532041E+01  0.37792617277E+02  0.00000000000E+00 0.  1.
         11    1    3    3    0    0 -0.46545768311E+02  0.38241612447E+02 -0.78144968454E+02  0.98668969615E+02  0.00000000000E+00 0. -1.
          4    1    1    2  501    0  0.27897926345E+02  0.14280219582E+02  0.16350829648E+02  0.35349237557E+02  0.00000000000E+00 0. -1.
<scales pt_clust_5="13000.00000" pt_clust_6="13000.00000" pt_clust_7="13000.00000" pt_clust_8="13000.00000" pt_clust_9="31.34037"></scales>
<clustering>
<clus scale="   31.340">  1  9  2 -1</clus>
<clus scale="   76.330">  5  6 -1 -1</clus>
<clus scale="   89.149">  7  8 -1 -1</clus>
<clus scale="  101.019">  1  5  2 -1</clus>
<clus scale="   31.340">  1  5  2 -1</clus>
</clustering>
</event>
<event>
 9    1  0.5981539E-005  0.9726912E+02  0.7546771E-02  0.1289866E+00
         21   -1    0    0  501  502  0.00000000000E+00  0.00000000000E+00  0.15772766157E+03  0.15772766157E+03  0.00000000000E+00 0.  1.
         -2   -1    0    0    0  501 -0.00000000000E+00 -0.00000000000E+00 -0.39246612073E+03  0.39246612073E+03  0.00000000000E+00 0.  1.
         23    2    1    2    0    0  0.32693110670E+02 -0.36216495604E+02 -0.33508768893E+03  0.34872466607E+03  0.83334623125E+02 0.  0.
        -24    2    1    2    0    0 -0.73609379429E+02  0.15984623829E+02  0.19266460430E+02  0.10842135877E+03  0.75565505369E+02 0.  0.
         13    1    4    4    0    0 -0.75491880292E+02  0.10574235269E+02  0.40575924173E+02  0.86355336048E+02  0.00000000000E+00 0. -1.
        -14    1    4    4    0    0  0.18825008628E+01  0.54103885602E+01 -0.21309463743E+02  0.22066022724E+02  0.00000000000E+00 0.  1.
        -11    1    3    3    0    0 -0.19565963184E+02 -0.23134671731E+02 -0.49015698098E+02  0.57624461919E+02  0.00000000000E+00 0. -1.
         11    1    3    3    0    0  0.52259073854E+02 -0.13081823873E+02 -0.28607199083E+03  0.29110020415E+03  0.00000000000E+00 0.  1.
         -1    1    1    2    0  502  0.40916268759E+02  0.20231871775E+02  0.81082769339E+02  0.93047757460E+02  0.00000000000E+00 0.  1.
<scales pt_clust_5="13000.00000" pt_clust_6="13000.00000" pt_clust_7="13000.00000" pt_clust_8="13000.00000" pt_clust_9="45.64504"></scales>
<clustering>
<clus scale="   45.645">  1  9  2 -1</clus>
<clus scale="   75.566">  5  6 -1 -1</clus>
<clus scale="   83.335">  7  8 -1 -1</clus>
<clus scale="   90.702">  1  5  2 -1</clus>
<clus scale="   45.645">  1  5  2 -1</clus>
</clustering>
</event>
<event>
 9    1  0.5981539E-005  0.1931892E+03  0.7546771E-02  0.1173979E+00
          1   -1    0    0  502    0 -0.00000000000E+00  0.00000000000E+00  0.22369677353E+03  0.22369677353E+03  0.00000000000E+00 0. -1.
         21   -1    0    0  501  502  0.00000000000E+00 -0.00000000000E+00 -0.68896077426E+03  0.68896077426E+03  0.00000000000E+00 0. -1.
        -24    2    1    2    0    0  0.81093826601E+02  0.53110431634E+02 -0.81535013107E+02  0.15044972587E+03  0.81180262329E+02 0.  0.
         23    2    1    2    0    0  0.12865478764E+02  0.96784715476E+02  0.14942849374E+03  0.20046606085E+03  0.91241246808E+02 0.  0.
         11    1    3    3    0    0  0.80992009179E+02  0.64429765931E+02 -0.89323066894E+02  0.13670958477E+03  0.00000000000E+00 0. -1.
        -12    1    3    3    0    0  0.10181742159E+00 -0.11319334297E+02  0.77880537869E+01  0.13740141102E+02  0.00000000000E+00 0.  1.
        -13    1    4    4    0    0  0.45788395191E+02  0.56956340933E+02  0.50423413697E+02  0.88786950368E+02  0.00000000000E+00 0.  1.
         13    1    4    4    0    0 -0.32922916427E+02  0.39828374542E+02  0.99005080039E+02  0.11167911048E+03  0.00000000000E+00 0. -1.
          2    1    1    2  501    0 -0.93959305365E+02 -0.14989514711E+03 -0.53315748136E+03  0.56174176106E+03  0.00000000000E+00 0. -1.
<scales pt_clust_5="13000.00000" pt_clust_6="13000.00000" pt_clust_7="13000.00000" pt_clust_8="13000.00000" pt_clust_9="170.28534"></scales>
<clustering>
<clus scale="   81.180">  5  6 -1 -1</clus>
<clus scale="   91.241">  7  8 -1 -1</clus>
<clus scale="  126.440">  1  5  2 -1</clus>
<clus scale="  170.285">  2  9  1 -1</clus>
<clus scale="  170.285">  2  5  1 -1</clus>
</clustering>
</event>
<event>
 9    1  0.5981539E-005  0.1252275E+03  0.7546771E-02  0.1254981E+00
          1   -1    0    0  502    0 -0.00000000000E+00  0.00000000000E+00  0.25106582437E+03  0.25106582437E+03  0.00000000000E+00 0. -1.
         21   -1    0    0  501  502  0.00000000000E+00 -0.00000000000E+00 -0.93599941957E+02  0.93599941957E+02  0.00000000000E+00 0.  1.
        -24    2    1    2    0    0 -0.23649593116E+02  0.13140793492E+02  0.13753973838E+03  0.16206855226E+03  0.81345265936E+02 0.  0.
         23    2    1    2    0    0 -0.16328586954E+02  0.23391320472E+02  0.17221217958E+02  0.12837390858E+03  0.12397384172E+03 0.  0.
         11    1    3    3    0    0 -0.24024260675E+02  0.27078724615E+02  0.15740518163E+02  0.39473869076E+02  0.00000000000E+00 0. -1.
        -12    1    3    3    0    0  0.37466755883E+00 -0.13937931123E+02  0.12179922022E+03  0.12259468319E+03  0.00000000000E+00 0.  1.
        -11    1    4    4    0    0  0.46626740204E+02  0.42307070508E+01 -0.22038572639E+02  0.51746018863E+02  0.00000000000E+00 0.  1.
         11    1    4    4    0    0 -0.62955327159E+02  0.19160613421E+02  0.39259790597E+02  0.76627889714E+02  0.00000000000E+00 0. -1.
          2    1    1    2  501    0  0.39978180071E+02 -0.36532113964E+02  0.27049260678E+01  0.54223305482E+02  0.00000000000E+00 0. -1.
<scales pt_clust_5="13000.00000" pt_clust_6="13000.00000" pt_clust_7="13000.00000" pt_clust_8="13000.00000" pt_clust_9="54.15580"></scales>
<clustering>
<clus scale="   54.156">  2  9  1 -1</clus>
<clus scale="   81.345">  5  6 -1 -1</clus>
<clus scale="   83.243">  1  5  2 -1</clus>
<clus scale="  123.974">  7  8 -1 -1</clus>
<clus scale="   54.156">  2  5  1 -1</clus>
</clustering>
</event>
<event>
 9    1  0.5981539E-005  0.1196515E+03  0.7546771E-02  0.1257289E+00
         21   -1    0    0  501  502  0.00000000000E+00  0.00000000000E+00  0.24846153855E+02  0.24846153855E+02  0.00000000000E+00 0.  1.
          1   -1    0    0  502    0 -0.00000000000E+00 -0.00000000000E+00 -0.71021188626E+03  0.71021188626E+03  0.00000000000E+00 0. -1.
         23    2    1    2    0    0  0.18376171703E+02 -0.19263847110E+02 -0.25214673731E+03  0.27699273703E+03  0.11152676691E+03 0.  0.
        -24    2    1    2    0    0 -0.20513822847E+02  0.55723872896E+02 -0.21786895550E+03  0.23964016125E+03  0.80215697814E+02 0.  0.
         13    1    4    4    0    0  0.22418463871E+02 -0.16357532152E+00 -0.98508076006E+02  0.10102700291E+03  0.00000000000E+00 0. -1.
        -14    1    4    4    0    0 -0.42932286718E+02  0.55887448217E+02 -0.11936087950E+03  0.13861315834E+03  0.00000000000E+00 0.  1.
        -13    1    3    3    0    0 -0.72978223673E+01 -0.39674286790E+02 -0.23779386421E+03  0.24119127077E+03  0.00000000000E+00 0. -1.
         13    1    3    3    0    0  0.25673994070E+02  0.20410439680E+02 -0.14352873104E+02  0.35801466252E+02  0.00000000000E+00 0.  1.
          2    1    1    2  501    0  0.21376511441E+01 -0.36460025786E+02 -0.21535003959E+03  0.21842514184E+03  0.00000000000E+00 0. -1.
<scales pt_clust_5="13000.00000" pt_clust_6="13000.00000" pt_clust_7="13000.00000" pt_clust_8="13000.00000" pt_clust_9="36.52266"></scales>
<clustering>
<clus scale="   36.523">  1  9  2 -1</clus>
<clus scale="   80.216">  5  6 -1 -1</clus>
<clus scale="   91.175">  1  5  2 -1</clus>
<clus scale="  111.527">  7  8 -1 -1</clus>
<clus scale="   36.523">  1  5  2 -1</clus>
</clustering>
</event>
<event>
 9    1  0.5981539E-005  0.1168246E+03  0.7546771E-02  0.1253284E+00
          1   -1    0    0  502    0 -0.00000000000E+00  0.00000000000E+00  0.22644388024E+03  0.22644388024E+03  0.00000000000E+00 0. -1.
         21   -1    0    0  501  502  0.00000000000E+00 -0.00000000000E+00 -0.35926613814E+03  0.35926613814E+03  0.00000000000E+00 0. -1.
        -24    2    1    2    0    0  0.10784332385E+01  0.77993069615E+02  0.17546191012E+03  0.20596201728E+03  0.74494219461E+02 0.  0.
         23    2    1    2    0    0  0.51030402896E+02 -0.56327184767E+02 -0.73593612104E+02  0.13836780637E+03  0.89178340052E+02 0.  0.
         13    1    3    3    0    0  0.24085215710E+02  0.46871445938E+02  0.15159275976E+03  0.16049110527E+03  0.00000000000E+00 0. -1.
        -14    1    3    3    0    0 -0.23006782472E+02  0.31121623677E+02  0.23869150364E+02  0.45470912011E+02  0.00000000000E+00 0.  1.
        -11    1    4    4    0    0  0.57809593993E+02 -0.32618959182E+02 -0.87678464469E+02  0.10997026320E+03  0.00000000000E+00 0. -1.
         11    1    4    4    0    0 -0.67791910969E+01 -0.23708225585E+02  0.14084852365E+02  0.28397543177E+02  0.00000000000E+00 0.  1.
          2    1    1    2  501    0 -0.52108836135E+02 -0.21665884848E+02 -0.23469055592E+03  0.24138019473E+03  0.00000000000E+00 0. -1.
<scales pt_clust_5="13000.00000" pt_clust_6="13000.00000" pt_clust_7="13000.00000" pt_clust_8="13000.00000" pt_clust_9="56.43351"></scales>
<clustering>
<clus scale="   56.434">  2  9  1 -1</clus>
<clus scale="   74.494">  5  6 -1 -1</clus>
<clus scale="   89.178">  7  8 -1 -1</clus>
<clus scale="  106.041">  1  5  2 -1</clus>
<clus scale="   56.434">  2  5  1 -1</clus>
</clustering>
</event>
<event>
 9    1  0.5981539E-005  0.1327099E+03  0.7546771E-02  0.1226011E+00
          1   -1    0    0  502    0 -0.00000000000E+00  0.00000000000E+00  0.71428402892E+02  0.71428402892E+02  0.00000000000E+00 0. -1.
         21   -1    0    0  501  502  0.00000000000E+00 -0.00000000000E+00 -0.42690515225E+03  0.42690515225E+03  0.00000000000E+00 0. -1.
         23    2    1    2    0    0 -0.75898401929E+01  0.10507745706E+03 -0.10784087687E+03  0.17532325445E+03  0.89496989729E+02 0.  0.
        -24    2    1    2    0    0  0.14559213921E+02 -0.82478373409E+02 -0.26806103997E+03  0.29176164921E+03  0.79078985901E+02 0.  0.
         11    1    4    4    0    0 -0.22730934529E+02 -0.63270453291E+02 -0.20729088701E+03  0.21792053019E+03  0.00000000000E+00 0. -1.
        -12    1    4    4    0    0  0.37290148450E+02 -0.19207920118E+02 -0.60770152966E+02  0.73841119021E+02  0.00000000000E+00 0.  1.
        -13    1    3    3    0    0 -0.43110565444E+02  0.31304973728E+02 -0.25016320540E+02  0.58858631707E+02  0.00000000000E+00 0.  1.
         13    1    3    3    0    0  0.35520725252E+02  0.73772483336E+02 -0.82824556332E+02  0.11646462275E+03  0.00000000000E+00 0. -1.
          2    1    1    2  501    0 -0.69693737282E+01 -0.22599083656E+02  0.20425167484E+02  0.31248651475E+02  0.00000000000E+00 0. -1.
<scales pt_clust_5="13000.00000" pt_clust_6="13000.00000" pt_clust_7="13000.00000" pt_clust_8="13000.00000" pt_clust_9="23.64934"></scales>
<clustering>
<clus scale="   23.649">  2  9  1 -1</clus>
<clus scale="   79.079">  5  6 -1 -1</clus>
<clus scale="   89.497">  7  8 -1 -1</clus>
<clus scale="  125.919">  2  5  1 -1</clus>
<clus scale="   23.649">  2  5  1 -1</clus>
</clustering>
</event>
<event>
 9    1  0.5981539E-005  0.1085277E+03  0.7546771E-02  0.1268236E+00
         21   -1    0    0  501  502  0.00000000000E+00  0.00000000000E+00  0.16033458873E+03  0.16033458873E+03  0.00000000000E+00 0. -1.
          1   -1    0    0  502    0 -0.00000000000E+00 -0.00000000000E+00 -0.23858406566E+03  0.23858406566E+03  0.00000000000E+00 0. -1.
        -24    2    1    2    0    0  0.34472931054E+02 -0.39630793315E+02 -0.11949137358E+03  0.15362029684E+03  0.81006323746E+02 0.  0.
         23    2    1    2    0    0 -0.42639575435E+02  0.77036451527E+02  0.10860546398E+03  0.16781463314E+03  0.92810861615E+02 0.  0.
         11    1    3    3    0    0 -0.18527165327E+01 -0.52585718508E+02 -0.42989418438E+02  0.67946894316E+02  0.00000000000E+00 0. -1.
        -12    1    3    3    0    0  0.36325647586E+02  0.12954925193E+02 -0.76501955147E+02  0.85673402527E+02  0.00000000000E+00 0.  1.
        -11    1    4    4    0    0  0.18927540101E+02  0.25360439276E+02 -0.12773890073E+01  0.31670733765E+02  0.00000000000E+00 0.  1.
         11    1    4    4    0    0 -0.61567115536E+02  0.51676012251E+02  0.10988285298E+03  0.13614389938E+03  0.00000000000E+00 0. -1.
          2    1    1    2  501    0  0.81666443812E+01 -0.37405658211E+02 -0.67363567319E+02  0.77483724411E+02  0.00000000000E+00 0. -1.
<scales pt_clust_5="13000.00000" pt_clust_6="13000.00000" pt_clust_7="13000.00000" pt_clust_8="13000.00000" pt_clust_9="38.28680"></scales>
<clustering>
<clus scale="   38.287">  1  9  2 -1</clus>
<clus scale="   81.006">  5  6 -1 -1</clus>
<clus scale="   92.811">  7  8 -1 -1</clus>
<clus scale="   98.623">  2  5  1 -1</clus>
<clus scale="   38.287">  1  5  2 -1</clus>
</clustering>
</event>
<event>
 9    1  0.5981539E-005  0.9923073E+02  0.7546771E-02  0.1290155E+00
          1   -1    0    0  502    0 -0.00000000000E+00  0.00000000000E+00  0.65307102141E+03  0.65307102141E+03  0.00000000000E+00 0. -1.
         21   -1    0    0  501  502  0.00000000000E+00 -0.00000000000E+00 -0.56215908803E+02  0.56215908803E+02  0.00000000000E+00 0.  1.
        -24    2    1    2    0    0  0.59131452990E+01 -0.14723521641E+01  0.65752706969E+02  0.10417532948E+03  0.80572623700E+02 0.  0.
         23    2    1    2    0    0 -0.11990301306E+02  0.69317515714E+02  0.67376147942E+02  0.13640920036E+03  0.95494708338E+02 0.  0.
         13    1    3    3    0    0 -0.31630716474E+02  0.15579682605E+01  0.57456953720E+02  0.65606638540E+02  0.00000000000E+00 0. -1.
        -14    1    3    3    0    0  0.37543861773E+02 -0.30303204246E+01  0.82957532484E+01  0.38568690938E+02  0.00000000000E+00 0.  1.
        -13    1    4    4    0    0 -0.21486240705E+02  0.35517950592E+01 -0.17978003792E+02  0.28239731021E+02  0.00000000000E+00 0.  1.
         13    1    4    4    0    0  0.94959393991E+01  0.65765720655E+02  0.85354151734E+02  0.10816946934E+03  0.00000000000E+00 0. -1.
          2    1    1    2  501    0  0.60771560073E+01 -0.67845163550E+02  0.46372625770E+03  0.46870240038E+03  0.00000000000E+00 0. -1.
<scales pt_clust_5="13000.00000" pt_clust_6="13000.00000" pt_clust_7="13000.00000" pt_clust_8="13000.00000" pt_clust_9="68.11683"></scales>
<clustering>
<clus scale="   68.117">  2  9  1 -1</clus>
<clus scale="   80.573">  5  6 -1 -1</clus>
<clus scale="   84.967">  1  5  2 -1</clus>
<clus scale="   95.495">  7  8 -1 -1</clus>
<clus scale="   68.117">  2  5  1 -1</clus>
</clustering>
</event>
<event>
 9    1  0.5981539E-005  0.1047325E+03  0.7546771E-02  0.1276360E+00
          1   -1    0    0  502    0 -0.00000000000E+00  0.00000000000E+00  0.37640531638E+03  0.37640531638E+03  0.00000000000E+00 0. -1.
         21   -1    0    0  501  502  0.00000000000E+00 -0.00000000000E+00 -0.79138330894E+02  0.79138330894E+02  0.00000000000E+00 0. -1.
        -24    2    1    2    0    0  0.54032000115E+02 -0.94711620312E+01  0.13909716382E+03  0.16969272259E+03  0.80239885165E+02 0.  0.
         23    2    1    2    0    0 -0.85867814504E+01  0.58331772229E+02 -0.45341822528E+01  0.10999524516E+03  0.92747327089E+02 0.  0.
         11    1    3    3    0    0  0.58973535271E+02 -0.77828781901E+01  0.42868074136E+02  0.73322048767E+02  0.00000000000E+00 0. -1.
        -12    1    3    3    0    0 -0.49415351568E+01 -0.16882838411E+01  0.96229089681E+02  0.96370673822E+02  0.00000000000E+00 0.  1.
        -13    1    4    4    0    0 -0.37588260561E+02  0.91882259308E+01  0.24673138406E+02  0.45891879310E+02  0.00000000000E+00 0.  1.
         13    1    4    4    0    0  0.29001479111E+02  0.49143546298E+02 -0.29207320659E+02  0.64103365851E+02  0.00000000000E+00 0. -1.
          2    1    1    2  501    0 -0.45445218664E+02 -0.48860610198E+02  0.16270400392E+03  0.17585567952E+03  0.00000000000E+00 0. -1.
<scales pt_clust_5="13000.00000" pt_clust_6="13000.00000" pt_clust_7="13000.00000" pt_clust_8="13000.00000" pt_clust_9="66.72804"></scales>
<clustering>
<clus scale="   66.728">  2  9  1 -1</clus>
<clus scale="   80.240">  5  6 -1 -1</clus>
<clus scale="   92.747">  7  8 -1 -1</clus>
<clus scale="   93.836">  1  5  2 -1</clus>
<clus scale="   66.728">  2  5  1 -1</clus>
</clustering>
</event>
<event>
 9    1  0.5981539E-005  0.1332699E+03  0.7546771E-02  0.1224894E+00
         -2   -1    0    0    0  501 -0.00000000000E+00  0.00000000000E+00  0.21243086581E+03  0.21243086581E+03  0.00000000000E+00 0.  1.
         21   -1    0    0  501  502  0.00000000000E+00 -0.00000000000E+00 -0.21628320135E+03  0.21628320135E+03  0.00000000000E+00 0.  1.
        -24    2    1    2    0    0  0.36972488928E+02  0.89431987983E+02  0.38551198849E+02  0.12759973581E+03  0.73691602197E+02 0.  0.
         23    2    1    2    0    0  0.76162141354E+02 -0.13257207956E+03 -0.48448482987E+01  0.17434222490E+03  0.83640365696E+02 0.  0.
         13    1    3    3    0    0  0.27984154344E+02  0.28127446317E+01  0.28325812171E+02  0.39917114899E+02  0.00000000000E+00 0. -1.
        -14    1    3    3    0    0  0.89883345843E+01  0.86619243352E+02  0.10225386678E+02  0.87682620913E+02  0.00000000000E+00 0.  1.
        -13    1    4    4    0    0  0.83346962906E+02 -0.10161934685E+03 -0.28802932415E+02  0.13454670860E+03  0.00000000000E+00 0.  1.
         13    1    4    4    0    0 -0.71848215524E+01 -0.30952732710E+02  0.23958084116E+02  0.39795516299E+02  0.00000000000E+00 0. -1.
         -1    1    1    2    0  502 -0.11313463028E+03  0.43140091578E+02 -0.37558686094E+02  0.12677210644E+03  0.00000000000E+00 0.  1.
<scales pt_clust_5="13000.00000" pt_clust_6="13000.00000" pt_clust_7="13000.00000" pt_clust_8="13000.00000" pt_clust_9="121.08060"></scales>
<clustering>
<clus scale="   73.692">  5  6 -1 -1</clus>
<clus scale="   83.640">  7  8 -1 -1</clus>
<clus scale="  121.081">  2  9  1 -1</clus>
<clus scale="  127.262">  1  5  2 -1</clus>
<clus scale="  121.081">  2  5  1 -1</clus>
</clustering>
</event>
<event>
 9    1  0.5981539E-005  0.1076882E+03  0.7546771E-02  0.1271749E+00
         21   -1    0    0  501  502  0.00000000000E+00  0.00000000000E+00  0.54692047851E+02  0.54692047851E+02  0.00000000000E+00 0. -1.
         -2   -1    0    0    0  501 -0.00000000000E+00 -0.00000000000E+00 -0.36702163783E+03  0.36702163783E+03  0.00000000000E+00 0.  1.
        -24    2    1    2    0    0  0.41646163542E+02 -0.46677104103E+02 -0.20052254108E+03  0.22450092739E+03  0.79235231624E+02 0.  0.
         23    2    1    2    0    0 -0.40225855048E+02 -0.10831477108E+02 -0.59124789620E+02  0.11920843385E+03  0.94760063547E+02 0.  0.
         13    1    3    3    0    0  0.22619217457E+02  0.15715942626E+02 -0.24803189477E+02  0.37065051723E+02  0.00000000000E+00 0. -1.
        -14    1    3    3    0    0  0.19026946085E+02 -0.62393046729E+02 -0.17571935160E+03  0.18743587566E+03  0.00000000000E+00 0.  1.
        -13    1    4    4    0    0  0.56652568172E+01 -0.45458789252E+02 -0.22437481145E+02  0.51010167763E+02  0.00000000000E+00 0.  1.
         13    1    4    4    0    0 -0.45891111865E+02  0.34627312144E+02 -0.36687308475E+02  0.68198266090E+02  0.00000000000E+00 0. -1.
         -1    1    1    2    0  502 -0.14203084944E+01  0.57508581211E+02 -0.52682259279E+02  0.78004324443E+02  0.00000000000E+00 0.  1.
<scales pt_clust_5="13000.00000" pt_clust_6="13000.00000" pt_clust_7="13000.00000" pt_clust_8="13000.00000" pt_clust_9="57.52612"></scales>
<clustering>
<clus scale="   57.526">  1  9  2 -1</clus>
<clus scale="   79.235">  5  6 -1 -1</clus>
<clus scale="   94.316">  2  5  1 -1</clus>
<clus scale="   94.760">  7  8 -1 -1</clus>
<clus scale="   57.526">  1  5  2 -1</clus>
</clustering>
</event>
<event>
 9    1  0.5981539E-005  0.1083280E+03  0.7546771E-02  0.1266490E+00
         21   -1    0    0  501  502  0.00000000000E+00  0.00000000000E+00  0.40286531497E+02  0.40286531497E+02  0.00000000000E+00 0. -1.
          1   -1    0    0  502    0 -0.00000000000E+00 -0.00000000000E+00 -0.61357038528E+03  0.61357038528E+03  0.00000000000E+00 0. -1.
        -24    2    1    2    0    0  0.54244034748E+02 -0.30641273491E+02 -0.20770482931E+03  0.23265468635E+03  0.84294744885E+02 0.  0.
         23    2    1    2    0    0 -0.64059397716E+02 -0.53606421805E+02 -0.19953977926E+03  0.23475372155E+03  0.91191728670E+02 0.  0.
         13    1    3    3    0    0  0.73980691579E+02 -0.18206963019E+02 -0.18512373953E+03  0.20018849909E+03  0.00000000000E+00 0. -1.
        -14    1    3    3    0    0 -0.19736656831E+02 -0.12434310472E+02 -0.22581089779E+02  0.32466187263E+02  0.00000000000E+00 0.  1.
        -13    1    4    4    0    0 -0.14475691435E+02  0.25488175812E+02 -0.35765848918E+02  0.46242715075E+02  0.00000000000E+00 0.  1.
         13    1    4    4    0    0 -0.49583706281E+02 -0.79094597617E+02 -0.16377393035E+03  0.18851100647E+03  0.00000000000E+00 0. -1.
          2    1    1    2  501    0  0.98153629680E+01  0.84247695296E+02 -0.16603924521E+03  0.18644850887E+03  0.00000000000E+00 0. -1.
<scales pt_clust_5="13000.00000" pt_clust_6="13000.00000" pt_clust_7="13000.00000" pt_clust_8="13000.00000" pt_clust_9="84.81758"></scales>
<clustering>
<clus scale="   84.295">  5  6 -1 -1</clus>
<clus scale="   84.818">  1  9  2 -1</clus>
<clus scale="   91.192">  7  8 -1 -1</clus>
<clus scale="  102.590">  2  5  1 -1</clus>
<clus scale="   84.818">  1  5  2 -1</clus>
</clustering>
</event>
<event>
 9    1  0.5981539E-005  0.1012378E+03  0.7546771E-02  0.1281229E+00
          1   -1    0    0  502    0 -0.00000000000E+00  0.00000000000E+00  0.29232648542E+03  0.29232648542E+03  0.00000000000E+00 0. -1.
         21   -1    0    0  501  502  0.00000000000E+00 -0.00000000000E+00 -0.68379537477E+02  0.68379537477E+02  0.00000000000E+00 0. -1.
         23    2    1    2    0    0  0.34082909799E+02 -0.60717626594E+00  0.78376642430E+02  0.12202378514E+03  0.87091289214E+02 0.  0.
        -24    2    1    2    0    0 -0.81045108406E+02  0.26304489194E+02  0.45175817401E+02  0.12490678684E+03  0.79376414454E+02 0.  0.
         13    1    4    4    0    0 -0.60306034240E+02 -0.43470442847E+01  0.59868998695E+02  0.85088257501E+02  0.00000000000E+00 0. -1.
        -14    1    4    4    0    0 -0.20739074166E+02  0.30651533479E+02 -0.14693181294E+02  0.39818529335E+02  0.00000000000E+00 0.  1.
        -13    1    3    3    0    0 -0.26624252706E+02 -0.97132667024E+00  0.55527979401E+01  0.27214479099E+02  0.00000000000E+00 0.  1.
         13    1    3    3    0    0  0.60707162505E+02  0.36415040430E+00  0.72823844490E+02  0.94809306037E+02  0.00000000000E+00 0. -1.
          2    1    1    2  501    0  0.46962198607E+02 -0.25697312928E+02  0.10039448811E+03  0.11377545092E+03  0.00000000000E+00 0. -1.
<scales pt_clust_5="13000.00000" pt_clust_6="13000.00000" pt_clust_7="13000.00000" pt_clust_8="13000.00000" pt_clust_9="53.53319"></scales>
<clustering>
<clus scale="   53.533">  2  9  1 -1</clus>
<clus scale="   79.376">  5  6 -1 -1</clus>
<clus scale="   87.091">  7  8 -1 -1</clus>
<clus scale="   94.683">  2  5  1 -1</clus>
<clus scale="   53.533">  2  5  1 -1</clus>
</clustering>
</event>
<event>
 9    1  0.5981539E-005  0.4212650E+03  0.7546771E-02  0.1036655E+00
         21   -1    0    0  501  502  0.00000000000E+00  0.00000000000E+00  0.50249605622E+03  0.50249605622E+03  0.00000000000E+00 0. -1.
          1   -1    0    0  502    0 -0.00000000000E+00 -0.00000000000E+00 -0.39773682622E+03  0.39773682622E+03  0.00000000000E+00 0. -1.
        -24    2    1    2    0    0 -0.15217989274E+03  0.69774493469E+02 -0.34430997668E+02  0.18962709154E+03  0.82132457362E+02 0.  0.
         23    2    1    2    0    0 -0.97099827715E+02  0.18458914854E+03 -0.13162874481E+03  0.26318634871E+03  0.91866192845E+02 0.  0.
         13    1    3    3    0    0 -0.15017006289E+03  0.66220443982E+02 -0.51550015835E+02  0.17202790216E+03  0.00000000000E+00 0. -1.
        -14    1    3    3    0    0 -0.20098298500E+01  0.35540494869E+01  0.17119018167E+02  0.17599189378E+02  0.00000000000E+00 0.  1.
        -11    1    4    4    0    0 -0.34220760596E+01  0.89050581861E+02 -0.26346739513E+02  0.92929367895E+02  0.00000000000E+00 0. -1.
         11    1    4    4    0    0 -0.93677751655E+02  0.95538566678E+02 -0.10528200529E+03  0.17025698082E+03  0.00000000000E+00 0.  1.
          2    1    1    2  501    0  0.24927972045E+03 -0.25436364201E+03  0.27081897247E+03  0.44741944220E+03  0.00000000000E+00 0. -1.
<scales pt_clust_5="13000.00000" pt_clust_6="13000.00000" pt_clust_7="13000.00000" pt_clust_8="13000.00000" pt_clust_9="356.14778"></scales>
<clustering>
<clus scale="   82.132">  5  6 -1 -1</clus>
<clus scale="   91.866">  7  8 -1 -1</clus>
<clus scale="  155.961">  5  7 -1 -1</clus>
<clus scale="  356.148">  1  9  2 -1</clus>
<clus scale="  356.148">  1  5  2 -1</clus>
</clustering>
</event>
<event>
 9    1  0.5981539E-005  0.1065224E+03  0.7546771E-02  0.1270974E+00
          1   -1    0    0  502    0 -0.00000000000E+00  0.00000000000E+00  0.30248594106E+03  0.30248594106E+03  0.00000000000E+00 0. -1.
         21   -1    0    0  501  502  0.00000000000E+00 -0.00000000000E+00 -0.66237435967E+02  0.66237435967E+02  0.00000000000E+00 0. -1.
         23    2    1    2    0    0 -0.51790023598E+02 -0.87038200209E+01  0.16299794039E+03  0.19380490307E+03  0.90741659965E+02 0.  0.
        -24    2    1    2    0    0  0.47268259999E+02  0.55172068346E+02  0.65939756496E+02  0.12766180919E+03  0.81677662248E+02 0.  0.
         11    1    4    4    0    0  0.50033275098E+01  0.61012821205E+02  0.18708523830E+02  0.64012549562E+02  0.00000000000E+00 0. -1.
        -12    1    4    4    0    0  0.42264932489E+02 -0.58407528582E+01  0.47231232666E+02  0.63649259630E+02  0.00000000000E+00 0.  1.
        -11    1    3    3    0    0 -0.75713180483E+02 -0.12118104735E+02  0.14370810999E+03  0.16288448372E+03  0.00000000000E+00 0.  1.
         11    1    3    3    0    0  0.23923156885E+02  0.34142847143E+01  0.19289830408E+02  0.30920419348E+02  0.00000000000E+00 0. -1.
          2    1    1    2  501    0  0.45217635991E+01 -0.46468248326E+02  0.73108082051E+01  0.47256664769E+02  0.00000000000E+00 0. -1.
<scales pt_clust_5="13000.00000" pt_clust_6="13000.00000" pt_clust_7="13000.00000" pt_clust_8="13000.00000" pt_clust_9="46.68773"></scales>
<clustering>
<clus scale="   46.688">  2  9  1 -1</clus>
<clus scale="   81.678">  5  6 -1 -1</clus>
<clus scale="   90.742">  7  8 -1 -1</clus>
<clus scale="   98.915">  2  5  1 -1</clus>
<clus scale="   46.688">  2  5  1 -1</clus>
</clustering>
</event>
<event>
 9    1  0.5981539E-005  0.1772486E+03  0.7546771E-02  0.1171983E+00
         21   -1    0    0  501  502  0.00000000000E+00  0.00000000000E+00  0.24846177297E+03  0.24846177297E+03  0.00000000000E+00 0. -1.
          1   -1    0    0  502    0 -0.00000000000E+00 -0.00000000000E+00 -0.26073752649E+03  0.26073752649E+03  0.00000000000E+00 0. -1.
         23    2    1    2    0    0 -0.51044036853E+02 -0.14125316131E+03 -0.38096012671E+02  0.18089418836E+03  0.93345872558E+02 0.  0.
        -24    2    1    2    0    0 -0.71465053003E+02  0.16224555877E+03 -0.19264724656E+02  0.19608630149E+03  0.81534243584E+02 0.  0.
         13    1    4    4    0    0 -0.65475931694E+02  0.12240308831E+03 -0.47689591579E+02  0.14677844121E+03  0.00000000000E+00 0. -1.
        -14    1    4    4    0    0 -0.59891213095E+01  0.39842470455E+02  0.28424866922E+02  0.49307860282E+02  0.00000000000E+00 0.  1.
        -13    1    3    3    0    0 -0.55202384507E+02 -0.43851479230E+02 -0.44204936341E+02  0.83212570461E+02  0.00000000000E+00 0.  1.
         13    1    3    3    0    0  0.41583476539E+01 -0.97401682083E+02  0.61089236694E+01  0.97681617904E+02  0.00000000000E+00 0. -1.
          2    1    1    2  501    0  0.12250908986E+03 -0.20992397452E+02  0.45084983805E+02  0.13221880960E+03  0.00000000000E+00 0. -1.
<scales pt_clust_5="13000.00000" pt_clust_6="13000.00000" pt_clust_7="13000.00000" pt_clust_8="13000.00000" pt_clust_9="124.29464"></scales>
<clustering>
<clus scale="   81.534">  5  6 -1 -1</clus>
<clus scale="   93.346">  7  8 -1 -1</clus>
<clus scale="  124.295">  1  9  2 -1</clus>
<clus scale="  171.323">  1  5  2 -1</clus>
<clus scale="  124.295">  1  5  2 -1</clus>
</clustering>
</event>
<event>
 9    1  0.5981539E-005  0.1011425E+03  0.7546771E-02  0.1282006E+00
          1   -1    0    0  502    0 -0.00000000000E+00  0.00000000000E+00  0.14077128734E+03  0.14077128734E+03  0.00000000000E+00 0. -1.
         21   -1    0    0  501  502  0.00000000000E+00 -0.00000000000E+00 -0.11754834022E+03  0.11754834022E+03  0.00000000000E+00 0. -1.
        -24    2    1    2    0    0  0.38818279674E+02 -0.93905567149E+01  0.15618721475E+02  0.91072944252E+02  0.80344852492E+02 0.  0.
         23    2    1    2    0    0 -0.58178690267E+02  0.28782423989E+02 -0.35837542437E+02  0.11588466203E+03  0.89060302684E+02 0.  0.
         11    1    3    3    0    0  0.57418120229E+02  0.79552762571E+01  0.26091723097E+02  0.63568112802E+02  0.00000000000E+00 0. -1.
        -12    1    3    3    0    0 -0.18599840555E+02 -0.17345832972E+02 -0.10473001622E+02  0.27504831451E+02  0.00000000000E+00 0.  1.
        -13    1    4    4    0    0 -0.11008509537E+02 -0.20702154799E+02 -0.41099755398E+02  0.47317611830E+02  0.00000000000E+00 0.  1.
         13    1    4    4    0    0 -0.47170180731E+02  0.49484578788E+02  0.52622129615E+01  0.68567050201E+02  0.00000000000E+00 0. -1.
          2    1    1    2  501    0  0.19360410593E+02 -0.19391867274E+02  0.43441768089E+02  0.51362021275E+02  0.00000000000E+00 0. -1.
<scales pt_clust_5="13000.00000" pt_clust_6="13000.00000" pt_clust_7="13000.00000" pt_clust_8="13000.00000" pt_clust_9="27.40202"></scales>
<clustering>
<clus scale="   27.402">  2  9  1 -1</clus>
<clus scale="   80.345">  5  6 -1 -1</clus>
<clus scale="   89.060">  7  8 -1 -1</clus>
<clus scale="   93.559">  1  5  2 -1</clus>
<clus scale="   27.402">  2  5  1 -1</clus>
</clustering>
</event>
<event>
 9    1  0.5981539E-005  0.9480982E+02  0.7546771E-02  0.1292648E+00
          1   -1    0    0  502    0 -0.00000000000E+00  0.00000000000E+00  0.13582393092E+03  0.13582393092E+03  0.00000000000E+00 0. -1.
         21   -1    0    0  501  502  0.00000000000E+00 -0.00000000000E+00 -0.17792125052E+03  0.17792125052E+03  0.00000000000E+00 0. -1.
         23    2    1    2    0    0  0.37957655333E+02 -0.36284383854E+02 -0.23619444271E+02  0.10637752734E+03  0.89448085872E+02 0.  0.
        -24    2    1    2    0    0 -0.15799934837E+02 -0.56853258037E+02 -0.37076821109E+02  0.10984070552E+03  0.84902055540E+02 0.  0.
         11    1    4    4    0    0  0.33233418962E+02 -0.91693427507E+01 -0.72775208362E+01  0.35234915806E+02  0.00000000000E+00 0. -1.
        -12    1    4    4    0    0 -0.49033353799E+02 -0.47683915287E+02 -0.29799300273E+02  0.74605789712E+02  0.00000000000E+00 0.  1.
        -13    1    3    3    0    0  0.15432939535E+02 -0.63555179724E+02 -0.30767293561E+01  0.65474443533E+02  0.00000000000E+00 0. -1.
         13    1    3    3    0    0  0.22524715798E+02  0.27270795870E+02 -0.20542714915E+02  0.40903083811E+02  0.00000000000E+00 0.  1.
          2    1    1    2  501    0 -0.22157720496E+02  0.93137641891E+02  0.18598945787E+02  0.97526948579E+02  0.00000000000E+00 0. -1.
<scales pt_clust_5="13000.00000" pt_clust_6="13000.00000" pt_clust_7="13000.00000" pt_clust_8="13000.00000" pt_clust_9="95.73711"></scales>
<clustering>
<clus scale="   84.902">  5  6 -1 -1</clus>
<clus scale="   89.448">  7  8 -1 -1</clus>
<clus scale="   95.737">  2  9  1 -1</clus>
<clus scale="   95.737">  2  5  1 -1</clus>
<clus scale="   94.810">  2  5  1 -1</clus>
</clustering>
</event>
<event>
 9    1  0.5981539E-005  0.9145567E+02  0.7546771E-02  0.1308259E+00
          1   -1    0    0  502    0 -0.00000000000E+00  0.00000000000E+00  0.39983933070E+03  0.39983933070E+03  0.00000000000E+00 0. -1.
         21   -1    0    0  501  502  0.00000000000E+00 -0.00000000000E+00 -0.46711875326E+02  0.46711875326E+02  0.00000000000E+00 0. -1.
         23    2    1    2    0    0 -0.14989254230E+02 -0.13667749128E+02  0.26514961647E+03  0.28085897062E+03  0.90365685716E+02 0.  0.
        -24    2    1    2    0    0  0.11369278774E+02 -0.39660100161E+02  0.57694852441E+02  0.10425915799E+03  0.76413951484E+02 0.  0.
         13    1    4    4    0    0 -0.17805808484E+02 -0.94223216327E+01 -0.11580899679E+02  0.23236699380E+02  0.00000000000E+00 0. -1.
        -14    1    4    4    0    0  0.29175087258E+02 -0.30237778528E+02  0.69275752120E+02  0.81022458606E+02  0.00000000000E+00 0.  1.
        -11    1    3    3    0    0 -0.38898380840E+02  0.88259157930E+01  0.22722942472E+03  0.23070368935E+03  0.00000000000E+00 0. -1.
         11    1    3    3    0    0  0.23909126610E+02 -0.22493664921E+02  0.37920191750E+02  0.50155281269E+02  0.00000000000E+00 0.  1.
          2    1    1    2  501    0  0.36199754555E+01  0.53327849288E+02  0.30282986465E+02  0.61433077420E+02  0.00000000000E+00 0. -1.
<scales pt_clust_5="13000.00000" pt_clust_6="13000.00000" pt_clust_7="13000.00000" pt_clust_8="13000.00000" pt_clust_9="53.45057"></scales>
<clustering>
<clus scale="   53.451">  2  9  1 -1</clus>
<clus scale="   76.414">  5  6 -1 -1</clus>
<clus scale="   77.700">  2  5  1 -1</clus>
<clus scale="   90.366">  7  8 -1 -1</clus>
<clus scale="   53.451">  2  5  1 -1</clus>
</clustering>
</event>
<event>
 9    1  0.5981539E-005  0.1009248E+03  0.7546771E-02  0.1283431E+00
          1   -1    0    0  502    0 -0.00000000000E+00  0.00000000000E+00  0.35968219546E+03  0.35968219546E+03  0.00000000000E+00 0. -1.
         21   -1    0    0  501  502  0.00000000000E+00 -0.00000000000E+00 -0.67085555470E+02  0.67085555470E+02  0.00000000000E+00 0.  1.
        -24    2    1    2    0    0  0.77421873114E+01  0.32354079407E+02  0.15016923196E+03  0.17352089487E+03  0.80324185699E+02 0.  0.
         23    2    1    2    0    0  0.22064164380E+02 -0.89916546797E+02  0.47035935338E+02  0.13791520683E+03  0.90754682108E+02 0.  0.
         11    1    3    3    0    0 -0.16153103153E+02 -0.20453563761E+02  0.27732833991E+02  0.38057602304E+02  0.00000000000E+00 0. -1.
        -12    1    3    3    0    0  0.23895290464E+02  0.52807643168E+02  0.12243639797E+03  0.13546329256E+03  0.00000000000E+00 0.  1.
        -11    1    4    4    0    0 -0.25543225485E+02 -0.68368329036E+02  0.95559891322E+01  0.73607076505E+02  0.00000000000E+00 0.  1.
         11    1    4    4    0    0  0.47607389865E+02 -0.21548217761E+02  0.37479946206E+02  0.64308130326E+02  0.00000000000E+00 0. -1.
          2    1    1    2  501    0 -0.29806351691E+02  0.57562467390E+02  0.95391472693E+02  0.11533164924E+03  0.00000000000E+00 0. -1.
<scales pt_clust_5="13000.00000" pt_clust_6="13000.00000" pt_clust_7="13000.00000" pt_clust_8="13000.00000" pt_clust_9="64.82176"></scales>
<clustering>
<clus scale="   64.822">  2  9  1 -1</clus>
<clus scale="   80.324">  5  6 -1 -1</clus>
<clus scale="   90.755">  7  8 -1 -1</clus>
<clus scale="   91.659">  1  5  2 -1</clus>
<clus scale="   64.822">  2  5  1 -1</clus>
</clustering>
</event>
<event>
 9    1  0.6406756E-005  0.4520460E+03  0.7546771E-02  0.1046815E+00
         21   -1    0    0  501  502  0.00000000000E+00  0.00000000000E+00  0.47006448611E+03  0.47006448611E+03  0.00000000000E+00 0. -1.
          1   -1    0    0  502    0 -0.00000000000E+00 -0.00000000000E+00 -0.11313332581E+04  0.11313332581E+04  0.00000000000E+00 0. -1.
        -24    2    1    2    0    0  0.22800815570E+03  0.81400864202E+02 -0.29234560129E+03  0.38723645758E+03  0.76630958027E+02 0.  0.
         23    2    1    2    0    0 -0.48601056710E+03 -0.56231791227E+02  0.23991805435E+03  0.55243145971E+03  0.90838093320E+02 0.  0.
         13    1    3    3    0    0  0.12717646279E+03  0.56293691656E+02 -0.22124939171E+03  0.26133144805E+03  0.00000000000E+00 0. -1.
        -14    1    3    3    0    0  0.10083169291E+03  0.25107172546E+02 -0.71096209577E+02  0.12590500953E+03  0.00000000000E+00 0.  1.
        -13    1    4    4    0    0 -0.77109534990E+02 -0.88365693524E+01  0.34148587001E+01  0.77689295300E+02  0.00000000000E+00 0.  1.
         13    1    4    4    0    0 -0.40890103211E+03 -0.47395221875E+02  0.23650319565E+03  0.47474216441E+03  0.00000000000E+00 0. -1.
          2    1    1    2  501    0  0.25800241139E+03 -0.25169072975E+02 -0.60884122500E+03  0.66172982688E+03  0.00000000000E+00 0. -1.
<scales pt_clust_5="13000.00000" pt_clust_6="13000.00000" pt_clust_7="13000.00000" pt_clust_8="13000.00000" pt_clust_9="442.82524"></scales>
<clustering>
<clus scale="   76.631">  5  6 -1 -1</clus>
<clus scale="   90.838">  7  8 -1 -1</clus>
<clus scale="  253.941">  2  5  1 -1</clus>
<clus scale="  442.825">  1  9  2 -1</clus>
<clus scale="  442.825">  1  5  2 -1</clus>
</clustering>
</event>
<event>
 9    1  0.5981539E-005  0.1017194E+03  0.7546771E-02  0.1281403E+00
         -2   -1    0    0    0  501 -0.00000000000E+00  0.00000000000E+00  0.44637708935E+03  0.44637708935E+03  0.00000000000E+00 0.  1.
         21   -1    0    0  501  502  0.00000000000E+00 -0.00000000000E+00 -0.79842744651E+02  0.79842744651E+02  0.00000000000E+00 0. -1.
        -24    2    1    2    0    0 -0.33037390379E+02  0.37709858378E+02  0.28181772711E+03  0.29724882355E+03  0.80138188196E+02 0.  0.
         23    2    1    2    0    0 -0.24527465789E+01 -0.29926299635E+02 -0.37034923210E+02  0.10191365610E+03  0.90073350034E+02 0.  0.
         11    1    3    3    0    0 -0.25682972975E+02  0.72435162358E+01  0.19462954976E+02  0.33028627654E+02  0.00000000000E+00 0. -1.
        -12    1    3    3    0    0 -0.73544174039E+01  0.30466342142E+02  0.26235477213E+03  0.26422019589E+03  0.00000000000E+00 0.  1.
        -13    1    4    4    0    0 -0.21081214044E+02  0.24843997765E+02  0.11383642931E+01  0.32602725097E+02  0.00000000000E+00 0.  1.
         13    1    4    4    0    0  0.18628467465E+02 -0.54770297400E+02 -0.38173287503E+02  0.69310931000E+02  0.00000000000E+00 0. -1.
         -1    1    1    2    0  502  0.35490136958E+02 -0.77835587428E+01  0.12175154080E+03  0.12705735435E+03  0.00000000000E+00 0.  1.
<scales pt_clust_5="13000.00000" pt_clust_6="13000.00000" pt_clust_7="13000.00000" pt_clust_8="13000.00000" pt_clust_9="36.33366"></scales>
<clustering>
<clus scale="   36.334">  2  9  1 -1</clus>
<clus scale="   80.138">  5  6 -1 -1</clus>
<clus scale="   90.073">  7  8 -1 -1</clus>
<clus scale="   93.036">  1  5  2 -1</clus>
<clus scale="   36.334">  2  5  1 -1</clus>
</clustering>
</event>
<event>
 9    1  0.5981539E-005  0.1452325E+03  0.7546771E-02  0.1226746E+00
         21   -1    0    0  501  502  0.00000000000E+00  0.00000000000E+00  0.27603314429E+02  0.27603314429E+02  0.00000000000E+00 0.  1.
          1   -1    0    0  502    0 -0.00000000000E+00 -0.00000000000E+00 -0.12146352711E+04  0.12146352711E+04  0.00000000000E+00 0. -1.
        -24    2    1    2    0    0 -0.25583268058E+02  0.45123389090E+02 -0.28896676361E+03  0.30406326854E+03  0.79133159678E+02 0.  0.
         23    2    1    2    0    0 -0.50663571422E+02 -0.11654509424E+03 -0.39565349466E+03  0.42501632097E+03  0.89149474456E+02 0.  0.
         11    1    3    3    0    0 -0.52248664200E+02  0.40568898782E+02 -0.22716654764E+03  0.23660177266E+03  0.00000000000E+00 0. -1.
        -12    1    3    3    0    0  0.26665396142E+02  0.45544903085E+01 -0.61800215969E+02  0.67461495886E+02  0.00000000000E+00 0.  1.
        -13    1    4    4    0    0 -0.47859738118E+02 -0.69884858511E+02 -0.12917373707E+03  0.15446780354E+03  0.00000000000E+00 0.  1.
         13    1    4    4    0    0 -0.28038333043E+01 -0.46660235726E+02 -0.26647975759E+03  0.27054851744E+03  0.00000000000E+00 0. -1.
          2    1    1    2  501    0  0.76246839481E+02  0.71421705147E+02 -0.50241169841E+03  0.51315899602E+03  0.00000000000E+00 0. -1.
<scales pt_clust_5="13000.00000" pt_clust_6="13000.00000" pt_clust_7="13000.00000" pt_clust_8="13000.00000" pt_clust_9="114.65101"></scales>
<clustering>
<clus scale="   79.133">  5  6 -1 -1</clus>
<clus scale="   89.149">  7  8 -1 -1</clus>
<clus scale="   94.619">  2  5  1 -1</clus>
<clus scale="  114.651">  1  9  2 -1</clus>
<clus scale="  114.651">  1  5  2 -1</clus>
</clustering>
</event>
<event>
 9    1  0.5981539E-005  0.1060295E+03  0.7546771E-02  0.1272931E+00
         21   -1    0    0  501  502  0.00000000000E+00  0.00000000000E+00  0.40966364889E+03  0.40966364889E+03  0.00000000000E+00 0. -1.
         -4   -1    0    0    0  501 -0.00000000000E+00 -0.00000000000E+00 -0.63431247139E+02  0.63431247139E+02  0.00000000000E+00 0.  1.
        -24    2    1    2    0    0 -0.28346182396E+02 -0.26810223563E+02  0.62444756533E+02  0.10881244692E+03  0.80115584273E+02 0.  0.
         23    2    1    2    0    0  0.95813932268E+02  0.41871665684E+02  0.25307556968E+03  0.28863870584E+03  0.91277119448E+02 0.  0.
         11    1    3    3    0    0 -0.26900311340E+02  0.25247344798E+02  0.28925439168E+02  0.46880019204E+02  0.00000000000E+00 0. -1.
        -12    1    3    3    0    0 -0.14458710554E+01 -0.52057568361E+02  0.33519317365E+02  0.61932427720E+02  0.00000000000E+00 0.  1.
        -11    1    4    4    0    0  0.51359706471E+01  0.46411539782E+02  0.10548887191E+03  0.11536165444E+03  0.00000000000E+00 0.  1.
         11    1    4    4    0    0  0.90677961621E+02 -0.45398740980E+01  0.14758669777E+03  0.17327705139E+03  0.00000000000E+00 0. -1.
         -3    1    1    2    0  502 -0.67467749873E+02 -0.15061442121E+02  0.30712075539E+02  0.75643743268E+02  0.00000000000E+00 0.  1.
<scales pt_clust_5="13000.00000" pt_clust_6="13000.00000" pt_clust_7="13000.00000" pt_clust_8="13000.00000" pt_clust_9="69.12850"></scales>
<clustering>
<clus scale="   69.128">  1  9  2 -1</clus>
<clus scale="   80.116">  5  6 -1 -1</clus>
<clus scale="   91.277">  7  8 -1 -1</clus>
<clus scale="   96.588">  2  5  1 -1</clus>
<clus scale="   69.128">  1  5  2 -1</clus>
</clustering>
</event>
<event>
 9    1  0.5981539E-005  0.1560591E+03  0.7546771E-02  0.1194676E+00
         21   -1    0    0  501  502  0.00000000000E+00  0.00000000000E+00  0.72499411629E+02  0.72499411629E+02  0.00000000000E+00 0. -1.
          1   -1    0    0  502    0 -0.00000000000E+00 -0.00000000000E+00 -0.11498736167E+04  0.11498736167E+04  0.00000000000E+00 0. -1.
        -24    2    1    2    0    0 -0.12206532118E+03  0.30805927586E+02 -0.93576877494E+03  0.94762823937E+03  0.80542734610E+02 0.  0.
         23    2    1    2    0    0  0.13859490791E+03 -0.19524716854E+02 -0.17151822963E+03  0.23875494974E+03  0.89418453706E+02 0.  0.
         11    1    3    3    0    0 -0.93801291203E+02  0.42112631028E+02 -0.48227657691E+03  0.49311545561E+03  0.00000000000E+00 0. -1.
        -12    1    3    3    0    0 -0.28264029977E+02 -0.11306703442E+02 -0.45349219803E+03  0.45451278377E+03  0.00000000000E+00 0.  1.
        -11    1    4    4    0    0  0.32987529970E+02  0.26100933163E+02 -0.84903146364E+02  0.94752203711E+02  0.00000000000E+00 0.  1.
         11    1    4    4    0    0  0.10560737794E+03 -0.45625650017E+02 -0.86615083268E+02  0.14400274603E+03  0.00000000000E+00 0. -1.
          2    1    1    2  501    0 -0.16529586731E+02 -0.11281210732E+02  0.29912799496E+02  0.35989839216E+02  0.00000000000E+00 0. -1.
<scales pt_clust_5="13000.00000" pt_clust_6="13000.00000" pt_clust_7="13000.00000" pt_clust_8="13000.00000" pt_clust_9="20.01232"></scales>
<clustering>
<clus scale="   20.012">  1  9  2 -1</clus>
<clus scale="   80.543">  5  6 -1 -1</clus>
<clus scale="   89.418">  7  8 -1 -1</clus>
<clus scale="  151.149">  2  5  1 -1</clus>
<clus scale="   20.012">  1  5  2 -1</clus>
</clustering>
</event>
<event>
 9    1  0.5981539E-005  0.1563552E+03  0.7546771E-02  0.1194430E+00
          1   -1    0    0  502    0 -0.00000000000E+00  0.00000000000E+00  0.27782232891E+03  0.27782232891E+03  0.00000000000E+00 0. -1.
         21   -1    0    0  501  502  0.00000000000E+00 -0.00000000000E+00 -0.15072368335E+03  0.15072368335E+03  0.00000000000E+00 0.  1.
         23    2    1    2    0    0 -0.34545982851E+02 -0.12069436672E+03  0.17775025938E+03  0.23515032683E+03  0.89106489147E+02 0.  0.
        -24    2    1    2    0    0  0.18430603425E+02  0.13860948434E+03 -0.34900402567E+02  0.16460753598E+03  0.79531921325E+02 0.  0.
         13    1    4    4    0    0  0.28693205830E+02  0.85654542734E+01 -0.16583607261E+01  0.29990285561E+02  0.00000000000E+00 0. -1.
        -14    1    4    4    0    0 -0.10262602405E+02  0.13004403007E+03 -0.33242041841E+02  0.13461725042E+03  0.00000000000E+00 0.  1.
        -11    1    3    3    0    0 -0.61774378881E+02 -0.10665548991E+03  0.13966800664E+03  0.18627565459E+03  0.00000000000E+00 0.  1.
         11    1    3    3    0    0  0.27228396029E+02 -0.14038876804E+02  0.38082252745E+02  0.48874672238E+02  0.00000000000E+00 0. -1.
          2    1    1    2  501    0  0.16115379426E+02 -0.17915117622E+02 -0.15751211256E+02  0.28788149463E+02  0.00000000000E+00 0. -1.
<scales pt_clust_5="13000.00000" pt_clust_6="13000.00000" pt_clust_7="13000.00000" pt_clust_8="13000.00000" pt_clust_9="24.09682"></scales>
<clustering>
<clus scale="   24.097">  2  9  1 -1</clus>
<clus scale="   79.532">  5  6 -1 -1</clus>
<clus scale="   89.106">  7  8 -1 -1</clus>
<clus scale="  151.104">  2  5  1 -1</clus>
<clus scale="   24.097">  2  5  1 -1</clus>
</clustering>
</event>
<event>
 9    1  0.5981539E-005  0.1999774E+03  0.7546771E-02  0.1151077E+00
         21   -1    0    0  501  502  0.00000000000E+00  0.00000000000E+00  0.57407562125E+03  0.57407562125E+03  0.00000000000E+00 0.  1.
          1   -1    0    0  502    0 -0.00000000000E+00 -0.00000000000E+00 -0.95621761395E+02  0.95621761395E+02  0.00000000000E+00 0. -1.
         23    2    1    2    0    0  0.13120682498E+03 -0.12720189987E+03  0.77822841634E+02  0.21829075618E+03  0.90547806716E+02 0.  0.
        -24    2    1    2    0    0 -0.10848464273E+03  0.12820105939E+03  0.34198195070E+03  0.38850186507E+03  0.76010625691E+02 0.  0.
         11    1    4    4    0    0 -0.28686735606E+02  0.20852955287E+02  0.22117752287E+02  0.41796764350E+02  0.00000000000E+00 0. -1.
        -12    1    4    4    0    0 -0.79797907120E+02  0.10734810411E+03  0.31986419841E+03  0.34670510071E+03  0.00000000000E+00 0.  1.
        -13    1    3    3    0    0  0.14162846734E+03 -0.10674039437E+03  0.54432618911E+02  0.18551292287E+03  0.00000000000E+00 0. -1.
         13    1    3    3    0    0 -0.10421642365E+02 -0.20461505504E+02  0.23390222723E+02  0.32777833304E+02  0.00000000000E+00 0.  1.
          2    1    1    2  501    0 -0.22722182250E+02 -0.99915952210E+00  0.58649067518E+02  0.62904761399E+02  0.00000000000E+00 0. -1.
<scales pt_clust_5="13000.00000" pt_clust_6="13000.00000" pt_clust_7="13000.00000" pt_clust_8="13000.00000" pt_clust_9="22.74414"></scales>
<clustering>
<clus scale="   22.744">  1  9  2 -1</clus>
<clus scale="   76.011">  5  6 -1 -1</clus>
<clus scale="   90.548">  7  8 -1 -1</clus>
<clus scale="  193.829">  1  5  2 -1</clus>
<clus scale="   22.744">  1  5  2 -1</clus>
</clustering>
</event>
<event>
 9    1  0.5981539E-005  0.9323112E+02  0.7546771E-02  0.1301194E+00
         -4   -1    0    0    0  501 -0.00000000000E+00  0.00000000000E+00  0.44644978472E+02  0.44644978472E+02  0.00000000000E+00 0.  1.
         21   -1    0    0  501  502  0.00000000000E+00 -0.00000000000E+00 -0.58627777369E+03  0.58627777369E+03  0.00000000000E+00 0.  1.
        -24    2    1    2    0    0 -0.36167394619E+02 -0.24720122298E+02 -0.43643668440E+02  0.10053216543E+03  0.79263999463E+02 0.  0.
         23    2    1    2    0    0 -0.19708902743E+02 -0.36404683637E+02 -0.24109889615E+03  0.26048135551E+03  0.89488083036E+02 0.  0.
         13    1    3    3    0    0 -0.51807422415E+01 -0.50165768293E+02 -0.25728640290E+02  0.56616316816E+02  0.00000000000E+00 0. -1.
        -14    1    3    3    0    0 -0.30986652377E+02  0.25445645996E+02 -0.17915028149E+02  0.43915848612E+02  0.00000000000E+00 0.  1.
        -11    1    4    4    0    0 -0.44094764953E+02 -0.53041564054E+02 -0.17418164871E+03  0.18734194021E+03  0.00000000000E+00 0.  1.
         11    1    4    4    0    0  0.24385862210E+02  0.16636880417E+02 -0.66917247433E+02  0.73139415296E+02  0.00000000000E+00 0. -1.
         -3    1    1    2    0  502  0.55876297362E+02  0.61124805935E+02 -0.25689023063E+03  0.26990923123E+03  0.00000000000E+00 0.  1.
<scales pt_clust_5="13000.00000" pt_clust_6="13000.00000" pt_clust_7="13000.00000" pt_clust_8="13000.00000" pt_clust_9="82.81547"></scales>
<clustering>
<clus scale="   79.264">  5  6 -1 -1</clus>
<clus scale="   82.815">  2  9  1 -1</clus>
<clus scale="   83.467">  1  5  2 -1</clus>
<clus scale="   89.488">  7  8 -1 -1</clus>
<clus scale="   82.815">  2  5  1 -1</clus>
</clustering>
</event>
<event>
 9    1  0.5981539E-005  0.1206187E+03  0.7546771E-02  0.1249367E+00
          1   -1    0    0  502    0 -0.00000000000E+00  0.00000000000E+00  0.62106345139E+03  0.62106345139E+03  0.00000000000E+00 0. -1.
         21   -1    0    0  501  502  0.00000000000E+00 -0.00000000000E+00 -0.43665422825E+02  0.43665422825E+02  0.00000000000E+00 0. -1.
        -24    2    1    2    0    0 -0.42476209186E+02  0.40111334844E+02  0.20496478039E+03  0.22860054756E+03  0.82671044609E+02 0.  0.
         23    2    1    2    0    0  0.74223013224E+02 -0.29787495392E+02  0.10658458439E+03  0.16819185421E+03  0.10262492689E+03 0.  0.
         13    1    3    3    0    0 -0.44464850036E+02  0.63579730422E+02  0.16126897415E+03  0.17896141214E+03  0.00000000000E+00 0. -1.
        -14    1    3    3    0    0  0.19886408500E+01 -0.23468395578E+02  0.43695806236E+02  0.49639135428E+02  0.00000000000E+00 0.  1.
        -13    1    4    4    0    0 -0.15970625843E+02 -0.33774327875E+02  0.17137526717E+02  0.41103052626E+02  0.00000000000E+00 0.  1.
         13    1    4    4    0    0  0.90193639067E+02  0.39868324832E+01  0.89447057671E+02  0.12708880158E+03  0.00000000000E+00 0. -1.
          2    1    1    2  501    0 -0.31746804038E+02 -0.10323839452E+02  0.26584866379E+03  0.26793647245E+03  0.00000000000E+00 0. -1.
<scales pt_clust_5="13000.00000" pt_clust_6="13000.00000" pt_clust_7="13000.00000" pt_clust_8="13000.00000" pt_clust_9="33.38326"></scales>
<clustering>
<clus scale="   33.383">  2  9  1 -1</clus>
<clus scale="   82.671">  5  6 -1 -1</clus>
<clus scale="  102.625">  7  8 -1 -1</clus>
<clus scale="  104.170">  1  5  2 -1</clus>
<clus scale="   33.383">  2  5  1 -1</clus>
</clustering>
</event>
<event>
 9    1  0.5981539E-005  0.1147282E+03  0.7546771E-02  0.1256785E+00
          1   -1    0    0  502    0 -0.00000000000E+00  0.00000000000E+00  0.38392513368E+03  0.38392513368E+03  0.00000000000E+00 0. -1.
         21   -1    0    0  501  502  0.00000000000E+00 -0.00000000000E+00 -0.10079415880E+03  0.10079415880E+03  0.00000000000E+00 0.  1.
         23    2    1    2    0    0 -0.14252269732E+01  0.43389212026E+02  0.81662064723E+02  0.13029332336E+03  0.91776915977E+02 0.  0.
        -24    2    1    2    0    0  0.20092337123E+02 -0.13513421342E+03  0.31996945435E+02  0.16081204113E+03  0.78560488844E+02 0.  0.
         11    1    4    4    0    0  0.10558496726E+02 -0.22896173376E+02 -0.24183989722E+02  0.34936828237E+02  0.00000000000E+00 0. -1.
        -12    1    4    4    0    0  0.95338403977E+01 -0.11223804005E+03  0.56180935157E+02  0.12587521289E+03  0.00000000000E+00 0.  1.
        -11    1    3    3    0    0 -0.32282933864E+02  0.49266014251E+02  0.22015715882E+02  0.62880996531E+02  0.00000000000E+00 0. -1.
         11    1    3    3    0    0  0.30857706891E+02 -0.58768022243E+01  0.59646348841E+02  0.67412326833E+02  0.00000000000E+00 0.  1.
          2    1    1    2  501    0 -0.18667110150E+02  0.91745001395E+02  0.16947196473E+03  0.19361392799E+03  0.00000000000E+00 0. -1.
<scales pt_clust_5="13000.00000" pt_clust_6="13000.00000" pt_clust_7="13000.00000" pt_clust_8="13000.00000" pt_clust_9="93.62486"></scales>
<clustering>
<clus scale="   78.560">  5  6 -1 -1</clus>
<clus scale="   91.777">  7  8 -1 -1</clus>
<clus scale="   93.625">  2  9  1 -1</clus>
<clus scale="  104.457">  2  5  1 -1</clus>
<clus scale="   93.625">  2  5  1 -1</clus>
</clustering>
</event>
<event>
 9    1  0.5981539E-005  0.1028642E+03  0.7546771E-02  0.1280504E+00
         21   -1    0    0  501  502  0.00000000000E+00  0.00000000000E+00  0.13324570240E+03  0.13324570240E+03  0.00000000000E+00 0. -1.
          1   -1    0    0  502    0 -0.00000000000E+00 -0.00000000000E+00 -0.17348783769E+03  0.17348783769E+03  0.00000000000E+00 0. -1.
         23    2    1    2    0    0  0.43491563084E+02 -0.26304381075E+02 -0.11959504204E+03  0.16002114083E+03  0.93382840548E+02 0.  0.
        -24    2    1    2    0    0 -0.18696559812E+02  0.90847155906E+01  0.29461712763E+02  0.88399104848E+02  0.80711311554E+02 0.  0.
         11    1    4    4    0    0  0.20597954388E+02 -0.11017675988E+02  0.36866703717E+02  0.43644229310E+02  0.00000000000E+00 0. -1.
        -12    1    4    4    0    0 -0.39294514199E+02  0.20102391579E+02 -0.74049909537E+01  0.44754875537E+02  0.00000000000E+00 0.  1.
        -13    1    3    3    0    0 -0.26421463088E+02  0.89650199017E+01 -0.34721631049E+02  0.44542754251E+02  0.00000000000E+00 0.  1.
         13    1    3    3    0    0  0.69913026172E+02 -0.35269400976E+02 -0.84873410992E+02  0.11547838658E+03  0.00000000000E+00 0. -1.
          2    1    1    2  501    0 -0.24795003273E+02  0.17219665484E+02  0.49891193996E+02  0.58313294410E+02  0.00000000000E+00 0. -1.
<scales pt_clust_5="13000.00000" pt_clust_6="13000.00000" pt_clust_7="13000.00000" pt_clust_8="13000.00000" pt_clust_9="30.18790"></scales>
<clustering>
<clus scale="   30.188">  1  9  2 -1</clus>
<clus scale="   80.711">  5  6 -1 -1</clus>
<clus scale="   91.515">  1  5  2 -1</clus>
<clus scale="   93.383">  7  8 -1 -1</clus>
<clus scale="   30.188">  1  5  2 -1</clus>
</clustering>
</event>
<event>
 9    1  0.5981539E-005  0.1242460E+03  0.7546771E-02  0.1266234E+00
         -2   -1    0    0    0  501 -0.00000000000E+00  0.00000000000E+00  0.13484400353E+03  0.13484400353E+03  0.00000000000E+00 0.  1.
         21   -1    0    0  501  502  0.00000000000E+00 -0.00000000000E+00 -0.33933070619E+03  0.33933070619E+03  0.00000000000E+00 0. -1.
        -24    2    1    2    0    0 -0.14050232013E+02 -0.25103696790E+02  0.65790335885E+02  0.94857815276E+02  0.61984128702E+02 0.  0.
         23    2    1    2    0    0  0.88049558451E+02  0.12107386550E+01 -0.27360899858E+03  0.30148453794E+03  0.90977205293E+02 0.  0.
         11    1    3    3    0    0 -0.11489284082E+02  0.20049749734E+02  0.22099940746E+02  0.31975044864E+02  0.00000000000E+00 0. -1.
        -12    1    3    3    0    0 -0.25609479316E+01 -0.45153446524E+02  0.43690395139E+02  0.62882770412E+02  0.00000000000E+00 0.  1.
        -13    1    4    4    0    0  0.21912180019E+01 -0.33810992022E+02 -0.71984792373E+02  0.79560008490E+02  0.00000000000E+00 0.  1.
         13    1    4    4    0    0  0.85858340449E+02  0.35021730677E+02 -0.20162420620E+03  0.22192452945E+03  0.00000000000E+00 0. -1.
         -1    1    1    2    0  502 -0.73999326438E+02  0.23892958135E+02  0.33319600273E+01  0.77832356506E+02  0.00000000000E+00 0.  1.
<scales pt_clust_5="13000.00000" pt_clust_6="13000.00000" pt_clust_7="13000.00000" pt_clust_8="13000.00000" pt_clust_9="84.61808"></scales>
<clustering>
<clus scale="   61.984">  5  6 -1 -1</clus>
<clus scale="   68.335">  1  5  2 -1</clus>
<clus scale="   84.618">  2  9  1 -1</clus>
<clus scale="   90.977">  7  8 -1 -1</clus>
<clus scale="   84.618">  2  5  1 -1</clus>
</clustering>
</event>
<event>
 9    1  0.5981539E-005  0.1678349E+03  0.7546771E-02  0.1203407E+00
          3   -1    0    0  502    0 -0.00000000000E+00  0.00000000000E+00  0.23276846360E+03  0.23276846360E+03  0.00000000000E+00 0. -1.
         21   -1    0    0  501  502  0.00000000000E+00 -0.00000000000E+00 -0.27437009873E+03  0.27437009873E+03  0.00000000000E+00 0. -1.
         23    2    1    2    0    0 -0.45019690851E+02  0.37437954618E+01  0.56513333151E+02  0.11529320400E+03  0.89766238062E+02 0.  0.
        -24    2    1    2    0    0  0.95325604136E+02 -0.11914259908E+03 -0.17281514352E+03  0.24546337526E+03  0.84292734231E+02 0.  0.
         11    1    4    4    0    0  0.62146361389E+02 -0.12541958677E+03 -0.13094993446E+03  0.19167714604E+03  0.00000000000E+00 0. -1.
        -12    1    4    4    0    0  0.33179242748E+02  0.62769876901E+01 -0.41865209061E+02  0.53786229218E+02  0.00000000000E+00 0.  1.
        -13    1    3    3    0    0 -0.63298492485E+02 -0.21836885426E+02  0.27087146443E+02  0.72230618289E+02  0.00000000000E+00 0. -1.
         13    1    3    3    0    0  0.18278801634E+02  0.25580680888E+02  0.29426186708E+02  0.43062585710E+02  0.00000000000E+00 0.  1.
          4    1    1    2  501    0 -0.50305913285E+02  0.11539880362E+03  0.74700175233E+02  0.14638198307E+03  0.00000000000E+00 0. -1.
<scales pt_clust_5="13000.00000" pt_clust_6="13000.00000" pt_clust_7="13000.00000" pt_clust_8="13000.00000" pt_clust_9="145.13202"></scales>
<clustering>
<clus scale="   84.293">  5  6 -1 -1</clus>
<clus scale="   89.766">  7  8 -1 -1</clus>
<clus scale="  100.493">  1  7  2 -1</clus>
<clus scale="  145.132">  2  9  1 -1</clus>
<clus scale="  145.132">  2  5  1 -1</clus>
</clustering>
</event>
<event>
 9    1  0.5981539E-005  0.1188039E+03  0.7546771E-02  0.1248415E+00
         21   -1    0    0  501  502  0.00000000000E+00  0.00000000000E+00  0.10292194872E+03  0.10292194872E+03  0.00000000000E+00 0. -1.
          1   -1    0    0  502    0 -0.00000000000E+00 -0.00000000000E+00 -0.23913093532E+03  0.23913093532E+03  0.00000000000E+00 0. -1.
        -24    2    1    2    0    0  0.46296888489E+02 -0.23191846569E+02 -0.30064234356E+02  0.10118478937E+03  0.81567394102E+02 0.  0.
         23    2    1    2    0    0 -0.11229316110E+03 -0.10889787275E+01 -0.61188939034E+02  0.15740497936E+03  0.91767648791E+02 0.  0.
         11    1    3    3    0    0  0.60112917388E+02 -0.40969772891E+02 -0.29945942675E+02  0.78669210053E+02  0.00000000000E+00 0. -1.
        -12    1    3    3    0    0 -0.13816028899E+02  0.17777926322E+02 -0.11829168117E+00  0.22515579313E+02  0.00000000000E+00 0.  1.
        -11    1    4    4    0    0  0.59605069989E+01 -0.21091807583E+02 -0.22438250930E+02  0.31366655792E+02  0.00000000000E+00 0.  1.
         11    1    4    4    0    0 -0.11825366809E+03  0.20002828855E+02 -0.38750688104E+02  0.12603832357E+03  0.00000000000E+00 0. -1.
          2    1    1    2  501    0  0.65996272606E+02  0.24280825297E+02 -0.44955813213E+02  0.83463115306E+02  0.00000000000E+00 0. -1.
<scales pt_clust_5="13000.00000" pt_clust_6="13000.00000" pt_clust_7="13000.00000" pt_clust_8="13000.00000" pt_clust_9="70.32120"></scales>
<clustering>
<clus scale="   70.321">  1  9  2 -1</clus>
<clus scale="   81.567">  5  6 -1 -1</clus>
<clus scale="   91.768">  7  8 -1 -1</clus>
<clus scale="  111.114">  2  5  1 -1</clus>
<clus scale="   70.321">  1  5  2 -1</clus>
</clustering>
</event>
<event>
 9    1  0.5981539E-005  0.1055276E+03  0.7546771E-02  0.1272391E+00
         21   -1    0    0  501  502  0.00000000000E+00  0.00000000000E+00  0.63261630481E+03  0.63261630481E+03  0.00000000000E+00 0. -1.
          1   -1    0    0  502    0 -0.00000000000E+00 -0.00000000000E+00 -0.95188883641E+02  0.95188883641E+02  0.00000000000E+00 0. -1.
         23    2    1    2    0    0  0.54043666778E+02  0.23035697316E+02 -0.36468504804E+02  0.11414159726E+03  0.90812945736E+02 0.  0.
        -24    2    1    2    0    0  0.20716245657E+02 -0.80001002956E+02  0.24494881269E+03  0.27155206859E+03  0.83134119423E+02 0.  0.
         11    1    4    4    0    0 -0.19537833574E+02 -0.65918009712E+02  0.10720138154E+03  0.12735402290E+03  0.00000000000E+00 0. -1.
        -12    1    4    4    0    0  0.40254079231E+02 -0.14082993244E+02  0.13774743115E+03  0.14419804569E+03  0.00000000000E+00 0.  1.
        -13    1    3    3    0    0  0.36018255197E+02 -0.23322812729E+02 -0.46636077914E+02  0.63373433426E+02  0.00000000000E+00 0.  1.
         13    1    3    3    0    0  0.18025411581E+02  0.46358510046E+02  0.10167573110E+02  0.50768163836E+02  0.00000000000E+00 0. -1.
          2    1    1    2  501    0 -0.74759912435E+02  0.56965305640E+02  0.32894711329E+03  0.34211152260E+03  0.00000000000E+00 0. -1.
<scales pt_clust_5="13000.00000" pt_clust_6="13000.00000" pt_clust_7="13000.00000" pt_clust_8="13000.00000" pt_clust_9="93.98984"></scales>
<clustering>
<clus scale="   83.134">  5  6 -1 -1</clus>
<clus scale="   90.813">  7  8 -1 -1</clus>
<clus scale="   93.990">  1  9  2 -1</clus>
<clus scale="   98.997">  1  5  2 -1</clus>
<clus scale="   93.990">  1  5  2 -1</clus>
</clustering>
</event>
<event>
 9    1  0.5981539E-005  0.2306714E+03  0.7546771E-02  0.1157453E+00
         21   -1    0    0  501  502  0.00000000000E+00  0.00000000000E+00  0.29968215894E+03  0.29968215894E+03  0.00000000000E+00 0.  1.
         -4   -1    0    0    0  501 -0.00000000000E+00 -0.00000000000E+00 -0.26226203537E+03  0.26226203537E+03  0.00000000000E+00 0.  1.
        -24    2    1    2    0    0 -0.51180303468E+02  0.32489202259E+02 -0.15937063917E+02  0.10987129437E+03  0.90237129791E+02 0.  0.
         23    2    1    2    0    0  0.22592530181E+03  0.60675578549E+02  0.25958327663E+02  0.25215744695E+03  0.90475275332E+02 0.  0.
         13    1    3    3    0    0 -0.52629664038E+01  0.52005965118E+02 -0.26901423634E+02  0.58787803299E+02  0.00000000000E+00 0. -1.
        -14    1    3    3    0    0 -0.45917337065E+02 -0.19516762859E+02  0.10964359717E+02  0.51083491067E+02  0.00000000000E+00 0.  1.
        -11    1    4    4    0    0  0.63635088570E+02 -0.17880822557E+02 -0.13795459696E+02  0.67523795960E+02  0.00000000000E+00 0. -1.
         11    1    4    4    0    0  0.16229021324E+03  0.78556401105E+02  0.39753787359E+02  0.18463365099E+03  0.00000000000E+00 0.  1.
         -3    1    1    2    0  502 -0.17474499834E+03 -0.93164780808E+02  0.27398859827E+02  0.19991545300E+03  0.00000000000E+00 0.  1.
<scales pt_clust_5="13000.00000" pt_clust_6="13000.00000" pt_clust_7="13000.00000" pt_clust_8="13000.00000" pt_clust_9="212.18750"></scales>
<clustering>
<clus scale="   90.237">  5  6 -1 -1</clus>
<clus scale="   90.475">  7  8 -1 -1</clus>
<clus scale="  108.709">  2  5  1 -1</clus>
<clus scale="  212.187">  1  9  2 -1</clus>
<clus scale="  212.187">  1  5  2 -1</clus>
</clustering>
</event>
<event>
 9    1  0.5981539E-005  0.1798855E+03  0.7546771E-02  0.1189614E+00
         21   -1    0    0  501  502  0.00000000000E+00  0.00000000000E+00  0.66963331211E+02  0.66963331211E+02  0.00000000000E+00 0. -1.
          3   -1    0    0  502    0 -0.00000000000E+00 -0.00000000000E+00 -0.81265130334E+03  0.81265130334E+03  0.00000000000E+00 0. -1.
        -24    2    1    2    0    0  0.59227830874E+02 -0.48216470788E+02 -0.10926432998E+03  0.15527482387E+03  0.79616663555E+02 0.  0.
         23    2    1    2    0    0  0.63668107648E+01 -0.12819113150E+03 -0.30696899290E+03  0.34491568774E+03  0.90903061419E+02 0.  0.
         13    1    3    3    0    0  0.77619996918E+02 -0.35689989510E+02 -0.71329245825E+02  0.11129465658E+03  0.00000000000E+00 0. -1.
        -14    1    3    3    0    0 -0.18392166044E+02 -0.12526481278E+02 -0.37935084153E+02  0.43980167288E+02  0.00000000000E+00 0.  1.
        -13    1    4    4    0    0  0.16337013594E+02 -0.14469004080E+02 -0.54269466767E+01  0.22487815422E+02  0.00000000000E+00 0.  1.
         13    1    4    4    0    0 -0.99702028290E+01 -0.11372212742E+03 -0.30154204622E+03  0.32242787232E+03  0.00000000000E+00 0. -1.
          4    1    1    2  501    0 -0.65594641639E+02  0.17640760229E+03 -0.32945464925E+03  0.37942412294E+03  0.00000000000E+00 0. -1.
<scales pt_clust_5="13000.00000" pt_clust_6="13000.00000" pt_clust_7="13000.00000" pt_clust_8="13000.00000" pt_clust_9="155.22715"></scales>
<clustering>
<clus scale="   79.617">  5  6 -1 -1</clus>
<clus scale="   90.903">  7  8 -1 -1</clus>
<clus scale="  110.325">  2  5  1 -1</clus>
<clus scale="  155.227">  1  9  2 -1</clus>
<clus scale="  155.227">  1  5  2 -1</clus>
</clustering>
</event>
<event>
 9    1  0.5981539E-005  0.8830749E+02  0.7546771E-02  0.1310815E+00
         21   -1    0    0  501  502  0.00000000000E+00  0.00000000000E+00  0.86310239496E+02  0.86310239496E+02  0.00000000000E+00 0. -1.
          3   -1    0    0  502    0 -0.00000000000E+00 -0.00000000000E+00 -0.41330993458E+03  0.41330993458E+03  0.00000000000E+00 0. -1.
        -24    2    1    2    0    0 -0.43591567885E+01  0.72669808702E+01 -0.31897319343E+03  0.32944900592E+03  0.81981327831E+02 0.  0.
         23    2    1    2    0    0 -0.28456430103E+02 -0.12557343504E+02 -0.58239948684E+02  0.10995289067E+03  0.87922074896E+02 0.  0.
         13    1    3    3    0    0 -0.46709456446E+01  0.40841168792E+02 -0.24207381995E+03  0.24553931072E+03  0.00000000000E+00 0. -1.
        -14    1    3    3    0    0  0.31178885606E+00 -0.33574187922E+02 -0.76899373481E+02  0.83909695201E+02  0.00000000000E+00 0.  1.
        -13    1    4    4    0    0 -0.49877934399E+02  0.42649488131E+01 -0.64851090434E+02  0.81924734108E+02  0.00000000000E+00 0. -1.
         13    1    4    4    0    0  0.21421504295E+02 -0.16822292317E+02  0.66111417494E+01  0.28028156563E+02  0.00000000000E+00 0.  1.
          4    1    1    2  501    0  0.32815586892E+02  0.52903626335E+01  0.50213447036E+02  0.60218277484E+02  0.00000000000E+00 0. -1.
<scales pt_clust_5="13000.00000" pt_clust_6="13000.00000" pt_clust_7="13000.00000" pt_clust_8="13000.00000" pt_clust_9="33.23929"></scales>
<clustering>
<clus scale="   33.239">  1  9  2 -1</clus>
<clus scale="   81.981">  5  6 -1 -1</clus>
<clus scale="   82.395">  2  5  1 -1</clus>
<clus scale="   87.922">  7  8 -1 -1</clus>
<clus scale="   33.239">  1  5  2 -1</clus>
</clustering>
</event>
<event>
 9    1  0.5981539E-005  0.9447397E+02  0.7546771E-02  0.1295767E+00
         21   -1    0    0  501  502  0.00000000000E+00  0.00000000000E+00  0.65573538786E+02  0.65573538786E+02  0.00000000000E+00 0. -1.
          1   -1    0    0  502    0 -0.00000000000E+00 -0.00000000000E+00 -0.23627883402E+03  0.23627883402E+03  0.00000000000E+00 0. -1.
         23    2    1    2    0    0  0.34308483079E+02  0.24815121179E+02 -0.15965146478E+03  0.18675140630E+03  0.87147204770E+02 0.  0.
        -24    2    1    2    0    0 -0.25963691117E+02 -0.17280760649E+00 -0.20647338123E+02  0.87371657823E+02  0.80829146354E+02 0.  0.
         11    1    4    4    0    0 -0.41758054645E+02  0.24276662204E+02  0.50220149525E+01  0.48562455557E+02  0.00000000000E+00 0. -1.
        -12    1    4    4    0    0  0.15794363528E+02 -0.24449469811E+02 -0.25669353075E+02  0.38809202267E+02  0.00000000000E+00 0.  1.
        -13    1    3    3    0    0  0.62873489862E+02  0.21717414037E+02 -0.12617449841E+03  0.14263493909E+03  0.00000000000E+00 0. -1.
         13    1    3    3    0    0 -0.28565006783E+02  0.30977071418E+01 -0.33476966370E+02  0.44116467213E+02  0.00000000000E+00 0.  1.
          2    1    1    2  501    0 -0.83447919623E+01 -0.24642313572E+02  0.95935076603E+01  0.27729308688E+02  0.00000000000E+00 0. -1.
<scales pt_clust_5="13000.00000" pt_clust_6="13000.00000" pt_clust_7="13000.00000" pt_clust_8="13000.00000" pt_clust_9="26.01690"></scales>
<clustering>
<clus scale="   26.017">  1  9  2 -1</clus>
<clus scale="   80.829">  5  6 -1 -1</clus>
<clus scale="   87.147">  7  8 -1 -1</clus>
<clus scale="   88.679">  1  5  2 -1</clus>
<clus scale="   26.017">  1  5  2 -1</clus>
</clustering>
</event>
<event>
 9    1  0.5981539E-005  0.9446206E+02  0.7546771E-02  0.1299949E+00
         21   -1    0    0  501  502  0.00000000000E+00  0.00000000000E+00  0.43131175310E+03  0.43131175310E+03  0.00000000000E+00 0. -1.
          3   -1    0    0  502    0 -0.00000000000E+00 -0.00000000000E+00 -0.83843626921E+02  0.83843626921E+02  0.00000000000E+00 0. -1.
         23    2    1    2    0    0 -0.91146679797E+01 -0.25433970776E+02 -0.45667622903E+02  0.10499279061E+03  0.90597959450E+02 0.  0.
        -24    2    1    2    0    0  0.29594216631E+02  0.14315226876E+02  0.22238357376E+03  0.23782761398E+03  0.77632317468E+02 0.  0.
         13    1    4    4    0    0  0.49159157671E+02  0.55325581085E+01  0.20293124741E+03  0.20887394083E+03  0.00000000000E+00 0. -1.
        -14    1    4    4    0    0 -0.19564941040E+02  0.87826687672E+01  0.19452326350E+02  0.28953673152E+02  0.00000000000E+00 0.  1.
        -13    1    3    3    0    0 -0.35019542219E+02  0.21303762145E+02 -0.17280923461E+02  0.44484254904E+02  0.00000000000E+00 0.  1.
         13    1    3    3    0    0  0.25904874239E+02 -0.46737732921E+02 -0.28386699443E+02  0.60508535705E+02  0.00000000000E+00 0. -1.
          4    1    1    2  501    0 -0.20479548651E+02  0.11118743901E+02  0.17075217533E+03  0.17233497543E+03  0.00000000000E+00 0. -1.
<scales pt_clust_5="13000.00000" pt_clust_6="13000.00000" pt_clust_7="13000.00000" pt_clust_8="13000.00000" pt_clust_9="23.30318"></scales>
<clustering>
<clus scale="   23.303">  1  9  2 -1</clus>
<clus scale="   77.632">  5  6 -1 -1</clus>
<clus scale="   82.109">  1  5  2 -1</clus>
<clus scale="   90.598">  7  8 -1 -1</clus>
<clus scale="   23.303">  1  5  2 -1</clus>
</clustering>
</event>
<event>
 9    1  0.5981539E-005  0.1309642E+03  0.7546771E-02  0.1227969E+00
         21   -1    0    0  501  502  0.00000000000E+00  0.00000000000E+00  0.76569835127E+02  0.76569835127E+02  0.00000000000E+00 0.  1.
         -4   -1    0    0    0  501 -0.00000000000E+00 -0.00000000000E+00 -0.56766129400E+03  0.56766129400E+03  0.00000000000E+00 0.  1.
        -24    2    1    2    0    0 -0.98784250885E+02  0.39645155709E+02 -0.34739735021E+03  0.37174117831E+03  0.78590827225E+02 0.  0.
         23    2    1    2    0    0  0.83594433101E+02 -0.21790104506E+02 -0.18687703645E+03  0.22335443749E+03  0.86610277058E+02 0.  0.
         13    1    3    3    0    0 -0.36484513965E+02 -0.60025797166E+01 -0.38680838865E+02  0.53510354305E+02  0.00000000000E+00 0. -1.
        -14    1    3    3    0    0 -0.62299736920E+02  0.45647735426E+02 -0.30871651134E+03  0.31823082400E+03  0.00000000000E+00 0.  1.
        -13    1    4    4    0    0  0.29003196047E+02 -0.11506901062E+02 -0.15740772514E+03  0.16047051470E+03  0.00000000000E+00 0.  1.
         13    1    4    4    0    0  0.54591237055E+02 -0.10283203444E+02 -0.29469311310E+02  0.62883922789E+02  0.00000000000E+00 0. -1.
         -3    1    1    2    0  502  0.15189817783E+02 -0.17855051203E+02  0.43182927790E+02  0.49135513330E+02  0.00000000000E+00 0.  1.
<scales pt_clust_5="13000.00000" pt_clust_6="13000.00000" pt_clust_7="13000.00000" pt_clust_8="13000.00000" pt_clust_9="23.44213"></scales>
<clustering>
<clus scale="   23.442">  1  9  2 -1</clus>
<clus scale="   78.591">  5  6 -1 -1</clus>
<clus scale="   86.610">  7  8 -1 -1</clus>
<clus scale="  125.805">  2  5  1 -1</clus>
<clus scale="   23.442">  1  5  2 -1</clus>
</clustering>
</event>
<event>
 9    1  0.5981539E-005  0.9342350E+02  0.7546771E-02  0.1300074E+00
         21   -1    0    0  501  502  0.00000000000E+00  0.00000000000E+00  0.13293387292E+03  0.13293387292E+03  0.00000000000E+00 0. -1.
         -2   -1    0    0    0  501 -0.00000000000E+00 -0.00000000000E+00 -0.15807069927E+03  0.15807069927E+03  0.00000000000E+00 0.  1.
        -24    2    1    2    0    0  0.20913326873E+02  0.20391576002E+01 -0.98120642751E+02  0.12851749930E+03  0.80296710319E+02 0.  0.
         23    2    1    2    0    0 -0.58185370579E+02 -0.58150967813E-01  0.44936013226E+02  0.11579864936E+03  0.89468101453E+02 0.  0.
         11    1    3    3    0    0  0.36636549466E+02  0.31542838865E+00 -0.86311025106E+01  0.37640831319E+02  0.00000000000E+00 0. -1.
        -12    1    3    3    0    0 -0.15723222592E+02  0.17237292116E+01 -0.89489540241E+02  0.90876667982E+02  0.00000000000E+00 0.  1.
        -11    1    4    4    0    0 -0.57286728282E+02 -0.36815679026E+02  0.39234323461E+02  0.78590683906E+02  0.00000000000E+00 0. -1.
         11    1    4    4    0    0 -0.89864229681E+00  0.36757528058E+02  0.57016897648E+01  0.37207965452E+02  0.00000000000E+00 0.  1.
         -1    1    1    2    0  502  0.37272043706E+02 -0.19810066324E+01  0.28047803169E+02  0.46688423532E+02  0.00000000000E+00 0.  1.
<scales pt_clust_5="13000.00000" pt_clust_6="13000.00000" pt_clust_7="13000.00000" pt_clust_8="13000.00000" pt_clust_9="37.32465"></scales>
<clustering>
<clus scale="   37.325">  1  9  2 -1</clus>
<clus scale="   80.297">  5  6 -1 -1</clus>
<clus scale="   84.682">  2  5  1 -1</clus>
<clus scale="   89.468">  7  8 -1 -1</clus>
<clus scale="   37.325">  1  5  2 -1</clus>
</clustering>
</event>
<event>
 9    1  0.5981539E-005  0.1125882E+03  0.7546771E-02  0.1259040E+00
         21   -1    0    0  501  502  0.00000000000E+00  0.00000000000E+00  0.25358336378E+03  0.25358336378E+03  0.00000000000E+00 0.  1.
          3   -1    0    0  502    0 -0.00000000000E+00 -0.00000000000E+00 -0.72411245926E+02  0.72411245926E+02  0.00000000000E+00 0. -1.
        -24    2    1    2    0    0  0.54995723000E+02  0.23911155333E+02  0.46014783377E+02  0.11050100442E+03  0.80602970107E+02 0.  0.
         23    2    1    2    0    0 -0.83403576422E+02 -0.22942053134E+02  0.13929754181E+03  0.18676928438E+03  0.89422961643E+02 0.  0.
         13    1    3    3    0    0  0.10602391368E+02 -0.17777908200E+02 -0.14008027113E+02  0.24993790154E+02  0.00000000000E+00 0. -1.
        -14    1    3    3    0    0  0.44393331632E+02  0.41689063533E+02  0.60022810490E+02  0.85507214261E+02  0.00000000000E+00 0.  1.
        -13    1    4    4    0    0 -0.41513181360E+02 -0.39944086491E+02  0.12770419532E+03  0.14009723686E+03  0.00000000000E+00 0.  1.
         13    1    4    4    0    0 -0.41890395062E+02  0.17002033357E+02  0.11593346492E+02  0.46672047519E+02  0.00000000000E+00 0. -1.
          4    1    1    2  501    0  0.28407853422E+02 -0.96910219819E+00 -0.41402073373E+01  0.28724320913E+02  0.00000000000E+00 0. -1.
<scales pt_clust_5="13000.00000" pt_clust_6="13000.00000" pt_clust_7="13000.00000" pt_clust_8="13000.00000" pt_clust_9="28.42439"></scales>
<clustering>
<clus scale="   28.424">  1  9  2 -1</clus>
<clus scale="   80.603">  5  6 -1 -1</clus>
<clus scale="   89.423">  7  8 -1 -1</clus>
<clus scale="  105.719">  2  5  1 -1</clus>
<clus scale="   28.424">  1  5  2 -1</clus>
</clustering>
</event>
<event>
 9    1  0.5981539E-005  0.1402801E+03  0.7546771E-02  0.1215229E+00
         21   -1    0    0  501  502  0.00000000000E+00  0.00000000000E+00  0.10432994152E+03  0.10432994152E+03  0.00000000000E+00 0. -1.
          3   -1    0    0  502    0 -0.00000000000E+00 -0.00000000000E+00 -0.24895999226E+03  0.24895999226E+03  0.00000000000E+00 0. -1.
        -24    2    1    2    0    0  0.82661278863E+02  0.50671828228E+02 -0.82053000236E+02  0.14993478882E+03  0.79669472514E+02 0.  0.
         23    2    1    2    0    0 -0.11954698695E+03 -0.40555215308E+02 -0.51204070841E+02  0.16345218787E+03  0.90324710186E+02 0.  0.
         13    1    3    3    0    0  0.62859409105E+02  0.67037745467E+02 -0.83550352867E+02  0.12420155432E+03  0.00000000000E+00 0. -1.
        -14    1    3    3    0    0  0.19801869757E+02 -0.16365917239E+02  0.14973526307E+01  0.25733234501E+02  0.00000000000E+00 0.  1.
        -13    1    4    4    0    0 -0.28807366130E+02 -0.51354243394E+01 -0.58872194845E+02  0.65743229707E+02  0.00000000000E+00 0.  1.
         13    1    4    4    0    0 -0.90739620820E+02 -0.35419790969E+02  0.76681240035E+01  0.97708958159E+02  0.00000000000E+00 0. -1.
          4    1    1    2  501    0  0.36885708087E+02 -0.10116612920E+02 -0.11372979662E+02  0.39902957089E+02  0.00000000000E+00 0. -1.
<scales pt_clust_5="13000.00000" pt_clust_6="13000.00000" pt_clust_7="13000.00000" pt_clust_8="13000.00000" pt_clust_9="38.24789"></scales>
<clustering>
<clus scale="   38.248">  1  9  2 -1</clus>
<clus scale="   79.669">  5  6 -1 -1</clus>
<clus scale="   90.325">  7  8 -1 -1</clus>
<clus scale="  133.668">  2  5  1 -1</clus>
<clus scale="   38.248">  1  5  2 -1</clus>
</clustering>
</event>
<event>
 9    1  0.5981539E-005  0.1330627E+03  0.7546771E-02  0.1226236E+00
          1   -1    0    0  502    0 -0.00000000000E+00  0.00000000000E+00  0.15523046923E+03  0.15523046923E+03  0.00000000000E+00 0. -1.
         21   -1    0    0  501  502  0.00000000000E+00 -0.00000000000E+00 -0.26512594859E+03  0.26512594859E+03  0.00000000000E+00 0. -1.
         23    2    1    2    0    0  0.80797298650E+02  0.92545961844E+02  0.68851174121E+02  0.16872960380E+03  0.92931353679E+02 0.  0.
        -24    2    1    2    0    0 -0.12664339212E+02 -0.36086988895E+02 -0.89087579493E+02  0.12565671704E+03  0.79939711420E+02 0.  0.
         11    1    4    4    0    0 -0.11410084802E+02 -0.52003534037E+02 -0.94777241062E+02  0.10870732731E+03  0.00000000000E+00 0. -1.
        -12    1    4    4    0    0 -0.12542544099E+01  0.15916545143E+02  0.56896615692E+01  0.16949389729E+02  0.00000000000E+00 0.  1.
        -13    1    3    3    0    0 -0.13468108136E+02  0.40541603725E+02  0.36723432664E+01  0.42877706030E+02  0.00000000000E+00 0.  1.
         13    1    3    3    0    0  0.94265406785E+02  0.52004358119E+02  0.65178830854E+02  0.12585189777E+03  0.00000000000E+00 0. -1.
          2    1    1    2  501    0 -0.68132959438E+02 -0.56458972949E+02 -0.89659073987E+02  0.12597009699E+03  0.00000000000E+00 0. -1.
<scales pt_clust_5="13000.00000" pt_clust_6="13000.00000" pt_clust_7="13000.00000" pt_clust_8="13000.00000" pt_clust_9="88.48568"></scales>
<clustering>
<clus scale="   79.940">  5  6 -1 -1</clus>
<clus scale="   88.486">  2  9  1 -1</clus>
<clus scale="   92.931">  7  8 -1 -1</clus>
<clus scale="  124.337">  2  5  1 -1</clus>
<clus scale="   88.486">  2  5  1 -1</clus>
</clustering>
</event>
<event>
 9    1  0.5981539E-005  0.9232206E+02  0.7546771E-02  0.1303312E+00
         21   -1    0    0  501  502  0.00000000000E+00  0.00000000000E+00  0.92554263910E+02  0.92554263910E+02  0.00000000000E+00 0. -1.
          1   -1    0    0  502    0 -0.00000000000E+00 -0.00000000000E+00 -0.49641574397E+03  0.49641574397E+03  0.00000000000E+00 0. -1.
         23    2    1    2    0    0 -0.54585206148E+01  0.30894251218E+02 -0.28217001200E+03  0.29822818153E+03  0.91301053557E+02 0.  0.
        -24    2    1    2    0    0  0.65207369579E+01  0.70300658256E+01 -0.19312921842E+03  0.20985465614E+03  0.81536126113E+02 0.  0.
         13    1    4    4    0    0 -0.15156990396E+02  0.35025822038E+02 -0.14600631977E+03  0.15091185501E+03  0.00000000000E+00 0. -1.
        -14    1    4    4    0    0  0.21677727354E+02 -0.27995756212E+02 -0.47122898644E+02  0.58942801136E+02  0.00000000000E+00 0.  1.
        -13    1    3    3    0    0  0.34009700491E+02  0.27930940646E+02 -0.22121790768E+03  0.22555300896E+03  0.00000000000E+00 0. -1.
         13    1    3    3    0    0 -0.39468221106E+02  0.29633105719E+01 -0.60952104316E+02  0.72675172565E+02  0.00000000000E+00 0.  1.
          2    1    1    2  501    0 -0.10622163431E+01 -0.37924317044E+02  0.71437750363E+02  0.80887170205E+02  0.00000000000E+00 0. -1.
<scales pt_clust_5="13000.00000" pt_clust_6="13000.00000" pt_clust_7="13000.00000" pt_clust_8="13000.00000" pt_clust_9="37.93919"></scales>
<clustering>
<clus scale="   37.939">  1  9  2 -1</clus>
<clus scale="   81.536">  5  6 -1 -1</clus>
<clus scale="   82.678">  1  5  2 -1</clus>
<clus scale="   91.301">  7  8 -1 -1</clus>
<clus scale="   37.939">  1  5  2 -1</clus>
</clustering>
</event>
<event>
 9    1  0.5981539E-005  0.1906084E+03  0.7546771E-02  0.1159646E+00
          1   -1    0    0  502    0 -0.00000000000E+00  0.00000000000E+00  0.20715755358E+03  0.20715755358E+03  0.00000000000E+00 0. -1.
         21   -1    0    0  501  502  0.00000000000E+00 -0.00000000000E+00 -0.42908851214E+03  0.42908851214E+03  0.00000000000E+00 0. -1.
        -24    2    1    2    0    0  0.15634629563E+03  0.26811713718E+02  0.60941766150E+02  0.18907863204E+03  0.82908371615E+02 0.  0.
         23    2    1    2    0    0 -0.18281997329E+03  0.75769859547E+02 -0.11632482199E+03  0.24977939279E+03  0.98458451144E+02 0.  0.
         11    1    3    3    0    0  0.15214633036E+03  0.29592627353E+02  0.30181529858E+02  0.15790868938E+03  0.00000000000E+00 0. -1.
        -12    1    3    3    0    0  0.41999652664E+01 -0.27809136354E+01  0.30760236293E+02  0.31169942664E+02  0.00000000000E+00 0.  1.
        -13    1    4    4    0    0 -0.17710675423E+02  0.46491604330E+02 -0.46630549878E+02  0.68187575694E+02  0.00000000000E+00 0.  1.
         13    1    4    4    0    0 -0.16510929787E+03  0.29278255217E+02 -0.69694272113E+02  0.18159181710E+03  0.00000000000E+00 0. -1.
          2    1    1    2  501    0  0.26473677665E+02 -0.10258157326E+03 -0.16654790272E+03  0.19738804088E+03  0.00000000000E+00 0. -1.
<scales pt_clust_5="13000.00000" pt_clust_6="13000.00000" pt_clust_7="13000.00000" pt_clust_8="13000.00000" pt_clust_9="105.94260"></scales>
<clustering>
<clus scale="   82.908">  5  6 -1 -1</clus>
<clus scale="   98.458">  7  8 -1 -1</clus>
<clus scale="  105.943">  2  9  1 -1</clus>
<clus scale="  183.061">  1  5  2 -1</clus>
<clus scale="  105.943">  2  5  1 -1</clus>
</clustering>
</event>
<event>
 9    1  0.5981539E-005  0.1374698E+03  0.7546771E-02  0.1243475E+00
         21   -1    0    0  501  502  0.00000000000E+00  0.00000000000E+00  0.98744186342E+03  0.98744186342E+03  0.00000000000E+00 0.  1.
         -2   -1    0    0    0  501 -0.00000000000E+00 -0.00000000000E+00 -0.75888491409E+02  0.75888491409E+02  0.00000000000E+00 0.  1.
        -24    2    1    2    0    0  0.23543642589E+02 -0.27321497235E+01 -0.21963843929E+02  0.82200761698E+02  0.75582981121E+02 0.  0.
         23    2    1    2    0    0 -0.10266512841E+03 -0.58951335676E+02  0.25728115292E+03  0.29749206138E+03  0.91063419476E+02 0.  0.
         13    1    3    3    0    0  0.21975617010E+02 -0.19886572741E+02 -0.44726358037E+02  0.53654921690E+02  0.00000000000E+00 0. -1.
        -14    1    3    3    0    0  0.15680255794E+01  0.17154423017E+02  0.22762514108E+02  0.28545840008E+02  0.00000000000E+00 0.  1.
        -11    1    4    4    0    0 -0.70546215742E+01  0.21727631850E+02  0.56274858213E+02  0.60734811585E+02  0.00000000000E+00 0. -1.
         11    1    4    4    0    0 -0.95610506838E+02 -0.80678967526E+02  0.20100629470E+03  0.23675724979E+03  0.00000000000E+00 0.  1.
         -1    1    1    2    0  502  0.79121485823E+02  0.61683485399E+02  0.67623606302E+03  0.68363753175E+03  0.00000000000E+00 0.  1.
<scales pt_clust_5="13000.00000" pt_clust_6="13000.00000" pt_clust_7="13000.00000" pt_clust_8="13000.00000" pt_clust_9="102.98251"></scales>
<clustering>
<clus scale="   75.583">  5  6 -1 -1</clus>
<clus scale="   79.212">  2  5  1 -1</clus>
<clus scale="   91.063">  7  8 -1 -1</clus>
<clus scale="  102.983">  1  9  2 -1</clus>
<clus scale="  102.983">  1  5  2 -1</clus>
</clustering>
</event>
<event>
 9    1  0.5981539E-005  0.1172452E+03  0.7546771E-02  0.1249000E+00
          1   -1    0    0  502    0 -0.00000000000E+00  0.00000000000E+00  0.26308292096E+03  0.26308292096E+03  0.00000000000E+00 0. -1.
         21   -1    0    0  501  502  0.00000000000E+00 -0.00000000000E+00 -0.13975207811E+03  0.13975207811E+03  0.00000000000E+00 0. -1.
        -24    2    1    2    0    0  0.56172437905E+02  0.44008233567E+02  0.18164981723E+03  0.21305184061E+03  0.85453866439E+02 0.  0.
         23    2    1    2    0    0 -0.96960142045E+02 -0.37840395537E+02 -0.32138299956E+02  0.14092513201E+03  0.89408376717E+02 0.  0.
         11    1    3    3    0    0  0.35183265062E+02  0.47302849271E+02  0.18250320727E+03  0.19178853551E+03  0.00000000000E+00 0. -1.
        -12    1    3    3    0    0  0.20989172843E+02 -0.32946157042E+01 -0.85339004695E+00  0.21263305101E+02  0.00000000000E+00 0.  1.
        -11    1    4    4    0    0 -0.27329305662E+02 -0.58474399173E+02 -0.16865975142E+02  0.66712873001E+02  0.00000000000E+00 0.  1.
         11    1    4    4    0    0 -0.69630836383E+02  0.20634003636E+02 -0.15272324815E+02  0.74212259006E+02  0.00000000000E+00 0. -1.
          2    1    1    2  501    0  0.40787704140E+02 -0.61678380298E+01 -0.26180674420E+02  0.48858026444E+02  0.00000000000E+00 0. -1.
<scales pt_clust_5="13000.00000" pt_clust_6="13000.00000" pt_clust_7="13000.00000" pt_clust_8="13000.00000" pt_clust_9="41.25141"></scales>
<clustering>
<clus scale="   41.251">  2  9  1 -1</clus>
<clus scale="   85.454">  5  6 -1 -1</clus>
<clus scale="   89.408">  7  8 -1 -1</clus>
<clus scale="  114.258">  1  5  2 -1</clus>
<clus scale="   41.251">  2  5  1 -1</clus>
</clustering>
</event>
<event>
 9    1  0.5981539E-005  0.1278860E+03  0.7546771E-02  0.1234395E+00
         21   -1    0    0  501  502  0.00000000000E+00  0.00000000000E+00  0.11672123471E+03  0.11672123471E+03  0.00000000000E+00 0. -1.
          3   -1    0    0  502    0 -0.00000000000E+00 -0.00000000000E+00 -0.10617669010E+04  0.10617669010E+04  0.00000000000E+00 0. -1.
         23    2    1    2    0    0 -0.96659667634E+02  0.20239510924E+02 -0.25774625032E+03  0.29081205423E+03  0.91573971098E+02 0.  0.
        -24    2    1    2    0    0  0.42922610269E+02  0.59164712865E+02  0.67873547731E+02  0.12644096196E+03  0.77702539599E+02 0.  0.
         13    1    4    4    0    0  0.64250380087E+02  0.40033942608E+02  0.36793325474E+02  0.84169927536E+02  0.00000000000E+00 0. -1.
        -14    1    4    4    0    0 -0.21327769818E+02  0.19130770258E+02  0.31080222257E+02  0.42271034428E+02  0.00000000000E+00 0.  1.
        -13    1    3    3    0    0 -0.11121837695E+03  0.34570613737E+01 -0.22780409496E+03  0.25352748239E+03  0.00000000000E+00 0.  1.
         13    1    3    3    0    0  0.14558709319E+02  0.16782449551E+02 -0.29942155364E+02  0.37284571847E+02  0.00000000000E+00 0. -1.
          4    1    1    2  501    0  0.53737057365E+02 -0.79404223790E+02 -0.75517296370E+03  0.76123511953E+03  0.00000000000E+00 0. -1.
<scales pt_clust_5="13000.00000" pt_clust_6="13000.00000" pt_clust_7="13000.00000" pt_clust_8="13000.00000" pt_clust_9="95.87863"></scales>
<clustering>
<clus scale="   77.703">  5  6 -1 -1</clus>
<clus scale="   91.574">  7  8 -1 -1</clus>
<clus scale="   95.879">  1  9  2 -1</clus>
<clus scale="  118.350">  1  5  2 -1</clus>
<clus scale="   95.879">  1  5  2 -1</clus>
</clustering>
</event>
<event>
 9    1  0.5981539E-005  0.1046404E+03  0.7546771E-02  0.1275936E+00
         -2   -1    0    0    0  501 -0.00000000000E+00  0.00000000000E+00  0.13812007182E+03  0.13812007182E+03  0.00000000000E+00 0.  1.
         21   -1    0    0  501  502  0.00000000000E+00 -0.00000000000E+00 -0.15714639831E+03  0.15714639831E+03  0.00000000000E+00 0.  1.
         23    2    1    2    0    0  0.65015554284E+02  0.58305985983E+01  0.40049730614E+02  0.11816998188E+03  0.89995252743E+02 0.  0.
        -24    2    1    2    0    0 -0.23822808792E+02  0.37440065166E+02 -0.72766750847E+02  0.11580515348E+03  0.78399928856E+02 0.  0.
         13    1    4    4    0    0 -0.38369103558E+02  0.31230424917E+02 -0.92258465942E+01  0.50325379221E+02  0.00000000000E+00 0. -1.
        -14    1    4    4    0    0  0.14546294766E+02  0.62096402497E+01 -0.63540904253E+02  0.65479774257E+02  0.00000000000E+00 0.  1.
        -11    1    3    3    0    0  0.67319081093E+02 -0.22097922005E+02  0.51814068420E+02  0.87777414649E+02  0.00000000000E+00 0. -1.
         11    1    3    3    0    0 -0.23035268097E+01  0.27928520603E+02 -0.11764337807E+02  0.30392567231E+02  0.00000000000E+00 0.  1.
         -1    1    1    2    0  502 -0.41192745491E+02 -0.43270663765E+02  0.13690693741E+02  0.61291334778E+02  0.00000000000E+00 0.  1.
<scales pt_clust_5="13000.00000" pt_clust_6="13000.00000" pt_clust_7="13000.00000" pt_clust_8="13000.00000" pt_clust_9="59.74275"></scales>
<clustering>
<clus scale="   59.743">  2  9  1 -1</clus>
<clus scale="   78.400">  5  6 -1 -1</clus>
<clus scale="   89.995">  7  8 -1 -1</clus>
<clus scale="   94.853">  2  5  1 -1</clus>
<clus scale="   59.743">  2  5  1 -1</clus>
</clustering>
</event>
<event>
 9    1  0.5981539E-005  0.1151459E+03  0.7546771E-02  0.1253595E+00
          1   -1    0    0  502    0 -0.00000000000E+00  0.00000000000E+00  0.66162217703E+03  0.66162217703E+03  0.00000000000E+00 0. -1.
         21   -1    0    0  501  502  0.00000000000E+00 -0.00000000000E+00 -0.80432258226E+02  0.80432258226E+02  0.00000000000E+00 0. -1.
         23    2    1    2    0    0 -0.18451787073E+02 -0.78994330094E+02  0.49508646587E+03  0.50995438308E+03  0.91445565763E+02 0.  0.
        -24    2    1    2    0    0 -0.45607138658E+02  0.44309485859E+02  0.11246889972E+03  0.15462927595E+03  0.84956565032E+02 0.  0.
         13    1    4    4    0    0  0.47408323858E+01  0.54534836851E+02  0.57631546313E+02  0.79485338601E+02  0.00000000000E+00 0. -1.
        -14    1    4    4    0    0 -0.50347971044E+02 -0.10225350992E+02  0.54837353410E+02  0.75143937348E+02  0.00000000000E+00 0.  1.
        -13    1    3    3    0    0 -0.87009629607E+00 -0.96937868338E+02  0.40389528329E+03  0.41536623267E+03  0.00000000000E+00 0. -1.
         13    1    3    3    0    0 -0.17581690777E+02  0.17943538245E+02  0.91191182588E+02  0.94588150405E+02  0.00000000000E+00 0.  1.
          2    1    1    2  501    0  0.64058925731E+02  0.34684844234E+02 -0.26365446789E+02  0.77470776231E+02  0.00000000000E+00 0. -1.
<scales pt_clust_5="13000.00000" pt_clust_6="13000.00000" pt_clust_7="13000.00000" pt_clust_8="13000.00000" pt_clust_9="72.84631"></scales>
<clustering>
<clus scale="   72.846">  2  9  1 -1</clus>
<clus scale="   84.957">  5  6 -1 -1</clus>
<clus scale="   91.446">  7  8 -1 -1</clus>
<clus scale="  110.063">  2  5  1 -1</clus>
<clus scale="   72.846">  2  5  1 -1</clus>
</clustering>
</event>
<event>
 9    1  0.5981539E-005  0.1118784E+03  0.7546771E-02  0.1261320E+00
          1   -1    0    0  502    0 -0.00000000000E+00  0.00000000000E+00  0.48907062988E+03  0.48907062988E+03  0.00000000000E+00 0. -1.
         21   -1    0    0  501  502  0.00000000000E+00 -0.00000000000E+00 -0.56995403009E+02  0.56995403009E+02  0.00000000000E+00 0. -1.
        -24    2    1    2    0    0  0.56073307156E+01  0.48442961589E+02  0.15924957344E+03  0.18493544048E+03  0.80389848988E+02 0.  0.
         23    2    1    2    0    0  0.70109303873E+02 -0.92985565706E+02  0.15781334854E+03  0.21640712295E+03  0.91462341798E+02 0.  0.
         13    1    3    3    0    0  0.29029949650E+02  0.57782512937E+02  0.86915718174E+02  0.10833235363E+03  0.00000000000E+00 0. -1.
        -14    1    3    3    0    0 -0.23422618935E+02 -0.93395513480E+01  0.72333855267E+02  0.76603086850E+02  0.00000000000E+00 0.  1.
        -11    1    4    4    0    0  0.42804644261E+02 -0.91829727622E+02  0.15957479976E+03  0.18902130347E+03  0.00000000000E+00 0. -1.
         11    1    4    4    0    0  0.27304659611E+02 -0.11558380843E+01 -0.17614512265E+01  0.27385819480E+02  0.00000000000E+00 0.  1.
          2    1    1    2  501    0 -0.75716634588E+02  0.44542604117E+02  0.11501230489E+03  0.14472346946E+03  0.00000000000E+00 0. -1.
<scales pt_clust_5="13000.00000" pt_clust_6="13000.00000" pt_clust_7="13000.00000" pt_clust_8="13000.00000" pt_clust_9="87.84680"></scales>
<clustering>
<clus scale="   80.390">  5  6 -1 -1</clus>
<clus scale="   87.847">  2  9  1 -1</clus>
<clus scale="   91.462">  7  8 -1 -1</clus>
<clus scale="  103.024">  1  5  2 -1</clus>
<clus scale="   87.847">  2  5  1 -1</clus>
</clustering>
</event>
<event>
 9    1  0.5981539E-005  0.1218219E+03  0.7546771E-02  0.1240636E+00
          1   -1    0    0  502    0 -0.00000000000E+00  0.00000000000E+00  0.65687833896E+03  0.65687833896E+03  0.00000000000E+00 0. -1.
         21   -1    0    0  501  502  0.00000000000E+00 -0.00000000000E+00 -0.36869207604E+02  0.36869207604E+02  0.00000000000E+00 0. -1.
        -24    2    1    2    0    0 -0.60243916875E+02 -0.30276503702E+02  0.25862967710E+03  0.28097025633E+03  0.86654364401E+02 0.  0.
         23    2    1    2    0    0  0.11101860994E+03  0.20691874773E+02  0.30601235386E+03  0.33704453395E+03  0.84865609744E+02 0.  0.
         13    1    3    3    0    0 -0.49818168427E+02 -0.52113406979E+02  0.11805441077E+03  0.13832751351E+03  0.00000000000E+00 0. -1.
        -14    1    3    3    0    0 -0.10425748448E+02  0.21836903276E+02  0.14057526633E+03  0.14264274282E+03  0.00000000000E+00 0.  1.
        -11    1    4    4    0    0  0.64903113165E+02  0.31734456473E+02  0.26394849987E+03  0.27365726815E+03  0.00000000000E+00 0. -1.
         11    1    4    4    0    0  0.46115496775E+02 -0.11042581700E+02  0.42063853981E+02  0.63387265796E+02  0.00000000000E+00 0.  1.
          2    1    1    2  501    0 -0.50774693065E+02  0.95846289292E+01  0.55367100396E+02  0.75732756280E+02  0.00000000000E+00 0. -1.
<scales pt_clust_5="13000.00000" pt_clust_6="13000.00000" pt_clust_7="13000.00000" pt_clust_8="13000.00000" pt_clust_9="51.67141"></scales>
<clustering>
<clus scale="   51.671">  2  9  1 -1</clus>
<clus scale="   84.866">  7  8 -1 -1</clus>
<clus scale="   86.654">  5  6 -1 -1</clus>
<clus scale="  120.556">  2  7  1 -1</clus>
<clus scale="   51.671">  2  5  1 -1</clus>
</clustering>
</event>
<event>
 9    1  0.5981539E-005  0.1863780E+03  0.7546771E-02  0.1177989E+00
          1   -1    0    0  502    0 -0.00000000000E+00  0.00000000000E+00  0.48582538652E+03  0.48582538652E+03  0.00000000000E+00 0. -1.
         21   -1    0    0  501  502  0.00000000000E+00 -0.00000000000E+00 -0.18463621196E+03  0.18463621196E+03  0.00000000000E+00 0. -1.
         23    2    1    2    0    0 -0.77796983744E+02 -0.44499190942E+02  0.22910383773E+03  0.26272693348E+03  0.92218894148E+02 0.  0.
        -24    2    1    2    0    0  0.83188064677E+02 -0.13194253345E+03  0.13274563393E+03  0.22107878510E+03  0.83218625651E+02 0.  0.
         11    1    4    4    0    0  0.33555921002E+02 -0.11953204247E+03  0.80564592753E+02  0.14800190072E+03  0.00000000000E+00 0. -1.
        -12    1    4    4    0    0  0.49632143675E+02 -0.12410490979E+02  0.52181041178E+02  0.73076884379E+02  0.00000000000E+00 0.  1.
        -13    1    3    3    0    0 -0.52750654160E+02  0.41368639103E+01  0.41314729937E+02  0.67131602596E+02  0.00000000000E+00 0.  1.
         13    1    3    3    0    0 -0.25046329584E+02 -0.48636054852E+02  0.18778910779E+03  0.19559533088E+03  0.00000000000E+00 0. -1.
          2    1    1    2  501    0 -0.53910809330E+01  0.17644172439E+03 -0.60660297093E+02  0.18665587990E+03  0.00000000000E+00 0. -1.
<scales pt_clust_5="13000.00000" pt_clust_6="13000.00000" pt_clust_7="13000.00000" pt_clust_8="13000.00000" pt_clust_9="166.76760"></scales>
<clustering>
<clus scale="   83.219">  5  6 -1 -1</clus>
<clus scale="   92.219">  7  8 -1 -1</clus>
<clus scale="  128.596">  1  7  2 -1</clus>
<clus scale="  166.768">  2  9  1 -1</clus>
<clus scale="  166.768">  2  5  1 -1</clus>
</clustering>
</event>
<event>
 9    1  0.5981539E-005  0.1179187E+03  0.7546771E-02  0.1250183E+00
         21   -1    0    0  501  502  0.00000000000E+00  0.00000000000E+00  0.36328983876E+03  0.36328983876E+03  0.00000000000E+00 0. -1.
         -4   -1    0    0    0  501 -0.00000000000E+00 -0.00000000000E+00 -0.58899685736E+02  0.58899685736E+02  0.00000000000E+00 0.  1.
         23    2    1    2    0    0 -0.66059126361E+02  0.47246687375E+02  0.47901947720E+02  0.13154712681E+03  0.91727816570E+02 0.  0.
        -24    2    1    2    0    0  0.48179783317E+02 -0.26085114025E+02  0.23818724129E+03  0.25743986197E+03  0.80872714334E+02 0.  0.
         13    1    4    4    0    0  0.62584857359E+02 -0.37130364109E+02  0.22008661453E+03  0.23180519020E+03  0.00000000000E+00 0. -1.
        -14    1    4    4    0    0 -0.14405074042E+02  0.11045250084E+02  0.18100626762E+02  0.25634671770E+02  0.00000000000E+00 0.  1.
        -13    1    3    3    0    0 -0.30564729456E+02  0.68115640157E+02  0.95308312862E+01  0.75264731885E+02  0.00000000000E+00 0.  1.
         13    1    3    3    0    0 -0.35494396905E+02 -0.20868952783E+02  0.38371116434E+02  0.56282394923E+02  0.00000000000E+00 0. -1.
         -3    1    1    2    0  502  0.17879343044E+02 -0.21161573350E+02  0.18300964017E+02  0.33202535720E+02  0.00000000000E+00 0.  1.
<scales pt_clust_5="13000.00000" pt_clust_6="13000.00000" pt_clust_7="13000.00000" pt_clust_8="13000.00000" pt_clust_9="27.70350"></scales>
<clustering>
<clus scale="   27.703">  1  9  2 -1</clus>
<clus scale="   80.873">  5  6 -1 -1</clus>
<clus scale="   91.728">  7  8 -1 -1</clus>
<clus scale="  109.687">  1  5  2 -1</clus>
<clus scale="   27.703">  1  5  2 -1</clus>
</clustering>
</event>
<event>
 9    1  0.5981539E-005  0.3038557E+03  0.7546771E-02  0.1083329E+00
          1   -1    0    0  502    0 -0.00000000000E+00  0.00000000000E+00  0.11498779261E+03  0.11498779261E+03  0.00000000000E+00 0. -1.
         21   -1    0    0  501  502  0.00000000000E+00 -0.00000000000E+00 -0.93847104152E+03  0.93847104152E+03  0.00000000000E+00 0. -1.
        -24    2    1    2    0    0 -0.15624641206E+03  0.97160472948E+02 -0.84421764881E+02  0.21893290585E+03  0.83375560520E+02 0.  0.
         23    2    1    2    0    0 -0.44614282801E+01  0.42545705392E+02 -0.50030898285E+02  0.11334081036E+03  0.92265958622E+02 0.  0.
         13    1    3    3    0    0 -0.11286019938E+03  0.36244714909E+02 -0.81945914281E+02  0.14410495075E+03  0.00000000000E+00 0. -1.
        -14    1    3    3    0    0 -0.43386212686E+02  0.60915758039E+02 -0.24758505994E+01  0.74827955103E+02  0.00000000000E+00 0.  1.
        -11    1    4    4    0    0  0.18344523907E+02 -0.24510919003E+02 -0.18844607828E+02  0.35950326173E+02  0.00000000000E+00 0.  1.
         11    1    4    4    0    0 -0.22805952187E+02  0.67056624395E+02 -0.31186290457E+02  0.77390484188E+02  0.00000000000E+00 0. -1.
          2    1    1    2  501    0  0.16070784034E+03 -0.13970617834E+03 -0.68903058575E+03  0.72118511792E+03  0.00000000000E+00 0. -1.
<scales pt_clust_5="13000.00000" pt_clust_6="13000.00000" pt_clust_7="13000.00000" pt_clust_8="13000.00000" pt_clust_9="212.94325"></scales>
<clustering>
<clus scale="   83.376">  5  6 -1 -1</clus>
<clus scale="   92.266">  7  8 -1 -1</clus>
<clus scale="  101.647">  5  7 -1 -1</clus>
<clus scale="  212.943">  2  9  1 -1</clus>
<clus scale="  212.943">  2  5  1 -1</clus>
</clustering>
</event>
<event>
 9    1  0.5981539E-005  0.1022091E+03  0.7546771E-02  0.1285708E+00
         21   -1    0    0  501  502  0.00000000000E+00  0.00000000000E+00  0.64330587185E+02  0.64330587185E+02  0.00000000000E+00 0. -1.
         -2   -1    0    0    0  501 -0.00000000000E+00 -0.00000000000E+00 -0.23512449378E+03  0.23512449378E+03  0.00000000000E+00 0.  1.
        -24    2    1    2    0    0  0.59551523582E+01 -0.21696226115E+02 -0.14206183708E+03  0.16468276853E+03  0.80203856686E+02 0.  0.
         23    2    1    2    0    0 -0.20561641745E+02  0.39258047659E+02 -0.18438221460E+02  0.10971776363E+03  0.98661260016E+02 0.  0.
         11    1    3    3    0    0  0.30467804200E+02  0.16307535859E+02 -0.85804855851E+02  0.92502411353E+02  0.00000000000E+00 0. -1.
        -12    1    3    3    0    0 -0.24512651841E+02 -0.38003761974E+02 -0.56256981232E+02  0.72180357175E+02  0.00000000000E+00 0.  1.
        -11    1    4    4    0    0  0.21572305673E+02 -0.16841028639E+02 -0.27711946058E+02  0.38947869929E+02  0.00000000000E+00 0.  1.
         11    1    4    4    0    0 -0.42133947418E+02  0.56099076298E+02  0.92737245978E+01  0.70769893700E+02  0.00000000000E+00 0. -1.
         -1    1    1    2    0  502  0.14606489387E+02 -0.17561821544E+02 -0.10293848046E+02  0.25054548803E+02  0.00000000000E+00 0.  1.
<scales pt_clust_5="13000.00000" pt_clust_6="13000.00000" pt_clust_7="13000.00000" pt_clust_8="13000.00000" pt_clust_9="22.84222"></scales>
<clustering>
<clus scale="   22.842">  1  9  2 -1</clus>
<clus scale="   80.204">  5  6 -1 -1</clus>
<clus scale="   84.530">  2  5  1 -1</clus>
<clus scale="   98.661">  7  8 -1 -1</clus>
<clus scale="   22.842">  1  5  2 -1</clus>
</clustering>
</event>
<event>
 9    1  0.5981539E-005  0.1120078E+03  0.7546771E-02  0.1261729E+00
          1   -1    0    0  502    0 -0.00000000000E+00  0.00000000000E+00  0.55893048781E+03  0.55893048781E+03  0.00000000000E+00 0. -1.
         21   -1    0    0  501  502  0.00000000000E+00 -0.00000000000E+00 -0.48812262814E+02  0.48812262814E+02  0.00000000000E+00 0. -1.
        -24    2    1    2    0    0  0.61381413126E+02  0.49080201580E+02  0.18884790519E+03  0.21976217169E+03  0.80345110271E+02 0.  0.
         23    2    1    2    0    0 -0.38503314551E+02  0.12573700908E+01  0.52224460335E+02  0.11331177289E+03  0.92887444836E+02 0.  0.
         11    1    3    3    0    0  0.60942065084E+02  0.68488108527E+02  0.16720611733E+03  0.19068938612E+03  0.00000000000E+00 0. -1.
        -12    1    3    3    0    0  0.43934804229E+00 -0.19407906947E+02  0.21641787866E+02  0.29072785570E+02  0.00000000000E+00 0.  1.
        -13    1    4    4    0    0 -0.13940765886E+02  0.30776748048E+02  0.64652673269E+02  0.72948758282E+02  0.00000000000E+00 0.  1.
         13    1    4    4    0    0 -0.24562548665E+02 -0.29519377958E+02 -0.12428212934E+02  0.40363014613E+02  0.00000000000E+00 0. -1.
          2    1    1    2  501    0 -0.22878098575E+02 -0.50337571671E+02  0.26904585946E+03  0.27466880604E+03  0.00000000000E+00 0. -1.
<scales pt_clust_5="13000.00000" pt_clust_6="13000.00000" pt_clust_7="13000.00000" pt_clust_8="13000.00000" pt_clust_9="55.29269"></scales>
<clustering>
<clus scale="   55.293">  2  9  1 -1</clus>
<clus scale="   80.345">  5  6 -1 -1</clus>
<clus scale="   92.887">  7  8 -1 -1</clus>
<clus scale="  101.848">  1  5  2 -1</clus>
<clus scale="   55.293">  2  5  1 -1</clus>
</clustering>
</event>
<event>
 9    1  0.5981539E-005  0.1023120E+03  0.7546771E-02  0.1276000E+00
          1   -1    0    0  502    0 -0.00000000000E+00  0.00000000000E+00  0.13824266838E+03  0.13824266838E+03  0.00000000000E+00 0. -1.
         21   -1    0    0  501  502  0.00000000000E+00 -0.00000000000E+00 -0.22948493416E+03  0.22948493416E+03  0.00000000000E+00 0. -1.
        -24    2    1    2    0    0  0.53772585063E+02  0.44626781343E+02  0.17975871276E+02  0.10724771094E+03  0.79346701488E+02 0.  0.
         23    2    1    2    0    0  0.25125268258E+01 -0.55645993839E+02 -0.15752406308E+03  0.18549389721E+03  0.80569014103E+02 0.  0.
         13    1    3    3    0    0  0.66835582997E+02  0.50861206506E+02 -0.23193916263E+00  0.83987566208E+02  0.00000000000E+00 0. -1.
        -14    1    3    3    0    0 -0.13062997934E+02 -0.62344251629E+01  0.18207810438E+02  0.23260144735E+02  0.00000000000E+00 0.  1.
        -11    1    4    4    0    0 -0.56783451505E+01 -0.19749791147E+02  0.30301260504E+01  0.20772085063E+02  0.00000000000E+00 0.  1.
         11    1    4    4    0    0  0.81908719763E+01 -0.35896202692E+02 -0.16055418913E+03  0.16472181215E+03  0.00000000000E+00 0. -1.
          2    1    1    2  501    0 -0.56285111889E+02  0.11019212496E+02  0.48305926018E+02  0.74985994378E+02  0.00000000000E+00 0. -1.
<scales pt_clust_5="13000.00000" pt_clust_6="13000.00000" pt_clust_7="13000.00000" pt_clust_8="13000.00000" pt_clust_9="57.35364"></scales>
<clustering>
<clus scale="   57.354">  2  9  1 -1</clus>
<clus scale="   79.347">  5  6 -1 -1</clus>
<clus scale="   80.569">  7  8 -1 -1</clus>
<clus scale="  101.352">  1  5  2 -1</clus>
<clus scale="   57.354">  2  5  1 -1</clus>
</clustering>
</event>
<event>
 9    1  0.5981539E-005  0.1779089E+03  0.7546771E-02  0.1193498E+00
          1   -1    0    0  502    0 -0.00000000000E+00  0.00000000000E+00  0.29204691184E+03  0.29204691184E+03  0.00000000000E+00 0. -1.
         21   -1    0    0  501  502  0.00000000000E+00 -0.00000000000E+00 -0.17346727180E+03  0.17346727180E+03  0.00000000000E+00 0. -1.
         23    2    1    2    0    0 -0.36641847647E+02  0.32660844317E+02  0.36085734749E+02  0.11073472790E+03  0.92469692121E+02 0.  0.
        -24    2    1    2    0    0 -0.13965367185E+03 -0.44210129875E+02  0.24842739628E+02  0.16893771366E+03  0.80405881249E+02 0.  0.
         11    1    4    4    0    0 -0.12682104252E+03 -0.37679415340E+02  0.48777611409E+02  0.14100556918E+03  0.00000000000E+00 0. -1.
        -12    1    4    4    0    0 -0.12832629334E+02 -0.65307145352E+01 -0.23934871781E+02  0.27932144478E+02  0.00000000000E+00 0.  1.
        -11    1    3    3    0    0  0.25230335254E+02  0.64380821966E+01 -0.11426083897E+02  0.28435437620E+02  0.00000000000E+00 0.  1.
         11    1    3    3    0    0 -0.61872182900E+02  0.26222762121E+02  0.47511818646E+02  0.82299290283E+02  0.00000000000E+00 0. -1.
          2    1    1    2  501    0  0.17629551950E+03  0.11549285558E+02  0.57651165665E+02  0.18584174207E+03  0.00000000000E+00 0. -1.
<scales pt_clust_5="13000.00000" pt_clust_6="13000.00000" pt_clust_7="13000.00000" pt_clust_8="13000.00000" pt_clust_9="158.70257"></scales>
<clustering>
<clus scale="   80.406">  5  6 -1 -1</clus>
<clus scale="   92.470">  7  8 -1 -1</clus>
<clus scale="  104.690">  1  7  2 -1</clus>
<clus scale="  158.703">  2  9  1 -1</clus>
<clus scale="  158.703">  2  5  1 -1</clus>
</clustering>
</event>
<event>
 9    1  0.5981539E-005  0.9639677E+02  0.7546771E-02  0.1294516E+00
          1   -1    0    0  502    0 -0.00000000000E+00  0.00000000000E+00  0.91930935343E+03  0.91930935343E+03  0.00000000000E+00 0. -1.
         21   -1    0    0  501  502  0.00000000000E+00 -0.00000000000E+00 -0.17110632108E+02  0.17110632108E+02  0.00000000000E+00 0. -1.
        -24    2    1    2    0    0 -0.42867882637E+02 -0.15039570115E+02  0.43809847733E+03  0.44773765794E+03  0.80466704108E+02 0.  0.
         23    2    1    2    0    0 -0.13048975079E+02  0.23589643677E+02  0.27073507825E+03  0.28721300969E+03  0.92016755547E+02 0.  0.
         11    1    3    3    0    0 -0.49453002510E+02 -0.40681250179E+02  0.34748391766E+03  0.35333502035E+03  0.00000000000E+00 0. -1.
        -12    1    3    3    0    0  0.65851198729E+01  0.25641680064E+02  0.90614559667E+02  0.94402637590E+02  0.00000000000E+00 0.  1.
        -11    1    4    4    0    0  0.30737060103E+02 -0.14980998973E+02  0.66092455272E+02  0.74413774517E+02  0.00000000000E+00 0.  1.
         11    1    4    4    0    0 -0.43786035182E+02  0.38570642650E+02  0.20464262298E+03  0.21279923517E+03  0.00000000000E+00 0. -1.
          2    1    1    2  501    0  0.55916857716E+02 -0.85500735618E+01  0.19336516575E+03  0.20146931791E+03  0.00000000000E+00 0. -1.
<scales pt_clust_5="13000.00000" pt_clust_6="13000.00000" pt_clust_7="13000.00000" pt_clust_8="13000.00000" pt_clust_9="56.56676"></scales>
<clustering>
<clus scale="   56.567">  2  9  1 -1</clus>
<clus scale="   80.467">  5  6 -1 -1</clus>
<clus scale="   85.441">  1  5  2 -1</clus>
<clus scale="   92.017">  7  8 -1 -1</clus>
<clus scale="   56.567">  2  5  1 -1</clus>
</clustering>
</event>
<event>
 9    1  0.5981539E-005  0.1887086E+03  0.7546771E-02  0.1160839E+00
         21   -1    0    0  501  502  0.00000000000E+00  0.00000000000E+00  0.10874818641E+03  0.10874818641E+03  0.00000000000E+00 0. -1.
          1   -1    0    0  502    0 -0.00000000000E+00 -0.00000000000E+00 -0.72666563146E+03  0.72666563146E+03  0.00000000000E+00 0. -1.
         23    2    1    2    0    0 -0.15627487133E+03 -0.94203783888E+02 -0.57704117454E+03  0.61241514013E+03  0.93699511376E+02 0.  0.
        -24    2    1    2    0    0  0.95314889458E+02  0.62618249395E+02 -0.57860620082E+02  0.15227220810E+03  0.82661966430E+02 0.  0.
         11    1    4    4    0    0  0.51243513649E+02 -0.93783025733E+01 -0.40754274011E+02  0.66141976841E+02  0.00000000000E+00 0. -1.
        -12    1    4    4    0    0  0.44071375810E+02  0.71996551968E+02 -0.17106346071E+02  0.86130231260E+02  0.00000000000E+00 0.  1.
        -11    1    3    3    0    0 -0.20976156406E+02 -0.38322670720E+02 -0.25433332614E+03  0.25805826283E+03  0.00000000000E+00 0.  1.
         11    1    3    3    0    0 -0.13529871492E+03 -0.55881113168E+02 -0.32270784840E+03  0.35435687730E+03  0.00000000000E+00 0. -1.
          2    1    1    2  501    0  0.60959981868E+02  0.31585534493E+02  0.16984349568E+02  0.70726469648E+02  0.00000000000E+00 0. -1.
<scales pt_clust_5="13000.00000" pt_clust_6="13000.00000" pt_clust_7="13000.00000" pt_clust_8="13000.00000" pt_clust_9="68.65687"></scales>
<clustering>
<clus scale="   68.657">  1  9  2 -1</clus>
<clus scale="   82.662">  5  6 -1 -1</clus>
<clus scale="   93.700">  7  8 -1 -1</clus>
<clus scale="  183.478">  1  5  2 -1</clus>
<clus scale="   68.657">  1  5  2 -1</clus>
</clustering>
</event>
<event>
 9    1  0.5981539E-005  0.2339548E+03  0.7546771E-02  0.1137245E+00
         21   -1    0    0  501  502  0.00000000000E+00  0.00000000000E+00  0.10303134294E+04  0.10303134294E+04  0.00000000000E+00 0. -1.
          3   -1    0    0  502    0 -0.00000000000E+00 -0.00000000000E+00 -0.26401172600E+03  0.26401172600E+03  0.00000000000E+00 0. -1.
        -24    2    1    2    0    0  0.14248098204E+03 -0.39769430585E+02 -0.16066391974E+03  0.23287345684E+03  0.80837577554E+02 0.  0.
         23    2    1    2    0    0 -0.22476898879E+02 -0.16880998555E+03  0.14342156246E+03  0.24178856785E+03  0.94286503582E+02 0.  0.
         11    1    3    3    0    0  0.14975307587E+03 -0.41718478859E+02 -0.16274661955E+03  0.22506194122E+03  0.00000000000E+00 0. -1.
        -12    1    3    3    0    0 -0.72720938279E+01  0.19490482743E+01  0.20826998148E+01  0.78115156235E+01  0.00000000000E+00 0.  1.
        -11    1    4    4    0    0 -0.45811879925E+02 -0.60647756932E+02  0.93231162365E+02  0.12028685880E+03  0.00000000000E+00 0.  1.
         11    1    4    4    0    0  0.23334981046E+02 -0.10816222862E+03  0.50190400095E+02  0.12150170905E+03  0.00000000000E+00 0. -1.
          4    1    1    2  501    0 -0.12000408316E+03  0.20857941614E+03  0.78354406069E+03  0.81966313072E+03  0.00000000000E+00 0. -1.
<scales pt_clust_5="13000.00000" pt_clust_6="13000.00000" pt_clust_7="13000.00000" pt_clust_8="13000.00000" pt_clust_9="214.11419"></scales>
<clustering>
<clus scale="   80.838">  5  6 -1 -1</clus>
<clus scale="   94.287">  7  8 -1 -1</clus>
<clus scale="  168.574">  2  5  1 -1</clus>
<clus scale="  214.114">  1  9  2 -1</clus>
<clus scale="  214.114">  1  5  2 -1</clus>
</clustering>
</event>
<event>
 9    1  0.5981539E-005  0.1945940E+03  0.7546771E-02  0.1155323E+00
         21   -1    0    0  501  502  0.00000000000E+00  0.00000000000E+00  0.54927061898E+02  0.54927061898E+02  0.00000000000E+00 0. -1.
          1   -1    0    0  502    0 -0.00000000000E+00 -0.00000000000E+00 -0.90648392659E+03  0.90648392659E+03  0.00000000000E+00 0. -1.
        -24    2    1    2    0    0 -0.14572257356E+02  0.16692680442E+03 -0.37556830103E+03  0.41926428897E+03  0.81572584513E+02 0.  0.
         23    2    1    2    0    0  0.67434966128E+02 -0.16756640527E+03 -0.41326366190E+03  0.46011445971E+03  0.91063093243E+02 0.  0.
         13    1    3    3    0    0 -0.33911818397E+02  0.90688470663E+02 -0.27528927898E+03  0.29181946005E+03  0.00000000000E+00 0. -1.
        -14    1    3    3    0    0  0.19339561040E+02  0.76238333762E+02 -0.10027902205E+03  0.12744482892E+03  0.00000000000E+00 0.  1.
        -11    1    4    4    0    0  0.37183999179E+02 -0.12298142985E+03 -0.36787507413E+03  0.38966543605E+03  0.00000000000E+00 0.  1.
         11    1    4    4    0    0  0.30250966950E+02 -0.44584975422E+02 -0.45388587768E+02  0.70449023658E+02  0.00000000000E+00 0. -1.
          2    1    1    2  501    0 -0.52862708772E+02  0.63960084699E+00 -0.62724901760E+02  0.82032239813E+02  0.00000000000E+00 0. -1.
<scales pt_clust_5="13000.00000" pt_clust_6="13000.00000" pt_clust_7="13000.00000" pt_clust_8="13000.00000" pt_clust_9="52.86658"></scales>
<clustering>
<clus scale="   52.867">  1  9  2 -1</clus>
<clus scale="   81.573">  5  6 -1 -1</clus>
<clus scale="   91.063">  7  8 -1 -1</clus>
<clus scale="  190.338">  2  5  1 -1</clus>
<clus scale="   52.867">  1  5  2 -1</clus>
</clustering>
</event>
<event>
 9    1  0.5981539E-005  0.1515557E+03  0.7546771E-02  0.1198971E+00
         21   -1    0    0  501  502  0.00000000000E+00  0.00000000000E+00  0.69958067196E+03  0.69958067196E+03  0.00000000000E+00 0. -1.
         -2   -1    0    0    0  501 -0.00000000000E+00 -0.00000000000E+00 -0.25169436852E+03  0.25169436852E+03  0.00000000000E+00 0.  1.
        -24    2    1    2    0    0 -0.96767763302E+02  0.62094057612E+02 -0.19074233951E+03  0.24154468655E+03  0.93496114987E+02 0.  0.
         23    2    1    2    0    0  0.14796787740E+03 -0.71913377483E+02  0.22721375745E+03  0.29502554477E+03  0.91367137925E+02 0.  0.
         13    1    3    3    0    0 -0.11517795206E+03  0.59000692806E+02 -0.16343144959E+03  0.20846314088E+03  0.00000000000E+00 0. -1.
        -14    1    3    3    0    0  0.18410188758E+02  0.30933648057E+01 -0.27310889920E+02  0.33081545673E+02  0.00000000000E+00 0.  1.
        -13    1    4    4    0    0  0.12865720666E+03 -0.78303318904E+02  0.22955224553E+03  0.27455112458E+03  0.00000000000E+00 0. -1.
         13    1    4    4    0    0  0.19310670742E+02  0.63899414209E+01 -0.23384880878E+01  0.20474420197E+02  0.00000000000E+00 0.  1.
         -1    1    1    2    0  502 -0.51200114097E+02  0.98193198709E+01  0.41141488550E+03  0.41470480915E+03  0.00000000000E+00 0.  1.
<scales pt_clust_5="13000.00000" pt_clust_6="13000.00000" pt_clust_7="13000.00000" pt_clust_8="13000.00000" pt_clust_9="52.13320"></scales>
<clustering>
<clus scale="   52.133">  1  9  2 -1</clus>
<clus scale="   91.367">  7  8 -1 -1</clus>
<clus scale="   93.496">  5  6 -1 -1</clus>
<clus scale="  150.252">  1  7  2 -1</clus>
<clus scale="   52.133">  1  5  2 -1</clus>
</clustering>
</event>
<event>
 9    1  0.5981539E-005  0.1464101E+03  0.7546771E-02  0.1222315E+00
         -2   -1    0    0    0  501 -0.00000000000E+00  0.00000000000E+00  0.16412757144E+03  0.16412757144E+03  0.00000000000E+00 0.  1.
         21   -1    0    0  501  502  0.00000000000E+00 -0.00000000000E+00 -0.27189884158E+03  0.27189884158E+03  0.00000000000E+00 0. -1.
        -24    2    1    2    0    0  0.96791206646E+01  0.64540103516E+02 -0.37032302573E+02  0.10784459892E+03  0.77459381251E+02 0.  0.
         23    2    1    2    0    0 -0.10211055752E+03  0.49579050073E+01 -0.13201719287E+03  0.19730567186E+03  0.10511822942E+03 0.  0.
         13    1    3    3    0    0 -0.14524449588E+01  0.81068473491E+02 -0.26481103818E+02  0.85296282744E+02  0.00000000000E+00 0. -1.
        -14    1    3    3    0    0  0.11131565623E+02 -0.16528369975E+02 -0.10551198756E+02  0.22548316177E+02  0.00000000000E+00 0.  1.
        -11    1    4    4    0    0 -0.11414588621E+03 -0.21598353564E+02 -0.11539997451E+03  0.16374653075E+03  0.00000000000E+00 0. -1.
         11    1    4    4    0    0  0.12035328691E+02  0.26556258571E+02 -0.16617218362E+02  0.33559141110E+02  0.00000000000E+00 0.  1.
         -1    1    1    2    0  502  0.92431436859E+02 -0.69498008524E+02  0.61278225311E+02  0.13087614223E+03  0.00000000000E+00 0.  1.
<scales pt_clust_5="13000.00000" pt_clust_6="13000.00000" pt_clust_7="13000.00000" pt_clust_8="13000.00000" pt_clust_9="101.91215"></scales>
<clustering>
<clus scale="   77.459">  5  6 -1 -1</clus>
<clus scale="  101.287">  1  5  2 -1</clus>
<clus scale="  101.912">  2  9  1 -1</clus>
<clus scale="  105.118">  7  8 -1 -1</clus>
<clus scale="  101.912">  2  5  1 -1</clus>
</clustering>
</event>
<event>
 9    1  0.5981539E-005  0.1903445E+03  0.7546771E-02  0.1186979E+00
         -2   -1    0    0    0  501 -0.00000000000E+00  0.00000000000E+00  0.56097359220E+03  0.56097359220E+03  0.00000000000E+00 0.  1.
         21   -1    0    0  501  502  0.00000000000E+00 -0.00000000000E+00 -0.12583968462E+03  0.12583968462E+03  0.00000000000E+00 0.  1.
        -24    2    1    2    0    0 -0.31824812248E+02 -0.48917724616E+02 -0.23320459640E+02  0.10143742138E+03  0.79623766317E+02 0.  0.
         23    2    1    2    0    0 -0.12641167909E+03  0.11238678683E+03  0.27049915568E+03  0.33161559339E+03  0.90489812089E+02 0.  0.
         13    1    3    3    0    0 -0.25441622535E+02 -0.47843093240E+02  0.19906974108E+02  0.57728029120E+02  0.00000000000E+00 0. -1.
        -14    1    3    3    0    0 -0.63831897128E+01 -0.10746313760E+01 -0.43227433747E+02  0.43709392262E+02  0.00000000000E+00 0.  1.
        -11    1    4    4    0    0 -0.88020428207E+02  0.81546602684E+02  0.25182332006E+03  0.27894879228E+03  0.00000000000E+00 0.  1.
         11    1    4    4    0    0 -0.38391250880E+02  0.30840184150E+02  0.18675835618E+02  0.52666801105E+02  0.00000000000E+00 0. -1.
         -1    1    1    2    0  502  0.15823649134E+03 -0.63469062219E+02  0.18795521155E+03  0.25376026205E+03  0.00000000000E+00 0.  1.
<scales pt_clust_5="13000.00000" pt_clust_6="13000.00000" pt_clust_7="13000.00000" pt_clust_8="13000.00000" pt_clust_9="167.45936"></scales>
<clustering>
<clus scale="   79.624">  5  6 -1 -1</clus>
<clus scale="   90.490">  7  8 -1 -1</clus>
<clus scale="   98.720">  1  5  2 -1</clus>
<clus scale="  167.459">  2  9  1 -1</clus>
<clus scale="  167.459">  2  5  1 -1</clus>
</clustering>
</event>
<event>
 9    1  0.5981539E-005  0.2527487E+03  0.7546771E-02  0.1151750E+00
          1   -1    0    0  502    0 -0.00000000000E+00  0.00000000000E+00  0.16162366494E+03  0.16162366494E+03  0.00000000000E+00 0. -1.
         21   -1    0    0  501  502  0.00000000000E+00 -0.00000000000E+00 -0.59205889835E+03  0.59205889835E+03  0.00000000000E+00 0.  1.
        -24    2    1    2    0    0 -0.42134627009E+02  0.30669972663E+02 -0.13156671820E+03  0.16198203046E+03  0.78818797497E+02 0.  0.
         23    2    1    2    0    0  0.15862483295E+03 -0.19870485677E+03 -0.27522270902E+03  0.38587338567E+03  0.92224034168E+02 0.  0.
         11    1    3    3    0    0 -0.12714657275E+02  0.37667226039E+02 -0.16560848734E+02  0.43066740507E+02  0.00000000000E+00 0. -1.
        -12    1    3    3    0    0 -0.29419969734E+02 -0.69972533764E+01 -0.11500586946E+03  0.11891528995E+03  0.00000000000E+00 0.  1.
        -13    1    4    4    0    0  0.91309362638E+02 -0.69821342782E+02 -0.17463083837E+03  0.20906541877E+03  0.00000000000E+00 0.  1.
         13    1    4    4    0    0  0.67315470314E+02 -0.12888351399E+03 -0.10059187064E+03  0.17680796690E+03  0.00000000000E+00 0. -1.
          2    1    1    2  501    0 -0.11649020594E+03  0.16803488411E+03 -0.23645806204E+02  0.20582714716E+03  0.00000000000E+00 0. -1.
<scales pt_clust_5="13000.00000" pt_clust_6="13000.00000" pt_clust_7="13000.00000" pt_clust_8="13000.00000" pt_clust_9="235.32256"></scales>
<clustering>
<clus scale="   78.819">  5  6 -1 -1</clus>
<clus scale="   92.224">  7  8 -1 -1</clus>
<clus scale="   94.490">  1  5  2 -1</clus>
<clus scale="  235.323">  2  9  1 -1</clus>
<clus scale="  235.323">  2  5  1 -1</clus>
</clustering>
</event>
<event>
 9    1  0.5981539E-005  0.1000716E+03  0.7546771E-02  0.1284583E+00
         -4   -1    0    0    0  501 -0.00000000000E+00  0.00000000000E+00  0.12544027390E+03  0.12544027390E+03  0.00000000000E+00 0.  1.
         21   -1    0    0  501  502  0.00000000000E+00 -0.00000000000E+00 -0.42917314972E+03  0.42917314972E+03  0.00000000000E+00 0. -1.
        -24    2    1    2    0    0  0.39068220476E+02 -0.26282776167E+02  0.95981256929E+02  0.13385207682E+03  0.80541086483E+02 0.  0.
         23    2    1    2    0    0 -0.13264707634E+02 -0.16722516737E+01 -0.23915739183E+03  0.25575900769E+03  0.89653014741E+02 0.  0.
         11    1    3    3    0    0  0.22692956014E+02 -0.22893832913E+02 -0.39997859580E+01  0.32482243239E+02  0.00000000000E+00 0. -1.
        -12    1    3    3    0    0  0.16375264462E+02 -0.33889432541E+01  0.99981042887E+02  0.10136983358E+03  0.00000000000E+00 0.  1.
        -13    1    4    4    0    0  0.36927477478E+02  0.59666858924E+01 -0.73116368598E+02  0.82129430111E+02  0.00000000000E+00 0. -1.
         13    1    4    4    0    0 -0.50192185112E+02 -0.76389375661E+01 -0.16604102323E+03  0.17362957758E+03  0.00000000000E+00 0.  1.
         -3    1    1    2    0  502 -0.25803512842E+02  0.27955027841E+02 -0.16055674092E+03  0.16500233911E+03  0.00000000000E+00 0.  1.
<scales pt_clust_5="13000.00000" pt_clust_6="13000.00000" pt_clust_7="13000.00000" pt_clust_8="13000.00000" pt_clust_9="38.04346"></scales>
<clustering>
<clus scale="   38.043">  2  9  1 -1</clus>
<clus scale="   80.541">  5  6 -1 -1</clus>
<clus scale="   89.653">  7  8 -1 -1</clus>
<clus scale="   91.997">  1  5  2 -1</clus>
<clus scale="   38.043">  2  5  1 -1</clus>
</clustering>
</event>
<event>
 9    1  0.5981539E-005  0.3038841E+03  0.7546771E-02  0.1136323E+00
         21   -1    0    0  501  502  0.00000000000E+00  0.00000000000E+00  0.62913885045E+03  0.62913885045E+03  0.00000000000E+00 0.  1.
         -2   -1    0    0    0  501 -0.00000000000E+00 -0.00000000000E+00 -0.20618903279E+03  0.20618903279E+03  0.00000000000E+00 0.  1.
        -24    2    1    2    0    0  0.50992259552E+01  0.95439142932E+01 -0.31584055656E+02  0.84768141438E+02  0.77916601734E+02 0.  0.
         23    2    1    2    0    0  0.15509219928E+03 -0.24799419697E+03  0.27665507107E+03  0.41268299161E+03  0.90633940716E+02 0.  0.
         13    1    3    3    0    0 -0.24204527256E+02 -0.76647368585E+01  0.13148028389E+02  0.28591571858E+02  0.00000000000E+00 0. -1.
        -14    1    3    3    0    0  0.29303753212E+02  0.17208651152E+02 -0.44732084045E+02  0.56176569580E+02  0.00000000000E+00 0.  1.
        -13    1    4    4    0    0  0.14502218467E+03 -0.15392699103E+03  0.19666308880E+03  0.28879287233E+03  0.00000000000E+00 0.  1.
         13    1    4    4    0    0  0.10070014611E+02 -0.94067205941E+02  0.79991982270E+02  0.12389011928E+03  0.00000000000E+00 0. -1.
         -1    1    1    2    0  502 -0.16019142524E+03  0.23845028268E+03  0.17787880225E+03  0.33787675019E+03  0.00000000000E+00 0.  1.
<scales pt_clust_5="13000.00000" pt_clust_6="13000.00000" pt_clust_7="13000.00000" pt_clust_8="13000.00000" pt_clust_9="290.05370"></scales>
<clustering>
<clus scale="   77.917">  5  6 -1 -1</clus>
<clus scale="   78.664">  2  5  1 -1</clus>
<clus scale="   90.634">  7  8 -1 -1</clus>
<clus scale="  290.054">  1  9  2 -1</clus>
<clus scale="  290.054">  1  5  2 -1</clus>
</clustering>
</event>
<event>
 9    1  0.5981539E-005  0.9678738E+02  0.7546771E-02  0.1297134E+00
         21   -1    0    0  501  502  0.00000000000E+00  0.00000000000E+00  0.26130991266E+03  0.26130991266E+03  0.00000000000E+00 0.  1.
         -4   -1    0    0    0  501 -0.00000000000E+00 -0.00000000000E+00 -0.15637519965E+03  0.15637519965E+03  0.00000000000E+00 0.  1.
        -24    2    1    2    0    0 -0.74749589399E+01  0.33946222766E+00 -0.11829050503E+03  0.14290481502E+03  0.79832025721E+02 0.  0.
         23    2    1    2    0    0  0.26176579624E+02  0.23350177811E+02  0.84586838214E+02  0.13289460378E+03  0.96309908056E+02 0.  0.
         11    1    3    3    0    0  0.31483761775E+01  0.25009600073E+02 -0.40269080918E+01  0.25526620559E+02  0.00000000000E+00 0. -1.
        -12    1    3    3    0    0 -0.10623335117E+02 -0.24670137846E+02 -0.11426359694E+03  0.11737819446E+03  0.00000000000E+00 0.  1.
        -13    1    4    4    0    0 -0.21850509126E+02 -0.21581212965E+02  0.75950073209E+01  0.31636650238E+02  0.00000000000E+00 0.  1.
         13    1    4    4    0    0  0.48027088750E+02  0.44931390777E+02  0.76991830893E+02  0.10125795354E+03  0.00000000000E+00 0. -1.
         -3    1    1    2    0  502 -0.18701620684E+02 -0.23689640039E+02  0.13863837983E+03  0.14188569351E+03  0.00000000000E+00 0.  1.
<scales pt_clust_5="13000.00000" pt_clust_6="13000.00000" pt_clust_7="13000.00000" pt_clust_8="13000.00000" pt_clust_9="30.18194"></scales>
<clustering>
<clus scale="   30.182">  1  9  2 -1</clus>
<clus scale="   79.832">  5  6 -1 -1</clus>
<clus scale="   80.407">  2  5  1 -1</clus>
<clus scale="   96.310">  7  8 -1 -1</clus>
<clus scale="   30.182">  1  5  2 -1</clus>
</clustering>
</event>
<event>
 9    1  0.5981539E-005  0.1266455E+03  0.7546771E-02  0.1240023E+00
         21   -1    0    0  501  502  0.00000000000E+00  0.00000000000E+00  0.10531352952E+03  0.10531352952E+03  0.00000000000E+00 0.  1.
          1   -1    0    0  502    0 -0.00000000000E+00 -0.00000000000E+00 -0.41080165366E+03  0.41080165366E+03  0.00000000000E+00 0. -1.
         23    2    1    2    0    0 -0.57598644075E+02  0.44046110115E+02 -0.32523647253E+03  0.34937950215E+03  0.10502194936E+03 0.  0.
        -24    2    1    2    0    0  0.76626584865E+02  0.14587376831E+01 -0.26147580924E+01  0.11257977429E+03  0.82423341325E+02 0.  0.
         13    1    4    4    0    0 -0.77180235398E+01 -0.22225790654E+02 -0.78867055167E+01  0.24814386583E+02  0.00000000000E+00 0. -1.
        -14    1    4    4    0    0  0.84344608405E+02  0.23684528337E+02  0.52719474243E+01  0.87765387706E+02  0.00000000000E+00 0.  1.
        -11    1    3    3    0    0 -0.25443328718E+02 -0.39656152874E+01 -0.80603315058E+01  0.26982550377E+02  0.00000000000E+00 0.  1.
         11    1    3    3    0    0 -0.32155315357E+02  0.48011725402E+02 -0.31717614102E+03  0.32239695178E+03  0.00000000000E+00 0. -1.
          2    1    1    2  501    0 -0.19027940790E+02 -0.45504847798E+02  0.22363106470E+02  0.54155906740E+02  0.00000000000E+00 0. -1.
<scales pt_clust_5="13000.00000" pt_clust_6="13000.00000" pt_clust_7="13000.00000" pt_clust_8="13000.00000" pt_clust_9="49.32295"></scales>
<clustering>
<clus scale="   49.323">  1  9  2 -1</clus>
<clus scale="   82.423">  5  6 -1 -1</clus>
<clus scale="  105.022">  7  8 -1 -1</clus>
<clus scale="  108.642">  1  5  2 -1</clus>
<clus scale="   49.323">  1  5  2 -1</clus>
</clustering>
</event>
<event>
 9    1  0.5981539E-005  0.1011864E+03  0.7546771E-02  0.1279646E+00
          3   -1    0    0  502    0 -0.00000000000E+00  0.00000000000E+00  0.37499655751E+03  0.37499655751E+03  0.00000000000E+00 0. -1.
         21   -1    0    0  501  502  0.00000000000E+00 -0.00000000000E+00 -0.11948196273E+03  0.11948196273E+03  0.00000000000E+00 0.  1.
         23    2    1    2    0    0  0.32488680589E+02  0.17311538438E+02  0.24260831644E+03  0.26358658462E+03  0.96249096911E+02 0.  0.
        -24    2    1    2    0    0  0.65851763025E+02  0.13192524556E+02 -0.43356711926E+02  0.11355965199E+03  0.80656634528E+02 0.  0.
         11    1    4    4    0    0  0.68087178818E+01 -0.29805637141E+02 -0.47390251106E+01  0.30938535899E+02  0.00000000000E+00 0. -1.
        -12    1    4    4    0    0  0.59043045144E+02  0.42998161697E+02 -0.38617686815E+02  0.82621116091E+02  0.00000000000E+00 0.  1.
        -13    1    3    3    0    0  0.27105505864E+02 -0.24082853023E+02  0.20242069513E+03  0.20564248120E+03  0.00000000000E+00 0.  1.
         13    1    3    3    0    0  0.53831747248E+01  0.41394391461E+02  0.40187621315E+02  0.57944103423E+02  0.00000000000E+00 0. -1.
          4    1    1    2  501    0 -0.98340443614E+02 -0.30504062994E+02  0.56262990259E+02  0.11733228363E+03  0.00000000000E+00 0. -1.
<scales pt_clust_5="13000.00000" pt_clust_6="13000.00000" pt_clust_7="13000.00000" pt_clust_8="13000.00000" pt_clust_9="102.96281"></scales>
<clustering>
<clus scale="   80.657">  5  6 -1 -1</clus>
<clus scale="   96.249">  7  8 -1 -1</clus>
<clus scale="  102.963">  2  9  1 -1</clus>
<clus scale="  102.963">  2  5  1 -1</clus>
<clus scale="  101.186">  2  5  1 -1</clus>
</clustering>
</event>
<event>
 9    1  0.5981539E-005  0.1457545E+03  0.7546771E-02  0.1207767E+00
          1   -1    0    0  502    0 -0.00000000000E+00  0.00000000000E+00  0.21271883221E+03  0.21271883221E+03  0.00000000000E+00 0. -1.
         21   -1    0    0  501  502  0.00000000000E+00 -0.00000000000E+00 -0.16560923877E+03  0.16560923877E+03  0.00000000000E+00 0.  1.
        -24    2    1    2    0    0 -0.39752846661E+02  0.12221764996E+03  0.63812808168E+02  0.16487334139E+03  0.81201609798E+02 0.  0.
         23    2    1    2    0    0  0.31331662905E+02 -0.76389940032E+02 -0.70875852741E+02  0.14200005834E+03  0.91233404126E+02 0.  0.
         13    1    3    3    0    0 -0.21535321840E+02  0.19340287192E+02 -0.16297078359E+02  0.33217639267E+02  0.00000000000E+00 0. -1.
        -14    1    3    3    0    0 -0.18217524821E+02  0.10287736277E+03  0.80109886527E+02  0.13165570212E+03  0.00000000000E+00 0.  1.
        -11    1    4    4    0    0  0.21319637957E+02 -0.74249531912E+01  0.18132761696E+02  0.28956069126E+02  0.00000000000E+00 0. -1.
         11    1    4    4    0    0  0.10012024948E+02 -0.68964986841E+02 -0.89008614437E+02  0.11304398921E+03  0.00000000000E+00 0.  1.
          2    1    1    2  501    0  0.84211837563E+01 -0.45827709932E+02  0.54172638017E+02  0.71454671248E+02  0.00000000000E+00 0. -1.
<scales pt_clust_5="13000.00000" pt_clust_6="13000.00000" pt_clust_7="13000.00000" pt_clust_8="13000.00000" pt_clust_9="46.59504"></scales>
<clustering>
<clus scale="   46.595">  2  9  1 -1</clus>
<clus scale="   81.202">  5  6 -1 -1</clus>
<clus scale="   91.233">  7  8 -1 -1</clus>
<clus scale="  139.694">  1  5  2 -1</clus>
<clus scale="   46.595">  2  5  1 -1</clus>
</clustering>
</event>
<event>
 9    1  0.5981539E-005  0.9098090E+02  0.7546771E-02  0.1306589E+00
         -2   -1    0    0    0  501 -0.00000000000E+00  0.00000000000E+00  0.25584954244E+02  0.25584954244E+02  0.00000000000E+00 0.  1.
         21   -1    0    0  501  502  0.00000000000E+00 -0.00000000000E+00 -0.42378952465E+03  0.42378952465E+03  0.00000000000E+00 0.  1.
        -24    2    1    2    0    0 -0.10443177683E+02 -0.13643232030E+02 -0.11504905555E+03  0.14173169812E+03  0.80971546418E+02 0.  0.
         23    2    1    2    0    0 -0.13048576738E+02 -0.19701330233E+01 -0.20416599664E+03  0.22376797120E+03  0.90632245745E+02 0.  0.
         13    1    3    3    0    0  0.32507081828E+02 -0.12660441575E+02 -0.28275921601E+02  0.44905733400E+02  0.00000000000E+00 0. -1.
        -14    1    3    3    0    0 -0.42950259510E+02 -0.98279045493E+00 -0.86773133946E+02  0.96825964720E+02  0.00000000000E+00 0.  1.
        -13    1    4    4    0    0 -0.33965962492E+02  0.35153291130E+02 -0.10397806011E+03  0.11489507156E+03  0.00000000000E+00 0. -1.
         13    1    4    4    0    0  0.20917385753E+02 -0.37123424154E+02 -0.10018793654E+03  0.10887289964E+03  0.00000000000E+00 0.  1.
         -1    1    1    2    0  502  0.23491754421E+02  0.15613365053E+02 -0.78989518217E+02  0.83874809581E+02  0.00000000000E+00 0.  1.
<scales pt_clust_5="13000.00000" pt_clust_6="13000.00000" pt_clust_7="13000.00000" pt_clust_8="13000.00000" pt_clust_9="28.20709"></scales>
<clustering>
<clus scale="   28.207">  2  9  1 -1</clus>
<clus scale="   80.972">  5  6 -1 -1</clus>
<clus scale="   81.362">  1  5  2 -1</clus>
<clus scale="   90.632">  7  8 -1 -1</clus>
<clus scale="   28.207">  2  5  1 -1</clus>
</clustering>
</event>
<event>
 9    1  0.5981539E-005  0.1369560E+03  0.7546771E-02  0.1225442E+00
         21   -1    0    0  501  502  0.00000000000E+00  0.00000000000E+00  0.15708719591E+03  0.15708719591E+03  0.00000000000E+00 0.  1.
         -2   -1    0    0    0  501 -0.00000000000E+00 -0.00000000000E+00 -0.27457505342E+03  0.27457505342E+03  0.00000000000E+00 0.  1.
         23    2    1    2    0    0 -0.89469160913E+02 -0.11153892978E+02 -0.19490224007E+03  0.24093298245E+03  0.10923680133E+03 0.  0.
        -24    2    1    2    0    0  0.66672783305E+02 -0.11176624092E+02 -0.13224452368E+01  0.10577154283E+03  0.81336913215E+02 0.  0.
         13    1    4    4    0    0  0.64553947893E+02  0.20213807203E+02  0.16478510547E+02  0.69622923668E+02  0.00000000000E+00 0. -1.
        -14    1    4    4    0    0  0.21188354119E+01 -0.31390431296E+02 -0.17800955784E+02  0.36148619161E+02  0.00000000000E+00 0.  1.
        -11    1    3    3    0    0 -0.60237924956E+02 -0.51106446877E+01 -0.20260984349E+02  0.63759185839E+02  0.00000000000E+00 0. -1.
         11    1    3    3    0    0 -0.29231235958E+02 -0.60432482901E+01 -0.17464125572E+03  0.17717379661E+03  0.00000000000E+00 0.  1.
         -1    1    1    2    0  502  0.22796377609E+02  0.22330517070E+02  0.78736827796E+02  0.84957724052E+02  0.00000000000E+00 0.  1.
<scales pt_clust_5="13000.00000" pt_clust_6="13000.00000" pt_clust_7="13000.00000" pt_clust_8="13000.00000" pt_clust_9="31.91123"></scales>
<clustering>
<clus scale="   31.911">  1  9  2 -1</clus>
<clus scale="   81.337">  5  6 -1 -1</clus>
<clus scale="  109.237">  7  8 -1 -1</clus>
<clus scale="  115.931">  1  5  2 -1</clus>
<clus scale="   31.911">  1  5  2 -1</clus>
</clustering>
</event>
<event>
 9    1  0.5981539E-005  0.1055883E+03  0.7546771E-02  0.1269307E+00
         -4   -1    0    0    0  501 -0.00000000000E+00  0.00000000000E+00  0.11215808341E+03  0.11215808341E+03  0.00000000000E+00 0.  1.
         21   -1    0    0  501  502  0.00000000000E+00 -0.00000000000E+00 -0.19866388181E+03  0.19866388181E+03  0.00000000000E+00 0.  1.
         23    2    1    2    0    0  0.20046998049E+01 -0.64654525253E+02  0.41800208572E+02  0.11945187958E+03  0.91308639465E+02 0.  0.
        -24    2    1    2    0    0  0.17875940842E+01  0.16392209400E+02 -0.83997227841E+02  0.12574310543E+03  0.92108057499E+02 0.  0.
         13    1    4    4    0    0  0.38381906551E+02  0.34325506912E+02 -0.57236612234E+02  0.76989875667E+02  0.00000000000E+00 0. -1.
        -14    1    4    4    0    0 -0.36594312467E+02 -0.17933297512E+02 -0.26760615608E+02  0.48753229762E+02  0.00000000000E+00 0.  1.
        -13    1    3    3    0    0  0.34833117160E+02 -0.36841514891E+02  0.54650613693E+02  0.74547520734E+02  0.00000000000E+00 0.  1.
         13    1    3    3    0    0 -0.32828417355E+02 -0.27813010362E+02 -0.12850405121E+02  0.44904358844E+02  0.00000000000E+00 0. -1.
         -3    1    1    2    0  502 -0.37922938891E+01  0.48262315853E+02 -0.44308779129E+02  0.65626980217E+02  0.00000000000E+00 0.  1.
<scales pt_clust_5="13000.00000" pt_clust_6="13000.00000" pt_clust_7="13000.00000" pt_clust_8="13000.00000" pt_clust_9="48.41108"></scales>
<clustering>
<clus scale="   48.411">  2  9  1 -1</clus>
<clus scale="   91.309">  7  8 -1 -1</clus>
<clus scale="   92.108">  5  6 -1 -1</clus>
<clus scale="  104.892">  1  7  2 -1</clus>
<clus scale="   48.411">  2  5  1 -1</clus>
</clustering>
</event>
<event>
 9    1  0.5981539E-005  0.1540844E+03  0.7546771E-02  0.1199680E+00
         -2   -1    0    0    0  501 -0.00000000000E+00  0.00000000000E+00  0.23074236264E+03  0.23074236264E+03  0.00000000000E+00 0.  1.
         21   -1    0    0  501  502  0.00000000000E+00 -0.00000000000E+00 -0.52375150769E+03  0.52375150769E+03  0.00000000000E+00 0.  1.
        -24    2    1    2    0    0  0.11138740989E+03  0.81282829654E+02  0.13113532740E+03  0.20976772728E+03  0.88272146441E+02 0.  0.
         23    2    1    2    0    0  0.42560337025E+01 -0.13866890198E+03 -0.69242391138E+02  0.16707279055E+03  0.62222426915E+02 0.  0.
         11    1    3    3    0    0  0.52531394048E+01  0.29330036443E+02 -0.42136810499E+01  0.30093215504E+02  0.00000000000E+00 0. -1.
        -12    1    3    3    0    0  0.10613427049E+03  0.51952793211E+02  0.13534900845E+03  0.17967451178E+03  0.00000000000E+00 0.  1.
        -13    1    4    4    0    0  0.15496736129E+02 -0.17742697778E+02 -0.32594440937E+02  0.40216286938E+02  0.00000000000E+00 0.  1.
         13    1    4    4    0    0 -0.11240702426E+02 -0.12092620420E+03 -0.36647950202E+02  0.12685650361E+03  0.00000000000E+00 0. -1.
         -1    1    1    2    0  502 -0.11564344359E+03  0.57386072328E+02 -0.35490208131E+03  0.37765335251E+03  0.00000000000E+00 0.  1.
<scales pt_clust_5="13000.00000" pt_clust_6="13000.00000" pt_clust_7="13000.00000" pt_clust_8="13000.00000" pt_clust_9="129.09906"></scales>
<clustering>
<clus scale="   62.222">  7  8 -1 -1</clus>
<clus scale="   88.272">  5  6 -1 -1</clus>
<clus scale="  129.099">  2  9  1 -1</clus>
<clus scale="  140.789">  2  7  1 -1</clus>
<clus scale="  129.099">  2  5  1 -1</clus>
</clustering>
</event>
<event>
 9    1  0.5981539E-005  0.1081717E+03  0.7546771E-02  0.1269743E+00
         21   -1    0    0  501  502  0.00000000000E+00  0.00000000000E+00  0.19371657464E+03  0.19371657464E+03  0.00000000000E+00 0. -1.
         -2   -1    0    0    0  501 -0.00000000000E+00 -0.00000000000E+00 -0.11693540715E+03  0.11693540715E+03  0.00000000000E+00 0.  1.
        -24    2    1    2    0    0 -0.58932689328E+02  0.60882476050E+01 -0.69608804365E+02  0.12061365723E+03  0.78690152079E+02 0.  0.
         23    2    1    2    0    0  0.39065119194E+02 -0.10374757993E+02  0.12085480558E+03  0.15740185369E+03  0.92389070630E+02 0.  0.
         11    1    3    3    0    0 -0.25032220350E+00 -0.29211201984E+02 -0.13978980279E+02  0.32384701206E+02  0.00000000000E+00 0. -1.
        -12    1    3    3    0    0 -0.58682367125E+02  0.35299449589E+02 -0.55629824087E+02  0.88228956021E+02  0.00000000000E+00 0.  1.
        -11    1    4    4    0    0  0.23538857625E+02  0.38925400231E+02  0.77839749831E+02  0.90157036637E+02  0.00000000000E+00 0.  1.
         11    1    4    4    0    0  0.15526261569E+02 -0.49300158224E+02  0.43015055748E+02  0.67244817051E+02  0.00000000000E+00 0. -1.
         -1    1    1    2    0  502  0.19867570134E+02  0.42865103879E+01  0.25535166276E+02  0.32636470874E+02  0.00000000000E+00 0.  1.
<scales pt_clust_5="13000.00000" pt_clust_6="13000.00000" pt_clust_7="13000.00000" pt_clust_8="13000.00000" pt_clust_9="20.32473"></scales>
<clustering>
<clus scale="   20.325">  1  9  2 -1</clus>
<clus scale="   78.690">  5  6 -1 -1</clus>
<clus scale="   92.389">  7  8 -1 -1</clus>
<clus scale="   96.734">  2  5  1 -1</clus>
<clus scale="   20.325">  1  5  2 -1</clus>
</clustering>
</event>
<event>
 9    1  0.5981539E-005  0.9126761E+02  0.7546771E-02  0.1315496E+00
          1   -1    0    0  502    0 -0.00000000000E+00  0.00000000000E+00  0.23664306360E+03  0.23664306360E+03  0.00000000000E+00 0. -1.
         21   -1    0    0  501  502  0.00000000000E+00 -0.00000000000E+00 -0.64493782680E+02  0.64493782680E+02  0.00000000000E+00 0. -1.
        -24    2    1    2    0    0 -0.27367635637E+01  0.29637373462E+01  0.17387097749E+03  0.18687602329E+03  0.68375855764E+02 0.  0.
         23    2    1    2    0    0 -0.70509397942E+01 -0.20955089266E+02 -0.20334988099E+01  0.93777046444E+02  0.91110744724E+02 0.  0.
         11    1    3    3    0    0 -0.33935251967E+02  0.65799271206E+00  0.61645759991E+02  0.70372110991E+02  0.00000000000E+00 0. -1.
        -12    1    3    3    0    0  0.31198488403E+02  0.23057446342E+01  0.11222521750E+03  0.11650391229E+03  0.00000000000E+00 0.  1.
        -11    1    4    4    0    0 -0.32384336682E+02  0.24430938764E+02 -0.83512105173E+01  0.41416889650E+02  0.00000000000E+00 0. -1.
         11    1    4    4    0    0  0.25333396888E+02 -0.45386028030E+02  0.63177117073E+01  0.52360156794E+02  0.00000000000E+00 0.  1.
          2    1    1    2  501    0  0.97877033579E+01  0.17991351920E+02  0.31180223417E+00  0.20483776546E+02  0.00000000000E+00 0. -1.
<scales pt_clust_5="13000.00000" pt_clust_6="13000.00000" pt_clust_7="13000.00000" pt_clust_8="13000.00000" pt_clust_9="20.48140"></scales>
<clustering>
<clus scale="   20.481">  2  9  1 -1</clus>
<clus scale="   68.376">  5  6 -1 -1</clus>
<clus scale="   68.585">  1  5  2 -1</clus>
<clus scale="   91.111">  7  8 -1 -1</clus>
<clus scale="   20.481">  2  5  1 -1</clus>
</clustering>
</event>
<event>
 9    1  0.5981539E-005  0.2944109E+03  0.7546771E-02  0.1091112E+00
         -2   -1    0    0    0  501 -0.00000000000E+00  0.00000000000E+00  0.18882064033E+04  0.18882064033E+04  0.00000000000E+00 0.  1.
         21   -1    0    0  501  502  0.00000000000E+00 -0.00000000000E+00 -0.32957285552E+03  0.32957285552E+03  0.00000000000E+00 0. -1.
         23    2    1    2    0    0 -0.15635302258E+03 -0.20287568954E+03  0.15918483096E+03  0.31483969835E+03  0.90440102664E+02 0.  0.
        -24    2    1    2    0    0 -0.26698089243E+03  0.69660309861E+02 -0.12550353393E+03  0.31472127950E+03  0.84658083221E+02 0.  0.
         13    1    4    4    0    0 -0.23271086293E+03  0.63135912378E+02 -0.13781247411E+03  0.27772786533E+03  0.00000000000E+00 0. -1.
        -14    1    4    4    0    0 -0.34270029492E+02  0.65243974830E+01  0.12308940186E+02  0.36993414176E+02  0.00000000000E+00 0.  1.
        -11    1    3    3    0    0 -0.12657118608E+03 -0.20464155523E+03  0.13185355845E+03  0.27437892074E+03  0.00000000000E+00 0.  1.
         11    1    3    3    0    0 -0.29781836504E+02  0.17658656905E+01  0.27331272511E+02  0.40460777603E+02  0.00000000000E+00 0. -1.
         -1    1    1    2    0  502  0.42333391501E+03  0.13321537968E+03  0.15249522507E+04  0.15882182810E+04  0.00000000000E+00 0.  1.
<scales pt_clust_5="13000.00000" pt_clust_6="13000.00000" pt_clust_7="13000.00000" pt_clust_8="13000.00000" pt_clust_9="281.97672"></scales>
<clustering>
<clus scale="   84.658">  5  6 -1 -1</clus>
<clus scale="   90.440">  7  8 -1 -1</clus>
<clus scale="  271.633">  1  7  2 -1</clus>
<clus scale="  281.977">  2  9  1 -1</clus>
<clus scale="  281.977">  2  5  1 -1</clus>
</clustering>
</event>
<event>
 9    1  0.5981539E-005  0.1086829E+03  0.7546771E-02  0.1265411E+00
          1   -1    0    0  502    0 -0.00000000000E+00  0.00000000000E+00  0.38103290258E+03  0.38103290258E+03  0.00000000000E+00 0. -1.
         21   -1    0    0  501  502  0.00000000000E+00 -0.00000000000E+00 -0.91162051178E+02  0.91162051178E+02  0.00000000000E+00 0. -1.
         23    2    1    2    0    0 -0.44125389483E+02  0.20481138073E+02  0.20392010418E+03  0.22739557065E+03  0.88084105529E+02 0.  0.
        -24    2    1    2    0    0  0.12030446488E+03 -0.16308770876E+02  0.83241933809E+02  0.16845805847E+03  0.81913110321E+02 0.  0.
         13    1    4    4    0    0  0.12421776625E+03 -0.28520308372E+02  0.87892223698E+02  0.15481764896E+03  0.00000000000E+00 0. -1.
        -14    1    4    4    0    0 -0.39133013722E+01  0.12211537496E+02 -0.46502898896E+01  0.13640409514E+02  0.00000000000E+00 0.  1.
        -13    1    3    3    0    0 -0.65339817408E+02  0.19605917038E+02  0.98233504920E+02  0.11959726256E+03  0.00000000000E+00 0. -1.
         13    1    3    3    0    0  0.21214427925E+02  0.87522103499E+00  0.10568659926E+03  0.10779830809E+03  0.00000000000E+00 0.  1.
          2    1    1    2  501    0 -0.76179075399E+02 -0.41723671977E+01  0.27088134067E+01  0.76341324633E+02  0.00000000000E+00 0. -1.
<scales pt_clust_5="13000.00000" pt_clust_6="13000.00000" pt_clust_7="13000.00000" pt_clust_8="13000.00000" pt_clust_9="76.29325"></scales>
<clustering>
<clus scale="   76.293">  2  9  1 -1</clus>
<clus scale="   81.913">  5  6 -1 -1</clus>
<clus scale="   88.084">  7  8 -1 -1</clus>
<clus scale="  103.744">  2  5  1 -1</clus>
<clus scale="   76.293">  2  5  1 -1</clus>
</clustering>
</event>
<event>
 9    1  0.5981539E-005  0.1817454E+03  0.7546771E-02  0.1167148E+00
          1   -1    0    0  502    0 -0.00000000000E+00  0.00000000000E+00  0.30200275534E+03  0.30200275534E+03  0.00000000000E+00 0. -1.
         21   -1    0    0  501  502  0.00000000000E+00 -0.00000000000E+00 -0.19642423966E+03  0.19642423966E+03  0.00000000000E+00 0. -1.
        -24    2    1    2    0    0  0.13697816949E+02  0.10629849193E+03 -0.10014773243E+02  0.13996229005E+03  0.89454722498E+02 0.  0.
         23    2    1    2    0    0  0.20495335236E+02 -0.20810639457E+03  0.64945022802E+02  0.23972436826E+03  0.97578617135E+02 0.  0.
         13    1    3    3    0    0 -0.19639078393E+02  0.67586479619E+01 -0.26534465042E+02  0.33696447253E+02  0.00000000000E+00 0. -1.
        -14    1    3    3    0    0  0.33336895342E+02  0.99539843972E+02  0.16519691799E+02  0.10626584280E+03  0.00000000000E+00 0.  1.
        -13    1    4    4    0    0  0.14679072721E+02 -0.15373981058E+03 -0.50647164548E+00  0.15443982986E+03  0.00000000000E+00 0.  1.
         13    1    4    4    0    0  0.58162625149E+01 -0.54366583989E+02  0.65451494448E+02  0.85284538398E+02  0.00000000000E+00 0. -1.
          2    1    1    2  501    0 -0.34193152185E+02  0.10180790263E+03  0.50648266127E+02  0.11874033669E+03  0.00000000000E+00 0. -1.
<scales pt_clust_5="13000.00000" pt_clust_6="13000.00000" pt_clust_7="13000.00000" pt_clust_8="13000.00000" pt_clust_9="107.39661"></scales>
<clustering>
<clus scale="   89.455">  5  6 -1 -1</clus>
<clus scale="   97.579">  7  8 -1 -1</clus>
<clus scale="  107.397">  2  9  1 -1</clus>
<clus scale="  177.516">  1  5  2 -1</clus>
<clus scale="  107.397">  2  5  1 -1</clus>
</clustering>
</event>
<event>
 9    1  0.5981539E-005  0.2143193E+03  0.7546771E-02  0.1138191E+00
         21   -1    0    0  501  502  0.00000000000E+00  0.00000000000E+00  0.26957519650E+03  0.26957519650E+03  0.00000000000E+00 0. -1.
          1   -1    0    0  502    0 -0.00000000000E+00 -0.00000000000E+00 -0.95380581866E+02  0.95380581866E+02  0.00000000000E+00 0. -1.
        -24    2    1    2    0    0 -0.73890118088E+02 -0.47072038889E+02  0.40935708990E+02  0.12740989082E+03  0.82957950866E+02 0.  0.
         23    2    1    2    0    0 -0.14153741226E+02 -0.38159274026E+01  0.47191542615E+02  0.10432090019E+03  0.91874473224E+02 0.  0.
         11    1    3    3    0    0 -0.84009045386E+02 -0.26316295987E+02  0.97020764614E+01  0.88567473876E+02  0.00000000000E+00 0. -1.
        -12    1    3    3    0    0  0.10118927298E+02 -0.20755742903E+02  0.31233632528E+02  0.38842416943E+02  0.00000000000E+00 0.  1.
        -13    1    4    4    0    0 -0.28450041169E+01  0.38998337714E+02  0.45517417943E+02  0.60006664039E+02  0.00000000000E+00 0.  1.
         13    1    4    4    0    0 -0.11308737109E+02 -0.42814265117E+02  0.16741246716E+01  0.44314236154E+02  0.00000000000E+00 0. -1.
          2    1    1    2  501    0  0.88043859314E+02  0.50887966292E+02  0.86067363024E+02  0.13322498735E+03  0.00000000000E+00 0. -1.
<scales pt_clust_5="13000.00000" pt_clust_6="13000.00000" pt_clust_7="13000.00000" pt_clust_8="13000.00000" pt_clust_9="101.69221"></scales>
<clustering>
<clus scale="   82.958">  5  6 -1 -1</clus>
<clus scale="   91.874">  7  8 -1 -1</clus>
<clus scale="   91.985">  5  7 -1 -1</clus>
<clus scale="  101.692">  1  9  2 -1</clus>
<clus scale="  101.692">  1  5  2 -1</clus>
</clustering>
</event>
<event>
 9    1  0.5981539E-005  0.9642097E+02  0.7546771E-02  0.1295473E+00
         21   -1    0    0  501  502  0.00000000000E+00  0.00000000000E+00  0.44444641536E+03  0.44444641536E+03  0.00000000000E+00 0. -1.
          3   -1    0    0  502    0 -0.00000000000E+00 -0.00000000000E+00 -0.32690861843E+02  0.32690861843E+02  0.00000000000E+00 0. -1.
         23    2    1    2    0    0 -0.10966164752E+02  0.17320839647E+02  0.12886544192E+03  0.16027228303E+03  0.93062529143E+02 0.  0.
        -24    2    1    2    0    0 -0.27906461596E+02 -0.37646381229E+02  0.23106240192E+03  0.24896565537E+03  0.79987770029E+02 0.  0.
         13    1    4    4    0    0 -0.19150391470E+02 -0.30157426197E+02  0.27513776400E+02  0.45091193598E+02  0.00000000000E+00 0. -1.
        -14    1    4    4    0    0 -0.87560701260E+01 -0.74889550317E+01  0.20354862552E+03  0.20387446178E+03  0.00000000000E+00 0.  1.
        -13    1    3    3    0    0 -0.47548499836E+02  0.73652850965E+00  0.37817374237E+02  0.60758177270E+02  0.00000000000E+00 0.  1.
         13    1    3    3    0    0  0.36582335084E+02  0.16584311137E+02  0.91048067687E+02  0.99514105762E+02  0.00000000000E+00 0. -1.
          4    1    1    2  501    0  0.38872626348E+02  0.20325541582E+02  0.51827709673E+02  0.67899338802E+02  0.00000000000E+00 0. -1.
<scales pt_clust_5="13000.00000" pt_clust_6="13000.00000" pt_clust_7="13000.00000" pt_clust_8="13000.00000" pt_clust_9="43.86583"></scales>
<clustering>
<clus scale="   43.866">  1  9  2 -1</clus>
<clus scale="   79.988">  5  6 -1 -1</clus>
<clus scale="   83.871">  1  5  2 -1</clus>
<clus scale="   93.063">  7  8 -1 -1</clus>
<clus scale="   43.866">  1  5  2 -1</clus>
</clustering>
</event>
<event>
 9    1  0.5981539E-005  0.9589140E+02  0.7546771E-02  0.1290596E+00
         -2   -1    0    0    0  501 -0.00000000000E+00  0.00000000000E+00  0.91621176197E+02  0.91621176197E+02  0.00000000000E+00 0.  1.
         21   -1    0    0  501  502  0.00000000000E+00 -0.00000000000E+00 -0.47604952570E+03  0.47604952570E+03  0.00000000000E+00 0.  1.
         23    2    1    2    0    0 -0.31739069427E+02 -0.31791810606E+01  0.24884234511E+02  0.98746150235E+02  0.90078306704E+02 0.  0.
        -24    2    1    2    0    0  0.25155117058E+02 -0.66431202142E+02 -0.96262478367E+02  0.14816089642E+03  0.87403100371E+02 0.  0.
         11    1    4    4    0    0  0.49938556507E+02 -0.28250330070E+02 -0.22801160494E+02  0.61740047740E+02  0.00000000000E+00 0. -1.
        -12    1    4    4    0    0 -0.24783439448E+02 -0.38180872071E+02 -0.73461317873E+02  0.86420848681E+02  0.00000000000E+00 0.  1.
        -13    1    3    3    0    0 -0.10097336952E+02  0.31507518870E+02 -0.19497230749E+02  0.38403410861E+02  0.00000000000E+00 0. -1.
         13    1    3    3    0    0 -0.21641732474E+02 -0.34686699931E+02  0.44381465260E+02  0.60342739374E+02  0.00000000000E+00 0.  1.
         -1    1    1    2    0  502  0.65839523683E+01  0.69610383202E+02 -0.31305010565E+03  0.32076365524E+03  0.00000000000E+00 0.  1.
<scales pt_clust_5="13000.00000" pt_clust_6="13000.00000" pt_clust_7="13000.00000" pt_clust_8="13000.00000" pt_clust_9="69.92105"></scales>
<clustering>
<clus scale="   69.921">  2  9  1 -1</clus>
<clus scale="   87.403">  5  6 -1 -1</clus>
<clus scale="   90.078">  7  8 -1 -1</clus>
<clus scale="   93.383">  2  5  1 -1</clus>
<clus scale="   69.921">  2  5  1 -1</clus>
</clustering>
</event>
<event>
 9    1  0.5981539E-005  0.2198731E+03  0.7546771E-02  0.1134446E+00
         21   -1    0    0  501  502  0.00000000000E+00  0.00000000000E+00  0.30362074893E+03  0.30362074893E+03  0.00000000000E+00 0. -1.
         -4   -1    0    0    0  501 -0.00000000000E+00 -0.00000000000E+00 -0.39879421090E+03  0.39879421090E+03  0.00000000000E+00 0.  1.
         23    2    1    2    0    0 -0.17972921660E+03 -0.10019667312E+03 -0.25724596247E+03  0.34078929056E+03  0.87291985627E+02 0.  0.
        -24    2    1    2    0    0  0.20570808809E+03  0.13236568964E+01  0.10836105760E+03  0.24614539303E+03  0.80795211089E+02 0.  0.
         13    1    4    4    0    0  0.10174618239E+03 -0.34951180058E+02  0.74819023561E+02  0.13104105046E+03  0.00000000000E+00 0. -1.
        -14    1    4    4    0    0  0.10396190570E+03  0.36274836954E+02  0.33542034043E+02  0.11510434258E+03  0.00000000000E+00 0.  1.
        -11    1    3    3    0    0 -0.36305234218E+02 -0.62065687141E+02 -0.58192773456E+02  0.92501991516E+02  0.00000000000E+00 0. -1.
         11    1    3    3    0    0 -0.14342398238E+03 -0.38130985980E+02 -0.19905318901E+03  0.24828729905E+03  0.00000000000E+00 0.  1.
         -3    1    1    2    0  502 -0.25978871491E+02  0.98873016224E+02  0.53711442890E+02  0.11548027623E+03  0.00000000000E+00 0.  1.
<scales pt_clust_5="13000.00000" pt_clust_6="13000.00000" pt_clust_7="13000.00000" pt_clust_8="13000.00000" pt_clust_9="102.22903"></scales>
<clustering>
<clus scale="   80.795">  5  6 -1 -1</clus>
<clus scale="   87.292">  7  8 -1 -1</clus>
<clus scale="  102.229">  1  9  2 -1</clus>
<clus scale="  217.376">  1  5  2 -1</clus>
<clus scale="  102.229">  1  5  2 -1</clus>
</clustering>
</event>
<event>
 9    1  0.5981539E-005  0.1545657E+03  0.7546771E-02  0.1225844E+00
         21   -1    0    0  501  502  0.00000000000E+00  0.00000000000E+00  0.10085493249E+04  0.10085493249E+04  0.00000000000E+00 0.  1.
         -2   -1    0    0    0  501 -0.00000000000E+00 -0.00000000000E+00 -0.44541479510E+02  0.44541479510E+02  0.00000000000E+00 0.  1.
        -24    2    1    2    0    0  0.47562395268E+01 -0.86795267783E+01  0.38191516237E+03  0.39019954265E+03  0.79363315436E+02 0.  0.
         23    2    1    2    0    0  0.92896149737E+01  0.12635986128E+03  0.16639224630E+03  0.23062652777E+03  0.97206502838E+02 0.  0.
         13    1    3    3    0    0  0.13523790319E+02  0.23916116268E+02  0.54350254124E+02  0.60900112030E+02  0.00000000000E+00 0. -1.
        -14    1    3    3    0    0 -0.87675507925E+01 -0.32595643047E+02  0.32756490824E+03  0.32929943062E+03  0.00000000000E+00 0.  1.
        -13    1    4    4    0    0 -0.43040708168E+02  0.68817025273E+02  0.96087103756E+02  0.12578162439E+03  0.00000000000E+00 0.  1.
         13    1    4    4    0    0  0.52330323142E+02  0.57542836009E+02  0.70305142541E+02  0.10484490338E+03  0.00000000000E+00 0. -1.
         -1    1    1    2    0  502 -0.14045854501E+02 -0.11768033450E+03  0.41570043668E+03  0.43226473394E+03  0.00000000000E+00 0.  1.
<scales pt_clust_5="13000.00000" pt_clust_6="13000.00000" pt_clust_7="13000.00000" pt_clust_8="13000.00000" pt_clust_9="120.17265"></scales>
<clustering>
<clus scale="   79.363">  5  6 -1 -1</clus>
<clus scale="   79.978">  2  5  1 -1</clus>
<clus scale="   97.207">  7  8 -1 -1</clus>
<clus scale="  120.173">  1  9  2 -1</clus>
<clus scale="  120.173">  1  5  2 -1</clus>
</clustering>
</event>
<event>
 9    1  0.5981539E-005  0.2035823E+03  0.7546771E-02  0.1163761E+00
         21   -1    0    0  501  502  0.00000000000E+00  0.00000000000E+00  0.18417771591E+03  0.18417771591E+03  0.00000000000E+00 0. -1.
          1   -1    0    0  502    0 -0.00000000000E+00 -0.00000000000E+00 -0.41410258079E+03  0.41410258079E+03  0.00000000000E+00 0. -1.
        -24    2    1    2    0    0  0.39354730796E+02 -0.10040616220E+03 -0.14206479600E+03  0.19705553214E+03  0.83775200629E+02 0.  0.
         23    2    1    2    0    0 -0.13738232661E+03 -0.72856777938E+02 -0.68352750959E+02  0.20119978757E+03  0.10782969072E+03 0.  0.
         11    1    3    3    0    0  0.27319899221E+02 -0.87832904006E+02 -0.15151506079E+03  0.17725069694E+03  0.00000000000E+00 0. -1.
        -12    1    3    3    0    0  0.12034831575E+02 -0.12573258197E+02  0.94502647898E+01  0.19804835201E+02  0.00000000000E+00 0.  1.
        -13    1    4    4    0    0 -0.10116370111E+03 -0.25250754198E+02 -0.89846956571E+02  0.13763782407E+03  0.00000000000E+00 0.  1.
         13    1    4    4    0    0 -0.36218625498E+02 -0.47606023740E+02  0.21494205613E+02  0.63561963502E+02  0.00000000000E+00 0. -1.
          2    1    1    2  501    0  0.98027595809E+02  0.17326294014E+03 -0.19507317918E+02  0.20002497699E+03  0.00000000000E+00 0. -1.
<scales pt_clust_5="13000.00000" pt_clust_6="13000.00000" pt_clust_7="13000.00000" pt_clust_8="13000.00000" pt_clust_9="172.68042"></scales>
<clustering>
<clus scale="   83.775">  5  6 -1 -1</clus>
<clus scale="  107.830">  7  8 -1 -1</clus>
<clus scale="  136.559">  2  5  1 -1</clus>
<clus scale="  172.680">  1  9  2 -1</clus>
<clus scale="  172.680">  1  5  2 -1</clus>
</clustering>
</event>
<event>
 9    1  0.5981539E-005  0.9717316E+02  0.7546771E-02  0.1294392E+00
         21   -1    0    0  501  502  0.00000000000E+00  0.00000000000E+00  0.19664402697E+03  0.19664402697E+03  0.00000000000E+00 0.  1.
         -2   -1    0    0    0  501 -0.00000000000E+00 -0.00000000000E+00 -0.23514352478E+03  0.23514352478E+03  0.00000000000E+00 0.  1.
         23    2    1    2    0    0 -0.10916638637E+02 -0.40654063278E+02 -0.15362775923E+03  0.18325206992E+03  0.90597499220E+02 0.  0.
        -24    2    1    2    0    0  0.18961168577E+02  0.18351655556E+02 -0.41305361145E+02  0.90315413181E+02  0.75857971389E+02 0.  0.
         13    1    4    4    0    0 -0.23043973326E+02 -0.59047783295E+01  0.37864654438E+01  0.24087931300E+02  0.00000000000E+00 0. -1.
        -14    1    4    4    0    0  0.42005141903E+02  0.24256433886E+02 -0.45091826589E+02  0.66227481881E+02  0.00000000000E+00 0.  1.
        -13    1    3    3    0    0 -0.32051371581E+02 -0.37648862671E+02 -0.30083309576E+02  0.57876876174E+02  0.00000000000E+00 0. -1.
         13    1    3    3    0    0  0.21134732944E+02 -0.30052006074E+01 -0.12354444965E+03  0.12537519375E+03  0.00000000000E+00 0.  1.
         -1    1    1    2    0  502 -0.80445299398E+01  0.22302407722E+02  0.15643362256E+03  0.15822006864E+03  0.00000000000E+00 0.  1.
<scales pt_clust_5="13000.00000" pt_clust_6="13000.00000" pt_clust_7="13000.00000" pt_clust_8="13000.00000" pt_clust_9="23.70890"></scales>
<clustering>
<clus scale="   23.709">  1  9  2 -1</clus>
<clus scale="   75.858">  5  6 -1 -1</clus>
<clus scale="   83.601">  1  5  2 -1</clus>
<clus scale="   90.597">  7  8 -1 -1</clus>
<clus scale="   23.709">  1  5  2 -1</clus>
</clustering>
</event>
<event>
 9    1  0.5981539E-005  0.1245860E+03  0.7546771E-02  0.1240539E+00
         21   -1    0    0  501  502  0.00000000000E+00  0.00000000000E+00  0.25681302095E+03  0.25681302095E+03  0.00000000000E+00 0. -1.
         -2   -1    0    0    0  501 -0.00000000000E+00 -0.00000000000E+00 -0.12248946031E+03  0.12248946031E+03  0.00000000000E+00 0.  1.
        -24    2    1    2    0    0  0.61877427458E+02  0.45096998573E+02 -0.33947861993E+02  0.11493728525E+03  0.78711923483E+02 0.  0.
         23    2    1    2    0    0 -0.90803187127E+02 -0.28268066612E+02  0.52910790225E+02  0.14424863581E+03  0.94677425127E+02 0.  0.
         13    1    3    3    0    0 -0.74103426130E+01  0.34648918014E+02  0.32920851663E+01  0.35585088477E+02  0.00000000000E+00 0. -1.
        -14    1    3    3    0    0  0.69287770071E+02  0.10448080559E+02 -0.37239947160E+02  0.79352196776E+02  0.00000000000E+00 0.  1.
        -13    1    4    4    0    0 -0.10918460404E+03 -0.14357226630E+02  0.50237804448E+02  0.12104232612E+03  0.00000000000E+00 0.  1.
         13    1    4    4    0    0  0.18381416912E+02 -0.13910839982E+02  0.26729857765E+01  0.23206309695E+02  0.00000000000E+00 0. -1.
         -1    1    1    2    0  502  0.28925759669E+02 -0.16828931961E+02  0.11536063241E+03  0.12011656020E+03  0.00000000000E+00 0.  1.
<scales pt_clust_5="13000.00000" pt_clust_6="13000.00000" pt_clust_7="13000.00000" pt_clust_8="13000.00000" pt_clust_9="33.46509"></scales>
<clustering>
<clus scale="   33.465">  1  9  2 -1</clus>
<clus scale="   78.712">  5  6 -1 -1</clus>
<clus scale="   94.677">  7  8 -1 -1</clus>
<clus scale="  112.931">  2  5  1 -1</clus>
<clus scale="   33.465">  1  5  2 -1</clus>
</clustering>
</event>
<event>
 9    1  0.5981539E-005  0.1630242E+03  0.7546771E-02  0.1204266E+00
         21   -1    0    0  501  502  0.00000000000E+00  0.00000000000E+00  0.13050296431E+03  0.13050296431E+03  0.00000000000E+00 0. -1.
          1   -1    0    0  502    0 -0.00000000000E+00 -0.00000000000E+00 -0.67057093553E+03  0.67057093553E+03  0.00000000000E+00 0. -1.
         23    2    1    2    0    0 -0.35457772487E+02 -0.43338746905E+02 -0.22032650331E+02  0.10987315293E+03  0.91930253131E+02 0.  0.
        -24    2    1    2    0    0 -0.13612516401E+03  0.19016152034E+02 -0.15893857574E+02  0.15999613294E+03  0.80339738187E+02 0.  0.
         11    1    4    4    0    0 -0.11742903086E+03 -0.11679753543E+02 -0.29375086428E+02  0.12160957871E+03  0.00000000000E+00 0. -1.
        -12    1    4    4    0    0 -0.18696133146E+02  0.30695905577E+02  0.13481228854E+02  0.38386554224E+02  0.00000000000E+00 0.  1.
        -13    1    3    3    0    0 -0.14780954283E+02 -0.55037060635E+02 -0.48122493544E+02  0.74587727126E+02  0.00000000000E+00 0. -1.
         13    1    3    3    0    0 -0.20676818204E+02  0.11698313731E+02  0.26089843213E+02  0.35285425802E+02  0.00000000000E+00 0.  1.
          2    1    1    2  501    0  0.17158293650E+03  0.24322594870E+02 -0.50214146332E+03  0.53120461397E+03  0.00000000000E+00 0. -1.
<scales pt_clust_5="13000.00000" pt_clust_6="13000.00000" pt_clust_7="13000.00000" pt_clust_8="13000.00000" pt_clust_9="141.85352"></scales>
<clustering>
<clus scale="   80.340">  5  6 -1 -1</clus>
<clus scale="   91.930">  7  8 -1 -1</clus>
<clus scale="  107.641">  2  7  1 -1</clus>
<clus scale="  141.854">  1  9  2 -1</clus>
<clus scale="  141.854">  1  5  2 -1</clus>
</clustering>
</event>
<event>
 9    1  0.5981539E-005  0.1145441E+03  0.7546771E-02  0.1256891E+00
          1   -1    0    0  502    0 -0.00000000000E+00  0.00000000000E+00  0.96258894831E+03  0.96258894831E+03  0.00000000000E+00 0. -1.
         21   -1    0    0  501  502  0.00000000000E+00 -0.00000000000E+00 -0.21200184292E+02  0.21200184292E+02  0.00000000000E+00 0. -1.
         23    2    1    2    0    0 -0.12851123226E+02 -0.69030471012E+02  0.40419936234E+03  0.42048341413E+03  0.92189043545E+02 0.  0.
        -24    2    1    2    0    0 -0.44799587145E+02  0.63102096536E+02  0.37303111103E+03  0.38921753846E+03  0.79681897898E+02 0.  0.
         11    1    4    4    0    0 -0.44330495632E+02  0.19482463224E+01  0.21978096548E+03  0.22421565801E+03  0.00000000000E+00 0. -1.
        -12    1    4    4    0    0 -0.46909151312E+00  0.61153850214E+02  0.15325014555E+03  0.16500188045E+03  0.00000000000E+00 0.  1.
        -13    1    3    3    0    0 -0.39610058967E+02 -0.59663114585E+02  0.36584305358E+03  0.37278651245E+03  0.00000000000E+00 0.  1.
         13    1    3    3    0    0  0.26758935740E+02 -0.93673564262E+01  0.38356308758E+02  0.47696901680E+02  0.00000000000E+00 0. -1.
          2    1    1    2  501    0  0.57650710371E+02  0.59283744754E+01  0.16415829065E+03  0.17408818001E+03  0.00000000000E+00 0. -1.
<scales pt_clust_5="13000.00000" pt_clust_6="13000.00000" pt_clust_7="13000.00000" pt_clust_8="13000.00000" pt_clust_9="57.95472"></scales>
<clustering>
<clus scale="   57.955">  2  9  1 -1</clus>
<clus scale="   79.682">  5  6 -1 -1</clus>
<clus scale="   92.189">  7  8 -1 -1</clus>
<clus scale="  104.741">  2  5  1 -1</clus>
<clus scale="   57.955">  2  5  1 -1</clus>
</clustering>
</event>
<event>
 9    1  0.5981539E-005  0.1004769E+03  0.7546771E-02  0.1294864E+00
         21   -1    0    0  501  502  0.00000000000E+00  0.00000000000E+00  0.22774179166E+03  0.22774179166E+03  0.00000000000E+00 0. -1.
         -4   -1    0    0    0  501 -0.00000000000E+00 -0.00000000000E+00 -0.10931287204E+03  0.10931287204E+03  0.00000000000E+00 0.  1.
        -24    2    1    2    0    0 -0.64514823505E+01  0.50063342201E+02 -0.70469588203E+02  0.10471159225E+03  0.58741763959E+02 0.  0.
         23    2    1    2    0    0 -0.19623115516E+02 -0.18544335949E+02  0.11545304660E+03  0.14827424142E+03  0.89033059270E+02 0.  0.
         11    1    3    3    0    0 -0.23748317683E+02  0.46419709988E+02 -0.29073805676E+02  0.59699734042E+02  0.00000000000E+00 0. -1.
        -12    1    3    3    0    0  0.17296835333E+02  0.36436322124E+01 -0.41395782527E+02  0.45011858207E+02  0.00000000000E+00 0.  1.
        -13    1    4    4    0    0  0.22855064692E+02  0.20937555130E+02  0.21004801480E+02  0.37442447598E+02  0.00000000000E+00 0.  1.
         13    1    4    4    0    0 -0.42478180209E+02 -0.39481891078E+02  0.94448245117E+02  0.11083179383E+03  0.00000000000E+00 0. -1.
         -3    1    1    2    0  502  0.26074597867E+02 -0.31519006252E+02  0.73445461223E+02  0.84068830034E+02  0.00000000000E+00 0.  1.
<scales pt_clust_5="13000.00000" pt_clust_6="13000.00000" pt_clust_7="13000.00000" pt_clust_8="13000.00000" pt_clust_9="40.90639"></scales>
<clustering>
<clus scale="   40.906">  1  9  2 -1</clus>
<clus scale="   58.742">  5  6 -1 -1</clus>
<clus scale="   74.962">  2  5  1 -1</clus>
<clus scale="   89.033">  7  8 -1 -1</clus>
<clus scale="   40.906">  1  5  2 -1</clus>
</clustering>
</event>
<event>
 9    1  0.5981539E-005  0.1074819E+03  0.7546771E-02  0.1269016E+00
          1   -1    0    0  502    0 -0.00000000000E+00  0.00000000000E+00  0.33253586704E+03  0.33253586704E+03  0.00000000000E+00 0. -1.
         21   -1    0    0  501  502  0.00000000000E+00 -0.00000000000E+00 -0.63529938650E+02  0.63529938650E+02  0.00000000000E+00 0.  1.
        -24    2    1    2    0    0 -0.41677734925E+02 -0.22719707319E+02  0.13745439415E+03  0.16663407612E+03  0.81363297407E+02 0.  0.
         23    2    1    2    0    0  0.58058844684E+02  0.71226742238E+02  0.61911312172E+02  0.14299658785E+03  0.90393226001E+02 0.  0.
         11    1    3    3    0    0  0.23394103524E+02 -0.16886843224E+02  0.40850478892E+02  0.50012110328E+02  0.00000000000E+00 0. -1.
        -12    1    3    3    0    0 -0.65071838449E+02 -0.58328640950E+01  0.96603915257E+02  0.11662196579E+03  0.00000000000E+00 0.  1.
        -11    1    4    4    0    0  0.22256782419E+02  0.67727454109E+02 -0.11835039231E+00  0.71290857833E+02  0.00000000000E+00 0.  1.
         11    1    4    4    0    0  0.35802062265E+02  0.34992881286E+01  0.62029662565E+02  0.71705730020E+02  0.00000000000E+00 0. -1.
          2    1    1    2  501    0 -0.16381109759E+02 -0.48507034919E+02  0.69640222070E+02  0.86435141716E+02  0.00000000000E+00 0. -1.
<scales pt_clust_5="13000.00000" pt_clust_6="13000.00000" pt_clust_7="13000.00000" pt_clust_8="13000.00000" pt_clust_9="51.19840"></scales>
<clustering>
<clus scale="   51.198">  2  9  1 -1</clus>
<clus scale="   81.363">  5  6 -1 -1</clus>
<clus scale="   90.393">  7  8 -1 -1</clus>
<clus scale="  100.007">  1  5  2 -1</clus>
<clus scale="   51.198">  2  5  1 -1</clus>
</clustering>
</event>
<event>
 9    1  0.5981539E-005  0.6395672E+03  0.7546771E-02  0.9826555E-01
          1   -1    0    0  502    0 -0.00000000000E+00  0.00000000000E+00  0.26479236679E+04  0.26479236679E+04  0.00000000000E+00 0. -1.
         21   -1    0    0  501  502  0.00000000000E+00 -0.00000000000E+00 -0.18864374937E+03  0.18864374937E+03  0.00000000000E+00 0. -1.
        -24    2    1    2    0    0  0.40534265783E+03 -0.15884269583E+03  0.13942015827E+04  0.14627602082E+04  0.79597118227E+02 0.  0.
         23    2    1    2    0    0  0.15428141796E+03 -0.77939145471E+02  0.52720341413E+03  0.56229369841E+03  0.91397467589E+02 0.  0.
         11    1    3    3    0    0  0.26274498160E+03 -0.13119215382E+03  0.10171551089E+04  0.10587024238E+04  0.00000000000E+00 0. -1.
        -12    1    3    3    0    0  0.14259767623E+03 -0.27650542015E+02  0.37704647374E+03  0.40405778436E+03  0.00000000000E+00 0.  1.
        -11    1    4    4    0    0  0.73734761426E+02 -0.11195577460E+02  0.33768526344E+03  0.34582292166E+03  0.00000000000E+00 0.  1.
         11    1    4    4    0    0  0.80546656538E+02 -0.66743568011E+02  0.18951815069E+03  0.21647077676E+03  0.00000000000E+00 0. -1.
          2    1    1    2  501    0 -0.55962407579E+03  0.23678184130E+03  0.53787492170E+03  0.81151351066E+03  0.00000000000E+00 0. -1.
<scales pt_clust_5="13000.00000" pt_clust_6="13000.00000" pt_clust_7="13000.00000" pt_clust_8="13000.00000" pt_clust_9="607.65512"></scales>
<clustering>
<clus scale="   79.597">  5  6 -1 -1</clus>
<clus scale="   91.397">  7  8 -1 -1</clus>
<clus scale="   94.641">  5  7 -1 -1</clus>
<clus scale="  607.655">  2  9  1 -1</clus>
<clus scale="  607.655">  2  5  1 -1</clus>
</clustering>
</event>
<event>
 9    1  0.5981539E-005  0.1387330E+03  0.7546771E-02  0.1237719E+00
         21   -1    0    0  501  502  0.00000000000E+00  0.00000000000E+00  0.69667965254E+02  0.69667965254E+02  0.00000000000E+00 0. -1.
         -2   -1    0    0    0  501 -0.00000000000E+00 -0.00000000000E+00 -0.41032076711E+03  0.41032076711E+03  0.00000000000E+00 0.  1.
        -24    2    1    2    0    0 -0.22855957475E+02 -0.30329206280E+02 -0.10685607899E+03  0.13755094621E+03  0.77844624995E+02 0.  0.
         23    2    1    2    0    0 -0.10861287935E+02  0.12032870973E+03 -0.10944658528E+03  0.18527634057E+03  0.88044314887E+02 0.  0.
         13    1    3    3    0    0 -0.34235250868E+02 -0.19730517305E+02 -0.11384104698E+03  0.12050365012E+03  0.00000000000E+00 0. -1.
        -14    1    3    3    0    0  0.11379293393E+02 -0.10598688975E+02  0.69849679906E+01  0.17047296088E+02  0.00000000000E+00 0.  1.
        -11    1    4    4    0    0 -0.22493236155E+02  0.29305696537E+01 -0.46084441537E+02  0.51364478612E+02  0.00000000000E+00 0.  1.
         11    1    4    4    0    0  0.11631948220E+02  0.11739814008E+03 -0.63362143738E+02  0.13391186196E+03  0.00000000000E+00 0. -1.
         -1    1    1    2    0  502  0.33717245410E+02 -0.89999503452E+02 -0.12435013759E+03  0.15716144558E+03  0.00000000000E+00 0.  1.
<scales pt_clust_5="13000.00000" pt_clust_6="13000.00000" pt_clust_7="13000.00000" pt_clust_8="13000.00000" pt_clust_9="107.21499"></scales>
<clustering>
<clus scale="   77.845">  5  6 -1 -1</clus>
<clus scale="   86.614">  2  5  1 -1</clus>
<clus scale="   88.044">  7  8 -1 -1</clus>
<clus scale="  107.215">  1  9  2 -1</clus>
<clus scale="  107.215">  1  5  2 -1</clus>
</clustering>
</event>
<event>
 9    1  0.5981539E-005  0.8562311E+02  0.7546771E-02  0.1315853E+00
         -2   -1    0    0    0  501 -0.00000000000E+00  0.00000000000E+00  0.49786463588E+03  0.49786463588E+03  0.00000000000E+00 0.  1.
         21   -1    0    0  501  502  0.00000000000E+00 -0.00000000000E+00 -0.73182547063E+02  0.73182547063E+02  0.00000000000E+00 0. -1.
        -24    2    1    2    0    0 -0.35958039727E+01 -0.21025933200E+02  0.41480554601E+03  0.42298452725E+03  0.79982808272E+02 0.  0.
         23    2    1    2    0    0 -0.27427319863E+02  0.15829086072E+02  0.45986323771E+02  0.10017364115E+03  0.83169697407E+02 0.  0.
         13    1    3    3    0    0  0.40886270331E+01 -0.50605239729E+02  0.29533287729E+03  0.29966500558E+03  0.00000000000E+00 0. -1.
        -14    1    3    3    0    0 -0.76844310058E+01  0.29579306529E+02  0.11947266872E+03  0.12331952167E+03  0.00000000000E+00 0.  1.
        -11    1    4    4    0    0 -0.49559454992E+01  0.48788475621E+02  0.27244730010E+02  0.56099483621E+02  0.00000000000E+00 0.  1.
         11    1    4    4    0    0 -0.22471374364E+02 -0.32959389549E+02  0.18741593762E+02  0.44074157530E+02  0.00000000000E+00 0. -1.
         -1    1    1    2    0  502  0.31023123836E+02  0.51968471281E+01 -0.36109780964E+02  0.47889014542E+02  0.00000000000E+00 0.  1.
<scales pt_clust_5="13000.00000" pt_clust_6="13000.00000" pt_clust_7="13000.00000" pt_clust_8="13000.00000" pt_clust_9="31.45539"></scales>
<clustering>
<clus scale="   31.455">  2  9  1 -1</clus>
<clus scale="   79.983">  5  6 -1 -1</clus>
<clus scale="   82.531">  1  5  2 -1</clus>
<clus scale="   83.170">  7  8 -1 -1</clus>
<clus scale="   31.455">  2  5  1 -1</clus>
</clustering>
</event>
<event>
 9    1  0.5981539E-005  0.1150772E+03  0.7546771E-02  0.1255523E+00
         -2   -1    0    0    0  501 -0.00000000000E+00  0.00000000000E+00  0.81190543851E+03  0.81190543851E+03  0.00000000000E+00 0.  1.
         21   -1    0    0  501  502  0.00000000000E+00 -0.00000000000E+00 -0.32819647788E+02  0.32819647788E+02  0.00000000000E+00 0.  1.
         23    2    1    2    0    0 -0.32949790808E+02 -0.30972181113E+02  0.25614739844E+03  0.27608332290E+03  0.92550238981E+02 0.  0.
        -24    2    1    2    0    0  0.51240666499E+02  0.10112689956E+03  0.25010071584E+03  0.28633583300E+03  0.81151620307E+02 0.  0.
         11    1    4    4    0    0  0.21762895819E+02  0.10558027459E+02  0.69061494080E+01  0.25155327028E+02  0.00000000000E+00 0. -1.
        -12    1    4    4    0    0  0.29477770680E+02  0.90568872104E+02  0.24319456643E+03  0.26118050597E+03  0.00000000000E+00 0.  1.
        -11    1    3    3    0    0 -0.42466153835E+02  0.11200195046E+02  0.55209647749E+02  0.70547316002E+02  0.00000000000E+00 0.  1.
         11    1    3    3    0    0  0.95163630264E+01 -0.42172376159E+02  0.20093775069E+03  0.20553600689E+03  0.00000000000E+00 0. -1.
         -1    1    1    2    0  502 -0.18290875691E+02 -0.70154718451E+02  0.27283767645E+03  0.28230593041E+03  0.00000000000E+00 0.  1.
<scales pt_clust_5="13000.00000" pt_clust_6="13000.00000" pt_clust_7="13000.00000" pt_clust_8="13000.00000" pt_clust_9="72.49997"></scales>
<clustering>
<clus scale="   72.500">  2  9  1 -1</clus>
<clus scale="   81.152">  5  6 -1 -1</clus>
<clus scale="   92.550">  7  8 -1 -1</clus>
<clus scale="  106.126">  2  5  1 -1</clus>
<clus scale="   72.500">  2  5  1 -1</clus>
</clustering>
</event>
<event>
 9    1  0.5981539E-005  0.9373990E+02  0.7546771E-02  0.1299089E+00
         -2   -1    0    0    0  501 -0.00000000000E+00  0.00000000000E+00  0.24548403532E+03  0.24548403532E+03  0.00000000000E+00 0.  1.
         21   -1    0    0  501  502  0.00000000000E+00 -0.00000000000E+00 -0.41174463511E+03  0.41174463511E+03  0.00000000000E+00 0. -1.
        -24    2    1    2    0    0  0.30174988741E+01 -0.21822188394E+02  0.16905565552E+03  0.18948045756E+03  0.82690482692E+02 0.  0.
         23    2    1    2    0    0  0.75734522460E+02 -0.22346323068E+01 -0.36218953832E+03  0.38112959579E+03  0.91311530747E+02 0.  0.
         13    1    3    3    0    0 -0.31557308509E+02 -0.35656495484E+02  0.82523732921E+02  0.95275473684E+02  0.00000000000E+00 0. -1.
        -14    1    3    3    0    0  0.34574807383E+02  0.13834307090E+02  0.86531922598E+02  0.94204983874E+02  0.00000000000E+00 0.  1.
        -13    1    4    4    0    0  0.84150145416E+02  0.23311295472E+02 -0.31429787040E+03  0.32620210730E+03  0.00000000000E+00 0. -1.
         13    1    4    4    0    0 -0.84156229567E+01 -0.25545927779E+02 -0.47891667919E+02  0.54927488491E+02  0.00000000000E+00 0.  1.
         -1    1    1    2    0  502 -0.78752021334E+02  0.24056820701E+02  0.26873283000E+02  0.86618617084E+02  0.00000000000E+00 0.  1.
<scales pt_clust_5="13000.00000" pt_clust_6="13000.00000" pt_clust_7="13000.00000" pt_clust_8="13000.00000" pt_clust_9="82.34451"></scales>
<clustering>
<clus scale="   82.345">  2  9  1 -1</clus>
<clus scale="   82.690">  5  6 -1 -1</clus>
<clus scale="   85.364">  1  5  2 -1</clus>
<clus scale="   91.312">  7  8 -1 -1</clus>
<clus scale="   82.345">  2  5  1 -1</clus>
</clustering>
</event>
<event>
 9    1  0.5981539E-005  0.1095740E+03  0.7546771E-02  0.1265219E+00
          3   -1    0    0  502    0 -0.00000000000E+00  0.00000000000E+00  0.39991848700E+03  0.39991848700E+03  0.00000000000E+00 0. -1.
         21   -1    0    0  501  502  0.00000000000E+00 -0.00000000000E+00 -0.77941622007E+02  0.77941622007E+02  0.00000000000E+00 0. -1.
         23    2    1    2    0    0  0.16303803633E+02 -0.45059448640E+02  0.10016724281E+03  0.14353920757E+03  0.90960758860E+02 0.  0.
        -24    2    1    2    0    0 -0.91849659934E+02  0.49808026601E+02  0.41360445369E+02  0.13863842698E+03  0.81195612266E+02 0.  0.
         11    1    4    4    0    0 -0.85208742638E+02  0.31974438077E+02  0.62339931968E+02  0.11031392310E+03  0.00000000000E+00 0. -1.
        -12    1    4    4    0    0 -0.66409172963E+01  0.17833588524E+02 -0.20979486599E+02  0.28324503882E+02  0.00000000000E+00 0.  1.
        -11    1    3    3    0    0 -0.15337457749E+02 -0.51017195647E+02  0.97659232731E+02  0.11124440480E+03  0.00000000000E+00 0.  1.
         11    1    3    3    0    0  0.31641261382E+02  0.59577470068E+01  0.25080100795E+01  0.32294802767E+02  0.00000000000E+00 0. -1.
          4    1    1    2  501    0  0.75545856301E+02 -0.47485779610E+01  0.18044917682E+03  0.19568247446E+03  0.00000000000E+00 0. -1.
<scales pt_clust_5="13000.00000" pt_clust_6="13000.00000" pt_clust_7="13000.00000" pt_clust_8="13000.00000" pt_clust_9="75.69499"></scales>
<clustering>
<clus scale="   75.695">  2  9  1 -1</clus>
<clus scale="   81.196">  5  6 -1 -1</clus>
<clus scale="   90.961">  7  8 -1 -1</clus>
<clus scale="  101.614">  2  5  1 -1</clus>
<clus scale="   75.695">  2  5  1 -1</clus>
</clustering>
</event>
<event>
 9    1  0.5981539E-005  0.1344459E+03  0.7546771E-02  0.1223938E+00
         -4   -1    0    0    0  501 -0.00000000000E+00  0.00000000000E+00  0.62787434083E+02  0.62787434083E+02  0.00000000000E+00 0.  1.
         21   -1    0    0  501  502  0.00000000000E+00 -0.00000000000E+00 -0.40349052469E+03  0.40349052469E+03  0.00000000000E+00 0.  1.
         23    2    1    2    0    0  0.58134992595E+02 -0.94930005251E+02 -0.11021460618E+03  0.18154875795E+03  0.91767689502E+02 0.  0.
        -24    2    1    2    0    0 -0.50276737643E+02  0.59554355260E+02 -0.22065836418E+03  0.24718163037E+03  0.79587518687E+02 0.  0.
         11    1    4    4    0    0  0.15301393007E+02  0.19855394716E+02 -0.19030084099E+02  0.31472423296E+02  0.00000000000E+00 0. -1.
        -12    1    4    4    0    0 -0.65578130650E+02  0.39698960544E+02 -0.20162828008E+03  0.21570920707E+03  0.00000000000E+00 0.  1.
        -13    1    3    3    0    0  0.45351510912E+02 -0.46114293809E+02 -0.50149633560E+01  0.64872470995E+02  0.00000000000E+00 0.  1.
         13    1    3    3    0    0  0.12783481683E+02 -0.48815711442E+02 -0.10519964282E+03  0.11667628695E+03  0.00000000000E+00 0. -1.
         -3    1    1    2    0  502 -0.78582549521E+01  0.35375649991E+02 -0.98301202533E+01  0.37547570459E+02  0.00000000000E+00 0.  1.
<scales pt_clust_5="13000.00000" pt_clust_6="13000.00000" pt_clust_7="13000.00000" pt_clust_8="13000.00000" pt_clust_9="36.23796"></scales>
<clustering>
<clus scale="   36.238">  2  9  1 -1</clus>
<clus scale="   79.588">  5  6 -1 -1</clus>
<clus scale="   91.768">  7  8 -1 -1</clus>
<clus scale="  126.446">  2  5  1 -1</clus>
<clus scale="   36.238">  2  5  1 -1</clus>
</clustering>
</event>
<event>
 9    1  0.5981539E-005  0.9289566E+02  0.7546771E-02  0.1296136E+00
          1   -1    0    0  502    0 -0.00000000000E+00  0.00000000000E+00  0.41004702450E+03  0.41004702450E+03  0.00000000000E+00 0. -1.
         21   -1    0    0  501  502  0.00000000000E+00 -0.00000000000E+00 -0.11946337269E+03  0.11946337269E+03  0.00000000000E+00 0. -1.
        -24    2    1    2    0    0 -0.26937763302E+02  0.11637444473E+02  0.31602347537E+03  0.32966937048E+03  0.89162680786E+02 0.  0.
         23    2    1    2    0    0  0.13605464738E+02  0.69304234374E+01  0.61724138308E+02  0.10972958374E+03  0.89429149938E+02 0.  0.
         11    1    3    3    0    0 -0.53075617744E+02 -0.15738057527E+02  0.16814475613E+03  0.17702363307E+03  0.00000000000E+00 0. -1.
        -12    1    3    3    0    0  0.26137854443E+02  0.27375501999E+02  0.14787871924E+03  0.15264573741E+03  0.00000000000E+00 0.  1.
        -13    1    4    4    0    0  0.45773107166E+02  0.15172866997E+02  0.11590391380E+02  0.49595669216E+02  0.00000000000E+00 0.  1.
         13    1    4    4    0    0 -0.32167642429E+02 -0.82424435599E+01  0.50133746928E+02  0.60133914526E+02  0.00000000000E+00 0. -1.
          2    1    1    2  501    0  0.13332298564E+02 -0.18567867910E+02 -0.87163961868E+02  0.90111442960E+02  0.00000000000E+00 0. -1.
<scales pt_clust_5="13000.00000" pt_clust_6="13000.00000" pt_clust_7="13000.00000" pt_clust_8="13000.00000" pt_clust_9="22.85861"></scales>
<clustering>
<clus scale="   22.859">  2  9  1 -1</clus>
<clus scale="   89.163">  5  6 -1 -1</clus>
<clus scale="   89.429">  7  8 -1 -1</clus>
<clus scale="   92.639">  1  5  2 -1</clus>
<clus scale="   22.859">  2  5  1 -1</clus>
</clustering>
</event>
<event>
 9    1  0.5981539E-005  0.1214775E+03  0.7546771E-02  0.1260403E+00
         -2   -1    0    0    0  501 -0.00000000000E+00  0.00000000000E+00  0.43902379955E+03  0.43902379955E+03  0.00000000000E+00 0.  1.
         21   -1    0    0  501  502  0.00000000000E+00 -0.00000000000E+00 -0.73682949157E+02  0.73682949157E+02  0.00000000000E+00 0.  1.
        -24    2    1    2    0    0  0.21901000678E+01 -0.17412400463E+02  0.26735765039E+03  0.27963315232E+03  0.80041229538E+02 0.  0.
         23    2    1    2    0    0 -0.20976982587E+02 -0.64756039222E+02  0.95572588148E+02  0.14875034643E+03  0.91428483212E+02 0.  0.
         11    1    3    3    0    0 -0.16128456128E+02  0.20535569189E+02  0.36019824398E+02  0.44488925012E+02  0.00000000000E+00 0. -1.
        -12    1    3    3    0    0  0.18318556196E+02 -0.37947969652E+02  0.23133782599E+03  0.23514422731E+03  0.00000000000E+00 0.  1.
        -11    1    4    4    0    0 -0.36999988513E+02 -0.82017884135E+02  0.80919022695E+02  0.12101165523E+03  0.00000000000E+00 0.  1.
         11    1    4    4    0    0  0.16023005925E+02  0.17261844913E+02  0.14653565453E+02  0.27738691195E+02  0.00000000000E+00 0. -1.
         -1    1    1    2    0  502  0.18786882520E+02  0.82168439684E+02  0.24106118570E+01  0.84323249964E+02  0.00000000000E+00 0.  1.
<scales pt_clust_5="13000.00000" pt_clust_6="13000.00000" pt_clust_7="13000.00000" pt_clust_8="13000.00000" pt_clust_9="79.98507"></scales>
<clustering>
<clus scale="   80.041">  5  6 -1 -1</clus>
<clus scale="   81.943">  1  5  2 -1</clus>
<clus scale="   79.985">  2  9  1 -1</clus>
<clus scale="   91.428">  7  8 -1 -1</clus>
<clus scale="   79.985">  2  5  1 -1</clus>
</clustering>
</event>
<event>
 9    1  0.5981539E-005  0.1143521E+03  0.7546771E-02  0.1256214E+00
          1   -1    0    0  502    0 -0.00000000000E+00  0.00000000000E+00  0.22376651677E+03  0.22376651677E+03  0.00000000000E+00 0. -1.
         21   -1    0    0  501  502  0.00000000000E+00 -0.00000000000E+00 -0.14648878907E+03  0.14648878907E+03  0.00000000000E+00 0. -1.
        -24    2    1    2    0    0  0.14974230416E+01 -0.74007146108E+02 -0.37146606839E+00  0.11036805424E+03  0.81863724926E+02 0.  0.
         23    2    1    2    0    0  0.95452763499E+02  0.27031513542E+02  0.16607623449E+02  0.13606430530E+03  0.91628321150E+02 0.  0.
         13    1    3    3    0    0 -0.22518375589E+02 -0.28159308458E+02 -0.33253479937E+02  0.49049136791E+02  0.00000000000E+00 0. -1.
        -14    1    3    3    0    0  0.24015798630E+02 -0.45847837650E+02  0.32882013869E+02  0.61318917449E+02  0.00000000000E+00 0.  1.
        -11    1    4    4    0    0  0.39606742890E+02  0.55218358593E+02 -0.88469090184E+01  0.68527578443E+02  0.00000000000E+00 0.  1.
         11    1    4    4    0    0  0.55846020609E+02 -0.28186845050E+02  0.25454532468E+02  0.67536726859E+02  0.00000000000E+00 0. -1.
          2    1    1    2  501    0 -0.96950186540E+02  0.46975632566E+02  0.61041570320E+02  0.12382294631E+03  0.00000000000E+00 0. -1.
<scales pt_clust_5="13000.00000" pt_clust_6="13000.00000" pt_clust_7="13000.00000" pt_clust_8="13000.00000" pt_clust_9="107.73143"></scales>
<clustering>
<clus scale="   81.864">  5  6 -1 -1</clus>
<clus scale="   91.628">  7  8 -1 -1</clus>
<clus scale="  107.731">  2  9  1 -1</clus>
<clus scale="  106.688">  1  5  2 -1</clus>
<clus scale="  107.731">  2  5  1 -1</clus>
</clustering>
</event>
<event>
 9    1  0.5981539E-005  0.1213668E+03  0.7546771E-02  0.1242525E+00
         21   -1    0    0  501  502  0.00000000000E+00  0.00000000000E+00  0.20416913609E+03  0.20416913609E+03  0.00000000000E+00 0.  1.
          3   -1    0    0  502    0 -0.00000000000E+00 -0.00000000000E+00 -0.10835180573E+03  0.10835180573E+03  0.00000000000E+00 0. -1.
        -24    2    1    2    0    0  0.49415893638E+02 -0.44538406741E+02  0.19732717113E+02  0.10811158071E+03  0.82904363815E+02 0.  0.
         23    2    1    2    0    0 -0.83725570624E+02  0.74618921167E+02  0.67361654139E+02  0.15795420748E+03  0.88509799675E+02 0.  0.
         11    1    3    3    0    0  0.59975015873E+02  0.37807075829E+00  0.80447875193E+01  0.60513337973E+02  0.00000000000E+00 0. -1.
        -12    1    3    3    0    0 -0.10559122235E+02 -0.44916477499E+02  0.11687929593E+02  0.47598242735E+02  0.00000000000E+00 0.  1.
        -11    1    4    4    0    0 -0.46834596022E+02  0.91123007726E+02  0.47969231741E+02  0.11312793252E+03  0.00000000000E+00 0.  1.
         11    1    4    4    0    0 -0.36890974602E+02 -0.16504086560E+02  0.19392422399E+02  0.44826274959E+02  0.00000000000E+00 0. -1.
          4    1    1    2  501    0  0.34309676986E+02 -0.30080514426E+02  0.87229591065E+01  0.46455153628E+02  0.00000000000E+00 0. -1.
<scales pt_clust_5="13000.00000" pt_clust_6="13000.00000" pt_clust_7="13000.00000" pt_clust_8="13000.00000" pt_clust_9="45.62887"></scales>
<clustering>
<clus scale="   45.629">  1  9  2 -1</clus>
<clus scale="   82.904">  5  6 -1 -1</clus>
<clus scale="   88.510">  7  8 -1 -1</clus>
<clus scale="  117.342">  2  5  1 -1</clus>
<clus scale="   45.629">  1  5  2 -1</clus>
</clustering>
</event>
<event>
 9    1  0.5981539E-005  0.9800360E+02  0.7546771E-02  0.1288166E+00
         21   -1    0    0  501  502  0.00000000000E+00  0.00000000000E+00  0.65385358439E+03  0.65385358439E+03  0.00000000000E+00 0.  1.
          1   -1    0    0  502    0 -0.00000000000E+00 -0.00000000000E+00 -0.34940744878E+02  0.34940744878E+02  0.00000000000E+00 0. -1.
        -24    2    1    2    0    0  0.25382657308E+02  0.42056023238E+01  0.19168470414E+03  0.21038448585E+03  0.82804828988E+02 0.  0.
         23    2    1    2    0    0 -0.63380987388E+02  0.36724055412E+02  0.39963327690E+03  0.41611549226E+03  0.89886267509E+02 0.  0.
         11    1    3    3    0    0  0.20956000381E+01 -0.26511415854E+02  0.17151116667E+02  0.31645023512E+02  0.00000000000E+00 0. -1.
        -12    1    3    3    0    0  0.23287057270E+02  0.30717018178E+02  0.17453358747E+03  0.17873946234E+03  0.00000000000E+00 0.  1.
        -13    1    4    4    0    0 -0.63196316008E+02 -0.60628608771E+01  0.31439425052E+03  0.32074020234E+03  0.00000000000E+00 0.  1.
         13    1    4    4    0    0 -0.18467137915E+00  0.42786916289E+02  0.85239026386E+02  0.95375289925E+02  0.00000000000E+00 0. -1.
          2    1    1    2  501    0  0.37998330080E+02 -0.40929657736E+02  0.27594858471E+02  0.62294351150E+02  0.00000000000E+00 0. -1.
<scales pt_clust_5="13000.00000" pt_clust_6="13000.00000" pt_clust_7="13000.00000" pt_clust_8="13000.00000" pt_clust_9="55.84902"></scales>
<clustering>
<clus scale="   55.849">  1  9  2 -1</clus>
<clus scale="   82.805">  5  6 -1 -1</clus>
<clus scale="   89.886">  7  8 -1 -1</clus>
<clus scale="   91.552">  2  5  1 -1</clus>
<clus scale="   55.849">  1  5  2 -1</clus>
</clustering>
</event>
<event>
 9    1  0.5981539E-005  0.1359290E+03  0.7546771E-02  0.1221540E+00
          1   -1    0    0  502    0 -0.00000000000E+00  0.00000000000E+00  0.11286318212E+04  0.11286318212E+04  0.00000000000E+00 0. -1.
         21   -1    0    0  501  502  0.00000000000E+00 -0.00000000000E+00 -0.25335849406E+02  0.25335849406E+02  0.00000000000E+00 0. -1.
        -24    2    1    2    0    0 -0.87665342479E+02  0.38085597784E+02  0.67173886569E+03  0.68330890162E+03  0.80884030090E+02 0.  0.
         23    2    1    2    0    0  0.87419047915E+02 -0.71148734607E+02  0.39701600736E+03  0.42284329891E+03  0.92035389665E+02 0.  0.
         13    1    3    3    0    0 -0.39223482079E+02 -0.24027341335E+02  0.22051785358E+03  0.22526410816E+03  0.00000000000E+00 0. -1.
        -14    1    3    3    0    0 -0.48441860400E+02  0.62112939119E+02  0.45122101211E+03  0.45804479346E+03  0.00000000000E+00 0.  1.
        -11    1    4    4    0    0 -0.77491742207E+01 -0.43554377991E+02  0.90970016522E+02  0.10115620322E+03  0.00000000000E+00 0. -1.
         11    1    4    4    0    0  0.95168222136E+02 -0.27594356617E+02  0.30604599084E+03  0.32168709569E+03  0.00000000000E+00 0.  1.
          2    1    1    2  501    0  0.24629456370E+00  0.33063136823E+02  0.34541098763E+02  0.47815470105E+02  0.00000000000E+00 0. -1.
<scales pt_clust_5="13000.00000" pt_clust_6="13000.00000" pt_clust_7="13000.00000" pt_clust_8="13000.00000" pt_clust_9="33.06405"></scales>
<clustering>
<clus scale="   33.064">  2  9  1 -1</clus>
<clus scale="   80.884">  5  6 -1 -1</clus>
<clus scale="   92.035">  7  8 -1 -1</clus>
<clus scale="  128.641">  1  5  2 -1</clus>
<clus scale="   33.064">  2  5  1 -1</clus>
</clustering>
</event>
<event>
 9    1  0.5981539E-005  0.1289337E+03  0.7546771E-02  0.1241267E+00
          1   -1    0    0  502    0 -0.00000000000E+00  0.00000000000E+00  0.70142621950E+03  0.70142621950E+03  0.00000000000E+00 0. -1.
         21   -1    0    0  501  502  0.00000000000E+00 -0.00000000000E+00 -0.60368137279E+02  0.60368137279E+02  0.00000000000E+00 0. -1.
         23    2    1    2    0    0  0.34313215233E+02 -0.21277644986E+02  0.24108345060E+03  0.26115139188E+03  0.91916725436E+02 0.  0.
        -24    2    1    2    0    0  0.90574206297E+02 -0.18913388959E+02  0.60381438088E+02  0.13658840255E+03  0.80306105114E+02 0.  0.
         13    1    4    4    0    0  0.48593191548E+02 -0.30631010015E+02  0.71393752021E+02  0.91633099188E+02  0.00000000000E+00 0. -1.
        -14    1    4    4    0    0  0.41981014749E+02  0.11717621055E+02 -0.11012313933E+02  0.44955303366E+02  0.00000000000E+00 0.  1.
        -11    1    3    3    0    0  0.14397482075E+02 -0.42354211788E+02  0.22194296305E+03  0.22640637269E+03  0.00000000000E+00 0. -1.
         11    1    3    3    0    0  0.19915733158E+02  0.21076566801E+02  0.19140487548E+02  0.34745019196E+02  0.00000000000E+00 0.  1.
          2    1    1    2  501    0 -0.12488742153E+03  0.40191033946E+02  0.33959319354E+03  0.36405456234E+03  0.00000000000E+00 0. -1.
<scales pt_clust_5="13000.00000" pt_clust_6="13000.00000" pt_clust_7="13000.00000" pt_clust_8="13000.00000" pt_clust_9="100.87041"></scales>
<clustering>
<clus scale="   80.306">  5  6 -1 -1</clus>
<clus scale="   91.917">  7  8 -1 -1</clus>
<clus scale="  100.393">  1  7  2 -1</clus>
<clus scale="  100.870">  2  9  1 -1</clus>
<clus scale="  100.870">  2  5  1 -1</clus>
</clustering>
</event>
<event>
 9    1  0.5981539E-005  0.9348710E+02  0.7546771E-02  0.1307349E+00
         21   -1    0    0  501  502  0.00000000000E+00  0.00000000000E+00  0.20747532629E+03  0.20747532629E+03  0.00000000000E+00 0.  1.
          1   -1    0    0  502    0 -0.00000000000E+00 -0.00000000000E+00 -0.10998764521E+03  0.10998764521E+03  0.00000000000E+00 0. -1.
        -24    2    1    2    0    0 -0.53129866920E+01 -0.27393842925E+02 -0.34559179242E+02  0.84320197770E+02  0.71672229101E+02 0.  0.
         23    2    1    2    0    0  0.21732891629E+02 -0.44345771595E+02  0.11945746249E+03  0.15847900402E+03  0.91687749089E+02 0.  0.
         13    1    3    3    0    0  0.28968548575E+02 -0.28355875049E+02 -0.28352282550E+02  0.49468013727E+02  0.00000000000E+00 0. -1.
        -14    1    3    3    0    0 -0.34281535267E+02  0.96203212364E+00 -0.62068966920E+01  0.34852184043E+02  0.00000000000E+00 0.  1.
        -11    1    4    4    0    0 -0.15791234862E+02 -0.50158441898E+02  0.28272968021E+02  0.59704213526E+02  0.00000000000E+00 0. -1.
         11    1    4    4    0    0  0.37524126491E+02  0.58126703026E+01  0.91184494473E+02  0.98774790494E+02  0.00000000000E+00 0.  1.
          2    1    1    2  501    0 -0.16419904937E+02  0.71739614520E+02  0.12589397831E+02  0.74663769710E+02  0.00000000000E+00 0. -1.
<scales pt_clust_5="13000.00000" pt_clust_6="13000.00000" pt_clust_7="13000.00000" pt_clust_8="13000.00000" pt_clust_9="73.59478"></scales>
<clustering>
<clus scale="   71.672">  5  6 -1 -1</clus>
<clus scale="   73.595">  1  9  2 -1</clus>
<clus scale="   73.960">  2  5  1 -1</clus>
<clus scale="   91.688">  7  8 -1 -1</clus>
<clus scale="   73.595">  1  5  2 -1</clus>
</clustering>
</event>
<event>
 9    1  0.5981539E-005  0.9489502E+02  0.7546771E-02  0.1295910E+00
         21   -1    0    0  501  502  0.00000000000E+00  0.00000000000E+00  0.58258458793E+02  0.58258458793E+02  0.00000000000E+00 0.  1.
         -2   -1    0    0    0  501 -0.00000000000E+00 -0.00000000000E+00 -0.47067590139E+03  0.47067590139E+03  0.00000000000E+00 0.  1.
         23    2    1    2    0    0 -0.88231808580E+01 -0.34394664246E+02 -0.34550271110E+03  0.35900937721E+03  0.90855754362E+02 0.  0.
        -24    2    1    2    0    0  0.20992028799E+00 -0.21948205549E+02 -0.51419840029E+01  0.85873929632E+02  0.82862078164E+02 0.  0.
         11    1    4    4    0    0 -0.25315223164E+02 -0.35984203304E+02 -0.25014933523E+02  0.50610970258E+02  0.00000000000E+00 0. -1.
        -12    1    4    4    0    0  0.25525143452E+02  0.14035997755E+02  0.19872949520E+02  0.35262959375E+02  0.00000000000E+00 0.  1.
        -13    1    3    3    0    0 -0.39806380771E+02 -0.42926751027E+02 -0.27991822718E+03  0.28597459295E+03  0.00000000000E+00 0. -1.
         13    1    3    3    0    0  0.30983199913E+02  0.85320867810E+01 -0.65584483917E+02  0.73034784263E+02  0.00000000000E+00 0.  1.
         -1    1    1    2    0  502  0.86132605700E+01  0.56342869795E+02 -0.61772747498E+02  0.84051053341E+02  0.00000000000E+00 0.  1.
<scales pt_clust_5="13000.00000" pt_clust_6="13000.00000" pt_clust_7="13000.00000" pt_clust_8="13000.00000" pt_clust_9="56.99743"></scales>
<clustering>
<clus scale="   56.997">  1  9  2 -1</clus>
<clus scale="   82.862">  5  6 -1 -1</clus>
<clus scale="   87.272">  1  5  2 -1</clus>
<clus scale="   90.856">  7  8 -1 -1</clus>
<clus scale="   56.997">  1  5  2 -1</clus>
</clustering>
</event>
<event>
 9    1  0.5981539E-005  0.1955212E+03  0.7546771E-02  0.1155030E+00
         21   -1    0    0  501  502  0.00000000000E+00  0.00000000000E+00  0.13123672896E+03  0.13123672896E+03  0.00000000000E+00 0. -1.
         -4   -1    0    0    0  501 -0.00000000000E+00 -0.00000000000E+00 -0.45135486090E+03  0.45135486090E+03  0.00000000000E+00 0.  1.
        -24    2    1    2    0    0 -0.15927142201E+03  0.39945406135E+02 -0.24512290853E+03  0.30578151041E+03  0.80337229751E+02 0.  0.
         23    2    1    2    0    0  0.19225046636E+03 -0.21204377121E+02 -0.29226285844E+02  0.21736565850E+03  0.94782837522E+02 0.  0.
         11    1    3    3    0    0 -0.47297746790E+02 -0.23413402659E+02 -0.55061662749E+02  0.76269594073E+02  0.00000000000E+00 0. -1.
        -12    1    3    3    0    0 -0.11197367522E+03  0.63358808794E+02 -0.19006124578E+03  0.22951191634E+03  0.00000000000E+00 0.  1.
        -13    1    4    4    0    0  0.22698018927E+02  0.29713991459E+02 -0.13015260806E+02  0.39591897725E+02  0.00000000000E+00 0.  1.
         13    1    4    4    0    0  0.16955244743E+03 -0.50918368580E+02 -0.16211025038E+02  0.17777376078E+03  0.00000000000E+00 0. -1.
         -3    1    1    2    0  502 -0.32979044346E+02 -0.18741029013E+02 -0.45768937576E+02  0.59444420943E+02  0.00000000000E+00 0.  1.
<scales pt_clust_5="13000.00000" pt_clust_6="13000.00000" pt_clust_7="13000.00000" pt_clust_8="13000.00000" pt_clust_9="37.93211"></scales>
<clustering>
<clus scale="   37.932">  1  9  2 -1</clus>
<clus scale="   80.337">  5  6 -1 -1</clus>
<clus scale="   94.783">  7  8 -1 -1</clus>
<clus scale="  188.941">  2  5  1 -1</clus>
<clus scale="   37.932">  1  5  2 -1</clus>
</clustering>
</event>
<event>
 9    1  0.5981539E-005  0.9106985E+02  0.7546771E-02  0.1303403E+00
         21   -1    0    0  501  502  0.00000000000E+00  0.00000000000E+00  0.15093235900E+03  0.15093235900E+03  0.00000000000E+00 0. -1.
          1   -1    0    0  502    0 -0.00000000000E+00 -0.00000000000E+00 -0.45205451502E+03  0.45205451502E+03  0.00000000000E+00 0. -1.
         23    2    1    2    0    0  0.18973251768E+02 -0.24601427389E+02 -0.40685376913E+03  0.41689771313E+03  0.85489761072E+02 0.  0.
        -24    2    1    2    0    0 -0.49107128661E+01  0.39230160451E+02  0.11887293362E+02  0.90076082715E+02  0.80057931174E+02 0.  0.
         13    1    4    4    0    0  0.13872356723E+02  0.59821923373E+02  0.87121092589E+01  0.62024234335E+02  0.00000000000E+00 0. -1.
        -14    1    4    4    0    0 -0.18783069589E+02 -0.20591762922E+02  0.31751841031E+01  0.28051848380E+02  0.00000000000E+00 0.  1.
        -11    1    3    3    0    0 -0.23159290789E+01 -0.53586324287E+02 -0.27759247541E+03  0.28272679407E+03  0.00000000000E+00 0.  1.
         11    1    3    3    0    0  0.21289180847E+02  0.28984896898E+02 -0.12926129371E+03  0.13417091906E+03  0.00000000000E+00 0. -1.
          2    1    1    2  501    0 -0.14062538902E+02 -0.14628733062E+02  0.93844319752E+02  0.96013078177E+02  0.00000000000E+00 0. -1.
<scales pt_clust_5="13000.00000" pt_clust_6="13000.00000" pt_clust_7="13000.00000" pt_clust_8="13000.00000" pt_clust_9="20.29174"></scales>
<clustering>
<clus scale="   20.292">  1  9  2 -1</clus>
<clus scale="   80.058">  5  6 -1 -1</clus>
<clus scale="   85.490">  7  8 -1 -1</clus>
<clus scale="   85.991">  1  5  2 -1</clus>
<clus scale="   20.292">  1  5  2 -1</clus>
</clustering>
</event>
<event>
 9    1  0.5981539E-005  0.1804968E+03  0.7546771E-02  0.1168348E+00
          1   -1    0    0  502    0 -0.00000000000E+00  0.00000000000E+00  0.15943676593E+04  0.15943676593E+04  0.00000000000E+00 0. -1.
         21   -1    0    0  501  502  0.00000000000E+00 -0.00000000000E+00 -0.33401119952E+02  0.33401119952E+02  0.00000000000E+00 0. -1.
         23    2    1    2    0    0  0.57456031944E+02  0.12826638212E+03  0.67151617217E+03  0.69188176912E+03  0.89515096883E+02 0.  0.
        -24    2    1    2    0    0 -0.15226588030E+01 -0.19035439929E+03  0.66394096130E+03  0.69539177890E+03  0.80715613419E+02 0.  0.
         11    1    4    4    0    0 -0.31102905928E+01 -0.16524580318E+03  0.63876255870E+03  0.65979804166E+03  0.00000000000E+00 0. -1.
        -12    1    4    4    0    0  0.15876317898E+01 -0.25108596111E+02  0.25178402595E+02  0.35593737238E+02  0.00000000000E+00 0.  1.
        -13    1    3    3    0    0  0.76141231406E+02  0.83608927666E+02  0.54063030541E+03  0.55233057768E+03  0.00000000000E+00 0. -1.
         13    1    3    3    0    0 -0.18685199462E+02  0.44657454457E+02  0.13088586675E+03  0.13955119144E+03  0.00000000000E+00 0.  1.
          2    1    1    2  501    0 -0.55933373141E+02  0.62088017165E+02  0.22550940593E+03  0.24049523129E+03  0.00000000000E+00 0. -1.
<scales pt_clust_5="13000.00000" pt_clust_6="13000.00000" pt_clust_7="13000.00000" pt_clust_8="13000.00000" pt_clust_9="83.56712"></scales>
<clustering>
<clus scale="   80.716">  5  6 -1 -1</clus>
<clus scale="   83.567">  2  9  1 -1</clus>
<clus scale="   89.515">  7  8 -1 -1</clus>
<clus scale="  176.298">  2  5  1 -1</clus>
<clus scale="   83.567">  2  5  1 -1</clus>
</clustering>
</event>
<event>
 9    1  0.5981539E-005  0.9556711E+02  0.7546771E-02  0.1293951E+00
          3   -1    0    0  502    0 -0.00000000000E+00  0.00000000000E+00  0.61147745879E+02  0.61147745879E+02  0.00000000000E+00 0. -1.
         21   -1    0    0  501  502  0.00000000000E+00 -0.00000000000E+00 -0.35960730258E+03  0.35960730258E+03  0.00000000000E+00 0. -1.
        -24    2    1    2    0    0 -0.15736967441E+02 -0.14307366047E+02 -0.26713053680E+02  0.88646331017E+02  0.81806062724E+02 0.  0.
         23    2    1    2    0    0  0.22874674753E+02  0.81584142572E+02 -0.18198342441E+03  0.21970532867E+03  0.89293009929E+02 0.  0.
         11    1    3    3    0    0  0.26107905501E+02  0.12351692770E+02  0.56218327702E+01  0.29424344472E+02  0.00000000000E+00 0. -1.
        -12    1    3    3    0    0 -0.41844872942E+02 -0.26659058817E+02 -0.32334886451E+02  0.59221986545E+02  0.00000000000E+00 0.  1.
        -11    1    4    4    0    0  0.44037452615E+02  0.12441107031E+02 -0.41832887099E+02  0.62000554998E+02  0.00000000000E+00 0. -1.
         11    1    4    4    0    0 -0.21162777862E+02  0.69143035541E+02 -0.14015053731E+03  0.15770477367E+03  0.00000000000E+00 0.  1.
          4    1    1    2  501    0 -0.71377073121E+01 -0.67276776525E+02 -0.89763078609E+02  0.11240338877E+03  0.00000000000E+00 0. -1.
<scales pt_clust_5="13000.00000" pt_clust_6="13000.00000" pt_clust_7="13000.00000" pt_clust_8="13000.00000" pt_clust_9="67.65435"></scales>
<clustering>
<clus scale="   67.654">  2  9  1 -1</clus>
<clus scale="   81.806">  5  6 -1 -1</clus>
<clus scale="   88.612">  1  5  2 -1</clus>
<clus scale="   89.293">  7  8 -1 -1</clus>
<clus scale="   67.654">  2  5  1 -1</clus>
</clustering>
</event>
<event>
 9    1  0.5981539E-005  0.1250284E+03  0.7546771E-02  0.1238079E+00
         -4   -1    0    0    0  501 -0.00000000000E+00  0.00000000000E+00  0.30413736804E+02  0.30413736804E+02  0.00000000000E+00 0.  1.
         21   -1    0    0  501  502  0.00000000000E+00 -0.00000000000E+00 -0.67962163992E+03  0.67962163992E+03  0.00000000000E+00 0.  1.
        -24    2    1    2    0    0 -0.15592980550E+02 -0.73979662358E+02 -0.19998216891E+03  0.22806871301E+03  0.79412458001E+02 0.  0.
         23    2    1    2    0    0  0.15163688317E+01  0.10521048792E+03 -0.33025109188E+03  0.35815842095E+03  0.90222639406E+02 0.  0.
         11    1    3    3    0    0  0.29689620660E+02 -0.18926760904E+02 -0.93683495752E+02  0.10008143299E+03  0.00000000000E+00 0. -1.
        -12    1    3    3    0    0 -0.45282601210E+02 -0.55052901454E+02 -0.10629867316E+03  0.12798728002E+03  0.00000000000E+00 0.  1.
        -13    1    4    4    0    0 -0.27192563424E+02  0.62747210157E+01 -0.13001467075E+03  0.13297602129E+03  0.00000000000E+00 0.  1.
         13    1    4    4    0    0  0.28708932255E+02  0.98935766902E+02 -0.20023642114E+03  0.22518239965E+03  0.00000000000E+00 0. -1.
         -3    1    1    2    0  502  0.14076611719E+02 -0.31230825560E+02 -0.11897464231E+03  0.12380824276E+03  0.00000000000E+00 0.  1.
<scales pt_clust_5="13000.00000" pt_clust_6="13000.00000" pt_clust_7="13000.00000" pt_clust_8="13000.00000" pt_clust_9="34.25661"></scales>
<clustering>
<clus scale="   34.257">  2  9  1 -1</clus>
<clus scale="   79.412">  5  6 -1 -1</clus>
<clus scale="   90.223">  7  8 -1 -1</clus>
<clus scale="  117.466">  1  5  2 -1</clus>
<clus scale="   34.257">  2  5  1 -1</clus>
</clustering>
</event>
<event>
 9    1  0.5981539E-005  0.1035377E+03  0.7546771E-02  0.1278520E+00
         21   -1    0    0  501  502  0.00000000000E+00  0.00000000000E+00  0.11332474646E+03  0.11332474646E+03  0.00000000000E+00 0. -1.
          1   -1    0    0  502    0 -0.00000000000E+00 -0.00000000000E+00 -0.18501447413E+03  0.18501447413E+03  0.00000000000E+00 0. -1.
         23    2    1    2    0    0  0.43662274165E+02 -0.20381774615E+02 -0.82260055694E+02  0.13263097020E+03  0.92208712019E+02 0.  0.
        -24    2    1    2    0    0 -0.53858623145E+02 -0.24861963492E+02  0.43333632807E+02  0.10892448940E+03  0.80423082160E+02 0.  0.
         13    1    4    4    0    0 -0.70459948035E+02 -0.36559117932E+02  0.37519713493E+02  0.87800354679E+02  0.00000000000E+00 0. -1.
        -14    1    4    4    0    0  0.16601324891E+02  0.11697154440E+02  0.58139193142E+01  0.21124134726E+02  0.00000000000E+00 0.  1.
        -11    1    3    3    0    0  0.30183980391E+02 -0.46500030707E+02 -0.86697764711E+02  0.10290688963E+03  0.00000000000E+00 0. -1.
         11    1    3    3    0    0  0.13478293774E+02  0.26118256092E+02  0.44377090172E+01  0.29724080569E+02  0.00000000000E+00 0.  1.
          2    1    1    2  501    0  0.10196348979E+02  0.45243738107E+02 -0.32763304792E+02  0.56783760982E+02  0.00000000000E+00 0. -1.
<scales pt_clust_5="13000.00000" pt_clust_6="13000.00000" pt_clust_7="13000.00000" pt_clust_8="13000.00000" pt_clust_9="46.37848"></scales>
<clustering>
<clus scale="   46.378">  1  9  2 -1</clus>
<clus scale="   80.423">  5  6 -1 -1</clus>
<clus scale="   92.209">  7  8 -1 -1</clus>
<clus scale="   93.196">  1  5  2 -1</clus>
<clus scale="   46.378">  1  5  2 -1</clus>
</clustering>
</event>
<event>
 9    1  0.5981539E-005  0.9357972E+02  0.7546771E-02  0.1297052E+00
         21   -1    0    0  501  502  0.00000000000E+00  0.00000000000E+00  0.20567466067E+03  0.20567466067E+03  0.00000000000E+00 0. -1.
         -2   -1    0    0    0  501 -0.00000000000E+00 -0.00000000000E+00 -0.13466647314E+03  0.13466647314E+03  0.00000000000E+00 0.  1.
         23    2    1    2    0    0 -0.42240821163E+02  0.26228292532E+02 -0.89228986743E+02  0.12789367976E+03  0.76959540967E+02 0.  0.
        -24    2    1    2    0    0  0.58680433047E+02 -0.53995772316E+02  0.11875341611E+03  0.15989085633E+03  0.71440712846E+02 0.  0.
         11    1    4    4    0    0  0.66424198599E+02 -0.37084093498E+02  0.11905844487E+03  0.14128806547E+03  0.00000000000E+00 0. -1.
        -12    1    4    4    0    0 -0.77437655518E+01 -0.16911678818E+02 -0.30502876274E+00  0.18602790863E+02  0.00000000000E+00 0.  1.
        -13    1    3    3    0    0 -0.62548443997E+02  0.21909911191E+02 -0.83008067444E+02  0.10622001372E+03  0.00000000000E+00 0.  1.
         13    1    3    3    0    0  0.20307622833E+02  0.43183813413E+01 -0.62209192995E+01  0.21673666037E+02  0.00000000000E+00 0. -1.
         -1    1    1    2    0  502 -0.16439611884E+02  0.27767479783E+02  0.41483758160E+02  0.52556597716E+02  0.00000000000E+00 0.  1.
<scales pt_clust_5="13000.00000" pt_clust_6="13000.00000" pt_clust_7="13000.00000" pt_clust_8="13000.00000" pt_clust_9="32.26908"></scales>
<clustering>
<clus scale="   32.269">  1  9  2 -1</clus>
<clus scale="   71.441">  5  6 -1 -1</clus>
<clus scale="   76.960">  7  8 -1 -1</clus>
<clus scale="   89.096">  1  5  2 -1</clus>
<clus scale="   32.269">  1  5  2 -1</clus>
</clustering>
</event>
<event>
 9    1  0.5981539E-005  0.9909177E+02  0.7546771E-02  0.1289700E+00
         -2   -1    0    0    0  501 -0.00000000000E+00  0.00000000000E+00  0.16410721624E+03  0.16410721624E+03  0.00000000000E+00 0.  1.
         21   -1    0    0  501  502  0.00000000000E+00 -0.00000000000E+00 -0.25519465525E+03  0.25519465525E+03  0.00000000000E+00 0.  1.
         23    2    1    2    0    0 -0.36063953130E+02 -0.29073338174E+02  0.28365608037E+02  0.10760230197E+03  0.92885843717E+02 0.  0.
        -24    2    1    2    0    0 -0.40552608593E+02  0.77963900907E+01 -0.18717488053E+03  0.20725315847E+03  0.78829804203E+02 0.  0.
         11    1    4    4    0    0 -0.36903114192E+02  0.39100016392E+02 -0.87338251370E+02  0.10256032991E+03  0.00000000000E+00 0. -1.
        -12    1    4    4    0    0 -0.36494944008E+01 -0.31303626301E+02 -0.99836629161E+02  0.10469282856E+03  0.00000000000E+00 0.  1.
        -13    1    3    3    0    0 -0.23432030653E+02  0.26124430895E+02 -0.13057279314E+02  0.37443804470E+02  0.00000000000E+00 0.  1.
         13    1    3    3    0    0 -0.12631922477E+02 -0.55197769069E+02  0.41422887351E+02  0.70158497505E+02  0.00000000000E+00 0. -1.
         -1    1    1    2    0  502  0.76616561723E+02  0.21276948083E+02  0.67721833483E+02  0.10444641105E+03  0.00000000000E+00 0.  1.
<scales pt_clust_5="13000.00000" pt_clust_6="13000.00000" pt_clust_7="13000.00000" pt_clust_8="13000.00000" pt_clust_9="79.51611"></scales>
<clustering>
<clus scale="   78.830">  5  6 -1 -1</clus>
<clus scale="   79.516">  2  9  1 -1</clus>
<clus scale="   86.055">  2  5  1 -1</clus>
<clus scale="   92.886">  7  8 -1 -1</clus>
<clus scale="   79.516">  2  5  1 -1</clus>
</clustering>
</event>
<event>
 9    1  0.5981539E-005  0.1186789E+03  0.7546771E-02  0.1248422E+00
         21   -1    0    0  501  502  0.00000000000E+00  0.00000000000E+00  0.12573130295E+03  0.12573130295E+03  0.00000000000E+00 0. -1.
          1   -1    0    0  502    0 -0.00000000000E+00 -0.00000000000E+00 -0.38764282800E+03  0.38764282800E+03  0.00000000000E+00 0. -1.
        -24    2    1    2    0    0  0.40635450387E+02 -0.68090324395E+02 -0.29191502109E+03  0.31255802698E+03  0.78680420608E+02 0.  0.
         23    2    1    2    0    0 -0.56555776585E+02  0.55876088946E+02 -0.41860590339E+02  0.12620316111E+03  0.88624125773E+02 0.  0.
         11    1    3    3    0    0  0.44793129609E+02 -0.84031037732E+02 -0.25012727139E+03  0.26764022802E+03  0.00000000000E+00 0. -1.
        -12    1    3    3    0    0 -0.41576792222E+01  0.15940713337E+02 -0.41787749700E+02  0.44917798958E+02  0.00000000000E+00 0.  1.
        -11    1    4    4    0    0 -0.20574725604E+02  0.28410849402E+02  0.26674853181E+02  0.44068622506E+02  0.00000000000E+00 0.  1.
         11    1    4    4    0    0 -0.35981050981E+02  0.27465239545E+02 -0.68535443519E+02  0.82134538602E+02  0.00000000000E+00 0. -1.
          2    1    1    2  501    0  0.15920326198E+02  0.12214235449E+02  0.71864086373E+02  0.74612942872E+02  0.00000000000E+00 0. -1.
<scales pt_clust_5="13000.00000" pt_clust_6="13000.00000" pt_clust_7="13000.00000" pt_clust_8="13000.00000" pt_clust_9="20.06600"></scales>
<clustering>
<clus scale="   20.066">  1  9  2 -1</clus>
<clus scale="   78.680">  5  6 -1 -1</clus>
<clus scale="   88.624">  7  8 -1 -1</clus>
<clus scale="  111.450">  2  5  1 -1</clus>
<clus scale="   20.066">  1  5  2 -1</clus>
</clustering>
</event>
<event>
 9    1  0.5981539E-005  0.1309907E+03  0.7546771E-02  0.1229823E+00
         21   -1    0    0  501  502  0.00000000000E+00  0.00000000000E+00  0.32304530944E+03  0.32304530944E+03  0.00000000000E+00 0. -1.
         -2   -1    0    0    0  501 -0.00000000000E+00 -0.00000000000E+00 -0.67881547017E+02  0.67881547017E+02  0.00000000000E+00 0.  1.
        -24    2    1    2    0    0  0.41051571702E+02  0.74867663849E+02  0.71024019524E+02  0.13627565688E+03  0.78969897305E+02 0.  0.
         23    2    1    2    0    0 -0.72815421211E+02 -0.73310500922E+02  0.12375353145E+03  0.18640267266E+03  0.93565510303E+02 0.  0.
         11    1    3    3    0    0  0.24152483920E+02  0.11755274378E+02  0.65396363770E+02  0.70698043463E+02  0.00000000000E+00 0. -1.
        -12    1    3    3    0    0  0.16899087783E+02  0.63112389472E+02  0.56276557543E+01  0.65577613421E+02  0.00000000000E+00 0.  1.
        -11    1    4    4    0    0 -0.59425989752E+02 -0.26674648518E+02  0.12146525422E+03  0.13782885444E+03  0.00000000000E+00 0.  1.
         11    1    4    4    0    0 -0.13389431458E+02 -0.46635852404E+02  0.22882772219E+01  0.48573818224E+02  0.00000000000E+00 0. -1.
         -1    1    1    2    0  502  0.31763849508E+02 -0.15571629270E+01  0.60386211451E+02  0.68248526910E+02  0.00000000000E+00 0.  1.
<scales pt_clust_5="13000.00000" pt_clust_6="13000.00000" pt_clust_7="13000.00000" pt_clust_8="13000.00000" pt_clust_9="31.80200"></scales>
<clustering>
<clus scale="   31.802">  1  9  2 -1</clus>
<clus scale="   78.970">  5  6 -1 -1</clus>
<clus scale="   93.566">  7  8 -1 -1</clus>
<clus scale="  120.997">  2  5  1 -1</clus>
<clus scale="   31.802">  1  5  2 -1</clus>
</clustering>
</event>
<event>
 9    1  0.5981539E-005  0.1506514E+03  0.7546771E-02  0.1202199E+00
          1   -1    0    0  502    0 -0.00000000000E+00  0.00000000000E+00  0.26645797393E+03  0.26645797393E+03  0.00000000000E+00 0. -1.
         21   -1    0    0  501  502  0.00000000000E+00 -0.00000000000E+00 -0.15466197119E+03  0.15466197119E+03  0.00000000000E+00 0. -1.
        -24    2    1    2    0    0  0.10165105702E+03 -0.69679360159E+02  0.16141613396E+03  0.21693852163E+03  0.76282391407E+02 0.  0.
         23    2    1    2    0    0 -0.10754392765E+03  0.34426239713E+02 -0.72440874150E+02  0.16177511814E+03  0.90402689367E+02 0.  0.
         11    1    3    3    0    0  0.76858494160E+02 -0.85461767819E+02  0.13616901160E+03  0.17819355096E+03  0.00000000000E+00 0. -1.
        -12    1    3    3    0    0  0.24792562865E+02  0.15782407660E+02  0.25247122357E+02  0.38744970671E+02  0.00000000000E+00 0.  1.
        -11    1    4    4    0    0 -0.76705802763E+02  0.72489149207E+01  0.16283270784E+01  0.77064767528E+02  0.00000000000E+00 0.  1.
         11    1    4    4    0    0 -0.30838124888E+02  0.27177324792E+02 -0.74069201228E+02  0.84710350608E+02  0.00000000000E+00 0. -1.
          2    1    1    2  501    0  0.58928706267E+01  0.35253120447E+02  0.22820742942E+02  0.42406305355E+02  0.00000000000E+00 0. -1.
<scales pt_clust_5="13000.00000" pt_clust_6="13000.00000" pt_clust_7="13000.00000" pt_clust_8="13000.00000" pt_clust_9="35.74227"></scales>
<clustering>
<clus scale="   35.742">  2  9  1 -1</clus>
<clus scale="   76.282">  5  6 -1 -1</clus>
<clus scale="   90.403">  7  8 -1 -1</clus>
<clus scale="  142.626">  1  5  2 -1</clus>
<clus scale="   35.742">  2  5  1 -1</clus>
</clustering>
</event>
<event>
 9    1  0.5981539E-005  0.1079683E+03  0.7546771E-02  0.1270866E+00
         21   -1    0    0  501  502  0.00000000000E+00  0.00000000000E+00  0.25988068596E+03  0.25988068596E+03  0.00000000000E+00 0.  1.
         -4   -1    0    0    0  501 -0.00000000000E+00 -0.00000000000E+00 -0.79910646852E+02  0.79910646852E+02  0.00000000000E+00 0.  1.
         23    2    1    2    0    0  0.64014659942E+02 -0.66396088301E+02  0.63403085089E+02  0.14442292298E+03  0.91278213466E+02 0.  0.
        -24    2    1    2    0    0 -0.34070082908E+02  0.43144142226E+00  0.74669555948E+02  0.11168206509E+03  0.75738922533E+02 0.  0.
         13    1    4    4    0    0 -0.55856905307E+00  0.31068196047E+02  0.52845927646E+02  0.61304460472E+02  0.00000000000E+00 0. -1.
        -14    1    4    4    0    0 -0.33511513855E+02 -0.30636754625E+02  0.21823628302E+02  0.50377604618E+02  0.00000000000E+00 0.  1.
        -11    1    3    3    0    0  0.26774857563E+02 -0.80396555405E+02  0.61294294993E+02  0.10458245416E+03  0.00000000000E+00 0.  1.
         11    1    3    3    0    0  0.37239802379E+02  0.14000467104E+02  0.21087900961E+01  0.39840468823E+02  0.00000000000E+00 0. -1.
         -3    1    1    2    0  502 -0.29944577034E+02  0.65964646879E+02  0.41897398072E+02  0.83686344745E+02  0.00000000000E+00 0.  1.
<scales pt_clust_5="13000.00000" pt_clust_6="13000.00000" pt_clust_7="13000.00000" pt_clust_8="13000.00000" pt_clust_9="72.44320"></scales>
<clustering>
<clus scale="   72.443">  1  9  2 -1</clus>
<clus scale="   75.739">  5  6 -1 -1</clus>
<clus scale="   91.278">  7  8 -1 -1</clus>
<clus scale="   95.194">  1  5  2 -1</clus>
<clus scale="   72.443">  1  5  2 -1</clus>
</clustering>
</event>
<event>
 9    1  0.5981539E-005  0.1237536E+03  0.7546771E-02  0.1240422E+00
          1   -1    0    0  502    0 -0.00000000000E+00  0.00000000000E+00  0.22636594615E+03  0.22636594615E+03  0.00000000000E+00 0. -1.
         21   -1    0    0  501  502  0.00000000000E+00 -0.00000000000E+00 -0.13125278193E+03  0.13125278193E+03  0.00000000000E+00 0.  1.
         23    2    1    2    0    0  0.80114338791E+02  0.42774510674E+01  0.12720212152E+03  0.17617134652E+03  0.91757069194E+02 0.  0.
        -24    2    1    2    0    0 -0.86952782811E+02 -0.51765351601E+02 -0.33520380995E+02  0.13344827753E+03  0.80276950419E+02 0.  0.
         13    1    4    4    0    0 -0.60219101985E+02 -0.14953982745E+02  0.18106738232E+02  0.64636025661E+02  0.00000000000E+00 0. -1.
        -14    1    4    4    0    0 -0.26733680826E+02 -0.36811368856E+02 -0.51627119227E+02  0.68812251869E+02  0.00000000000E+00 0.  1.
        -13    1    3    3    0    0  0.59668084895E+02  0.34392042328E+02  0.12102890089E+03  0.13925188609E+03  0.00000000000E+00 0.  1.
         13    1    3    3    0    0  0.20446253896E+02 -0.30114591260E+02  0.61732206352E+01  0.36919460426E+02  0.00000000000E+00 0. -1.
          2    1    1    2  501    0  0.68384440196E+01  0.47487900533E+02  0.14314236887E+01  0.47999104028E+02  0.00000000000E+00 0. -1.
<scales pt_clust_5="13000.00000" pt_clust_6="13000.00000" pt_clust_7="13000.00000" pt_clust_8="13000.00000" pt_clust_9="47.97776"></scales>
<clustering>
<clus scale="   47.978">  2  9  1 -1</clus>
<clus scale="   80.277">  5  6 -1 -1</clus>
<clus scale="   91.757">  7  8 -1 -1</clus>
<clus scale="  115.499">  2  5  1 -1</clus>
<clus scale="   47.978">  2  5  1 -1</clus>
</clustering>
</event>
<event>
 9    1  0.5981539E-005  0.1018987E+03  0.7546771E-02  0.1280555E+00
          1   -1    0    0  502    0 -0.00000000000E+00  0.00000000000E+00  0.17423014471E+03  0.17423014471E+03  0.00000000000E+00 0. -1.
         21   -1    0    0  501  502  0.00000000000E+00 -0.00000000000E+00 -0.14591398239E+03  0.14591398239E+03  0.00000000000E+00 0. -1.
         23    2    1    2    0    0 -0.65315288209E-01 -0.93344653660E+01  0.83742471543E+01  0.92761054173E+02  0.91909458959E+02 0.  0.
        -24    2    1    2    0    0  0.21461683499E+02  0.98970961995E+02 -0.74976751475E+01  0.13122987632E+03  0.83121658605E+02 0.  0.
         13    1    4    4    0    0  0.72461745808E+01  0.46708705401E+02 -0.45071241384E+02  0.65311767746E+02  0.00000000000E+00 0. -1.
        -14    1    4    4    0    0  0.14215508918E+02  0.52262256594E+02  0.37573566236E+02  0.65918108573E+02  0.00000000000E+00 0.  1.
        -11    1    3    3    0    0  0.50710210120E+00  0.28955905578E+02  0.35513458929E+02  0.45824746431E+02  0.00000000000E+00 0. -1.
         11    1    3    3    0    0 -0.57241738940E+00 -0.38290370944E+02 -0.27139211774E+02  0.46936307742E+02  0.00000000000E+00 0.  1.
          2    1    1    2  501    0 -0.21396368211E+02 -0.89636496629E+02  0.27439590312E+02  0.96153196603E+02  0.00000000000E+00 0. -1.
<scales pt_clust_5="13000.00000" pt_clust_6="13000.00000" pt_clust_7="13000.00000" pt_clust_8="13000.00000" pt_clust_9="92.15484"></scales>
<clustering>
<clus scale="   83.122">  5  6 -1 -1</clus>
<clus scale="   91.909">  7  8 -1 -1</clus>
<clus scale="   92.155">  2  9  1 -1</clus>
<clus scale="   94.049">  2  5  1 -1</clus>
<clus scale="   92.155">  2  5  1 -1</clus>
</clustering>
</event>
<event>
 9    1  0.5981539E-005  0.9434361E+02  0.7546771E-02  0.1302237E+00
         21   -1    0    0  501  502  0.00000000000E+00  0.00000000000E+00  0.27781527669E+03  0.27781527669E+03  0.00000000000E+00 0.  1.
          1   -1    0    0  502    0 -0.00000000000E+00 -0.00000000000E+00 -0.74684773469E+02  0.74684773469E+02  0.00000000000E+00 0. -1.
        -24    2    1    2    0    0 -0.30375981598E+01  0.31891934633E+02 -0.27947801035E+02  0.85776884723E+02  0.74500146797E+02 0.  0.
         23    2    1    2    0    0  0.13381124274E+02  0.77212065734E+01  0.15049410525E+03  0.17633509865E+03  0.90592051427E+02 0.  0.
         13    1    3    3    0    0 -0.36428233715E+02  0.27926774159E+02 -0.77473633544E+01  0.46550430347E+02  0.00000000000E+00 0. -1.
        -14    1    3    3    0    0  0.33390635556E+02  0.39651604741E+01 -0.20200437681E+02  0.39226454376E+02  0.00000000000E+00 0.  1.
        -13    1    4    4    0    0  0.50615840781E+02  0.16943982415E+02  0.92704981003E+02  0.10697324610E+03  0.00000000000E+00 0.  1.
         13    1    4    4    0    0 -0.37234716507E+02 -0.92227758418E+01  0.57789124249E+02  0.69361852549E+02  0.00000000000E+00 0. -1.
          2    1    1    2  501    0 -0.10343526114E+02 -0.39613141207E+02  0.80584199001E+02  0.90388066786E+02  0.00000000000E+00 0. -1.
<scales pt_clust_5="13000.00000" pt_clust_6="13000.00000" pt_clust_7="13000.00000" pt_clust_8="13000.00000" pt_clust_9="40.94129"></scales>
<clustering>
<clus scale="   40.941">  1  9  2 -1</clus>
<clus scale="   74.500">  5  6 -1 -1</clus>
<clus scale="   79.019">  2  5  1 -1</clus>
<clus scale="   90.592">  7  8 -1 -1</clus>
<clus scale="   40.941">  1  5  2 -1</clus>
</clustering>
</event>
<event>
 9    1  0.5981539E-005  0.8908824E+02  0.7546771E-02  0.1307474E+00
          1   -1    0    0  502    0 -0.00000000000E+00  0.00000000000E+00  0.24156319713E+03  0.24156319713E+03  0.00000000000E+00 0. -1.
         21   -1    0    0  501  502  0.00000000000E+00 -0.00000000000E+00 -0.13326131027E+03  0.13326131027E+03  0.00000000000E+00 0.  1.
         23    2    1    2    0    0  0.39920368191E+02  0.18860335822E+01  0.16090974784E+03  0.18200161528E+03  0.75069621647E+02 0.  0.
        -24    2    1    2    0    0 -0.38181096541E+02  0.47406304060E+02  0.22913888158E+02  0.10262148299E+03  0.79378641355E+02 0.  0.
         11    1    4    4    0    0 -0.12917536904E+02  0.48419314598E+02  0.46265391613E+02  0.68203953309E+02  0.00000000000E+00 0. -1.
        -12    1    4    4    0    0 -0.25263559637E+02 -0.10130105388E+01 -0.23351503455E+02  0.34417529683E+02  0.00000000000E+00 0.  1.
        -13    1    3    3    0    0 -0.63578592449E+00  0.33020574721E+02  0.76334203584E+02  0.83172550853E+02  0.00000000000E+00 0.  1.
         13    1    3    3    0    0  0.40556154115E+02 -0.31134541139E+02  0.84575544259E+02  0.98829064426E+02  0.00000000000E+00 0. -1.
          2    1    1    2  501    0 -0.17392716494E+01 -0.49292337642E+02 -0.75521749143E+02  0.90201409133E+02  0.00000000000E+00 0. -1.
<scales pt_clust_5="13000.00000" pt_clust_6="13000.00000" pt_clust_7="13000.00000" pt_clust_8="13000.00000" pt_clust_9="49.32301"></scales>
<clustering>
<clus scale="   49.323">  2  9  1 -1</clus>
<clus scale="   75.070">  7  8 -1 -1</clus>
<clus scale="   79.379">  5  6 -1 -1</clus>
<clus scale="   85.271">  1  7  2 -1</clus>
<clus scale="   49.323">  2  5  1 -1</clus>
</clustering>
</event>
<event>
 9    1  0.5981539E-005  0.2079435E+03  0.7546771E-02  0.1176374E+00
          1   -1    0    0  502    0 -0.00000000000E+00  0.00000000000E+00  0.32822247778E+03  0.32822247778E+03  0.00000000000E+00 0. -1.
         21   -1    0    0  501  502  0.00000000000E+00 -0.00000000000E+00 -0.33169652689E+03  0.33169652689E+03  0.00000000000E+00 0. -1.
         23    2    1    2    0    0 -0.35682214851E+02 -0.39616795906E+02  0.18727114477E+03  0.21045874590E+03  0.79872968438E+02 0.  0.
        -24    2    1    2    0    0  0.16568485117E+03  0.13937641217E+03 -0.16539267632E+03  0.28364283920E+03  0.78875019326E+02 0.  0.
         11    1    4    4    0    0  0.15341836927E+03  0.14448293138E+03 -0.16870222777E+03  0.26994991229E+03  0.00000000000E+00 0. -1.
        -12    1    4    4    0    0  0.12266481904E+02 -0.51065192084E+01  0.33095514517E+01  0.13692926916E+02  0.00000000000E+00 0.  1.
        -13    1    3    3    0    0 -0.55744681181E+02 -0.54469248075E+01  0.11898678219E+03  0.13151042851E+03  0.00000000000E+00 0. -1.
         13    1    3    3    0    0  0.20062466330E+02 -0.34169871099E+02  0.68284362578E+02  0.78948317390E+02  0.00000000000E+00 0.  1.
          2    1    1    2  501    0 -0.13000263632E+03 -0.99759616267E+02 -0.25352517567E+02  0.16581741958E+03  0.00000000000E+00 0. -1.
<scales pt_clust_5="13000.00000" pt_clust_6="13000.00000" pt_clust_7="13000.00000" pt_clust_8="13000.00000" pt_clust_9="192.40393"></scales>
<clustering>
<clus scale="   78.875">  5  6 -1 -1</clus>
<clus scale="   79.873">  7  8 -1 -1</clus>
<clus scale="   96.033">  1  7  2 -1</clus>
<clus scale="  192.404">  2  9  1 -1</clus>
<clus scale="  192.404">  2  5  1 -1</clus>
</clustering>
</event>
<event>
 9    1  0.5981539E-005  0.9360040E+02  0.7546771E-02  0.1298955E+00
         -2   -1    0    0    0  501 -0.00000000000E+00  0.00000000000E+00  0.11375391657E+03  0.11375391657E+03  0.00000000000E+00 0.  1.
         21   -1    0    0  501  502  0.00000000000E+00 -0.00000000000E+00 -0.15113290370E+03  0.15113290370E+03  0.00000000000E+00 0.  1.
        -24    2    1    2    0    0  0.19314280619E+02 -0.59107688077E+01  0.51775108119E+02  0.10056825582E+03  0.83817263346E+02 0.  0.
         23    2    1    2    0    0 -0.17605579344E+02 -0.32736433491E+02 -0.69954670054E+02  0.12113125342E+03  0.91637842576E+02 0.  0.
         11    1    3    3    0    0 -0.28090383314E+02 -0.22502351627E+02  0.21748166666E+02  0.42052446026E+02  0.00000000000E+00 0. -1.
        -12    1    3    3    0    0  0.47404663933E+02  0.16591582820E+02  0.30026941454E+02  0.58515809797E+02  0.00000000000E+00 0.  1.
        -13    1    4    4    0    0  0.21186260560E+02 -0.51553587376E+02 -0.37787458913E+02  0.67338859947E+02  0.00000000000E+00 0.  1.
         13    1    4    4    0    0 -0.38791839904E+02  0.18817153884E+02 -0.32167211141E+02  0.53792393477E+02  0.00000000000E+00 0. -1.
         -1    1    1    2    0  502 -0.17087012752E+01  0.38647202299E+02 -0.19199425198E+02  0.43187311025E+02  0.00000000000E+00 0.  1.
<scales pt_clust_5="13000.00000" pt_clust_6="13000.00000" pt_clust_7="13000.00000" pt_clust_8="13000.00000" pt_clust_9="38.68496"></scales>
<clustering>
<clus scale="   38.685">  2  9  1 -1</clus>
<clus scale="   83.817">  5  6 -1 -1</clus>
<clus scale="   85.959">  1  5  2 -1</clus>
<clus scale="   91.638">  7  8 -1 -1</clus>
<clus scale="   38.685">  2  5  1 -1</clus>
</clustering>
</event>
<event>
 9    1  0.5981539E-005  0.9141050E+02  0.7546771E-02  0.1306720E+00
         -4   -1    0    0    0  501 -0.00000000000E+00  0.00000000000E+00  0.53550119073E+03  0.53550119073E+03  0.00000000000E+00 0.  1.
         21   -1    0    0  501  502  0.00000000000E+00 -0.00000000000E+00 -0.52312734597E+02  0.52312734597E+02  0.00000000000E+00 0. -1.
        -24    2    1    2    0    0 -0.31775882209E+01 -0.63584788047E+01  0.46655524967E+03  0.47338334158E+03  0.79796364425E+02 0.  0.
         23    2    1    2    0    0  0.10057035130E+02 -0.12830920220E+02  0.16079053754E+02  0.94037768592E+02  0.91207398181E+02 0.  0.
         11    1    3    3    0    0 -0.21059321995E+02 -0.32150558682E+02  0.13554620404E+03  0.14088976860E+03  0.00000000000E+00 0. -1.
        -12    1    3    3    0    0  0.17881733774E+02  0.25792079878E+02  0.33100904563E+03  0.33249357298E+03  0.00000000000E+00 0.  1.
        -13    1    4    4    0    0  0.41241335285E+02  0.19769693054E+02 -0.11408345561E+01  0.45749207676E+02  0.00000000000E+00 0.  1.
         13    1    4    4    0    0 -0.31184300155E+02 -0.32600613273E+02  0.17219888310E+02  0.48288560916E+02  0.00000000000E+00 0. -1.
         -3    1    1    2    0  502 -0.68794469089E+01  0.19189399024E+02  0.55415271325E+00  0.20392815154E+02  0.00000000000E+00 0.  1.
<scales pt_clust_5="13000.00000" pt_clust_6="13000.00000" pt_clust_7="13000.00000" pt_clust_8="13000.00000" pt_clust_9="20.38528"></scales>
<clustering>
<clus scale="   20.385">  2  9  1 -1</clus>
<clus scale="   79.796">  5  6 -1 -1</clus>
<clus scale="   80.028">  1  5  2 -1</clus>
<clus scale="   91.207">  7  8 -1 -1</clus>
<clus scale="   20.385">  2  5  1 -1</clus>
</clustering>
</event>
<event>
 9    1  0.5981539E-005  0.1196235E+03  0.7546771E-02  0.1250418E+00
          3   -1    0    0  502    0 -0.00000000000E+00  0.00000000000E+00  0.16358240851E+03  0.16358240851E+03  0.00000000000E+00 0. -1.
         21   -1    0    0  501  502  0.00000000000E+00 -0.00000000000E+00 -0.41181052443E+03  0.41181052443E+03  0.00000000000E+00 0.  1.
        -24    2    1    2    0    0 -0.37405628588E+02  0.60192283223E+02  0.12540667134E+03  0.16259206416E+03  0.75412559313E+02 0.  0.
         23    2    1    2    0    0  0.65312742166E+02 -0.78572819491E+02 -0.32563240351E+03  0.35431257979E+03  0.95191910005E+02 0.  0.
         11    1    3    3    0    0 -0.56678425357E+02  0.59978826661E+02  0.88819614193E+02  0.12123872077E+03  0.00000000000E+00 0. -1.
        -12    1    3    3    0    0  0.19272796769E+02  0.21345656185E+00  0.36587057149E+02  0.41353343393E+02  0.00000000000E+00 0.  1.
        -13    1    4    4    0    0  0.82033720807E+02 -0.53430728334E+02 -0.29692953947E+03  0.31265240362E+03  0.00000000000E+00 0.  1.
         13    1    4    4    0    0 -0.16720978642E+02 -0.25142091157E+02 -0.28702864042E+02  0.41660176172E+02  0.00000000000E+00 0. -1.
          4    1    1    2  501    0 -0.27907113578E+02  0.18380536268E+02 -0.48002383756E+02  0.58488288982E+02  0.00000000000E+00 0. -1.
<scales pt_clust_5="13000.00000" pt_clust_6="13000.00000" pt_clust_7="13000.00000" pt_clust_8="13000.00000" pt_clust_9="33.41633"></scales>
<clustering>
<clus scale="   33.416">  2  9  1 -1</clus>
<clus scale="   75.413">  5  6 -1 -1</clus>
<clus scale="   95.192">  7  8 -1 -1</clus>
<clus scale="  104.572">  1  5  2 -1</clus>
<clus scale="   33.416">  2  5  1 -1</clus>
</clustering>
</event>
<event>
 9    1  0.5981539E-005  0.1586165E+03  0.7546771E-02  0.1191981E+00
          1   -1    0    0  502    0 -0.00000000000E+00  0.00000000000E+00  0.85000688091E+03  0.85000688091E+03  0.00000000000E+00 0. -1.
         21   -1    0    0  501  502  0.00000000000E+00 -0.00000000000E+00 -0.66081522675E+02  0.66081522675E+02  0.00000000000E+00 0. -1.
        -24    2    1    2    0    0  0.57421840779E+00  0.11077533784E+03  0.34645941072E+03  0.37258828408E+03  0.80724227842E+02 0.  0.
         23    2    1    2    0    0 -0.66078152990E+02 -0.18481942933E+03  0.24374236032E+03  0.32600961128E+03  0.91364022843E+02 0.  0.
         13    1    3    3    0    0 -0.30287867330E+02  0.34989730581E+02  0.67246740619E+02  0.81631858226E+02  0.00000000000E+00 0. -1.
        -14    1    3    3    0    0  0.30862085738E+02  0.75785607257E+02  0.27921267010E+03  0.29095642586E+03  0.00000000000E+00 0.  1.
        -11    1    4    4    0    0 -0.82337519744E+02 -0.12043289748E+03  0.19547395800E+03  0.24391313660E+03  0.00000000000E+00 0.  1.
         11    1    4    4    0    0  0.16259366754E+02 -0.64386531853E+02  0.48268402326E+02  0.82096474677E+02  0.00000000000E+00 0. -1.
          2    1    1    2  501    0  0.65503934583E+02  0.74044091496E+02  0.19372358720E+03  0.21749050822E+03  0.00000000000E+00 0. -1.
<scales pt_clust_5="13000.00000" pt_clust_6="13000.00000" pt_clust_7="13000.00000" pt_clust_8="13000.00000" pt_clust_9="98.86002"></scales>
<clustering>
<clus scale="   80.724">  5  6 -1 -1</clus>
<clus scale="   91.364">  7  8 -1 -1</clus>
<clus scale="   98.860">  2  9  1 -1</clus>
<clus scale="  152.736">  1  5  2 -1</clus>
<clus scale="   98.860">  2  5  1 -1</clus>
</clustering>
</event>
<event>
 9    1  0.5981539E-005  0.1346195E+03  0.7546771E-02  0.1221832E+00
         21   -1    0    0  501  502  0.00000000000E+00  0.00000000000E+00  0.70397074426E+02  0.70397074426E+02  0.00000000000E+00 0. -1.
          1   -1    0    0  502    0 -0.00000000000E+00 -0.00000000000E+00 -0.69306333458E+03  0.69306333458E+03  0.00000000000E+00 0. -1.
         23    2    1    2    0    0  0.84476355663E+02  0.52690133599E+02 -0.40152307243E+03  0.42355172536E+03  0.90899843351E+02 0.  0.
        -24    2    1    2    0    0 -0.50028104068E+02 -0.99554366489E+02 -0.35538329820E+02  0.14540392370E+03  0.86402806999E+02 0.  0.
         13    1    4    4    0    0 -0.12545742474E+02 -0.95894183577E+02 -0.48669007727E+01  0.96833758686E+02  0.00000000000E+00 0. -1.
        -14    1    4    4    0    0 -0.37482361595E+02 -0.36601829116E+01 -0.30671429048E+02  0.48570165014E+02  0.00000000000E+00 0.  1.
        -13    1    3    3    0    0  0.71784766544E+02  0.78298784581E+02 -0.31430688622E+03  0.33177186605E+03  0.00000000000E+00 0.  1.
         13    1    3    3    0    0  0.12691589119E+02 -0.25608650982E+02 -0.87216186208E+02  0.91779859316E+02  0.00000000000E+00 0. -1.
          2    1    1    2  501    0 -0.34448251595E+02  0.46864232890E+02 -0.18560485791E+03  0.19450475994E+03  0.00000000000E+00 0. -1.
<scales pt_clust_5="13000.00000" pt_clust_6="13000.00000" pt_clust_7="13000.00000" pt_clust_8="13000.00000" pt_clust_9="58.16306"></scales>
<clustering>
<clus scale="   58.163">  1  9  2 -1</clus>
<clus scale="   86.403">  5  6 -1 -1</clus>
<clus scale="   90.900">  7  8 -1 -1</clus>
<clus scale="  131.625">  1  5  2 -1</clus>
<clus scale="   58.163">  1  5  2 -1</clus>
</clustering>
</event>
<event>
 9    1  0.5981539E-005  0.9745183E+02  0.7546771E-02  0.1292075E+00
          1   -1    0    0  502    0 -0.00000000000E+00  0.00000000000E+00  0.70748982390E+03  0.70748982390E+03  0.00000000000E+00 0. -1.
         21   -1    0    0  501  502  0.00000000000E+00 -0.00000000000E+00 -0.18909248509E+02  0.18909248509E+02  0.00000000000E+00 0.  1.
        -24    2    1    2    0    0 -0.21954194883E+02 -0.20156111152E+02  0.37500442854E+03  0.38508718097E+03  0.82313790076E+02 0.  0.
         23    2    1    2    0    0 -0.10588492428E+02  0.32624387906E+02  0.23879980081E+03  0.25881348933E+03  0.93715583194E+02 0.  0.
         11    1    3    3    0    0 -0.50392885326E+02 -0.28433596470E+02  0.24102302869E+03  0.24787095970E+03  0.00000000000E+00 0. -1.
        -12    1    3    3    0    0  0.28438690444E+02  0.82774853181E+01  0.13398139985E+03  0.13721622128E+03  0.00000000000E+00 0.  1.
        -11    1    4    4    0    0 -0.46541422733E+02  0.15734909453E+02  0.70764766713E+02  0.86147220579E+02  0.00000000000E+00 0.  1.
         11    1    4    4    0    0  0.35952930305E+02  0.16889478453E+02  0.16803503410E+03  0.17266626875E+03  0.00000000000E+00 0. -1.
          2    1    1    2  501    0  0.32542687310E+02 -0.12468276754E+02  0.74776346033E+02  0.82498402097E+02  0.00000000000E+00 0. -1.
<scales pt_clust_5="13000.00000" pt_clust_6="13000.00000" pt_clust_7="13000.00000" pt_clust_8="13000.00000" pt_clust_9="34.84945"></scales>
<clustering>
<clus scale="   34.849">  2  9  1 -1</clus>
<clus scale="   82.314">  5  6 -1 -1</clus>
<clus scale="   86.544">  1  5  2 -1</clus>
<clus scale="   93.716">  7  8 -1 -1</clus>
<clus scale="   34.849">  2  5  1 -1</clus>
</clustering>
</event>
<event>
 9    1  0.5981539E-005  0.2165337E+03  0.7546771E-02  0.1171769E+00
         21   -1    0    0  501  502  0.00000000000E+00  0.00000000000E+00  0.85413349815E+03  0.85413349815E+03  0.00000000000E+00 0.  1.
         -4   -1    0    0    0  501 -0.00000000000E+00 -0.00000000000E+00 -0.11586480702E+03  0.11586480702E+03  0.00000000000E+00 0.  1.
         23    2    1    2    0    0 -0.18542217016E+02 -0.30100156943E+02  0.77611743581E+02  0.12223104305E+03  0.87561474881E+02 0.  0.
        -24    2    1    2    0    0 -0.18473242250E+03  0.45831729274E+02  0.62584599330E+02  0.21589813394E+03  0.80427338859E+02 0.  0.
         13    1    4    4    0    0 -0.79436537187E+02  0.21859059335E+02  0.69356851629E+02  0.10769565814E+03  0.00000000000E+00 0. -1.
        -14    1    4    4    0    0 -0.10529588531E+03  0.23972669940E+02 -0.67722522988E+01  0.10820247580E+03  0.00000000000E+00 0.  1.
        -13    1    3    3    0    0  0.49909002084E+01 -0.49470790061E+02  0.13938776801E+02  0.51638722417E+02  0.00000000000E+00 0.  1.
         13    1    3    3    0    0 -0.23533117225E+02  0.19370633118E+02  0.63672966780E+02  0.70592320632E+02  0.00000000000E+00 0. -1.
         -3    1    1    2    0  502  0.20327463951E+03 -0.15731572331E+02  0.59807234822E+03  0.63186912817E+03  0.00000000000E+00 0.  1.
<scales pt_clust_5="13000.00000" pt_clust_6="13000.00000" pt_clust_7="13000.00000" pt_clust_8="13000.00000" pt_clust_9="201.04300"></scales>
<clustering>
<clus scale="   80.427">  5  6 -1 -1</clus>
<clus scale="   87.561">  7  8 -1 -1</clus>
<clus scale="   94.429">  2  7  1 -1</clus>
<clus scale="  201.043">  1  9  2 -1</clus>
<clus scale="  201.043">  1  5  2 -1</clus>
</clustering>
</event>
<event>
 9    1  0.5981539E-005  0.1314092E+03  0.7546771E-02  0.1227489E+00
         21   -1    0    0  501  502  0.00000000000E+00  0.00000000000E+00  0.44334150628E+03  0.44334150628E+03  0.00000000000E+00 0.  1.
          3   -1    0    0  502    0 -0.00000000000E+00 -0.00000000000E+00 -0.48088197159E+02  0.48088197159E+02  0.00000000000E+00 0. -1.
         23    2    1    2    0    0  0.98052487403E+02  0.13429429735E+02  0.13029759035E+03  0.18675450218E+03  0.90028563055E+02 0.  0.
        -24    2    1    2    0    0 -0.87048403338E+02 -0.31962607016E+02  0.18947492190E+03  0.22617730815E+03  0.81586738628E+02 0.  0.
         13    1    4    4    0    0 -0.54105160008E+02  0.75655984741E+01  0.38934849469E+02  0.67085983058E+02  0.00000000000E+00 0. -1.
        -14    1    4    4    0    0 -0.32943243331E+02 -0.39528205490E+02  0.15054007243E+03  0.15909132509E+03  0.00000000000E+00 0.  1.
        -11    1    3    3    0    0  0.36296819324E+02  0.14662525921E+02  0.11726504542E+03  0.12362661378E+03  0.00000000000E+00 0.  1.
         11    1    3    3    0    0  0.61755668079E+02 -0.12330961860E+01  0.13032544931E+02  0.63127888397E+02  0.00000000000E+00 0. -1.
          4    1    1    2  501    0 -0.11004084064E+02  0.18533177282E+02  0.75480796868E+02  0.78497893106E+02  0.00000000000E+00 0. -1.
<scales pt_clust_5="13000.00000" pt_clust_6="13000.00000" pt_clust_7="13000.00000" pt_clust_8="13000.00000" pt_clust_9="21.55385"></scales>
<clustering>
<clus scale="   21.554">  1  9  2 -1</clus>
<clus scale="   81.587">  5  6 -1 -1</clus>
<clus scale="   90.029">  7  8 -1 -1</clus>
<clus scale="  125.776">  1  5  2 -1</clus>
<clus scale="   21.554">  1  5  2 -1</clus>
</clustering>
</event>
<event>
 9    1  0.5981539E-005  0.9780896E+02  0.7546771E-02  0.1289456E+00
         21   -1    0    0  501  502  0.00000000000E+00  0.00000000000E+00  0.35287261539E+02  0.35287261539E+02  0.00000000000E+00 0. -1.
          1   -1    0    0  502    0 -0.00000000000E+00 -0.00000000000E+00 -0.64815327524E+03  0.64815327524E+03  0.00000000000E+00 0. -1.
         23    2    1    2    0    0  0.27655013595E+02 -0.13826589863E+02 -0.24427662408E+03  0.26270562071E+03  0.91581656010E+02 0.  0.
        -24    2    1    2    0    0 -0.30596987856E+02 -0.73594156998E+02 -0.19842700831E+03  0.22940724371E+03  0.83079060128E+02 0.  0.
         13    1    4    4    0    0  0.37392511071E+01 -0.72680448734E+02 -0.16963651238E+03  0.18458866693E+03  0.00000000000E+00 0. -1.
        -14    1    4    4    0    0 -0.34336238963E+02 -0.91370826422E+00 -0.28790495926E+02  0.44818576780E+02  0.00000000000E+00 0.  1.
        -11    1    3    3    0    0  0.52670890393E+02  0.12191341465E+02 -0.96776739184E+02  0.11085390723E+03  0.00000000000E+00 0. -1.
         11    1    3    3    0    0 -0.25015876798E+02 -0.26017931327E+02 -0.14749988490E+03  0.15185171348E+03  0.00000000000E+00 0.  1.
          2    1    1    2  501    0  0.29419742613E+01  0.87420746861E+02 -0.17016238131E+03  0.19132767235E+03  0.00000000000E+00 0. -1.
<scales pt_clust_5="13000.00000" pt_clust_6="13000.00000" pt_clust_7="13000.00000" pt_clust_8="13000.00000" pt_clust_9="87.47024"></scales>
<clustering>
<clus scale="   83.079">  5  6 -1 -1</clus>
<clus scale="   87.470">  1  9  2 -1</clus>
<clus scale="   89.897">  1  5  2 -1</clus>
<clus scale="   91.582">  7  8 -1 -1</clus>
<clus scale="   87.470">  1  5  2 -1</clus>
</clustering>
</event>
<event>
 9    1  0.1113399E-004  0.3719284E+03  0.7546771E-02  0.1054178E+00
          1   -1    0    0  502    0 -0.00000000000E+00  0.00000000000E+00  0.21913337288E+04  0.21913337288E+04  0.00000000000E+00 0. -1.
         21   -1    0    0  501  502  0.00000000000E+00 -0.00000000000E+00 -0.26953981665E+03  0.26953981665E+03  0.00000000000E+00 0. -1.
         23    2    1    2    0    0 -0.36102333823E+03  0.11395947500E+02  0.20179825491E+04  0.20520442954E+04  0.90357641860E+02 0.  0.
        -24    2    1    2    0    0  0.35380787425E+03 -0.34287268492E+02 -0.11059211810E+03  0.38083754116E+03  0.80318039757E+02 0.  0.
         11    1    4    4    0    0  0.31784867009E+03 -0.83576932486E+01 -0.11016511359E+03  0.33650257112E+03  0.00000000000E+00 0. -1.
        -12    1    4    4    0    0  0.35959204156E+02 -0.25929575243E+02 -0.42700450732E+00  0.44334970043E+02  0.00000000000E+00 0.  1.
        -13    1    3    3    0    0 -0.30263218539E+02 -0.14147756027E+02  0.96127183178E+02  0.10176667796E+03  0.00000000000E+00 0.  1.
         13    1    3    3    0    0 -0.33076011969E+03  0.25543703527E+02  0.19218553659E+04  0.19502776175E+04  0.00000000000E+00 0. -1.
          2    1    1    2  501    0  0.72154639858E+01  0.22891320992E+02  0.14403481135E+02  0.27991708881E+02  0.00000000000E+00 0. -1.
<scales pt_clust_5="13000.00000" pt_clust_6="13000.00000" pt_clust_7="13000.00000" pt_clust_8="13000.00000" pt_clust_9="24.00157"></scales>
<clustering>
<clus scale="   24.002">  2  9  1 -1</clus>
<clus scale="   80.318">  5  6 -1 -1</clus>
<clus scale="   90.358">  7  8 -1 -1</clus>
<clus scale="  369.618">  2  5  1 -1</clus>
<clus scale="   24.002">  2  5  1 -1</clus>
</clustering>
</event>
<event>
 9    1  0.5981539E-005  0.1172233E+03  0.7546771E-02  0.1251660E+00
          1   -1    0    0  502    0 -0.00000000000E+00  0.00000000000E+00  0.51594524854E+03  0.51594524854E+03  0.00000000000E+00 0. -1.
         21   -1    0    0  501  502  0.00000000000E+00 -0.00000000000E+00 -0.77889458330E+02  0.77889458330E+02  0.00000000000E+00 0. -1.
         23    2    1    2    0    0  0.48521680492E+02  0.17033820747E+02  0.25325919138E+03  0.27435550983E+03  0.92120699246E+02 0.  0.
        -24    2    1    2    0    0 -0.11547511201E+03 -0.23718850965E+02  0.20444424978E+03  0.24938296456E+03  0.80605994568E+02 0.  0.
         13    1    4    4    0    0 -0.96571647664E+02  0.64557838398E+01  0.18505922718E+03  0.20884127427E+03  0.00000000000E+00 0. -1.
        -14    1    4    4    0    0 -0.18903464343E+02 -0.30174634805E+02  0.19385022601E+02  0.40541690283E+02  0.00000000000E+00 0.  1.
        -13    1    3    3    0    0  0.35658105196E+02  0.47173168575E+02  0.21942491150E+03  0.22725338300E+03  0.00000000000E+00 0. -1.
         13    1    3    3    0    0  0.12863575297E+02 -0.30139347827E+02  0.33834279882E+02  0.47102126831E+02  0.00000000000E+00 0.  1.
          2    1    1    2  501    0  0.66953431515E+02  0.66850302173E+01 -0.19647650945E+02  0.70096232483E+02  0.00000000000E+00 0. -1.
<scales pt_clust_5="13000.00000" pt_clust_6="13000.00000" pt_clust_7="13000.00000" pt_clust_8="13000.00000" pt_clust_9="67.28634"></scales>
<clustering>
<clus scale="   67.286">  2  9  1 -1</clus>
<clus scale="   80.606">  5  6 -1 -1</clus>
<clus scale="   92.121">  7  8 -1 -1</clus>
<clus scale="  108.408">  2  5  1 -1</clus>
<clus scale="   67.286">  2  5  1 -1</clus>
</clustering>
</event>
<event>
 9    1  0.5981539E-005  0.1396379E+03  0.7546771E-02  0.1213954E+00
         21   -1    0    0  501  502  0.00000000000E+00  0.00000000000E+00  0.17235274170E+03  0.17235274170E+03  0.00000000000E+00 0. -1.
         -2   -1    0    0    0  501 -0.00000000000E+00 -0.00000000000E+00 -0.29339462124E+03  0.29339462124E+03  0.00000000000E+00 0.  1.
        -24    2    1    2    0    0  0.81173251285E+02  0.42623266309E+01 -0.61567301029E+02  0.13623569719E+03  0.90345827129E+02 0.  0.
         23    2    1    2    0    0 -0.17902903519E+03  0.19201729705E+02  0.17972341591E+02  0.20253000639E+03  0.90968657027E+02 0.  0.
         13    1    3    3    0    0  0.21617448796E+02 -0.34668560987E+02 -0.49309373898E+02  0.64036220747E+02  0.00000000000E+00 0. -1.
        -14    1    3    3    0    0  0.59555802489E+02  0.38930887617E+02 -0.12257927131E+02  0.72199476441E+02  0.00000000000E+00 0.  1.
        -13    1    4    4    0    0 -0.11563969654E+03 -0.15147074709E+02 -0.24047850719E+02  0.11908094899E+03  0.00000000000E+00 0.  1.
         13    1    4    4    0    0 -0.63389338649E+02  0.34348804414E+02  0.42020192310E+02  0.83449057399E+02  0.00000000000E+00 0. -1.
         -1    1    1    2    0  502  0.97855783903E+02 -0.23464056336E+02 -0.77446920100E+02  0.12698165937E+03  0.00000000000E+00 0.  1.
<scales pt_clust_5="13000.00000" pt_clust_6="13000.00000" pt_clust_7="13000.00000" pt_clust_8="13000.00000" pt_clust_9="100.62965"></scales>
<clustering>
<clus scale="   90.346">  5  6 -1 -1</clus>
<clus scale="   90.969">  7  8 -1 -1</clus>
<clus scale="  100.630">  1  9  2 -1</clus>
<clus scale="  139.233">  2  5  1 -1</clus>
<clus scale="  100.630">  1  5  2 -1</clus>
</clustering>
</event>
<event>
 9    1  0.5981539E-005  0.1718421E+03  0.7546771E-02  0.1176951E+00
          1   -1    0    0  502    0 -0.00000000000E+00  0.00000000000E+00  0.90860166298E+03  0.90860166298E+03  0.00000000000E+00 0. -1.
         21   -1    0    0  501  502  0.00000000000E+00 -0.00000000000E+00 -0.16863697674E+03  0.16863697674E+03  0.00000000000E+00 0. -1.
        -24    2    1    2    0    0  0.73455405407E+02  0.13540624813E+03  0.78970232050E+03  0.80861029203E+03  0.80562402918E+02 0.  0.
         23    2    1    2    0    0 -0.10702990339E+03 -0.57509587510E+02  0.28858692420E+02  0.15298873847E+03  0.88374074794E+02 0.  0.
         13    1    3    3    0    0  0.49914405866E+02  0.10388605497E+03  0.38184691908E+03  0.39886191839E+03  0.00000000000E+00 0. -1.
        -14    1    3    3    0    0  0.23540999542E+02  0.31520193154E+02  0.40785540142E+03  0.40974837365E+03  0.00000000000E+00 0.  1.
        -11    1    4    4    0    0 -0.66873372814E+02  0.77627391069E+01  0.35422073341E+02  0.76072540313E+02  0.00000000000E+00 0. -1.
         11    1    4    4    0    0 -0.40156530573E+02 -0.65272326617E+02 -0.65633809204E+01  0.76916198156E+02  0.00000000000E+00 0.  1.
          2    1    1    2  501    0  0.33574497979E+02 -0.77896660619E+02 -0.78596326683E+02  0.11563960921E+03  0.00000000000E+00 0. -1.
<scales pt_clust_5="13000.00000" pt_clust_6="13000.00000" pt_clust_7="13000.00000" pt_clust_8="13000.00000" pt_clust_9="84.82415"></scales>
<clustering>
<clus scale="   80.562">  5  6 -1 -1</clus>
<clus scale="   84.824">  2  9  1 -1</clus>
<clus scale="   88.374">  7  8 -1 -1</clus>
<clus scale="  167.958">  1  5  2 -1</clus>
<clus scale="   84.824">  2  5  1 -1</clus>
</clustering>
</event>
<event>
 9    1  0.5981539E-005  0.1190323E+03  0.7546771E-02  0.1247835E+00
         -2   -1    0    0    0  501 -0.00000000000E+00  0.00000000000E+00  0.52279095535E+03  0.52279095535E+03  0.00000000000E+00 0.  1.
         21   -1    0    0  501  502  0.00000000000E+00 -0.00000000000E+00 -0.53046766520E+02  0.53046766520E+02  0.00000000000E+00 0.  1.
        -24    2    1    2    0    0  0.62296954412E+02 -0.45347370775E+01  0.17374221379E+03  0.20182724866E+03  0.81525499572E+02 0.  0.
         23    2    1    2    0    0 -0.10593338954E+03  0.41500746539E+02  0.11970676261E+03  0.18867125380E+03  0.91230137636E+02 0.  0.
         13    1    3    3    0    0  0.12045421066E+02 -0.28773242435E+02  0.12133926016E+03  0.12528450704E+03  0.00000000000E+00 0. -1.
        -14    1    3    3    0    0  0.50251533346E+02  0.24238505357E+02  0.52402953635E+02  0.76542741624E+02  0.00000000000E+00 0.  1.
        -13    1    4    4    0    0 -0.29524348300E+02 -0.27308144399E+02  0.18062439156E+02  0.44087113778E+02  0.00000000000E+00 0. -1.
         13    1    4    4    0    0 -0.76409041237E+02  0.68808890938E+02  0.10164432346E+03  0.14458414002E+03  0.00000000000E+00 0.  1.
         -1    1    1    2    0  502  0.43636435125E+02 -0.36966009462E+02  0.17629521242E+03  0.18533921940E+03  0.00000000000E+00 0.  1.
<scales pt_clust_5="13000.00000" pt_clust_6="13000.00000" pt_clust_7="13000.00000" pt_clust_8="13000.00000" pt_clust_9="57.18940"></scales>
<clustering>
<clus scale="   57.189">  2  9  1 -1</clus>
<clus scale="   81.525">  5  6 -1 -1</clus>
<clus scale="   91.230">  7  8 -1 -1</clus>
<clus scale="  111.768">  1  5  2 -1</clus>
<clus scale="   57.189">  2  5  1 -1</clus>
</clustering>
</event>
<event>
 9    1  0.5981539E-005  0.9173140E+02  0.7546771E-02  0.1305456E+00
         21   -1    0    0  501  502  0.00000000000E+00  0.00000000000E+00  0.12449610109E+03  0.12449610109E+03  0.00000000000E+00 0. -1.
          1   -1    0    0  502    0 -0.00000000000E+00 -0.00000000000E+00 -0.22885995611E+03  0.22885995611E+03  0.00000000000E+00 0. -1.
        -24    2    1    2    0    0 -0.10501131173E+02  0.13718636106E+01 -0.11710046810E+03  0.14266258344E+03  0.80795651612E+02 0.  0.
         23    2    1    2    0    0 -0.47105192140E+02 -0.32809083775E+02  0.65632110317E+02  0.12640396715E+03  0.91515320583E+02 0.  0.
         11    1    3    3    0    0  0.16762826929E+02  0.33072698382E+02 -0.73089243095E+02  0.81956288356E+02  0.00000000000E+00 0. -1.
        -12    1    3    3    0    0 -0.27263958102E+02 -0.31700834771E+02 -0.44011225001E+02  0.60706295082E+02  0.00000000000E+00 0.  1.
        -13    1    4    4    0    0  0.10333292623E+02 -0.46493762543E+02  0.39314736799E+02  0.61758363170E+02  0.00000000000E+00 0.  1.
         13    1    4    4    0    0 -0.57438484763E+02  0.13684678768E+02  0.26317373517E+02  0.64645603978E+02  0.00000000000E+00 0. -1.
          2    1    1    2  501    0  0.57606323313E+02  0.31437220164E+02 -0.52895497243E+02  0.84289506618E+02  0.00000000000E+00 0. -1.
<scales pt_clust_5="13000.00000" pt_clust_6="13000.00000" pt_clust_7="13000.00000" pt_clust_8="13000.00000" pt_clust_9="65.62615"></scales>
<clustering>
<clus scale="   65.626">  1  9  2 -1</clus>
<clus scale="   80.796">  5  6 -1 -1</clus>
<clus scale="   81.040">  2  5  1 -1</clus>
<clus scale="   91.515">  7  8 -1 -1</clus>
<clus scale="   65.626">  1  5  2 -1</clus>
</clustering>
</event>
<event>
 9    1  0.5981539E-005  0.1029245E+03  0.7546771E-02  0.1278304E+00
         21   -1    0    0  501  502  0.00000000000E+00  0.00000000000E+00  0.74788084576E+02  0.74788084576E+02  0.00000000000E+00 0. -1.
          1   -1    0    0  502    0 -0.00000000000E+00 -0.00000000000E+00 -0.26860733362E+03  0.26860733362E+03  0.00000000000E+00 0. -1.
         23    2    1    2    0    0  0.57488656552E+02  0.39798312780E+02 -0.15077373073E+03  0.18949072781E+03  0.91022891172E+02 0.  0.
        -24    2    1    2    0    0  0.18997619168E+01 -0.18648053565E+02 -0.19376326137E+02  0.86565635060E+02  0.82260611241E+02 0.  0.
         11    1    4    4    0    0 -0.77723620340E+01 -0.49312062507E+02 -0.18708006736E+01  0.49955870681E+02  0.00000000000E+00 0. -1.
        -12    1    4    4    0    0  0.96721239509E+01  0.30664008943E+02 -0.17505525464E+02  0.36609764379E+02  0.00000000000E+00 0.  1.
        -13    1    3    3    0    0  0.58982039527E+02  0.43719467460E+01 -0.14070672179E+03  0.15263150547E+03  0.00000000000E+00 0. -1.
         13    1    3    3    0    0 -0.14933829755E+01  0.35426366034E+02 -0.10067008944E+02  0.36859222349E+02  0.00000000000E+00 0.  1.
          2    1    1    2  501    0 -0.59388418468E+02 -0.21150259215E+02 -0.23669192174E+02  0.67339055319E+02  0.00000000000E+00 0. -1.
<scales pt_clust_5="13000.00000" pt_clust_6="13000.00000" pt_clust_7="13000.00000" pt_clust_8="13000.00000" pt_clust_9="63.04219"></scales>
<clustering>
<clus scale="   63.042">  1  9  2 -1</clus>
<clus scale="   82.261">  5  6 -1 -1</clus>
<clus scale="   91.023">  7  8 -1 -1</clus>
<clus scale="   95.263">  1  5  2 -1</clus>
<clus scale="   63.042">  1  5  2 -1</clus>
</clustering>
</event>
<event>
 9    1  0.5981539E-005  0.1566716E+03  0.7546771E-02  0.1194377E+00
          1   -1    0    0  502    0 -0.00000000000E+00  0.00000000000E+00  0.68584502352E+03  0.68584502352E+03  0.00000000000E+00 0. -1.
         21   -1    0    0  501  502  0.00000000000E+00 -0.00000000000E+00 -0.79533628551E+02  0.79533628551E+02  0.00000000000E+00 0.  1.
        -24    2    1    2    0    0 -0.62415693643E+01 -0.10104022110E+03  0.27450663650E+03  0.30331764979E+03  0.79997623248E+02 0.  0.
         23    2    1    2    0    0 -0.13111518066E+02  0.18171196754E+03  0.31839465127E+03  0.37802348898E+03  0.91298703214E+02 0.  0.
         13    1    3    3    0    0  0.22725396523E+02 -0.29775981076E+02  0.16684014815E+03  0.17099323885E+03  0.00000000000E+00 0. -1.
        -14    1    3    3    0    0 -0.28966965887E+02 -0.71264240021E+02  0.10766648834E+03  0.13232441094E+03  0.00000000000E+00 0.  1.
        -11    1    4    4    0    0 -0.28718672050E+02  0.11460609900E+03  0.26730134264E+03  0.29224874308E+03  0.00000000000E+00 0.  1.
         11    1    4    4    0    0  0.15607153983E+02  0.67105868538E+02  0.51093308632E+02  0.85774745903E+02  0.00000000000E+00 0. -1.
          2    1    1    2  501    0  0.19353087431E+02 -0.80671746442E+02  0.13410107200E+02  0.84037513303E+02  0.00000000000E+00 0. -1.
<scales pt_clust_5="13000.00000" pt_clust_6="13000.00000" pt_clust_7="13000.00000" pt_clust_8="13000.00000" pt_clust_9="82.96067"></scales>
<clustering>
<clus scale="   79.998">  5  6 -1 -1</clus>
<clus scale="   82.961">  2  9  1 -1</clus>
<clus scale="   91.299">  7  8 -1 -1</clus>
<clus scale="  150.367">  1  5  2 -1</clus>
<clus scale="   82.961">  2  5  1 -1</clus>
</clustering>
</event>
<event>
 9    1  0.5981539E-005  0.1030686E+03  0.7546771E-02  0.1278352E+00
          1   -1    0    0  502    0 -0.00000000000E+00  0.00000000000E+00  0.14251786514E+03  0.14251786514E+03  0.00000000000E+00 0. -1.
         21   -1    0    0  501  502  0.00000000000E+00 -0.00000000000E+00 -0.11677305648E+03  0.11677305648E+03  0.00000000000E+00 0.  1.
        -24    2    1    2    0    0  0.21985229306E+02 -0.32397320756E+02  0.38446161104E+01  0.88432477997E+02  0.79199655250E+02 0.  0.
         23    2    1    2    0    0  0.15759221709E+01  0.75808965490E+02  0.14588903031E+00  0.11688670584E+03  0.88955033242E+02 0.  0.
         13    1    3    3    0    0 -0.77968910153E+01  0.23167822696E+02  0.66296047987E+01  0.25327676122E+02  0.00000000000E+00 0. -1.
        -14    1    3    3    0    0  0.29782120321E+02 -0.55565143452E+02 -0.27849886883E+01  0.63104801875E+02  0.00000000000E+00 0.  1.
        -11    1    4    4    0    0  0.35573317178E+02  0.23892026798E+02  0.25482031014E+02  0.49856030168E+02  0.00000000000E+00 0. -1.
         11    1    4    4    0    0 -0.33997395007E+02  0.51916938692E+02 -0.25336141984E+02  0.67030675672E+02  0.00000000000E+00 0.  1.
          2    1    1    2  501    0 -0.23561151477E+02 -0.43411644734E+02  0.21754303523E+02  0.53971737782E+02  0.00000000000E+00 0. -1.
<scales pt_clust_5="13000.00000" pt_clust_6="13000.00000" pt_clust_7="13000.00000" pt_clust_8="13000.00000" pt_clust_9="49.39333"></scales>
<clustering>
<clus scale="   49.393">  2  9  1 -1</clus>
<clus scale="   79.200">  5  6 -1 -1</clus>
<clus scale="   88.955">  7  8 -1 -1</clus>
<clus scale="   94.777">  1  5  2 -1</clus>
<clus scale="   49.393">  2  5  1 -1</clus>
</clustering>
</event>
<event>
 9    1  0.5981539E-005  0.9076806E+02  0.7546771E-02  0.1303286E+00
         21   -1    0    0  501  502  0.00000000000E+00  0.00000000000E+00  0.61760573859E+02  0.61760573859E+02  0.00000000000E+00 0. -1.
          1   -1    0    0  502    0 -0.00000000000E+00 -0.00000000000E+00 -0.65715655120E+03  0.65715655120E+03  0.00000000000E+00 0. -1.
         23    2    1    2    0    0  0.23546663165E+01  0.13319470213E+02 -0.40550081710E+03  0.41550154066E+03  0.89597237034E+02 0.  0.
        -24    2    1    2    0    0  0.84663340345E+02 -0.11442278329E+02 -0.28753330517E+02  0.12026988660E+03  0.79619624944E+02 0.  0.
         13    1    4    4    0    0  0.89720587580E+02 -0.27948915129E+02 -0.95653314515E+01  0.94458569005E+02  0.00000000000E+00 0. -1.
        -14    1    4    4    0    0 -0.50572472356E+01  0.16506636800E+02 -0.19187999066E+02  0.25811317599E+02  0.00000000000E+00 0.  1.
        -13    1    3    3    0    0 -0.24552530734E+02  0.43105412571E+02 -0.25221683519E+03  0.25704909125E+03  0.00000000000E+00 0.  1.
         13    1    3    3    0    0  0.26907197050E+02 -0.29785942358E+02 -0.15328398191E+03  0.15845244942E+03  0.00000000000E+00 0. -1.
          2    1    1    2  501    0 -0.87018006661E+02 -0.18771918839E+01 -0.16114182972E+03  0.18314569779E+03  0.00000000000E+00 0. -1.
<scales pt_clust_5="13000.00000" pt_clust_6="13000.00000" pt_clust_7="13000.00000" pt_clust_8="13000.00000" pt_clust_9="87.03830"></scales>
<clustering>
<clus scale="   79.620">  5  6 -1 -1</clus>
<clus scale="   87.038">  1  9  2 -1</clus>
<clus scale="   87.038">  1  5  2 -1</clus>
<clus scale="   89.597">  7  8 -1 -1</clus>
<clus scale="   87.038">  1  5  2 -1</clus>
</clustering>
</event>
<event>
 9    1  0.5981539E-005  0.1780880E+03  0.7546771E-02  0.1169961E+00
         21   -1    0    0  501  502  0.00000000000E+00  0.00000000000E+00  0.31219655921E+02  0.31219655921E+02  0.00000000000E+00 0. -1.
          3   -1    0    0  502    0 -0.00000000000E+00 -0.00000000000E+00 -0.23176019946E+04  0.23176019946E+04  0.00000000000E+00 0. -1.
         23    2    1    2    0    0  0.51297333544E+02  0.93461521306E+02 -0.43920268821E+03  0.46108509893E+03  0.91290715451E+02 0.  0.
        -24    2    1    2    0    0 -0.62366819539E+02 -0.21583708000E+03 -0.87242688471E+03  0.90526962327E+03  0.88933437906E+02 0.  0.
         13    1    4    4    0    0 -0.70913545903E+02 -0.21509051792E+03 -0.77358446517E+03  0.80605557292E+03  0.00000000000E+00 0. -1.
        -14    1    4    4    0    0  0.85467263648E+01 -0.74656208343E+00 -0.98842419538E+02  0.99214050348E+02  0.00000000000E+00 0.  1.
        -13    1    3    3    0    0  0.76873837367E+02  0.58424808709E+02 -0.31911201227E+03  0.33339994229E+03  0.00000000000E+00 0. -1.
         13    1    3    3    0    0 -0.25576503824E+02  0.35036712597E+02 -0.12009067594E+03  0.12768515664E+03  0.00000000000E+00 0.  1.
          4    1    1    2  501    0  0.11069485995E+02  0.12237555869E+03 -0.97475276572E+03  0.98246692828E+03  0.00000000000E+00 0. -1.
<scales pt_clust_5="13000.00000" pt_clust_6="13000.00000" pt_clust_7="13000.00000" pt_clust_8="13000.00000" pt_clust_9="122.87525"></scales>
<clustering>
<clus scale="   88.933">  5  6 -1 -1</clus>
<clus scale="   91.291">  7  8 -1 -1</clus>
<clus scale="  122.875">  1  9  2 -1</clus>
<clus scale="  176.891">  1  5  2 -1</clus>
<clus scale="  122.875">  1  5  2 -1</clus>
</clustering>
</event>
<event>
 9    1  0.6639344E-005  0.9539574E+02  0.7546771E-02  0.1301549E+00
         21   -1    0    0  501  502  0.00000000000E+00  0.00000000000E+00  0.43534882762E+03  0.43534882762E+03  0.00000000000E+00 0.  1.
          3   -1    0    0  502    0 -0.00000000000E+00 -0.00000000000E+00 -0.52456810286E+02  0.52456810286E+02  0.00000000000E+00 0. -1.
         23    2    1    2    0    0 -0.62980083011E+01  0.82154434909E+00  0.10013209502E+02  0.95986724354E+02  0.95251493658E+02 0.  0.
        -24    2    1    2    0    0 -0.63117115657E+01  0.23977263207E+02  0.33583669070E+03  0.34549284818E+03  0.77228741215E+02 0.  0.
         11    1    4    4    0    0 -0.10947240986E+02  0.30028666466E+02  0.48679492936E+02  0.58234490875E+02  0.00000000000E+00 0. -1.
        -12    1    4    4    0    0  0.46355294206E+01 -0.60514032591E+01  0.28715719776E+03  0.28725835730E+03  0.00000000000E+00 0.  1.
        -11    1    3    3    0    0  0.23366390880E+02 -0.37346787012E+02  0.16847105961E+02  0.47165619917E+02  0.00000000000E+00 0.  1.
         11    1    3    3    0    0 -0.29664399181E+02  0.38168331361E+02 -0.68338964590E+01  0.48821104437E+02  0.00000000000E+00 0. -1.
          4    1    1    2  501    0  0.12609719867E+02 -0.24798807556E+02  0.37042117141E+02  0.46326065380E+02  0.00000000000E+00 0. -1.
<scales pt_clust_5="13000.00000" pt_clust_6="13000.00000" pt_clust_7="13000.00000" pt_clust_8="13000.00000" pt_clust_9="27.82060"></scales>
<clustering>
<clus scale="   27.821">  1  9  2 -1</clus>
<clus scale="   77.229">  5  6 -1 -1</clus>
<clus scale="   77.407">  1  5  2 -1</clus>
<clus scale="   95.251">  7  8 -1 -1</clus>
<clus scale="   27.821">  1  5  2 -1</clus>
</clustering>
</event>
<event>
 9    1  0.5981539E-005  0.9996256E+02  0.7546771E-02  0.1283731E+00
          1   -1    0    0  502    0 -0.00000000000E+00  0.00000000000E+00  0.25551939807E+03  0.25551939807E+03  0.00000000000E+00 0. -1.
         21   -1    0    0  501  502  0.00000000000E+00 -0.00000000000E+00 -0.24492234341E+03  0.24492234341E+03  0.00000000000E+00 0.  1.
        -24    2    1    2    0    0 -0.22343299123E+02 -0.47055750311E+02  0.17561921750E+03  0.19969154689E+03  0.79505582764E+02 0.  0.
         23    2    1    2    0    0  0.33999112807E+01  0.55808180778E+01 -0.21571061311E+03  0.23257145203E+03  0.86693175999E+02 0.  0.
         13    1    3    3    0    0 -0.11284150602E+02 -0.30016853907E+02  0.17647047453E+03  0.17936045259E+03  0.00000000000E+00 0. -1.
        -14    1    3    3    0    0 -0.11059148520E+02 -0.17038896405E+02 -0.85125703275E+00  0.20331094295E+02  0.00000000000E+00 0.  1.
        -13    1    4    4    0    0  0.13076794136E+02 -0.37596283188E+02 -0.72855782148E+02  0.83020768768E+02  0.00000000000E+00 0.  1.
         13    1    4    4    0    0 -0.96768828555E+01  0.43177101266E+02 -0.14285483096E+03  0.14955068326E+03  0.00000000000E+00 0. -1.
          2    1    1    2  501    0  0.18943387842E+02  0.41474932234E+02  0.50688450276E+02  0.68178742567E+02  0.00000000000E+00 0. -1.
<scales pt_clust_5="13000.00000" pt_clust_6="13000.00000" pt_clust_7="13000.00000" pt_clust_8="13000.00000" pt_clust_9="45.59632"></scales>
<clustering>
<clus scale="   45.596">  2  9  1 -1</clus>
<clus scale="   79.506">  5  6 -1 -1</clus>
<clus scale="   86.693">  7  8 -1 -1</clus>
<clus scale="   93.797">  1  5  2 -1</clus>
<clus scale="   45.596">  2  5  1 -1</clus>
</clustering>
</event>
<event>
 9    1  0.5981539E-005  0.1866212E+03  0.7546771E-02  0.1162675E+00
          1   -1    0    0  502    0 -0.00000000000E+00  0.00000000000E+00  0.20705620184E+03  0.20705620184E+03  0.00000000000E+00 0. -1.
         21   -1    0    0  501  502  0.00000000000E+00 -0.00000000000E+00 -0.41071022370E+03  0.41071022370E+03  0.00000000000E+00 0. -1.
        -24    2    1    2    0    0 -0.59580161856E+02  0.11452489407E+03  0.70259084667E+01  0.15311072040E+03  0.82023059338E+02 0.  0.
         23    2    1    2    0    0  0.99207276583E+02 -0.24361632190E+03 -0.13268936597E+03  0.30871522583E+03  0.92236797383E+02 0.  0.
         11    1    3    3    0    0 -0.45217207715E+02  0.30534627805E+02  0.33326673871E+02  0.63934549033E+02  0.00000000000E+00 0. -1.
        -12    1    3    3    0    0 -0.14362954141E+02  0.83990266266E+02 -0.26300765404E+02  0.89176171369E+02  0.00000000000E+00 0.  1.
        -13    1    4    4    0    0  0.71271028064E+02 -0.10341830024E+03 -0.10364340279E+03  0.16283998038E+03  0.00000000000E+00 0.  1.
         13    1    4    4    0    0  0.27936248519E+02 -0.14019802166E+03 -0.29045963177E+02  0.14587524545E+03  0.00000000000E+00 0. -1.
          2    1    1    2  501    0 -0.39627114728E+02  0.12909142783E+03 -0.77990564356E+02  0.15594047932E+03  0.00000000000E+00 0. -1.
<scales pt_clust_5="13000.00000" pt_clust_6="13000.00000" pt_clust_7="13000.00000" pt_clust_8="13000.00000" pt_clust_9="135.03668"></scales>
<clustering>
<clus scale="   82.023">  5  6 -1 -1</clus>
<clus scale="   92.237">  7  8 -1 -1</clus>
<clus scale="  135.037">  2  9  1 -1</clus>
<clus scale="  181.790">  1  5  2 -1</clus>
<clus scale="  135.037">  2  5  1 -1</clus>
</clustering>
</event>
<event>
 9    1  0.5981539E-005  0.1106211E+03  0.7546771E-02  0.1263661E+00
         21   -1    0    0  501  502  0.00000000000E+00  0.00000000000E+00  0.16593620927E+03  0.16593620927E+03  0.00000000000E+00 0. -1.
          1   -1    0    0  502    0 -0.00000000000E+00 -0.00000000000E+00 -0.98958209103E+02  0.98958209103E+02  0.00000000000E+00 0. -1.
         23    2    1    2    0    0 -0.12254460426E+02  0.71194714264E+02 -0.11750667686E+01  0.11570193244E+03  0.90369780613E+02 0.  0.
        -24    2    1    2    0    0  0.26861038663E+02 -0.49230228037E+02  0.27923413717E+02  0.10108618925E+03  0.79332022995E+02 0.  0.
         13    1    4    4    0    0  0.52642421492E+02 -0.22061286218E+02  0.28124942273E+02  0.63631260148E+02  0.00000000000E+00 0. -1.
        -14    1    4    4    0    0 -0.25781382829E+02 -0.27168941819E+02 -0.20152855548E+00  0.37454929100E+02  0.00000000000E+00 0.  1.
        -11    1    3    3    0    0 -0.22504881236E+01  0.29348730006E+02 -0.45331789985E+02  0.54049827317E+02  0.00000000000E+00 0. -1.
         11    1    3    3    0    0 -0.10003972302E+02  0.41845984258E+02  0.44156723217E+02  0.61652105119E+02  0.00000000000E+00 0.  1.
          2    1    1    2  501    0 -0.14606578238E+02 -0.21964486227E+02  0.40229653219E+02  0.48106296690E+02  0.00000000000E+00 0. -1.
<scales pt_clust_5="13000.00000" pt_clust_6="13000.00000" pt_clust_7="13000.00000" pt_clust_8="13000.00000" pt_clust_9="26.37785"></scales>
<clustering>
<clus scale="   26.378">  1  9  2 -1</clus>
<clus scale="   79.332">  5  6 -1 -1</clus>
<clus scale="   90.370">  7  8 -1 -1</clus>
<clus scale="  101.803">  1  5  2 -1</clus>
<clus scale="   26.378">  1  5  2 -1</clus>
</clustering>
</event>
<event>
 9    1  0.5981539E-005  0.1121960E+03  0.7546771E-02  0.1261044E+00
         21   -1    0    0  501  502  0.00000000000E+00  0.00000000000E+00  0.75662382499E+02  0.75662382499E+02  0.00000000000E+00 0.  1.
          1   -1    0    0  502    0 -0.00000000000E+00 -0.00000000000E+00 -0.50724608852E+03  0.50724608852E+03  0.00000000000E+00 0. -1.
         23    2    1    2    0    0 -0.36519988763E+02  0.98210109029E+01 -0.32506104807E+02  0.10437128743E+03  0.91687278051E+02 0.  0.
        -24    2    1    2    0    0  0.36266339464E+02 -0.94770722038E+02 -0.88401377419E+02  0.15645608543E+03  0.79793270419E+02 0.  0.
         13    1    4    4    0    0  0.98259837719E-01 -0.90697991016E+02 -0.74930364437E+02  0.11764648207E+03  0.00000000000E+00 0. -1.
        -14    1    4    4    0    0  0.36168079626E+02 -0.40727310211E+01 -0.13471012982E+02  0.38809603355E+02  0.00000000000E+00 0.  1.
        -11    1    3    3    0    0 -0.61822210416E+02 -0.14949562725E+01 -0.24791922355E+00  0.61840779902E+02  0.00000000000E+00 0.  1.
         11    1    3    3    0    0  0.25302221653E+02  0.11315967175E+02 -0.32258185584E+02  0.42530507531E+02  0.00000000000E+00 0. -1.
          2    1    1    2  501    0  0.25364929885E+00  0.84949711135E+02 -0.31067622379E+03  0.32208109816E+03  0.00000000000E+00 0. -1.
<scales pt_clust_5="13000.00000" pt_clust_6="13000.00000" pt_clust_7="13000.00000" pt_clust_8="13000.00000" pt_clust_9="84.95013"></scales>
<clustering>
<clus scale="   79.793">  5  6 -1 -1</clus>
<clus scale="   84.950">  1  9  2 -1</clus>
<clus scale="   91.687">  7  8 -1 -1</clus>
<clus scale="  102.705">  1  5  2 -1</clus>
<clus scale="   84.950">  1  5  2 -1</clus>
</clustering>
</event>
<event>
 9    1  0.5981539E-005  0.9967513E+02  0.7546771E-02  0.1283515E+00
         21   -1    0    0  501  502  0.00000000000E+00  0.00000000000E+00  0.14207511552E+03  0.14207511552E+03  0.00000000000E+00 0. -1.
         -2   -1    0    0    0  501 -0.00000000000E+00 -0.00000000000E+00 -0.45801002502E+03  0.45801002502E+03  0.00000000000E+00 0.  1.
         23    2    1    2    0    0 -0.74337375120E+01 -0.48445202201E+02 -0.41528451896E+03  0.42701534594E+03  0.86479338083E+02 0.  0.
        -24    2    1    2    0    0 -0.63561715663E+01  0.63342907022E+02  0.10950255336E+03  0.15037209711E+03  0.81044639613E+02 0.  0.
         13    1    4    4    0    0  0.13932083378E+02  0.32025012921E+02  0.10746927599E+03  0.11300154726E+03  0.00000000000E+00 0. -1.
        -14    1    4    4    0    0 -0.20288254944E+02  0.31317894101E+02  0.20332773680E+01  0.37370549855E+02  0.00000000000E+00 0.  1.
        -13    1    3    3    0    0  0.11780876702E+02 -0.67598067042E+02 -0.34325169985E+03  0.35004287905E+03  0.00000000000E+00 0.  1.
         13    1    3    3    0    0 -0.19214614214E+02  0.19152864841E+02 -0.72032819107E+02  0.76972466892E+02  0.00000000000E+00 0. -1.
         -1    1    1    2    0  502  0.13789909078E+02 -0.14897704822E+02 -0.10152943908E+02  0.22697697490E+02  0.00000000000E+00 0.  1.
<scales pt_clust_5="13000.00000" pt_clust_6="13000.00000" pt_clust_7="13000.00000" pt_clust_8="13000.00000" pt_clust_9="20.30033"></scales>
<clustering>
<clus scale="   20.300">  1  9  2 -1</clus>
<clus scale="   81.045">  5  6 -1 -1</clus>
<clus scale="   86.479">  7  8 -1 -1</clus>
<clus scale="   94.998">  1  5  2 -1</clus>
<clus scale="   20.300">  1  5  2 -1</clus>
</clustering>
</event>
<event>
 9    1  0.5981539E-005  0.1275226E+03  0.7546771E-02  0.1245989E+00
          3   -1    0    0  502    0 -0.00000000000E+00  0.00000000000E+00  0.24395578790E+03  0.24395578790E+03  0.00000000000E+00 0. -1.
         21   -1    0    0  501  502  0.00000000000E+00 -0.00000000000E+00 -0.10356502422E+03  0.10356502422E+03  0.00000000000E+00 0. -1.
        -24    2    1    2    0    0 -0.36354161642E+02 -0.34281695094E+02  0.40824362336E+02  0.10278459176E+03  0.80007400001E+02 0.  0.
         23    2    1    2    0    0 -0.44793082201E+02 -0.25763270799E+02  0.95269790547E+02  0.14369794060E+03  0.94353583965E+02 0.  0.
         13    1    3    3    0    0 -0.36520632596E+02 -0.18128593231E+02  0.63185754906E+02  0.75198684302E+02  0.00000000000E+00 0. -1.
        -14    1    3    3    0    0  0.16647095469E+00 -0.16153101862E+02 -0.22361392570E+02  0.27585907453E+02  0.00000000000E+00 0.  1.
        -11    1    4    4    0    0 -0.21004769079E+02 -0.32400811686E+02  0.10886225442E+03  0.11550759005E+03  0.00000000000E+00 0. -1.
         11    1    4    4    0    0 -0.23788313123E+02  0.66375408871E+01 -0.13592463871E+02  0.28190350554E+02  0.00000000000E+00 0.  1.
          4    1    1    2  501    0  0.81147243843E+02  0.60044965893E+02  0.42966107995E+01  0.10103827976E+03  0.00000000000E+00 0. -1.
<scales pt_clust_5="13000.00000" pt_clust_6="13000.00000" pt_clust_7="13000.00000" pt_clust_8="13000.00000" pt_clust_9="85.78702"></scales>
<clustering>
<clus scale="   80.007">  5  6 -1 -1</clus>
<clus scale="   94.329">  1  5  2 -1</clus>
<clus scale="   85.787">  2  9  1 -1</clus>
<clus scale="   94.354">  7  8 -1 -1</clus>
<clus scale="   85.787">  2  5  1 -1</clus>
</clustering>
</event>
<event>
 9    1  0.5981539E-005  0.1633428E+03  0.7546771E-02  0.1201677E+00
         21   -1    0    0  501  502  0.00000000000E+00  0.00000000000E+00  0.50227744254E+03  0.50227744254E+03  0.00000000000E+00 0.  1.
         -2   -1    0    0    0  501 -0.00000000000E+00 -0.00000000000E+00 -0.13432719179E+03  0.13432719179E+03  0.00000000000E+00 0.  1.
         23    2    1    2    0    0  0.42093846000E+02 -0.51512747779E+02  0.14730610034E+03  0.18575965012E+03  0.91553838596E+02 0.  0.
        -24    2    1    2    0    0  0.24527345930E+02  0.17205999497E+03  0.72179579739E+00  0.19135343507E+03  0.80058625752E+02 0.  0.
         11    1    4    4    0    0  0.30998872930E+02  0.27697996494E+02 -0.18634145167E+02  0.45555905203E+02  0.00000000000E+00 0. -1.
        -12    1    4    4    0    0 -0.64715269997E+01  0.14436199847E+03  0.19355940965E+02  0.14579752987E+03  0.00000000000E+00 0.  1.
        -11    1    3    3    0    0  0.33808120365E+02  0.21229244403E+02  0.49713639740E+02  0.63758260615E+02  0.00000000000E+00 0.  1.
         11    1    3    3    0    0  0.82857256351E+01 -0.72741992182E+02  0.97592460597E+02  0.12200138951E+03  0.00000000000E+00 0. -1.
         -1    1    1    2    0  502 -0.66621191931E+02 -0.12054724719E+03  0.21992235462E+03  0.25949154915E+03  0.00000000000E+00 0.  1.
<scales pt_clust_5="13000.00000" pt_clust_6="13000.00000" pt_clust_7="13000.00000" pt_clust_8="13000.00000" pt_clust_9="142.37794"></scales>
<clustering>
<clus scale="   80.059">  5  6 -1 -1</clus>
<clus scale="   91.554">  7  8 -1 -1</clus>
<clus scale="  113.171">  2  7  1 -1</clus>
<clus scale="  142.378">  1  9  2 -1</clus>
<clus scale="  142.378">  1  5  2 -1</clus>
</clustering>
</event>
<event>
 9    1  0.5981539E-005  0.1223982E+03  0.7546771E-02  0.1251872E+00
         21   -1    0    0  501  502  0.00000000000E+00  0.00000000000E+00  0.58277569623E+02  0.58277569623E+02  0.00000000000E+00 0. -1.
          1   -1    0    0  502    0 -0.00000000000E+00 -0.00000000000E+00 -0.48686133892E+03  0.48686133892E+03  0.00000000000E+00 0. -1.
        -24    2    1    2    0    0  0.36920931168E+02 -0.33901282586E+02 -0.93489481597E+02  0.13316651375E+03  0.80502081308E+02 0.  0.
         23    2    1    2    0    0 -0.25560973985E+01 -0.70265835523E+02 -0.98670690348E+02  0.15134268106E+03  0.90691128025E+02 0.  0.
         11    1    3    3    0    0  0.59684251537E+02 -0.34731064756E+02 -0.83334257593E+02  0.10822686926E+03  0.00000000000E+00 0. -1.
        -12    1    3    3    0    0 -0.22763320369E+02  0.82978216988E+00 -0.10155224003E+02  0.24939644489E+02  0.00000000000E+00 0.  1.
        -11    1    4    4    0    0  0.21601486278E+02 -0.26578367394E+02 -0.95345363132E+02  0.10131027635E+03  0.00000000000E+00 0.  1.
         11    1    4    4    0    0 -0.24157583677E+02 -0.43687468129E+02 -0.33253272154E+01  0.50032404717E+02  0.00000000000E+00 0. -1.
          2    1    1    2  501    0 -0.34364833769E+02  0.10416711811E+03 -0.23642359735E+03  0.26062971373E+03  0.00000000000E+00 0. -1.
<scales pt_clust_5="13000.00000" pt_clust_6="13000.00000" pt_clust_7="13000.00000" pt_clust_8="13000.00000" pt_clust_9="82.19756"></scales>
<clustering>
<clus scale="   80.502">  5  6 -1 -1</clus>
<clus scale="   90.691">  7  8 -1 -1</clus>
<clus scale="   94.832">  2  5  1 -1</clus>
<clus scale="   82.198">  1  9  2 -1</clus>
<clus scale="   82.198">  1  5  2 -1</clus>
</clustering>
</event>
<event>
 9    1  0.5981539E-005  0.8636086E+02  0.7546771E-02  0.1312814E+00
         21   -1    0    0  501  502  0.00000000000E+00  0.00000000000E+00  0.11524105580E+03  0.11524105580E+03  0.00000000000E+00 0.  1.
          1   -1    0    0  502    0 -0.00000000000E+00 -0.00000000000E+00 -0.49568518637E+03  0.49568518637E+03  0.00000000000E+00 0. -1.
        -24    2    1    2    0    0  0.96434217969E+01 -0.16908771509E+02 -0.44565821705E+03  0.45361432428E+03  0.82315287930E+02 0.  0.
         23    2    1    2    0    0 -0.45521810830E+02  0.25526219417E+02  0.23166537506E+02  0.10136984442E+03  0.83757589262E+02 0.  0.
         11    1    3    3    0    0  0.40361282423E+02  0.20360206615E+01 -0.13649921786E+03  0.14235594465E+03  0.00000000000E+00 0. -1.
        -12    1    3    3    0    0 -0.30717860626E+02 -0.18944792170E+02 -0.30915899919E+03  0.31125837964E+03  0.00000000000E+00 0.  1.
        -13    1    4    4    0    0 -0.23265637324E+02  0.41978065186E+02  0.45250240228E+02  0.65962353487E+02  0.00000000000E+00 0.  1.
         13    1    4    4    0    0 -0.22256173506E+02 -0.16451845769E+02 -0.22083702722E+02  0.35407490934E+02  0.00000000000E+00 0. -1.
          2    1    1    2  501    0  0.35878389034E+02 -0.86174479084E+01  0.42047548985E+02  0.55942073467E+02  0.00000000000E+00 0. -1.
<scales pt_clust_5="13000.00000" pt_clust_6="13000.00000" pt_clust_7="13000.00000" pt_clust_8="13000.00000" pt_clust_9="36.89877"></scales>
<clustering>
<clus scale="   36.899">  1  9  2 -1</clus>
<clus scale="   82.315">  5  6 -1 -1</clus>
<clus scale="   83.758">  7  8 -1 -1</clus>
<clus scale="   84.963">  2  5  1 -1</clus>
<clus scale="   36.899">  1  5  2 -1</clus>
</clustering>
</event>
<event>
 9    1  0.5981539E-005  0.9334812E+02  0.7546771E-02  0.1302677E+00
         21   -1    0    0  501  502  0.00000000000E+00  0.00000000000E+00  0.26662778126E+03  0.26662778126E+03  0.00000000000E+00 0. -1.
          1   -1    0    0  502    0 -0.00000000000E+00 -0.00000000000E+00 -0.70450610526E+02  0.70450610526E+02  0.00000000000E+00 0. -1.
         23    2    1    2    0    0  0.78777601898E+01 -0.19233732691E+01 -0.14613987482E+02  0.93712218485E+02  0.92209830240E+02 0.  0.
        -24    2    1    2    0    0 -0.38607156124E+02  0.18764975513E+01  0.13323629916E+03  0.15994522788E+03  0.79602328867E+02 0.  0.
         13    1    4    4    0    0 -0.54851984166E+02 -0.17232756546E+02  0.11613745580E+03  0.12959018754E+03  0.00000000000E+00 0. -1.
        -14    1    4    4    0    0  0.16244828042E+02  0.19109254097E+02  0.17098843359E+02  0.30355040347E+02  0.00000000000E+00 0.  1.
        -13    1    3    3    0    0 -0.12114634210E+01  0.44148744617E+02  0.11397426097E+01  0.44180066864E+02  0.00000000000E+00 0.  1.
         13    1    3    3    0    0  0.90892236108E+01 -0.46072117886E+02 -0.15753730091E+02  0.49532151621E+02  0.00000000000E+00 0. -1.
          2    1    1    2  501    0  0.30729395934E+02  0.46875717809E-01  0.77554859051E+02  0.83420945416E+02  0.00000000000E+00 0. -1.
<scales pt_clust_5="13000.00000" pt_clust_6="13000.00000" pt_clust_7="13000.00000" pt_clust_8="13000.00000" pt_clust_9="30.72943"></scales>
<clustering>
<clus scale="   30.729">  1  9  2 -1</clus>
<clus scale="   79.602">  5  6 -1 -1</clus>
<clus scale="   80.918">  1  5  2 -1</clus>
<clus scale="   92.210">  7  8 -1 -1</clus>
<clus scale="   30.729">  1  5  2 -1</clus>
</clustering>
</event>
<event>
 9    1  0.5981539E-005  0.1264923E+03  0.7546771E-02  0.1235499E+00
          3   -1    0    0  502    0 -0.00000000000E+00  0.00000000000E+00  0.21057698392E+03  0.21057698392E+03  0.00000000000E+00 0. -1.
         21   -1    0    0  501  502  0.00000000000E+00 -0.00000000000E+00 -0.18682559269E+03  0.18682559269E+03  0.00000000000E+00 0.  1.
         23    2    1    2    0    0 -0.13072522255E+02 -0.97939820305E+02  0.10322587814E+03  0.16892717961E+03  0.90098339897E+02 0.  0.
        -24    2    1    2    0    0 -0.49968234774E+02  0.53966476011E+02 -0.10126039743E+03  0.14858536038E+03  0.80092048365E+02 0.  0.
         13    1    4    4    0    0  0.19092386067E+02  0.15237201385E+02 -0.68541960859E+01  0.25370682209E+02  0.00000000000E+00 0. -1.
        -14    1    4    4    0    0 -0.69060620840E+02  0.38729274625E+02 -0.94406201345E+02  0.12321467817E+03  0.00000000000E+00 0.  1.
        -11    1    3    3    0    0  0.38091854654E+02 -0.29477549849E+02  0.40116796445E+02  0.62683910959E+02  0.00000000000E+00 0.  1.
         11    1    3    3    0    0 -0.51164376909E+02 -0.68462270455E+02  0.63109081699E+02  0.10624326865E+03  0.00000000000E+00 0. -1.
          4    1    1    2  501    0  0.63040757029E+02  0.43973344294E+02  0.21785910516E+02  0.79890036626E+02  0.00000000000E+00 0. -1.
<scales pt_clust_5="13000.00000" pt_clust_6="13000.00000" pt_clust_7="13000.00000" pt_clust_8="13000.00000" pt_clust_9="76.86220"></scales>
<clustering>
<clus scale="   76.862">  2  9  1 -1</clus>
<clus scale="   80.092">  5  6 -1 -1</clus>
<clus scale="   90.098">  7  8 -1 -1</clus>
<clus scale="  119.571">  2  5  1 -1</clus>
<clus scale="   76.862">  2  5  1 -1</clus>
</clustering>
</event>
<event>
 9    1  0.5981539E-005  0.1648758E+03  0.7546771E-02  0.1184870E+00
         21   -1    0    0  501  502  0.00000000000E+00  0.00000000000E+00  0.59118701392E+02  0.59118701392E+02  0.00000000000E+00 0. -1.
          1   -1    0    0  502    0 -0.00000000000E+00 -0.00000000000E+00 -0.10307367924E+04  0.10307367924E+04  0.00000000000E+00 0. -1.
        -24    2    1    2    0    0 -0.18261552613E+02  0.12838510963E+03 -0.71940604134E+03  0.73541685343E+03  0.80477793932E+02 0.  0.
         23    2    1    2    0    0  0.17165315662E+01 -0.17294745389E+03 -0.23026932512E+03  0.30208385634E+03  0.91197181320E+02 0.  0.
         13    1    3    3    0    0 -0.21937907168E+02  0.10296452398E+03 -0.35955156638E+03  0.37464689223E+03  0.00000000000E+00 0. -1.
        -14    1    3    3    0    0  0.36763545559E+01  0.25420585643E+02 -0.35985447496E+03  0.36076996120E+03  0.00000000000E+00 0.  1.
        -13    1    4    4    0    0 -0.43793506931E+02 -0.86100515617E+02 -0.12859781588E+03  0.16083708617E+03  0.00000000000E+00 0.  1.
         13    1    4    4    0    0  0.45510038497E+02 -0.86846938270E+02 -0.10167150924E+03  0.14124677017E+03  0.00000000000E+00 0. -1.
          2    1    1    2  501    0  0.16545021046E+02  0.44562344259E+02 -0.21942724506E+02  0.52354783984E+02  0.00000000000E+00 0. -1.
<scales pt_clust_5="13000.00000" pt_clust_6="13000.00000" pt_clust_7="13000.00000" pt_clust_8="13000.00000" pt_clust_9="47.53462"></scales>
<clustering>
<clus scale="   47.535">  1  9  2 -1</clus>
<clus scale="   80.478">  5  6 -1 -1</clus>
<clus scale="   91.197">  7  8 -1 -1</clus>
<clus scale="  159.197">  2  5  1 -1</clus>
<clus scale="   47.535">  1  5  2 -1</clus>
</clustering>
</event>
<event>
 9    1  0.5981539E-005  0.1241820E+03  0.7546771E-02  0.1248924E+00
          1   -1    0    0  502    0 -0.00000000000E+00  0.00000000000E+00  0.46089953593E+03  0.46089953593E+03  0.00000000000E+00 0. -1.
         21   -1    0    0  501  502  0.00000000000E+00 -0.00000000000E+00 -0.51502172157E+02  0.51502172157E+02  0.00000000000E+00 0. -1.
         23    2    1    2    0    0  0.12791619813E+02 -0.54833273019E+02  0.32251241522E+03  0.34637147508E+03  0.11308681360E+03 0.  0.
        -24    2    1    2    0    0  0.28992449206E+02  0.43960792561E+02  0.70099266867E+02  0.11970660658E+03  0.81502460397E+02 0.  0.
         11    1    4    4    0    0  0.24117683460E+02 -0.15441381805E+02  0.12805716203E+01  0.28665986660E+02  0.00000000000E+00 0. -1.
        -12    1    4    4    0    0  0.48747657458E+01  0.59402174366E+02  0.68818695247E+02  0.91040619923E+02  0.00000000000E+00 0.  1.
        -13    1    3    3    0    0 -0.42929824086E+02  0.65494907652E+01  0.11053356459E+03  0.11875830298E+03  0.00000000000E+00 0.  1.
         13    1    3    3    0    0  0.55721443899E+02 -0.61382763784E+02  0.21197885063E+03  0.22761317210E+03  0.00000000000E+00 0. -1.
          2    1    1    2  501    0 -0.41784069019E+02  0.10872480457E+02  0.16785681680E+02  0.46323626418E+02  0.00000000000E+00 0. -1.
<scales pt_clust_5="13000.00000" pt_clust_6="13000.00000" pt_clust_7="13000.00000" pt_clust_8="13000.00000" pt_clust_9="43.17545"></scales>
<clustering>
<clus scale="   43.175">  2  9  1 -1</clus>
<clus scale="   81.502">  5  6 -1 -1</clus>
<clus scale="   96.308">  2  5  1 -1</clus>
<clus scale="  113.087">  7  8 -1 -1</clus>
<clus scale="   43.175">  2  5  1 -1</clus>
</clustering>
</event>
<event>
 9    1  0.5981539E-005  0.9928772E+02  0.7546771E-02  0.1289659E+00
         -4   -1    0    0    0  501 -0.00000000000E+00  0.00000000000E+00  0.11620466400E+03  0.11620466400E+03  0.00000000000E+00 0.  1.
         21   -1    0    0  501  502  0.00000000000E+00 -0.00000000000E+00 -0.10667686869E+03  0.10667686869E+03  0.00000000000E+00 0.  1.
        -24    2    1    2    0    0  0.35064899721E+01  0.30747913567E+02  0.71717001382E+01  0.82718109187E+02  0.76374882284E+02 0.  0.
         23    2    1    2    0    0 -0.32135372534E+02 -0.39722018385E+02  0.18069827433E+02  0.10629501854E+03  0.91441737680E+02 0.  0.
         13    1    3    3    0    0  0.35663559035E+02  0.26515797374E+02 -0.10665359002E+02  0.45702591131E+02  0.00000000000E+00 0. -1.
        -14    1    3    3    0    0 -0.32157069063E+02  0.42321161928E+01  0.17837059141E+02  0.37015518056E+02  0.00000000000E+00 0.  1.
        -13    1    4    4    0    0  0.29376884313E+02 -0.21865802709E+02  0.20928724513E+02  0.42179689067E+02  0.00000000000E+00 0. -1.
         13    1    4    4    0    0 -0.61512256846E+02 -0.17856215676E+02 -0.28588970796E+01  0.64115329471E+02  0.00000000000E+00 0.  1.
         -3    1    1    2    0  502  0.28628882562E+02  0.89741048182E+01 -0.15713732261E+02  0.33868404976E+02  0.00000000000E+00 0.  1.
<scales pt_clust_5="13000.00000" pt_clust_6="13000.00000" pt_clust_7="13000.00000" pt_clust_8="13000.00000" pt_clust_9="30.00246"></scales>
<clustering>
<clus scale="   30.002">  2  9  1 -1</clus>
<clus scale="   76.375">  5  6 -1 -1</clus>
<clus scale="   85.613">  1  5  2 -1</clus>
<clus scale="   91.442">  7  8 -1 -1</clus>
<clus scale="   30.002">  2  5  1 -1</clus>
</clustering>
</event>
<event>
 9    1  0.5981539E-005  0.1101913E+03  0.7546771E-02  0.1262505E+00
         21   -1    0    0  501  502  0.00000000000E+00  0.00000000000E+00  0.18938204909E+03  0.18938204909E+03  0.00000000000E+00 0. -1.
         -2   -1    0    0    0  501 -0.00000000000E+00 -0.00000000000E+00 -0.21175368908E+03  0.21175368908E+03  0.00000000000E+00 0.  1.
         23    2    1    2    0    0 -0.52978009137E+02 -0.44279727971E+02  0.46940446655E+02  0.12383531221E+03  0.91457177179E+02 0.  0.
        -24    2    1    2    0    0  0.65265232271E+02 -0.11704296773E+02  0.68459471539E+02  0.12808183086E+03  0.85567020791E+02 0.  0.
         11    1    4    4    0    0  0.63007413741E+02  0.10263168258E+02  0.80649761212E+02  0.10285742945E+03  0.00000000000E+00 0. -1.
        -12    1    4    4    0    0  0.22578185299E+01 -0.21967465030E+02 -0.12190289673E+02  0.25224401414E+02  0.00000000000E+00 0.  1.
        -13    1    3    3    0    0  0.42041085407E+01 -0.19709597538E+02 -0.22754694904E+02  0.30396034345E+02  0.00000000000E+00 0.  1.
         13    1    3    3    0    0 -0.57182117678E+02 -0.24570130433E+02  0.69695141560E+02  0.93439277869E+02  0.00000000000E+00 0. -1.
         -1    1    1    2    0  502 -0.12287223134E+02  0.55984024744E+02 -0.13777155818E+03  0.14921859509E+03  0.00000000000E+00 0.  1.
<scales pt_clust_5="13000.00000" pt_clust_6="13000.00000" pt_clust_7="13000.00000" pt_clust_8="13000.00000" pt_clust_9="57.31658"></scales>
<clustering>
<clus scale="   57.317">  1  9  2 -1</clus>
<clus scale="   85.567">  5  6 -1 -1</clus>
<clus scale="   91.457">  7  8 -1 -1</clus>
<clus scale="  105.354">  1  5  2 -1</clus>
<clus scale="   57.317">  1  5  2 -1</clus>
</clustering>
</event>
<event>
 9    1  0.5981539E-005  0.9767649E+02  0.7546771E-02  0.1294600E+00
         -2   -1    0    0    0  501 -0.00000000000E+00  0.00000000000E+00  0.15286555466E+03  0.15286555466E+03  0.00000000000E+00 0.  1.
         21   -1    0    0  501  502  0.00000000000E+00 -0.00000000000E+00 -0.92793808536E+02  0.92793808536E+02  0.00000000000E+00 0. -1.
         23    2    1    2    0    0  0.24941882149E+02 -0.19325520623E+02  0.66742068758E+02  0.11761294733E+03  0.91557241139E+02 0.  0.
        -24    2    1    2    0    0 -0.10771365129E+01  0.49294902704E+02 -0.73845263628E+01  0.89729317419E+02  0.74603428335E+02 0.  0.
         13    1    4    4    0    0  0.51335610335E+01  0.57347510985E+02 -0.30006460335E+02  0.64926713508E+02  0.00000000000E+00 0. -1.
        -14    1    4    4    0    0 -0.62106975464E+01 -0.80526082811E+01  0.22621933973E+02  0.24802603912E+02  0.00000000000E+00 0.  1.
        -13    1    3    3    0    0  0.56887340326E+02 -0.26300779639E+02  0.33835427072E+02  0.71223146688E+02  0.00000000000E+00 0.  1.
         13    1    3    3    0    0 -0.31945458177E+02  0.69752590165E+01  0.32906641686E+02  0.46389800641E+02  0.00000000000E+00 0. -1.
         -1    1    1    2    0  502 -0.23864745636E+02 -0.29969382081E+02  0.71420373035E+00  0.38317098449E+02  0.00000000000E+00 0.  1.
<scales pt_clust_5="13000.00000" pt_clust_6="13000.00000" pt_clust_7="13000.00000" pt_clust_8="13000.00000" pt_clust_9="38.31044"></scales>
<clustering>
<clus scale="   38.310">  2  9  1 -1</clus>
<clus scale="   74.603">  5  6 -1 -1</clus>
<clus scale="   81.998">  2  5  1 -1</clus>
<clus scale="   91.557">  7  8 -1 -1</clus>
<clus scale="   38.310">  2  5  1 -1</clus>
</clustering>
</event>
<event>
 9    1  0.5981539E-005  0.1481396E+03  0.7546771E-02  0.1207008E+00
         -2   -1    0    0    0  501 -0.00000000000E+00  0.00000000000E+00  0.42907954364E+02  0.42907954364E+02  0.00000000000E+00 0.  1.
         21   -1    0    0  501  502  0.00000000000E+00 -0.00000000000E+00 -0.82613104792E+03  0.82613104792E+03  0.00000000000E+00 0.  1.
         23    2    1    2    0    0 -0.10481801293E+03  0.50927490118E+02 -0.15548621726E+03  0.21603341024E+03  0.94414222980E+02 0.  0.
        -24    2    1    2    0    0  0.11243121823E+03 -0.98463768595E+01 -0.52999141448E+03  0.54670510254E+03  0.72510962995E+02 0.  0.
         11    1    4    4    0    0  0.26297423309E+02  0.14306293404E+02 -0.48660789261E+02  0.57132275600E+02  0.00000000000E+00 0. -1.
        -12    1    4    4    0    0  0.86133794919E+02 -0.24152670263E+02 -0.48133062522E+03  0.48957282694E+03  0.00000000000E+00 0.  1.
        -13    1    3    3    0    0 -0.13629983908E+02 -0.20761181537E+02 -0.38695343250E+01  0.25135162940E+02  0.00000000000E+00 0. -1.
         13    1    3    3    0    0 -0.91188029017E+02  0.71688671655E+02 -0.15161668293E+03  0.19089824730E+03  0.00000000000E+00 0.  1.
         -1    1    1    2    0  502 -0.76132053027E+01 -0.41081113259E+02 -0.97745461812E+02  0.10630048949E+03  0.00000000000E+00 0.  1.
<scales pt_clust_5="13000.00000" pt_clust_6="13000.00000" pt_clust_7="13000.00000" pt_clust_8="13000.00000" pt_clust_9="41.78060"></scales>
<clustering>
<clus scale="   41.781">  2  9  1 -1</clus>
<clus scale="   72.511">  5  6 -1 -1</clus>
<clus scale="   94.414">  7  8 -1 -1</clus>
<clus scale="  135.237">  2  5  1 -1</clus>
<clus scale="   41.781">  2  5  1 -1</clus>
</clustering>
</event>
<event>
 9    1  0.5981539E-005  0.1071503E+03  0.7546771E-02  0.1269866E+00
         21   -1    0    0  501  502  0.00000000000E+00  0.00000000000E+00  0.39264032684E+03  0.39264032684E+03  0.00000000000E+00 0.  1.
         -2   -1    0    0    0  501 -0.00000000000E+00 -0.00000000000E+00 -0.55700067038E+02  0.55700067038E+02  0.00000000000E+00 0.  1.
         23    2    1    2    0    0  0.79540855572E+02 -0.50742651679E+01  0.96255106422E+02  0.15424941777E+03  0.90417595076E+02 0.  0.
        -24    2    1    2    0    0 -0.20770200772E+02 -0.27194291727E+02  0.19223021462E+03  0.21136775857E+03  0.80950251428E+02 0.  0.
         13    1    4    4    0    0 -0.25897657664E+02 -0.34095392004E+02  0.39057828500E+02  0.57954278492E+02  0.00000000000E+00 0. -1.
        -14    1    4    4    0    0  0.51274568919E+01  0.69011002767E+01  0.15317238612E+03  0.15341348007E+03  0.00000000000E+00 0.  1.
        -13    1    3    3    0    0  0.84068191965E+02 -0.27601796641E+02  0.96954043687E+02  0.13126083447E+03  0.00000000000E+00 0.  1.
         13    1    3    3    0    0 -0.45273363930E+01  0.22527531473E+02 -0.69893726587E+00  0.22988583306E+02  0.00000000000E+00 0. -1.
         -1    1    1    2    0  502 -0.58770654800E+02  0.32268556895E+02  0.48454938765E+02  0.82723217542E+02  0.00000000000E+00 0.  1.
<scales pt_clust_5="13000.00000" pt_clust_6="13000.00000" pt_clust_7="13000.00000" pt_clust_8="13000.00000" pt_clust_9="67.04666"></scales>
<clustering>
<clus scale="   67.047">  1  9  2 -1</clus>
<clus scale="   80.950">  5  6 -1 -1</clus>
<clus scale="   90.418">  7  8 -1 -1</clus>
<clus scale="   99.291">  1  5  2 -1</clus>
<clus scale="   67.047">  1  5  2 -1</clus>
</clustering>
</event>
<event>
 9    1  0.5981539E-005  0.1719122E+03  0.7546771E-02  0.1178056E+00
          3   -1    0    0  502    0 -0.00000000000E+00  0.00000000000E+00  0.40833802938E+02  0.40833802938E+02  0.00000000000E+00 0. -1.
         21   -1    0    0  501  502  0.00000000000E+00 -0.00000000000E+00 -0.10228525472E+04  0.10228525472E+04  0.00000000000E+00 0.  1.
         23    2    1    2    0    0 -0.32112311369E+02 -0.14581654768E+03 -0.28807647086E+03  0.33852249663E+03  0.96518192813E+02 0.  0.
        -24    2    1    2    0    0  0.21299185896E+00  0.12947430821E+03 -0.65366376623E+03  0.67124731138E+03  0.80826925561E+02 0.  0.
         13    1    4    4    0    0  0.21948230779E+02  0.12715743732E+03 -0.51778493097E+03  0.53362156388E+03  0.00000000000E+00 0. -1.
        -14    1    4    4    0    0 -0.21735238920E+02  0.23168708891E+01 -0.13587883527E+03  0.13762574750E+03  0.00000000000E+00 0.  1.
        -11    1    3    3    0    0 -0.19500189906E+02 -0.30560376163E+02 -0.10558673000E+02  0.37758172269E+02  0.00000000000E+00 0. -1.
         11    1    3    3    0    0 -0.12612121463E+02 -0.11525617152E+03 -0.27751779786E+03  0.30076432436E+03  0.00000000000E+00 0.  1.
          4    1    1    2  501    0  0.31899319510E+02  0.16342239474E+02 -0.40278507210E+02  0.53916542167E+02  0.00000000000E+00 0. -1.
<scales pt_clust_5="13000.00000" pt_clust_6="13000.00000" pt_clust_7="13000.00000" pt_clust_8="13000.00000" pt_clust_9="35.84183"></scales>
<clustering>
<clus scale="   35.842">  2  9  1 -1</clus>
<clus scale="   80.827">  5  6 -1 -1</clus>
<clus scale="   96.518">  7  8 -1 -1</clus>
<clus scale="  163.619">  2  5  1 -1</clus>
<clus scale="   35.842">  2  5  1 -1</clus>
</clustering>
</event>
<event>
 9    1  0.5981539E-005  0.1046448E+03  0.7546771E-02  0.1272057E+00
          3   -1    0    0  502    0 -0.00000000000E+00  0.00000000000E+00  0.19465792733E+02  0.19465792733E+02  0.00000000000E+00 0. -1.
         21   -1    0    0  501  502  0.00000000000E+00 -0.00000000000E+00 -0.10057933916E+04  0.10057933916E+04  0.00000000000E+00 0. -1.
         23    2    1    2    0    0 -0.12103424727E+02 -0.45578552911E+02 -0.28743498873E+03  0.30280202145E+03  0.82742335420E+02 0.  0.
        -24    2    1    2    0    0 -0.32082306281E+01  0.97529936250E+02 -0.54342816697E+03  0.55782853199E+03  0.79599731387E+02 0.  0.
         13    1    4    4    0    0  0.31997351126E+02  0.16620301219E+02 -0.20138532640E+03  0.20458766967E+03  0.00000000000E+00 0. -1.
        -14    1    4    4    0    0 -0.35205581754E+02  0.80909635031E+02 -0.34204284057E+03  0.35324086232E+03  0.00000000000E+00 0.  1.
        -11    1    3    3    0    0 -0.35263048677E+02  0.57022050497E+01 -0.15205095974E+03  0.15619056343E+03  0.00000000000E+00 0. -1.
         11    1    3    3    0    0  0.23159623950E+02 -0.51280757961E+02 -0.13538402899E+03  0.14661145802E+03  0.00000000000E+00 0.  1.
          4    1    1    2  501    0  0.15311655355E+02 -0.51951383338E+02 -0.15546444313E+03  0.16462863086E+03  0.00000000000E+00 0. -1.
<scales pt_clust_5="13000.00000" pt_clust_6="13000.00000" pt_clust_7="13000.00000" pt_clust_8="13000.00000" pt_clust_9="54.16083"></scales>
<clustering>
<clus scale="   54.161">  2  9  1 -1</clus>
<clus scale="   79.600">  5  6 -1 -1</clus>
<clus scale="   82.742">  7  8 -1 -1</clus>
<clus scale="  102.178">  2  5  1 -1</clus>
<clus scale="   54.161">  2  5  1 -1</clus>
</clustering>
</event>
<event>
 9    1  0.5981539E-005  0.3440652E+03  0.7546771E-02  0.1065078E+00
          1   -1    0    0  502    0 -0.00000000000E+00  0.00000000000E+00  0.49726829822E+03  0.49726829822E+03  0.00000000000E+00 0. -1.
         21   -1    0    0  501  502  0.00000000000E+00 -0.00000000000E+00 -0.28947541575E+03  0.28947541575E+03  0.00000000000E+00 0.  1.
        -24    2    1    2    0    0  0.16756698904E+03  0.13485424978E+03 -0.59124674870E+02  0.23774102756E+03  0.82223503357E+02 0.  0.
         23    2    1    2    0    0  0.57002037088E+02  0.47082234547E+02 -0.46980079079E+02  0.12231327011E+03  0.85366499120E+02 0.  0.
         11    1    3    3    0    0  0.10242950795E+03  0.12071881989E+03 -0.17799843250E+02  0.15931626406E+03  0.00000000000E+00 0. -1.
        -12    1    3    3    0    0  0.65137481094E+02  0.14135429896E+02 -0.41324831620E+02  0.78424763501E+02  0.00000000000E+00 0.  1.
        -11    1    4    4    0    0  0.21758321726E+02  0.59444563984E+02 -0.55293436153E+02  0.84050251833E+02  0.00000000000E+00 0. -1.
         11    1    4    4    0    0  0.35243715362E+02 -0.12362329437E+02  0.83133570741E+01  0.38263018275E+02  0.00000000000E+00 0.  1.
          2    1    1    2  501    0 -0.22456902613E+03 -0.18193648433E+03  0.31389763643E+03  0.42668941630E+03  0.00000000000E+00 0. -1.
<scales pt_clust_5="13000.00000" pt_clust_6="13000.00000" pt_clust_7="13000.00000" pt_clust_8="13000.00000" pt_clust_9="289.01940"></scales>
<clustering>
<clus scale="   82.224">  5  6 -1 -1</clus>
<clus scale="   85.366">  7  8 -1 -1</clus>
<clus scale="   90.416">  5  7 -1 -1</clus>
<clus scale="  289.019">  2  9  1 -1</clus>
<clus scale="  289.019">  2  5  1 -1</clus>
</clustering>
</event>
<event>
 9    1  0.5981539E-005  0.1044047E+03  0.7546771E-02  0.1281036E+00
         -2   -1    0    0    0  501 -0.00000000000E+00  0.00000000000E+00  0.19730139570E+03  0.19730139570E+03  0.00000000000E+00 0.  1.
         21   -1    0    0  501  502  0.00000000000E+00 -0.00000000000E+00 -0.88005389625E+02  0.88005389625E+02  0.00000000000E+00 0.  1.
         23    2    1    2    0    0 -0.12222384146E+02 -0.15897480269E+02  0.70579648945E+02  0.11350521981E+03  0.86601567686E+02 0.  0.
        -24    2    1    2    0    0 -0.26054272086E+02 -0.22167691462E+02  0.42307181462E+02  0.11770023715E+03  0.10437057336E+03 0.  0.
         13    1    4    4    0    0  0.25249009926E+02 -0.43407052581E+02  0.36063206167E+02  0.61824263482E+02  0.00000000000E+00 0. -1.
        -14    1    4    4    0    0 -0.51303282012E+02  0.21239361119E+02  0.62439752949E+01  0.55875973669E+02  0.00000000000E+00 0.  1.
        -13    1    3    3    0    0 -0.34373550993E+02  0.14822596301E+02  0.65296023409E+02  0.75265005428E+02  0.00000000000E+00 0. -1.
         13    1    3    3    0    0  0.22151166847E+02 -0.30720076570E+02  0.52836255360E+01  0.38240214382E+02  0.00000000000E+00 0.  1.
         -1    1    1    2    0  502  0.38276656232E+02  0.38065171731E+02 -0.35908243341E+01  0.54101328363E+02  0.00000000000E+00 0.  1.
<scales pt_clust_5="13000.00000" pt_clust_6="13000.00000" pt_clust_7="13000.00000" pt_clust_8="13000.00000" pt_clust_9="53.98203"></scales>
<clustering>
<clus scale="   53.982">  2  9  1 -1</clus>
<clus scale="   86.602">  7  8 -1 -1</clus>
<clus scale="   86.643">  1  7  2 -1</clus>
<clus scale="  104.371">  5  6 -1 -1</clus>
<clus scale="   53.982">  2  5  1 -1</clus>
</clustering>
</event>
<event>
 9    1  0.5981539E-005  0.1587830E+03  0.7546771E-02  0.1211627E+00
         21   -1    0    0  501  502  0.00000000000E+00  0.00000000000E+00  0.81666841895E+02  0.81666841895E+02  0.00000000000E+00 0. -1.
         -2   -1    0    0    0  501 -0.00000000000E+00 -0.00000000000E+00 -0.55427487772E+03  0.55427487772E+03  0.00000000000E+00 0.  1.
        -24    2    1    2    0    0 -0.29514282511E+02  0.50127403030E+02 -0.23559085073E+03  0.25574026876E+03  0.80722900790E+02 0.  0.
         23    2    1    2    0    0  0.14124098562E+03 -0.36244450789E+02 -0.90803152433E+02  0.19566382353E+03  0.93682672430E+02 0.  0.
         13    1    3    3    0    0  0.17545586351E+02 -0.10275974215E+02 -0.76881590583E+02  0.79524978573E+02  0.00000000000E+00 0. -1.
        -14    1    3    3    0    0 -0.47059868861E+02  0.60403377245E+02 -0.15870926014E+03  0.17621529019E+03  0.00000000000E+00 0.  1.
        -13    1    4    4    0    0  0.12083749216E+03 -0.14121664448E+01 -0.96822599678E+02  0.15484931234E+03  0.00000000000E+00 0. -1.
         13    1    4    4    0    0  0.20403493466E+02 -0.34832284344E+02  0.60194472444E+01  0.40814511186E+02  0.00000000000E+00 0.  1.
         -1    1    1    2    0  502 -0.11172670311E+03 -0.13882952241E+02 -0.14621403267E+03  0.18453762733E+03  0.00000000000E+00 0.  1.
<scales pt_clust_5="13000.00000" pt_clust_6="13000.00000" pt_clust_7="13000.00000" pt_clust_8="13000.00000" pt_clust_9="128.20140"></scales>
<clustering>
<clus scale="   80.723">  5  6 -1 -1</clus>
<clus scale="   93.683">  7  8 -1 -1</clus>
<clus scale="   99.499">  2  5  1 -1</clus>
<clus scale="  128.201">  1  9  2 -1</clus>
<clus scale="  128.201">  1  5  2 -1</clus>
</clustering>
</event>
<event>
 9    1  0.5981539E-005  0.1314647E+03  0.7546771E-02  0.1226827E+00
         21   -1    0    0  501  502  0.00000000000E+00  0.00000000000E+00  0.80541267264E+02  0.80541267264E+02  0.00000000000E+00 0. -1.
          1   -1    0    0  502    0 -0.00000000000E+00 -0.00000000000E+00 -0.33028668072E+03  0.33028668072E+03  0.00000000000E+00 0. -1.
         23    2    1    2    0    0 -0.10754723439E+03 -0.50219955717E+01 -0.18981767520E+03  0.23482024559E+03  0.86707380614E+02 0.  0.
        -24    2    1    2    0    0  0.77685992113E+02 -0.24441927423E+01 -0.36240804908E+01  0.11183964464E+03  0.80336073505E+02 0.  0.
         11    1    4    4    0    0  0.68846601116E+02  0.29662354747E+02  0.10444290029E+02  0.75688790244E+02  0.00000000000E+00 0. -1.
        -12    1    4    4    0    0  0.88393909967E+01 -0.32106547489E+02 -0.14068370520E+02  0.36150854401E+02  0.00000000000E+00 0.  1.
        -11    1    3    3    0    0 -0.79854945387E+01 -0.21303640043E+02 -0.36042937241E+01  0.23034846111E+02  0.00000000000E+00 0.  1.
         11    1    3    3    0    0 -0.99561739853E+02  0.16281644471E+02 -0.18621338148E+03  0.21178539948E+03  0.00000000000E+00 0. -1.
          2    1    1    2  501    0  0.29861242279E+02  0.74661883140E+01 -0.56303657764E+02  0.64168057754E+02  0.00000000000E+00 0. -1.
<scales pt_clust_5="13000.00000" pt_clust_6="13000.00000" pt_clust_7="13000.00000" pt_clust_8="13000.00000" pt_clust_9="30.78049"></scales>
<clustering>
<clus scale="   30.780">  1  9  2 -1</clus>
<clus scale="   80.336">  5  6 -1 -1</clus>
<clus scale="   86.707">  7  8 -1 -1</clus>
<clus scale="  127.353">  1  5  2 -1</clus>
<clus scale="   30.780">  1  5  2 -1</clus>
</clustering>
</event>
<event>
 9    1  0.5981539E-005  0.1411338E+03  0.7546771E-02  0.1225892E+00
          1   -1    0    0  502    0 -0.00000000000E+00  0.00000000000E+00  0.30057726779E+03  0.30057726779E+03  0.00000000000E+00 0. -1.
         21   -1    0    0  501  502  0.00000000000E+00 -0.00000000000E+00 -0.17484480708E+03  0.17484480708E+03  0.00000000000E+00 0. -1.
         23    2    1    2    0    0  0.28594010612E+02  0.41408060077E+02 -0.90470046574E+01  0.10533922626E+03  0.92099182485E+02 0.  0.
        -24    2    1    2    0    0 -0.12456277230E+03 -0.93884132263E+02  0.18027915201E+03  0.25161782062E+03  0.80503667440E+02 0.  0.
         13    1    4    4    0    0 -0.91348789203E+02 -0.97054159137E+02  0.17134240254E+03  0.21707678366E+03  0.00000000000E+00 0. -1.
        -14    1    4    4    0    0 -0.33213983092E+02  0.31700268739E+01  0.89367494660E+01  0.34541036960E+02  0.00000000000E+00 0.  1.
        -11    1    3    3    0    0 -0.30527234649E+02  0.19047335638E+02 -0.20033165546E+02  0.41183015577E+02  0.00000000000E+00 0. -1.
         11    1    3    3    0    0  0.59121245261E+02  0.22360724439E+02  0.10986160888E+02  0.64156210687E+02  0.00000000000E+00 0.  1.
          2    1    1    2  501    0  0.95968761683E+02  0.52476072186E+02 -0.45499686646E+02  0.11846502799E+03  0.00000000000E+00 0. -1.
<scales pt_clust_5="13000.00000" pt_clust_6="13000.00000" pt_clust_7="13000.00000" pt_clust_8="13000.00000" pt_clust_9="115.92201"></scales>
<clustering>
<clus scale="   80.504">  5  6 -1 -1</clus>
<clus scale="   92.099">  7  8 -1 -1</clus>
<clus scale="  104.950">  1  7  2 -1</clus>
<clus scale="  115.922">  2  9  1 -1</clus>
<clus scale="  115.922">  2  5  1 -1</clus>
</clustering>
</event>
<event>
 9    1  0.5981539E-005  0.1136623E+03  0.7546771E-02  0.1257220E+00
         21   -1    0    0  501  502  0.00000000000E+00  0.00000000000E+00  0.37394570630E+03  0.37394570630E+03  0.00000000000E+00 0.  1.
         -2   -1    0    0    0  501 -0.00000000000E+00 -0.00000000000E+00 -0.22070688544E+03  0.22070688544E+03  0.00000000000E+00 0.  1.
         23    2    1    2    0    0 -0.26375501410E+02  0.57430510435E+02 -0.12516992063E+03  0.16631830354E+03  0.89444611122E+02 0.  0.
        -24    2    1    2    0    0  0.68753666202E+02 -0.61331653686E+02 -0.22719036666E+02  0.12421413671E+03  0.80152097729E+02 0.  0.
         11    1    4    4    0    0  0.71868854328E+02 -0.36542369051E+02  0.11923147094E+02  0.81502382756E+02  0.00000000000E+00 0. -1.
        -12    1    4    4    0    0 -0.31151881256E+01 -0.24789284635E+02 -0.34642183760E+02  0.42711753950E+02  0.00000000000E+00 0.  1.
        -13    1    3    3    0    0 -0.13799152944E+02  0.38449078797E+02 -0.13534726863E+03  0.14137761990E+03  0.00000000000E+00 0.  1.
         13    1    3    3    0    0 -0.12576348466E+02  0.18981431637E+02  0.10177348008E+02  0.24940683636E+02  0.00000000000E+00 0. -1.
         -1    1    1    2    0  502 -0.42378164792E+02  0.39011432508E+01  0.30112777815E+03  0.30412015149E+03  0.00000000000E+00 0.  1.
<scales pt_clust_5="13000.00000" pt_clust_6="13000.00000" pt_clust_7="13000.00000" pt_clust_8="13000.00000" pt_clust_9="42.55735"></scales>
<clustering>
<clus scale="   42.557">  1  9  2 -1</clus>
<clus scale="   80.152">  5  6 -1 -1</clus>
<clus scale="   89.445">  7  8 -1 -1</clus>
<clus scale="  106.504">  1  5  2 -1</clus>
<clus scale="   42.557">  1  5  2 -1</clus>
</clustering>
</event>
<event>
 9    1  0.5981539E-005  0.1618733E+03  0.7546771E-02  0.1189563E+00
         -2   -1    0    0    0  501 -0.00000000000E+00  0.00000000000E+00  0.11713804850E+03  0.11713804850E+03  0.00000000000E+00 0.  1.
         21   -1    0    0  501  502  0.00000000000E+00 -0.00000000000E+00 -0.28263657480E+03  0.28263657480E+03  0.00000000000E+00 0.  1.
        -24    2    1    2    0    0 -0.13842891644E+03  0.47763557096E+02 -0.54233963758E+02  0.17183180837E+03  0.71700245814E+02 0.  0.
         23    2    1    2    0    0  0.10058932178E+03 -0.62049773516E+02 -0.11314331160E+03  0.18745256176E+03  0.91480423607E+02 0.  0.
         13    1    3    3    0    0 -0.36023757987E+02 -0.18648558296E+02 -0.82036354318E+01  0.41385740302E+02  0.00000000000E+00 0. -1.
        -14    1    3    3    0    0 -0.10240515845E+03  0.66412115392E+02 -0.46030328326E+02  0.13044606807E+03  0.00000000000E+00 0.  1.
        -13    1    4    4    0    0  0.41137810050E+02  0.18364561137E+02 -0.15388883188E+02  0.47606661795E+02  0.00000000000E+00 0. -1.
         13    1    4    4    0    0  0.59451511730E+02 -0.80414334654E+02 -0.97754428409E+02  0.13984589997E+03  0.00000000000E+00 0.  1.
         -1    1    1    2    0  502  0.37839594657E+02  0.14286216421E+02  0.18787490606E+01  0.40490253166E+02  0.00000000000E+00 0.  1.
<scales pt_clust_5="13000.00000" pt_clust_6="13000.00000" pt_clust_7="13000.00000" pt_clust_8="13000.00000" pt_clust_9="40.44666"></scales>
<clustering>
<clus scale="   40.447">  2  9  1 -1</clus>
<clus scale="   71.700">  5  6 -1 -1</clus>
<clus scale="   91.480">  7  8 -1 -1</clus>
<clus scale="  151.576">  1  5  2 -1</clus>
<clus scale="   40.447">  2  5  1 -1</clus>
</clustering>
</event>
<event>
 9    1  0.5981539E-005  0.1071827E+03  0.7546771E-02  0.1269743E+00
         21   -1    0    0  501  502  0.00000000000E+00  0.00000000000E+00  0.16829747304E+03  0.16829747304E+03  0.00000000000E+00 0. -1.
         -2   -1    0    0    0  501 -0.00000000000E+00 -0.00000000000E+00 -0.26617561498E+03  0.26617561498E+03  0.00000000000E+00 0.  1.
         23    2    1    2    0    0 -0.53170807353E+02  0.23813766228E+02 -0.21470141921E+03  0.23923374071E+03  0.87987800665E+02 0.  0.
        -24    2    1    2    0    0  0.72285264619E+02 -0.39698148873E+02  0.50608567174E+02  0.12451407656E+03  0.78367248808E+02 0.  0.
         11    1    4    4    0    0  0.98973739193E+01 -0.41093863519E+02  0.45187625726E+02  0.61875561801E+02  0.00000000000E+00 0. -1.
        -12    1    4    4    0    0  0.62387890699E+02  0.13957146464E+01  0.54209414485E+01  0.62638514761E+02  0.00000000000E+00 0.  1.
        -13    1    3    3    0    0  0.57986378305E+01 -0.26962711880E+02 -0.61535192081E+02  0.67432869560E+02  0.00000000000E+00 0. -1.
         13    1    3    3    0    0 -0.58969445183E+02  0.50776478109E+02 -0.15316622713E+03  0.17180087115E+03  0.00000000000E+00 0.  1.
         -1    1    1    2    0  502 -0.19114457266E+02  0.15884382645E+02  0.66214710101E+02  0.70725270748E+02  0.00000000000E+00 0.  1.
<scales pt_clust_5="13000.00000" pt_clust_6="13000.00000" pt_clust_7="13000.00000" pt_clust_8="13000.00000" pt_clust_9="24.85309"></scales>
<clustering>
<clus scale="   24.853">  1  9  2 -1</clus>
<clus scale="   78.367">  5  6 -1 -1</clus>
<clus scale="   87.988">  7  8 -1 -1</clus>
<clus scale="   99.437">  1  5  2 -1</clus>
<clus scale="   24.853">  1  5  2 -1</clus>
</clustering>
</event>
<event>
 9    1  0.5981539E-005  0.2410587E+03  0.7546771E-02  0.1120370E+00
         -2   -1    0    0    0  501 -0.00000000000E+00  0.00000000000E+00  0.14143605218E+04  0.14143605218E+04  0.00000000000E+00 0.  1.
         21   -1    0    0  501  502  0.00000000000E+00 -0.00000000000E+00 -0.94323192856E+02  0.94323192856E+02  0.00000000000E+00 0.  1.
        -24    2    1    2    0    0  0.11065276580E+03 -0.19409979777E+03  0.10605941838E+04  0.10859475217E+04  0.67106116907E+02 0.  0.
         23    2    1    2    0    0 -0.42714064716E+02  0.23112578625E+03  0.22662569349E+03  0.33869110953E+03  0.90049110662E+02 0.  0.
         13    1    3    3    0    0  0.26280509805E+01 -0.20866166500E+02  0.40609972639E+02  0.45732629863E+02  0.00000000000E+00 0. -1.
        -14    1    3    3    0    0  0.10802471482E+03 -0.17323363127E+03  0.10199842112E+04  0.10402148918E+04  0.00000000000E+00 0.  1.
        -11    1    4    4    0    0  0.84342202726E+01  0.94137103512E+02  0.42674882973E+02  0.10370186096E+03  0.00000000000E+00 0.  1.
         11    1    4    4    0    0 -0.51148284989E+02  0.13698868274E+03  0.18395081051E+03  0.23498924857E+03  0.00000000000E+00 0. -1.
         -1    1    1    2    0  502 -0.67938701086E+02 -0.37025988478E+02  0.32817451656E+02  0.84045083505E+02  0.00000000000E+00 0.  1.
<scales pt_clust_5="13000.00000" pt_clust_6="13000.00000" pt_clust_7="13000.00000" pt_clust_8="13000.00000" pt_clust_9="77.37306"></scales>
<clustering>
<clus scale="   67.106">  5  6 -1 -1</clus>
<clus scale="   77.373">  2  9  1 -1</clus>
<clus scale="   90.049">  7  8 -1 -1</clus>
<clus scale="  233.460">  1  5  2 -1</clus>
<clus scale="   77.373">  2  5  1 -1</clus>
</clustering>
</event>
<event>
 9    1  0.5981539E-005  0.1224500E+03  0.7546771E-02  0.1260715E+00
         -4   -1    0    0    0  501 -0.00000000000E+00  0.00000000000E+00  0.38310916769E+02  0.38310916769E+02  0.00000000000E+00 0.  1.
         21   -1    0    0  501  502  0.00000000000E+00 -0.00000000000E+00 -0.92980279219E+03  0.92980279219E+03  0.00000000000E+00 0.  1.
        -24    2    1    2    0    0  0.54549354251E+01 -0.67796685451E+01 -0.29324309261E+03  0.30383265856E+03  0.79038299693E+02 0.  0.
         23    2    1    2    0    0  0.47189299422E+02 -0.60610542342E+02 -0.87126218037E+02  0.14605413851E+03  0.88545839445E+02 0.  0.
         13    1    3    3    0    0 -0.35414326993E+02 -0.13793466580E+02 -0.14525808102E+03  0.15014774184E+03  0.00000000000E+00 0. -1.
        -14    1    3    3    0    0  0.40869262418E+02  0.70137980349E+01 -0.14798501159E+03  0.15368491672E+03  0.00000000000E+00 0.  1.
        -13    1    4    4    0    0  0.78044527970E+01 -0.47287588213E+02  0.17227379541E+01  0.47958245469E+02  0.00000000000E+00 0.  1.
         13    1    4    4    0    0  0.39384846625E+02 -0.13322954129E+02 -0.88848955991E+02  0.98095893039E+02  0.00000000000E+00 0. -1.
         -3    1    1    2    0  502 -0.52644234848E+02  0.67390210887E+02 -0.51112256477E+03  0.51822691189E+03  0.00000000000E+00 0.  1.
<scales pt_clust_5="13000.00000" pt_clust_6="13000.00000" pt_clust_7="13000.00000" pt_clust_8="13000.00000" pt_clust_9="84.57912"></scales>
<clustering>
<clus scale="   79.038">  5  6 -1 -1</clus>
<clus scale="   79.516">  1  5  2 -1</clus>
<clus scale="   84.579">  2  9  1 -1</clus>
<clus scale="   88.546">  7  8 -1 -1</clus>
<clus scale="   84.579">  2  5  1 -1</clus>
</clustering>
</event>
<event>
 9    1  0.5981539E-005  0.9488085E+02  0.7546771E-02  0.1298358E+00
         21   -1    0    0  501  502  0.00000000000E+00  0.00000000000E+00  0.48346368887E+02  0.48346368887E+02  0.00000000000E+00 0. -1.
          3   -1    0    0  502    0 -0.00000000000E+00 -0.00000000000E+00 -0.38347760902E+03  0.38347760902E+03  0.00000000000E+00 0. -1.
        -24    2    1    2    0    0 -0.19684770868E+02  0.73769232987E+01 -0.22727988883E+03  0.24200828194E+03  0.80436008463E+02 0.  0.
         23    2    1    2    0    0  0.32759800262E+02  0.11246933730E+02 -0.21951765919E+02  0.10095319987E+03  0.92249501383E+02 0.  0.
         11    1    3    3    0    0  0.28697425925E+02  0.13814600561E+02 -0.11986524062E+03  0.12402443853E+03  0.00000000000E+00 0. -1.
        -12    1    3    3    0    0 -0.48382196794E+02 -0.64376772628E+01 -0.10741464822E+03  0.11798384341E+03  0.00000000000E+00 0.  1.
        -11    1    4    4    0    0 -0.20008629140E+02 -0.20027011246E+02 -0.27367012172E+02  0.39374862218E+02  0.00000000000E+00 0.  1.
         11    1    4    4    0    0  0.52768429402E+02  0.31273944976E+02  0.54152462524E+01  0.61578337651E+02  0.00000000000E+00 0. -1.
          4    1    1    2  501    0 -0.13075029393E+02 -0.18623857029E+02 -0.85899585376E+02  0.88862496094E+02  0.00000000000E+00 0. -1.
<scales pt_clust_5="13000.00000" pt_clust_6="13000.00000" pt_clust_7="13000.00000" pt_clust_8="13000.00000" pt_clust_9="22.75533"></scales>
<clustering>
<clus scale="   22.755">  1  9  2 -1</clus>
<clus scale="   80.436">  5  6 -1 -1</clus>
<clus scale="   83.441">  2  5  1 -1</clus>
<clus scale="   92.250">  7  8 -1 -1</clus>
<clus scale="   22.755">  1  5  2 -1</clus>
</clustering>
</event>
<event>
 9    1  0.5981539E-005  0.9605706E+02  0.7546771E-02  0.1292732E+00
         21   -1    0    0  501  502  0.00000000000E+00  0.00000000000E+00  0.35025755839E+02  0.35025755839E+02  0.00000000000E+00 0. -1.
         -2   -1    0    0    0  501 -0.00000000000E+00 -0.00000000000E+00 -0.62348635087E+03  0.62348635087E+03  0.00000000000E+00 0.  1.
         23    2    1    2    0    0 -0.16505978501E+02  0.40413817452E+02 -0.32803452852E+03  0.34220348612E+03  0.87125484483E+02 0.  0.
        -24    2    1    2    0    0 -0.57381540194E+02 -0.39129371013E+02 -0.15431097073E+03  0.18699725692E+03  0.79576061575E+02 0.  0.
         13    1    4    4    0    0 -0.27332723586E+02 -0.51578722693E+02 -0.47235894592E+02  0.75091092355E+02  0.00000000000E+00 0. -1.
        -14    1    4    4    0    0 -0.30048816608E+02  0.12449351680E+02 -0.10707507614E+03  0.11190616456E+03  0.00000000000E+00 0.  1.
        -13    1    3    3    0    0 -0.69329610762E+01  0.65518571240E+02 -0.17842458676E+03  0.19020011117E+03  0.00000000000E+00 0. -1.
         13    1    3    3    0    0 -0.95730174244E+01 -0.25104753789E+02 -0.14960994176E+03  0.15200337495E+03  0.00000000000E+00 0.  1.
         -1    1    1    2    0  502  0.73887518694E+02 -0.12844464391E+01 -0.10611509578E+03  0.12931136367E+03  0.00000000000E+00 0.  1.
<scales pt_clust_5="13000.00000" pt_clust_6="13000.00000" pt_clust_7="13000.00000" pt_clust_8="13000.00000" pt_clust_9="73.89868"></scales>
<clustering>
<clus scale="   73.899">  1  9  2 -1</clus>
<clus scale="   79.576">  5  6 -1 -1</clus>
<clus scale="   87.125">  7  8 -1 -1</clus>
<clus scale="   89.266">  1  5  2 -1</clus>
<clus scale="   73.899">  1  5  2 -1</clus>
</clustering>
</event>
<event>
 9    1  0.5981539E-005  0.1751177E+03  0.7546771E-02  0.1189382E+00
         21   -1    0    0  501  502  0.00000000000E+00  0.00000000000E+00  0.42765893097E+03  0.42765893097E+03  0.00000000000E+00 0. -1.
          1   -1    0    0  502    0 -0.00000000000E+00 -0.00000000000E+00 -0.31239484273E+03  0.31239484273E+03  0.00000000000E+00 0. -1.
        -24    2    1    2    0    0  0.11071453141E+02 -0.86130122806E+02 -0.18534392079E+03  0.22090825972E+03  0.83109055532E+02 0.  0.
         23    2    1    2    0    0 -0.70677139678E+01  0.23416658886E+03  0.80784914096E+02  0.25409265458E+03  0.56150964771E+02 0.  0.
         11    1    3    3    0    0 -0.25794315033E+02 -0.39210326222E+01 -0.21016337073E+02  0.33502352287E+02  0.00000000000E+00 0. -1.
        -12    1    3    3    0    0  0.36865768174E+02 -0.82209090184E+02 -0.16432758372E+03  0.18740590744E+03  0.00000000000E+00 0.  1.
        -11    1    4    4    0    0  0.20664945922E+02  0.14470027371E+03  0.37461118335E+02  0.15089249348E+03  0.00000000000E+00 0.  1.
         11    1    4    4    0    0 -0.27732659890E+02  0.89466315158E+02  0.43323795761E+02  0.10320016110E+03  0.00000000000E+00 0. -1.
          2    1    1    2  501    0 -0.40037391729E+01 -0.14803646606E+03  0.21982309494E+03  0.26505285940E+03  0.00000000000E+00 0. -1.
<scales pt_clust_5="13000.00000" pt_clust_6="13000.00000" pt_clust_7="13000.00000" pt_clust_8="13000.00000" pt_clust_9="165.87128"></scales>
<clustering>
<clus scale="   56.151">  7  8 -1 -1</clus>
<clus scale="   83.109">  5  6 -1 -1</clus>
<clus scale="  120.200">  2  5  1 -1</clus>
<clus scale="  165.871">  1  9  2 -1</clus>
<clus scale="  165.871">  1  5  2 -1</clus>
</clustering>
</event>
<event>
 9    1  0.5981539E-005  0.1504972E+03  0.7546771E-02  0.1201940E+00
          1   -1    0    0  502    0 -0.00000000000E+00  0.00000000000E+00  0.30395970965E+03  0.30395970965E+03  0.00000000000E+00 0. -1.
         21   -1    0    0  501  502  0.00000000000E+00 -0.00000000000E+00 -0.29958647742E+03  0.29958647742E+03  0.00000000000E+00 0.  1.
         23    2    1    2    0    0 -0.96962386133E+02  0.68172551334E+02  0.25060036790E+03  0.29173754928E+03  0.90890330555E+02 0.  0.
        -24    2    1    2    0    0  0.98858670193E+02 -0.91259238544E+02 -0.16455297188E+03  0.22691305457E+03  0.79439086648E+02 0.  0.
         13    1    4    4    0    0  0.41166404989E+02 -0.62480845355E+01 -0.92461063252E+02  0.10140394311E+03  0.00000000000E+00 0. -1.
        -14    1    4    4    0    0  0.57692265203E+02 -0.85011154009E+02 -0.72091908626E+02  0.12550911146E+03  0.00000000000E+00 0.  1.
        -13    1    3    3    0    0 -0.69380001840E+02  0.43466155823E+02  0.71029843423E+02  0.10838879100E+03  0.00000000000E+00 0. -1.
         13    1    3    3    0    0 -0.27582384293E+02  0.24706395510E+02  0.17957052448E+03  0.18334875828E+03  0.00000000000E+00 0.  1.
          2    1    1    2  501    0 -0.18962840599E+01  0.23086687210E+02 -0.81674163796E+02  0.84895583226E+02  0.00000000000E+00 0. -1.
<scales pt_clust_5="13000.00000" pt_clust_6="13000.00000" pt_clust_7="13000.00000" pt_clust_8="13000.00000" pt_clust_9="23.16443"></scales>
<clustering>
<clus scale="   23.164">  2  9  1 -1</clus>
<clus scale="   79.439">  5  6 -1 -1</clus>
<clus scale="   90.890">  7  8 -1 -1</clus>
<clus scale="  143.871">  2  5  1 -1</clus>
<clus scale="   23.164">  2  5  1 -1</clus>
</clustering>
</event>
<event>
 9    1  0.5981539E-005  0.1640633E+03  0.7546771E-02  0.1201137E+00
          1   -1    0    0  502    0 -0.00000000000E+00  0.00000000000E+00  0.64212034834E+03  0.64212034834E+03  0.00000000000E+00 0. -1.
         21   -1    0    0  501  502  0.00000000000E+00 -0.00000000000E+00 -0.13020940728E+03  0.13020940728E+03  0.00000000000E+00 0. -1.
         23    2    1    2    0    0 -0.44509402670E+02  0.59677079397E+02  0.40559082541E+03  0.42103748318E+03  0.85007081217E+02 0.  0.
        -24    2    1    2    0    0 -0.72919802851E+02  0.57070184119E+02  0.13623270641E+03  0.18302372239E+03  0.79774865085E+02 0.  0.
         13    1    4    4    0    0 -0.45341045080E+02  0.52839039721E+02  0.34828775683E+02  0.77851256272E+02  0.00000000000E+00 0. -1.
        -14    1    4    4    0    0 -0.27578757771E+02  0.42311443985E+01  0.10140393072E+03  0.10517246612E+03  0.00000000000E+00 0.  1.
        -11    1    3    3    0    0 -0.33359108397E+02 -0.15128954600E+02  0.11073194943E+03  0.11663309995E+03  0.00000000000E+00 0.  1.
         11    1    3    3    0    0 -0.11150294273E+02  0.74806033997E+02  0.29485887598E+03  0.30440438323E+03  0.00000000000E+00 0. -1.
          2    1    1    2  501    0  0.11742920552E+03 -0.11674726352E+03 -0.29912590752E+02  0.16826855004E+03  0.00000000000E+00 0. -1.
<scales pt_clust_5="13000.00000" pt_clust_6="13000.00000" pt_clust_7="13000.00000" pt_clust_8="13000.00000" pt_clust_9="143.36226"></scales>
<clustering>
<clus scale="   79.775">  5  6 -1 -1</clus>
<clus scale="   85.007">  7  8 -1 -1</clus>
<clus scale="  112.998">  1  7  2 -1</clus>
<clus scale="  143.362">  2  9  1 -1</clus>
<clus scale="  143.362">  2  5  1 -1</clus>
</clustering>
</event>
<event>
 9    1  0.5981539E-005  0.2007846E+03  0.7546771E-02  0.1149121E+00
          1   -1    0    0  502    0 -0.00000000000E+00  0.00000000000E+00  0.14018319643E+04  0.14018319643E+04  0.00000000000E+00 0. -1.
         21   -1    0    0  501  502  0.00000000000E+00 -0.00000000000E+00 -0.42095230746E+02  0.42095230746E+02  0.00000000000E+00 0. -1.
         23    2    1    2    0    0 -0.92319222855E+02  0.15330434413E+03  0.74285823271E+03  0.76877946781E+03  0.84607655529E+02 0.  0.
        -24    2    1    2    0    0  0.14131914284E+03 -0.13170728456E+03  0.40407588601E+03  0.45571122613E+03  0.84127825501E+02 0.  0.
         11    1    4    4    0    0  0.13270389680E+03 -0.14361518657E+03  0.36729510240E+03  0.41610255742E+03  0.00000000000E+00 0. -1.
        -12    1    4    4    0    0  0.86152460454E+01  0.11907902003E+02  0.36780783606E+02  0.39608668713E+02  0.00000000000E+00 0.  1.
        -11    1    3    3    0    0 -0.83354778202E+02  0.10643051770E+03  0.65491326365E+03  0.66872031302E+03  0.00000000000E+00 0. -1.
         11    1    3    3    0    0 -0.89644446530E+01  0.46873826434E+02  0.87944969068E+02  0.10005915479E+03  0.00000000000E+00 0.  1.
          2    1    1    2  501    0 -0.48999919989E+02 -0.21597059569E+02  0.21280261485E+03  0.21943650113E+03  0.00000000000E+00 0. -1.
<scales pt_clust_5="13000.00000" pt_clust_6="13000.00000" pt_clust_7="13000.00000" pt_clust_8="13000.00000" pt_clust_9="53.54837"></scales>
<clustering>
<clus scale="   53.548">  2  9  1 -1</clus>
<clus scale="   84.128">  5  6 -1 -1</clus>
<clus scale="   84.608">  7  8 -1 -1</clus>
<clus scale="  200.583">  2  5  1 -1</clus>
<clus scale="   53.548">  2  5  1 -1</clus>
</clustering>
</event>
<event>
 9    1  0.5981539E-005  0.1294037E+03  0.7546771E-02  0.1230528E+00
          1   -1    0    0  502    0 -0.00000000000E+00  0.00000000000E+00  0.12496333273E+04  0.12496333273E+04  0.00000000000E+00 0. -1.
         21   -1    0    0  501  502  0.00000000000E+00 -0.00000000000E+00 -0.56481099259E+02  0.56481099259E+02  0.00000000000E+00 0. -1.
        -24    2    1    2    0    0 -0.35899139686E+02 -0.83843445698E+02  0.10271442285E+04  0.10345733687E+04  0.83655946639E+02 0.  0.
         23    2    1    2    0    0 -0.14547534661E+02  0.10274530019E+03  0.56853404932E+02  0.14981648116E+03  0.91893639053E+02 0.  0.
         11    1    3    3    0    0 -0.32414719360E+02 -0.62700075122E+02  0.34773091347E+03  0.35482221131E+03  0.00000000000E+00 0. -1.
        -12    1    3    3    0    0 -0.34844203267E+01 -0.21143370576E+02  0.67941331504E+03  0.67975115738E+03  0.00000000000E+00 0.  1.
        -13    1    4    4    0    0  0.48609875883E+01  0.11008113970E+03  0.26978237389E+02  0.11344298926E+03  0.00000000000E+00 0. -1.
         13    1    4    4    0    0 -0.19408522249E+02 -0.73358395157E+01  0.29875167543E+02  0.36373491900E+02  0.00000000000E+00 0.  1.
          2    1    1    2  501    0  0.50446674347E+02 -0.18901854491E+02  0.10915459462E+03  0.12172457674E+03  0.00000000000E+00 0. -1.
<scales pt_clust_5="13000.00000" pt_clust_6="13000.00000" pt_clust_7="13000.00000" pt_clust_8="13000.00000" pt_clust_9="53.87158"></scales>
<clustering>
<clus scale="   53.872">  2  9  1 -1</clus>
<clus scale="   83.656">  5  6 -1 -1</clus>
<clus scale="   91.894">  7  8 -1 -1</clus>
<clus scale="  123.690">  1  5  2 -1</clus>
<clus scale="   53.872">  2  5  1 -1</clus>
</clustering>
</event>
<event>
 9    1  0.5981539E-005  0.9165113E+02  0.7546771E-02  0.1305718E+00
          1   -1    0    0  502    0 -0.00000000000E+00  0.00000000000E+00  0.43141045362E+03  0.43141045362E+03  0.00000000000E+00 0. -1.
         21   -1    0    0  501  502  0.00000000000E+00 -0.00000000000E+00 -0.33807231099E+02  0.33807231099E+02  0.00000000000E+00 0. -1.
         23    2    1    2    0    0  0.70349438566E+01  0.43512567410E+01  0.26600203986E+03  0.28136198376E+03  0.91318436412E+02 0.  0.
        -24    2    1    2    0    0 -0.88161297483E+01  0.22838680440E+02  0.50091282362E+02  0.97911945195E+02  0.80487781528E+02 0.  0.
         11    1    4    4    0    0  0.33035675181E+02  0.11328236301E+02  0.49248069296E+01  0.35269512268E+02  0.00000000000E+00 0. -1.
        -12    1    4    4    0    0 -0.41851804929E+02  0.11510444139E+02  0.45166475433E+02  0.62642432927E+02  0.00000000000E+00 0.  1.
        -13    1    3    3    0    0 -0.39645907892E+02 -0.68953323127E+01  0.84138713873E+02  0.93266643515E+02  0.00000000000E+00 0. -1.
         13    1    3    3    0    0  0.46680851748E+02  0.11246589054E+02  0.18186332598E+03  0.18809534025E+03  0.00000000000E+00 0.  1.
          2    1    1    2  501    0  0.17811858917E+01 -0.27189937181E+02  0.81509900304E+02  0.85943755763E+02  0.00000000000E+00 0. -1.
<scales pt_clust_5="13000.00000" pt_clust_6="13000.00000" pt_clust_7="13000.00000" pt_clust_8="13000.00000" pt_clust_9="27.24823"></scales>
<clustering>
<clus scale="   27.248">  2  9  1 -1</clus>
<clus scale="   80.488">  5  6 -1 -1</clus>
<clus scale="   80.865">  2  5  1 -1</clus>
<clus scale="   91.318">  7  8 -1 -1</clus>
<clus scale="   27.248">  2  5  1 -1</clus>
</clustering>
</event>
<event>
 9    1  0.5981539E-005  0.1139751E+03  0.7546771E-02  0.1257117E+00
          1   -1    0    0  502    0 -0.00000000000E+00  0.00000000000E+00  0.20672029665E+03  0.20672029665E+03  0.00000000000E+00 0. -1.
         21   -1    0    0  501  502  0.00000000000E+00 -0.00000000000E+00 -0.11779243557E+03  0.11779243557E+03  0.00000000000E+00 0.  1.
        -24    2    1    2    0    0  0.12413004369E+02 -0.65879925754E+02  0.12889396280E+03  0.16612751502E+03  0.80563331010E+02 0.  0.
         23    2    1    2    0    0  0.91717547305E+01  0.78878909371E+02 -0.50730570640E+02  0.13098541443E+03  0.90981231956E+02 0.  0.
         11    1    3    3    0    0  0.26918454677E+02 -0.68879741029E+02  0.13170843823E+03  0.15105010634E+03  0.00000000000E+00 0. -1.
        -12    1    3    3    0    0 -0.14505450308E+02  0.29998152752E+01 -0.28144754238E+01  0.15077408671E+02  0.00000000000E+00 0.  1.
        -13    1    4    4    0    0  0.26105040911E+02  0.30131662738E+02  0.19059307612E+02  0.44188770824E+02  0.00000000000E+00 0. -1.
         13    1    4    4    0    0 -0.16933286181E+02  0.48747246633E+02 -0.69789878252E+02  0.86796643608E+02  0.00000000000E+00 0.  1.
          2    1    1    2  501    0 -0.21584759099E+02 -0.12998983618E+02  0.10764468920E+02  0.27399802766E+02  0.00000000000E+00 0. -1.
<scales pt_clust_5="13000.00000" pt_clust_6="13000.00000" pt_clust_7="13000.00000" pt_clust_8="13000.00000" pt_clust_9="25.19675"></scales>
<clustering>
<clus scale="   25.197">  2  9  1 -1</clus>
<clus scale="   80.563">  5  6 -1 -1</clus>
<clus scale="   90.981">  7  8 -1 -1</clus>
<clus scale="  105.845">  1  5  2 -1</clus>
<clus scale="   25.197">  2  5  1 -1</clus>
</clustering>
</event>
<event>
 9    1  0.5981539E-005  0.1481155E+03  0.7546771E-02  0.1205057E+00
          1   -1    0    0  502    0 -0.00000000000E+00  0.00000000000E+00  0.18247446363E+03  0.18247446363E+03  0.00000000000E+00 0. -1.
         21   -1    0    0  501  502  0.00000000000E+00 -0.00000000000E+00 -0.23747812272E+03  0.23747812272E+03  0.00000000000E+00 0. -1.
        -24    2    1    2    0    0  0.37760892394E+02  0.12889655556E+03  0.91642703229E+02  0.18176867266E+03  0.81248127835E+02 0.  0.
         23    2    1    2    0    0 -0.36131387571E+02 -0.63931054020E+02 -0.69471475323E+02  0.13729221502E+03  0.92898921343E+02 0.  0.
         13    1    3    3    0    0  0.51120739246E+02  0.12948010277E+03  0.68753424875E+02  0.15525933282E+03  0.00000000000E+00 0. -1.
        -14    1    3    3    0    0 -0.13359846851E+02 -0.58354721704E+00  0.22889278355E+02  0.26509339842E+02  0.00000000000E+00 0.  1.
        -11    1    4    4    0    0 -0.50782769625E+02 -0.34101369284E+02 -0.81540899044E+02  0.10193483847E+03  0.00000000000E+00 0. -1.
         11    1    4    4    0    0  0.14651382054E+02 -0.29829684735E+02  0.12069423721E+02  0.35357376549E+02  0.00000000000E+00 0.  1.
          2    1    1    2  501    0 -0.16295048232E+01 -0.64965501537E+02 -0.77174887000E+02  0.10089169866E+03  0.00000000000E+00 0. -1.
<scales pt_clust_5="13000.00000" pt_clust_6="13000.00000" pt_clust_7="13000.00000" pt_clust_8="13000.00000" pt_clust_9="64.98593"></scales>
<clustering>
<clus scale="   64.986">  2  9  1 -1</clus>
<clus scale="   81.248">  5  6 -1 -1</clus>
<clus scale="   92.899">  7  8 -1 -1</clus>
<clus scale="  141.100">  1  5  2 -1</clus>
<clus scale="   64.986">  2  5  1 -1</clus>
</clustering>
</event>
<event>
 9    1  0.5981539E-005  0.1781958E+03  0.7546771E-02  0.1171035E+00
         -2   -1    0    0    0  501 -0.00000000000E+00  0.00000000000E+00  0.42234710382E+03  0.42234710382E+03  0.00000000000E+00 0.  1.
         21   -1    0    0  501  502  0.00000000000E+00 -0.00000000000E+00 -0.19450517268E+03  0.19450517268E+03  0.00000000000E+00 0.  1.
         23    2    1    2    0    0 -0.38360208920E+01 -0.14997867197E+03  0.31598843450E+03  0.36181238266E+03  0.92472657616E+02 0.  0.
        -24    2    1    2    0    0  0.14940833507E+02  0.16876382143E+03 -0.11531680610E+03  0.22019130629E+03  0.80509562576E+02 0.  0.
         11    1    4    4    0    0  0.18707536748E+02  0.23353779856E+02  0.63124419275E+01  0.30581332343E+02  0.00000000000E+00 0. -1.
        -12    1    4    4    0    0 -0.37667032413E+01  0.14541004157E+03 -0.12162924803E+03  0.18960997395E+03  0.00000000000E+00 0.  1.
        -13    1    3    3    0    0 -0.21143873720E+02  0.20819649650E+01  0.58956530038E+02  0.62667937641E+02  0.00000000000E+00 0.  1.
         13    1    3    3    0    0  0.17307852828E+02 -0.15206063694E+03  0.25703190446E+03  0.29914444502E+03  0.00000000000E+00 0. -1.
         -1    1    1    2    0  502 -0.11104812615E+02 -0.18785149454E+02  0.27170302746E+02  0.34848587555E+02  0.00000000000E+00 0.  1.
<scales pt_clust_5="13000.00000" pt_clust_6="13000.00000" pt_clust_7="13000.00000" pt_clust_8="13000.00000" pt_clust_9="21.82199"></scales>
<clustering>
<clus scale="   21.822">  2  9  1 -1</clus>
<clus scale="   80.510">  5  6 -1 -1</clus>
<clus scale="   92.473">  7  8 -1 -1</clus>
<clus scale="  172.291">  2  5  1 -1</clus>
<clus scale="   21.822">  2  5  1 -1</clus>
</clustering>
</event>
<event>
 9    1  0.5981539E-005  0.9159193E+02  0.7546771E-02  0.1303702E+00
          1   -1    0    0  502    0 -0.00000000000E+00  0.00000000000E+00  0.10420721217E+04  0.10420721217E+04  0.00000000000E+00 0. -1.
         21   -1    0    0  501  502  0.00000000000E+00 -0.00000000000E+00 -0.15574651369E+02  0.15574651369E+02  0.00000000000E+00 0. -1.
        -24    2    1    2    0    0 -0.26515756482E+02 -0.18872741245E+02  0.35743581045E+03  0.36774062726E+03  0.80084609242E+02 0.  0.
         23    2    1    2    0    0  0.22902725065E+02 -0.41434852687E+02  0.30705335079E+03  0.32289105657E+03  0.87951647793E+02 0.  0.
         13    1    3    3    0    0 -0.54554008391E+02 -0.12595904347E+02  0.26861902641E+03  0.27439201517E+03  0.00000000000E+00 0. -1.
        -14    1    3    3    0    0  0.28038251908E+02 -0.62768368981E+01  0.88816784045E+02  0.93348612093E+02  0.00000000000E+00 0.  1.
        -13    1    4    4    0    0  0.54673672272E+02 -0.10795386648E+02  0.16838474503E+03  0.17736733964E+03  0.00000000000E+00 0. -1.
         13    1    4    4    0    0 -0.31770947207E+02 -0.30639466039E+02  0.13866860576E+03  0.14552371693E+03  0.00000000000E+00 0.  1.
          2    1    1    2  501    0  0.36130314172E+01  0.60307593932E+02  0.36200830909E+03  0.36701508924E+03  0.00000000000E+00 0. -1.
<scales pt_clust_5="13000.00000" pt_clust_6="13000.00000" pt_clust_7="13000.00000" pt_clust_8="13000.00000" pt_clust_9="60.41576"></scales>
<clustering>
<clus scale="   60.416">  2  9  1 -1</clus>
<clus scale="   80.085">  5  6 -1 -1</clus>
<clus scale="   84.066">  1  5  2 -1</clus>
<clus scale="   87.952">  7  8 -1 -1</clus>
<clus scale="   60.416">  2  5  1 -1</clus>
</clustering>
</event>
<event>
 9    1  0.5981539E-005  0.2516353E+03  0.7546771E-02  0.1140665E+00
         21   -1    0    0  501  502  0.00000000000E+00  0.00000000000E+00  0.63154682787E+03  0.63154682787E+03  0.00000000000E+00 0. -1.
          1   -1    0    0  502    0 -0.00000000000E+00 -0.00000000000E+00 -0.19243670710E+03  0.19243670710E+03  0.00000000000E+00 0. -1.
        -24    2    1    2    0    0  0.93300243144E+02 -0.24384898988E+02  0.13276306368E+03  0.18216579366E+03  0.79112493549E+02 0.  0.
         23    2    1    2    0    0  0.13151739066E+02  0.23707192726E+03  0.95177001164E+00  0.25473367049E+03  0.92261964451E+02 0.  0.
         13    1    3    3    0    0  0.10631049018E+03 -0.13884272807E+02  0.12132341377E+03  0.16190757883E+03  0.00000000000E+00 0. -1.
        -14    1    3    3    0    0 -0.13010247040E+02 -0.10500626181E+02  0.11439649905E+02  0.20258214832E+02  0.00000000000E+00 0.  1.
        -13    1    4    4    0    0  0.43438835798E+02  0.19931939869E+03 -0.12855949539E+02  0.20440261884E+03  0.00000000000E+00 0. -1.
         13    1    4    4    0    0 -0.30287096732E+02  0.37752528565E+02  0.13807719551E+02  0.50331051655E+02  0.00000000000E+00 0.  1.
          2    1    1    2  501    0 -0.10645198221E+03 -0.21268702827E+03  0.30539528708E+03  0.38708407082E+03  0.00000000000E+00 0. -1.
<scales pt_clust_5="13000.00000" pt_clust_6="13000.00000" pt_clust_7="13000.00000" pt_clust_8="13000.00000" pt_clust_9="234.11116"></scales>
<clustering>
<clus scale="   79.112">  5  6 -1 -1</clus>
<clus scale="   92.262">  7  8 -1 -1</clus>
<clus scale="  124.733">  2  5  1 -1</clus>
<clus scale="  234.111">  1  9  2 -1</clus>
<clus scale="  234.111">  1  5  2 -1</clus>
</clustering>
</event>
<event>
 9    1  0.5981539E-005  0.4577181E+03  0.7546771E-02  0.1025629E+00
         21   -1    0    0  501  502  0.00000000000E+00  0.00000000000E+00  0.13662274831E+04  0.13662274831E+04  0.00000000000E+00 0.  1.
         -2   -1    0    0    0  501 -0.00000000000E+00 -0.00000000000E+00 -0.17131630070E+03  0.17131630070E+03  0.00000000000E+00 0.  1.
         23    2    1    2    0    0 -0.37420781841E+03  0.25006668798E+03  0.43575014741E+03  0.63319831257E+03  0.92179565398E+02 0.  0.
        -24    2    1    2    0    0  0.35811991961E+03 -0.26586085795E+03  0.75640043399E+03  0.88163210052E+03  0.78750692090E+02 0.  0.
         13    1    4    4    0    0  0.86190140939E+02 -0.27696571934E+02  0.13007569525E+03  0.15847879034E+03  0.00000000000E+00 0. -1.
        -14    1    4    4    0    0  0.27192977867E+03 -0.23816428602E+03  0.62632473874E+03  0.72315331018E+03  0.00000000000E+00 0.  1.
        -13    1    3    3    0    0 -0.20803484711E+03  0.12366604043E+03  0.29420483691E+03  0.38095704906E+03  0.00000000000E+00 0.  1.
         13    1    3    3    0    0 -0.16617297130E+03  0.12640064756E+03  0.14154531050E+03  0.25224126351E+03  0.00000000000E+00 0. -1.
         -1    1    1    2    0  502  0.16087898793E+02  0.15794169969E+02  0.27606010365E+01  0.22713370747E+02  0.00000000000E+00 0.  1.
<scales pt_clust_5="13000.00000" pt_clust_6="13000.00000" pt_clust_7="13000.00000" pt_clust_8="13000.00000" pt_clust_9="22.54500"></scales>
<clustering>
<clus scale="   22.545">  1  9  2 -1</clus>
<clus scale="   78.751">  5  6 -1 -1</clus>
<clus scale="   92.180">  7  8 -1 -1</clus>
<clus scale="  455.204">  1  5  2 -1</clus>
<clus scale="   22.545">  1  5  2 -1</clus>
</clustering>
</event>
<event>
 9    1  0.5981539E-005  0.2492952E+03  0.7546771E-02  0.1114424E+00
          1   -1    0    0  502    0 -0.00000000000E+00  0.00000000000E+00  0.81828327427E+03  0.81828327427E+03  0.00000000000E+00 0. -1.
         21   -1    0    0  501  502  0.00000000000E+00 -0.00000000000E+00 -0.10271345557E+03  0.10271345557E+03  0.00000000000E+00 0.  1.
         23    2    1    2    0    0 -0.65599209117E+02  0.19895460568E+03  0.28069935158E+03  0.36234381418E+03  0.92815528551E+02 0.  0.
        -24    2    1    2    0    0  0.13503459230E+03 -0.22472383107E+03  0.31477406743E+03  0.41755553570E+03  0.80837927359E+02 0.  0.
         11    1    4    4    0    0  0.28093758380E+02 -0.68060775528E+02  0.40366259564E+02  0.83970014509E+02  0.00000000000E+00 0. -1.
        -12    1    4    4    0    0  0.10694083392E+03 -0.15666305554E+03  0.27440780786E+03  0.33358552119E+03  0.00000000000E+00 0.  1.
        -11    1    3    3    0    0 -0.56775210211E+02  0.42420910893E+02  0.10709791140E+03  0.12842476709E+03  0.00000000000E+00 0.  1.
         11    1    3    3    0    0 -0.88239989060E+01  0.15653369479E+03  0.17360144018E+03  0.23391904709E+03  0.00000000000E+00 0. -1.
          2    1    1    2  501    0 -0.69435383181E+02  0.25769225386E+02  0.12009639969E+03  0.14109737997E+03  0.00000000000E+00 0. -1.
<scales pt_clust_5="13000.00000" pt_clust_6="13000.00000" pt_clust_7="13000.00000" pt_clust_8="13000.00000" pt_clust_9="74.06302"></scales>
<clustering>
<clus scale="   74.063">  2  9  1 -1</clus>
<clus scale="   80.838">  5  6 -1 -1</clus>
<clus scale="   92.816">  7  8 -1 -1</clus>
<clus scale="  245.088">  2  5  1 -1</clus>
<clus scale="   74.063">  2  5  1 -1</clus>
</clustering>
</event>
<event>
 9    1  0.5981539E-005  0.1023697E+03  0.7546771E-02  0.1279329E+00
         21   -1    0    0  501  502  0.00000000000E+00  0.00000000000E+00  0.88600341796E+02  0.88600341796E+02  0.00000000000E+00 0.  1.
          1   -1    0    0  502    0 -0.00000000000E+00 -0.00000000000E+00 -0.33186311750E+03  0.33186311750E+03  0.00000000000E+00 0. -1.
        -24    2    1    2    0    0 -0.47907399672E+02  0.18527478506E+02 -0.26112232410E+03  0.27794897571E+03  0.80202110648E+02 0.  0.
         23    2    1    2    0    0  0.32045253567E+02 -0.42806154336E+02  0.34225949043E+02  0.10921402039E+03  0.88865187426E+02 0.  0.
         13    1    3    3    0    0 -0.22695040575E+02 -0.31537513277E+02 -0.95678745246E+02  0.10326713854E+03  0.00000000000E+00 0. -1.
        -14    1    3    3    0    0 -0.25212359097E+02  0.50064991783E+02 -0.16544357885E+03  0.17468183717E+03  0.00000000000E+00 0.  1.
        -13    1    4    4    0    0  0.25053526980E+02 -0.65207861879E+02  0.45307507561E+02  0.83261724138E+02  0.00000000000E+00 0.  1.
         13    1    4    4    0    0  0.69917265870E+01  0.22401707543E+02 -0.11081558518E+02  0.25952296251E+02  0.00000000000E+00 0. -1.
          2    1    1    2  501    0  0.15862146105E+02  0.24278675830E+02 -0.16366400652E+02  0.33300463201E+02  0.00000000000E+00 0. -1.
<scales pt_clust_5="13000.00000" pt_clust_6="13000.00000" pt_clust_7="13000.00000" pt_clust_8="13000.00000" pt_clust_9="29.00107"></scales>
<clustering>
<clus scale="   29.001">  1  9  2 -1</clus>
<clus scale="   80.202">  5  6 -1 -1</clus>
<clus scale="   88.865">  7  8 -1 -1</clus>
<clus scale="   94.947">  2  5  1 -1</clus>
<clus scale="   29.001">  1  5  2 -1</clus>
</clustering>
</event>
<event>
 9    1  0.5981539E-005  0.9612165E+02  0.7546771E-02  0.1302398E+00
          1   -1    0    0  502    0 -0.00000000000E+00  0.00000000000E+00  0.23975696112E+03  0.23975696112E+03  0.00000000000E+00 0. -1.
         21   -1    0    0  501  502  0.00000000000E+00 -0.00000000000E+00 -0.77667019614E+02  0.77667019614E+02  0.00000000000E+00 0.  1.
        -24    2    1    2    0    0 -0.21793489406E+02  0.22887423872E+02  0.14747984221E+03  0.16546258655E+03  0.68035089024E+02 0.  0.
         23    2    1    2    0    0  0.32069586907E+02  0.29297764566E+01 -0.28353203461E+02  0.10079527847E+03  0.91207137998E+02 0.  0.
         13    1    3    3    0    0 -0.17467227471E+02  0.19356355914E+02  0.15439115190E+03  0.15657713861E+03  0.00000000000E+00 0. -1.
        -14    1    3    3    0    0 -0.43262619344E+01  0.35310679589E+01 -0.69113096995E+01  0.88854479357E+01  0.00000000000E+00 0.  1.
        -11    1    4    4    0    0  0.42217802189E+02  0.32490390714E+02 -0.40853600866E+02  0.67134082359E+02  0.00000000000E+00 0.  1.
         11    1    4    4    0    0 -0.10148215282E+02 -0.29560614258E+02  0.12500397404E+02  0.33661196116E+02  0.00000000000E+00 0. -1.
          2    1    1    2  501    0 -0.10276097501E+02 -0.25817200329E+02  0.42963302761E+02  0.51166115709E+02  0.00000000000E+00 0. -1.
<scales pt_clust_5="13000.00000" pt_clust_6="13000.00000" pt_clust_7="13000.00000" pt_clust_8="13000.00000" pt_clust_9="27.78717"></scales>
<clustering>
<clus scale="   27.787">  2  9  1 -1</clus>
<clus scale="   68.035">  5  6 -1 -1</clus>
<clus scale="   74.494">  1  5  2 -1</clus>
<clus scale="   91.207">  7  8 -1 -1</clus>
<clus scale="   27.787">  2  5  1 -1</clus>
</clustering>
</event>
<event>
 9    1  0.5981539E-005  0.1032119E+03  0.7546771E-02  0.1277500E+00
         21   -1    0    0  501  502  0.00000000000E+00  0.00000000000E+00  0.77024113708E+02  0.77024113708E+02  0.00000000000E+00 0.  1.
         -4   -1    0    0    0  501 -0.00000000000E+00 -0.00000000000E+00 -0.28701467939E+03  0.28701467939E+03  0.00000000000E+00 0.  1.
         23    2    1    2    0    0 -0.31216117713E+02 -0.50739941525E+02 -0.19816398241E+03  0.22570963524E+03  0.90149253155E+02 0.  0.
        -24    2    1    2    0    0  0.31891392334E+02  0.13710296597E+02 -0.34109487466E+02  0.95106728269E+02  0.81711685144E+02 0.  0.
         11    1    4    4    0    0  0.20163517296E+02  0.36312083112E+02  0.11300637283E+02  0.43044618859E+02  0.00000000000E+00 0. -1.
        -12    1    4    4    0    0  0.11727875038E+02 -0.22601786515E+02 -0.45410124749E+02  0.52062109411E+02  0.00000000000E+00 0.  1.
        -13    1    3    3    0    0 -0.41244986804E+02 -0.13319739695E+01 -0.15147603808E+03  0.15699653882E+03  0.00000000000E+00 0.  1.
         13    1    3    3    0    0  0.10028869090E+02 -0.49407967555E+02 -0.46687944337E+02  0.68713096420E+02  0.00000000000E+00 0. -1.
         -3    1    1    2    0  502 -0.67527462095E+00  0.37029644927E+02  0.22282904202E+02  0.43222429582E+02  0.00000000000E+00 0.  1.
<scales pt_clust_5="13000.00000" pt_clust_6="13000.00000" pt_clust_7="13000.00000" pt_clust_8="13000.00000" pt_clust_9="37.03580"></scales>
<clustering>
<clus scale="   37.036">  1  9  2 -1</clus>
<clus scale="   81.712">  5  6 -1 -1</clus>
<clus scale="   90.149">  7  8 -1 -1</clus>
<clus scale="   95.930">  1  5  2 -1</clus>
<clus scale="   37.036">  1  5  2 -1</clus>
</clustering>
</event>
<event>
 9    1  0.5981539E-005  0.2171780E+03  0.7546771E-02  0.1137026E+00
          3   -1    0    0  502    0 -0.00000000000E+00  0.00000000000E+00  0.31488265078E+03  0.31488265078E+03  0.00000000000E+00 0. -1.
         21   -1    0    0  501  502  0.00000000000E+00 -0.00000000000E+00 -0.27736972585E+03  0.27736972585E+03  0.00000000000E+00 0. -1.
        -24    2    1    2    0    0  0.94206041489E+02 -0.12616134493E+03  0.34673082721E+02  0.17907739852E+03  0.77942471002E+02 0.  0.
         23    2    1    2    0    0 -0.17181045027E+03  0.21838168152E+03 -0.25428863939E+01  0.29252669380E+03  0.91411217405E+02 0.  0.
         13    1    3    3    0    0 -0.39551962008E+01 -0.52809739588E+02  0.66467442685E+01  0.53373133520E+02  0.00000000000E+00 0. -1.
        -14    1    3    3    0    0  0.98161237689E+02 -0.73351605346E+02  0.28026338452E+02  0.12570426500E+03  0.00000000000E+00 0.  1.
        -13    1    4    4    0    0 -0.13648948448E+03  0.12680888966E+03 -0.34159204527E+02  0.18941152320E+03  0.00000000000E+00 0.  1.
         13    1    4    4    0    0 -0.35320965794E+02  0.91572791862E+02  0.31616318133E+02  0.10311517059E+03  0.00000000000E+00 0. -1.
          4    1    1    2  501    0  0.77604408781E+02 -0.92220336585E+02  0.53827285992E+01  0.12064828432E+03  0.00000000000E+00 0. -1.
<scales pt_clust_5="13000.00000" pt_clust_6="13000.00000" pt_clust_7="13000.00000" pt_clust_8="13000.00000" pt_clust_9="120.52815"></scales>
<clustering>
<clus scale="   77.942">  5  6 -1 -1</clus>
<clus scale="   91.411">  7  8 -1 -1</clus>
<clus scale="  120.528">  2  9  1 -1</clus>
<clus scale="  211.862">  1  5  2 -1</clus>
<clus scale="  120.528">  2  5  1 -1</clus>
</clustering>
</event>
<event>
 9    1  0.5981539E-005  0.1475466E+03  0.7546771E-02  0.1220170E+00
         21   -1    0    0  501  502  0.00000000000E+00  0.00000000000E+00  0.11518272021E+03  0.11518272021E+03  0.00000000000E+00 0. -1.
          3   -1    0    0  502    0 -0.00000000000E+00 -0.00000000000E+00 -0.47201511637E+03  0.47201511637E+03  0.00000000000E+00 0. -1.
        -24    2    1    2    0    0 -0.46603098103E+01  0.62981368074E+02 -0.18967026156E+02  0.10523721613E+03  0.82016781003E+02 0.  0.
         23    2    1    2    0    0  0.66582030264E+02  0.81268515913E+02 -0.39470550561E+02  0.14479330774E+03  0.91484638990E+02 0.  0.
         11    1    3    3    0    0 -0.26957681715E+02  0.69562872096E+02  0.97130189259E+00  0.74610007405E+02  0.00000000000E+00 0. -1.
        -12    1    3    3    0    0  0.22297371905E+02 -0.65815040217E+01 -0.19938328049E+02  0.30627208727E+02  0.00000000000E+00 0.  1.
        -13    1    4    4    0    0  0.35548513786E+02  0.21528007261E+02  0.27501075603E+02  0.49834336440E+02  0.00000000000E+00 0.  1.
         13    1    4    4    0    0  0.31033516478E+02  0.59740508651E+02 -0.66971626164E+02  0.94958971298E+02  0.00000000000E+00 0. -1.
          4    1    1    2  501    0 -0.61921720454E+02 -0.14424988399E+03 -0.29839481944E+03  0.33716731271E+03  0.00000000000E+00 0. -1.
<scales pt_clust_5="13000.00000" pt_clust_6="13000.00000" pt_clust_7="13000.00000" pt_clust_8="13000.00000" pt_clust_9="115.76083"></scales>
<clustering>
<clus scale="   82.017">  5  6 -1 -1</clus>
<clus scale="   91.485">  7  8 -1 -1</clus>
<clus scale="  103.514">  2  5  1 -1</clus>
<clus scale="  115.761">  1  9  2 -1</clus>
<clus scale="  115.761">  1  5  2 -1</clus>
</clustering>
</event>
<event>
 9    1  0.5981539E-005  0.2329604E+03  0.7546771E-02  0.1125338E+00
         21   -1    0    0  501  502  0.00000000000E+00  0.00000000000E+00  0.26971494767E+03  0.26971494767E+03  0.00000000000E+00 0. -1.
          1   -1    0    0  502    0 -0.00000000000E+00 -0.00000000000E+00 -0.35599447116E+03  0.35599447116E+03  0.00000000000E+00 0. -1.
         23    2    1    2    0    0 -0.18122461842E+03 -0.79059867235E+02  0.34454184847E+01  0.21739981000E+03  0.90321545311E+02 0.  0.
        -24    2    1    2    0    0  0.14428767977E+03  0.20404638352E+03 -0.25864929619E+02  0.26317495457E+03  0.78346671717E+02 0.  0.
         13    1    4    4    0    0  0.12673859488E+03  0.12012076261E+03 -0.38857012399E+01  0.17466186681E+03  0.00000000000E+00 0. -1.
        -14    1    4    4    0    0  0.17549084885E+02  0.83925620905E+02 -0.21979228379E+02  0.88513087760E+02  0.00000000000E+00 0.  1.
        -13    1    3    3    0    0 -0.11168004761E+03 -0.52119441331E+02  0.45982164559E+02  0.13154173731E+03  0.00000000000E+00 0.  1.
         13    1    3    3    0    0 -0.69544570818E+02 -0.26940425904E+02 -0.42536746074E+02  0.85858072682E+02  0.00000000000E+00 0. -1.
          2    1    1    2  501    0  0.36936938657E+02 -0.12498651628E+03 -0.63860012355E+02  0.14513465426E+03  0.00000000000E+00 0. -1.
<scales pt_clust_5="13000.00000" pt_clust_6="13000.00000" pt_clust_7="13000.00000" pt_clust_8="13000.00000" pt_clust_9="130.33029"></scales>
<clustering>
<clus scale="   78.347">  5  6 -1 -1</clus>
<clus scale="   90.322">  7  8 -1 -1</clus>
<clus scale="  130.330">  1  9  2 -1</clus>
<clus scale="  228.584">  1  5  2 -1</clus>
<clus scale="  130.330">  1  5  2 -1</clus>
</clustering>
</event>
<event>
 9    1  0.5981539E-005  0.1205338E+03  0.7546771E-02  0.1248782E+00
         21   -1    0    0  501  502  0.00000000000E+00  0.00000000000E+00  0.11891853904E+03  0.11891853904E+03  0.00000000000E+00 0.  1.
         -4   -1    0    0    0  501 -0.00000000000E+00 -0.00000000000E+00 -0.49592117942E+03  0.49592117942E+03  0.00000000000E+00 0.  1.
        -24    2    1    2    0    0  0.50255063004E+02  0.61924008455E+02 -0.18122280960E+03  0.21028603514E+03  0.70840353428E+02 0.  0.
         23    2    1    2    0    0  0.46370882879E+02 -0.98638570216E+02 -0.25009757858E+03  0.28778489388E+03  0.91605240136E+02 0.  0.
         13    1    3    3    0    0  0.39113506121E+02  0.48940408658E+02 -0.56402634963E+02  0.84298797093E+02  0.00000000000E+00 0. -1.
        -14    1    3    3    0    0  0.11141556883E+02  0.12983599798E+02 -0.12482017464E+03  0.12598723805E+03  0.00000000000E+00 0.  1.
        -13    1    4    4    0    0  0.14518633655E+02 -0.15640031242E+02  0.10511814934E+01  0.21366007652E+02  0.00000000000E+00 0.  1.
         13    1    4    4    0    0  0.31852249224E+02 -0.82998538974E+02 -0.25114876007E+03  0.26641888622E+03  0.00000000000E+00 0. -1.
         -3    1    1    2    0  502 -0.96625945883E+02  0.36714561761E+02  0.54317747801E+02  0.11676878945E+03  0.00000000000E+00 0.  1.
<scales pt_clust_5="13000.00000" pt_clust_6="13000.00000" pt_clust_7="13000.00000" pt_clust_8="13000.00000" pt_clust_9="103.36601"></scales>
<clustering>
<clus scale="   70.840">  5  6 -1 -1</clus>
<clus scale="   91.605">  7  8 -1 -1</clus>
<clus scale="  103.366">  1  9  2 -1</clus>
<clus scale="  105.618">  2  5  1 -1</clus>
<clus scale="  103.366">  1  5  2 -1</clus>
</clustering>
</event>
<event>
 9    1  0.5981539E-005  0.1675234E+03  0.7546771E-02  0.1202886E+00
         21   -1    0    0  501  502  0.00000000000E+00  0.00000000000E+00  0.83375667499E+02  0.83375667499E+02  0.00000000000E+00 0.  1.
         -4   -1    0    0    0  501 -0.00000000000E+00 -0.00000000000E+00 -0.62562507360E+03  0.62562507360E+03  0.00000000000E+00 0.  1.
         23    2    1    2    0    0 -0.39322676546E+02 -0.19332210724E+02 -0.17146125520E+03  0.19960801095E+03  0.92327616327E+02 0.  0.
        -24    2    1    2    0    0  0.17334148641E+03  0.56941934956E+02 -0.28492857896E+03  0.34584640996E+03  0.71664421497E+02 0.  0.
         11    1    4    4    0    0  0.76866880095E+02  0.25639370630E+02 -0.65794898748E+02  0.10437846178E+03  0.00000000000E+00 0. -1.
        -12    1    4    4    0    0  0.96474606313E+02  0.31302564325E+02 -0.21913368021E+03  0.24146794819E+03  0.00000000000E+00 0.  1.
        -13    1    3    3    0    0  0.18121945910E+02 -0.27696204056E+02 -0.23290006950E+02  0.40471089266E+02  0.00000000000E+00 0.  1.
         13    1    3    3    0    0 -0.57444622455E+02  0.83639933320E+01 -0.14817124825E+03  0.15913692168E+03  0.00000000000E+00 0. -1.
         -3    1    1    2    0  502 -0.13401880986E+03 -0.37609724231E+02 -0.85859571935E+02  0.16354632019E+03  0.00000000000E+00 0.  1.
<scales pt_clust_5="13000.00000" pt_clust_6="13000.00000" pt_clust_7="13000.00000" pt_clust_8="13000.00000" pt_clust_9="151.42099"></scales>
<clustering>
<clus scale="   71.664">  5  6 -1 -1</clus>
<clus scale="   92.328">  7  8 -1 -1</clus>
<clus scale="  102.198">  2  7  1 -1</clus>
<clus scale="  151.421">  1  9  2 -1</clus>
<clus scale="  151.421">  1  5  2 -1</clus>
</clustering>
</event>
<event>
 9    1  0.5981539E-005  0.1150261E+03  0.7546771E-02  0.1255781E+00
         21   -1    0    0  501  502  0.00000000000E+00  0.00000000000E+00  0.53465728642E+02  0.53465728642E+02  0.00000000000E+00 0. -1.
          1   -1    0    0  502    0 -0.00000000000E+00 -0.00000000000E+00 -0.66672779423E+03  0.66672779423E+03  0.00000000000E+00 0. -1.
         23    2    1    2    0    0  0.59594148147E+02 -0.43294396977E+02 -0.48946427030E+03  0.50332751044E+03  0.91309602781E+02 0.  0.
        -24    2    1    2    0    0 -0.48562701252E+01  0.78646688259E+02 -0.89737012792E+02  0.14333944109E+03  0.79275336482E+02 0.  0.
         11    1    4    4    0    0  0.90755587044E+00  0.94685638397E+02 -0.74629778705E+02  0.12056449579E+03  0.00000000000E+00 0. -1.
        -12    1    4    4    0    0 -0.57638259956E+01 -0.16038950138E+02 -0.15107234087E+02  0.22774945300E+02  0.00000000000E+00 0.  1.
        -11    1    3    3    0    0  0.31751735863E+02 -0.62583988721E+02 -0.42245233031E+03  0.42824163712E+03  0.00000000000E+00 0. -1.
         11    1    3    3    0    0  0.27842412284E+02  0.19289591744E+02 -0.67011939991E+02  0.75085873324E+02  0.00000000000E+00 0.  1.
          2    1    1    2  501    0 -0.54737878022E+02 -0.35352291281E+02 -0.34060782496E+02  0.73526571343E+02  0.00000000000E+00 0. -1.
<scales pt_clust_5="13000.00000" pt_clust_6="13000.00000" pt_clust_7="13000.00000" pt_clust_8="13000.00000" pt_clust_9="65.16149"></scales>
<clustering>
<clus scale="   65.161">  1  9  2 -1</clus>
<clus scale="   79.275">  5  6 -1 -1</clus>
<clus scale="   91.310">  7  8 -1 -1</clus>
<clus scale="  105.727">  1  5  2 -1</clus>
<clus scale="   65.161">  1  5  2 -1</clus>
</clustering>
</event>
<event>
 9    1  0.5981539E-005  0.9956567E+02  0.7546771E-02  0.1285863E+00
         -4   -1    0    0    0  501 -0.00000000000E+00  0.00000000000E+00  0.26699122360E+03  0.26699122360E+03  0.00000000000E+00 0.  1.
         21   -1    0    0  501  502  0.00000000000E+00 -0.00000000000E+00 -0.28632798182E+03  0.28632798182E+03  0.00000000000E+00 0.  1.
         23    2    1    2    0    0 -0.38813603950E+02  0.98280038383E+01  0.23077753368E+03  0.25144111396E+03  0.91440025306E+02 0.  0.
        -24    2    1    2    0    0  0.38723069795E+02  0.18565826246E+02 -0.61869046313E+02  0.11150348636E+03  0.82225802152E+02 0.  0.
         13    1    4    4    0    0  0.64481417125E+02  0.18053602766E+02 -0.43200849782E+02  0.79687509368E+02  0.00000000000E+00 0. -1.
        -14    1    4    4    0    0 -0.25758347330E+02  0.51222348001E+00 -0.18668196531E+02  0.31815976989E+02  0.00000000000E+00 0.  1.
        -11    1    3    3    0    0  0.23845303237E+02  0.24939955371E+02  0.65347696896E+02  0.73898046997E+02  0.00000000000E+00 0. -1.
         11    1    3    3    0    0 -0.62658907187E+02 -0.15111951533E+02  0.16542983678E+03  0.17754306696E+03  0.00000000000E+00 0.  1.
         -3    1    1    2    0  502  0.90534154619E-01 -0.28393830084E+02 -0.18824524558E+03  0.19037460510E+03  0.00000000000E+00 0.  1.
<scales pt_clust_5="13000.00000" pt_clust_6="13000.00000" pt_clust_7="13000.00000" pt_clust_8="13000.00000" pt_clust_9="28.39397"></scales>
<clustering>
<clus scale="   28.394">  2  9  1 -1</clus>
<clus scale="   82.226">  5  6 -1 -1</clus>
<clus scale="   91.176">  2  5  1 -1</clus>
<clus scale="   91.440">  7  8 -1 -1</clus>
<clus scale="   28.394">  2  5  1 -1</clus>
</clustering>
</event>
<event>
 9    1  0.5981539E-005  0.1131743E+03  0.7546771E-02  0.1258553E+00
         21   -1    0    0  501  502  0.00000000000E+00  0.00000000000E+00  0.23871194279E+03  0.23871194279E+03  0.00000000000E+00 0. -1.
          1   -1    0    0  502    0 -0.00000000000E+00 -0.00000000000E+00 -0.11941055637E+03  0.11941055637E+03  0.00000000000E+00 0. -1.
        -24    2    1    2    0    0 -0.43599242311E+01 -0.53878675673E+02 -0.36913956984E+02  0.10609302124E+03  0.83493522528E+02 0.  0.
         23    2    1    2    0    0  0.66381550741E+01  0.90127659446E+02  0.49184444003E+02  0.13900384991E+03  0.93466040134E+02 0.  0.
         11    1    3    3    0    0 -0.35439412677E+02 -0.15763677749E+02 -0.41372807990E+02  0.56711151884E+02  0.00000000000E+00 0. -1.
        -12    1    3    3    0    0  0.31079488446E+02 -0.38114997924E+02  0.44588510058E+01  0.49381869356E+02  0.00000000000E+00 0.  1.
        -11    1    4    4    0    0 -0.37696090366E+02  0.52849669527E+02  0.48573229769E+02  0.81076762689E+02  0.00000000000E+00 0.  1.
         11    1    4    4    0    0  0.44334245441E+02  0.37277989919E+02  0.61121423400E+00  0.57927087222E+02  0.00000000000E+00 0. -1.
          2    1    1    2  501    0 -0.22782308430E+01 -0.36248983774E+02  0.10703089940E+03  0.11302562801E+03  0.00000000000E+00 0. -1.
<scales pt_clust_5="13000.00000" pt_clust_6="13000.00000" pt_clust_7="13000.00000" pt_clust_8="13000.00000" pt_clust_9="36.32051"></scales>
<clustering>
<clus scale="   36.321">  1  9  2 -1</clus>
<clus scale="   83.494">  5  6 -1 -1</clus>
<clus scale="   93.466">  7  8 -1 -1</clus>
<clus scale="  105.089">  2  5  1 -1</clus>
<clus scale="   36.321">  1  5  2 -1</clus>
</clustering>
</event>
<event>
 9    1  0.5981539E-005  0.3134465E+03  0.7546771E-02  0.1129109E+00
         21   -1    0    0  501  502  0.00000000000E+00  0.00000000000E+00  0.39664883944E+03  0.39664883944E+03  0.00000000000E+00 0. -1.
          1   -1    0    0  502    0 -0.00000000000E+00 -0.00000000000E+00 -0.35985037853E+03  0.35985037853E+03  0.00000000000E+00 0. -1.
        -24    2    1    2    0    0 -0.11022263908E+02  0.24298574092E+02 -0.80929865241E+02  0.11773080161E+03  0.81234152636E+02 0.  0.
         23    2    1    2    0    0  0.27369721197E+03  0.12197151896E+03 -0.71704150219E+01  0.31320311721E+03  0.90871131251E+02 0.  0.
         13    1    3    3    0    0 -0.29851458590E+02  0.44794315675E+02 -0.68837180352E+02  0.87385340279E+02  0.00000000000E+00 0. -1.
        -14    1    3    3    0    0  0.18829194681E+02 -0.20495741584E+02 -0.12092684889E+02  0.30345461328E+02  0.00000000000E+00 0.  1.
        -13    1    4    4    0    0  0.22521938683E+03  0.87418863078E+02 -0.40523386323E+02  0.24496525195E+03  0.00000000000E+00 0. -1.
         13    1    4    4    0    0  0.48477825146E+02  0.34552655887E+02  0.33352971301E+02  0.68237865253E+02  0.00000000000E+00 0.  1.
          2    1    1    2  501    0 -0.26267494807E+03 -0.14627009306E+03  0.12489874117E+03  0.32556529915E+03  0.00000000000E+00 0. -1.
<scales pt_clust_5="13000.00000" pt_clust_6="13000.00000" pt_clust_7="13000.00000" pt_clust_8="13000.00000" pt_clust_9="299.98526"></scales>
<clustering>
<clus scale="   81.234">  5  6 -1 -1</clus>
<clus scale="   85.504">  2  5  1 -1</clus>
<clus scale="   90.871">  7  8 -1 -1</clus>
<clus scale="  299.985">  1  9  2 -1</clus>
<clus scale="  299.985">  1  5  2 -1</clus>
</clustering>
</event>
<event>
 9    1  0.5981539E-005  0.1590457E+03  0.7546771E-02  0.1214763E+00
          1   -1    0    0  502    0 -0.00000000000E+00  0.00000000000E+00  0.96663217795E+02  0.96663217795E+02  0.00000000000E+00 0. -1.
         21   -1    0    0  501  502  0.00000000000E+00 -0.00000000000E+00 -0.44029000557E+03  0.44029000557E+03  0.00000000000E+00 0. -1.
         23    2    1    2    0    0  0.13547391937E+02 -0.49109306068E+01 -0.48790822344E+02  0.10469117269E+03  0.91498897411E+02 0.  0.
        -24    2    1    2    0    0  0.10469390957E+03 -0.82754929397E+02 -0.21475972468E+03  0.26469560795E+03  0.78312403147E+02 0.  0.
         13    1    4    4    0    0  0.93592700762E+02 -0.98113756716E+02 -0.18395878248E+03  0.22853169702E+03  0.00000000000E+00 0. -1.
        -14    1    4    4    0    0  0.11101208804E+02  0.15358827319E+02 -0.30800942199E+02  0.36163910932E+02  0.00000000000E+00 0.  1.
        -11    1    3    3    0    0 -0.23398556111E+02 -0.36499143374E+02 -0.29261294719E+02  0.52305862614E+02  0.00000000000E+00 0.  1.
         11    1    3    3    0    0  0.36945948047E+02  0.31588212768E+02 -0.19529527625E+02  0.52385310081E+02  0.00000000000E+00 0. -1.
          2    1    1    2  501    0 -0.11824130150E+03  0.87665860004E+02 -0.80076240752E+02  0.16756644272E+03  0.00000000000E+00 0. -1.
<scales pt_clust_5="13000.00000" pt_clust_6="13000.00000" pt_clust_7="13000.00000" pt_clust_8="13000.00000" pt_clust_9="138.42947"></scales>
<clustering>
<clus scale="   78.312">  5  6 -1 -1</clus>
<clus scale="   91.499">  7  8 -1 -1</clus>
<clus scale="   92.627">  1  7  2 -1</clus>
<clus scale="  138.429">  2  9  1 -1</clus>
<clus scale="  138.429">  2  5  1 -1</clus>
</clustering>
</event>
<event>
 9    1  0.5981539E-005  0.9250243E+02  0.7546771E-02  0.1303792E+00
         21   -1    0    0  501  502  0.00000000000E+00  0.00000000000E+00  0.70645448353E+03  0.70645448353E+03  0.00000000000E+00 0.  1.
         -2   -1    0    0    0  501 -0.00000000000E+00 -0.00000000000E+00 -0.38769262144E+02  0.38769262144E+02  0.00000000000E+00 0.  1.
        -24    2    1    2    0    0 -0.36710078228E+01 -0.44515996397E+01  0.37473663286E+02  0.89309099867E+02  0.80861281471E+02 0.  0.
         23    2    1    2    0    0 -0.43537698582E+02  0.49136009905E+02  0.46105269019E+03  0.47469632148E+03  0.91962687119E+02 0.  0.
         11    1    3    3    0    0  0.14605458548E+02 -0.38677031859E+02  0.12596889328E+02  0.43219368731E+02  0.00000000000E+00 0. -1.
        -12    1    3    3    0    0 -0.18276466370E+02  0.34225432219E+02  0.24876773958E+02  0.46089731136E+02  0.00000000000E+00 0.  1.
        -11    1    4    4    0    0 -0.71890565690E+02  0.39592751080E+02  0.36398609564E+03  0.37312426508E+03  0.00000000000E+00 0.  1.
         11    1    4    4    0    0  0.28352867108E+02  0.95432588247E+01  0.97066594555E+02  0.10157205640E+03  0.00000000000E+00 0. -1.
         -1    1    1    2    0  502  0.47208706404E+02 -0.44684410265E+02  0.16915886791E+03  0.18121832433E+03  0.00000000000E+00 0.  1.
<scales pt_clust_5="13000.00000" pt_clust_6="13000.00000" pt_clust_7="13000.00000" pt_clust_8="13000.00000" pt_clust_9="65.00276"></scales>
<clustering>
<clus scale="   65.003">  1  9  2 -1</clus>
<clus scale="   80.861">  5  6 -1 -1</clus>
<clus scale="   81.475">  2  5  1 -1</clus>
<clus scale="   91.963">  7  8 -1 -1</clus>
<clus scale="   65.003">  1  5  2 -1</clus>
</clustering>
</event>
<event>
 9    1  0.5981539E-005  0.1271949E+03  0.7546771E-02  0.1235180E+00
         -2   -1    0    0    0  501 -0.00000000000E+00  0.00000000000E+00  0.20429003732E+03  0.20429003732E+03  0.00000000000E+00 0.  1.
         21   -1    0    0  501  502  0.00000000000E+00 -0.00000000000E+00 -0.17792454263E+03  0.17792454263E+03  0.00000000000E+00 0. -1.
        -24    2    1    2    0    0  0.92269857970E+02 -0.40619439853E+01  0.12250339654E+03  0.17360066853E+03  0.81239669308E+02 0.  0.
         23    2    1    2    0    0 -0.70232764137E+02  0.96544964697E+01 -0.81352761221E+01  0.11772182000E+03  0.93629021820E+02 0.  0.
         11    1    3    3    0    0  0.40102710329E+02  0.22728013769E+02  0.10655391480E+02  0.47310964408E+02  0.00000000000E+00 0. -1.
        -12    1    3    3    0    0  0.52167147640E+02 -0.26789957755E+02  0.11184800506E+03  0.12628970412E+03  0.00000000000E+00 0.  1.
        -13    1    4    4    0    0 -0.62842722459E+02  0.42650197552E+02 -0.24971635932E+02  0.79948919432E+02  0.00000000000E+00 0. -1.
         13    1    4    4    0    0 -0.73900416779E+01 -0.32995701082E+02  0.16836359810E+02  0.37772900571E+02  0.00000000000E+00 0.  1.
         -1    1    1    2    0  502 -0.22037093833E+02 -0.55925524844E+01 -0.88002625729E+02  0.90892091422E+02  0.00000000000E+00 0.  1.
<scales pt_clust_5="13000.00000" pt_clust_6="13000.00000" pt_clust_7="13000.00000" pt_clust_8="13000.00000" pt_clust_9="22.73566"></scales>
<clustering>
<clus scale="   22.736">  2  9  1 -1</clus>
<clus scale="   81.240">  5  6 -1 -1</clus>
<clus scale="   93.629">  7  8 -1 -1</clus>
<clus scale="  118.372">  1  5  2 -1</clus>
<clus scale="   22.736">  2  5  1 -1</clus>
</clustering>
</event>
<event>
 9    1  0.5981539E-005  0.1853547E+03  0.7546771E-02  0.1200065E+00
         21   -1    0    0  501  502  0.00000000000E+00  0.00000000000E+00  0.34648791602E+03  0.34648791602E+03  0.00000000000E+00 0. -1.
          1   -1    0    0  502    0 -0.00000000000E+00 -0.00000000000E+00 -0.30190704016E+03  0.30190704016E+03  0.00000000000E+00 0. -1.
        -24    2    1    2    0    0 -0.10268883358E+02  0.84777927600E+00 -0.33652269171E+02  0.86978678037E+02  0.79540219497E+02 0.  0.
         23    2    1    2    0    0 -0.13133908012E+03  0.80807120235E+02 -0.18166283177E+03  0.25438817408E+03  0.89062977809E+02 0.  0.
         13    1    3    3    0    0  0.31181909361E+02  0.12238055821E+02 -0.19284293993E+01  0.33552948032E+02  0.00000000000E+00 0. -1.
        -14    1    3    3    0    0 -0.41450792718E+02 -0.11390276545E+02 -0.31723839771E+02  0.53425730005E+02  0.00000000000E+00 0.  1.
        -11    1    4    4    0    0 -0.44993406475E+02  0.37381000095E+02 -0.12888653341E+02  0.59898774439E+02  0.00000000000E+00 0.  1.
         11    1    4    4    0    0 -0.86345673647E+02  0.43426120141E+02 -0.16877417843E+03  0.19448939964E+03  0.00000000000E+00 0. -1.
          2    1    1    2  501    0  0.14160796348E+03 -0.81654899511E+02  0.25989597679E+03  0.30702810407E+03  0.00000000000E+00 0. -1.
<scales pt_clust_5="13000.00000" pt_clust_6="13000.00000" pt_clust_7="13000.00000" pt_clust_8="13000.00000" pt_clust_9="162.55507"></scales>
<clustering>
<clus scale="   79.540">  5  6 -1 -1</clus>
<clus scale="   80.205">  2  5  1 -1</clus>
<clus scale="   89.063">  7  8 -1 -1</clus>
<clus scale="  162.555">  1  9  2 -1</clus>
<clus scale="  162.555">  1  5  2 -1</clus>
</clustering>
</event>
<event>
 9    1  0.5981539E-005  0.1656462E+03  0.7546771E-02  0.1184044E+00
         21   -1    0    0  501  502  0.00000000000E+00  0.00000000000E+00  0.95651315334E+02  0.95651315334E+02  0.00000000000E+00 0.  1.
         -4   -1    0    0    0  501 -0.00000000000E+00 -0.00000000000E+00 -0.69107954071E+03  0.69107954071E+03  0.00000000000E+00 0.  1.
         23    2    1    2    0    0  0.11979936421E+03  0.73700924727E+02 -0.50018414375E+03  0.52753520183E+03  0.91244164408E+02 0.  0.
        -24    2    1    2    0    0 -0.92453309645E+02 -0.86139537111E+02  0.96769047007E+01  0.15005840507E+03  0.80350781767E+02 0.  0.
         13    1    4    4    0    0  0.40205664155E+01 -0.27681885875E+02 -0.18816818743E+02  0.33712377957E+02  0.00000000000E+00 0. -1.
        -14    1    4    4    0    0 -0.96473876060E+02 -0.58457651236E+02  0.28493723444E+02  0.11634602712E+03  0.00000000000E+00 0.  1.
        -11    1    3    3    0    0  0.74364278118E+02  0.97174385486E+01 -0.13917594045E+03  0.15809622662E+03  0.00000000000E+00 0. -1.
         11    1    3    3    0    0  0.45435086092E+02  0.63983486178E+02 -0.36100820330E+03  0.36943897521E+03  0.00000000000E+00 0.  1.
         -3    1    1    2    0  502 -0.27346054565E+02  0.12438612384E+02 -0.10492098632E+03  0.10913724914E+03  0.00000000000E+00 0.  1.
<scales pt_clust_5="13000.00000" pt_clust_6="13000.00000" pt_clust_7="13000.00000" pt_clust_8="13000.00000" pt_clust_9="30.04208"></scales>
<clustering>
<clus scale="   30.042">  1  9  2 -1</clus>
<clus scale="   80.351">  5  6 -1 -1</clus>
<clus scale="   91.244">  7  8 -1 -1</clus>
<clus scale="  159.904">  1  5  2 -1</clus>
<clus scale="   30.042">  1  5  2 -1</clus>
</clustering>
</event>
<event>
 9    1  0.5981539E-005  0.9260870E+02  0.7546771E-02  0.1303489E+00
          1   -1    0    0  502    0 -0.00000000000E+00  0.00000000000E+00  0.59437053205E+02  0.59437053205E+02  0.00000000000E+00 0. -1.
         21   -1    0    0  501  502  0.00000000000E+00 -0.00000000000E+00 -0.41010266044E+03  0.41010266044E+03  0.00000000000E+00 0.  1.
         23    2    1    2    0    0 -0.16359809366E+02  0.87653394460E+01  0.75616439487E+01  0.92945759305E+02  0.90759358611E+02 0.  0.
        -24    2    1    2    0    0  0.26194281889E+02  0.17646340083E+02 -0.29892778161E+03  0.31093787498E+03  0.79542502824E+02 0.  0.
         13    1    4    4    0    0 -0.15727436819E+01  0.31445881373E+02 -0.43851983149E+02  0.53984381112E+02  0.00000000000E+00 0. -1.
        -14    1    4    4    0    0  0.27767025571E+02 -0.13799541291E+02 -0.25507579846E+03  0.25695349387E+03  0.00000000000E+00 0.  1.
        -13    1    3    3    0    0 -0.36119935573E+02 -0.23555832391E+02 -0.18542442235E+02  0.46939846075E+02  0.00000000000E+00 0.  1.
         13    1    3    3    0    0  0.19760126208E+02  0.32321171837E+02  0.26104086184E+02  0.46005913231E+02  0.00000000000E+00 0. -1.
          2    1    1    2  501    0 -0.98344725234E+01 -0.26411679529E+02 -0.59299469574E+02  0.65656079361E+02  0.00000000000E+00 0. -1.
<scales pt_clust_5="13000.00000" pt_clust_6="13000.00000" pt_clust_7="13000.00000" pt_clust_8="13000.00000" pt_clust_9="28.18322"></scales>
<clustering>
<clus scale="   28.183">  2  9  1 -1</clus>
<clus scale="   79.543">  5  6 -1 -1</clus>
<clus scale="   81.646">  2  5  1 -1</clus>
<clus scale="   90.759">  7  8 -1 -1</clus>
<clus scale="   28.183">  2  5  1 -1</clus>
</clustering>
</event>
<event>
 9    1  0.5981539E-005  0.9835609E+02  0.7546771E-02  0.1290498E+00
          1   -1    0    0  502    0 -0.00000000000E+00  0.00000000000E+00  0.77466476335E+03  0.77466476335E+03  0.00000000000E+00 0. -1.
         21   -1    0    0  501  502  0.00000000000E+00 -0.00000000000E+00 -0.34686255857E+02  0.34686255857E+02  0.00000000000E+00 0.  1.
        -24    2    1    2    0    0 -0.20186040571E+02 -0.49638211093E+02  0.33879035244E+03  0.35227956750E+03  0.80315394138E+02 0.  0.
         23    2    1    2    0    0 -0.34592857956E+02 -0.23624007381E+02  0.10158522833E+03  0.14381437824E+03  0.92780694256E+02 0.  0.
         13    1    3    3    0    0  0.20879054847E+02  0.89115242474E+01  0.11903581575E+03  0.12118116861E+03  0.00000000000E+00 0. -1.
        -14    1    3    3    0    0 -0.41065095418E+02 -0.58549735341E+02  0.21975453670E+03  0.23109839889E+03  0.00000000000E+00 0.  1.
        -13    1    4    4    0    0  0.29952681073E+02 -0.21269192347E+02  0.30291619713E+02  0.47614324225E+02  0.00000000000E+00 0. -1.
         13    1    4    4    0    0 -0.64545539029E+02 -0.23548150341E+01  0.71293608619E+02  0.96200054013E+02  0.00000000000E+00 0.  1.
          2    1    1    2  501    0  0.54778898527E+02  0.73262218474E+02  0.29960292672E+03  0.31325707347E+03  0.00000000000E+00 0. -1.
<scales pt_clust_5="13000.00000" pt_clust_6="13000.00000" pt_clust_7="13000.00000" pt_clust_8="13000.00000" pt_clust_9="91.47726"></scales>
<clustering>
<clus scale="   80.315">  5  6 -1 -1</clus>
<clus scale="   91.477">  2  9  1 -1</clus>
<clus scale="   86.696">  1  5  2 -1</clus>
<clus scale="   92.781">  7  8 -1 -1</clus>
<clus scale="   91.477">  2  5  1 -1</clus>
</clustering>
</event>
<event>
 9    1  0.5981539E-005  0.9549232E+02  0.7546771E-02  0.1291421E+00
         21   -1    0    0  501  502  0.00000000000E+00  0.00000000000E+00  0.13172507016E+03  0.13172507016E+03  0.00000000000E+00 0.  1.
          1   -1    0    0  502    0 -0.00000000000E+00 -0.00000000000E+00 -0.28387177586E+03  0.28387177586E+03  0.00000000000E+00 0. -1.
         23    2    1    2    0    0  0.31134791738E+02  0.76975176812E+01 -0.17051065899E+03  0.19570169454E+03  0.90535304617E+02 0.  0.
        -24    2    1    2    0    0  0.19867612230E+02 -0.85597753873E+02  0.27528902263E+02  0.12633400411E+03  0.86491286554E+02 0.  0.
         13    1    4    4    0    0 -0.84246444684E+01 -0.27048687517E+02 -0.28729831514E+02  0.40348597865E+02  0.00000000000E+00 0. -1.
        -14    1    4    4    0    0  0.28292256699E+02 -0.58549066356E+02  0.56258733777E+02  0.85985406241E+02  0.00000000000E+00 0.  1.
        -13    1    3    3    0    0 -0.23551223954E+02  0.13426307504E+02 -0.15500162282E+02  0.31227886795E+02  0.00000000000E+00 0. -1.
         13    1    3    3    0    0  0.54686015692E+02 -0.57287898227E+01 -0.15501049671E+03  0.16447380774E+03  0.00000000000E+00 0.  1.
          2    1    1    2  501    0 -0.51002403968E+02  0.77900236192E+02 -0.91649489719E+01  0.93561147379E+02  0.00000000000E+00 0. -1.
<scales pt_clust_5="13000.00000" pt_clust_6="13000.00000" pt_clust_7="13000.00000" pt_clust_8="13000.00000" pt_clust_9="93.11118"></scales>
<clustering>
<clus scale="   86.491">  5  6 -1 -1</clus>
<clus scale="   90.535">  7  8 -1 -1</clus>
<clus scale="   93.111">  1  9  2 -1</clus>
<clus scale="   93.111">  1  5  2 -1</clus>
<clus scale="   93.111">  1  5  2 -1</clus>
</clustering>
</event>
<event>
 9    1  0.5981539E-005  0.1123584E+03  0.7546771E-02  0.1260142E+00
         21   -1    0    0  501  502  0.00000000000E+00  0.00000000000E+00  0.25338851786E+03  0.25338851786E+03  0.00000000000E+00 0.  1.
         -2   -1    0    0    0  501 -0.00000000000E+00 -0.00000000000E+00 -0.60359067507E+02  0.60359067507E+02  0.00000000000E+00 0.  1.
        -24    2    1    2    0    0 -0.12242803363E+01 -0.64902378678E+02  0.82037941225E+02  0.13188460352E+03  0.80308824075E+02 0.  0.
         23    2    1    2    0    0  0.28042235157E+02  0.64759691630E+02  0.10163924330E+03  0.15346072954E+03  0.90771554573E+02 0.  0.
         11    1    3    3    0    0  0.25507482889E+02 -0.21500376690E+02 -0.21914434681E+01  0.33432025149E+02  0.00000000000E+00 0. -1.
        -12    1    3    3    0    0 -0.26731763225E+02 -0.43402001988E+02  0.84229384693E+02  0.98452578368E+02  0.00000000000E+00 0.  1.
        -11    1    4    4    0    0  0.53183449489E+01  0.56064090169E+02  0.11326671348E+03  0.12649432945E+03  0.00000000000E+00 0. -1.
         11    1    4    4    0    0  0.22723890208E+02  0.86956014611E+01 -0.11627470184E+02  0.26966400091E+02  0.00000000000E+00 0.  1.
         -1    1    1    2    0  502 -0.26817954821E+02  0.14268704769E+00  0.93522658362E+01  0.28402252316E+02  0.00000000000E+00 0.  1.
<scales pt_clust_5="13000.00000" pt_clust_6="13000.00000" pt_clust_7="13000.00000" pt_clust_8="13000.00000" pt_clust_9="26.81835"></scales>
<clustering>
<clus scale="   26.818">  1  9  2 -1</clus>
<clus scale="   80.309">  5  6 -1 -1</clus>
<clus scale="   90.772">  7  8 -1 -1</clus>
<clus scale="  104.089">  2  5  1 -1</clus>
<clus scale="   26.818">  1  5  2 -1</clus>
</clustering>
</event>
<event>
 9    1  0.5981539E-005  0.1470643E+03  0.7546771E-02  0.1206230E+00
         21   -1    0    0  501  502  0.00000000000E+00  0.00000000000E+00  0.13656187085E+04  0.13656187085E+04  0.00000000000E+00 0.  1.
          3   -1    0    0  502    0 -0.00000000000E+00 -0.00000000000E+00 -0.18081394174E+02  0.18081394174E+02  0.00000000000E+00 0. -1.
         23    2    1    2    0    0  0.86746793350E+02  0.91113191631E+02  0.57671824868E+03  0.59737720588E+03  0.91809410688E+02 0.  0.
        -24    2    1    2    0    0 -0.74570393992E+02 -0.71480589160E+02  0.61962371413E+03  0.63337278042E+03  0.80977241103E+02 0.  0.
         13    1    4    4    0    0 -0.27941168647E+02 -0.61243537462E+02  0.19962250013E+03  0.21066708890E+03  0.00000000000E+00 0. -1.
        -14    1    4    4    0    0 -0.46629225345E+02 -0.10237051698E+02  0.42000121400E+03  0.42270569152E+03  0.00000000000E+00 0.  1.
        -13    1    3    3    0    0  0.14980643207E+02  0.81166789288E+02  0.33620251957E+03  0.34618579047E+03  0.00000000000E+00 0.  1.
         13    1    3    3    0    0  0.71766150143E+02  0.99464023432E+01  0.24051572911E+03  0.25119141541E+03  0.00000000000E+00 0. -1.
          4    1    1    2  501    0 -0.12176399358E+02 -0.19632602472E+02  0.15119535150E+03  0.15295011636E+03  0.00000000000E+00 0. -1.
<scales pt_clust_5="13000.00000" pt_clust_6="13000.00000" pt_clust_7="13000.00000" pt_clust_8="13000.00000" pt_clust_9="23.10203"></scales>
<clustering>
<clus scale="   23.102">  1  9  2 -1</clus>
<clus scale="   80.977">  5  6 -1 -1</clus>
<clus scale="   91.809">  7  8 -1 -1</clus>
<clus scale="  140.557">  1  5  2 -1</clus>
<clus scale="   23.102">  1  5  2 -1</clus>
</clustering>
</event>
<event>
 9    1  0.5981539E-005  0.1052811E+03  0.7546771E-02  0.1274381E+00
          3   -1    0    0  502    0 -0.00000000000E+00  0.00000000000E+00  0.10123827968E+03  0.10123827968E+03  0.00000000000E+00 0. -1.
         21   -1    0    0  501  502  0.00000000000E+00 -0.00000000000E+00 -0.24951104529E+03  0.24951104529E+03  0.00000000000E+00 0.  1.
         23    2    1    2    0    0  0.12120183017E+02  0.41908881952E+02  0.19499697949E+02  0.10410153059E+03  0.92485875828E+02 0.  0.
        -24    2    1    2    0    0  0.32257810983E+02 -0.68519252592E+02 -0.58704216858E+02  0.12592745386E+03  0.81707308204E+02 0.  0.
         13    1    4    4    0    0 -0.46066846274E+01 -0.54179208661E+02  0.91184171531E+00  0.54382346857E+02  0.00000000000E+00 0. -1.
        -14    1    4    4    0    0  0.36864495610E+02 -0.14340043932E+02 -0.59616058573E+02  0.71545107005E+02  0.00000000000E+00 0.  1.
        -11    1    3    3    0    0  0.30447989867E+02 -0.13740184649E+02 -0.14439458407E+02  0.36391904598E+02  0.00000000000E+00 0. -1.
         11    1    3    3    0    0 -0.18327806851E+02  0.55649066601E+02  0.33939156356E+02  0.67709625990E+02  0.00000000000E+00 0.  1.
          4    1    1    2  501    0 -0.44377993999E+02  0.26610370640E+02 -0.10906824670E+03  0.12072034052E+03  0.00000000000E+00 0. -1.
<scales pt_clust_5="13000.00000" pt_clust_6="13000.00000" pt_clust_7="13000.00000" pt_clust_8="13000.00000" pt_clust_9="51.74474"></scales>
<clustering>
<clus scale="   51.745">  2  9  1 -1</clus>
<clus scale="   81.707">  5  6 -1 -1</clus>
<clus scale="   92.486">  7  8 -1 -1</clus>
<clus scale="   95.951">  2  5  1 -1</clus>
<clus scale="   51.745">  2  5  1 -1</clus>
</clustering>
</event>
<event>
 9    1  0.5981539E-005  0.1500580E+03  0.7546771E-02  0.1200443E+00
         21   -1    0    0  501  502  0.00000000000E+00  0.00000000000E+00  0.27247945153E+03  0.27247945153E+03  0.00000000000E+00 0. -1.
          1   -1    0    0  502    0 -0.00000000000E+00 -0.00000000000E+00 -0.44554586004E+03  0.44554586004E+03  0.00000000000E+00 0. -1.
         23    2    1    2    0    0 -0.40536435870E+02 -0.12566250901E+03  0.28280075654E+02  0.15747994344E+03  0.81030248066E+02 0.  0.
        -24    2    1    2    0    0  0.13578462182E+03  0.59288854774E+02  0.12769575439E+03  0.21162349485E+03  0.80781594801E+02 0.  0.
         13    1    4    4    0    0  0.78130401649E+02  0.48779569752E+02  0.28511501496E+02  0.96419457604E+02  0.00000000000E+00 0. -1.
        -14    1    4    4    0    0  0.57654220173E+02  0.10509285022E+02  0.99184252890E+02  0.11520403724E+03  0.00000000000E+00 0.  1.
        -13    1    3    3    0    0  0.91631244666E+01 -0.65032733420E+02 -0.15788605420E+02  0.67546275450E+02  0.00000000000E+00 0.  1.
         13    1    3    3    0    0 -0.49699560336E+02 -0.60629775594E+02  0.44068681074E+02  0.89933667988E+02  0.00000000000E+00 0. -1.
          2    1    1    2  501    0 -0.95248185953E+02  0.66373654240E+02 -0.32904223856E+03  0.34892187329E+03  0.00000000000E+00 0. -1.
<scales pt_clust_5="13000.00000" pt_clust_6="13000.00000" pt_clust_7="13000.00000" pt_clust_8="13000.00000" pt_clust_9="116.09346"></scales>
<clustering>
<clus scale="   80.782">  5  6 -1 -1</clus>
<clus scale="   81.030">  7  8 -1 -1</clus>
<clus scale="  116.093">  1  9  2 -1</clus>
<clus scale="  149.924">  1  5  2 -1</clus>
<clus scale="  116.093">  1  5  2 -1</clus>
</clustering>
</event>
<event>
 9    1  0.5981539E-005  0.1132040E+03  0.7546771E-02  0.1258262E+00
         21   -1    0    0  501  502  0.00000000000E+00  0.00000000000E+00  0.44939219375E+02  0.44939219375E+02  0.00000000000E+00 0.  1.
         -4   -1    0    0    0  501 -0.00000000000E+00 -0.00000000000E+00 -0.41978391199E+03  0.41978391199E+03  0.00000000000E+00 0.  1.
        -24    2    1    2    0    0  0.20095820329E+02 -0.55661694753E+02 -0.22141682849E+03  0.24336425790E+03  0.81845487532E+02 0.  0.
         23    2    1    2    0    0 -0.47095666856E+02  0.73717874135E+02 -0.11444050473E+03  0.17061410507E+03  0.91434221835E+02 0.  0.
         11    1    3    3    0    0  0.23459109870E+02  0.10324386080E+02 -0.23732709180E+02  0.34930849816E+02  0.00000000000E+00 0. -1.
        -12    1    3    3    0    0 -0.33632895411E+01 -0.65986080833E+02 -0.19768411931E+03  0.20843340809E+03  0.00000000000E+00 0.  1.
        -13    1    4    4    0    0 -0.69020676261E+02  0.77862756412E+02 -0.90685512768E+02  0.13802291409E+03  0.00000000000E+00 0.  1.
         13    1    4    4    0    0  0.21925009405E+02 -0.41448822772E+01 -0.23754991963E+02  0.32591190983E+02  0.00000000000E+00 0. -1.
         -3    1    1    2    0  502  0.26999846527E+02 -0.18056179382E+02 -0.38987359397E+02  0.50744768392E+02  0.00000000000E+00 0.  1.
<scales pt_clust_5="13000.00000" pt_clust_6="13000.00000" pt_clust_7="13000.00000" pt_clust_8="13000.00000" pt_clust_9="32.48103"></scales>
<clustering>
<clus scale="   32.481">  1  9  2 -1</clus>
<clus scale="   81.845">  5  6 -1 -1</clus>
<clus scale="   91.434">  7  8 -1 -1</clus>
<clus scale="  105.611">  2  5  1 -1</clus>
<clus scale="   32.481">  1  5  2 -1</clus>
</clustering>
</event>
<event>
 9    1  0.5981539E-005  0.2413281E+03  0.7546771E-02  0.1144118E+00
          3   -1    0    0  502    0 -0.00000000000E+00  0.00000000000E+00  0.18535860102E+03  0.18535860102E+03  0.00000000000E+00 0. -1.
         21   -1    0    0  501  502  0.00000000000E+00 -0.00000000000E+00 -0.93446660134E+03  0.93446660134E+03  0.00000000000E+00 0. -1.
         23    2    1    2    0    0 -0.86707480961E+02 -0.26730858287E+02 -0.15407681320E+03  0.20169125162E+03  0.93311149249E+02 0.  0.
        -24    2    1    2    0    0 -0.14845049720E+03  0.57862256299E+02  0.84725837356E+02  0.19817697219E+03  0.81914919081E+02 0.  0.
         11    1    4    4    0    0 -0.14443407685E+03  0.33189112033E+02  0.88922562062E+02  0.17282922715E+03  0.00000000000E+00 0. -1.
        -12    1    4    4    0    0 -0.40164203484E+01  0.24673144266E+02 -0.41967247062E+01  0.25347745041E+02  0.00000000000E+00 0.  1.
        -11    1    3    3    0    0 -0.46147024458E+02 -0.17462061352E+02 -0.82250538492E+01  0.50021225133E+02  0.00000000000E+00 0.  1.
         11    1    3    3    0    0 -0.40560456503E+02 -0.92687969351E+01 -0.14585175935E+03  0.15167002649E+03  0.00000000000E+00 0. -1.
          4    1    1    2  501    0  0.23515797816E+03 -0.31131398012E+02 -0.67975702447E+03  0.71995697854E+03  0.00000000000E+00 0. -1.
<scales pt_clust_5="13000.00000" pt_clust_6="13000.00000" pt_clust_7="13000.00000" pt_clust_8="13000.00000" pt_clust_9="227.00040"></scales>
<clustering>
<clus scale="   81.915">  5  6 -1 -1</clus>
<clus scale="   93.311">  7  8 -1 -1</clus>
<clus scale="  130.153">  1  7  2 -1</clus>
<clus scale="  227.000">  2  9  1 -1</clus>
<clus scale="  227.000">  2  5  1 -1</clus>
</clustering>
</event>
<event>
 9    1  0.5981539E-005  0.1031657E+03  0.7546771E-02  0.1277110E+00
          3   -1    0    0  502    0 -0.00000000000E+00  0.00000000000E+00  0.28926547979E+03  0.28926547979E+03  0.00000000000E+00 0. -1.
         21   -1    0    0  501  502  0.00000000000E+00 -0.00000000000E+00 -0.26947056071E+03  0.26947056071E+03  0.00000000000E+00 0. -1.
         23    2    1    2    0    0  0.27984430092E+02  0.76228077322E+02  0.24387521189E+03  0.26885152315E+03  0.78817348499E+02 0.  0.
        -24    2    1    2    0    0 -0.22253322193E+01 -0.11747950213E+02 -0.19555173604E+02  0.73894373365E+02  0.70249606139E+02 0.  0.
         11    1    4    4    0    0 -0.30752201517E+02  0.11113596726E+02 -0.17950589546E+02  0.37301924822E+02  0.00000000000E+00 0. -1.
        -12    1    4    4    0    0  0.28526869298E+02 -0.22861546940E+02 -0.16045840576E+01  0.36592448543E+02  0.00000000000E+00 0.  1.
        -13    1    3    3    0    0  0.12536413790E+02  0.32078152860E+02  0.20545243765E+03  0.20831916306E+03  0.00000000000E+00 0. -1.
         13    1    3    3    0    0  0.15448016302E+02  0.44149924462E+02  0.38422774245E+02  0.60532360092E+02  0.00000000000E+00 0.  1.
          4    1    1    2  501    0 -0.25759097872E+02 -0.64480127108E+02 -0.20452511920E+03  0.21599014399E+03  0.00000000000E+00 0. -1.
<scales pt_clust_5="13000.00000" pt_clust_6="13000.00000" pt_clust_7="13000.00000" pt_clust_8="13000.00000" pt_clust_9="69.43499"></scales>
<clustering>
<clus scale="   69.435">  2  9  1 -1</clus>
<clus scale="   70.250">  5  6 -1 -1</clus>
<clus scale="   78.817">  7  8 -1 -1</clus>
<clus scale="   96.778">  2  5  1 -1</clus>
<clus scale="   69.435">  2  5  1 -1</clus>
</clustering>
</event>
<event>
 9    1  0.5981539E-005  0.9206925E+02  0.7546771E-02  0.1304021E+00
         21   -1    0    0  501  502  0.00000000000E+00  0.00000000000E+00  0.29401286054E+02  0.29401286054E+02  0.00000000000E+00 0. -1.
          1   -1    0    0  502    0 -0.00000000000E+00 -0.00000000000E+00 -0.74778367733E+03  0.74778367733E+03  0.00000000000E+00 0. -1.
         23    2    1    2    0    0  0.19550577018E+02 -0.21052106093E+02 -0.40244930655E+03  0.41329389253E+03  0.89559929803E+02 0.  0.
        -24    2    1    2    0    0 -0.25939098452E+02 -0.57567631462E+02 -0.16951797013E+03  0.19758033121E+03  0.79465565265E+02 0.  0.
         13    1    4    4    0    0  0.10262245652E+02 -0.62790238257E+02 -0.12223380696E+03  0.13780069401E+03  0.00000000000E+00 0. -1.
        -14    1    4    4    0    0 -0.36201344104E+02  0.52226067954E+01 -0.47284163172E+02  0.59779637198E+02  0.00000000000E+00 0.  1.
        -13    1    3    3    0    0  0.81301590698E+01  0.32381148565E+02 -0.87756119011E+02  0.93892356945E+02  0.00000000000E+00 0.  1.
         13    1    3    3    0    0  0.11420417948E+02 -0.53433254658E+02 -0.31469318754E+03  0.31940153559E+03  0.00000000000E+00 0. -1.
          2    1    1    2  501    0  0.63885214340E+01  0.78619737554E+02 -0.14641511459E+03  0.16631073964E+03  0.00000000000E+00 0. -1.
<scales pt_clust_5="13000.00000" pt_clust_6="13000.00000" pt_clust_7="13000.00000" pt_clust_8="13000.00000" pt_clust_9="78.87887"></scales>
<clustering>
<clus scale="   78.879">  1  9  2 -1</clus>
<clus scale="   79.466">  5  6 -1 -1</clus>
<clus scale="   82.283">  1  5  2 -1</clus>
<clus scale="   89.560">  7  8 -1 -1</clus>
<clus scale="   78.879">  1  5  2 -1</clus>
</clustering>
</event>
<event>
 9    1  0.5981539E-005  0.1081125E+03  0.7546771E-02  0.1264220E+00
          1   -1    0    0  502    0 -0.00000000000E+00  0.00000000000E+00  0.65496457789E+03  0.65496457789E+03  0.00000000000E+00 0. -1.
         21   -1    0    0  501  502  0.00000000000E+00 -0.00000000000E+00 -0.65520930917E+02  0.65520930917E+02  0.00000000000E+00 0.  1.
        -24    2    1    2    0    0 -0.61054730075E+02  0.10989299723E+02  0.34459132571E+03  0.36176695309E+03  0.91014843937E+02 0.  0.
         23    2    1    2    0    0  0.50524062372E+02  0.43694751036E+02  0.27358734861E+03  0.29605323702E+03  0.91299341085E+02 0.  0.
         11    1    3    3    0    0 -0.59240186724E+02 -0.20744045051E+02  0.30293358419E+03  0.30936785799E+03  0.00000000000E+00 0. -1.
        -12    1    3    3    0    0 -0.18145433501E+01  0.31733344774E+02  0.41657741526E+02  0.52399095099E+02  0.00000000000E+00 0.  1.
        -13    1    4    4    0    0 -0.21173125377E+02  0.34877595767E+02  0.93224099298E+02  0.10176188193E+03  0.00000000000E+00 0.  1.
         13    1    4    4    0    0  0.71697187748E+02  0.88171552686E+01  0.18036324931E+03  0.19429135509E+03  0.00000000000E+00 0. -1.
          2    1    1    2  501    0  0.10530667703E+02 -0.54684050759E+02 -0.28735027359E+02  0.62665318693E+02  0.00000000000E+00 0. -1.
<scales pt_clust_5="13000.00000" pt_clust_6="13000.00000" pt_clust_7="13000.00000" pt_clust_8="13000.00000" pt_clust_9="55.68878"></scales>
<clustering>
<clus scale="   55.689">  2  9  1 -1</clus>
<clus scale="   91.015">  5  6 -1 -1</clus>
<clus scale="   91.299">  7  8 -1 -1</clus>
<clus scale="  107.872">  1  5  2 -1</clus>
<clus scale="   55.689">  2  5  1 -1</clus>
</clustering>
</event>
<event>
 9    1  0.5981539E-005  0.1343967E+03  0.7546771E-02  0.1223781E+00
          1   -1    0    0  502    0 -0.00000000000E+00  0.00000000000E+00  0.31640989039E+02  0.31640989039E+02  0.00000000000E+00 0. -1.
         21   -1    0    0  501  502  0.00000000000E+00 -0.00000000000E+00 -0.64571358744E+03  0.64571358744E+03  0.00000000000E+00 0.  1.
         23    2    1    2    0    0  0.47019064505E+02  0.88975882576E+02 -0.24298280618E+03  0.27833236100E+03  0.91108501108E+02 0.  0.
        -24    2    1    2    0    0 -0.27501632010E+02 -0.93552702556E+02 -0.33170387061E+03  0.35482800462E+03  0.79793528343E+02 0.  0.
         13    1    4    4    0    0 -0.20137475476E+02  0.97415497502E+01 -0.54478076388E+02  0.58892075163E+02  0.00000000000E+00 0. -1.
        -14    1    4    4    0    0 -0.73641565347E+01 -0.10329425231E+03 -0.27722579422E+03  0.29593592946E+03  0.00000000000E+00 0.  1.
        -11    1    3    3    0    0 -0.77226280253E+01  0.25216390240E+02 -0.62167833082E+01  0.27095271083E+02  0.00000000000E+00 0. -1.
         11    1    3    3    0    0  0.54741692530E+02  0.63759492336E+02 -0.23676602287E+03  0.25123708992E+03  0.00000000000E+00 0.  1.
          2    1    1    2  501    0 -0.19517432495E+02  0.45768199799E+01 -0.39385921615E+02  0.44194210863E+02  0.00000000000E+00 0. -1.
<scales pt_clust_5="13000.00000" pt_clust_6="13000.00000" pt_clust_7="13000.00000" pt_clust_8="13000.00000" pt_clust_9="20.04689"></scales>
<clustering>
<clus scale="   20.047">  2  9  1 -1</clus>
<clus scale="   79.794">  5  6 -1 -1</clus>
<clus scale="   91.109">  7  8 -1 -1</clus>
<clus scale="  126.999">  2  5  1 -1</clus>
<clus scale="   20.047">  2  5  1 -1</clus>
</clustering>
</event>
<event>
 9    1  0.5981539E-005  0.1601776E+03  0.7546771E-02  0.1190867E+00
         21   -1    0    0  501  502  0.00000000000E+00  0.00000000000E+00  0.12577250207E+03  0.12577250207E+03  0.00000000000E+00 0. -1.
          3   -1    0    0  502    0 -0.00000000000E+00 -0.00000000000E+00 -0.25787649366E+03  0.25787649366E+03  0.00000000000E+00 0. -1.
        -24    2    1    2    0    0 -0.12715173013E+03  0.50829875446E+02 -0.12477480110E+03  0.20119353473E+03  0.78478332762E+02 0.  0.
         23    2    1    2    0    0  0.11443565241E+03 -0.33586125497E+02 -0.26452589249E+02  0.15373700135E+03  0.93336915198E+02 0.  0.
         11    1    3    3    0    0 -0.11258447498E+03  0.22727164778E+02 -0.61126494631E+02  0.13010855610E+03  0.00000000000E+00 0. -1.
        -12    1    3    3    0    0 -0.14567255151E+02  0.28102710668E+02 -0.63648306470E+02  0.71084978625E+02  0.00000000000E+00 0.  1.
        -13    1    4    4    0    0  0.44402626553E+02 -0.24986162041E+02 -0.57346738634E+02  0.76710820425E+02  0.00000000000E+00 0.  1.
         13    1    4    4    0    0  0.70033025856E+02 -0.85999634557E+01  0.30894149385E+02  0.77026180927E+02  0.00000000000E+00 0. -1.
          4    1    1    2  501    0  0.12716077721E+02 -0.17243749949E+02  0.19123398760E+02  0.28718459656E+02  0.00000000000E+00 0. -1.
<scales pt_clust_5="13000.00000" pt_clust_6="13000.00000" pt_clust_7="13000.00000" pt_clust_8="13000.00000" pt_clust_9="21.42535"></scales>
<clustering>
<clus scale="   21.425">  1  9  2 -1</clus>
<clus scale="   78.478">  5  6 -1 -1</clus>
<clus scale="   93.337">  7  8 -1 -1</clus>
<clus scale="  152.000">  2  5  1 -1</clus>
<clus scale="   21.425">  1  5  2 -1</clus>
</clustering>
</event>
<event>
 9    1  0.5981539E-005  0.2680788E+03  0.7546771E-02  0.1102946E+00
         21   -1    0    0  501  502  0.00000000000E+00  0.00000000000E+00  0.61238971505E+03  0.61238971505E+03  0.00000000000E+00 0. -1.
          1   -1    0    0  502    0 -0.00000000000E+00 -0.00000000000E+00 -0.72366023188E+03  0.72366023188E+03  0.00000000000E+00 0. -1.
        -24    2    1    2    0    0  0.99206126282E+00 -0.25617393932E+03 -0.55526601686E+03  0.61685531640E+03  0.81018889892E+02 0.  0.
         23    2    1    2    0    0  0.20425506113E+03  0.17831147450E+03  0.40514403005E+03  0.49626329267E+03  0.92846424975E+02 0.  0.
         13    1    3    3    0    0  0.25874025260E+02 -0.23254712105E+03 -0.49474005112E+03  0.54727995293E+03  0.00000000000E+00 0. -1.
        -14    1    3    3    0    0 -0.24881963997E+02 -0.23626818270E+02 -0.60525965744E+02  0.69575363478E+02  0.00000000000E+00 0.  1.
        -13    1    4    4    0    0  0.91058562926E+02  0.99731926205E+02  0.27664520351E+03  0.30784848158E+03  0.00000000000E+00 0. -1.
         13    1    4    4    0    0  0.11319649820E+03  0.78579548295E+02  0.12849882655E+03  0.18841481110E+03  0.00000000000E+00 0.  1.
          2    1    1    2  501    0 -0.20524712239E+03  0.77862464823E+02  0.38851469977E+02  0.22293133786E+03  0.00000000000E+00 0. -1.
<scales pt_clust_5="13000.00000" pt_clust_6="13000.00000" pt_clust_7="13000.00000" pt_clust_8="13000.00000" pt_clust_9="219.51980"></scales>
<clustering>
<clus scale="   81.019">  5  6 -1 -1</clus>
<clus scale="   92.846">  7  8 -1 -1</clus>
<clus scale="  219.520">  1  9  2 -1</clus>
<clus scale="  264.215">  2  5  1 -1</clus>
<clus scale="  219.520">  1  5  2 -1</clus>
</clustering>
</event>
<event>
 9    1  0.5981539E-005  0.2789533E+03  0.7546771E-02  0.1097228E+00
         21   -1    0    0  501  502  0.00000000000E+00  0.00000000000E+00  0.80879175130E+02  0.80879175130E+02  0.00000000000E+00 0. -1.
          1   -1    0    0  502    0 -0.00000000000E+00 -0.00000000000E+00 -0.15029885607E+04  0.15029885607E+04  0.00000000000E+00 0. -1.
        -24    2    1    2    0    0  0.19963231740E+03  0.69510248602E+02 -0.45378228739E+03  0.50710565838E+03  0.80950896229E+02 0.  0.
         23    2    1    2    0    0 -0.28528852204E+03 -0.15643031919E+03 -0.79260869008E+03  0.86282507034E+03  0.10187532013E+03 0.  0.
         13    1    3    3    0    0  0.11439290863E+03 -0.19086568312E+01 -0.20954808656E+03  0.23874626929E+03  0.00000000000E+00 0. -1.
        -14    1    3    3    0    0  0.85239408765E+02  0.71418905433E+02 -0.24423420082E+03  0.26835938909E+03  0.00000000000E+00 0.  1.
        -13    1    4    4    0    0 -0.14487410787E+03 -0.12663438685E+03 -0.37959134567E+03  0.42557533384E+03  0.00000000000E+00 0.  1.
         13    1    4    4    0    0 -0.14041441417E+03 -0.29795932345E+02 -0.41301734441E+03  0.43724973650E+03  0.00000000000E+00 0. -1.
          2    1    1    2  501    0  0.85656204641E+02  0.86920070591E+02 -0.17571840810E+03  0.21393700711E+03  0.00000000000E+00 0. -1.
<scales pt_clust_5="13000.00000" pt_clust_6="13000.00000" pt_clust_7="13000.00000" pt_clust_8="13000.00000" pt_clust_9="122.03313"></scales>
<clustering>
<clus scale="   80.951">  5  6 -1 -1</clus>
<clus scale="  101.875">  7  8 -1 -1</clus>
<clus scale="  122.033">  1  9  2 -1</clus>
<clus scale="  272.010">  2  5  1 -1</clus>
<clus scale="  122.033">  1  5  2 -1</clus>
</clustering>
</event>
<event>
 9    1  0.5981539E-005  0.1963400E+03  0.7546771E-02  0.1153810E+00
         21   -1    0    0  501  502  0.00000000000E+00  0.00000000000E+00  0.47130894285E+03  0.47130894285E+03  0.00000000000E+00 0. -1.
          1   -1    0    0  502    0 -0.00000000000E+00 -0.00000000000E+00 -0.13463449788E+03  0.13463449788E+03  0.00000000000E+00 0. -1.
         23    2    1    2    0    0 -0.88615434692E+02  0.16097393166E+03  0.56081593623E+01  0.20457514104E+03  0.89745389503E+02 0.  0.
        -24    2    1    2    0    0  0.41444839440E+02 -0.14440868272E+03  0.29187820425E+03  0.33784524679E+03  0.79843486279E+02 0.  0.
         13    1    4    4    0    0  0.42109152149E+02 -0.11604566288E+03  0.28194315477E+03  0.30778518335E+03  0.00000000000E+00 0. -1.
        -14    1    4    4    0    0 -0.66431270837E+00 -0.28363019839E+02  0.99350494780E+01  0.30060063438E+02  0.00000000000E+00 0.  1.
        -13    1    3    3    0    0  0.14815023646E+02  0.52033195995E+02  0.52472600124E+01  0.54355056331E+02  0.00000000000E+00 0. -1.
         13    1    3    3    0    0 -0.10343045834E+03  0.10894073567E+03  0.36089934994E+00  0.15022008470E+03  0.00000000000E+00 0.  1.
          2    1    1    2  501    0  0.47170595252E+02 -0.16565248949E+02  0.39188081358E+02  0.63523052899E+02  0.00000000000E+00 0. -1.
<scales pt_clust_5="13000.00000" pt_clust_6="13000.00000" pt_clust_7="13000.00000" pt_clust_8="13000.00000" pt_clust_9="49.99473"></scales>
<clustering>
<clus scale="   49.995">  1  9  2 -1</clus>
<clus scale="   79.843">  5  6 -1 -1</clus>
<clus scale="   89.745">  7  8 -1 -1</clus>
<clus scale="  192.016">  1  5  2 -1</clus>
<clus scale="   49.995">  1  5  2 -1</clus>
</clustering>
</event>
<event>
 9    1  0.5981539E-005  0.1294382E+03  0.7546771E-02  0.1230526E+00
         21   -1    0    0  501  502  0.00000000000E+00  0.00000000000E+00  0.12121997733E+04  0.12121997733E+04  0.00000000000E+00 0. -1.
          3   -1    0    0  502    0 -0.00000000000E+00 -0.00000000000E+00 -0.32457511289E+02  0.32457511289E+02  0.00000000000E+00 0. -1.
         23    2    1    2    0    0  0.19613656383E+02  0.84713488247E+02  0.25334119752E+03  0.28290610181E+03  0.91066072016E+02 0.  0.
        -24    2    1    2    0    0 -0.71725780097E+02 -0.91728906623E+02  0.88037443472E+03  0.89187028282E+03  0.82551052287E+02 0.  0.
         13    1    4    4    0    0 -0.61154764118E+02 -0.37446091913E+02  0.28308415122E+03  0.29202525858E+03  0.00000000000E+00 0. -1.
        -14    1    4    4    0    0 -0.10571015979E+02 -0.54282814710E+02  0.59729028350E+03  0.59984502424E+03  0.00000000000E+00 0.  1.
        -11    1    3    3    0    0  0.88885051848E+01 -0.19318721201E+02  0.46275737703E+02  0.50928012068E+02  0.00000000000E+00 0.  1.
         11    1    3    3    0    0  0.10725151198E+02  0.10403220945E+03  0.20706545982E+03  0.23197808974E+03  0.00000000000E+00 0. -1.
          4    1    1    2  501    0  0.52112123714E+02  0.70154183758E+01  0.46026629820E+02  0.69880900006E+02  0.00000000000E+00 0. -1.
<scales pt_clust_5="13000.00000" pt_clust_6="13000.00000" pt_clust_7="13000.00000" pt_clust_8="13000.00000" pt_clust_9="52.58224"></scales>
<clustering>
<clus scale="   52.582">  1  9  2 -1</clus>
<clus scale="   82.551">  5  6 -1 -1</clus>
<clus scale="   91.066">  7  8 -1 -1</clus>
<clus scale="  123.596">  1  5  2 -1</clus>
<clus scale="   52.582">  1  5  2 -1</clus>
</clustering>
</event>
<event>
 9    1  0.5981539E-005  0.2050783E+03  0.7546771E-02  0.1146861E+00
         21   -1    0    0  501  502  0.00000000000E+00  0.00000000000E+00  0.51403329748E+03  0.51403329748E+03  0.00000000000E+00 0. -1.
          1   -1    0    0  502    0 -0.00000000000E+00 -0.00000000000E+00 -0.11269881273E+03  0.11269881273E+03  0.00000000000E+00 0. -1.
         23    2    1    2    0    0  0.24693631858E+02  0.19789634503E+03  0.10868986789E+03  0.24638010235E+03  0.95482609008E+02 0.  0.
        -24    2    1    2    0    0 -0.19028517203E+02 -0.14930138982E+03  0.28291052159E+03  0.33046898664E+03  0.80736599102E+02 0.  0.
         13    1    4    4    0    0  0.29605606951E+02 -0.41003680834E+02  0.10558563928E+03  0.11707314392E+03  0.00000000000E+00 0. -1.
        -14    1    4    4    0    0 -0.48634124154E+02 -0.10829770899E+03  0.17732488231E+03  0.21339584272E+03  0.00000000000E+00 0.  1.
        -11    1    3    3    0    0 -0.26831625982E+02  0.14390734160E+02  0.13000509531E+02  0.33106534560E+02  0.00000000000E+00 0.  1.
         11    1    3    3    0    0  0.51525257840E+02  0.18350561087E+03  0.95689358357E+02  0.21327356779E+03  0.00000000000E+00 0. -1.
          2    1    1    2  501    0 -0.56651146554E+01 -0.48594955201E+02  0.97340952790E+01  0.49883021219E+02  0.00000000000E+00 0. -1.
<scales pt_clust_5="13000.00000" pt_clust_6="13000.00000" pt_clust_7="13000.00000" pt_clust_8="13000.00000" pt_clust_9="48.92408"></scales>
<clustering>
<clus scale="   48.924">  1  9  2 -1</clus>
<clus scale="   80.737">  5  6 -1 -1</clus>
<clus scale="   95.483">  7  8 -1 -1</clus>
<clus scale="  198.642">  1  5  2 -1</clus>
<clus scale="   48.924">  1  5  2 -1</clus>
</clustering>
</event>
<event>
 9    1  0.5981539E-005  0.2391936E+03  0.7546771E-02  0.1150116E+00
         21   -1    0    0  501  502  0.00000000000E+00  0.00000000000E+00  0.10627638333E+04  0.10627638333E+04  0.00000000000E+00 0.  1.
          1   -1    0    0  502    0 -0.00000000000E+00 -0.00000000000E+00 -0.86078500461E+02  0.86078500461E+02  0.00000000000E+00 0. -1.
        -24    2    1    2    0    0 -0.78177100990E+02 -0.50640665918E+01  0.19153376249E+03  0.22385809253E+03  0.85381259826E+02 0.  0.
         23    2    1    2    0    0 -0.50322644160E+02 -0.20383702392E+03  0.49046961363E+03  0.54159239764E+03  0.93166423404E+02 0.  0.
         11    1    3    3    0    0 -0.20012902583E+02 -0.27433951781E+02  0.15899299311E+02  0.37495675733E+02  0.00000000000E+00 0. -1.
        -12    1    3    3    0    0 -0.58164198407E+02  0.22369885189E+02  0.17563446317E+03  0.18636241680E+03  0.00000000000E+00 0.  1.
        -11    1    4    4    0    0 -0.63571570445E+02 -0.14353610389E+03  0.41732612711E+03  0.44587560379E+03  0.00000000000E+00 0. -1.
         11    1    4    4    0    0  0.13248926285E+02 -0.60300920029E+02  0.73143486527E+02  0.95716793852E+02  0.00000000000E+00 0.  1.
          2    1    1    2  501    0  0.12849974515E+03  0.20890109051E+03  0.29468195676E+03  0.38339184363E+03  0.00000000000E+00 0. -1.
<scales pt_clust_5="13000.00000" pt_clust_6="13000.00000" pt_clust_7="13000.00000" pt_clust_8="13000.00000" pt_clust_9="220.30355"></scales>
<clustering>
<clus scale="   85.381">  5  6 -1 -1</clus>
<clus scale="   93.166">  7  8 -1 -1</clus>
<clus scale="  115.876">  2  5  1 -1</clus>
<clus scale="  220.304">  1  9  2 -1</clus>
<clus scale="  220.304">  1  5  2 -1</clus>
</clustering>
</event>
<event>
 9    1  0.5981539E-005  0.1214995E+03  0.7546771E-02  0.1248914E+00
         21   -1    0    0  501  502  0.00000000000E+00  0.00000000000E+00  0.15290832686E+03  0.15290832686E+03  0.00000000000E+00 0. -1.
          1   -1    0    0  502    0 -0.00000000000E+00 -0.00000000000E+00 -0.24797996586E+03  0.24797996586E+03  0.00000000000E+00 0. -1.
         23    2    1    2    0    0 -0.61466187052E+02  0.63507873023E+02 -0.19988839044E+03  0.23632796158E+03  0.89912149928E+02 0.  0.
        -24    2    1    2    0    0  0.24788913686E+02 -0.37790076872E+02  0.87293909930E+02  0.11645963057E+03  0.62450289746E+02 0.  0.
         11    1    4    4    0    0  0.26731065445E+02  0.93598424324E+01  0.21824355036E+02  0.35755544786E+02  0.00000000000E+00 0. -1.
        -12    1    4    4    0    0 -0.19421517587E+01 -0.47149919304E+02  0.65469554894E+02  0.80704085782E+02  0.00000000000E+00 0.  1.
        -13    1    3    3    0    0 -0.54992276250E+02  0.54886344613E+01 -0.46568491824E+02  0.72269633915E+02  0.00000000000E+00 0.  1.
         13    1    3    3    0    0 -0.64739108020E+01  0.58019238561E+02 -0.15331989862E+03  0.16405832767E+03  0.00000000000E+00 0. -1.
          2    1    1    2  501    0  0.36677273365E+02 -0.25717796150E+02  0.17522841513E+02  0.48100700567E+02  0.00000000000E+00 0. -1.
<scales pt_clust_5="13000.00000" pt_clust_6="13000.00000" pt_clust_7="13000.00000" pt_clust_8="13000.00000" pt_clust_9="44.79540"></scales>
<clustering>
<clus scale="   44.795">  1  9  2 -1</clus>
<clus scale="   62.450">  5  6 -1 -1</clus>
<clus scale="   89.912">  7  8 -1 -1</clus>
<clus scale="  102.849">  1  5  2 -1</clus>
<clus scale="   44.795">  1  5  2 -1</clus>
</clustering>
</event>
<event>
 9    1  0.5981539E-005  0.1626402E+03  0.7546771E-02  0.1197422E+00
         21   -1    0    0  501  502  0.00000000000E+00  0.00000000000E+00  0.32531173685E+03  0.32531173685E+03  0.00000000000E+00 0.  1.
          1   -1    0    0  502    0 -0.00000000000E+00 -0.00000000000E+00 -0.41429431974E+03  0.41429431974E+03  0.00000000000E+00 0. -1.
        -24    2    1    2    0    0  0.94692979046E+02 -0.72207745020E+01 -0.27728121052E+03  0.30446412446E+03  0.82429566966E+02 0.  0.
         23    2    1    2    0    0 -0.22165538869E+02 -0.13339147511E+03  0.22006837676E+03  0.27376860324E+03  0.90744481510E+02 0.  0.
         13    1    3    3    0    0  0.10424662612E+03  0.53424885174E+01 -0.26382148799E+03  0.28372112852E+03  0.00000000000E+00 0. -1.
        -14    1    3    3    0    0 -0.95536470733E+01 -0.12563263019E+02 -0.13459722527E+02  0.20742995941E+02  0.00000000000E+00 0.  1.
        -13    1    4    4    0    0 -0.15055977731E+02 -0.41844689483E+02  0.15493519447E+03  0.16119111324E+03  0.00000000000E+00 0.  1.
         13    1    4    4    0    0 -0.71095611385E+01 -0.91546785627E+02  0.65133182285E+02  0.11257748999E+03  0.00000000000E+00 0. -1.
          2    1    1    2  501    0 -0.72527440177E+02  0.14061224961E+03 -0.31769749123E+02  0.16137332890E+03  0.00000000000E+00 0. -1.
<scales pt_clust_5="13000.00000" pt_clust_6="13000.00000" pt_clust_7="13000.00000" pt_clust_8="13000.00000" pt_clust_9="134.97148"></scales>
<clustering>
<clus scale="   82.430">  5  6 -1 -1</clus>
<clus scale="   90.744">  7  8 -1 -1</clus>
<clus scale="  125.752">  2  5  1 -1</clus>
<clus scale="  134.971">  1  9  2 -1</clus>
<clus scale="  134.971">  1  5  2 -1</clus>
</clustering>
</event>
<event>
 9    1  0.5981539E-005  0.2012223E+03  0.7546771E-02  0.1149901E+00
         21   -1    0    0  501  502  0.00000000000E+00  0.00000000000E+00  0.47204521283E+03  0.47204521283E+03  0.00000000000E+00 0. -1.
          1   -1    0    0  502    0 -0.00000000000E+00 -0.00000000000E+00 -0.17645698701E+03  0.17645698701E+03  0.00000000000E+00 0. -1.
         23    2    1    2    0    0 -0.72572301593E+02  0.18424272010E+03 -0.24398298719E+02  0.22000109601E+03  0.92698901822E+02 0.  0.
        -24    2    1    2    0    0  0.23011937721E+01 -0.15387366681E+03  0.11079003973E+03  0.20573782758E+03  0.79819922095E+02 0.  0.
         11    1    4    4    0    0  0.33434737224E+02 -0.27933684155E+02  0.30232464525E+02  0.53029937535E+02  0.00000000000E+00 0. -1.
        -12    1    4    4    0    0 -0.31133543452E+02 -0.12593998265E+03  0.80557575205E+02  0.15270789004E+03  0.00000000000E+00 0.  1.
        -11    1    3    3    0    0  0.12608731860E+02  0.60460378698E+02  0.17159739375E+02  0.64100656524E+02  0.00000000000E+00 0.  1.
         11    1    3    3    0    0 -0.85181033454E+02  0.12378234140E+03 -0.41558038093E+02  0.15590043949E+03  0.00000000000E+00 0. -1.
          2    1    1    2  501    0  0.70271107821E+02 -0.30369053289E+02  0.20919648480E+03  0.22276327625E+03  0.00000000000E+00 0. -1.
<scales pt_clust_5="13000.00000" pt_clust_6="13000.00000" pt_clust_7="13000.00000" pt_clust_8="13000.00000" pt_clust_9="76.55265"></scales>
<clustering>
<clus scale="   76.553">  1  9  2 -1</clus>
<clus scale="   79.820">  5  6 -1 -1</clus>
<clus scale="   92.699">  7  8 -1 -1</clus>
<clus scale="  195.623">  1  5  2 -1</clus>
<clus scale="   76.553">  1  5  2 -1</clus>
</clustering>
</event>
<event>
 9    1  0.5981539E-005  0.1295698E+03  0.7546771E-02  0.1235132E+00
         21   -1    0    0  501  502  0.00000000000E+00  0.00000000000E+00  0.44294106168E+03  0.44294106168E+03  0.00000000000E+00 0.  1.
         -2   -1    0    0    0  501 -0.00000000000E+00 -0.00000000000E+00 -0.22506256594E+03  0.22506256594E+03  0.00000000000E+00 0.  1.
        -24    2    1    2    0    0  0.63965939621E+02 -0.41703198697E+02  0.32480677993E+02  0.11670244960E+03  0.82058936660E+02 0.  0.
         23    2    1    2    0    0  0.83946516777E+02  0.25528376202E+02  0.32391069909E+03  0.34801434141E+03  0.92179852279E+02 0.  0.
         13    1    3    3    0    0  0.50753241968E+02 -0.66590926083E+02  0.21352136106E+02  0.86406925204E+02  0.00000000000E+00 0. -1.
        -14    1    3    3    0    0  0.13212697653E+02  0.24887727386E+02  0.11128541887E+02  0.30295524393E+02  0.00000000000E+00 0.  1.
        -13    1    4    4    0    0  0.90212684295E+02  0.48957455018E+02  0.25098649009E+03  0.27116301189E+03  0.00000000000E+00 0.  1.
         13    1    4    4    0    0 -0.62661675175E+01 -0.23429078816E+02  0.72924209009E+02  0.76851329521E+02  0.00000000000E+00 0. -1.
         -1    1    1    2    0  502 -0.14791245640E+03  0.16174822495E+02 -0.13851288135E+03  0.20328683661E+03  0.00000000000E+00 0.  1.
<scales pt_clust_5="13000.00000" pt_clust_6="13000.00000" pt_clust_7="13000.00000" pt_clust_8="13000.00000" pt_clust_9="91.05613"></scales>
<clustering>
<clus scale="   82.059">  5  6 -1 -1</clus>
<clus scale="   92.180">  7  8 -1 -1</clus>
<clus scale="  112.091">  2  5  1 -1</clus>
<clus scale="   91.056">  1  9  2 -1</clus>
<clus scale="   91.056">  1  5  2 -1</clus>
</clustering>
</event>
<event>
 9    1  0.5981539E-005  0.1071847E+03  0.7546771E-02  0.1274569E+00
         21   -1    0    0  501  502  0.00000000000E+00  0.00000000000E+00  0.16696644695E+03  0.16696644695E+03  0.00000000000E+00 0. -1.
          1   -1    0    0  502    0 -0.00000000000E+00 -0.00000000000E+00 -0.43123015873E+03  0.43123015873E+03  0.00000000000E+00 0. -1.
         23    2    1    2    0    0  0.41351982115E+02  0.17348377288E+01 -0.38042788084E+03  0.39560693038E+03  0.10033182326E+03 0.  0.
        -24    2    1    2    0    0 -0.16428311625E+02  0.15445589402E+02  0.30177622585E+01  0.85463820784E+02  0.82380228934E+02 0.  0.
         13    1    4    4    0    0 -0.15428965069E+01  0.42149676997E+02  0.23863500084E+02  0.48460730874E+02  0.00000000000E+00 0. -1.
        -14    1    4    4    0    0 -0.14885415118E+02 -0.26704087594E+02 -0.20845737825E+02  0.37003089911E+02  0.00000000000E+00 0.  1.
        -11    1    3    3    0    0 -0.33013144147E+02  0.59476931175E+01 -0.10115825044E+03  0.10657501758E+03  0.00000000000E+00 0.  1.
         11    1    3    3    0    0  0.74365126262E+02 -0.42128553887E+01 -0.27926963040E+03  0.28903191280E+03  0.00000000000E+00 0. -1.
          2    1    1    2  501    0 -0.24923670490E+02 -0.17180427131E+02  0.11314640679E+03  0.11712585452E+03  0.00000000000E+00 0. -1.
<scales pt_clust_5="13000.00000" pt_clust_6="13000.00000" pt_clust_7="13000.00000" pt_clust_8="13000.00000" pt_clust_9="30.27138"></scales>
<clustering>
<clus scale="   30.271">  1  9  2 -1</clus>
<clus scale="   82.380">  5  6 -1 -1</clus>
<clus scale="   90.601">  1  5  2 -1</clus>
<clus scale="  100.332">  7  8 -1 -1</clus>
<clus scale="   30.271">  1  5  2 -1</clus>
</clustering>
</event>
<event>
 9    1  0.5981539E-005  0.1065447E+03  0.7546771E-02  0.1270087E+00
         21   -1    0    0  501  502  0.00000000000E+00  0.00000000000E+00  0.40431967572E+03  0.40431967572E+03  0.00000000000E+00 0. -1.
          1   -1    0    0  502    0 -0.00000000000E+00 -0.00000000000E+00 -0.42656369086E+02  0.42656369086E+02  0.00000000000E+00 0. -1.
         23    2    1    2    0    0  0.57375696267E+02  0.50286008434E+01  0.13768060823E+03  0.17304538251E+03  0.87587083397E+02 0.  0.
        -24    2    1    2    0    0 -0.59035913608E+02 -0.36277647809E+02  0.21753277497E+03  0.24197975041E+03  0.80202148329E+02 0.  0.
         11    1    4    4    0    0 -0.29823177733E+02 -0.56626736178E+02  0.96298202821E+02  0.11562591858E+03  0.00000000000E+00 0. -1.
        -12    1    4    4    0    0 -0.29212735875E+02  0.20349088370E+02  0.12123457215E+03  0.12635383184E+03  0.00000000000E+00 0.  1.
        -13    1    3    3    0    0 -0.30185451059E+01 -0.23537554829E+02  0.46510138331E+01  0.24181811999E+02  0.00000000000E+00 0.  1.
         13    1    3    3    0    0  0.60394241373E+02  0.28566155672E+02  0.13302959440E+03  0.14886357051E+03  0.00000000000E+00 0. -1.
          2    1    1    2  501    0  0.16602173410E+01  0.31249046965E+02  0.64499234359E+01  0.31950911884E+02  0.00000000000E+00 0. -1.
<scales pt_clust_5="13000.00000" pt_clust_6="13000.00000" pt_clust_7="13000.00000" pt_clust_8="13000.00000" pt_clust_9="31.29313"></scales>
<clustering>
<clus scale="   31.293">  1  9  2 -1</clus>
<clus scale="   80.202">  5  6 -1 -1</clus>
<clus scale="   87.587">  7  8 -1 -1</clus>
<clus scale="  100.562">  1  5  2 -1</clus>
<clus scale="   31.293">  1  5  2 -1</clus>
</clustering>
</event>
<event>
 9    1  0.5981539E-005  0.1036672E+03  0.7546771E-02  0.1283367E+00
         21   -1    0    0  501  502  0.00000000000E+00  0.00000000000E+00  0.32166032164E+02  0.32166032164E+02  0.00000000000E+00 0.  1.
          1   -1    0    0  502    0 -0.00000000000E+00 -0.00000000000E+00 -0.42036278679E+03  0.42036278679E+03  0.00000000000E+00 0. -1.
        -24    2    1    2    0    0  0.15614945929E+02  0.23209069741E+01 -0.13871588129E+03  0.16120186691E+03  0.80589906498E+02 0.  0.
         23    2    1    2    0    0 -0.42879715205E+02  0.11784120130E+02 -0.14159494038E+03  0.17915880165E+03  0.10035543634E+03 0.  0.
         13    1    3    3    0    0  0.55648655407E+01  0.28777839426E+02 -0.12738952587E+03  0.13071810537E+03  0.00000000000E+00 0. -1.
        -14    1    3    3    0    0  0.10050080389E+02 -0.26456932452E+02 -0.11326355415E+02  0.30483761539E+02  0.00000000000E+00 0.  1.
        -11    1    4    4    0    0 -0.35577536204E+02  0.54028252872E+02 -0.67075286338E+02  0.93187484289E+02  0.00000000000E+00 0.  1.
         11    1    4    4    0    0 -0.73021790008E+01 -0.42244132742E+02 -0.74519654045E+02  0.85971317358E+02  0.00000000000E+00 0. -1.
          2    1    1    2  501    0  0.27264769276E+02 -0.14105027104E+02 -0.10788593296E+03  0.11216815040E+03  0.00000000000E+00 0. -1.
<scales pt_clust_5="13000.00000" pt_clust_6="13000.00000" pt_clust_7="13000.00000" pt_clust_8="13000.00000" pt_clust_9="30.69724"></scales>
<clustering>
<clus scale="   30.697">  1  9  2 -1</clus>
<clus scale="   80.590">  5  6 -1 -1</clus>
<clus scale="   84.678">  2  5  1 -1</clus>
<clus scale="  100.355">  7  8 -1 -1</clus>
<clus scale="   30.697">  1  5  2 -1</clus>
</clustering>
</event>
<event>
 9    1  0.5981539E-005  0.1459020E+03  0.7546771E-02  0.1227716E+00
          1   -1    0    0  502    0 -0.00000000000E+00  0.00000000000E+00  0.30395151789E+03  0.30395151789E+03  0.00000000000E+00 0. -1.
         21   -1    0    0  501  502  0.00000000000E+00 -0.00000000000E+00 -0.11892767126E+03  0.11892767126E+03  0.00000000000E+00 0. -1.
         23    2    1    2    0    0 -0.62423714900E+01 -0.39051726276E+01  0.40742639314E+02  0.10012791278E+03  0.91166982420E+02 0.  0.
        -24    2    1    2    0    0 -0.96999544470E+02  0.68234345097E+02  0.14019158554E+03  0.20103907219E+03  0.81842473147E+02 0.  0.
         11    1    4    4    0    0 -0.83628609190E+02  0.12009673706E+02  0.98544739684E+02  0.12980386072E+03  0.00000000000E+00 0. -1.
        -12    1    4    4    0    0 -0.13370935280E+02  0.56224671391E+02  0.41646845858E+02  0.71235211470E+02  0.00000000000E+00 0.  1.
        -11    1    3    3    0    0 -0.88138290565E+01  0.43266148167E+02  0.17759148338E+02  0.47592336669E+02  0.00000000000E+00 0. -1.
         11    1    3    3    0    0  0.25714575664E+01 -0.47171320795E+02  0.22983490976E+02  0.52535576108E+02  0.00000000000E+00 0.  1.
          2    1    1    2  501    0  0.10324191596E+03 -0.64329172470E+02  0.40896217748E+01  0.12171220419E+03  0.00000000000E+00 0. -1.
<scales pt_clust_5="13000.00000" pt_clust_6="13000.00000" pt_clust_7="13000.00000" pt_clust_8="13000.00000" pt_clust_9="120.78580"></scales>
<clustering>
<clus scale="   81.842">  5  6 -1 -1</clus>
<clus scale="   91.167">  7  8 -1 -1</clus>
<clus scale="   91.464">  1  7  2 -1</clus>
<clus scale="  120.786">  2  9  1 -1</clus>
<clus scale="  120.786">  2  5  1 -1</clus>
</clustering>
</event>
<event>
 9    1  0.5981539E-005  0.1436897E+03  0.7546771E-02  0.1210576E+00
          1   -1    0    0  502    0 -0.00000000000E+00  0.00000000000E+00  0.72062231379E+03  0.72062231379E+03  0.00000000000E+00 0. -1.
         21   -1    0    0  501  502  0.00000000000E+00 -0.00000000000E+00 -0.63380510442E+02  0.63380510442E+02  0.00000000000E+00 0.  1.
         23    2    1    2    0    0 -0.10431500471E+03 -0.50713470770E+02  0.46626329741E+03  0.48897776388E+03  0.90798208855E+02 0.  0.
        -24    2    1    2    0    0  0.47888333231E+02  0.10846281298E+03  0.10905432785E+03  0.18000103358E+03  0.80312212073E+02 0.  0.
         13    1    4    4    0    0  0.49670041866E+02  0.25477879295E+02  0.66174424906E+02  0.86575342356E+02  0.00000000000E+00 0. -1.
        -14    1    4    4    0    0 -0.17817086348E+01  0.82984933684E+02  0.42879902941E+02  0.93425691223E+02  0.00000000000E+00 0.  1.
        -13    1    3    3    0    0 -0.82293335552E+02  0.42182404115E+01  0.33507447215E+03  0.34505780460E+03  0.00000000000E+00 0. -1.
         13    1    3    3    0    0 -0.22021669159E+02 -0.54931711182E+02  0.13118882526E+03  0.14391995928E+03  0.00000000000E+00 0.  1.
          2    1    1    2  501    0  0.56426671480E+02 -0.57749342209E+02  0.81924178093E+02  0.11502402678E+03  0.00000000000E+00 0. -1.
<scales pt_clust_5="13000.00000" pt_clust_6="13000.00000" pt_clust_7="13000.00000" pt_clust_8="13000.00000" pt_clust_9="80.74005"></scales>
<clustering>
<clus scale="   80.312">  5  6 -1 -1</clus>
<clus scale="   80.740">  2  9  1 -1</clus>
<clus scale="   90.798">  7  8 -1 -1</clus>
<clus scale="  137.304">  2  5  1 -1</clus>
<clus scale="   80.740">  2  5  1 -1</clus>
</clustering>
</event>
<event>
 9    1  0.5981539E-005  0.1045119E+03  0.7546771E-02  0.1275330E+00
          1   -1    0    0  502    0 -0.00000000000E+00  0.00000000000E+00  0.15942834841E+03  0.15942834841E+03  0.00000000000E+00 0. -1.
         21   -1    0    0  501  502  0.00000000000E+00 -0.00000000000E+00 -0.35695952973E+03  0.35695952973E+03  0.00000000000E+00 0. -1.
         23    2    1    2    0    0 -0.39173687102E+02  0.15754905808E+02 -0.13007719542E+03  0.16461935050E+03  0.91633285282E+02 0.  0.
        -24    2    1    2    0    0 -0.35911861147E+01 -0.85649819304E+02 -0.17811964880E+03  0.21406949983E+03  0.82160533725E+02 0.  0.
         11    1    4    4    0    0  0.31483870441E+02 -0.22765299903E+02 -0.10266780756E+03  0.10977327401E+03  0.00000000000E+00 0. -1.
        -12    1    4    4    0    0 -0.35075056556E+02 -0.62884519401E+02 -0.75451841239E+02  0.10429622581E+03  0.00000000000E+00 0.  1.
        -13    1    3    3    0    0 -0.53126693543E+02 -0.20534154193E+02 -0.10142390909E+03  0.11632242428E+03  0.00000000000E+00 0. -1.
         13    1    3    3    0    0  0.13953006441E+02  0.36289060001E+02 -0.28653286330E+02  0.48296926217E+02  0.00000000000E+00 0.  1.
          2    1    1    2  501    0  0.42764873217E+02  0.69894913495E+02  0.11066566291E+03  0.13769902781E+03  0.00000000000E+00 0. -1.
<scales pt_clust_5="13000.00000" pt_clust_6="13000.00000" pt_clust_7="13000.00000" pt_clust_8="13000.00000" pt_clust_9="81.93986"></scales>
<clustering>
<clus scale="   81.940">  2  9  1 -1</clus>
<clus scale="   82.161">  5  6 -1 -1</clus>
<clus scale="   91.633">  7  8 -1 -1</clus>
<clus scale="   96.314">  2  5  1 -1</clus>
<clus scale="   81.940">  2  5  1 -1</clus>
</clustering>
</event>
<event>
 9    1  0.5981539E-005  0.1396515E+03  0.7546771E-02  0.1226607E+00
          1   -1    0    0  502    0 -0.00000000000E+00  0.00000000000E+00  0.65762183245E+03  0.65762183245E+03  0.00000000000E+00 0. -1.
         21   -1    0    0  501  502  0.00000000000E+00 -0.00000000000E+00 -0.63219502375E+02  0.63219502375E+02  0.00000000000E+00 0. -1.
        -24    2    1    2    0    0  0.28752696995E+02  0.64669206778E+02  0.26069810023E+03  0.28169941467E+03  0.79888903338E+02 0.  0.
         23    2    1    2    0    0  0.82238674054E+02  0.24267151099E+02  0.89465902251E+02  0.15650943641E+03  0.95597917791E+02 0.  0.
         11    1    3    3    0    0  0.37425064852E+02  0.69611750203E+02  0.25993904283E+03  0.27168867705E+03  0.00000000000E+00 0. -1.
        -12    1    3    3    0    0 -0.86723678566E+01 -0.49425434252E+01  0.75905739271E+00  0.10010737629E+02  0.00000000000E+00 0.  1.
        -11    1    4    4    0    0  0.56254756764E+01  0.31821303944E+02 -0.70261233643E+01  0.33069741016E+02  0.00000000000E+00 0.  1.
         11    1    4    4    0    0  0.76613198378E+02 -0.75541528451E+01  0.96492025616E+02  0.12343969539E+03  0.00000000000E+00 0. -1.
          2    1    1    2  501    0 -0.11099137105E+03 -0.88936357877E+02  0.24423832760E+03  0.28263248375E+03  0.00000000000E+00 0. -1.
<scales pt_clust_5="13000.00000" pt_clust_6="13000.00000" pt_clust_7="13000.00000" pt_clust_8="13000.00000" pt_clust_9="101.80176"></scales>
<clustering>
<clus scale="   79.889">  5  6 -1 -1</clus>
<clus scale="   95.598">  7  8 -1 -1</clus>
<clus scale="  106.729">  1  5  2 -1</clus>
<clus scale="  101.802">  2  9  1 -1</clus>
<clus scale="  101.802">  2  5  1 -1</clus>
</clustering>
</event>
<event>
 9    1  0.5981539E-005  0.9401866E+02  0.7546771E-02  0.1300140E+00
         -2   -1    0    0    0  501 -0.00000000000E+00  0.00000000000E+00  0.26957748466E+03  0.26957748466E+03  0.00000000000E+00 0.  1.
         21   -1    0    0  501  502  0.00000000000E+00 -0.00000000000E+00 -0.45772644251E+02  0.45772644251E+02  0.00000000000E+00 0. -1.
        -24    2    1    2    0    0  0.18498879112E+02  0.15888055078E+02  0.15358634103E+03  0.17501375786E+03  0.80289553916E+02 0.  0.
         23    2    1    2    0    0 -0.17282780107E+02  0.57975608265E+01  0.36695835195E+02  0.10039248731E+03  0.91650209972E+02 0.  0.
         13    1    3    3    0    0  0.22568849157E+02  0.39088843979E+02  0.44394189568E+02  0.63309831332E+02  0.00000000000E+00 0. -1.
        -14    1    3    3    0    0 -0.40699700459E+01 -0.23200788901E+02  0.10919215146E+03  0.11170392653E+03  0.00000000000E+00 0.  1.
        -11    1    4    4    0    0  0.11445103244E+02 -0.34399508277E+02  0.35838521352E+02  0.50977604599E+02  0.00000000000E+00 0.  1.
         11    1    4    4    0    0 -0.28727883351E+02  0.40197069103E+02  0.85731384236E+00  0.49414882711E+02  0.00000000000E+00 0. -1.
         -1    1    1    2    0  502 -0.12160990048E+01 -0.21685615904E+02  0.33522664189E+02  0.39943883741E+02  0.00000000000E+00 0.  1.
<scales pt_clust_5="13000.00000" pt_clust_6="13000.00000" pt_clust_7="13000.00000" pt_clust_8="13000.00000" pt_clust_9="21.71970"></scales>
<clustering>
<clus scale="   21.720">  2  9  1 -1</clus>
<clus scale="   80.290">  5  6 -1 -1</clus>
<clus scale="   82.983">  1  5  2 -1</clus>
<clus scale="   91.650">  7  8 -1 -1</clus>
<clus scale="   21.720">  2  5  1 -1</clus>
</clustering>
</event>
<event>
 9    1  0.5981539E-005  0.3033679E+03  0.7546771E-02  0.1114780E+00
         21   -1    0    0  501  502  0.00000000000E+00  0.00000000000E+00  0.32391774075E+03  0.32391774075E+03  0.00000000000E+00 0.  1.
         -2   -1    0    0    0  501 -0.00000000000E+00 -0.00000000000E+00 -0.43107910240E+03  0.43107910240E+03  0.00000000000E+00 0.  1.
        -24    2    1    2    0    0  0.21678098371E+01  0.10841406666E+03  0.23656985463E+02  0.13684988097E+03  0.80062024144E+02 0.  0.
         23    2    1    2    0    0 -0.28341470850E+03  0.19278114268E+01 -0.10005022757E+03  0.31446649649E+03  0.92474406883E+02 0.  0.
         13    1    3    3    0    0 -0.26400106833E+02  0.47280408741E+02  0.40116286723E+02  0.67392278133E+02  0.00000000000E+00 0. -1.
        -14    1    3    3    0    0  0.28567916670E+02  0.61133657918E+02 -0.16459301260E+02  0.69457602833E+02  0.00000000000E+00 0.  1.
        -11    1    4    4    0    0 -0.25876662340E+03  0.30068628314E+02 -0.83527301646E+02  0.27357101073E+03  0.00000000000E+00 0.  1.
         11    1    4    4    0    0 -0.24648085097E+02 -0.28140816887E+02 -0.16522925923E+02  0.40895485754E+02  0.00000000000E+00 0. -1.
         -1    1    1    2    0  502  0.28124689866E+03 -0.11034187809E+03 -0.30768119546E+02  0.30368046570E+03  0.00000000000E+00 0.  1.
<scales pt_clust_5="13000.00000" pt_clust_6="13000.00000" pt_clust_7="13000.00000" pt_clust_8="13000.00000" pt_clust_9="288.93005"></scales>
<clustering>
<clus scale="   80.062">  5  6 -1 -1</clus>
<clus scale="   92.474">  7  8 -1 -1</clus>
<clus scale="  134.790">  2  5  1 -1</clus>
<clus scale="  288.930">  1  9  2 -1</clus>
<clus scale="  288.930">  1  5  2 -1</clus>
</clustering>
</event>
<event>
 9    1  0.5981539E-005  0.1262472E+03  0.7546771E-02  0.1245784E+00
         -2   -1    0    0    0  501 -0.00000000000E+00  0.00000000000E+00  0.61815105946E+03  0.61815105946E+03  0.00000000000E+00 0.  1.
         21   -1    0    0  501  502  0.00000000000E+00 -0.00000000000E+00 -0.25593568398E+02  0.25593568398E+02  0.00000000000E+00 0.  1.
         23    2    1    2    0    0 -0.43362821065E+02 -0.47378339761E+02  0.38534539920E+03  0.40691917305E+03  0.11387315482E+03 0.  0.
        -24    2    1    2    0    0  0.27534268217E+02  0.32978163141E+02  0.15064228729E+03  0.17634363140E+03  0.80983223240E+02 0.  0.
         13    1    4    4    0    0  0.36219664880E+02  0.40135610094E+02  0.15508959300E+03  0.16424223933E+03  0.00000000000E+00 0. -1.
        -14    1    4    4    0    0 -0.86853966628E+01 -0.71574469528E+01 -0.44473057130E+01  0.12101392076E+02  0.00000000000E+00 0.  1.
        -11    1    3    3    0    0  0.18136203348E+02 -0.62486377392E+02  0.23354029801E+03  0.24243460979E+03  0.00000000000E+00 0.  1.
         11    1    3    3    0    0 -0.61499024413E+02  0.15108037631E+02  0.15180510119E+03  0.16448456326E+03  0.00000000000E+00 0. -1.
         -1    1    1    2    0  502  0.15828552848E+02  0.14400176620E+02  0.56569804574E+02  0.60481823397E+02  0.00000000000E+00 0.  1.
<scales pt_clust_5="13000.00000" pt_clust_6="13000.00000" pt_clust_7="13000.00000" pt_clust_8="13000.00000" pt_clust_9="21.39880"></scales>
<clustering>
<clus scale="   21.399">  2  9  1 -1</clus>
<clus scale="   80.983">  5  6 -1 -1</clus>
<clus scale="   97.619">  2  5  1 -1</clus>
<clus scale="  113.873">  7  8 -1 -1</clus>
<clus scale="   21.399">  2  5  1 -1</clus>
</clustering>
</event>
<event>
 9    1  0.5981539E-005  0.3093086E+03  0.7546771E-02  0.1095728E+00
         21   -1    0    0  501  502  0.00000000000E+00  0.00000000000E+00  0.18993095610E+03  0.18993095610E+03  0.00000000000E+00 0. -1.
          1   -1    0    0  502    0 -0.00000000000E+00 -0.00000000000E+00 -0.11427139932E+04  0.11427139932E+04  0.00000000000E+00 0. -1.
        -24    2    1    2    0    0  0.14301661128E+03 -0.12599902189E+03 -0.50424663427E+03  0.54527086948E+03  0.82013098412E+02 0.  0.
         23    2    1    2    0    0  0.20733548800E+03  0.93631602949E+02 -0.34021285479E+03  0.41923248434E+03  0.90863676492E+02 0.  0.
         11    1    3    3    0    0  0.14540522785E+03 -0.12593050938E+03 -0.50661650058E+03  0.54190539040E+03  0.00000000000E+00 0. -1.
        -12    1    3    3    0    0 -0.23886165728E+01 -0.68512506600E-01  0.23698663135E+01  0.33654790802E+01  0.00000000000E+00 0.  1.
        -13    1    4    4    0    0  0.24979021754E+02 -0.27220154801E+01 -0.49505563998E+01  0.25609937617E+02  0.00000000000E+00 0. -1.
         13    1    4    4    0    0  0.18235646624E+03  0.96353618429E+02 -0.33526229839E+03  0.39362254672E+03  0.00000000000E+00 0.  1.
          2    1    1    2  501    0 -0.35035209928E+03  0.32367418942E+02 -0.10832354807E+03  0.36814159551E+03  0.00000000000E+00 0. -1.
<scales pt_clust_5="13000.00000" pt_clust_6="13000.00000" pt_clust_7="13000.00000" pt_clust_8="13000.00000" pt_clust_9="295.66125"></scales>
<clustering>
<clus scale="   82.013">  5  6 -1 -1</clus>
<clus scale="   90.864">  7  8 -1 -1</clus>
<clus scale="  207.499">  2  5  1 -1</clus>
<clus scale="  295.661">  1  9  2 -1</clus>
<clus scale="  295.661">  1  5  2 -1</clus>
</clustering>
</event>
<event>
 9    1  0.5981539E-005  0.9469470E+02  0.7546771E-02  0.1296574E+00
         21   -1    0    0  501  502  0.00000000000E+00  0.00000000000E+00  0.81340277867E+02  0.81340277867E+02  0.00000000000E+00 0.  1.
          1   -1    0    0  502    0 -0.00000000000E+00 -0.00000000000E+00 -0.38774620642E+03  0.38774620642E+03  0.00000000000E+00 0. -1.
        -24    2    1    2    0    0 -0.28064518160E+02 -0.36017275890E+02 -0.25066838001E+03  0.26754656446E+03  0.81619030093E+02 0.  0.
         23    2    1    2    0    0 -0.13703786812E+02 -0.45707159640E+02 -0.30704833439E+02  0.10640784591E+03  0.90016135553E+02 0.  0.
         13    1    3    3    0    0  0.14780630901E+02  0.17070989061E+02 -0.93912356978E+02  0.96588904697E+02  0.00000000000E+00 0. -1.
        -14    1    3    3    0    0 -0.42845149061E+02 -0.53088264951E+02 -0.15675602303E+03  0.17095765976E+03  0.00000000000E+00 0.  1.
        -11    1    4    4    0    0  0.17436330621E+02 -0.62328598123E+02 -0.29397780602E+02  0.71085225425E+02  0.00000000000E+00 0.  1.
         11    1    4    4    0    0 -0.31140117433E+02  0.16621438483E+02 -0.13070528371E+01  0.35322620487E+02  0.00000000000E+00 0. -1.
          2    1    1    2  501    0  0.41768304972E+02  0.81724435530E+02 -0.25032715107E+02  0.95132073921E+02  0.00000000000E+00 0. -1.
<scales pt_clust_5="13000.00000" pt_clust_6="13000.00000" pt_clust_7="13000.00000" pt_clust_8="13000.00000" pt_clust_9="91.77949"></scales>
<clustering>
<clus scale="   81.619">  5  6 -1 -1</clus>
<clus scale="   90.016">  7  8 -1 -1</clus>
<clus scale="   91.779">  1  9  2 -1</clus>
<clus scale="   86.752">  2  5  1 -1</clus>
<clus scale="   91.779">  1  5  2 -1</clus>
</clustering>
</event>
<event>
 9    1  0.5981539E-005  0.1256338E+03  0.7546771E-02  0.1238441E+00
         -2   -1    0    0    0  501 -0.00000000000E+00  0.00000000000E+00  0.13757622092E+04  0.13757622092E+04  0.00000000000E+00 0.  1.
         21   -1    0    0  501  502  0.00000000000E+00 -0.00000000000E+00 -0.31805585448E+02  0.31805585448E+02  0.00000000000E+00 0.  1.
        -24    2    1    2    0    0 -0.61048956304E+02  0.42678475575E+02  0.67556697315E+03  0.68416983117E+03  0.78416805124E+02 0.  0.
         23    2    1    2    0    0  0.14601899539E+03  0.15010322859E+02  0.42226077473E+03  0.45670089086E+03  0.93406022437E+02 0.  0.
         11    1    3    3    0    0 -0.38346009852E+02 -0.18643970902E+02  0.25059106375E+03  0.25419263434E+03  0.00000000000E+00 0. -1.
        -12    1    3    3    0    0 -0.22702946452E+02  0.61322446477E+02  0.42497590940E+03  0.42997719682E+03  0.00000000000E+00 0.  1.
        -11    1    4    4    0    0  0.13914270266E+03 -0.38974496974E+01  0.41035908129E+03  0.43332488668E+03  0.00000000000E+00 0.  1.
         11    1    4    4    0    0  0.68762927272E+01  0.18907772556E+02  0.11901693445E+02  0.23376004183E+02  0.00000000000E+00 0. -1.
         -1    1    1    2    0  502 -0.84970039084E+02 -0.57688798434E+02  0.24612887584E+03  0.26669707259E+03  0.00000000000E+00 0.  1.
<scales pt_clust_5="13000.00000" pt_clust_6="13000.00000" pt_clust_7="13000.00000" pt_clust_8="13000.00000" pt_clust_9="102.70299"></scales>
<clustering>
<clus scale="   78.417">  5  6 -1 -1</clus>
<clus scale="   93.406">  7  8 -1 -1</clus>
<clus scale="  102.703">  2  9  1 -1</clus>
<clus scale="  114.928">  1  5  2 -1</clus>
<clus scale="  102.703">  2  5  1 -1</clus>
</clustering>
</event>
<event>
 9    1  0.5981539E-005  0.1860895E+03  0.7546771E-02  0.1163699E+00
         21   -1    0    0  501  502  0.00000000000E+00  0.00000000000E+00  0.17800592988E+03  0.17800592988E+03  0.00000000000E+00 0.  1.
         -2   -1    0    0    0  501 -0.00000000000E+00 -0.00000000000E+00 -0.39828419247E+03  0.39828419247E+03  0.00000000000E+00 0.  1.
         23    2    1    2    0    0 -0.17517103712E+03  0.48524329334E+02 -0.26309480770E+03  0.32563098434E+03  0.61458582325E+02 0.  0.
        -24    2    1    2    0    0  0.98745190434E+02 -0.89305026652E+02  0.51809890746E+02  0.16356806164E+03  0.79650772698E+02 0.  0.
         11    1    4    4    0    0  0.72700830169E+02 -0.26158362603E+02  0.55548058518E+02  0.95159116465E+02  0.00000000000E+00 0. -1.
        -12    1    4    4    0    0  0.26044360265E+02 -0.63146664049E+02 -0.37381677715E+01  0.68408945178E+02  0.00000000000E+00 0.  1.
        -11    1    3    3    0    0 -0.60325945999E+02 -0.83853463287E+01 -0.60155515375E+02  0.85605022188E+02  0.00000000000E+00 0. -1.
         11    1    3    3    0    0 -0.11484509113E+03  0.56909675662E+02 -0.20293929232E+03  0.24002596215E+03  0.00000000000E+00 0.  1.
         -1    1    1    2    0  502  0.76425846691E+02  0.40780697318E+02 -0.89933456420E+01  0.87091076362E+02  0.00000000000E+00 0.  1.
<scales pt_clust_5="13000.00000" pt_clust_6="13000.00000" pt_clust_7="13000.00000" pt_clust_8="13000.00000" pt_clust_9="86.62549"></scales>
<clustering>
<clus scale="   61.459">  7  8 -1 -1</clus>
<clus scale="   79.651">  5  6 -1 -1</clus>
<clus scale="   86.625">  1  9  2 -1</clus>
<clus scale="  179.059">  2  7  1 -1</clus>
<clus scale="   86.625">  1  5  2 -1</clus>
</clustering>
</event>
<event>
 9    1  0.5981539E-005  0.1558407E+03  0.7546771E-02  0.1195321E+00
         21   -1    0    0  501  502  0.00000000000E+00  0.00000000000E+00  0.23597026080E+02  0.23597026080E+02  0.00000000000E+00 0. -1.
          1   -1    0    0  502    0 -0.00000000000E+00 -0.00000000000E+00 -0.12405488501E+04  0.12405488501E+04  0.00000000000E+00 0. -1.
         23    2    1    2    0    0  0.37827212458E+02 -0.10615149551E+03 -0.54254687423E+03  0.56152039782E+03  0.90824052021E+02 0.  0.
        -24    2    1    2    0    0 -0.44308233257E+02  0.13527458729E+03 -0.61319610386E+03  0.63453230010E+03  0.79745498802E+02 0.  0.
         13    1    4    4    0    0 -0.54706449738E+02  0.51995214656E+02 -0.35872672299E+03  0.36658035924E+03  0.00000000000E+00 0. -1.
        -14    1    4    4    0    0  0.10398216481E+02  0.83279372633E+02 -0.25446938087E+03  0.26795194086E+03  0.00000000000E+00 0.  1.
        -11    1    3    3    0    0  0.81284409536E+01 -0.10382254470E+03 -0.49154590844E+03  0.50245653786E+03  0.00000000000E+00 0.  1.
         11    1    3    3    0    0  0.29698771504E+02 -0.23289508125E+01 -0.51000965791E+02  0.59063859951E+02  0.00000000000E+00 0. -1.
          2    1    1    2  501    0  0.64810207987E+01 -0.29123091780E+02 -0.61208845883E+02  0.68093178218E+02  0.00000000000E+00 0. -1.
<scales pt_clust_5="13000.00000" pt_clust_6="13000.00000" pt_clust_7="13000.00000" pt_clust_8="13000.00000" pt_clust_9="29.83552"></scales>
<clustering>
<clus scale="   29.836">  1  9  2 -1</clus>
<clus scale="   79.745">  5  6 -1 -1</clus>
<clus scale="   90.824">  7  8 -1 -1</clus>
<clus scale="  149.655">  1  5  2 -1</clus>
<clus scale="   29.836">  1  5  2 -1</clus>
</clustering>
</event>
<event>
 9    1  0.5981539E-005  0.1157451E+03  0.7546771E-02  0.1254200E+00
          1   -1    0    0  502    0 -0.00000000000E+00  0.00000000000E+00  0.32158851998E+03  0.32158851998E+03  0.00000000000E+00 0. -1.
         21   -1    0    0  501  502  0.00000000000E+00 -0.00000000000E+00 -0.22963092731E+03  0.22963092731E+03  0.00000000000E+00 0.  1.
        -24    2    1    2    0    0  0.68017648526E+02 -0.15181753216E+01  0.27256549002E+03  0.29239493557E+03  0.81081111435E+02 0.  0.
         23    2    1    2    0    0 -0.93662363684E+02 -0.21762288742E+02 -0.87296772388E+02  0.15929262003E+03  0.92234357726E+02 0.  0.
         13    1    3    3    0    0  0.65879042707E+02  0.30617957105E+02  0.20629911789E+03  0.21871633137E+03  0.00000000000E+00 0. -1.
        -14    1    3    3    0    0  0.21386058185E+01 -0.32136132426E+02  0.66266372127E+02  0.73678604201E+02  0.00000000000E+00 0.  1.
        -13    1    4    4    0    0 -0.50074902705E+02 -0.56486589087E+02 -0.63709270541E+02  0.98778043008E+02  0.00000000000E+00 0. -1.
         13    1    4    4    0    0 -0.43587460979E+02  0.34724300345E+02 -0.23587501846E+02  0.60514577024E+02  0.00000000000E+00 0.  1.
          2    1    1    2  501    0  0.25644715159E+02  0.23280464064E+02 -0.93311124958E+02  0.99531891690E+02  0.00000000000E+00 0. -1.
<scales pt_clust_5="13000.00000" pt_clust_6="13000.00000" pt_clust_7="13000.00000" pt_clust_8="13000.00000" pt_clust_9="34.63570"></scales>
<clustering>
<clus scale="   34.636">  2  9  1 -1</clus>
<clus scale="   81.081">  5  6 -1 -1</clus>
<clus scale="   92.234">  7  8 -1 -1</clus>
<clus scale="  107.070">  1  5  2 -1</clus>
<clus scale="   34.636">  2  5  1 -1</clus>
</clustering>
</event>
<event>
 9    1  0.5981539E-005  0.2074174E+03  0.7546771E-02  0.1164707E+00
          1   -1    0    0  502    0 -0.00000000000E+00  0.00000000000E+00  0.10244339833E+04  0.10244339833E+04  0.00000000000E+00 0. -1.
         21   -1    0    0  501  502  0.00000000000E+00 -0.00000000000E+00 -0.10066801297E+03  0.10066801297E+03  0.00000000000E+00 0. -1.
        -24    2    1    2    0    0 -0.89994655597E+02  0.30032388335E+02  0.14221646898E+03  0.19022384760E+03  0.83418257957E+02 0.  0.
         23    2    1    2    0    0  0.62166248444E+02  0.16052487323E+03  0.69829617020E+03  0.72507441345E+03  0.92100414495E+02 0.  0.
         11    1    3    3    0    0 -0.57493453553E+02 -0.17975123009E+02  0.10584157359E+03  0.12178276129E+03  0.00000000000E+00 0. -1.
        -12    1    3    3    0    0 -0.32501202044E+02  0.48007511345E+02  0.36374895394E+02  0.68441086306E+02  0.00000000000E+00 0.  1.
        -13    1    4    4    0    0 -0.56782998407E-01  0.11867175021E+03  0.38191154004E+03  0.39992425775E+03  0.00000000000E+00 0.  1.
         13    1    4    4    0    0  0.62223031443E+02  0.41853123022E+02  0.31638463016E+03  0.32515015570E+03  0.00000000000E+00 0. -1.
          2    1    1    2  501    0  0.27828407153E+02 -0.19055726157E+03  0.83253331196E+02  0.20980373528E+03  0.00000000000E+00 0. -1.
<scales pt_clust_5="13000.00000" pt_clust_6="13000.00000" pt_clust_7="13000.00000" pt_clust_8="13000.00000" pt_clust_9="185.84799"></scales>
<clustering>
<clus scale="   83.418">  5  6 -1 -1</clus>
<clus scale="   92.100">  7  8 -1 -1</clus>
<clus scale="  126.331">  1  5  2 -1</clus>
<clus scale="  185.848">  2  9  1 -1</clus>
<clus scale="  185.848">  2  5  1 -1</clus>
</clustering>
</event>
<event>
 9    1  0.5981539E-005  0.1337368E+03  0.7546771E-02  0.1235089E+00
          1   -1    0    0  502    0 -0.00000000000E+00  0.00000000000E+00  0.11261641928E+04  0.11261641928E+04  0.00000000000E+00 0. -1.
         21   -1    0    0  501  502  0.00000000000E+00 -0.00000000000E+00 -0.42324229554E+02  0.42324229554E+02  0.00000000000E+00 0. -1.
         23    2    1    2    0    0  0.24364241431E+02 -0.36632678778E+02  0.10679387337E+03  0.14769724017E+03  0.92054190290E+02 0.  0.
        -24    2    1    2    0    0  0.86791180233E+02  0.22476954653E+02  0.81469368720E+03  0.82352431992E+03  0.80178420232E+02 0.  0.
         11    1    4    4    0    0  0.30766629435E+02  0.36902802993E+02  0.18352465234E+03  0.18970951576E+03  0.00000000000E+00 0. -1.
        -12    1    4    4    0    0  0.56024550797E+02 -0.14425848340E+02  0.63116903487E+03  0.63381480415E+03  0.00000000000E+00 0.  1.
        -11    1    3    3    0    0 -0.41274663926E+01  0.28283467447E+02  0.46738878648E+02  0.54786068366E+02  0.00000000000E+00 0.  1.
         11    1    3    3    0    0  0.28491707824E+02 -0.64916146225E+02  0.60054994726E+02  0.92911171809E+02  0.00000000000E+00 0. -1.
          2    1    1    2  501    0 -0.11115542166E+03  0.14155724125E+02  0.16235240262E+03  0.19726686222E+03  0.00000000000E+00 0. -1.
<scales pt_clust_5="13000.00000" pt_clust_6="13000.00000" pt_clust_7="13000.00000" pt_clust_8="13000.00000" pt_clust_9="107.03719"></scales>
<clustering>
<clus scale="   80.178">  5  6 -1 -1</clus>
<clus scale="   92.054">  7  8 -1 -1</clus>
<clus scale="  102.027">  1  7  2 -1</clus>
<clus scale="  107.037">  2  9  1 -1</clus>
<clus scale="  107.037">  2  5  1 -1</clus>
</clustering>
</event>
<event>
 9    1  0.5981539E-005  0.9329089E+02  0.7546771E-02  0.1299084E+00
         -2   -1    0    0    0  501 -0.00000000000E+00  0.00000000000E+00  0.23207873601E+03  0.23207873601E+03  0.00000000000E+00 0.  1.
         21   -1    0    0  501  502  0.00000000000E+00 -0.00000000000E+00 -0.83779360630E+02  0.83779360630E+02  0.00000000000E+00 0. -1.
        -24    2    1    2    0    0  0.10640457391E+02 -0.30302966438E+02  0.13475821784E+03  0.16114760343E+03  0.82324259520E+02 0.  0.
         23    2    1    2    0    0 -0.47733833238E+00  0.71882638499E+00 -0.35842988159E+02  0.96252780481E+02  0.89325995023E+02 0.  0.
         13    1    3    3    0    0  0.17672630736E+02 -0.55240689468E+02  0.67067218133E+02  0.88667172043E+02  0.00000000000E+00 0. -1.
        -14    1    3    3    0    0 -0.70321733452E+01  0.24937723029E+02  0.67690999708E+02  0.72480431382E+02  0.00000000000E+00 0.  1.
        -13    1    4    4    0    0 -0.26913685454E+01 -0.27010331047E+02  0.20099648413E+02  0.33775691173E+02  0.00000000000E+00 0.  1.
         13    1    4    4    0    0  0.22140302130E+01  0.27729157432E+02 -0.55942636572E+02  0.62477089307E+02  0.00000000000E+00 0. -1.
         -1    1    1    2    0  502 -0.10163119058E+02  0.29584140054E+02  0.49384145697E+02  0.58457712733E+02  0.00000000000E+00 0.  1.
<scales pt_clust_5="13000.00000" pt_clust_6="13000.00000" pt_clust_7="13000.00000" pt_clust_8="13000.00000" pt_clust_9="31.28117"></scales>
<clustering>
<clus scale="   31.281">  2  9  1 -1</clus>
<clus scale="   82.324">  5  6 -1 -1</clus>
<clus scale="   86.610">  1  5  2 -1</clus>
<clus scale="   89.326">  7  8 -1 -1</clus>
<clus scale="   31.281">  2  5  1 -1</clus>
</clustering>
</event>
<event>
 9    1  0.5981539E-005  0.1566656E+03  0.7546771E-02  0.1219289E+00
          1   -1    0    0  502    0 -0.00000000000E+00  0.00000000000E+00  0.88551562012E+03  0.88551562012E+03  0.00000000000E+00 0. -1.
         21   -1    0    0  501  502  0.00000000000E+00 -0.00000000000E+00 -0.50065285730E+02  0.50065285730E+02  0.00000000000E+00 0.  1.
        -24    2    1    2    0    0  0.25521330769E+02 -0.26700373656E+02  0.26107466991E+03  0.27553389139E+03  0.79966829092E+02 0.  0.
         23    2    1    2    0    0 -0.10302293707E+03 -0.67306877921E+02  0.14718318827E+03  0.21582041231E+03  0.98851495099E+02 0.  0.
         13    1    3    3    0    0 -0.19152471644E+02 -0.36140457998E+02  0.14907651116E+03  0.15458575631E+03  0.00000000000E+00 0. -1.
        -14    1    3    3    0    0  0.44673802413E+02  0.94400843421E+01  0.11199815875E+03  0.12094813507E+03  0.00000000000E+00 0.  1.
        -11    1    4    4    0    0 -0.77989331768E+02 -0.40370741048E+02  0.15507119912E+03  0.17821113713E+03  0.00000000000E+00 0. -1.
         11    1    4    4    0    0 -0.25033605306E+02 -0.26936136873E+02 -0.78880108517E+01  0.37609275178E+02  0.00000000000E+00 0.  1.
          2    1    1    2  501    0  0.77501606305E+02  0.94007251577E+02  0.42719247621E+03  0.44422660216E+03  0.00000000000E+00 0. -1.
<scales pt_clust_5="13000.00000" pt_clust_6="13000.00000" pt_clust_7="13000.00000" pt_clust_8="13000.00000" pt_clust_9="121.54220"></scales>
<clustering>
<clus scale="   79.967">  5  6 -1 -1</clus>
<clus scale="   88.085">  1  5  2 -1</clus>
<clus scale="   98.851">  7  8 -1 -1</clus>
<clus scale="  121.542">  2  9  1 -1</clus>
<clus scale="  121.542">  2  5  1 -1</clus>
</clustering>
</event>
<event>
 9    1  0.5981539E-005  0.1725550E+03  0.7546771E-02  0.1202901E+00
         21   -1    0    0  501  502  0.00000000000E+00  0.00000000000E+00  0.13113344354E+03  0.13113344354E+03  0.00000000000E+00 0.  1.
         -4   -1    0    0    0  501 -0.00000000000E+00 -0.00000000000E+00 -0.41024807547E+03  0.41024807547E+03  0.00000000000E+00 0.  1.
        -24    2    1    2    0    0 -0.50596540511E+02  0.22442204727E+02 -0.14460257218E+02  0.94597694030E+02  0.75338982023E+02 0.  0.
         23    2    1    2    0    0  0.81628258583E+02  0.12339877664E+03 -0.23926888020E+03  0.29553243588E+03  0.90550499463E+02 0.  0.
         11    1    3    3    0    0 -0.98508835535E+01 -0.24673493467E+02 -0.18186667800E+02  0.32195901483E+02  0.00000000000E+00 0. -1.
        -12    1    3    3    0    0 -0.40745656957E+02  0.47115698194E+02  0.37264105815E+01  0.62401792547E+02  0.00000000000E+00 0.  1.
        -13    1    4    4    0    0  0.30076991167E+02  0.48467288263E+02 -0.24086920238E+02  0.61918358794E+02  0.00000000000E+00 0. -1.
         13    1    4    4    0    0  0.51551267416E+02  0.74931488376E+02 -0.21518195996E+03  0.23361407709E+03  0.00000000000E+00 0.  1.
         -3    1    1    2    0  502 -0.31031718072E+02 -0.14584098137E+03 -0.25385494521E+02  0.15125138910E+03  0.00000000000E+00 0.  1.
<scales pt_clust_5="13000.00000" pt_clust_6="13000.00000" pt_clust_7="13000.00000" pt_clust_8="13000.00000" pt_clust_9="146.88710"></scales>
<clustering>
<clus scale="   75.339">  5  6 -1 -1</clus>
<clus scale="   90.550">  7  8 -1 -1</clus>
<clus scale="   93.486">  2  5  1 -1</clus>
<clus scale="  146.887">  1  9  2 -1</clus>
<clus scale="  146.887">  1  5  2 -1</clus>
</clustering>
</event>
<event>
 9    1  0.5981539E-005  0.1300941E+03  0.7546771E-02  0.1229828E+00
         21   -1    0    0  501  502  0.00000000000E+00  0.00000000000E+00  0.15298643019E+03  0.15298643019E+03  0.00000000000E+00 0. -1.
          1   -1    0    0  502    0 -0.00000000000E+00 -0.00000000000E+00 -0.76564483534E+03  0.76564483534E+03  0.00000000000E+00 0. -1.
        -24    2    1    2    0    0 -0.48361349107E+02 -0.82598748933E+02 -0.66751419086E+03  0.67917551223E+03  0.80887625733E+02 0.  0.
         23    2    1    2    0    0  0.53295217079E+02  0.57903771842E+02 -0.51167450803E+02  0.13048276754E+03  0.90633424546E+02 0.  0.
         13    1    3    3    0    0 -0.44536089303E+02 -0.98643069956E+02 -0.59937839196E+03  0.60907173243E+03  0.00000000000E+00 0. -1.
        -14    1    3    3    0    0 -0.38252598043E+01  0.16044321023E+02 -0.68135798905E+02  0.70103779799E+02  0.00000000000E+00 0.  1.
        -11    1    4    4    0    0  0.29332584034E+02 -0.34711064844E+01 -0.57142936504E+02  0.64325455759E+02  0.00000000000E+00 0. -1.
         11    1    4    4    0    0  0.23962633044E+02  0.61374878327E+02  0.59754857012E+01  0.66157311776E+02  0.00000000000E+00 0.  1.
          2    1    1    2  501    0 -0.49338679716E+01  0.24694977091E+02  0.10602323652E+03  0.10897298577E+03  0.00000000000E+00 0. -1.
<scales pt_clust_5="13000.00000" pt_clust_6="13000.00000" pt_clust_7="13000.00000" pt_clust_8="13000.00000" pt_clust_9="25.18303"></scales>
<clustering>
<clus scale="   25.183">  1  9  2 -1</clus>
<clus scale="   80.888">  5  6 -1 -1</clus>
<clus scale="   90.633">  7  8 -1 -1</clus>
<clus scale="  123.502">  2  5  1 -1</clus>
<clus scale="   25.183">  1  5  2 -1</clus>
</clustering>
</event>
<event>
 9    1  0.5981539E-005  0.1318343E+03  0.7546771E-02  0.1227753E+00
          1   -1    0    0  502    0 -0.00000000000E+00  0.00000000000E+00  0.80516522156E+02  0.80516522156E+02  0.00000000000E+00 0. -1.
         21   -1    0    0  501  502  0.00000000000E+00 -0.00000000000E+00 -0.31327053587E+03  0.31327053587E+03  0.00000000000E+00 0. -1.
        -24    2    1    2    0    0  0.26606044371E+02 -0.84429978643E+02 -0.65019281932E+02  0.13550232429E+03  0.79354079766E+02 0.  0.
         23    2    1    2    0    0  0.89299429532E+01  0.11172796561E+03 -0.15447103899E+03  0.21155238911E+03  0.91270089686E+02 0.  0.
         13    1    3    3    0    0  0.51465244999E+02 -0.69261696276E+02 -0.61939662227E+02  0.10621852838E+03  0.00000000000E+00 0. -1.
        -14    1    3    3    0    0 -0.24859200628E+02 -0.15168282367E+02 -0.30796197049E+01  0.29283795918E+02  0.00000000000E+00 0.  1.
        -13    1    4    4    0    0 -0.13990873737E+02  0.55509998507E+02 -0.13684220771E+03  0.14833372608E+03  0.00000000000E+00 0. -1.
         13    1    4    4    0    0  0.22920816690E+02  0.56217967101E+02 -0.17628831278E+02  0.63218663027E+02  0.00000000000E+00 0.  1.
          2    1    1    2  501    0 -0.35535987324E+02 -0.27297986965E+02 -0.13263692794E+02  0.46732344623E+02  0.00000000000E+00 0. -1.
<scales pt_clust_5="13000.00000" pt_clust_6="13000.00000" pt_clust_7="13000.00000" pt_clust_8="13000.00000" pt_clust_9="44.81058"></scales>
<clustering>
<clus scale="   44.811">  2  9  1 -1</clus>
<clus scale="   79.354">  5  6 -1 -1</clus>
<clus scale="   91.270">  7  8 -1 -1</clus>
<clus scale="  123.884">  1  5  2 -1</clus>
<clus scale="   44.811">  2  5  1 -1</clus>
</clustering>
</event>
<event>
 9    1  0.5981539E-005  0.1040091E+03  0.7546771E-02  0.1276486E+00
         21   -1    0    0  501  502  0.00000000000E+00  0.00000000000E+00  0.16798659580E+03  0.16798659580E+03  0.00000000000E+00 0.  1.
          1   -1    0    0  502    0 -0.00000000000E+00 -0.00000000000E+00 -0.31319640590E+03  0.31319640590E+03  0.00000000000E+00 0. -1.
         23    2    1    2    0    0  0.30387170331E+02 -0.46958543462E+02 -0.23102216609E+03  0.25418061913E+03  0.90044772141E+02 0.  0.
        -24    2    1    2    0    0 -0.67658538934E+02 -0.32542682551E+02  0.85522906857E+02  0.13919757840E+03  0.80156685034E+02 0.  0.
         13    1    4    4    0    0 -0.60670518410E+01  0.24867345566E+02  0.21343704418E+02  0.33327881898E+02  0.00000000000E+00 0. -1.
        -14    1    4    4    0    0 -0.61591487093E+02 -0.57410028118E+02  0.64179202439E+02  0.10586969650E+03  0.00000000000E+00 0.  1.
        -13    1    3    3    0    0  0.61313545959E+02 -0.37305734662E+02 -0.13582009341E+03  0.15361694740E+03  0.00000000000E+00 0.  1.
         13    1    3    3    0    0 -0.30926375628E+02 -0.96528087999E+01 -0.95202072683E+02  0.10056367172E+03  0.00000000000E+00 0. -1.
          2    1    1    2  501    0  0.37271368603E+02  0.79501226013E+02  0.28944913460E+00  0.87804804174E+02  0.00000000000E+00 0. -1.
<scales pt_clust_5="13000.00000" pt_clust_6="13000.00000" pt_clust_7="13000.00000" pt_clust_8="13000.00000" pt_clust_9="87.80433"></scales>
<clustering>
<clus scale="   80.157">  5  6 -1 -1</clus>
<clus scale="   87.804">  1  9  2 -1</clus>
<clus scale="   90.045">  7  8 -1 -1</clus>
<clus scale="   95.577">  1  5  2 -1</clus>
<clus scale="   87.804">  1  5  2 -1</clus>
</clustering>
</event>
<event>
 9    1  0.5981539E-005  0.1277010E+03  0.7546771E-02  0.1241577E+00
         21   -1    0    0  501  502  0.00000000000E+00  0.00000000000E+00  0.79272785700E+02  0.79272785700E+02  0.00000000000E+00 0. -1.
          1   -1    0    0  502    0 -0.00000000000E+00 -0.00000000000E+00 -0.47006200791E+03  0.47006200791E+03  0.00000000000E+00 0. -1.
        -24    2    1    2    0    0 -0.16820467203E+02  0.61397424595E+02 -0.93775087168E+02  0.13905955682E+03  0.80568117173E+02 0.  0.
         23    2    1    2    0    0 -0.67299412427E+02  0.37488909503E+02 -0.47213764655E+02  0.12875279317E+03  0.91725203332E+02 0.  0.
         11    1    3    3    0    0 -0.28883935547E+02  0.74535364845E+02 -0.56968946118E+02  0.98159376358E+02  0.00000000000E+00 0. -1.
        -12    1    3    3    0    0  0.12063468344E+02 -0.13137940250E+02 -0.36806141050E+02  0.40900180458E+02  0.00000000000E+00 0.  1.
        -11    1    4    4    0    0 -0.61151786680E+02  0.78806287164E+01 -0.68203596799E+02  0.91942242411E+02  0.00000000000E+00 0.  1.
         11    1    4    4    0    0 -0.61476257473E+01  0.29608280786E+02  0.20989832144E+02  0.36810550755E+02  0.00000000000E+00 0. -1.
          2    1    1    2  501    0  0.84119879630E+02 -0.98886334097E+02 -0.24980037038E+03  0.28152244362E+03  0.00000000000E+00 0. -1.
<scales pt_clust_5="13000.00000" pt_clust_6="13000.00000" pt_clust_7="13000.00000" pt_clust_8="13000.00000" pt_clust_9="88.84837"></scales>
<clustering>
<clus scale="   80.568">  5  6 -1 -1</clus>
<clus scale="   91.725">  7  8 -1 -1</clus>
<clus scale="  102.683">  2  5  1 -1</clus>
<clus scale="   88.848">  1  9  2 -1</clus>
<clus scale="   88.848">  1  5  2 -1</clus>
</clustering>
</event>
<event>
 9    1  0.5981539E-005  0.3840338E+03  0.7546771E-02  0.1049616E+00
         -2   -1    0    0    0  501 -0.00000000000E+00  0.00000000000E+00  0.13411863448E+04  0.13411863448E+04  0.00000000000E+00 0.  1.
         21   -1    0    0  501  502  0.00000000000E+00 -0.00000000000E+00 -0.20993188899E+03  0.20993188899E+03  0.00000000000E+00 0.  1.
        -24    2    1    2    0    0 -0.10509428815E+03  0.27883373536E+03  0.37155161049E+03  0.48329222477E+03  0.82022642516E+02 0.  0.
         23    2    1    2    0    0  0.62297054060E+02 -0.49584793959E+03  0.63785395163E+03  0.81529101940E+03  0.89975999847E+02 0.  0.
         11    1    3    3    0    0 -0.99550374248E+02  0.19884189853E+03  0.22563502644E+03  0.31679574300E+03  0.00000000000E+00 0. -1.
        -12    1    3    3    0    0 -0.55439138996E+01  0.79991836830E+02  0.14591658405E+03  0.16649648177E+03  0.00000000000E+00 0.  1.
        -13    1    4    4    0    0  0.15089097412E+02 -0.11733709348E+03  0.94494829584E+02  0.15140986489E+03  0.00000000000E+00 0.  1.
         13    1    4    4    0    0  0.47207956647E+02 -0.37851084611E+03  0.54335912205E+03  0.66388115451E+03  0.00000000000E+00 0. -1.
         -1    1    1    2    0  502  0.42797234088E+02  0.21701420423E+03  0.12184889366E+03  0.25253498960E+03  0.00000000000E+00 0.  1.
<scales pt_clust_5="13000.00000" pt_clust_6="13000.00000" pt_clust_7="13000.00000" pt_clust_8="13000.00000" pt_clust_9="221.19396"></scales>
<clustering>
<clus scale="   82.023">  5  6 -1 -1</clus>
<clus scale="   89.976">  7  8 -1 -1</clus>
<clus scale="  221.194">  2  9  1 -1</clus>
<clus scale="  382.249">  1  5  2 -1</clus>
<clus scale="  221.194">  2  5  1 -1</clus>
</clustering>
</event>
<event>
 9    1  0.5981539E-005  0.1358303E+03  0.7546771E-02  0.1219652E+00
         -2   -1    0    0    0  501 -0.00000000000E+00  0.00000000000E+00  0.13784570332E+04  0.13784570332E+04  0.00000000000E+00 0.  1.
         21   -1    0    0  501  502  0.00000000000E+00 -0.00000000000E+00 -0.67540201565E+02  0.67540201565E+02  0.00000000000E+00 0. -1.
         23    2    1    2    0    0 -0.54952423501E+02  0.10925417942E+03  0.31850979035E+03  0.35232047720E+03  0.87891908225E+02 0.  0.
        -24    2    1    2    0    0  0.10864538864E+03  0.16448202736E+02  0.56644940822E+02  0.14798403155E+03  0.81340398490E+02 0.  0.
         11    1    4    4    0    0  0.49694574151E+02  0.46477926214E+02  0.14586210751E+02  0.69588115862E+02  0.00000000000E+00 0. -1.
        -12    1    4    4    0    0  0.58950814493E+02 -0.30029723477E+02  0.42058730072E+02  0.78395915689E+02  0.00000000000E+00 0.  1.
        -13    1    3    3    0    0 -0.26267634116E+01  0.64206714853E+02  0.23670432086E+03  0.24527196667E+03  0.00000000000E+00 0.  1.
         13    1    3    3    0    0 -0.52325660089E+02  0.45047464566E+02  0.81805469490E+02  0.10704851053E+03  0.00000000000E+00 0. -1.
         -1    1    1    2    0  502 -0.53692965144E+02 -0.12570238215E+03  0.93576210046E+03  0.94569272602E+03  0.00000000000E+00 0.  1.
<scales pt_clust_5="13000.00000" pt_clust_6="13000.00000" pt_clust_7="13000.00000" pt_clust_8="13000.00000" pt_clust_9="136.68958"></scales>
<clustering>
<clus scale="   81.340">  5  6 -1 -1</clus>
<clus scale="   87.892">  7  8 -1 -1</clus>
<clus scale="  136.690">  2  9  1 -1</clus>
<clus scale="  136.690">  2  5  1 -1</clus>
<clus scale="  135.830">  2  5  1 -1</clus>
</clustering>
</event>
<event>
 9    1  0.5981539E-005  0.1026103E+03  0.7546771E-02  0.1276191E+00
         21   -1    0    0  501  502  0.00000000000E+00  0.00000000000E+00  0.15178620211E+03  0.15178620211E+03  0.00000000000E+00 0. -1.
         -4   -1    0    0    0  501 -0.00000000000E+00 -0.00000000000E+00 -0.18222561171E+03  0.18222561171E+03  0.00000000000E+00 0.  1.
        -24    2    1    2    0    0 -0.41888229573E+02 -0.12793988478E+02 -0.11634279814E+03  0.15172741991E+03  0.86989961231E+02 0.  0.
         23    2    1    2    0    0  0.72975388763E+02  0.17322771673E+02  0.34478734723E+02  0.12202315957E+03  0.89863132265E+02 0.  0.
         11    1    3    3    0    0 -0.12844204468E+02 -0.22066701705E+02  0.55082857876E+01  0.26119994733E+02  0.00000000000E+00 0. -1.
        -12    1    3    3    0    0 -0.29044025105E+02  0.92727132270E+01 -0.12185108392E+03  0.12560742517E+03  0.00000000000E+00 0.  1.
        -13    1    4    4    0    0 -0.94334996763E+00  0.24078980662E+02 -0.18875801767E+02  0.30610179863E+02  0.00000000000E+00 0.  1.
         13    1    4    4    0    0  0.73918738731E+02 -0.67562089894E+01  0.53354536489E+02  0.91412979710E+02  0.00000000000E+00 0. -1.
         -3    1    1    2    0  502 -0.31087159191E+02 -0.45287831951E+01  0.51424653814E+02  0.60261234336E+02  0.00000000000E+00 0.  1.
<scales pt_clust_5="13000.00000" pt_clust_6="13000.00000" pt_clust_7="13000.00000" pt_clust_8="13000.00000" pt_clust_9="31.41530"></scales>
<clustering>
<clus scale="   31.415">  1  9  2 -1</clus>
<clus scale="   86.990">  5  6 -1 -1</clus>
<clus scale="   89.863">  7  8 -1 -1</clus>
<clus scale="  100.104">  2  5  1 -1</clus>
<clus scale="   31.415">  1  5  2 -1</clus>
</clustering>
</event>
<event>
 9    1  0.5981539E-005  0.1280176E+03  0.7546771E-02  0.1233029E+00
         21   -1    0    0  501  502  0.00000000000E+00  0.00000000000E+00  0.72547772965E+02  0.72547772965E+02  0.00000000000E+00 0. -1.
          1   -1    0    0  502    0 -0.00000000000E+00 -0.00000000000E+00 -0.50606636126E+03  0.50606636126E+03  0.00000000000E+00 0. -1.
         23    2    1    2    0    0 -0.48740321211E+02  0.78178827000E+02 -0.31882150919E+03  0.34419994102E+03  0.91317560067E+02 0.  0.
        -24    2    1    2    0    0  0.61784066061E+02 -0.61575328352E+02 -0.15090670399E+03  0.19249817739E+03  0.81694082459E+02 0.  0.
         13    1    4    4    0    0  0.80754779296E+02 -0.59730353476E+02 -0.12752950463E+03  0.16233552925E+03  0.00000000000E+00 0. -1.
        -14    1    4    4    0    0 -0.18970713235E+02 -0.18449748761E+01 -0.23377199363E+02  0.30162648144E+02  0.00000000000E+00 0.  1.
        -11    1    3    3    0    0  0.23639513621E+02  0.24403552086E+01 -0.78945771038E+02  0.82445234566E+02  0.00000000000E+00 0.  1.
         11    1    3    3    0    0 -0.72379834832E+02  0.75738471792E+02 -0.23987573815E+03  0.26175470646E+03  0.00000000000E+00 0. -1.
          2    1    1    2  501    0 -0.13043744851E+02 -0.16603498648E+02  0.36209624885E+02  0.41916015810E+02  0.00000000000E+00 0. -1.
<scales pt_clust_5="13000.00000" pt_clust_6="13000.00000" pt_clust_7="13000.00000" pt_clust_8="13000.00000" pt_clust_9="21.11434"></scales>
<clustering>
<clus scale="   21.114">  1  9  2 -1</clus>
<clus scale="   81.694">  5  6 -1 -1</clus>
<clus scale="   91.318">  7  8 -1 -1</clus>
<clus scale="  121.341">  1  5  2 -1</clus>
<clus scale="   21.114">  1  5  2 -1</clus>
</clustering>
</event>
<event>
 9    1  0.5981539E-005  0.1440907E+03  0.7546771E-02  0.1210951E+00
         21   -1    0    0  501  502  0.00000000000E+00  0.00000000000E+00  0.17131884149E+03  0.17131884149E+03  0.00000000000E+00 0. -1.
          1   -1    0    0  502    0 -0.00000000000E+00 -0.00000000000E+00 -0.47074021480E+03  0.47074021480E+03  0.00000000000E+00 0. -1.
        -24    2    1    2    0    0 -0.82612906983E+02  0.32088960175E+02 -0.31623210409E+03  0.34524154807E+03  0.10646308793E+03 0.  0.
         23    2    1    2    0    0  0.94004226054E+02 -0.10892285798E+03 -0.65289299432E+02  0.18379704563E+03  0.93902491208E+02 0.  0.
         11    1    3    3    0    0 -0.74648304132E+02 -0.26636748881E+02 -0.17988928798E+03  0.19657579106E+03  0.00000000000E+00 0. -1.
        -12    1    3    3    0    0 -0.79646028509E+01  0.58725709057E+02 -0.13634281612E+03  0.14866575702E+03  0.00000000000E+00 0.  1.
        -13    1    4    4    0    0  0.40087407125E+02 -0.10995468928E+03 -0.53062639153E+02  0.12850166372E+03  0.00000000000E+00 0. -1.
         13    1    4    4    0    0  0.53916818929E+02  0.10318312960E+01 -0.12226660279E+02  0.55295381912E+02  0.00000000000E+00 0.  1.
          2    1    1    2  501    0 -0.11391319071E+02  0.76833897809E+02  0.82100030214E+02  0.11302046259E+03  0.00000000000E+00 0. -1.
<scales pt_clust_5="13000.00000" pt_clust_6="13000.00000" pt_clust_7="13000.00000" pt_clust_8="13000.00000" pt_clust_9="77.67374"></scales>
<clustering>
<clus scale="   77.674">  1  9  2 -1</clus>
<clus scale="   93.902">  7  8 -1 -1</clus>
<clus scale="  106.463">  5  6 -1 -1</clus>
<clus scale="  135.076">  1  7  2 -1</clus>
<clus scale="   77.674">  1  5  2 -1</clus>
</clustering>
</event>
<event>
 9    1  0.5981539E-005  0.9080899E+02  0.7546771E-02  0.1306120E+00
         21   -1    0    0  501  502  0.00000000000E+00  0.00000000000E+00  0.15301359084E+03  0.15301359084E+03  0.00000000000E+00 0. -1.
         -2   -1    0    0    0  501 -0.00000000000E+00 -0.00000000000E+00 -0.87324485426E+02  0.87324485426E+02  0.00000000000E+00 0.  1.
         23    2    1    2    0    0  0.97573506978E+01 -0.25912299485E+02 -0.30942736519E+01  0.93655200182E+02  0.89415148797E+02 0.  0.
        -24    2    1    2    0    0  0.64953913373E+01 -0.64863602594E+01  0.73965356772E+02  0.11006761056E+03  0.80992233665E+02 0.  0.
         11    1    4    4    0    0 -0.14974675757E+02 -0.14836428456E+02  0.82765154550E+02  0.85407443066E+02  0.00000000000E+00 0. -1.
        -12    1    4    4    0    0  0.21470067094E+02  0.83500681969E+01 -0.87997977777E+01  0.24660167495E+02  0.00000000000E+00 0.  1.
        -13    1    3    3    0    0 -0.24033500894E+02 -0.13977810099E+02 -0.35670094981E+02  0.45225479725E+02  0.00000000000E+00 0. -1.
         13    1    3    3    0    0  0.33790851592E+02 -0.11934489386E+02  0.32575821329E+02  0.48429720456E+02  0.00000000000E+00 0.  1.
         -1    1    1    2    0  502 -0.16252742035E+02  0.32398659744E+02 -0.51819777012E+01  0.36615265529E+02  0.00000000000E+00 0.  1.
<scales pt_clust_5="13000.00000" pt_clust_6="13000.00000" pt_clust_7="13000.00000" pt_clust_8="13000.00000" pt_clust_9="36.24674"></scales>
<clustering>
<clus scale="   36.247">  1  9  2 -1</clus>
<clus scale="   80.992">  5  6 -1 -1</clus>
<clus scale="   82.528">  1  5  2 -1</clus>
<clus scale="   89.415">  7  8 -1 -1</clus>
<clus scale="   36.247">  1  5  2 -1</clus>
</clustering>
</event>
<event>
 9    1  0.5981539E-005  0.1152464E+03  0.7546771E-02  0.1255508E+00
          3   -1    0    0  502    0 -0.00000000000E+00  0.00000000000E+00  0.53173900257E+03  0.53173900257E+03  0.00000000000E+00 0. -1.
         21   -1    0    0  501  502  0.00000000000E+00 -0.00000000000E+00 -0.12150151921E+03  0.12150151921E+03  0.00000000000E+00 0.  1.
        -24    2    1    2    0    0 -0.23839575706E+02 -0.68504845290E+02  0.26096928574E+03  0.28265403151E+03  0.80790434031E+02 0.  0.
         23    2    1    2    0    0  0.18130848376E+01  0.25083593209E+02 -0.86748354362E+02  0.12960021629E+03  0.92943343783E+02 0.  0.
         11    1    3    3    0    0 -0.30467369694E+02  0.58077996490E+01  0.10948954113E+03  0.11379785046E+03  0.00000000000E+00 0. -1.
        -12    1    3    3    0    0  0.66277939882E+01 -0.74312644939E+02  0.15147974461E+03  0.16885618104E+03  0.00000000000E+00 0.  1.
        -13    1    4    4    0    0  0.19351922065E+01 -0.24872371328E+02  0.47094910016E+01  0.25388169092E+02  0.00000000000E+00 0. -1.
         13    1    4    4    0    0 -0.12210736884E+00  0.49955964537E+02 -0.91457845363E+02  0.10421204720E+03  0.00000000000E+00 0.  1.
          4    1    1    2  501    0  0.22026490868E+02  0.43421252081E+02  0.23601655199E+03  0.24098627398E+03  0.00000000000E+00 0. -1.
<scales pt_clust_5="13000.00000" pt_clust_6="13000.00000" pt_clust_7="13000.00000" pt_clust_8="13000.00000" pt_clust_9="48.68854"></scales>
<clustering>
<clus scale="   48.689">  2  9  1 -1</clus>
<clus scale="   80.790">  5  6 -1 -1</clus>
<clus scale="   92.943">  7  8 -1 -1</clus>
<clus scale="  105.690">  1  5  2 -1</clus>
<clus scale="   48.689">  2  5  1 -1</clus>
</clustering>
</event>
<event>
 9    1  0.5981539E-005  0.1047241E+03  0.7546771E-02  0.1276526E+00
         -2   -1    0    0    0  501 -0.00000000000E+00  0.00000000000E+00  0.23190526024E+03  0.23190526024E+03  0.00000000000E+00 0.  1.
         21   -1    0    0  501  502  0.00000000000E+00 -0.00000000000E+00 -0.75941103436E+02  0.75941103436E+02  0.00000000000E+00 0. -1.
        -24    2    1    2    0    0 -0.50809079415E+02 -0.30200981116E+02  0.12027118701E+03  0.15560645852E+03  0.79085711085E+02 0.  0.
         23    2    1    2    0    0  0.72781129292E+01  0.34564466317E+02  0.48031682359E+01  0.98684654371E+02  0.92021287339E+02 0.  0.
         13    1    3    3    0    0 -0.71996900747E+01 -0.50221175679E+02  0.60541658915E+02  0.78989204883E+02  0.00000000000E+00 0. -1.
        -14    1    3    3    0    0 -0.43609389341E+02  0.20020194563E+02  0.59729528092E+02  0.76617253639E+02  0.00000000000E+00 0.  1.
        -11    1    4    4    0    0 -0.25932444968E+02 -0.16741510588E+02  0.18589369663E+02  0.36032409624E+02  0.00000000000E+00 0.  1.
         11    1    4    4    0    0  0.33210557897E+02  0.51305976905E+02 -0.13786201428E+02  0.62652244747E+02  0.00000000000E+00 0. -1.
         -1    1    1    2    0  502  0.43530966486E+02 -0.43634852013E+01  0.30889801563E+02  0.53555250788E+02  0.00000000000E+00 0.  1.
<scales pt_clust_5="13000.00000" pt_clust_6="13000.00000" pt_clust_7="13000.00000" pt_clust_8="13000.00000" pt_clust_9="43.74914"></scales>
<clustering>
<clus scale="   43.749">  2  9  1 -1</clus>
<clus scale="   79.086">  5  6 -1 -1</clus>
<clus scale="   92.021">  7  8 -1 -1</clus>
<clus scale="   93.562">  1  5  2 -1</clus>
<clus scale="   43.749">  2  5  1 -1</clus>
</clustering>
</event>
<event>
 9    1  0.5981539E-005  0.1455887E+03  0.7546771E-02  0.1207465E+00
         21   -1    0    0  501  502  0.00000000000E+00  0.00000000000E+00  0.57738568041E+02  0.57738568041E+02  0.00000000000E+00 0.  1.
          1   -1    0    0  502    0 -0.00000000000E+00 -0.00000000000E+00 -0.53330024356E+03  0.53330024356E+03  0.00000000000E+00 0. -1.
         23    2    1    2    0    0 -0.96659878217E+02  0.19660035918E+02 -0.17424308278E+03  0.21904524219E+03  0.88828583025E+02 0.  0.
        -24    2    1    2    0    0  0.13405394796E+03  0.20363370710E+02 -0.25617395063E+03  0.30101309152E+03  0.81232139294E+02 0.  0.
         13    1    4    4    0    0  0.72860107503E+02 -0.96197897095E+01 -0.19874042935E+03  0.21189359093E+03  0.00000000000E+00 0. -1.
        -14    1    4    4    0    0  0.61193840458E+02  0.29983160419E+02 -0.57433521284E+02  0.89119500592E+02  0.00000000000E+00 0.  1.
        -11    1    3    3    0    0 -0.62267527260E+02  0.53463888082E+02 -0.88689228117E+02  0.12083630027E+03  0.00000000000E+00 0.  1.
         11    1    3    3    0    0 -0.34392350956E+02 -0.33803852164E+02 -0.85553854659E+02  0.98208941917E+02  0.00000000000E+00 0. -1.
          2    1    1    2  501    0 -0.37394069744E+02 -0.40023406628E+02 -0.45144642112E+02  0.70980477890E+02  0.00000000000E+00 0. -1.
<scales pt_clust_5="13000.00000" pt_clust_6="13000.00000" pt_clust_7="13000.00000" pt_clust_8="13000.00000" pt_clust_9="54.77399"></scales>
<clustering>
<clus scale="   54.774">  1  9  2 -1</clus>
<clus scale="   81.232">  5  6 -1 -1</clus>
<clus scale="   88.829">  7  8 -1 -1</clus>
<clus scale="  141.082">  1  5  2 -1</clus>
<clus scale="   54.774">  1  5  2 -1</clus>
</clustering>
</event>
<event>
 9    1  0.5981539E-005  0.1211017E+03  0.7546771E-02  0.1244452E+00
         21   -1    0    0  501  502  0.00000000000E+00  0.00000000000E+00  0.14074519260E+03  0.14074519260E+03  0.00000000000E+00 0.  1.
          3   -1    0    0  502    0 -0.00000000000E+00 -0.00000000000E+00 -0.12485975989E+03  0.12485975989E+03  0.00000000000E+00 0. -1.
         23    2    1    2    0    0  0.64574209939E+02 -0.29626971071E+02  0.11564607193E+02  0.11636473222E+03  0.91429889868E+02 0.  0.
        -24    2    1    2    0    0 -0.74122875409E+02  0.49673121971E+02  0.19647899125E+02  0.12225977618E+03  0.81239111428E+02 0.  0.
         11    1    4    4    0    0 -0.13086416293E+02  0.48974295740E+02 -0.13958984113E+02  0.52579360704E+02  0.00000000000E+00 0. -1.
        -12    1    4    4    0    0 -0.61036459116E+02  0.69882623101E+00  0.33606883238E+02  0.69680415473E+02  0.00000000000E+00 0.  1.
        -13    1    3    3    0    0 -0.18239721702E+02 -0.25082292950E+02 -0.59964114275E+01  0.31587431320E+02  0.00000000000E+00 0. -1.
         13    1    3    3    0    0  0.82813931641E+02 -0.45446781206E+01  0.17561018620E+02  0.84777300900E+02  0.00000000000E+00 0.  1.
          4    1    1    2  501    0  0.95486654703E+01 -0.20046150900E+02 -0.15327073600E+02  0.26980444090E+02  0.00000000000E+00 0. -1.
<scales pt_clust_5="13000.00000" pt_clust_6="13000.00000" pt_clust_7="13000.00000" pt_clust_8="13000.00000" pt_clust_9="22.20418"></scales>
<clustering>
<clus scale="   22.204">  1  9  2 -1</clus>
<clus scale="   81.239">  5  6 -1 -1</clus>
<clus scale="   91.430">  7  8 -1 -1</clus>
<clus scale="  113.605">  1  5  2 -1</clus>
<clus scale="   22.204">  1  5  2 -1</clus>
</clustering>
</event>
<event>
 9    1  0.5981539E-005  0.1262675E+03  0.7546771E-02  0.1257293E+00
          1   -1    0    0  502    0 -0.00000000000E+00  0.00000000000E+00  0.50903754929E+03  0.50903754929E+03  0.00000000000E+00 0. -1.
         21   -1    0    0  501  502  0.00000000000E+00 -0.00000000000E+00 -0.36189744008E+02  0.36189744008E+02  0.00000000000E+00 0. -1.
        -24    2    1    2    0    0 -0.68222570793E+00  0.14480598922E+02  0.28874703139E+03  0.29875277716E+03  0.75287585599E+02 0.  0.
         23    2    1    2    0    0 -0.31954614758E+01 -0.36189060348E+02  0.18285466658E+03  0.22438726781E+03  0.12487576947E+03 0.  0.
         11    1    3    3    0    0 -0.33066842920E+02 -0.11110767341E+02  0.11525506623E+03  0.12041841862E+03  0.00000000000E+00 0. -1.
        -12    1    3    3    0    0  0.32384617212E+02  0.25591366262E+02  0.17349196516E+03  0.17833435854E+03  0.00000000000E+00 0.  1.
        -13    1    4    4    0    0  0.28541108043E+02 -0.58285264389E+02  0.39647291494E+02  0.76050474134E+02  0.00000000000E+00 0. -1.
         13    1    4    4    0    0 -0.31736569519E+02  0.22096204042E+02  0.14320737509E+03  0.14833679367E+03  0.00000000000E+00 0.  1.
          2    1    1    2  501    0  0.38776871837E+01  0.21708461426E+02  0.12461073079E+01  0.22087248331E+02  0.00000000000E+00 0. -1.
<scales pt_clust_5="13000.00000" pt_clust_6="13000.00000" pt_clust_7="13000.00000" pt_clust_8="13000.00000" pt_clust_9="22.05207"></scales>
<clustering>
<clus scale="   22.052">  2  9  1 -1</clus>
<clus scale="   75.288">  5  6 -1 -1</clus>
<clus scale="   77.574">  1  5  2 -1</clus>
<clus scale="  124.876">  7  8 -1 -1</clus>
<clus scale="   22.052">  2  5  1 -1</clus>
</clustering>
</event>
<event>
 9    1  0.5981539E-005  0.1004592E+03  0.7546771E-02  0.1285715E+00
          1   -1    0    0  502    0 -0.00000000000E+00  0.00000000000E+00  0.27449098190E+03  0.27449098190E+03  0.00000000000E+00 0. -1.
         21   -1    0    0  501  502  0.00000000000E+00 -0.00000000000E+00 -0.61051645402E+02  0.61051645402E+02  0.00000000000E+00 0.  1.
        -24    2    1    2    0    0 -0.32953725838E+02  0.24935183592E+02  0.15334631368E+03  0.17712483838E+03  0.78424518001E+02 0.  0.
         23    2    1    2    0    0  0.52011647140E+02 -0.22712398365E+01  0.17386885848E+02  0.10644979064E+03  0.91207917194E+02 0.  0.
         11    1    3    3    0    0  0.89791138133E+01  0.40114159205E+02  0.51140383919E+02  0.65613330360E+02  0.00000000000E+00 0. -1.
        -12    1    3    3    0    0 -0.41932839651E+02 -0.15178975613E+02  0.10220592976E+03  0.11151150802E+03  0.00000000000E+00 0.  1.
        -13    1    4    4    0    0  0.38200620752E+02  0.33634747514E+02  0.37327515407E+02  0.63118357652E+02  0.00000000000E+00 0.  1.
         13    1    4    4    0    0  0.13811026388E+02 -0.35905987351E+02 -0.19940629559E+02  0.43331432987E+02  0.00000000000E+00 0. -1.
          2    1    1    2  501    0 -0.19057921303E+02 -0.22663943755E+02  0.42706136963E+02  0.51967998280E+02  0.00000000000E+00 0. -1.
<scales pt_clust_5="13000.00000" pt_clust_6="13000.00000" pt_clust_7="13000.00000" pt_clust_8="13000.00000" pt_clust_9="29.61182"></scales>
<clustering>
<clus scale="   29.612">  2  9  1 -1</clus>
<clus scale="   78.425">  5  6 -1 -1</clus>
<clus scale="   89.014">  1  5  2 -1</clus>
<clus scale="   91.208">  7  8 -1 -1</clus>
<clus scale="   29.612">  2  5  1 -1</clus>
</clustering>
</event>
<event>
 9    1  0.5981539E-005  0.2357188E+03  0.7546771E-02  0.1138481E+00
         -2   -1    0    0    0  501 -0.00000000000E+00  0.00000000000E+00  0.15758309114E+03  0.15758309114E+03  0.00000000000E+00 0.  1.
         21   -1    0    0  501  502  0.00000000000E+00 -0.00000000000E+00 -0.10093322234E+04  0.10093322234E+04  0.00000000000E+00 0.  1.
         23    2    1    2    0    0  0.11834872661E+03 -0.56820929948E+02 -0.10376947027E+03  0.19067156794E+03  0.91392038451E+02 0.  0.
        -24    2    1    2    0    0  0.55689924813E+02 -0.19853540050E+03 -0.58835761880E+03  0.62842841576E+03  0.78993120922E+02 0.  0.
         13    1    4    4    0    0 -0.98236820604E+01 -0.82848878042E+02 -0.16848003462E+03  0.18800522171E+03  0.00000000000E+00 0. -1.
        -14    1    4    4    0    0  0.65513606873E+02 -0.11568652246E+03 -0.41987758417E+03  0.44042319405E+03  0.00000000000E+00 0.  1.
        -13    1    3    3    0    0  0.11056946006E+03 -0.10447811687E+02 -0.85760572365E+02  0.14031977067E+03  0.00000000000E+00 0.  1.
         13    1    3    3    0    0  0.77792665446E+01 -0.46373118261E+02 -0.18008897904E+02  0.50351797276E+02  0.00000000000E+00 0. -1.
         -1    1    1    2    0  502 -0.17403865142E+03  0.25535633045E+03 -0.15962204318E+03  0.34781533083E+03  0.00000000000E+00 0.  1.
<scales pt_clust_5="13000.00000" pt_clust_6="13000.00000" pt_clust_7="13000.00000" pt_clust_8="13000.00000" pt_clust_9="222.08890"></scales>
<clustering>
<clus scale="   78.993">  5  6 -1 -1</clus>
<clus scale="   91.392">  7  8 -1 -1</clus>
<clus scale="  159.961">  1  7  2 -1</clus>
<clus scale="  222.089">  2  9  1 -1</clus>
<clus scale="  222.089">  2  5  1 -1</clus>
</clustering>
</event>
<event>
 9    1  0.5981539E-005  0.9544450E+02  0.7546771E-02  0.1294681E+00
         21   -1    0    0  501  502  0.00000000000E+00  0.00000000000E+00  0.11515856619E+03  0.11515856619E+03  0.00000000000E+00 0. -1.
          1   -1    0    0  502    0 -0.00000000000E+00 -0.00000000000E+00 -0.11455847887E+03  0.11455847887E+03  0.00000000000E+00 0. -1.
        -24    2    1    2    0    0  0.24491122877E+02 -0.19166452190E+02 -0.10350731223E+02  0.86340431427E+02  0.79877183681E+02 0.  0.
         23    2    1    2    0    0 -0.18503180206E+02  0.46202696042E+02  0.34490044414E+02  0.10703230055E+03  0.88256973656E+02 0.  0.
         13    1    3    3    0    0  0.33518858589E+02  0.24214458368E+02 -0.65707673507E+01  0.41869187462E+02  0.00000000000E+00 0. -1.
        -14    1    3    3    0    0 -0.90277357126E+01 -0.43380910558E+02 -0.37799638721E+01  0.44471243965E+02  0.00000000000E+00 0.  1.
        -11    1    4    4    0    0 -0.27871892595E+02  0.70212826580E+02  0.26270057969E+02  0.79979993492E+02  0.00000000000E+00 0. -1.
         11    1    4    4    0    0  0.93687123886E+01 -0.24010130538E+02  0.82199864451E+01  0.27052307063E+02  0.00000000000E+00 0.  1.
          2    1    1    2  501    0 -0.59879426706E+01 -0.27036243852E+02 -0.23539225868E+02  0.36344313083E+02  0.00000000000E+00 0. -1.
<scales pt_clust_5="13000.00000" pt_clust_6="13000.00000" pt_clust_7="13000.00000" pt_clust_8="13000.00000" pt_clust_9="27.69142"></scales>
<clustering>
<clus scale="   27.691">  1  9  2 -1</clus>
<clus scale="   79.877">  5  6 -1 -1</clus>
<clus scale="   87.754">  2  5  1 -1</clus>
<clus scale="   88.257">  7  8 -1 -1</clus>
<clus scale="   27.691">  1  5  2 -1</clus>
</clustering>
</event>
<event>
 9    1  0.5981539E-005  0.9604699E+02  0.7546771E-02  0.1296184E+00
          3   -1    0    0  502    0 -0.00000000000E+00  0.00000000000E+00  0.50977257850E+02  0.50977257850E+02  0.00000000000E+00 0. -1.
         21   -1    0    0  501  502  0.00000000000E+00 -0.00000000000E+00 -0.46975516540E+03  0.46975516540E+03  0.00000000000E+00 0.  1.
         23    2    1    2    0    0  0.24431103870E+02 -0.25555781622E+01 -0.59327886223E+02  0.11283095294E+03  0.92777238811E+02 0.  0.
        -24    2    1    2    0    0 -0.21984838906E+02 -0.44225201987E+02 -0.34689547304E+03  0.35940361173E+03  0.79970527557E+02 0.  0.
         13    1    4    4    0    0 -0.40283841259E+02 -0.55976740178E+02 -0.21685472890E+03  0.22755693079E+03  0.00000000000E+00 0. -1.
        -14    1    4    4    0    0  0.18299002354E+02  0.11751538191E+02 -0.13004074414E+03  0.13184668094E+03  0.00000000000E+00 0.  1.
        -13    1    3    3    0    0  0.11394033135E+02 -0.41823767061E+02 -0.56699921831E+02  0.71371791472E+02  0.00000000000E+00 0.  1.
         13    1    3    3    0    0  0.13037070735E+02  0.39268188899E+02 -0.26279643920E+01  0.41459161468E+02  0.00000000000E+00 0. -1.
          4    1    1    2  501    0 -0.24462649644E+01  0.46780780149E+02 -0.12554548283E+02  0.48497858574E+02  0.00000000000E+00 0. -1.
<scales pt_clust_5="13000.00000" pt_clust_6="13000.00000" pt_clust_7="13000.00000" pt_clust_8="13000.00000" pt_clust_9="46.84472"></scales>
<clustering>
<clus scale="   46.845">  2  9  1 -1</clus>
<clus scale="   79.971">  5  6 -1 -1</clus>
<clus scale="   83.742">  2  5  1 -1</clus>
<clus scale="   92.777">  7  8 -1 -1</clus>
<clus scale="   46.845">  2  5  1 -1</clus>
</clustering>
</event>
<event>
 9    1  0.5981539E-005  0.1061244E+03  0.7546771E-02  0.1276750E+00
         21   -1    0    0  501  502  0.00000000000E+00  0.00000000000E+00  0.10994695973E+03  0.10994695973E+03  0.00000000000E+00 0. -1.
          1   -1    0    0  502    0 -0.00000000000E+00 -0.00000000000E+00 -0.24924161947E+03  0.24924161947E+03  0.00000000000E+00 0. -1.
         23    2    1    2    0    0  0.39942961676E+02 -0.20831732522E+02 -0.14465916569E+03  0.17715896818E+03  0.91812986675E+02 0.  0.
        -24    2    1    2    0    0 -0.55137510059E+02  0.78171149772E+02  0.18863324439E+02  0.12119457858E+03  0.71982131084E+02 0.  0.
         13    1    4    4    0    0 -0.56735964833E+02  0.52163049658E+02 -0.14948259418E+02  0.78507349432E+02  0.00000000000E+00 0. -1.
        -14    1    4    4    0    0  0.15984547741E+01  0.26008100114E+02  0.33811583857E+02  0.42687229145E+02  0.00000000000E+00 0.  1.
        -13    1    3    3    0    0 -0.12596029611E+02  0.22033826599E+02 -0.78192419921E+02  0.82208296477E+02  0.00000000000E+00 0.  1.
         13    1    3    3    0    0  0.52538991287E+02 -0.42865559121E+02 -0.66466745766E+02  0.94950671704E+02  0.00000000000E+00 0. -1.
          2    1    1    2  501    0  0.15194548383E+02 -0.57339417250E+02 -0.13498818499E+02  0.60835032440E+02  0.00000000000E+00 0. -1.
<scales pt_clust_5="13000.00000" pt_clust_6="13000.00000" pt_clust_7="13000.00000" pt_clust_8="13000.00000" pt_clust_9="59.31849"></scales>
<clustering>
<clus scale="   59.318">  1  9  2 -1</clus>
<clus scale="   71.982">  5  6 -1 -1</clus>
<clus scale="   89.522">  1  5  2 -1</clus>
<clus scale="   91.813">  7  8 -1 -1</clus>
<clus scale="   59.318">  1  5  2 -1</clus>
</clustering>
</event>
<event>
 9    1  0.5981539E-005  0.1171899E+03  0.7546771E-02  0.1252043E+00
          1   -1    0    0  502    0 -0.00000000000E+00  0.00000000000E+00  0.72491129345E+03  0.72491129345E+03  0.00000000000E+00 0. -1.
         21   -1    0    0  501  502  0.00000000000E+00 -0.00000000000E+00 -0.50831168224E+02  0.50831168224E+02  0.00000000000E+00 0. -1.
         23    2    1    2    0    0 -0.28217745758E+02  0.76127413350E+02  0.55146526713E+03  0.56487278329E+03  0.91518829833E+02 0.  0.
        -24    2    1    2    0    0  0.52772163813E+02 -0.33200157070E+02  0.12606499221E+03  0.16129577191E+03  0.78973363043E+02 0.  0.
         13    1    4    4    0    0  0.47929338958E+02  0.16472508367E+02  0.65439712742E+02  0.82770290978E+02  0.00000000000E+00 0. -1.
        -14    1    4    4    0    0  0.48428248554E+01 -0.49672665437E+02  0.60625279470E+02  0.78525480928E+02  0.00000000000E+00 0.  1.
        -11    1    3    3    0    0 -0.34257174852E+01 -0.21324535144E+02  0.86125806838E+02  0.88792600721E+02  0.00000000000E+00 0.  1.
         11    1    3    3    0    0 -0.24792028273E+02  0.97451948494E+02  0.46533946029E+03  0.47608018257E+03  0.00000000000E+00 0. -1.
          2    1    1    2  501    0 -0.24554418055E+02 -0.42927256280E+02 -0.34501341183E+01  0.49573906474E+02  0.00000000000E+00 0. -1.
<scales pt_clust_5="13000.00000" pt_clust_6="13000.00000" pt_clust_7="13000.00000" pt_clust_8="13000.00000" pt_clust_9="49.45370"></scales>
<clustering>
<clus scale="   49.454">  2  9  1 -1</clus>
<clus scale="   78.973">  5  6 -1 -1</clus>
<clus scale="   91.519">  7  8 -1 -1</clus>
<clus scale="  107.678">  2  5  1 -1</clus>
<clus scale="   49.454">  2  5  1 -1</clus>
</clustering>
</event>
<event>
 9    1  0.5981539E-005  0.1749006E+03  0.7546771E-02  0.1178800E+00
         21   -1    0    0  501  502  0.00000000000E+00  0.00000000000E+00  0.89399296406E+02  0.89399296406E+02  0.00000000000E+00 0. -1.
         -2   -1    0    0    0  501 -0.00000000000E+00 -0.00000000000E+00 -0.42225077223E+03  0.42225077223E+03  0.00000000000E+00 0.  1.
         23    2    1    2    0    0  0.54882412956E+02  0.11231757911E+03 -0.19275956383E+03  0.25956870883E+03  0.12079878858E+03 0.  0.
        -24    2    1    2    0    0 -0.82123962519E+02 -0.10183190671E+03 -0.61176508653E+02  0.16794045280E+03  0.85716673015E+02 0.  0.
         13    1    4    4    0    0 -0.97183017569E+02 -0.98293424622E+02 -0.63820136669E+02  0.15224699036E+03  0.00000000000E+00 0. -1.
        -14    1    4    4    0    0  0.15059055050E+02 -0.35384820845E+01  0.26436280162E+01  0.15693462446E+02  0.00000000000E+00 0.  1.
        -11    1    3    3    0    0  0.13850611399E+02  0.12171257861E+03 -0.10155917289E+03  0.15912277280E+03  0.00000000000E+00 0.  1.
         11    1    3    3    0    0  0.41031801557E+02 -0.93949994933E+01 -0.91200390947E+02  0.10044593602E+03  0.00000000000E+00 0. -1.
         -1    1    1    2    0  502  0.27241549563E+02 -0.10485672407E+02 -0.78915403338E+02  0.84140907010E+02  0.00000000000E+00 0.  1.
<scales pt_clust_5="13000.00000" pt_clust_6="13000.00000" pt_clust_7="13000.00000" pt_clust_8="13000.00000" pt_clust_9="29.18993"></scales>
<clustering>
<clus scale="   29.190">  1  9  2 -1</clus>
<clus scale="   85.717">  5  6 -1 -1</clus>
<clus scale="  120.799">  7  8 -1 -1</clus>
<clus scale="  152.791">  1  5  2 -1</clus>
<clus scale="   29.190">  1  5  2 -1</clus>
</clustering>
</event>
<event>
 9    1  0.5981539E-005  0.1517766E+03  0.7546771E-02  0.1210510E+00
         21   -1    0    0  501  502  0.00000000000E+00  0.00000000000E+00  0.14596080406E+03  0.14596080406E+03  0.00000000000E+00 0.  1.
         -4   -1    0    0    0  501 -0.00000000000E+00 -0.00000000000E+00 -0.31165356868E+03  0.31165356868E+03  0.00000000000E+00 0.  1.
        -24    2    1    2    0    0 -0.60335493630E+02 -0.61364595484E+02 -0.64604768467E+02  0.13336156169E+03  0.78775279485E+02 0.  0.
         23    2    1    2    0    0 -0.97123726065E+02  0.59672904889E+02 -0.12286573153E+02  0.14347128431E+03  0.86250656803E+02 0.  0.
         13    1    3    3    0    0  0.17443856977E+02 -0.15456129684E+02 -0.26622277372E+02  0.35382562704E+02  0.00000000000E+00 0. -1.
        -14    1    3    3    0    0 -0.77779350607E+02 -0.45908465800E+02 -0.37982491095E+02  0.97978998988E+02  0.00000000000E+00 0.  1.
        -11    1    4    4    0    0 -0.66198327455E+02  0.71823438895E+02 -0.34401124442E+02  0.10355801415E+03  0.00000000000E+00 0.  1.
         11    1    4    4    0    0 -0.30925398610E+02 -0.12150534006E+02  0.22114551289E+02  0.39913270156E+02  0.00000000000E+00 0. -1.
         -3    1    1    2    0  502  0.15745921970E+03  0.16916905947E+01 -0.88801422999E+02  0.18078152674E+03  0.00000000000E+00 0.  1.
<scales pt_clust_5="13000.00000" pt_clust_6="13000.00000" pt_clust_7="13000.00000" pt_clust_8="13000.00000" pt_clust_9="124.88783"></scales>
<clustering>
<clus scale="   78.775">  5  6 -1 -1</clus>
<clus scale="   86.251">  7  8 -1 -1</clus>
<clus scale="  116.668">  2  5  1 -1</clus>
<clus scale="  124.888">  1  9  2 -1</clus>
<clus scale="  124.888">  1  5  2 -1</clus>
</clustering>
</event>
<event>
 9    1  0.5981539E-005  0.1009785E+03  0.7546771E-02  0.1282848E+00
         -2   -1    0    0    0  501 -0.00000000000E+00  0.00000000000E+00  0.53813623982E+03  0.53813623982E+03  0.00000000000E+00 0.  1.
         21   -1    0    0  501  502  0.00000000000E+00 -0.00000000000E+00 -0.42066585150E+02  0.42066585150E+02  0.00000000000E+00 0. -1.
         23    2    1    2    0    0 -0.62502381703E+02  0.15997897226E+02  0.22503182901E+03  0.25136052608E+03  0.91544030773E+02 0.  0.
        -24    2    1    2    0    0 -0.83102323410E+01 -0.32247995016E+02  0.63691206764E+02  0.10913542063E+03  0.82127809376E+02 0.  0.
         13    1    4    4    0    0 -0.34559067300E+02  0.11036607598E+01  0.25012940852E+01  0.34667040137E+02  0.00000000000E+00 0. -1.
        -14    1    4    4    0    0  0.26248834959E+02 -0.33351655776E+02  0.61189912679E+02  0.74468380494E+02  0.00000000000E+00 0.  1.
        -13    1    3    3    0    0  0.14527745546E+02 -0.15902966680E+02  0.90988105357E+02  0.93502914695E+02  0.00000000000E+00 0. -1.
         13    1    3    3    0    0 -0.77030127249E+02  0.31900863907E+02  0.13404372365E+03  0.15785761138E+03  0.00000000000E+00 0.  1.
         -1    1    1    2    0  502  0.70812614044E+02  0.16250097790E+02  0.20734661890E+03  0.21970687826E+03  0.00000000000E+00 0.  1.
<scales pt_clust_5="13000.00000" pt_clust_6="13000.00000" pt_clust_7="13000.00000" pt_clust_8="13000.00000" pt_clust_9="72.65327"></scales>
<clustering>
<clus scale="   72.653">  2  9  1 -1</clus>
<clus scale="   82.128">  5  6 -1 -1</clus>
<clus scale="   91.544">  7  8 -1 -1</clus>
<clus scale="   92.527">  2  5  1 -1</clus>
<clus scale="   72.653">  2  5  1 -1</clus>
</clustering>
</event>
<event>
 9    1  0.5981539E-005  0.1197527E+03  0.7546771E-02  0.1246478E+00
         21   -1    0    0  501  502  0.00000000000E+00  0.00000000000E+00  0.40902217230E+02  0.40902217230E+02  0.00000000000E+00 0. -1.
         -2   -1    0    0    0  501 -0.00000000000E+00 -0.00000000000E+00 -0.52687617102E+03  0.52687617102E+03  0.00000000000E+00 0.  1.
        -24    2    1    2    0    0 -0.75053215998E+02  0.21862512006E+02 -0.34687865763E+03  0.36469673057E+03  0.81042874478E+02 0.  0.
         23    2    1    2    0    0  0.81363018750E+02 -0.79235736467E+00 -0.13298216437E+03  0.18025326729E+03  0.90478813428E+02 0.  0.
         13    1    3    3    0    0 -0.26561969453E+02 -0.31022853019E+02 -0.12800088073E+03  0.13435840539E+03  0.00000000000E+00 0. -1.
        -14    1    3    3    0    0 -0.48491246545E+02  0.52885365026E+02 -0.21887777690E+03  0.23033832518E+03  0.00000000000E+00 0.  1.
        -11    1    4    4    0    0  0.24586608047E+02  0.29991212956E+02 -0.10098773850E+03  0.10817808224E+03  0.00000000000E+00 0.  1.
         11    1    4    4    0    0  0.56776410703E+02 -0.30783570321E+02 -0.31994425873E+02  0.72075185057E+02  0.00000000000E+00 0. -1.
         -1    1    1    2    0  502 -0.63098027523E+01 -0.21070154642E+02 -0.61131317869E+01  0.22828390387E+02  0.00000000000E+00 0.  1.
<scales pt_clust_5="13000.00000" pt_clust_6="13000.00000" pt_clust_7="13000.00000" pt_clust_8="13000.00000" pt_clust_9="21.99466"></scales>
<clustering>
<clus scale="   21.995">  1  9  2 -1</clus>
<clus scale="   81.043">  5  6 -1 -1</clus>
<clus scale="   90.479">  7  8 -1 -1</clus>
<clus scale="  112.793">  2  5  1 -1</clus>
<clus scale="   21.995">  1  5  2 -1</clus>
</clustering>
</event>
<event>
 9    1  0.5981539E-005  0.1019569E+03  0.7546771E-02  0.1280600E+00
          1   -1    0    0  502    0 -0.00000000000E+00  0.00000000000E+00  0.17368265169E+03  0.17368265169E+03  0.00000000000E+00 0. -1.
         21   -1    0    0  501  502  0.00000000000E+00 -0.00000000000E+00 -0.15459877514E+03  0.15459877514E+03  0.00000000000E+00 0. -1.
         23    2    1    2    0    0 -0.44566720525E+02 -0.11182132391E+02  0.12748551670E+03  0.16341361721E+03  0.91324808555E+02 0.  0.
        -24    2    1    2    0    0  0.32589711391E+02  0.36790378017E+02 -0.79279452807E+02  0.12428046199E+03  0.82126611955E+02 0.  0.
         13    1    4    4    0    0  0.11818051765E+02  0.59675647721E+02 -0.68342365747E+02  0.91496055840E+02  0.00000000000E+00 0. -1.
        -14    1    4    4    0    0  0.20771659626E+02 -0.22885269704E+02 -0.10937087061E+02  0.32784406147E+02  0.00000000000E+00 0.  1.
        -13    1    3    3    0    0 -0.29080517346E+02  0.26932362408E+02  0.11307776891E+03  0.11982324672E+03  0.00000000000E+00 0. -1.
         13    1    3    3    0    0 -0.15486203179E+02 -0.38114494799E+02  0.14407747794E+02  0.43590370487E+02  0.00000000000E+00 0.  1.
          2    1    1    2  501    0  0.11977009133E+02 -0.25608245626E+02 -0.29122187351E+02  0.40587347634E+02  0.00000000000E+00 0. -1.
<scales pt_clust_5="13000.00000" pt_clust_6="13000.00000" pt_clust_7="13000.00000" pt_clust_8="13000.00000" pt_clust_9="28.27067"></scales>
<clustering>
<clus scale="   28.271">  2  9  1 -1</clus>
<clus scale="   82.127">  5  6 -1 -1</clus>
<clus scale="   91.325">  7  8 -1 -1</clus>
<clus scale="   93.807">  2  5  1 -1</clus>
<clus scale="   28.271">  2  5  1 -1</clus>
</clustering>
</event>
<event>
 9    1  0.5981539E-005  0.2040072E+03  0.7546771E-02  0.1148188E+00
         21   -1    0    0  501  502  0.00000000000E+00  0.00000000000E+00  0.70531033746E+02  0.70531033746E+02  0.00000000000E+00 0. -1.
          1   -1    0    0  502    0 -0.00000000000E+00 -0.00000000000E+00 -0.13018977432E+04  0.13018977432E+04  0.00000000000E+00 0. -1.
         23    2    1    2    0    0 -0.61594549951E+02 -0.16278976548E+03 -0.78934452769E+03  0.81334348912E+03  0.90379486456E+02 0.  0.
        -24    2    1    2    0    0  0.39524562005E+02  0.16855730476E+03 -0.47620868081E+03  0.51798704455E+03  0.10752727399E+03 0.  0.
         13    1    4    4    0    0 -0.27774637113E+02  0.33632769547E+02 -0.52529561926E+02  0.68278463152E+02  0.00000000000E+00 0. -1.
        -14    1    4    4    0    0  0.67299199118E+02  0.13492453521E+03 -0.42367911888E+03  0.44970858140E+03  0.00000000000E+00 0.  1.
        -13    1    3    3    0    0 -0.78833244875E+02 -0.82958315613E+02 -0.45725453307E+03  0.47135811294E+03  0.00000000000E+00 0.  1.
         13    1    3    3    0    0  0.17238694924E+02 -0.79831449871E+02 -0.33208999462E+03  0.34198537617E+03  0.00000000000E+00 0. -1.
          2    1    1    2  501    0  0.22069987946E+02 -0.57675392780E+01  0.34186499086E+02  0.41098243235E+02  0.00000000000E+00 0. -1.
<scales pt_clust_5="13000.00000" pt_clust_6="13000.00000" pt_clust_7="13000.00000" pt_clust_8="13000.00000" pt_clust_9="22.81116"></scales>
<clustering>
<clus scale="   22.811">  1  9  2 -1</clus>
<clus scale="   90.379">  7  8 -1 -1</clus>
<clus scale="  107.527">  5  6 -1 -1</clus>
<clus scale="  195.513">  2  7  1 -1</clus>
<clus scale="   22.811">  1  5  2 -1</clus>
</clustering>
</event>
<event>
 9    1  0.5981539E-005  0.1402187E+03  0.7546771E-02  0.1228428E+00
         21   -1    0    0  501  502  0.00000000000E+00  0.00000000000E+00  0.61622481508E+02  0.61622481508E+02  0.00000000000E+00 0. -1.
          3   -1    0    0  502    0 -0.00000000000E+00 -0.00000000000E+00 -0.59807202331E+03  0.59807202331E+03  0.00000000000E+00 0. -1.
         23    2    1    2    0    0 -0.88829868592E+01 -0.35971919218E+02 -0.15244151663E+03  0.18315949643E+03  0.94530940508E+02 0.  0.
        -24    2    1    2    0    0  0.12075482858E+03  0.23319138734E+02 -0.30561363236E+03  0.33934505741E+03  0.81423982019E+02 0.  0.
         11    1    4    4    0    0  0.12811723320E+03  0.79584042632E+01 -0.24779443762E+03  0.27906888927E+03  0.00000000000E+00 0. -1.
        -12    1    4    4    0    0 -0.73624046253E+01  0.15360734470E+02 -0.57819194748E+02  0.60276168148E+02  0.00000000000E+00 0.  1.
        -11    1    3    3    0    0 -0.28564569607E+02 -0.17868859576E+02 -0.59095817345E+01  0.34207512854E+02  0.00000000000E+00 0.  1.
         11    1    3    3    0    0  0.19681582748E+02 -0.18103059643E+02 -0.14653193490E+03  0.14895198358E+03  0.00000000000E+00 0. -1.
          4    1    1    2  501    0 -0.11187184172E+03  0.12652780485E+02 -0.78394392805E+02  0.13718995097E+03  0.00000000000E+00 0. -1.
<scales pt_clust_5="13000.00000" pt_clust_6="13000.00000" pt_clust_7="13000.00000" pt_clust_8="13000.00000" pt_clust_9="114.15530"></scales>
<clustering>
<clus scale="   81.424">  5  6 -1 -1</clus>
<clus scale="   94.531">  7  8 -1 -1</clus>
<clus scale="  101.533">  2  7  1 -1</clus>
<clus scale="  114.155">  1  9  2 -1</clus>
<clus scale="  114.155">  1  5  2 -1</clus>
</clustering>
</event>
<event>
 9    1  0.6372786E-005  0.1455547E+03  0.7546771E-02  0.1208267E+00
         21   -1    0    0  501  502  0.00000000000E+00  0.00000000000E+00  0.21919962414E+03  0.21919962414E+03  0.00000000000E+00 0.  1.
          1   -1    0    0  502    0 -0.00000000000E+00 -0.00000000000E+00 -0.46552403780E+03  0.46552403780E+03  0.00000000000E+00 0. -1.
         23    2    1    2    0    0  0.92932311658E+02 -0.49739761949E+02 -0.23138346489E+03  0.27085719024E+03  0.93353367421E+02 0.  0.
        -24    2    1    2    0    0 -0.15551322154E+03  0.75688326309E+02  0.14493916455E+03  0.24022503394E+03  0.82387017771E+02 0.  0.
         11    1    4    4    0    0 -0.88106291390E+02 -0.24008903030E+01  0.60358669677E+02  0.10682533343E+03  0.00000000000E+00 0. -1.
        -12    1    4    4    0    0 -0.67406930146E+02  0.78089216612E+02  0.84580494872E+02  0.13339970051E+03  0.00000000000E+00 0.  1.
        -11    1    3    3    0    0  0.10524638513E+03 -0.22460918827E+02 -0.15389623839E+03  0.18779069905E+03  0.00000000000E+00 0. -1.
         11    1    3    3    0    0 -0.12314073475E+02 -0.27278843121E+02 -0.77487226501E+02  0.83066491189E+02  0.00000000000E+00 0.  1.
          2    1    1    2  501    0  0.62580909878E+02 -0.25948564360E+02 -0.15988011332E+03  0.17364143776E+03  0.00000000000E+00 0. -1.
<scales pt_clust_5="13000.00000" pt_clust_6="13000.00000" pt_clust_7="13000.00000" pt_clust_8="13000.00000" pt_clust_9="67.74735"></scales>
<clustering>
<clus scale="   67.747">  1  9  2 -1</clus>
<clus scale="   82.387">  5  6 -1 -1</clus>
<clus scale="   93.353">  7  8 -1 -1</clus>
<clus scale="  138.777">  1  5  2 -1</clus>
<clus scale="   67.747">  1  5  2 -1</clus>
</clustering>
</event>
<event>
 9    1  0.5981539E-005  0.1257103E+03  0.7546771E-02  0.1248627E+00
          1   -1    0    0  502    0 -0.00000000000E+00  0.00000000000E+00  0.29539641886E+03  0.29539641886E+03  0.00000000000E+00 0. -1.
         21   -1    0    0  501  502  0.00000000000E+00 -0.00000000000E+00 -0.14282845989E+03  0.14282845989E+03  0.00000000000E+00 0.  1.
         23    2    1    2    0    0  0.12762001217E+02  0.10356213745E+02  0.18059072759E+03  0.20330982524E+03  0.91933423241E+02 0.  0.
        -24    2    1    2    0    0 -0.21150757410E+02  0.91387898931E+02 -0.45394849918E+02  0.13135818554E+03  0.79969856199E+02 0.  0.
         13    1    4    4    0    0  0.23737621042E+02  0.13353102564E+02 -0.29125004235E+02  0.39875379277E+02  0.00000000000E+00 0. -1.
        -14    1    4    4    0    0 -0.44888378452E+02  0.78034796366E+02 -0.16269845683E+02  0.91482806267E+02  0.00000000000E+00 0.  1.
        -11    1    3    3    0    0  0.52233982666E+02  0.31584735085E+01  0.87725129694E+02  0.10214726271E+03  0.00000000000E+00 0. -1.
         11    1    3    3    0    0 -0.39471981449E+02  0.71977402365E+01  0.92865597901E+02  0.10116256253E+03  0.00000000000E+00 0.  1.
          2    1    1    2  501    0  0.83887561935E+01 -0.10174411268E+03  0.17372081292E+02  0.10355686797E+03  0.00000000000E+00 0. -1.
<scales pt_clust_5="13000.00000" pt_clust_6="13000.00000" pt_clust_7="13000.00000" pt_clust_8="13000.00000" pt_clust_9="96.99443"></scales>
<clustering>
<clus scale="   79.970">  5  6 -1 -1</clus>
<clus scale="   91.933">  7  8 -1 -1</clus>
<clus scale="   93.391">  1  7  2 -1</clus>
<clus scale="   96.994">  2  9  1 -1</clus>
<clus scale="   96.994">  2  5  1 -1</clus>
</clustering>
</event>
<event>
 9    1  0.5981539E-005  0.1853538E+03  0.7546771E-02  0.1164275E+00
         21   -1    0    0  501  502  0.00000000000E+00  0.00000000000E+00  0.15212287842E+03  0.15212287842E+03  0.00000000000E+00 0.  1.
          1   -1    0    0  502    0 -0.00000000000E+00 -0.00000000000E+00 -0.57636912044E+03  0.57636912044E+03  0.00000000000E+00 0. -1.
        -24    2    1    2    0    0 -0.97216890539E+02  0.13015342349E+03 -0.48365230621E+03  0.51631596252E+03  0.79193322925E+02 0.  0.
         23    2    1    2    0    0  0.71437681623E+02 -0.12887683620E+03  0.37350935618E+02  0.17822569049E+03  0.93041512742E+02 0.  0.
         11    1    3    3    0    0  0.66966015198E+01  0.44105038684E+02 -0.14753674124E+03  0.15413367226E+03  0.00000000000E+00 0. -1.
        -12    1    3    3    0    0 -0.10391349206E+03  0.86048384801E+02 -0.33611556497E+03  0.36218229026E+03  0.00000000000E+00 0.  1.
        -13    1    4    4    0    0  0.38138324666E+02 -0.26568578159E+00 -0.57208215601E+01  0.38565920144E+02  0.00000000000E+00 0. -1.
         13    1    4    4    0    0  0.33299356957E+02 -0.12861115042E+03  0.43071757178E+02  0.13965977034E+03  0.00000000000E+00 0.  1.
          2    1    1    2  501    0  0.25779208916E+02 -0.12765872852E+01  0.22055128575E+02  0.33950345858E+02  0.00000000000E+00 0. -1.
<scales pt_clust_5="13000.00000" pt_clust_6="13000.00000" pt_clust_7="13000.00000" pt_clust_8="13000.00000" pt_clust_9="25.81080"></scales>
<clustering>
<clus scale="   25.811">  1  9  2 -1</clus>
<clus scale="   79.193">  5  6 -1 -1</clus>
<clus scale="   93.042">  7  8 -1 -1</clus>
<clus scale="  178.804">  2  5  1 -1</clus>
<clus scale="   25.811">  1  5  2 -1</clus>
</clustering>
</event>
<event>
 9    1  0.5981539E-005  0.2615825E+03  0.7546771E-02  0.1106538E+00
         21   -1    0    0  501  502  0.00000000000E+00  0.00000000000E+00  0.91964805851E+03  0.91964805851E+03  0.00000000000E+00 0.  1.
          1   -1    0    0  502    0 -0.00000000000E+00 -0.00000000000E+00 -0.36958037138E+03  0.36958037138E+03  0.00000000000E+00 0. -1.
        -24    2    1    2    0    0  0.22814490434E+01 -0.23889255472E+03 -0.27724681416E+03  0.37932202089E+03  0.99722323758E+02 0.  0.
         23    2    1    2    0    0 -0.65157136546E+02  0.27632840877E+03  0.58751040072E+03  0.65918584364E+03  0.93566359108E+02 0.  0.
         13    1    3    3    0    0 -0.42312184031E+02 -0.17783810612E+03 -0.18548966761E+03  0.26042874207E+03  0.00000000000E+00 0. -1.
        -14    1    3    3    0    0  0.44593633075E+02 -0.61054448608E+02 -0.91757146551E+02  0.11889327882E+03  0.00000000000E+00 0.  1.
        -13    1    4    4    0    0 -0.57225949097E+02  0.93871853391E+02  0.15825314899E+03  0.19269352162E+03  0.00000000000E+00 0. -1.
         13    1    4    4    0    0 -0.79311874497E+01  0.18245655538E+03  0.42925725173E+03  0.46649232202E+03  0.00000000000E+00 0.  1.
          2    1    1    2  501    0  0.62875687503E+02 -0.37435854049E+02  0.23980410057E+03  0.25072056536E+03  0.00000000000E+00 0. -1.
<scales pt_clust_5="13000.00000" pt_clust_6="13000.00000" pt_clust_7="13000.00000" pt_clust_8="13000.00000" pt_clust_9="73.17647"></scales>
<clustering>
<clus scale="   73.176">  1  9  2 -1</clus>
<clus scale="   93.566">  7  8 -1 -1</clus>
<clus scale="   99.722">  5  6 -1 -1</clus>
<clus scale="  259.298">  1  7  2 -1</clus>
<clus scale="   73.176">  1  5  2 -1</clus>
</clustering>
</event>
<event>
 9    1  0.5981539E-005  0.1937264E+03  0.7546771E-02  0.1156182E+00
          3   -1    0    0  502    0 -0.00000000000E+00  0.00000000000E+00  0.91355584096E+02  0.91355584096E+02  0.00000000000E+00 0. -1.
         21   -1    0    0  501  502  0.00000000000E+00 -0.00000000000E+00 -0.11642342321E+04  0.11642342321E+04  0.00000000000E+00 0.  1.
        -24    2    1    2    0    0 -0.14461844063E+03 -0.89952173332E+02 -0.31989611167E+02  0.19075719854E+03  0.79743881983E+02 0.  0.
         23    2    1    2    0    0  0.16264573568E+03  0.80119749607E+02 -0.90378804323E+03  0.92620238152E+03  0.90250843991E+02 0.  0.
         11    1    3    3    0    0 -0.12446956790E+03 -0.46360743102E+02 -0.46277153314E+02  0.14065406767E+03  0.00000000000E+00 0. -1.
        -12    1    3    3    0    0 -0.20148872731E+02 -0.43591430231E+02  0.14287542147E+02  0.50103130865E+02  0.00000000000E+00 0.  1.
        -11    1    4    4    0    0  0.34095327905E+02  0.16313687818E+02 -0.64714016350E+02  0.74943523452E+02  0.00000000000E+00 0. -1.
         11    1    4    4    0    0  0.12855040777E+03  0.63806061789E+02 -0.83907402688E+03  0.85125885807E+03  0.00000000000E+00 0.  1.
          4    1    1    2  501    0 -0.18027295049E+02  0.98324237252E+01 -0.13710099361E+03  0.13863023614E+03  0.00000000000E+00 0. -1.
<scales pt_clust_5="13000.00000" pt_clust_6="13000.00000" pt_clust_7="13000.00000" pt_clust_8="13000.00000" pt_clust_9="20.53436"></scales>
<clustering>
<clus scale="   20.534">  2  9  1 -1</clus>
<clus scale="   79.744">  5  6 -1 -1</clus>
<clus scale="   90.251">  7  8 -1 -1</clus>
<clus scale="  189.060">  1  5  2 -1</clus>
<clus scale="   20.534">  2  5  1 -1</clus>
</clustering>
</event>
<event>
 9    1  0.5981539E-005  0.1312277E+03  0.7546771E-02  0.1228342E+00
          3   -1    0    0  502    0 -0.00000000000E+00  0.00000000000E+00  0.32527497211E+03  0.32527497211E+03  0.00000000000E+00 0. -1.
         21   -1    0    0  501  502  0.00000000000E+00 -0.00000000000E+00 -0.26414522929E+03  0.26414522929E+03  0.00000000000E+00 0. -1.
         23    2    1    2    0    0  0.51737890029E+02  0.59962862167E+02  0.23392167909E+03  0.26315706965E+03  0.90884196940E+02 0.  0.
        -24    2    1    2    0    0 -0.71586103987E+02 -0.85553910752E+02  0.37672037484E+00  0.15009208701E+03  0.10041638679E+03 0.  0.
         13    1    4    4    0    0 -0.14978772440E+01 -0.69609810112E+02  0.25202357734E+02  0.74046796929E+02  0.00000000000E+00 0. -1.
        -14    1    4    4    0    0 -0.70088226743E+02 -0.15944100640E+02 -0.24825637359E+02  0.76045290081E+02  0.00000000000E+00 0.  1.
        -13    1    3    3    0    0  0.57010176369E+02  0.35557113600E+02  0.22772582866E+03  0.23743108805E+03  0.00000000000E+00 0.  1.
         13    1    3    3    0    0 -0.52722863400E+01  0.24405748567E+02  0.61958504332E+01  0.25725981593E+02  0.00000000000E+00 0. -1.
          4    1    1    2  501    0  0.19848213958E+02  0.25591048585E+02 -0.17316865664E+03  0.17617104475E+03  0.00000000000E+00 0. -1.
<scales pt_clust_5="13000.00000" pt_clust_6="13000.00000" pt_clust_7="13000.00000" pt_clust_8="13000.00000" pt_clust_9="32.38601"></scales>
<clustering>
<clus scale="   32.386">  2  9  1 -1</clus>
<clus scale="   90.884">  7  8 -1 -1</clus>
<clus scale="  100.416">  5  6 -1 -1</clus>
<clus scale="  124.085">  1  7  2 -1</clus>
<clus scale="   32.386">  2  5  1 -1</clus>
</clustering>
</event>
<event>
 9    1  0.5981539E-005  0.1707998E+03  0.7546771E-02  0.1179055E+00
         -2   -1    0    0    0  501 -0.00000000000E+00  0.00000000000E+00  0.64667138808E+03  0.64667138808E+03  0.00000000000E+00 0.  1.
         21   -1    0    0  501  502  0.00000000000E+00 -0.00000000000E+00 -0.85112839912E+02  0.85112839912E+02  0.00000000000E+00 0.  1.
         23    2    1    2    0    0  0.10573625537E+03 -0.12399771067E+03  0.47708510804E+03  0.51236135221E+03  0.91369398448E+02 0.  0.
        -24    2    1    2    0    0 -0.38131423985E+02  0.90408954990E+02  0.34369556306E+02  0.12881925053E+03  0.76061476900E+02 0.  0.
         11    1    4    4    0    0 -0.20102792722E+02  0.82334656777E+02  0.54381434052E+02  0.10069984286E+03  0.00000000000E+00 0. -1.
        -12    1    4    4    0    0 -0.18028631263E+02  0.80742982132E+01 -0.20011877746E+02  0.28119407671E+02  0.00000000000E+00 0.  1.
        -11    1    3    3    0    0  0.81825559967E+02 -0.43586997859E+02  0.33268375906E+03  0.34536029330E+03  0.00000000000E+00 0.  1.
         11    1    3    3    0    0  0.23910695407E+02 -0.80410712811E+02  0.14440134898E+03  0.16700105891E+03  0.00000000000E+00 0. -1.
         -1    1    1    2    0  502 -0.67604831389E+02  0.33588755680E+02  0.50103883822E+02  0.90603625255E+02  0.00000000000E+00 0.  1.
<scales pt_clust_5="13000.00000" pt_clust_6="13000.00000" pt_clust_7="13000.00000" pt_clust_8="13000.00000" pt_clust_9="75.48919"></scales>
<clustering>
<clus scale="   75.489">  2  9  1 -1</clus>
<clus scale="   76.061">  5  6 -1 -1</clus>
<clus scale="   91.369">  7  8 -1 -1</clus>
<clus scale="  163.124">  2  5  1 -1</clus>
<clus scale="   75.489">  2  5  1 -1</clus>
</clustering>
</event>
<event>
 9    1  0.5981539E-005  0.9994085E+02  0.7546771E-02  0.1283942E+00
         21   -1    0    0  501  502  0.00000000000E+00  0.00000000000E+00  0.31257291268E+03  0.31257291268E+03  0.00000000000E+00 0. -1.
          3   -1    0    0  502    0 -0.00000000000E+00 -0.00000000000E+00 -0.57121064451E+02  0.57121064451E+02  0.00000000000E+00 0. -1.
         23    2    1    2    0    0  0.41243013182E+02  0.15679500680E+02  0.10297090436E+03  0.14212253677E+03  0.87458421188E+02 0.  0.
        -24    2    1    2    0    0 -0.33106397420E+02 -0.50682574551E+02  0.16186124801E+03  0.19043103376E+03  0.80000988107E+02 0.  0.
         11    1    4    4    0    0 -0.37618411473E+02  0.49000622706E+01  0.10097613383E+03  0.10786721047E+03  0.00000000000E+00 0. -1.
        -12    1    4    4    0    0  0.45120140529E+01 -0.55582636821E+02  0.60885114174E+02  0.82563823281E+02  0.00000000000E+00 0.  1.
        -13    1    3    3    0    0  0.48503850002E+02 -0.18650851680E+02  0.91461271013E+02  0.10519335449E+03  0.00000000000E+00 0. -1.
         13    1    3    3    0    0 -0.72608368194E+01  0.34330352360E+02  0.11509633346E+02  0.36929182284E+02  0.00000000000E+00 0.  1.
          4    1    1    2  501    0 -0.81366157625E+01  0.35003073871E+02 -0.93803041397E+01  0.37140406597E+02  0.00000000000E+00 0. -1.
<scales pt_clust_5="13000.00000" pt_clust_6="13000.00000" pt_clust_7="13000.00000" pt_clust_8="13000.00000" pt_clust_9="35.93635"></scales>
<clustering>
<clus scale="   35.936">  1  9  2 -1</clus>
<clus scale="   80.001">  5  6 -1 -1</clus>
<clus scale="   87.458">  7  8 -1 -1</clus>
<clus scale="   93.485">  1  5  2 -1</clus>
<clus scale="   35.936">  1  5  2 -1</clus>
</clustering>
</event>
<event>
 9    1  0.5981539E-005  0.1214196E+03  0.7546771E-02  0.1250897E+00
         21   -1    0    0  501  502  0.00000000000E+00  0.00000000000E+00  0.73469739018E+02  0.73469739018E+02  0.00000000000E+00 0. -1.
         -2   -1    0    0    0  501 -0.00000000000E+00 -0.00000000000E+00 -0.28532251008E+03  0.28532251008E+03  0.00000000000E+00 0.  1.
        -24    2    1    2    0    0 -0.53104003906E+02 -0.28313072517E+02 -0.16522405764E+03  0.19381223452E+03  0.81501703775E+02 0.  0.
         23    2    1    2    0    0  0.50781316352E+02  0.30631899818E+00 -0.60691011497E+02  0.13355516219E+03  0.10758599607E+03 0.  0.
         13    1    3    3    0    0  0.90447566854E+01 -0.32162541357E+02 -0.29843149337E+02  0.44797882231E+02  0.00000000000E+00 0. -1.
        -14    1    3    3    0    0 -0.62148760592E+02  0.38494688400E+01 -0.13538090831E+03  0.14901435229E+03  0.00000000000E+00 0.  1.
        -11    1    4    4    0    0  0.32145656932E+02 -0.18138499373E+02  0.24578947372E+02  0.44344932890E+02  0.00000000000E+00 0. -1.
         11    1    4    4    0    0  0.18635659419E+02  0.18444818371E+02 -0.85269958868E+02  0.89210229302E+02  0.00000000000E+00 0.  1.
         -1    1    1    2    0  502  0.23226875547E+01  0.28006753519E+02  0.14062298081E+02  0.31424852386E+02  0.00000000000E+00 0.  1.
<scales pt_clust_5="13000.00000" pt_clust_6="13000.00000" pt_clust_7="13000.00000" pt_clust_8="13000.00000" pt_clust_9="28.10290"></scales>
<clustering>
<clus scale="   28.103">  1  9  2 -1</clus>
<clus scale="   81.502">  5  6 -1 -1</clus>
<clus scale="   99.048">  2  5  1 -1</clus>
<clus scale="  107.586">  7  8 -1 -1</clus>
<clus scale="   28.103">  1  5  2 -1</clus>
</clustering>
</event>
<event>
 9    1  0.5981539E-005  0.1045669E+03  0.7546771E-02  0.1275605E+00
         21   -1    0    0  501  502  0.00000000000E+00  0.00000000000E+00  0.45660733276E+02  0.45660733276E+02  0.00000000000E+00 0.  1.
          1   -1    0    0  502    0 -0.00000000000E+00 -0.00000000000E+00 -0.32405570499E+03  0.32405570499E+03  0.00000000000E+00 0. -1.
         23    2    1    2    0    0 -0.10293189224E+02 -0.51519911905E+02 -0.17941192866E+03  0.20792690602E+03  0.91020366034E+02 0.  0.
        -24    2    1    2    0    0  0.38205614177E+02  0.39741637533E+02 -0.74677330457E+02  0.12294884638E+03  0.80626598798E+02 0.  0.
         13    1    4    4    0    0  0.34812640156E+02  0.64171135603E+02 -0.55511477133E+02  0.91713568531E+02  0.00000000000E+00 0. -1.
        -14    1    4    4    0    0  0.33929740210E+01 -0.24429498071E+02 -0.19165853324E+02  0.31235277849E+02  0.00000000000E+00 0.  1.
        -11    1    3    3    0    0 -0.49691620900E+02 -0.18598420770E+02 -0.10308989539E+03  0.11594259344E+03  0.00000000000E+00 0. -1.
         11    1    3    3    0    0  0.39398431676E+02 -0.32921491135E+02 -0.76322033268E+02  0.91984312572E+02  0.00000000000E+00 0.  1.
          2    1    1    2  501    0 -0.27912424953E+02  0.11778274372E+02 -0.24305712597E+02  0.38840685870E+02  0.00000000000E+00 0. -1.
<scales pt_clust_5="13000.00000" pt_clust_6="13000.00000" pt_clust_7="13000.00000" pt_clust_8="13000.00000" pt_clust_9="30.29573"></scales>
<clustering>
<clus scale="   30.296">  1  9  2 -1</clus>
<clus scale="   80.627">  5  6 -1 -1</clus>
<clus scale="   91.020">  7  8 -1 -1</clus>
<clus scale="   95.657">  1  5  2 -1</clus>
<clus scale="   30.296">  1  5  2 -1</clus>
</clustering>
</event>
<event>
 9    1  0.5981539E-005  0.1802315E+03  0.7546771E-02  0.1169562E+00
          1   -1    0    0  502    0 -0.00000000000E+00  0.00000000000E+00  0.85049153248E+03  0.85049153248E+03  0.00000000000E+00 0. -1.
         21   -1    0    0  501  502  0.00000000000E+00 -0.00000000000E+00 -0.55210433391E+02  0.55210433391E+02  0.00000000000E+00 0. -1.
        -24    2    1    2    0    0  0.13346763779E+03  0.51901163321E+02  0.40007592780E+03  0.43231483233E+03  0.79548885354E+02 0.  0.
         23    2    1    2    0    0 -0.16454908867E+03 -0.59642035532E+02  0.22710132289E+03  0.30225887305E+03  0.95665252267E+02 0.  0.
         13    1    3    3    0    0  0.66616809729E+02  0.16314975258E+01  0.95415229405E+02  0.11638095688E+03  0.00000000000E+00 0. -1.
        -14    1    3    3    0    0  0.66850828056E+02  0.50269665795E+02  0.30466069839E+03  0.31593387545E+03  0.00000000000E+00 0.  1.
        -11    1    4    4    0    0 -0.10294583479E+03 -0.80148239550E+02  0.12141481441E+03  0.17822217135E+03  0.00000000000E+00 0.  1.
         11    1    4    4    0    0 -0.61603253888E+02  0.20506204017E+02  0.10568650848E+03  0.12403670170E+03  0.00000000000E+00 0. -1.
          2    1    1    2  501    0  0.31081450888E+02  0.77408722113E+01  0.16810384840E+03  0.17112826049E+03  0.00000000000E+00 0. -1.
<scales pt_clust_5="13000.00000" pt_clust_6="13000.00000" pt_clust_7="13000.00000" pt_clust_8="13000.00000" pt_clust_9="32.03090"></scales>
<clustering>
<clus scale="   32.031">  2  9  1 -1</clus>
<clus scale="   79.549">  5  6 -1 -1</clus>
<clus scale="   95.665">  7  8 -1 -1</clus>
<clus scale="  172.220">  1  5  2 -1</clus>
<clus scale="   32.031">  2  5  1 -1</clus>
</clustering>
</event>
<event>
 9    1  0.5981539E-005  0.1369389E+03  0.7546771E-02  0.1225618E+00
         21   -1    0    0  501  502  0.00000000000E+00  0.00000000000E+00  0.62053356297E+03  0.62053356297E+03  0.00000000000E+00 0.  1.
         -2   -1    0    0    0  501 -0.00000000000E+00 -0.00000000000E+00 -0.77055882760E+02  0.77055882760E+02  0.00000000000E+00 0.  1.
        -24    2    1    2    0    0  0.18752683832E+02  0.78375700409E+02  0.38765381811E+02  0.12187987693E+03  0.82810240960E+02 0.  0.
         23    2    1    2    0    0  0.34794610339E+02  0.66517315547E+02  0.27099380750E+03  0.29555669665E+03  0.90999445361E+02 0.  0.
         11    1    3    3    0    0  0.50032133584E+01  0.20169186927E+02  0.55922953791E+02  0.59659073123E+02  0.00000000000E+00 0. -1.
        -12    1    3    3    0    0  0.13749470474E+02  0.58206513482E+02 -0.17157571980E+02  0.62220803806E+02  0.00000000000E+00 0.  1.
        -13    1    4    4    0    0  0.38762970099E+02 -0.87722050975E+01  0.12619764932E+03  0.13230784606E+03  0.00000000000E+00 0. -1.
         13    1    4    4    0    0 -0.39683597603E+01  0.75289520644E+02  0.14479615817E+03  0.16324885059E+03  0.00000000000E+00 0.  1.
         -1    1    1    2    0  502 -0.53547294171E+02 -0.14489301596E+03  0.23371849091E+03  0.28015287216E+03  0.00000000000E+00 0.  1.
<scales pt_clust_5="13000.00000" pt_clust_6="13000.00000" pt_clust_7="13000.00000" pt_clust_8="13000.00000" pt_clust_9="102.32974"></scales>
<clustering>
<clus scale="   82.810">  5  6 -1 -1</clus>
<clus scale="   90.999">  7  8 -1 -1</clus>
<clus scale="  115.551">  2  5  1 -1</clus>
<clus scale="  102.330">  1  9  2 -1</clus>
<clus scale="  102.330">  1  5  2 -1</clus>
</clustering>
</event>
<event>
 9    1  0.5981539E-005  0.1652077E+03  0.7546771E-02  0.1184889E+00
         21   -1    0    0  501  502  0.00000000000E+00  0.00000000000E+00  0.56762591962E+02  0.56762591962E+02  0.00000000000E+00 0. -1.
          1   -1    0    0  502    0 -0.00000000000E+00 -0.00000000000E+00 -0.77777410934E+03  0.77777410934E+03  0.00000000000E+00 0. -1.
        -24    2    1    2    0    0 -0.39546240351E+02 -0.12702937499E+03 -0.58284591023E+03  0.60662390126E+03  0.10287290837E+03 0.  0.
         23    2    1    2    0    0  0.59713194392E+02  0.10373535483E+03 -0.11445717277E+03  0.18903597826E+03  0.91145308464E+02 0.  0.
         13    1    3    3    0    0 -0.19698105289E+02 -0.14164069173E+03 -0.47884786743E+03  0.49974531618E+03  0.00000000000E+00 0. -1.
        -14    1    3    3    0    0 -0.19848135062E+02  0.14611316740E+02 -0.10399804280E+03  0.10687858508E+03  0.00000000000E+00 0.  1.
        -13    1    4    4    0    0  0.20083612689E+02  0.45834192714E+02 -0.10743933102E+03  0.11852145194E+03  0.00000000000E+00 0.  1.
         13    1    4    4    0    0  0.39629581703E+02  0.57901162111E+02 -0.70178417486E+01  0.70514526323E+02  0.00000000000E+00 0. -1.
          2    1    1    2  501    0 -0.20166954042E+02  0.23294020166E+02 -0.23708434390E+02  0.38876821784E+02  0.00000000000E+00 0. -1.
<scales pt_clust_5="13000.00000" pt_clust_6="13000.00000" pt_clust_7="13000.00000" pt_clust_8="13000.00000" pt_clust_9="30.81099"></scales>
<clustering>
<clus scale="   30.811">  1  9  2 -1</clus>
<clus scale="   91.145">  7  8 -1 -1</clus>
<clus scale="  102.873">  5  6 -1 -1</clus>
<clus scale="  158.171">  1  7  2 -1</clus>
<clus scale="   30.811">  1  5  2 -1</clus>
</clustering>
</event>
<event>
 9    1  0.5981539E-005  0.1363835E+03  0.7546771E-02  0.1220478E+00
          1   -1    0    0  502    0 -0.00000000000E+00  0.00000000000E+00  0.28591559443E+03  0.28591559443E+03  0.00000000000E+00 0. -1.
         21   -1    0    0  501  502  0.00000000000E+00 -0.00000000000E+00 -0.11604640922E+03  0.11604640922E+03  0.00000000000E+00 0.  1.
        -24    2    1    2    0    0 -0.12457629924E+02  0.10547896884E+03  0.96569334190E+02  0.16534667149E+03  0.82054128804E+02 0.  0.
         23    2    1    2    0    0  0.82029151635E+02 -0.73693686666E+02  0.71404058394E+02  0.16010327543E+03  0.91514906310E+02 0.  0.
         11    1    3    3    0    0 -0.34023504805E+02  0.82088356264E+02  0.99492614492E+02  0.13339744170E+03  0.00000000000E+00 0. -1.
        -12    1    3    3    0    0  0.21565874881E+02  0.23390612579E+02 -0.29232803015E+01  0.31949229787E+02  0.00000000000E+00 0.  1.
        -13    1    4    4    0    0  0.53323129826E+02 -0.41973599853E+02 -0.95603021682E+01  0.68531296767E+02  0.00000000000E+00 0.  1.
         13    1    4    4    0    0  0.28706021809E+02 -0.31720086813E+02  0.80964360562E+02  0.91571978666E+02  0.00000000000E+00 0. -1.
          2    1    1    2  501    0 -0.69571521712E+02 -0.31785282178E+02  0.18957926286E+01  0.76512056737E+02  0.00000000000E+00 0. -1.
<scales pt_clust_5="13000.00000" pt_clust_6="13000.00000" pt_clust_7="13000.00000" pt_clust_8="13000.00000" pt_clust_9="76.48857"></scales>
<clustering>
<clus scale="   76.489">  2  9  1 -1</clus>
<clus scale="   82.054">  5  6 -1 -1</clus>
<clus scale="   91.515">  7  8 -1 -1</clus>
<clus scale="  130.224">  1  5  2 -1</clus>
<clus scale="   76.489">  2  5  1 -1</clus>
</clustering>
</event>
<event>
 9    1  0.5981539E-005  0.1398892E+03  0.7546771E-02  0.1229051E+00
          1   -1    0    0  502    0 -0.00000000000E+00  0.00000000000E+00  0.63536210159E+03  0.63536210159E+03  0.00000000000E+00 0. -1.
         21   -1    0    0  501  502  0.00000000000E+00 -0.00000000000E+00 -0.67248797023E+02  0.67248797023E+02  0.00000000000E+00 0. -1.
         23    2    1    2    0    0 -0.41459159801E+02 -0.20630657648E+02  0.34907091126E+02  0.10680737225E+03  0.89692941690E+02 0.  0.
        -24    2    1    2    0    0  0.11928483737E+03 -0.52821352444E+02  0.23570753311E+03  0.27964296798E+03  0.74987870221E+02 0.  0.
         11    1    4    4    0    0  0.10937825282E+03 -0.65730118670E+02  0.22877015533E+03  0.26195387888E+03  0.00000000000E+00 0. -1.
        -12    1    4    4    0    0  0.99065845510E+01  0.12908766226E+02  0.69373777733E+01  0.17689089104E+02  0.00000000000E+00 0.  1.
        -11    1    3    3    0    0  0.23351548866E+02 -0.24573216048E+02  0.18578368247E+01  0.33949806171E+02  0.00000000000E+00 0.  1.
         11    1    3    3    0    0 -0.64810708667E+02  0.39425584000E+01  0.33049254301E+02  0.72857566076E+02  0.00000000000E+00 0. -1.
          2    1    1    2  501    0 -0.77825677567E+02  0.73452010092E+02  0.29749868033E+03  0.31616055838E+03  0.00000000000E+00 0. -1.
<scales pt_clust_5="13000.00000" pt_clust_6="13000.00000" pt_clust_7="13000.00000" pt_clust_8="13000.00000" pt_clust_9="118.09246"></scales>
<clustering>
<clus scale="   74.988">  5  6 -1 -1</clus>
<clus scale="   89.693">  7  8 -1 -1</clus>
<clus scale="  100.942">  1  7  2 -1</clus>
<clus scale="  118.092">  2  9  1 -1</clus>
<clus scale="  118.092">  2  5  1 -1</clus>
</clustering>
</event>
<event>
 9    1  0.5981539E-005  0.1121767E+03  0.7546771E-02  0.1265097E+00
         21   -1    0    0  501  502  0.00000000000E+00  0.00000000000E+00  0.48248317419E+02  0.48248317419E+02  0.00000000000E+00 0.  1.
         -4   -1    0    0    0  501 -0.00000000000E+00 -0.00000000000E+00 -0.43360290448E+03  0.43360290448E+03  0.00000000000E+00 0.  1.
         23    2    1    2    0    0  0.11879261530E+02  0.75190499993E+02 -0.28108061216E+03  0.30364982306E+03  0.86035901640E+02 0.  0.
        -24    2    1    2    0    0 -0.30585888093E+02 -0.54345496269E+02 -0.20984962792E+02  0.90329266758E+02  0.61887626022E+02 0.  0.
         13    1    4    4    0    0  0.14005862032E+01 -0.42293671081E+02 -0.33455086093E+02  0.53944036192E+02  0.00000000000E+00 0. -1.
        -14    1    4    4    0    0 -0.31986474296E+02 -0.12051825188E+02  0.12470123301E+02  0.36385230566E+02  0.00000000000E+00 0.  1.
        -13    1    3    3    0    0  0.32538801821E+02  0.80123631886E+02 -0.17195396690E+03  0.19247528866E+03  0.00000000000E+00 0.  1.
         13    1    3    3    0    0 -0.20659540291E+02 -0.49331318926E+01 -0.10912664526E+03  0.11117453440E+03  0.00000000000E+00 0. -1.
         -3    1    1    2    0  502  0.18706626563E+02 -0.20845003725E+02 -0.83289012113E+02  0.87872132080E+02  0.00000000000E+00 0.  1.
<scales pt_clust_5="13000.00000" pt_clust_6="13000.00000" pt_clust_7="13000.00000" pt_clust_8="13000.00000" pt_clust_9="28.00809"></scales>
<clustering>
<clus scale="   28.008">  1  9  2 -1</clus>
<clus scale="   61.888">  5  6 -1 -1</clus>
<clus scale="   86.036">  7  8 -1 -1</clus>
<clus scale="   94.929">  1  5  2 -1</clus>
<clus scale="   28.008">  1  5  2 -1</clus>
</clustering>
</event>
<event>
 9    1  0.5981539E-005  0.1839991E+03  0.7546771E-02  0.1189244E+00
         -2   -1    0    0    0  501 -0.00000000000E+00  0.00000000000E+00  0.66990038279E+03  0.66990038279E+03  0.00000000000E+00 0.  1.
         21   -1    0    0  501  502  0.00000000000E+00 -0.00000000000E+00 -0.58342683506E+03  0.58342683506E+03  0.00000000000E+00 0.  1.
        -24    2    1    2    0    0  0.14351511369E+02 -0.64515106825E+02  0.54761393030E+03  0.55739056208E+03  0.80218807960E+02 0.  0.
         23    2    1    2    0    0 -0.11761809496E+03 -0.63685923082E+02  0.41662776770E+02  0.16687096193E+03  0.90665417361E+02 0.  0.
         11    1    3    3    0    0  0.46057236294E+02 -0.22934523514E+02  0.25443392636E+03  0.25958406011E+03  0.00000000000E+00 0. -1.
        -12    1    3    3    0    0 -0.31705724925E+02 -0.41580583311E+02  0.29318000394E+03  0.29780650197E+03  0.00000000000E+00 0.  1.
        -11    1    4    4    0    0 -0.85416166687E+02 -0.27952533826E+02  0.67378639404E+02  0.11232607323E+03  0.00000000000E+00 0.  1.
         11    1    4    4    0    0 -0.32201928274E+02 -0.35733389256E+02 -0.25715862634E+02  0.54544888700E+02  0.00000000000E+00 0. -1.
         -1    1    1    2    0  502  0.10326658359E+03  0.12820102991E+03 -0.50280315934E+03  0.52906569384E+03  0.00000000000E+00 0.  1.
<scales pt_clust_5="13000.00000" pt_clust_6="13000.00000" pt_clust_7="13000.00000" pt_clust_8="13000.00000" pt_clust_9="160.11070"></scales>
<clustering>
<clus scale="   80.219">  5  6 -1 -1</clus>
<clus scale="   90.665">  7  8 -1 -1</clus>
<clus scale="  103.939">  1  5  2 -1</clus>
<clus scale="  160.111">  2  9  1 -1</clus>
<clus scale="  160.111">  2  5  1 -1</clus>
</clustering>
</event>
<event>
 9    1  0.5981539E-005  0.9163316E+02  0.7546771E-02  0.1305476E+00
          1   -1    0    0  502    0 -0.00000000000E+00  0.00000000000E+00  0.28958945110E+03  0.28958945110E+03  0.00000000000E+00 0. -1.
         21   -1    0    0  501  502  0.00000000000E+00 -0.00000000000E+00 -0.53257250352E+02  0.53257250352E+02  0.00000000000E+00 0. -1.
        -24    2    1    2    0    0 -0.21185252363E+01 -0.17764300629E+02  0.16149619824E+03  0.18071432715E+03  0.79098593328E+02 0.  0.
         23    2    1    2    0    0  0.26830267154E+02  0.11299396643E+02  0.91681754310E+02  0.13153426119E+03  0.89711639112E+02 0.  0.
         13    1    3    3    0    0 -0.41160129181E+01 -0.30576891833E+02  0.16452921409E+03  0.16739698374E+03  0.00000000000E+00 0. -1.
        -14    1    3    3    0    0  0.19974876818E+01  0.12812591203E+02 -0.30330158511E+01  0.13317343411E+02  0.00000000000E+00 0.  1.
        -13    1    4    4    0    0 -0.46528601754E+01  0.26199795008E+02 -0.64703608426E+01  0.27385104267E+02  0.00000000000E+00 0.  1.
         13    1    4    4    0    0  0.31483127329E+02 -0.14900398366E+02  0.98152115152E+02  0.10414915692E+03  0.00000000000E+00 0. -1.
          2    1    1    2  501    0 -0.24711741918E+02  0.64649039867E+01 -0.16845751803E+02  0.30598113111E+02  0.00000000000E+00 0. -1.
<scales pt_clust_5="13000.00000" pt_clust_6="13000.00000" pt_clust_7="13000.00000" pt_clust_8="13000.00000" pt_clust_9="25.54340"></scales>
<clustering>
<clus scale="   25.543">  2  9  1 -1</clus>
<clus scale="   79.099">  5  6 -1 -1</clus>
<clus scale="   81.271">  1  5  2 -1</clus>
<clus scale="   89.712">  7  8 -1 -1</clus>
<clus scale="   25.543">  2  5  1 -1</clus>
</clustering>
</event>
<event>
 9    1  0.5981539E-005  0.1437334E+03  0.7546771E-02  0.1210420E+00
         21   -1    0    0  501  502  0.00000000000E+00  0.00000000000E+00  0.98238838980E+03  0.98238838980E+03  0.00000000000E+00 0. -1.
          3   -1    0    0  502    0 -0.00000000000E+00 -0.00000000000E+00 -0.38431944590E+02  0.38431944590E+02  0.00000000000E+00 0. -1.
        -24    2    1    2    0    0  0.56019089981E+02  0.10591591488E+03  0.15841845355E+03  0.21480246453E+03  0.81776358906E+02 0.  0.
         23    2    1    2    0    0 -0.15504003097E+02 -0.89576349495E+02  0.46770223474E+03  0.48519389626E+03  0.91670279182E+02 0.  0.
         13    1    3    3    0    0  0.89777671007E+01  0.63438540160E+02  0.13083163279E+03  0.14567760575E+03  0.00000000000E+00 0. -1.
        -14    1    3    3    0    0  0.47041322880E+02  0.42477374716E+02  0.27586820763E+02  0.69124858776E+02  0.00000000000E+00 0.  1.
        -13    1    4    4    0    0 -0.73225257771E+01  0.18923920177E+02  0.74921840548E+02  0.77620978670E+02  0.00000000000E+00 0.  1.
         13    1    4    4    0    0 -0.81814773198E+01 -0.10850026967E+03  0.39278039419E+03  0.40757291759E+03  0.00000000000E+00 0. -1.
          4    1    1    2  501    0 -0.40515086884E+02 -0.16339565380E+02  0.31783575692E+03  0.32082397360E+03  0.00000000000E+00 0. -1.
<scales pt_clust_5="13000.00000" pt_clust_6="13000.00000" pt_clust_7="13000.00000" pt_clust_8="13000.00000" pt_clust_9="43.68585"></scales>
<clustering>
<clus scale="   43.686">  1  9  2 -1</clus>
<clus scale="   81.776">  5  6 -1 -1</clus>
<clus scale="   91.670">  7  8 -1 -1</clus>
<clus scale="  137.634">  2  5  1 -1</clus>
<clus scale="   43.686">  1  5  2 -1</clus>
</clustering>
</event>
<event>
 9    1  0.5981539E-005  0.1098545E+03  0.7546771E-02  0.1264927E+00
          1   -1    0    0  502    0 -0.00000000000E+00  0.00000000000E+00  0.30312529154E+03  0.30312529154E+03  0.00000000000E+00 0. -1.
         21   -1    0    0  501  502  0.00000000000E+00 -0.00000000000E+00 -0.15941475502E+03  0.15941475502E+03  0.00000000000E+00 0. -1.
        -24    2    1    2    0    0 -0.55181208598E+02 -0.27202417378E+02  0.25249600404E+03  0.27216265783E+03  0.80829097273E+02 0.  0.
         23    2    1    2    0    0  0.67912782457E+02 -0.75236453410E+01 -0.58898857563E+02  0.12827532550E+03  0.91196120802E+02 0.  0.
         11    1    3    3    0    0 -0.42241188395E+00 -0.36251651644E+02  0.47315277959E+02  0.59607853569E+02  0.00000000000E+00 0. -1.
        -12    1    3    3    0    0 -0.54758796714E+02  0.90492342656E+01  0.20518072608E+03  0.21255480426E+03  0.00000000000E+00 0.  1.
        -13    1    4    4    0    0  0.36145724122E+02 -0.31836362340E+02  0.94454210540E+01  0.49084450880E+02  0.00000000000E+00 0. -1.
         13    1    4    4    0    0  0.31767058335E+02  0.24312716999E+02 -0.68344278617E+02  0.79190874618E+02  0.00000000000E+00 0.  1.
          2    1    1    2  501    0 -0.12731573859E+02  0.34726062719E+02 -0.49886609956E+02  0.62102063233E+02  0.00000000000E+00 0. -1.
<scales pt_clust_5="13000.00000" pt_clust_6="13000.00000" pt_clust_7="13000.00000" pt_clust_8="13000.00000" pt_clust_9="36.98638"></scales>
<clustering>
<clus scale="   36.986">  2  9  1 -1</clus>
<clus scale="   80.829">  5  6 -1 -1</clus>
<clus scale="   91.196">  7  8 -1 -1</clus>
<clus scale="  101.413">  1  5  2 -1</clus>
<clus scale="   36.986">  2  5  1 -1</clus>
</clustering>
</event>
<event>
 9    1  0.5981539E-005  0.1004273E+03  0.7546771E-02  0.1285268E+00
         21   -1    0    0  501  502  0.00000000000E+00  0.00000000000E+00  0.43327481614E+03  0.43327481614E+03  0.00000000000E+00 0.  1.
         -2   -1    0    0    0  501 -0.00000000000E+00 -0.00000000000E+00 -0.15994240355E+03  0.15994240355E+03  0.00000000000E+00 0.  1.
         23    2    1    2    0    0 -0.42436584735E+02  0.82699500473E+01 -0.12846373814E+03  0.16403871747E+03  0.92393251987E+02 0.  0.
        -24    2    1    2    0    0  0.10356472444E+01 -0.24609166415E+02  0.13900729265E+03  0.16264709403E+03  0.80773548568E+02 0.  0.
         11    1    4    4    0    0  0.30340897083E+02 -0.13850524873E+02  0.18454550452E+02  0.38117942067E+02  0.00000000000E+00 0. -1.
        -12    1    4    4    0    0 -0.29305249838E+02 -0.10758641541E+02  0.12055274220E+03  0.12452915196E+03  0.00000000000E+00 0.  1.
        -13    1    3    3    0    0  0.10335875455E+02  0.39128575628E+02 -0.58427507299E+02  0.71074955935E+02  0.00000000000E+00 0. -1.
         13    1    3    3    0    0 -0.52772460190E+02 -0.30858625581E+02 -0.70036230846E+02  0.92963761533E+02  0.00000000000E+00 0.  1.
         -1    1    1    2    0  502  0.41400937491E+02  0.16339216367E+02  0.26278885808E+03  0.26653140819E+03  0.00000000000E+00 0.  1.
<scales pt_clust_5="13000.00000" pt_clust_6="13000.00000" pt_clust_7="13000.00000" pt_clust_8="13000.00000" pt_clust_9="44.50851"></scales>
<clustering>
<clus scale="   44.509">  1  9  2 -1</clus>
<clus scale="   80.774">  5  6 -1 -1</clus>
<clus scale="   89.853">  1  5  2 -1</clus>
<clus scale="   92.393">  7  8 -1 -1</clus>
<clus scale="   44.509">  1  5  2 -1</clus>
</clustering>
</event>
<event>
 9    1  0.5981539E-005  0.1120374E+03  0.7546771E-02  0.1261200E+00
         21   -1    0    0  501  502  0.00000000000E+00  0.00000000000E+00  0.33064201932E+02  0.33064201932E+02  0.00000000000E+00 0. -1.
          1   -1    0    0  502    0 -0.00000000000E+00 -0.00000000000E+00 -0.90158024511E+03  0.90158024511E+03  0.00000000000E+00 0. -1.
        -24    2    1    2    0    0  0.36821109300E+02  0.49954255219E+02 -0.29323947239E+03  0.31031219398E+03  0.80330864934E+02 0.  0.
         23    2    1    2    0    0 -0.98018469715E+02  0.74443311390E+01 -0.20884071089E+03  0.24841343994E+03  0.91824594457E+02 0.  0.
         11    1    3    3    0    0  0.33888412206E+02  0.65535751866E+02 -0.28029990945E+03  0.28984719852E+03  0.00000000000E+00 0. -1.
        -12    1    3    3    0    0  0.29326970949E+01 -0.15581496646E+02 -0.12939562941E+02  0.20464995458E+02  0.00000000000E+00 0.  1.
        -13    1    4    4    0    0 -0.27105624596E+02 -0.40350840493E+02 -0.66754035536E+02  0.82577275770E+02  0.00000000000E+00 0.  1.
         13    1    4    4    0    0 -0.70912845118E+02  0.47795171632E+02 -0.14208667535E+03  0.16583616417E+03  0.00000000000E+00 0. -1.
          2    1    1    2  501    0  0.61197360414E+02 -0.57398586358E+02 -0.36643585990E+03  0.37591881312E+03  0.00000000000E+00 0. -1.
<scales pt_clust_5="13000.00000" pt_clust_6="13000.00000" pt_clust_7="13000.00000" pt_clust_8="13000.00000" pt_clust_9="83.90305"></scales>
<clustering>
<clus scale="   80.331">  5  6 -1 -1</clus>
<clus scale="   83.903">  1  9  2 -1</clus>
<clus scale="   91.825">  7  8 -1 -1</clus>
<clus scale="  102.828">  2  5  1 -1</clus>
<clus scale="   83.903">  1  5  2 -1</clus>
</clustering>
</event>
<event>
 9    1  0.5981539E-005  0.9977148E+02  0.7546771E-02  0.1286527E+00
         21   -1    0    0  501  502  0.00000000000E+00  0.00000000000E+00  0.81074401932E+02  0.81074401932E+02  0.00000000000E+00 0.  1.
          1   -1    0    0  502    0 -0.00000000000E+00 -0.00000000000E+00 -0.61639096447E+03  0.61639096447E+03  0.00000000000E+00 0. -1.
         23    2    1    2    0    0  0.14121447020E+02  0.38122263520E+02 -0.55418405603E+03  0.56326244517E+03  0.92151461984E+02 0.  0.
        -24    2    1    2    0    0 -0.24610278792E+02 -0.11538723349E+02 -0.18330796138E+02  0.87294361769E+02  0.80904138033E+02 0.  0.
         13    1    4    4    0    0  0.26108767996E+02  0.21117456934E+00  0.10076074393E+02  0.27986418780E+02  0.00000000000E+00 0. -1.
        -14    1    4    4    0    0 -0.50719046788E+02 -0.11749897919E+02 -0.28406870531E+02  0.59307942989E+02  0.00000000000E+00 0.  1.
        -11    1    3    3    0    0 -0.31506615427E+02  0.44628360330E+02 -0.29899187055E+03  0.30394159968E+03  0.00000000000E+00 0. -1.
         11    1    3    3    0    0  0.45628062447E+02 -0.65060968096E+01 -0.25519218548E+03  0.25932084549E+03  0.00000000000E+00 0.  1.
          2    1    1    2  501    0  0.10488831772E+02 -0.26583540171E+02  0.37198289624E+02  0.46908559463E+02  0.00000000000E+00 0. -1.
<scales pt_clust_5="13000.00000" pt_clust_6="13000.00000" pt_clust_7="13000.00000" pt_clust_8="13000.00000" pt_clust_9="28.57797"></scales>
<clustering>
<clus scale="   28.578">  1  9  2 -1</clus>
<clus scale="   80.904">  5  6 -1 -1</clus>
<clus scale="   89.487">  1  5  2 -1</clus>
<clus scale="   92.151">  7  8 -1 -1</clus>
<clus scale="   28.578">  1  5  2 -1</clus>
</clustering>
</event>
<event>
 9    1  0.5981539E-005  0.1580347E+03  0.7546771E-02  0.1218356E+00
         21   -1    0    0  501  502  0.00000000000E+00  0.00000000000E+00  0.26154629815E+03  0.26154629815E+03  0.00000000000E+00 0. -1.
          1   -1    0    0  502    0 -0.00000000000E+00 -0.00000000000E+00 -0.15019668868E+03  0.15019668868E+03  0.00000000000E+00 0. -1.
        -24    2    1    2    0    0 -0.32087987428E+02 -0.10172870890E+02  0.40723288368E+02  0.96527674557E+02  0.80784153771E+02 0.  0.
         23    2    1    2    0    0  0.54431556991E+01  0.13302090547E+03  0.95167260807E+02  0.18713781862E+03  0.90772057339E+02 0.  0.
         13    1    3    3    0    0 -0.27955156813E+02 -0.21867935023E+02  0.62264888821E+02  0.71670173395E+02  0.00000000000E+00 0. -1.
        -14    1    3    3    0    0 -0.41328306155E+01  0.11695064132E+02 -0.21541600453E+02  0.24857501162E+02  0.00000000000E+00 0.  1.
        -11    1    4    4    0    0 -0.28052521963E+02  0.10234388578E+03  0.34980440177E+02  0.11173560820E+03  0.00000000000E+00 0.  1.
         11    1    4    4    0    0  0.33495677662E+02  0.30677019691E+02  0.60186820630E+02  0.75402210423E+02  0.00000000000E+00 0. -1.
          2    1    1    2  501    0  0.26644831729E+02 -0.12284803458E+03 -0.24540939697E+02  0.12807749365E+03  0.00000000000E+00 0. -1.
<scales pt_clust_5="13000.00000" pt_clust_6="13000.00000" pt_clust_7="13000.00000" pt_clust_8="13000.00000" pt_clust_9="129.36539"></scales>
<clustering>
<clus scale="   80.784">  5  6 -1 -1</clus>
<clus scale="   87.517">  2  5  1 -1</clus>
<clus scale="   90.772">  7  8 -1 -1</clus>
<clus scale="  129.365">  1  9  2 -1</clus>
<clus scale="  129.365">  1  5  2 -1</clus>
</clustering>
</event>
<event>
 9    1  0.5981539E-005  0.1041003E+03  0.7546771E-02  0.1276858E+00
         21   -1    0    0  501  502  0.00000000000E+00  0.00000000000E+00  0.43857067796E+02  0.43857067796E+02  0.00000000000E+00 0. -1.
          1   -1    0    0  502    0 -0.00000000000E+00 -0.00000000000E+00 -0.35280772428E+03  0.35280772428E+03  0.00000000000E+00 0. -1.
         23    2    1    2    0    0 -0.25320250128E+01  0.38160776322E+02 -0.18093577351E+03  0.20636728652E+03  0.91580821189E+02 0.  0.
        -24    2    1    2    0    0  0.13816008845E+02 -0.69568950869E+02 -0.96913648015E+02  0.14467855625E+03  0.80677806382E+02 0.  0.
         11    1    4    4    0    0  0.25560821542E+01 -0.66995607803E+02 -0.10899500324E+03  0.12796427530E+03  0.00000000000E+00 0. -1.
        -12    1    4    4    0    0  0.11259926691E+02 -0.25733430669E+01  0.12081355229E+02  0.16714280954E+02  0.00000000000E+00 0.  1.
        -11    1    3    3    0    0  0.32822147190E+02  0.37288872975E+02 -0.49009306577E+02  0.69782988795E+02  0.00000000000E+00 0. -1.
         11    1    3    3    0    0 -0.35354172203E+02  0.87190334695E+00 -0.13192646693E+03  0.13658429773E+03  0.00000000000E+00 0.  1.
          2    1    1    2  501    0 -0.11283983832E+02  0.31408174547E+02 -0.31101234957E+02  0.45618949301E+02  0.00000000000E+00 0. -1.
<scales pt_clust_5="13000.00000" pt_clust_6="13000.00000" pt_clust_7="13000.00000" pt_clust_8="13000.00000" pt_clust_9="33.37367"></scales>
<clustering>
<clus scale="   33.374">  1  9  2 -1</clus>
<clus scale="   80.678">  5  6 -1 -1</clus>
<clus scale="   91.581">  7  8 -1 -1</clus>
<clus scale="   94.651">  1  5  2 -1</clus>
<clus scale="   33.374">  1  5  2 -1</clus>
</clustering>
</event>
<event>
 9    1  0.5981539E-005  0.1404265E+03  0.7546771E-02  0.1215126E+00
          1   -1    0    0  502    0 -0.00000000000E+00  0.00000000000E+00  0.31371910944E+03  0.31371910944E+03  0.00000000000E+00 0. -1.
         21   -1    0    0  501  502  0.00000000000E+00 -0.00000000000E+00 -0.12975325309E+03  0.12975325309E+03  0.00000000000E+00 0. -1.
         23    2    1    2    0    0  0.39276427959E+02  0.69470284920E+02  0.67816545803E+02  0.13884526398E+03  0.91160107311E+02 0.  0.
        -24    2    1    2    0    0 -0.13836800646E+03 -0.69279700181E+02  0.10840307773E+03  0.20523302743E+03  0.80149773654E+02 0.  0.
         13    1    4    4    0    0 -0.73006169481E+02 -0.68755597764E+02  0.33301096285E+02  0.10567022296E+03  0.00000000000E+00 0. -1.
        -14    1    4    4    0    0 -0.65361836975E+02 -0.52410241649E+00  0.75101981449E+02  0.99562804468E+02  0.00000000000E+00 0.  1.
        -13    1    3    3    0    0  0.10913169751E+02  0.46412907329E+02 -0.13616268475E+02  0.49584856639E+02  0.00000000000E+00 0.  1.
         13    1    3    3    0    0  0.28363258208E+02  0.23057377592E+02  0.81432814278E+02  0.89260407342E+02  0.00000000000E+00 0. -1.
          2    1    1    2  501    0  0.99091578497E+02 -0.19058473974E+00  0.77462328184E+01  0.99394071123E+02  0.00000000000E+00 0. -1.
<scales pt_clust_5="13000.00000" pt_clust_6="13000.00000" pt_clust_7="13000.00000" pt_clust_8="13000.00000" pt_clust_9="99.09176"></scales>
<clustering>
<clus scale="   80.150">  5  6 -1 -1</clus>
<clus scale="   91.160">  7  8 -1 -1</clus>
<clus scale="   99.092">  2  9  1 -1</clus>
<clus scale="  133.542">  2  5  1 -1</clus>
<clus scale="   99.092">  2  5  1 -1</clus>
</clustering>
</event>
<event>
 9    1  0.5981539E-005  0.9711215E+02  0.7546771E-02  0.1295624E+00
         21   -1    0    0  501  502  0.00000000000E+00  0.00000000000E+00  0.18760168689E+02  0.18760168689E+02  0.00000000000E+00 0. -1.
          1   -1    0    0  502    0 -0.00000000000E+00 -0.00000000000E+00 -0.10649209282E+04  0.10649209282E+04  0.00000000000E+00 0. -1.
        -24    2    1    2    0    0 -0.13684550180E+02 -0.31408100744E+02 -0.70261621987E+03  0.70755648582E+03  0.76111053695E+02 0.  0.
         23    2    1    2    0    0  0.33331088433E+02 -0.93763414960E+01 -0.16760324612E+03  0.19445266508E+03  0.92315294564E+02 0.  0.
         13    1    3    3    0    0 -0.27524615521E+02 -0.34972588758E+02 -0.20681643386E+03  0.21155075925E+03  0.00000000000E+00 0. -1.
        -14    1    3    3    0    0  0.13840065341E+02  0.35644880145E+01 -0.49579978601E+03  0.49600572657E+03  0.00000000000E+00 0.  1.
        -11    1    4    4    0    0 -0.10967408803E+02  0.31813641003E+02 -0.89824153009E+02  0.95920645710E+02  0.00000000000E+00 0.  1.
         11    1    4    4    0    0  0.44298497236E+02 -0.41189982499E+02 -0.77779093109E+02  0.98532019367E+02  0.00000000000E+00 0. -1.
          2    1    1    2  501    0 -0.19646538253E+02  0.40784442240E+02 -0.17594129354E+03  0.18167194601E+03  0.00000000000E+00 0. -1.
<scales pt_clust_5="13000.00000" pt_clust_6="13000.00000" pt_clust_7="13000.00000" pt_clust_8="13000.00000" pt_clust_9="45.26985"></scales>
<clustering>
<clus scale="   45.270">  1  9  2 -1</clus>
<clus scale="   76.111">  5  6 -1 -1</clus>
<clus scale="   81.863">  2  5  1 -1</clus>
<clus scale="   92.315">  7  8 -1 -1</clus>
<clus scale="   45.270">  1  5  2 -1</clus>
</clustering>
</event>
<event>
 9    1  0.5981539E-005  0.1111702E+03  0.7546771E-02  0.1261667E+00
          3   -1    0    0  502    0 -0.00000000000E+00  0.00000000000E+00  0.19490153318E+03  0.19490153318E+03  0.00000000000E+00 0. -1.
         21   -1    0    0  501  502  0.00000000000E+00 -0.00000000000E+00 -0.20902611176E+03  0.20902611176E+03  0.00000000000E+00 0. -1.
        -24    2    1    2    0    0  0.88515141648E+02 -0.96994082431E+01 -0.15379256118E+02  0.12179209948E+03  0.81656507119E+02 0.  0.
         23    2    1    2    0    0 -0.18976929949E+02 -0.55554043983E+02 -0.97204625687E+02  0.14506691191E+03  0.90273440188E+02 0.  0.
         13    1    3    3    0    0  0.34903070461E+02  0.30472484494E+02  0.14341820696E+02  0.48502417051E+02  0.00000000000E+00 0. -1.
        -14    1    3    3    0    0  0.53612071187E+02 -0.40171892738E+02 -0.29721076815E+02  0.73289682426E+02  0.00000000000E+00 0.  1.
        -13    1    4    4    0    0 -0.19430695254E+02  0.20632470503E+02 -0.43250426713E+02  0.51709285124E+02  0.00000000000E+00 0.  1.
         13    1    4    4    0    0  0.45376530541E+00 -0.76186514486E+02 -0.53954198974E+02  0.93357626787E+02  0.00000000000E+00 0. -1.
          4    1    1    2  501    0 -0.69538211699E+02  0.65253452226E+02  0.98459303225E+02  0.13706863356E+03  0.00000000000E+00 0. -1.
<scales pt_clust_5="13000.00000" pt_clust_6="13000.00000" pt_clust_7="13000.00000" pt_clust_8="13000.00000" pt_clust_9="95.36029"></scales>
<clustering>
<clus scale="   81.657">  5  6 -1 -1</clus>
<clus scale="   90.273">  7  8 -1 -1</clus>
<clus scale="   95.360">  2  9  1 -1</clus>
<clus scale="  104.294">  1  5  2 -1</clus>
<clus scale="   95.360">  2  5  1 -1</clus>
</clustering>
</event>
<event>
 9    1  0.5981539E-005  0.1092729E+03  0.7546771E-02  0.1264147E+00
          1   -1    0    0  502    0 -0.00000000000E+00  0.00000000000E+00  0.63065858584E+03  0.63065858584E+03  0.00000000000E+00 0. -1.
         21   -1    0    0  501  502  0.00000000000E+00 -0.00000000000E+00 -0.78593534959E+02  0.78593534959E+02  0.00000000000E+00 0.  1.
        -24    2    1    2    0    0  0.10316331885E+02  0.35489441160E+02  0.44935424008E+02  0.99285924110E+02  0.80452316673E+02 0.  0.
         23    2    1    2    0    0 -0.83783028805E+01 -0.11973999835E+03  0.67935507568E+02  0.16275999506E+03  0.86415968660E+02 0.  0.
         13    1    3    3    0    0 -0.17240501919E+02  0.37154860640E+02  0.56138052097E+02  0.69492441811E+02  0.00000000000E+00 0. -1.
        -14    1    3    3    0    0  0.27556833804E+02 -0.16654194804E+01 -0.11202628089E+02  0.29793482298E+02  0.00000000000E+00 0.  1.
        -13    1    4    4    0    0 -0.33063444011E+02 -0.12411142468E+02  0.43288879416E+01  0.35580430830E+02  0.00000000000E+00 0.  1.
         13    1    4    4    0    0  0.24685141130E+02 -0.10732885588E+03  0.63606619627E+02  0.12717956423E+03  0.00000000000E+00 0. -1.
          2    1    1    2  501    0 -0.19380290044E+01  0.84250557192E+02  0.43919411931E+03  0.44720620163E+03  0.00000000000E+00 0. -1.
<scales pt_clust_5="13000.00000" pt_clust_6="13000.00000" pt_clust_7="13000.00000" pt_clust_8="13000.00000" pt_clust_9="84.27289"></scales>
<clustering>
<clus scale="   80.452">  5  6 -1 -1</clus>
<clus scale="   84.273">  2  9  1 -1</clus>
<clus scale="   86.416">  7  8 -1 -1</clus>
<clus scale="  104.620">  1  5  2 -1</clus>
<clus scale="   84.273">  2  5  1 -1</clus>
</clustering>
</event>
<event>
 9    1  0.5981539E-005  0.3420101E+03  0.7546771E-02  0.1065943E+00
          1   -1    0    0  502    0 -0.00000000000E+00  0.00000000000E+00  0.66783107114E+03  0.66783107114E+03  0.00000000000E+00 0. -1.
         21   -1    0    0  501  502  0.00000000000E+00 -0.00000000000E+00 -0.15253751178E+03  0.15253751178E+03  0.00000000000E+00 0. -1.
        -24    2    1    2    0    0  0.40582308474E+02  0.11649194920E+03  0.11788719744E+03  0.18630194643E+03  0.74791215628E+02 0.  0.
         23    2    1    2    0    0  0.55254034650E+02  0.16387218832E+03  0.16266024207E+03  0.25605288667E+03  0.95904243752E+02 0.  0.
         13    1    3    3    0    0  0.58338615684E+02  0.61325162811E+02  0.55854358670E+02  0.10140946236E+03  0.00000000000E+00 0. -1.
        -14    1    3    3    0    0 -0.17756307210E+02  0.55166786388E+02  0.62032838771E+02  0.84892484074E+02  0.00000000000E+00 0.  1.
        -13    1    4    4    0    0  0.41242203585E+02  0.74245187024E+02  0.13800710468E+03  0.16204699347E+03  0.00000000000E+00 0.  1.
         13    1    4    4    0    0  0.14011831065E+02  0.89627001300E+02  0.24653137393E+02  0.94005893194E+02  0.00000000000E+00 0. -1.
          2    1    1    2  501    0 -0.95836343124E+02 -0.28036413752E+03  0.23474611985E+03  0.37801374983E+03  0.00000000000E+00 0. -1.
<scales pt_clust_5="13000.00000" pt_clust_6="13000.00000" pt_clust_7="13000.00000" pt_clust_8="13000.00000" pt_clust_9="296.29150"></scales>
<clustering>
<clus scale="   74.791">  5  6 -1 -1</clus>
<clus scale="   95.904">  7  8 -1 -1</clus>
<clus scale="   95.914">  5  7 -1 -1</clus>
<clus scale="  296.292">  2  9  1 -1</clus>
<clus scale="  296.292">  2  5  1 -1</clus>
</clustering>
</event>
<event>
 9    1  0.5981539E-005  0.2733407E+03  0.7546771E-02  0.1119048E+00
         21   -1    0    0  501  502  0.00000000000E+00  0.00000000000E+00  0.24473040788E+03  0.24473040788E+03  0.00000000000E+00 0. -1.
          1   -1    0    0  502    0 -0.00000000000E+00 -0.00000000000E+00 -0.58656388124E+03  0.58656388124E+03  0.00000000000E+00 0. -1.
         23    2    1    2    0    0 -0.11281602119E+03  0.78193855696E+02  0.23839540326E+02  0.16722226700E+03  0.92483669866E+02 0.  0.
        -24    2    1    2    0    0 -0.19073586759E+03  0.59776710105E+02 -0.18849681127E+03  0.28648622670E+03  0.81178100325E+02 0.  0.
         11    1    4    4    0    0 -0.80541780264E+02  0.48817254737E+02 -0.13204053621E+03  0.16218756405E+03  0.00000000000E+00 0. -1.
        -12    1    4    4    0    0 -0.11019408732E+03  0.10959455368E+02 -0.56456275056E+02  0.12429866265E+03  0.00000000000E+00 0.  1.
        -11    1    3    3    0    0 -0.13288925284E+02  0.61870000706E+02 -0.12428576029E+01  0.63293263603E+02  0.00000000000E+00 0.  1.
         11    1    3    3    0    0 -0.99527095905E+02  0.16323854991E+02  0.25082397929E+02  0.10392900340E+03  0.00000000000E+00 0. -1.
          2    1    1    2  501    0  0.30355188878E+03 -0.13797056580E+03 -0.17717620241E+03  0.37758579543E+03  0.00000000000E+00 0. -1.
<scales pt_clust_5="13000.00000" pt_clust_6="13000.00000" pt_clust_7="13000.00000" pt_clust_8="13000.00000" pt_clust_9="261.00829"></scales>
<clustering>
<clus scale="   81.178">  5  6 -1 -1</clus>
<clus scale="   92.484">  7  8 -1 -1</clus>
<clus scale="  165.514">  2  7  1 -1</clus>
<clus scale="  261.008">  1  9  2 -1</clus>
<clus scale="  261.008">  1  5  2 -1</clus>
</clustering>
</event>
<event>
 9    1  0.5981539E-005  0.1005798E+03  0.7546771E-02  0.1279684E+00
         21   -1    0    0  501  502  0.00000000000E+00  0.00000000000E+00  0.51405194629E+03  0.51405194629E+03  0.00000000000E+00 0. -1.
         -2   -1    0    0    0  501 -0.00000000000E+00 -0.00000000000E+00 -0.99100358643E+02  0.99100358643E+02  0.00000000000E+00 0.  1.
        -24    2    1    2    0    0 -0.15946307528E+02  0.58424718246E+02 -0.61270873579E+02  0.11813403076E+03  0.80831904897E+02 0.  0.
         23    2    1    2    0    0 -0.16856465338E+02 -0.55595810911E+02  0.40124112238E+03  0.41312672516E+03  0.79399106650E+02 0.  0.
         13    1    3    3    0    0 -0.33272292104E+02  0.37028326773E+02  0.12744661704E+01  0.49797255642E+02  0.00000000000E+00 0. -1.
        -14    1    3    3    0    0  0.17325984576E+02  0.21396391473E+02 -0.62545339750E+02  0.68336775121E+02  0.00000000000E+00 0.  1.
        -13    1    4    4    0    0  0.31091787337E+02 -0.30849951958E+02  0.20318211806E+03  0.20784944521E+03  0.00000000000E+00 0.  1.
         13    1    4    4    0    0 -0.47948252675E+02 -0.24745858953E+02  0.19805900432E+03  0.20527727995E+03  0.00000000000E+00 0. -1.
         -1    1    1    2    0  502  0.32802772866E+02 -0.28289073356E+01  0.74981338851E+02  0.81891549017E+02  0.00000000000E+00 0.  1.
<scales pt_clust_5="13000.00000" pt_clust_6="13000.00000" pt_clust_7="13000.00000" pt_clust_8="13000.00000" pt_clust_9="32.92453"></scales>
<clustering>
<clus scale="   32.925">  1  9  2 -1</clus>
<clus scale="   79.399">  7  8 -1 -1</clus>
<clus scale="   80.832">  5  6 -1 -1</clus>
<clus scale="   99.432">  1  7  2 -1</clus>
<clus scale="   32.925">  1  5  2 -1</clus>
</clustering>
</event>
<event>
 9    1  0.5981539E-005  0.9584874E+02  0.7546771E-02  0.1294924E+00
          1   -1    0    0  502    0 -0.00000000000E+00  0.00000000000E+00  0.25764413921E+03  0.25764413921E+03  0.00000000000E+00 0. -1.
         21   -1    0    0  501  502  0.00000000000E+00 -0.00000000000E+00 -0.82071426686E+02  0.82071426686E+02  0.00000000000E+00 0. -1.
        -24    2    1    2    0    0  0.16529088543E+02 -0.94887379544E+01  0.12271858560E+03  0.14763438231E+03  0.79829898362E+02 0.  0.
         23    2    1    2    0    0 -0.62745409234E+02  0.14465993529E+02  0.81476228297E+02  0.13749230140E+03  0.90108300491E+02 0.  0.
         13    1    3    3    0    0  0.42235771391E+02  0.12022740246E+00  0.10911470755E+03  0.11700382149E+03  0.00000000000E+00 0. -1.
        -14    1    3    3    0    0 -0.25706682847E+02 -0.96089653568E+01  0.13603878052E+02  0.30630560822E+02  0.00000000000E+00 0.  1.
        -13    1    4    4    0    0 -0.69994776598E+02 -0.15615422989E+02  0.78624413444E+02  0.10641855372E+03  0.00000000000E+00 0.  1.
         13    1    4    4    0    0  0.72493673636E+01  0.30081416518E+02  0.28518148533E+01  0.31073747679E+02  0.00000000000E+00 0. -1.
          2    1    1    2  501    0  0.46216320691E+02 -0.49772555743E+01 -0.28622101375E+02  0.54588882187E+02  0.00000000000E+00 0. -1.
<scales pt_clust_5="13000.00000" pt_clust_6="13000.00000" pt_clust_7="13000.00000" pt_clust_8="13000.00000" pt_clust_9="46.48356"></scales>
<clustering>
<clus scale="   46.484">  2  9  1 -1</clus>
<clus scale="   79.830">  5  6 -1 -1</clus>
<clus scale="   86.257">  1  5  2 -1</clus>
<clus scale="   90.108">  7  8 -1 -1</clus>
<clus scale="   46.484">  2  5  1 -1</clus>
</clustering>
</event>
<event>
 9    1  0.5981539E-005  0.1963715E+03  0.7546771E-02  0.1194768E+00
         21   -1    0    0  501  502  0.00000000000E+00  0.00000000000E+00  0.92139542796E+02  0.92139542796E+02  0.00000000000E+00 0. -1.
          1   -1    0    0  502    0 -0.00000000000E+00 -0.00000000000E+00 -0.60331738318E+03  0.60331738318E+03  0.00000000000E+00 0. -1.
        -24    2    1    2    0    0 -0.41498195381E+02  0.18411199733E+02 -0.18442567191E+03  0.19936150289E+03  0.60589668088E+02 0.  0.
         23    2    1    2    0    0 -0.12843077816E+03 -0.97947555602E+02 -0.17115558361E+03  0.25234927404E+03  0.91091897991E+02 0.  0.
         13    1    3    3    0    0 -0.17158835282E+02  0.37186645099E+02 -0.13573891557E+03  0.14178266961E+03  0.00000000000E+00 0. -1.
        -14    1    3    3    0    0 -0.24339360099E+02 -0.18775445366E+02 -0.48686756344E+02  0.57578833281E+02  0.00000000000E+00 0.  1.
        -11    1    4    4    0    0 -0.42594837976E+01 -0.51991971892E+02 -0.59700687974E+02  0.79281022244E+02  0.00000000000E+00 0.  1.
         11    1    4    4    0    0 -0.12417129436E+03 -0.45955583710E+02 -0.11145489564E+03  0.17306825180E+03  0.00000000000E+00 0. -1.
          2    1    1    2  501    0  0.16992897354E+03  0.79536355869E+02 -0.15559658486E+03  0.24374614905E+03  0.00000000000E+00 0. -1.
<scales pt_clust_5="13000.00000" pt_clust_6="13000.00000" pt_clust_7="13000.00000" pt_clust_8="13000.00000" pt_clust_9="173.96566"></scales>
<clustering>
<clus scale="   60.590">  5  6 -1 -1</clus>
<clus scale="   75.711">  2  5  1 -1</clus>
<clus scale="   91.092">  7  8 -1 -1</clus>
<clus scale="  173.966">  1  9  2 -1</clus>
<clus scale="  173.966">  1  5  2 -1</clus>
</clustering>
</event>
<event>
 9    1  0.5981539E-005  0.1281727E+03  0.7546771E-02  0.1248147E+00
          1   -1    0    0  502    0 -0.00000000000E+00  0.00000000000E+00  0.27804123932E+03  0.27804123932E+03  0.00000000000E+00 0. -1.
         21   -1    0    0  501  502  0.00000000000E+00 -0.00000000000E+00 -0.22292378446E+03  0.22292378446E+03  0.00000000000E+00 0. -1.
        -24    2    1    2    0    0  0.27897563433E+02 -0.30619018957E+02  0.19236420538E+03  0.21193918975E+03  0.78730135732E+02 0.  0.
         23    2    1    2    0    0  0.68030859272E+02  0.27007871637E+02  0.58883122553E+01  0.11668039933E+03  0.90675357309E+02 0.  0.
         13    1    3    3    0    0  0.37010423318E+02  0.34029742613E+01  0.15947806250E+03  0.16375165369E+03  0.00000000000E+00 0. -1.
        -14    1    3    3    0    0 -0.91128598849E+01 -0.34021993218E+02  0.32886142886E+02  0.48187536062E+02  0.00000000000E+00 0.  1.
        -11    1    4    4    0    0  0.23224323949E+01  0.44670325451E+02 -0.12029237339E+02  0.46319911691E+02  0.00000000000E+00 0.  1.
         11    1    4    4    0    0  0.65708426877E+02 -0.17662453814E+02  0.17917549594E+02  0.70360487639E+02  0.00000000000E+00 0. -1.
          2    1    1    2  501    0 -0.95928422705E+02  0.36111473203E+01 -0.14313506278E+03  0.17234543471E+03  0.00000000000E+00 0. -1.
<scales pt_clust_5="13000.00000" pt_clust_6="13000.00000" pt_clust_7="13000.00000" pt_clust_8="13000.00000" pt_clust_9="90.58818"></scales>
<clustering>
<clus scale="   78.730">  5  6 -1 -1</clus>
<clus scale="   88.962">  1  5  2 -1</clus>
<clus scale="   90.588">  2  9  1 -1</clus>
<clus scale="   90.675">  7  8 -1 -1</clus>
<clus scale="   90.588">  2  5  1 -1</clus>
</clustering>
</event>
<event>
 9    1  0.5981539E-005  0.9705930E+02  0.7546771E-02  0.1294772E+00
          1   -1    0    0  502    0 -0.00000000000E+00  0.00000000000E+00  0.37887961625E+02  0.37887961625E+02  0.00000000000E+00 0. -1.
         21   -1    0    0  501  502  0.00000000000E+00 -0.00000000000E+00 -0.55828515917E+03  0.55828515917E+03  0.00000000000E+00 0.  1.
         23    2    1    2    0    0 -0.26934981825E+02 -0.13863046969E+02 -0.49431896748E+02  0.11070769361E+03  0.94313327214E+02 0.  0.
        -24    2    1    2    0    0 -0.50043156865E+01  0.42658077518E+01 -0.26833808674E+03  0.28011204007E+03  0.80088612825E+02 0.  0.
         13    1    4    4    0    0  0.22996513930E+00  0.24070398941E+02 -0.21050621311E+02  0.31977580376E+02  0.00000000000E+00 0. -1.
        -14    1    4    4    0    0 -0.52342808258E+01 -0.19804591189E+02 -0.24728746543E+03  0.24813445969E+03  0.00000000000E+00 0.  1.
        -11    1    3    3    0    0 -0.61472858207E+02 -0.15049708898E+01 -0.37999908774E+02  0.72285339456E+02  0.00000000000E+00 0. -1.
         11    1    3    3    0    0  0.34537876382E+02 -0.12358076079E+02 -0.11431987975E+02  0.38422354149E+02  0.00000000000E+00 0.  1.
          2    1    1    2  501    0  0.31939297512E+02  0.95972392169E+01 -0.20262721406E+03  0.20535338712E+03  0.00000000000E+00 0. -1.
<scales pt_clust_5="13000.00000" pt_clust_6="13000.00000" pt_clust_7="13000.00000" pt_clust_8="13000.00000" pt_clust_9="33.35005"></scales>
<clustering>
<clus scale="   33.350">  2  9  1 -1</clus>
<clus scale="   80.089">  5  6 -1 -1</clus>
<clus scale="   83.305">  2  5  1 -1</clus>
<clus scale="   94.313">  7  8 -1 -1</clus>
<clus scale="   33.350">  2  5  1 -1</clus>
</clustering>
</event>
<event>
 9    1  0.5981539E-005  0.1268737E+03  0.7546771E-02  0.1236012E+00
         21   -1    0    0  501  502  0.00000000000E+00  0.00000000000E+00  0.30488338206E+03  0.30488338206E+03  0.00000000000E+00 0. -1.
          3   -1    0    0  502    0 -0.00000000000E+00 -0.00000000000E+00 -0.10980222013E+03  0.10980222013E+03  0.00000000000E+00 0. -1.
        -24    2    1    2    0    0 -0.90656079033E+01  0.77947033730E+02  0.82083066816E+02  0.13506595750E+03  0.73124945846E+02 0.  0.
         23    2    1    2    0    0 -0.73913613660E+02 -0.10267171094E+03  0.11635468031E+03  0.19297019264E+03  0.87717621406E+02 0.  0.
         11    1    3    3    0    0 -0.41202227199E+02  0.45974623649E+02  0.51323845864E+02  0.80283414850E+02  0.00000000000E+00 0. -1.
        -12    1    3    3    0    0  0.32136619295E+02  0.31972410081E+02  0.30759220952E+02  0.54782542655E+02  0.00000000000E+00 0.  1.
        -11    1    4    4    0    0 -0.83661087312E+01 -0.18557330554E+02  0.76444477784E+02  0.79108308516E+02  0.00000000000E+00 0.  1.
         11    1    4    4    0    0 -0.65547504929E+02 -0.84114380388E+02  0.39910202525E+02  0.11386188412E+03  0.00000000000E+00 0. -1.
          4    1    1    2  501    0  0.82979221563E+02  0.24724677213E+02 -0.33565851954E+01  0.86649452039E+02  0.00000000000E+00 0. -1.
<scales pt_clust_5="13000.00000" pt_clust_6="13000.00000" pt_clust_7="13000.00000" pt_clust_8="13000.00000" pt_clust_9="86.58446"></scales>
<clustering>
<clus scale="   73.125">  5  6 -1 -1</clus>
<clus scale="   86.584">  1  9  2 -1</clus>
<clus scale="   87.718">  7  8 -1 -1</clus>
<clus scale="  117.260">  2  5  1 -1</clus>
<clus scale="   86.584">  1  5  2 -1</clus>
</clustering>
</event>
<event>
 9    1  0.5981539E-005  0.4406160E+03  0.7546771E-02  0.1030558E+00
          1   -1    0    0  502    0 -0.00000000000E+00  0.00000000000E+00  0.13000594884E+03  0.13000594884E+03  0.00000000000E+00 0. -1.
         21   -1    0    0  501  502  0.00000000000E+00 -0.00000000000E+00 -0.14150324129E+04  0.14150324129E+04  0.00000000000E+00 0.  1.
        -24    2    1    2    0    0 -0.28800696159E+03 -0.13766006816E+03 -0.37982815428E+03  0.50267137946E+03  0.80689433339E+02 0.  0.
         23    2    1    2    0    0 -0.45083992463E+02 -0.33204253229E+02 -0.69466486197E+02  0.12662035742E+03  0.89844495659E+02 0.  0.
         11    1    3    3    0    0 -0.64660979445E+02 -0.62566016189E+02 -0.14029000599E+03  0.16666383658E+03  0.00000000000E+00 0. -1.
        -12    1    3    3    0    0 -0.22334598215E+03 -0.75094051974E+02 -0.23953814829E+03  0.33600754288E+03  0.00000000000E+00 0.  1.
        -11    1    4    4    0    0 -0.27689570488E+02  0.22572339889E+02  0.16423556916E+00  0.35724638769E+02  0.00000000000E+00 0. -1.
         11    1    4    4    0    0 -0.17394421976E+02 -0.55776593118E+02 -0.69630721767E+02  0.90895718653E+02  0.00000000000E+00 0.  1.
          2    1    1    2  501    0  0.33309095406E+03  0.17086432139E+03 -0.83573182362E+03  0.91574662490E+03  0.00000000000E+00 0. -1.
<scales pt_clust_5="13000.00000" pt_clust_6="13000.00000" pt_clust_7="13000.00000" pt_clust_8="13000.00000" pt_clust_9="374.35838"></scales>
<clustering>
<clus scale="   80.689">  5  6 -1 -1</clus>
<clus scale="   89.844">  7  8 -1 -1</clus>
<clus scale="  100.715">  5  7 -1 -1</clus>
<clus scale="  374.358">  2  9  1 -1</clus>
<clus scale="  374.358">  2  5  1 -1</clus>
</clustering>
</event>
<event>
 9    1  0.5981539E-005  0.9600828E+02  0.7546771E-02  0.1292951E+00
         21   -1    0    0  501  502  0.00000000000E+00  0.00000000000E+00  0.31345985583E+03  0.31345985583E+03  0.00000000000E+00 0.  1.
          3   -1    0    0  502    0 -0.00000000000E+00 -0.00000000000E+00 -0.10277618768E+03  0.10277618768E+03  0.00000000000E+00 0. -1.
         23    2    1    2    0    0  0.63211214727E+01 -0.21077930218E+02  0.20340472485E+02  0.96609174808E+02  0.91844227458E+02 0.  0.
        -24    2    1    2    0    0  0.80782860560E+02  0.39541204667E+02  0.19581892864E+03  0.23041935869E+03  0.81600555261E+02 0.  0.
         11    1    4    4    0    0  0.19311841917E+02  0.54602684626E+02  0.10074324521E+03  0.11620499930E+03  0.00000000000E+00 0. -1.
        -12    1    4    4    0    0  0.61471018643E+02 -0.15061479959E+02  0.95075683430E+02  0.11421435939E+03  0.00000000000E+00 0.  1.
        -13    1    3    3    0    0  0.29239679366E+02  0.23105010462E+02 -0.96539160973E+01  0.38496733029E+02  0.00000000000E+00 0. -1.
         13    1    3    3    0    0 -0.22918557894E+02 -0.44182940680E+02  0.29994388583E+02  0.58112441779E+02  0.00000000000E+00 0.  1.
          4    1    1    2  501    0 -0.87103982032E+02 -0.18463274449E+02 -0.54757329790E+01  0.89207510003E+02  0.00000000000E+00 0. -1.
<scales pt_clust_5="13000.00000" pt_clust_6="13000.00000" pt_clust_7="13000.00000" pt_clust_8="13000.00000" pt_clust_9="89.03934"></scales>
<clustering>
<clus scale="   81.601">  5  6 -1 -1</clus>
<clus scale="   89.039">  1  9  2 -1</clus>
<clus scale="   89.039">  1  5  2 -1</clus>
<clus scale="   91.844">  7  8 -1 -1</clus>
<clus scale="   89.039">  1  5  2 -1</clus>
</clustering>
</event>
<event>
 9    1  0.5981539E-005  0.1202046E+03  0.7546771E-02  0.1246344E+00
          3   -1    0    0  502    0 -0.00000000000E+00  0.00000000000E+00  0.83170986310E+02  0.83170986310E+02  0.00000000000E+00 0. -1.
         21   -1    0    0  501  502  0.00000000000E+00 -0.00000000000E+00 -0.20772048632E+03  0.20772048632E+03  0.00000000000E+00 0. -1.
        -24    2    1    2    0    0  0.59093035144E+02 -0.57692718768E+02 -0.26304668352E+02  0.11835489778E+03  0.80594724710E+02 0.  0.
         23    2    1    2    0    0 -0.63700184843E+02  0.32846004801E+02 -0.82415378940E+02  0.14271784589E+03  0.91866834434E+02 0.  0.
         11    1    3    3    0    0  0.60538827729E+02 -0.30567339968E+01 -0.16566481172E+02  0.62839013232E+02  0.00000000000E+00 0. -1.
        -12    1    3    3    0    0 -0.14457925855E+01 -0.54635984771E+02 -0.97381871796E+01  0.55515884552E+02  0.00000000000E+00 0.  1.
        -11    1    4    4    0    0 -0.49091249533E+02  0.64771924503E+02 -0.54379537602E+02  0.97787970090E+02  0.00000000000E+00 0.  1.
         11    1    4    4    0    0 -0.14608935310E+02 -0.31925919702E+02 -0.28035841338E+02  0.44929875798E+02  0.00000000000E+00 0. -1.
          4    1    1    2  501    0  0.46071496993E+01  0.24846713966E+02 -0.15829452721E+02  0.29818728959E+02  0.00000000000E+00 0. -1.
<scales pt_clust_5="13000.00000" pt_clust_6="13000.00000" pt_clust_7="13000.00000" pt_clust_8="13000.00000" pt_clust_9="25.27024"></scales>
<clustering>
<clus scale="   25.270">  2  9  1 -1</clus>
<clus scale="   80.595">  5  6 -1 -1</clus>
<clus scale="   91.867">  7  8 -1 -1</clus>
<clus scale="  111.826">  1  5  2 -1</clus>
<clus scale="   25.270">  2  5  1 -1</clus>
</clustering>
</event>
<event>
 9    1  0.5981539E-005  0.1193081E+03  0.7546771E-02  0.1248024E+00
         -2   -1    0    0    0  501 -0.00000000000E+00  0.00000000000E+00  0.18716243953E+03  0.18716243953E+03  0.00000000000E+00 0.  1.
         21   -1    0    0  501  502  0.00000000000E+00 -0.00000000000E+00 -0.32241262221E+03  0.32241262221E+03  0.00000000000E+00 0. -1.
         23    2    1    2    0    0  0.42317832087E+02  0.54486231830E+02 -0.10532831301E+02  0.11473446045E+03  0.91068696642E+02 0.  0.
        -24    2    1    2    0    0 -0.10246977526E+03 -0.55602055183E+02 -0.23220840359E+03  0.27165850992E+03  0.79284045861E+02 0.  0.
         13    1    4    4    0    0 -0.64893544040E+02 -0.11390269329E+02 -0.18649568417E+03  0.19779168463E+03  0.00000000000E+00 0. -1.
        -14    1    4    4    0    0 -0.37576231224E+02 -0.44211785854E+02 -0.45712719422E+02  0.73866825290E+02  0.00000000000E+00 0.  1.
        -13    1    3    3    0    0  0.39612000350E+02 -0.12427696400E+02 -0.21693971994E+02  0.46842145878E+02  0.00000000000E+00 0. -1.
         13    1    3    3    0    0  0.27058317368E+01  0.66913928230E+02  0.11161140692E+02  0.67892314573E+02  0.00000000000E+00 0.  1.
         -1    1    1    2    0  502  0.60151943177E+02  0.11158233526E+01  0.10749105221E+03  0.12318209137E+03  0.00000000000E+00 0.  1.
<scales pt_clust_5="13000.00000" pt_clust_6="13000.00000" pt_clust_7="13000.00000" pt_clust_8="13000.00000" pt_clust_9="60.16232"></scales>
<clustering>
<clus scale="   60.162">  2  9  1 -1</clus>
<clus scale="   79.284">  5  6 -1 -1</clus>
<clus scale="   91.069">  7  8 -1 -1</clus>
<clus scale="  110.575">  2  5  1 -1</clus>
<clus scale="   60.162">  2  5  1 -1</clus>
</clustering>
</event>
<event>
 9    1  0.5981539E-005  0.1837646E+03  0.7546771E-02  0.1165181E+00
         21   -1    0    0  501  502  0.00000000000E+00  0.00000000000E+00  0.70646965564E+02  0.70646965564E+02  0.00000000000E+00 0.  1.
         -2   -1    0    0    0  501 -0.00000000000E+00 -0.00000000000E+00 -0.77251134005E+03  0.77251134005E+03  0.00000000000E+00 0.  1.
        -24    2    1    2    0    0 -0.71251256177E+02  0.14525941654E+03 -0.48912718286E+03  0.52139371993E+03  0.80180861595E+02 0.  0.
         23    2    1    2    0    0  0.25798894938E+02 -0.16117768118E+03 -0.13285122633E+03  0.22848502875E+03  0.88950166570E+02 0.  0.
         11    1    3    3    0    0 -0.11106384691E+02  0.31665621985E+02 -0.31380528261E+02  0.45943453838E+02  0.00000000000E+00 0. -1.
        -12    1    3    3    0    0 -0.60144871486E+02  0.11359379455E+03 -0.45774665460E+03  0.47545026609E+03  0.00000000000E+00 0.  1.
        -11    1    4    4    0    0 -0.24273582776E+02 -0.87804705941E+02 -0.38506913969E+02  0.98902252905E+02  0.00000000000E+00 0.  1.
         11    1    4    4    0    0  0.50072477714E+02 -0.73372975243E+02 -0.94344312363E+02  0.12958277585E+03  0.00000000000E+00 0. -1.
         -1    1    1    2    0  502  0.45452361239E+02  0.15918264645E+02 -0.79885965294E+02  0.93279556938E+02  0.00000000000E+00 0.  1.
<scales pt_clust_5="13000.00000" pt_clust_6="13000.00000" pt_clust_7="13000.00000" pt_clust_8="13000.00000" pt_clust_9="48.15922"></scales>
<clustering>
<clus scale="   48.159">  1  9  2 -1</clus>
<clus scale="   80.181">  5  6 -1 -1</clus>
<clus scale="   88.950">  7  8 -1 -1</clus>
<clus scale="  179.684">  2  5  1 -1</clus>
<clus scale="   48.159">  1  5  2 -1</clus>
</clustering>
</event>
<event>
 9    1  0.5981539E-005  0.1038117E+03  0.7546771E-02  0.1276651E+00
         -2   -1    0    0    0  501 -0.00000000000E+00  0.00000000000E+00  0.57066376514E+03  0.57066376514E+03  0.00000000000E+00 0.  1.
         21   -1    0    0  501  502  0.00000000000E+00 -0.00000000000E+00 -0.59296495784E+02  0.59296495784E+02  0.00000000000E+00 0. -1.
        -24    2    1    2    0    0 -0.26292092065E+02 -0.54468877684E+02  0.39052851375E+03  0.40341668951E+03  0.81082504809E+02 0.  0.
         23    2    1    2    0    0 -0.41713509032E+02  0.12305509752E+02  0.28325784917E+02  0.10422774610E+03  0.90386008649E+02 0.  0.
         13    1    3    3    0    0 -0.48638316467E+02 -0.57912570277E+02  0.33561725591E+03  0.34403269334E+03  0.00000000000E+00 0. -1.
        -14    1    3    3    0    0  0.22346224402E+02  0.34436925931E+01  0.54911257841E+02  0.59383996172E+02  0.00000000000E+00 0.  1.
        -13    1    4    4    0    0 -0.66833098928E+02  0.25839078698E+02  0.17968644805E+02  0.73872818387E+02  0.00000000000E+00 0. -1.
         13    1    4    4    0    0  0.25119589897E+02 -0.13533568947E+02  0.10357140112E+02  0.30354927710E+02  0.00000000000E+00 0.  1.
         -1    1    1    2    0  502  0.68005601097E+02  0.42163367932E+02  0.92512970693E+02  0.12231582531E+03  0.00000000000E+00 0.  1.
<scales pt_clust_5="13000.00000" pt_clust_6="13000.00000" pt_clust_7="13000.00000" pt_clust_8="13000.00000" pt_clust_9="80.01569"></scales>
<clustering>
<clus scale="   80.016">  2  9  1 -1</clus>
<clus scale="   81.083">  5  6 -1 -1</clus>
<clus scale="   90.386">  7  8 -1 -1</clus>
<clus scale="   95.821">  1  5  2 -1</clus>
<clus scale="   80.016">  2  5  1 -1</clus>
</clustering>
</event>
<event>
 9    1  0.5981539E-005  0.9408419E+02  0.7546771E-02  0.1296115E+00
         21   -1    0    0  501  502  0.00000000000E+00  0.00000000000E+00  0.39083586385E+03  0.39083586385E+03  0.00000000000E+00 0.  1.
         -2   -1    0    0    0  501 -0.00000000000E+00 -0.00000000000E+00 -0.25317951973E+03  0.25317951973E+03  0.00000000000E+00 0.  1.
         23    2    1    2    0    0 -0.27820053359E+02 -0.20280779232E+02 -0.21514835018E+03  0.23575991135E+03  0.90048086255E+02 0.  0.
        -24    2    1    2    0    0 -0.38634247491E+02 -0.39232079460E+02  0.96991826813E+02  0.13733449182E+03  0.80134805406E+02 0.  0.
         11    1    4    4    0    0 -0.49904006282E+02 -0.89489482558E+01  0.91431148796E+02  0.10454735046E+03  0.00000000000E+00 0. -1.
        -12    1    4    4    0    0  0.11269758792E+02 -0.30283131204E+02  0.55606780173E+01  0.32787141363E+02  0.00000000000E+00 0.  1.
        -11    1    3    3    0    0  0.28016031004E+02 -0.14566856072E+02 -0.35326162816E+02  0.47381737709E+02  0.00000000000E+00 0. -1.
         11    1    3    3    0    0 -0.55836084363E+02 -0.57139231605E+01 -0.17982218737E+03  0.18837817364E+03  0.00000000000E+00 0.  1.
         -1    1    1    2    0  502  0.66454300850E+02  0.59512858692E+02  0.25581286749E+03  0.27092098041E+03  0.00000000000E+00 0.  1.
<scales pt_clust_5="13000.00000" pt_clust_6="13000.00000" pt_clust_7="13000.00000" pt_clust_8="13000.00000" pt_clust_9="89.20737"></scales>
<clustering>
<clus scale="   80.135">  5  6 -1 -1</clus>
<clus scale="   89.207">  1  9  2 -1</clus>
<clus scale="   89.207">  1  5  2 -1</clus>
<clus scale="   90.048">  7  8 -1 -1</clus>
<clus scale="   89.207">  1  5  2 -1</clus>
</clustering>
</event>
<event>
 9    1  0.5981539E-005  0.1851726E+03  0.7546771E-02  0.1193241E+00
         21   -1    0    0  501  502  0.00000000000E+00  0.00000000000E+00  0.65268673960E+02  0.65268673960E+02  0.00000000000E+00 0. -1.
          1   -1    0    0  502    0 -0.00000000000E+00 -0.00000000000E+00 -0.11091466811E+04  0.11091466811E+04  0.00000000000E+00 0. -1.
         23    2    1    2    0    0 -0.21713269809E+02 -0.12541296138E+02 -0.27840444077E+02  0.97434841363E+02  0.89942802883E+02 0.  0.
        -24    2    1    2    0    0  0.16129766245E+03 -0.68684158212E+02 -0.61766983350E+03  0.64712213579E+03  0.80725373353E+02 0.  0.
         11    1    4    4    0    0  0.85042940359E+02 -0.78345709612E+02 -0.39374426901E+03  0.41037166240E+03  0.00000000000E+00 0. -1.
        -12    1    4    4    0    0  0.76254722091E+02  0.96615514003E+01 -0.22392556449E+03  0.23675047339E+03  0.00000000000E+00 0.  1.
        -11    1    3    3    0    0  0.11556721656E+02  0.25453590613E+02 -0.36728130983E+02  0.46156242222E+02  0.00000000000E+00 0.  1.
         11    1    3    3    0    0 -0.33269991465E+02 -0.37994886751E+02  0.88876869061E+01  0.51278599141E+02  0.00000000000E+00 0. -1.
          2    1    1    2  501    0 -0.13958439264E+03  0.81225454350E+02 -0.39836772953E+03  0.42985837788E+03  0.00000000000E+00 0. -1.
<scales pt_clust_5="13000.00000" pt_clust_6="13000.00000" pt_clust_7="13000.00000" pt_clust_8="13000.00000" pt_clust_9="166.65021"></scales>
<clustering>
<clus scale="   80.725">  5  6 -1 -1</clus>
<clus scale="   89.943">  7  8 -1 -1</clus>
<clus scale="   93.373">  2  7  1 -1</clus>
<clus scale="  166.650">  1  9  2 -1</clus>
<clus scale="  166.650">  1  5  2 -1</clus>
</clustering>
</event>
<event>
 9    1  0.5981539E-005  0.1200105E+03  0.7546771E-02  0.1246064E+00
          3   -1    0    0  502    0 -0.00000000000E+00  0.00000000000E+00  0.18786544084E+03  0.18786544084E+03  0.00000000000E+00 0. -1.
         21   -1    0    0  501  502  0.00000000000E+00 -0.00000000000E+00 -0.20510041376E+03  0.20510041376E+03  0.00000000000E+00 0.  1.
        -24    2    1    2    0    0 -0.23435456870E+02 -0.76562259915E+02  0.13842022146E+03  0.17903934563E+03  0.80522849506E+02 0.  0.
         23    2    1    2    0    0 -0.41074906065E+01  0.77674651200E+02 -0.12235658316E+03  0.17069863741E+03  0.90092554919E+02 0.  0.
         11    1    3    3    0    0 -0.17690569715E+01 -0.48423939122E+02  0.13491558462E+03  0.14335348763E+03  0.00000000000E+00 0. -1.
        -12    1    3    3    0    0 -0.21666399899E+02 -0.28138320793E+02  0.35046368387E+01  0.35685857997E+02  0.00000000000E+00 0.  1.
        -11    1    4    4    0    0 -0.33576526723E+02  0.69411400617E+02 -0.11623873924E+03  0.13948752698E+03  0.00000000000E+00 0.  1.
         11    1    4    4    0    0  0.29469036117E+02  0.82632505826E+01 -0.61178439172E+01  0.31211110426E+02  0.00000000000E+00 0. -1.
          4    1    1    2  501    0  0.27542947477E+02 -0.11123912852E+01 -0.33298611221E+02  0.43227871557E+02  0.00000000000E+00 0. -1.
<scales pt_clust_5="13000.00000" pt_clust_6="13000.00000" pt_clust_7="13000.00000" pt_clust_8="13000.00000" pt_clust_9="27.56540"></scales>
<clustering>
<clus scale="   27.565">  2  9  1 -1</clus>
<clus scale="   80.523">  5  6 -1 -1</clus>
<clus scale="   90.093">  7  8 -1 -1</clus>
<clus scale="  113.003">  1  5  2 -1</clus>
<clus scale="   27.565">  2  5  1 -1</clus>
</clustering>
</event>
<event>
 9    1  0.5981539E-005  0.1077097E+03  0.7546771E-02  0.1270182E+00
         21   -1    0    0  501  502  0.00000000000E+00  0.00000000000E+00  0.10349085828E+03  0.10349085828E+03  0.00000000000E+00 0. -1.
          3   -1    0    0  502    0 -0.00000000000E+00 -0.00000000000E+00 -0.34105227818E+03  0.34105227818E+03  0.00000000000E+00 0. -1.
        -24    2    1    2    0    0  0.56740027737E+02 -0.15043004890E+01 -0.24131709148E+03  0.26035569817E+03  0.79557886230E+02 0.  0.
         23    2    1    2    0    0 -0.45242243224E+02  0.22430535333E+02  0.61463868022E+02  0.12173471784E+03  0.92149579321E+02 0.  0.
         13    1    3    3    0    0  0.54393966331E+02  0.71768121477E+01 -0.24467927677E+03  0.25075517679E+03  0.00000000000E+00 0. -1.
        -14    1    3    3    0    0  0.23460614062E+01 -0.86811126367E+01  0.33621852947E+01  0.96005213759E+01  0.00000000000E+00 0.  1.
        -13    1    4    4    0    0 -0.64183416914E+02  0.11597206358E+02  0.72299891700E+02  0.97371867302E+02  0.00000000000E+00 0. -1.
         13    1    4    4    0    0  0.18941173690E+02  0.10833328975E+02 -0.10836023677E+02  0.24362850542E+02  0.00000000000E+00 0.  1.
          4    1    1    2  501    0 -0.11497784513E+02 -0.20926234844E+02 -0.57708196454E+02  0.62452720448E+02  0.00000000000E+00 0. -1.
<scales pt_clust_5="13000.00000" pt_clust_6="13000.00000" pt_clust_7="13000.00000" pt_clust_8="13000.00000" pt_clust_9="23.87691"></scales>
<clustering>
<clus scale="   23.877">  1  9  2 -1</clus>
<clus scale="   79.558">  5  6 -1 -1</clus>
<clus scale="   92.150">  7  8 -1 -1</clus>
<clus scale="   97.156">  2  5  1 -1</clus>
<clus scale="   23.877">  1  5  2 -1</clus>
</clustering>
</event>
<event>
 9    1  0.5981539E-005  0.2866196E+03  0.7546771E-02  0.1118086E+00
         -4   -1    0    0    0  501 -0.00000000000E+00  0.00000000000E+00  0.20510262851E+03  0.20510262851E+03  0.00000000000E+00 0.  1.
         21   -1    0    0  501  502  0.00000000000E+00 -0.00000000000E+00 -0.23309071790E+04  0.23309071790E+04  0.00000000000E+00 0.  1.
         23    2    1    2    0    0 -0.89694418191E+02  0.72069355114E+02  0.13120789607E+03  0.19708547916E+03  0.91586535603E+02 0.  0.
        -24    2    1    2    0    0  0.10563834714E+02  0.21709467028E+03 -0.45427650356E+03  0.51143031658E+03  0.89174752936E+02 0.  0.
         13    1    4    4    0    0  0.25568645068E+02  0.47197195259E+02 -0.18545322852E+03  0.19306535375E+03  0.00000000000E+00 0. -1.
        -14    1    4    4    0    0 -0.15004810354E+02  0.16989747502E+03 -0.26882327504E+03  0.31836496283E+03  0.00000000000E+00 0.  1.
        -11    1    3    3    0    0 -0.10621154224E+03  0.50027443074E+02  0.91934109528E+02  0.14911578474E+03  0.00000000000E+00 0.  1.
         11    1    3    3    0    0  0.16517124046E+02  0.22041912040E+02  0.39273786545E+02  0.47969694420E+02  0.00000000000E+00 0. -1.
         -3    1    1    2    0  502  0.79130583477E+02 -0.28916402540E+03 -0.18027359430E+04  0.18274940117E+04  0.00000000000E+00 0.  1.
<scales pt_clust_5="13000.00000" pt_clust_6="13000.00000" pt_clust_7="13000.00000" pt_clust_8="13000.00000" pt_clust_9="272.39428"></scales>
<clustering>
<clus scale="   89.175">  5  6 -1 -1</clus>
<clus scale="   91.587">  7  8 -1 -1</clus>
<clus scale="  147.062">  1  7  2 -1</clus>
<clus scale="  272.394">  2  9  1 -1</clus>
<clus scale="  272.394">  2  5  1 -1</clus>
</clustering>
</event>
<event>
 9    1  0.5981539E-005  0.1418028E+03  0.7546771E-02  0.1226882E+00
          1   -1    0    0  502    0 -0.00000000000E+00  0.00000000000E+00  0.15824651767E+03  0.15824651767E+03  0.00000000000E+00 0. -1.
         21   -1    0    0  501  502  0.00000000000E+00 -0.00000000000E+00 -0.58587452948E+03  0.58587452948E+03  0.00000000000E+00 0. -1.
         23    2    1    2    0    0 -0.73716074619E+00  0.38768275847E+02 -0.15793702321E+03  0.18766679536E+03  0.93654685756E+02 0.  0.
        -24    2    1    2    0    0  0.11490842009E+03  0.78318685775E+01 -0.37084068821E+03  0.39696158220E+03  0.82403874550E+02 0.  0.
         13    1    4    4    0    0  0.12703883579E+03  0.37584898094E+01 -0.35149424467E+03  0.37376623186E+03  0.00000000000E+00 0. -1.
        -14    1    4    4    0    0 -0.12130415704E+02  0.40733787681E+01 -0.19346443537E+02  0.23195350338E+02  0.00000000000E+00 0.  1.
        -11    1    3    3    0    0  0.40021128544E+02  0.29141256805E+02 -0.43843780030E+02  0.66130028167E+02  0.00000000000E+00 0.  1.
         11    1    3    3    0    0 -0.40758289290E+02  0.96270190419E+01 -0.11409324318E+03  0.12153676720E+03  0.00000000000E+00 0. -1.
          2    1    1    2  501    0 -0.11417125934E+03 -0.46600144424E+02  0.10114969961E+03  0.15949266959E+03  0.00000000000E+00 0. -1.
<scales pt_clust_5="13000.00000" pt_clust_6="13000.00000" pt_clust_7="13000.00000" pt_clust_8="13000.00000" pt_clust_9="115.40214"></scales>
<clustering>
<clus scale="   82.404">  5  6 -1 -1</clus>
<clus scale="   93.655">  7  8 -1 -1</clus>
<clus scale="  101.364">  1  7  2 -1</clus>
<clus scale="  115.402">  2  9  1 -1</clus>
<clus scale="  115.402">  2  5  1 -1</clus>
</clustering>
</event>
<event>
 9    1  0.5981539E-005  0.1511102E+03  0.7546771E-02  0.1229079E+00
         -4   -1    0    0    0  501 -0.00000000000E+00  0.00000000000E+00  0.22327407910E+03  0.22327407910E+03  0.00000000000E+00 0.  1.
         21   -1    0    0  501  502  0.00000000000E+00 -0.00000000000E+00 -0.14768729517E+03  0.14768729517E+03  0.00000000000E+00 0.  1.
        -24    2    1    2    0    0  0.11041621355E+02  0.10093553628E+01  0.53371539605E+02  0.96200130169E+02  0.79265425025E+02 0.  0.
         23    2    1    2    0    0  0.10904326853E+03  0.12133089658E+02  0.43970670020E+02  0.15201596645E+03  0.95591777666E+02 0.  0.
         11    1    3    3    0    0  0.24933199376E+02  0.32065096781E+02  0.11430964624E+02  0.42195992877E+02  0.00000000000E+00 0. -1.
        -12    1    3    3    0    0 -0.13891578020E+02 -0.31055741418E+02  0.41940574981E+02  0.54004137292E+02  0.00000000000E+00 0.  1.
        -13    1    4    4    0    0  0.87128492207E+01  0.38613721344E+02  0.70395349780E+00  0.39590766198E+02  0.00000000000E+00 0. -1.
         13    1    4    4    0    0  0.10033041931E+03 -0.26480631686E+02  0.43266716522E+02  0.11242520025E+03  0.00000000000E+00 0.  1.
         -3    1    1    2    0  502 -0.12008488988E+03 -0.13142445021E+02 -0.21755425687E+02  0.12274527765E+03  0.00000000000E+00 0.  1.
<scales pt_clust_5="13000.00000" pt_clust_6="13000.00000" pt_clust_7="13000.00000" pt_clust_8="13000.00000" pt_clust_9="117.03207"></scales>
<clustering>
<clus scale="   79.265">  5  6 -1 -1</clus>
<clus scale="   80.037">  1  5  2 -1</clus>
<clus scale="   95.592">  7  8 -1 -1</clus>
<clus scale="  117.032">  2  9  1 -1</clus>
<clus scale="  117.032">  2  5  1 -1</clus>
</clustering>
</event>
<event>
 9    1  0.5981539E-005  0.1268704E+03  0.7546771E-02  0.1249302E+00
         21   -1    0    0  501  502  0.00000000000E+00  0.00000000000E+00  0.49369917137E+03  0.49369917137E+03  0.00000000000E+00 0. -1.
          1   -1    0    0  502    0 -0.00000000000E+00 -0.00000000000E+00 -0.10912701803E+03  0.10912701803E+03  0.00000000000E+00 0. -1.
        -24    2    1    2    0    0  0.40045044361E+02  0.82575641392E+00  0.69039855467E+02  0.11314012414E+03  0.80186648484E+02 0.  0.
         23    2    1    2    0    0  0.52063938123E+02  0.17932192769E+02 -0.47821573280E+02  0.11437025025E+03  0.88099001592E+02 0.  0.
         13    1    3    3    0    0  0.27684811214E+02 -0.20527455444E+02 -0.52481570271E+01  0.34862133485E+02  0.00000000000E+00 0. -1.
        -14    1    3    3    0    0  0.12360233148E+02  0.21353211858E+02  0.74288012494E+02  0.78277990651E+02  0.00000000000E+00 0.  1.
        -13    1    4    4    0    0  0.17135893053E+02  0.22739503538E+02  0.22112609847E+02  0.36051232519E+02  0.00000000000E+00 0.  1.
         13    1    4    4    0    0  0.34928045069E+02 -0.48073107693E+01 -0.69934183126E+02  0.78319017734E+02  0.00000000000E+00 0. -1.
          2    1    1    2  501    0 -0.92108982484E+02 -0.18757949183E+02  0.36335387115E+03  0.37531581500E+03  0.00000000000E+00 0. -1.
<scales pt_clust_5="13000.00000" pt_clust_6="13000.00000" pt_clust_7="13000.00000" pt_clust_8="13000.00000" pt_clust_9="91.29440"></scales>
<clustering>
<clus scale="   80.187">  5  6 -1 -1</clus>
<clus scale="   88.099">  7  8 -1 -1</clus>
<clus scale="   89.634">  2  5  1 -1</clus>
<clus scale="   91.294">  1  9  2 -1</clus>
<clus scale="   91.294">  1  5  2 -1</clus>
</clustering>
</event>
<event>
 9    1  0.5981539E-005  0.1362522E+03  0.7546771E-02  0.1221624E+00
         -2   -1    0    0    0  501 -0.00000000000E+00  0.00000000000E+00  0.21932380926E+03  0.21932380926E+03  0.00000000000E+00 0.  1.
         21   -1    0    0  501  502  0.00000000000E+00 -0.00000000000E+00 -0.39068912213E+03  0.39068912213E+03  0.00000000000E+00 0.  1.
         23    2    1    2    0    0  0.10626493249E+03  0.86242857663E+01  0.17202457099E+03  0.22336617038E+03  0.94516553387E+02 0.  0.
        -24    2    1    2    0    0 -0.55641248279E+02 -0.14793313571E+01 -0.11002890311E+03  0.14775106178E+03  0.81399507410E+02 0.  0.
         13    1    4    4    0    0 -0.30580005079E+02 -0.39455764549E+02 -0.38776460403E+02  0.63210030439E+02  0.00000000000E+00 0. -1.
        -14    1    4    4    0    0 -0.25061243199E+02  0.37976433192E+02 -0.71252442706E+02  0.84541031341E+02  0.00000000000E+00 0.  1.
        -13    1    3    3    0    0  0.10373890162E+03 -0.22772046541E+02  0.10519991554E+03  0.14949029414E+03  0.00000000000E+00 0.  1.
         13    1    3    3    0    0  0.25260308714E+01  0.31396332307E+02  0.66824655447E+02  0.73875876238E+02  0.00000000000E+00 0. -1.
         -1    1    1    2    0  502 -0.50623684210E+02 -0.71449544093E+01 -0.23336098075E+03  0.23889569923E+03  0.00000000000E+00 0.  1.
<scales pt_clust_5="13000.00000" pt_clust_6="13000.00000" pt_clust_7="13000.00000" pt_clust_8="13000.00000" pt_clust_9="51.12541"></scales>
<clustering>
<clus scale="   51.125">  2  9  1 -1</clus>
<clus scale="   81.400">  5  6 -1 -1</clus>
<clus scale="   94.517">  7  8 -1 -1</clus>
<clus scale="  127.504">  2  5  1 -1</clus>
<clus scale="   51.125">  2  5  1 -1</clus>
</clustering>
</event>
<event>
 9    1  0.5981539E-005  0.1479797E+03  0.7546771E-02  0.1229568E+00
         -2   -1    0    0    0  501 -0.00000000000E+00  0.00000000000E+00  0.24835905333E+03  0.24835905333E+03  0.00000000000E+00 0.  1.
         21   -1    0    0  501  502  0.00000000000E+00 -0.00000000000E+00 -0.66680087341E+03  0.66680087341E+03  0.00000000000E+00 0.  1.
        -24    2    1    2    0    0  0.19211057103E+02 -0.21316408576E+01  0.19330568632E+03  0.21091493635E+03  0.82124377651E+02 0.  0.
         23    2    1    2    0    0  0.47405285672E+02  0.99490613056E+02 -0.89020082472E+02  0.16837143598E+03  0.90987483613E+02 0.  0.
         11    1    3    3    0    0  0.33649922452E+01 -0.41279060710E+02  0.10946737825E+03  0.11704012529E+03  0.00000000000E+00 0. -1.
        -12    1    3    3    0    0  0.15846064858E+02  0.39147419852E+02  0.83838308065E+02  0.93874811061E+02  0.00000000000E+00 0.  1.
        -11    1    4    4    0    0  0.26801526290E+02  0.11369260041E+03 -0.64959340928E+02  0.13365644456E+03  0.00000000000E+00 0.  1.
         11    1    4    4    0    0  0.20603759381E+02 -0.14201987352E+02 -0.24060741544E+02  0.34714991417E+02  0.00000000000E+00 0. -1.
         -1    1    1    2    0  502 -0.66616342775E+02 -0.97358972199E+02 -0.52272742392E+03  0.53587355441E+03  0.00000000000E+00 0.  1.
<scales pt_clust_5="13000.00000" pt_clust_6="13000.00000" pt_clust_7="13000.00000" pt_clust_8="13000.00000" pt_clust_9="116.70164"></scales>
<clustering>
<clus scale="   82.124">  5  6 -1 -1</clus>
<clus scale="   84.368">  1  5  2 -1</clus>
<clus scale="   90.987">  7  8 -1 -1</clus>
<clus scale="  116.702">  2  9  1 -1</clus>
<clus scale="  116.702">  2  5  1 -1</clus>
</clustering>
</event>
<event>
 9    1  0.5981539E-005  0.1403465E+03  0.7546771E-02  0.1214680E+00
         -4   -1    0    0    0  501 -0.00000000000E+00  0.00000000000E+00  0.21677389896E+03  0.21677389896E+03  0.00000000000E+00 0.  1.
         21   -1    0    0  501  502  0.00000000000E+00 -0.00000000000E+00 -0.24046072035E+03  0.24046072035E+03  0.00000000000E+00 0.  1.
        -24    2    1    2    0    0  0.71289694843E+02  0.88241085197E+02  0.78546040013E+02  0.16028838927E+03  0.81573142803E+02 0.  0.
         23    2    1    2    0    0 -0.16243645568E+02 -0.88533706845E+02 -0.16823651132E+03  0.21100069513E+03  0.90087159660E+02 0.  0.
         13    1    3    3    0    0  0.25280433673E+01  0.37184841196E+02 -0.84426047454E+01  0.38214931544E+02  0.00000000000E+00 0. -1.
        -14    1    3    3    0    0  0.68761651476E+02  0.51056244001E+02  0.86988644758E+02  0.12207345773E+03  0.00000000000E+00 0.  1.
        -11    1    4    4    0    0  0.18123857746E+02 -0.74431035357E+02 -0.62303822071E+02  0.98743199708E+02  0.00000000000E+00 0.  1.
         11    1    4    4    0    0 -0.34367503314E+02 -0.14102671488E+02 -0.10593268925E+03  0.11225749542E+03  0.00000000000E+00 0. -1.
         -3    1    1    2    0  502 -0.55046049275E+02  0.29262164854E+00  0.66003649913E+02  0.85945534905E+02  0.00000000000E+00 0.  1.
<scales pt_clust_5="13000.00000" pt_clust_6="13000.00000" pt_clust_7="13000.00000" pt_clust_8="13000.00000" pt_clust_9="55.04685"></scales>
<clustering>
<clus scale="   55.047">  2  9  1 -1</clus>
<clus scale="   81.573">  5  6 -1 -1</clus>
<clus scale="   90.087">  7  8 -1 -1</clus>
<clus scale="  135.039">  1  5  2 -1</clus>
<clus scale="   55.047">  2  5  1 -1</clus>
</clustering>
</event>
<event>
 9    1  0.5981539E-005  0.9480847E+02  0.7546771E-02  0.1295378E+00
         21   -1    0    0  501  502  0.00000000000E+00  0.00000000000E+00  0.15393537359E+03  0.15393537359E+03  0.00000000000E+00 0.  1.
          3   -1    0    0  502    0 -0.00000000000E+00 -0.00000000000E+00 -0.15855996530E+03  0.15855996530E+03  0.00000000000E+00 0. -1.
         23    2    1    2    0    0  0.80914310641E+01  0.13415786807E+02 -0.77270710715E+02  0.12231522993E+03  0.93513625457E+02 0.  0.
        -24    2    1    2    0    0  0.19431702990E+02 -0.24632653076E+02  0.10918318702E+03  0.14308129436E+03  0.86988101421E+02 0.  0.
         11    1    4    4    0    0  0.29366520521E+02  0.12254042571E+02  0.51226094833E+01  0.32230346178E+02  0.00000000000E+00 0. -1.
        -12    1    4    4    0    0 -0.99348175318E+01 -0.36886695647E+02  0.10406057754E+03  0.11085094818E+03  0.00000000000E+00 0.  1.
        -13    1    3    3    0    0  0.36368157979E+02  0.37583120992E+02 -0.64385370091E+02  0.82949441107E+02  0.00000000000E+00 0.  1.
         13    1    3    3    0    0 -0.28276726915E+02 -0.24167334185E+02 -0.12885340624E+02  0.39365788823E+02  0.00000000000E+00 0. -1.
          4    1    1    2  501    0 -0.27523134054E+02  0.11216866269E+02 -0.36537068017E+02  0.47098814596E+02  0.00000000000E+00 0. -1.
<scales pt_clust_5="13000.00000" pt_clust_6="13000.00000" pt_clust_7="13000.00000" pt_clust_8="13000.00000" pt_clust_9="29.72107"></scales>
<clustering>
<clus scale="   29.721">  1  9  2 -1</clus>
<clus scale="   86.988">  5  6 -1 -1</clus>
<clus scale="   88.379">  1  5  2 -1</clus>
<clus scale="   93.514">  7  8 -1 -1</clus>
<clus scale="   29.721">  1  5  2 -1</clus>
</clustering>
</event>
<event>
 9    1  0.5981539E-005  0.1218535E+03  0.7546771E-02  0.1244461E+00
         21   -1    0    0  501  502  0.00000000000E+00  0.00000000000E+00  0.69770546581E+02  0.69770546581E+02  0.00000000000E+00 0.  1.
          1   -1    0    0  502    0 -0.00000000000E+00 -0.00000000000E+00 -0.50362472424E+03  0.50362472424E+03  0.00000000000E+00 0. -1.
        -24    2    1    2    0    0  0.51996787353E+02  0.63444692846E+02 -0.39638920275E+03  0.41258323143E+03  0.79822477099E+02 0.  0.
         23    2    1    2    0    0 -0.59144473904E+02 -0.20461106646E+02 -0.24491027898E+02  0.11534775223E+03  0.93747361667E+02 0.  0.
         13    1    3    3    0    0  0.13762778987E+02  0.71420589442E+02 -0.29745701360E+03  0.30622049184E+03  0.00000000000E+00 0. -1.
        -14    1    3    3    0    0  0.38234008366E+02 -0.79758965964E+01 -0.98932189151E+02  0.10636273959E+03  0.00000000000E+00 0.  1.
        -11    1    4    4    0    0 -0.36841833126E+02 -0.31584415866E+02  0.28861393890E+02  0.56461279218E+02  0.00000000000E+00 0.  1.
         11    1    4    4    0    0 -0.22302640778E+02  0.11123309220E+02 -0.53352421788E+02  0.58886473017E+02  0.00000000000E+00 0. -1.
          2    1    1    2  501    0  0.71476865512E+01 -0.42983586200E+02 -0.12973947004E+02  0.45464287155E+02  0.00000000000E+00 0. -1.
<scales pt_clust_5="13000.00000" pt_clust_6="13000.00000" pt_clust_7="13000.00000" pt_clust_8="13000.00000" pt_clust_9="43.57382"></scales>
<clustering>
<clus scale="   43.574">  1  9  2 -1</clus>
<clus scale="   79.822">  5  6 -1 -1</clus>
<clus scale="   93.747">  7  8 -1 -1</clus>
<clus scale="  111.496">  2  5  1 -1</clus>
<clus scale="   43.574">  1  5  2 -1</clus>
</clustering>
</event>
<event>
 9    1  0.5981539E-005  0.1115361E+03  0.7546771E-02  0.1261216E+00
         21   -1    0    0  501  502  0.00000000000E+00  0.00000000000E+00  0.32682548406E+02  0.32682548406E+02  0.00000000000E+00 0.  1.
          1   -1    0    0  502    0 -0.00000000000E+00 -0.00000000000E+00 -0.74577577406E+03  0.74577577406E+03  0.00000000000E+00 0. -1.
         23    2    1    2    0    0 -0.28992152595E+02 -0.58278599560E+02 -0.60658385939E+03  0.61707750088E+03  0.92756258811E+02 0.  0.
        -24    2    1    2    0    0  0.34934555744E+02  0.37562179070E+02 -0.96187414488E+02  0.13748469383E+03  0.83777573671E+02 0.  0.
         13    1    4    4    0    0  0.26960511804E+02  0.54392514539E+01 -0.10041904138E+03  0.10411742661E+03  0.00000000000E+00 0. -1.
        -14    1    4    4    0    0  0.79740439400E+01  0.32122927616E+02  0.42316268911E+01  0.33367267217E+02  0.00000000000E+00 0.  1.
        -11    1    3    3    0    0  0.22654338717E+02 -0.56751855251E+02 -0.35844448083E+03  0.36361578345E+03  0.00000000000E+00 0.  1.
         11    1    3    3    0    0 -0.51646491313E+02 -0.15267443092E+01 -0.24813937856E+03  0.25346171744E+03  0.00000000000E+00 0. -1.
          2    1    1    2  501    0 -0.59424031484E+01  0.20716420490E+02 -0.10321951781E+02  0.23896127755E+02  0.00000000000E+00 0. -1.
<scales pt_clust_5="13000.00000" pt_clust_6="13000.00000" pt_clust_7="13000.00000" pt_clust_8="13000.00000" pt_clust_9="21.55185"></scales>
<clustering>
<clus scale="   21.552">  1  9  2 -1</clus>
<clus scale="   83.778">  5  6 -1 -1</clus>
<clus scale="   92.756">  7  8 -1 -1</clus>
<clus scale="  104.189">  1  5  2 -1</clus>
<clus scale="   21.552">  1  5  2 -1</clus>
</clustering>
</event>
<event>
 9    1  0.5981539E-005  0.2092178E+03  0.7546771E-02  0.1152250E+00
         21   -1    0    0  501  502  0.00000000000E+00  0.00000000000E+00  0.18875029238E+03  0.18875029238E+03  0.00000000000E+00 0. -1.
          1   -1    0    0  502    0 -0.00000000000E+00 -0.00000000000E+00 -0.84913849745E+03  0.84913849745E+03  0.00000000000E+00 0. -1.
        -24    2    1    2    0    0  0.22236254803E+02  0.13993764361E+03  0.19418119036E+02  0.16577952915E+03  0.83837901985E+02 0.  0.
         23    2    1    2    0    0  0.69148756568E+02 -0.27930062422E+03 -0.62682901432E+03  0.69723829105E+03  0.10215787828E+03 0.  0.
         13    1    3    3    0    0  0.18650582117E+02  0.15113159677E+03  0.14263041491E+02  0.15294455894E+03  0.00000000000E+00 0. -1.
        -14    1    3    3    0    0  0.35856726863E+01 -0.11193953155E+02  0.51550775447E+01  0.12834970212E+02  0.00000000000E+00 0.  1.
        -13    1    4    4    0    0 -0.26019042730E+02 -0.48209208232E+02 -0.96339098901E+02  0.11082572048E+03  0.00000000000E+00 0.  1.
         13    1    4    4    0    0  0.95167799298E+02 -0.23109141599E+03 -0.53048991542E+03  0.58641257057E+03  0.00000000000E+00 0. -1.
          2    1    1    2  501    0 -0.91385011371E+02  0.13936298060E+03 -0.52977309788E+02  0.17487096963E+03  0.00000000000E+00 0. -1.
<scales pt_clust_5="13000.00000" pt_clust_6="13000.00000" pt_clust_7="13000.00000" pt_clust_8="13000.00000" pt_clust_9="182.58107"></scales>
<clustering>
<clus scale="   83.838">  5  6 -1 -1</clus>
<clus scale="  102.158">  7  8 -1 -1</clus>
<clus scale="  164.638">  2  5  1 -1</clus>
<clus scale="  182.581">  1  9  2 -1</clus>
<clus scale="  182.581">  1  5  2 -1</clus>
</clustering>
</event>
<event>
 9    1  0.5981539E-005  0.3798297E+03  0.7546771E-02  0.1098273E+00
         -4   -1    0    0    0  501 -0.00000000000E+00  0.00000000000E+00  0.15349883423E+03  0.15349883423E+03  0.00000000000E+00 0.  1.
         21   -1    0    0  501  502  0.00000000000E+00 -0.00000000000E+00 -0.15269753468E+04  0.15269753468E+04  0.00000000000E+00 0.  1.
        -24    2    1    2    0    0  0.65532740602E+02 -0.72623247315E+01 -0.23137154068E+03  0.25402161562E+03  0.81528583415E+02 0.  0.
         23    2    1    2    0    0 -0.12642388557E+03 -0.35031514375E+03 -0.93076041001E+03  0.10066479664E+04  0.91222194119E+02 0.  0.
         13    1    3    3    0    0  0.22891738555E+02  0.19663983784E+02 -0.18811298262E+02  0.35560777475E+02  0.00000000000E+00 0. -1.
        -14    1    3    3    0    0  0.42641002048E+02 -0.26926308515E+02 -0.21256024242E+03  0.21846083815E+03  0.00000000000E+00 0.  1.
        -13    1    4    4    0    0 -0.53499258046E+02 -0.88353736581E+02 -0.35824004109E+03  0.37283304631E+03  0.00000000000E+00 0. -1.
         13    1    4    4    0    0 -0.72924627524E+02 -0.26196140717E+03 -0.57252036892E+03  0.63381492012E+03  0.00000000000E+00 0.  1.
         -3    1    1    2    0  502  0.60891144968E+02  0.35757746848E+03 -0.21134456190E+03  0.41980459900E+03  0.00000000000E+00 0.  1.
<scales pt_clust_5="13000.00000" pt_clust_6="13000.00000" pt_clust_7="13000.00000" pt_clust_8="13000.00000" pt_clust_9="368.71294"></scales>
<clustering>
<clus scale="   81.529">  5  6 -1 -1</clus>
<clus scale="   91.222">  7  8 -1 -1</clus>
<clus scale="  104.853">  1  5  2 -1</clus>
<clus scale="  368.713">  2  9  1 -1</clus>
<clus scale="  368.713">  2  5  1 -1</clus>
</clustering>
</event>
<event>
 9    1  0.5981539E-005  0.1219066E+03  0.7546771E-02  0.1242911E+00
         21   -1    0    0  501  502  0.00000000000E+00  0.00000000000E+00  0.43264914907E+03  0.43264914907E+03  0.00000000000E+00 0.  1.
         -4   -1    0    0    0  501 -0.00000000000E+00 -0.00000000000E+00 -0.10649884525E+03  0.10649884525E+03  0.00000000000E+00 0.  1.
         23    2    1    2    0    0 -0.79679773997E+02 -0.19535586602E+02 -0.40034655605E+02  0.12928913723E+03  0.91555457658E+02 0.  0.
        -24    2    1    2    0    0  0.79359980214E+02 -0.39970131641E+02  0.28144190396E+03  0.30630974691E+03  0.81978642725E+02 0.  0.
         13    1    4    4    0    0  0.26407826645E+02  0.14658304154E+02  0.26243091391E+02  0.40011736210E+02  0.00000000000E+00 0. -1.
        -14    1    4    4    0    0  0.52952153569E+02 -0.54628435795E+02  0.25519881257E+03  0.26629801070E+03  0.00000000000E+00 0.  1.
        -11    1    3    3    0    0 -0.59551708002E+02 -0.35658262750E+02 -0.63756814010E+02  0.94248867160E+02  0.00000000000E+00 0.  1.
         11    1    3    3    0    0 -0.20128065996E+02  0.16122676149E+02  0.23722158404E+02  0.35040270066E+02  0.00000000000E+00 0. -1.
         -3    1    1    2    0  502  0.31979378346E+00  0.59505718242E+02  0.84743055458E+02  0.10354911018E+03  0.00000000000E+00 0.  1.
<scales pt_clust_5="13000.00000" pt_clust_6="13000.00000" pt_clust_7="13000.00000" pt_clust_8="13000.00000" pt_clust_9="59.50658"></scales>
<clustering>
<clus scale="   59.507">  1  9  2 -1</clus>
<clus scale="   81.979">  5  6 -1 -1</clus>
<clus scale="   91.555">  7  8 -1 -1</clus>
<clus scale="  114.888">  1  5  2 -1</clus>
<clus scale="   59.507">  1  5  2 -1</clus>
</clustering>
</event>
<event>
 9    1  0.5981539E-005  0.9438882E+02  0.7546771E-02  0.1297783E+00
         -4   -1    0    0    0  501 -0.00000000000E+00  0.00000000000E+00  0.45857135395E+02  0.45857135395E+02  0.00000000000E+00 0.  1.
         21   -1    0    0  501  502  0.00000000000E+00 -0.00000000000E+00 -0.49549546443E+03  0.49549546443E+03  0.00000000000E+00 0.  1.
        -24    2    1    2    0    0  0.58583318113E+01  0.23792684801E+02 -0.30414078624E+02  0.88981083017E+02  0.79951266748E+02 0.  0.
         23    2    1    2    0    0 -0.58720726366E+02 -0.38703830241E+02 -0.25395609146E+03  0.27821543917E+03  0.89241380656E+02 0.  0.
         13    1    3    3    0    0 -0.31770865357E+02  0.65428033553E+01  0.69995478705E+01  0.33184180443E+02  0.00000000000E+00 0. -1.
        -14    1    3    3    0    0  0.37629197168E+02  0.17249881446E+02 -0.37413626495E+02  0.55796902574E+02  0.00000000000E+00 0.  1.
        -13    1    4    4    0    0 -0.71577935905E+02 -0.13981977436E+02 -0.23059486582E+03  0.24185303129E+03  0.00000000000E+00 0.  1.
         13    1    4    4    0    0  0.12857209539E+02 -0.24721852805E+02 -0.23361225639E+02  0.36362407877E+02  0.00000000000E+00 0. -1.
         -3    1    1    2    0  502  0.52862394554E+02  0.14911145440E+02 -0.16526815895E+03  0.17415607764E+03  0.00000000000E+00 0.  1.
<scales pt_clust_5="13000.00000" pt_clust_6="13000.00000" pt_clust_7="13000.00000" pt_clust_8="13000.00000" pt_clust_9="54.92518"></scales>
<clustering>
<clus scale="   54.925">  2  9  1 -1</clus>
<clus scale="   79.951">  5  6 -1 -1</clus>
<clus scale="   85.659">  1  5  2 -1</clus>
<clus scale="   89.241">  7  8 -1 -1</clus>
<clus scale="   54.925">  2  5  1 -1</clus>
</clustering>
</event>
<event>
 9    1  0.5981539E-005  0.3484763E+03  0.7546771E-02  0.1063468E+00
         21   -1    0    0  501  502  0.00000000000E+00  0.00000000000E+00  0.36079653625E+03  0.36079653625E+03  0.00000000000E+00 0.  1.
         -2   -1    0    0    0  501 -0.00000000000E+00 -0.00000000000E+00 -0.41788800850E+03  0.41788800850E+03  0.00000000000E+00 0.  1.
         23    2    1    2    0    0 -0.81759070136E+02  0.29818968534E+03 -0.26747661904E+02  0.32319887994E+03  0.90224412350E+02 0.  0.
        -24    2    1    2    0    0  0.14192890668E+03 -0.34262013515E+03 -0.25528757036E+02  0.38053462186E+03  0.81378802173E+02 0.  0.
         11    1    4    4    0    0  0.47933411606E+02 -0.52453432506E+02 -0.25589115511E+02  0.75523356403E+02  0.00000000000E+00 0. -1.
        -12    1    4    4    0    0  0.93995495076E+02 -0.29016670264E+03  0.60358474662E-01  0.30501126546E+03  0.00000000000E+00 0.  1.
        -13    1    3    3    0    0 -0.89475431661E+02  0.21487461293E+03 -0.46189543756E+02  0.23729817974E+03  0.00000000000E+00 0.  1.
         13    1    3    3    0    0  0.77163615248E+01  0.83315072405E+02  0.19441881851E+02  0.85900700201E+02  0.00000000000E+00 0. -1.
         -1    1    1    2    0  502 -0.60169836545E+02  0.44430449805E+02 -0.48150533115E+01  0.74951042942E+02  0.00000000000E+00 0.  1.
<scales pt_clust_5="13000.00000" pt_clust_6="13000.00000" pt_clust_7="13000.00000" pt_clust_8="13000.00000" pt_clust_9="74.79622"></scales>
<clustering>
<clus scale="   74.796">  1  9  2 -1</clus>
<clus scale="   81.379">  5  6 -1 -1</clus>
<clus scale="   90.224">  7  8 -1 -1</clus>
<clus scale="  346.291">  1  5  2 -1</clus>
<clus scale="   74.796">  1  5  2 -1</clus>
</clustering>
</event>
<event>
 9    1  0.5981539E-005  0.9450037E+02  0.7546771E-02  0.1300195E+00
          1   -1    0    0  502    0 -0.00000000000E+00  0.00000000000E+00  0.10740622083E+04  0.10740622083E+04  0.00000000000E+00 0. -1.
         21   -1    0    0  501  502  0.00000000000E+00 -0.00000000000E+00 -0.18438255034E+02  0.18438255034E+02  0.00000000000E+00 0. -1.
        -24    2    1    2    0    0 -0.48408043833E+01 -0.11487764183E+02  0.69647652993E+03  0.70113279994E+03  0.79700967997E+02 0.  0.
         23    2    1    2    0    0 -0.18159884453E+02  0.50768350606E+02  0.21688686488E+03  0.24200212971E+03  0.92832708696E+02 0.  0.
         13    1    3    3    0    0  0.27009387867E+02 -0.95484683510E+01  0.10624768559E+03  0.11004204185E+03  0.00000000000E+00 0. -1.
        -14    1    3    3    0    0 -0.31850192251E+02 -0.19392958324E+01  0.59022884434E+03  0.59109075809E+03  0.00000000000E+00 0.  1.
        -13    1    4    4    0    0 -0.14355639919E+02 -0.26373344577E+02  0.56290304873E+02  0.63798402209E+02  0.00000000000E+00 0.  1.
         13    1    4    4    0    0 -0.38042445347E+01  0.77141695183E+02  0.16059656000E+03  0.17820372751E+03  0.00000000000E+00 0. -1.
          2    1    1    2  501    0  0.23000688837E+02 -0.39280586422E+02  0.14226055842E+03  0.14936553364E+03  0.00000000000E+00 0. -1.
<scales pt_clust_5="13000.00000" pt_clust_6="13000.00000" pt_clust_7="13000.00000" pt_clust_8="13000.00000" pt_clust_9="45.51918"></scales>
<clustering>
<clus scale="   45.519">  2  9  1 -1</clus>
<clus scale="   79.701">  5  6 -1 -1</clus>
<clus scale="   81.637">  1  5  2 -1</clus>
<clus scale="   92.833">  7  8 -1 -1</clus>
<clus scale="   45.519">  2  5  1 -1</clus>
</clustering>
</event>
<event>
 9    1  0.5981539E-005  0.7457232E+02  0.7546771E-02  0.1349500E+00
         21   -1    0    0  501  502  0.00000000000E+00  0.00000000000E+00  0.34293285400E+02  0.34293285400E+02  0.00000000000E+00 0.  1.
          1   -1    0    0  502    0 -0.00000000000E+00 -0.00000000000E+00 -0.40776402459E+03  0.40776402459E+03  0.00000000000E+00 0. -1.
        -24    2    1    2    0    0  0.12459009826E+01  0.18775799749E+02 -0.21605096643E+03  0.22877063043E+03  0.72827867780E+02 0.  0.
         23    2    1    2    0    0  0.31920445220E+02 -0.46660861245E+00 -0.30048288090E+02  0.80400532400E+02  0.67395945326E+02 0.  0.
         11    1    3    3    0    0  0.12196822565E+02 -0.24539349329E+02 -0.11607301842E+03  0.11926394154E+03  0.00000000000E+00 0. -1.
        -12    1    3    3    0    0 -0.10950921583E+02  0.43315149078E+02 -0.99977948017E+02  0.10950668890E+03  0.00000000000E+00 0.  1.
        -13    1    4    4    0    0  0.14144235059E+02  0.29733706089E+02 -0.31168521801E+02  0.45339049554E+02  0.00000000000E+00 0. -1.
         13    1    4    4    0    0  0.17776210161E+02 -0.30200314702E+02  0.11202337103E+01  0.35061482846E+02  0.00000000000E+00 0.  1.
          2    1    1    2  501    0 -0.33166346203E+02 -0.18309191137E+02 -0.12737148466E+03  0.13288614715E+03  0.00000000000E+00 0. -1.
<scales pt_clust_5="13000.00000" pt_clust_6="13000.00000" pt_clust_7="13000.00000" pt_clust_8="13000.00000" pt_clust_9="37.88449"></scales>
<clustering>
<clus scale="   37.884">  1  9  2 -1</clus>
<clus scale="   67.396">  7  8 -1 -1</clus>
<clus scale="   69.277">  1  7  2 -1</clus>
<clus scale="   72.828">  5  6 -1 -1</clus>
<clus scale="   37.884">  1  5  2 -1</clus>
</clustering>
</event>
<event>
 9    1  0.5981539E-005  0.2176458E+03  0.7546771E-02  0.1136555E+00
          1   -1    0    0  502    0 -0.00000000000E+00  0.00000000000E+00  0.55912226255E+02  0.55912226255E+02  0.00000000000E+00 0. -1.
         21   -1    0    0  501  502  0.00000000000E+00 -0.00000000000E+00 -0.18514620059E+04  0.18514620059E+04  0.00000000000E+00 0. -1.
        -24    2    1    2    0    0  0.13172061069E+03  0.20759544015E+03 -0.39079007812E+03  0.46856351527E+03  0.79929322737E+02 0.  0.
         23    2    1    2    0    0 -0.28041943738E+01 -0.13315931075E+03 -0.68851083346E+03  0.70725578336E+03  0.91784038718E+02 0.  0.
         11    1    3    3    0    0  0.77013655109E+02  0.11532662182E+03 -0.14632251776E+03  0.20159764874E+03  0.00000000000E+00 0. -1.
        -12    1    3    3    0    0  0.54706955582E+02  0.92268818337E+02 -0.24446756035E+03  0.26696586653E+03  0.00000000000E+00 0.  1.
        -13    1    4    4    0    0  0.37918293064E+02 -0.91055871258E+02 -0.50773544794E+03  0.51722746808E+03  0.00000000000E+00 0. -1.
         13    1    4    4    0    0 -0.40722487438E+02 -0.42103439494E+02 -0.18077538552E+03  0.19002831528E+03  0.00000000000E+00 0.  1.
          2    1    1    2  501    0 -0.12891641632E+03 -0.74436129399E+02 -0.71624886812E+03  0.73155493357E+03  0.00000000000E+00 0. -1.
<scales pt_clust_5="13000.00000" pt_clust_6="13000.00000" pt_clust_7="13000.00000" pt_clust_8="13000.00000" pt_clust_9="148.86296"></scales>
<clustering>
<clus scale="   79.929">  5  6 -1 -1</clus>
<clus scale="   91.784">  7  8 -1 -1</clus>
<clus scale="  148.863">  2  9  1 -1</clus>
<clus scale="  212.918">  1  5  2 -1</clus>
<clus scale="  148.863">  2  5  1 -1</clus>
</clustering>
</event>
<event>
 9    1  0.5981539E-005  0.1302484E+03  0.7546771E-02  0.1236793E+00
         21   -1    0    0  501  502  0.00000000000E+00  0.00000000000E+00  0.58413324163E+02  0.58413324163E+02  0.00000000000E+00 0. -1.
          1   -1    0    0  502    0 -0.00000000000E+00 -0.00000000000E+00 -0.51947484612E+03  0.51947484612E+03  0.00000000000E+00 0. -1.
         23    2    1    2    0    0  0.48740898765E+02  0.21579637421E+02 -0.11876759478E+03  0.15963412156E+03  0.92390233437E+02 0.  0.
        -24    2    1    2    0    0 -0.31180869788E+02  0.84246220011E+02 -0.24027794182E+03  0.27021780995E+03  0.84938232046E+02 0.  0.
         11    1    4    4    0    0 -0.46659136047E+02  0.66407350452E+02 -0.23100025349E+03  0.24484306869E+03  0.00000000000E+00 0. -1.
        -12    1    4    4    0    0  0.15478266259E+02  0.17838869559E+02 -0.92776883276E+01  0.25374741264E+02  0.00000000000E+00 0.  1.
        -13    1    3    3    0    0 -0.27548737712E+02  0.80168058419E+00 -0.28912580580E+02  0.39943872585E+02  0.00000000000E+00 0.  1.
         13    1    3    3    0    0  0.76289636478E+02  0.20777956837E+02 -0.89855014198E+02  0.11969024898E+03  0.00000000000E+00 0. -1.
          2    1    1    2  501    0 -0.17560028978E+02 -0.10582585743E+03 -0.10201598536E+03  0.14803623876E+03  0.00000000000E+00 0. -1.
<scales pt_clust_5="13000.00000" pt_clust_6="13000.00000" pt_clust_7="13000.00000" pt_clust_8="13000.00000" pt_clust_9="98.74286"></scales>
<clustering>
<clus scale="   84.938">  5  6 -1 -1</clus>
<clus scale="   92.390">  7  8 -1 -1</clus>
<clus scale="  106.665">  2  7  1 -1</clus>
<clus scale="   98.743">  1  9  2 -1</clus>
<clus scale="   98.743">  1  5  2 -1</clus>
</clustering>
</event>
<event>
 9    1  0.5981539E-005  0.1573838E+03  0.7546771E-02  0.1193408E+00
         21   -1    0    0  501  502  0.00000000000E+00  0.00000000000E+00  0.28964902853E+03  0.28964902853E+03  0.00000000000E+00 0. -1.
          1   -1    0    0  502    0 -0.00000000000E+00 -0.00000000000E+00 -0.16295875516E+03  0.16295875516E+03  0.00000000000E+00 0. -1.
         23    2    1    2    0    0 -0.43042696679E+02 -0.13789789461E+03 -0.66917745717E+02  0.18332998029E+03  0.90903211758E+02 0.  0.
        -24    2    1    2    0    0  0.41083546656E+02  0.86172966143E+02  0.91238201096E+02  0.15456561517E+03  0.80327343745E+02 0.  0.
         13    1    4    4    0    0  0.35719593140E+02  0.75250241991E+01  0.59038560531E+02  0.69412296842E+02  0.00000000000E+00 0. -1.
        -14    1    4    4    0    0  0.53639535157E+01  0.78647941944E+02  0.32199640565E+02  0.85153318326E+02  0.00000000000E+00 0.  1.
        -13    1    3    3    0    0 -0.29426262443E+02 -0.17099723053E+02 -0.50161352928E+02  0.60617380160E+02  0.00000000000E+00 0.  1.
         13    1    3    3    0    0 -0.13616434236E+02 -0.12079817156E+03 -0.16756392789E+02  0.12271260013E+03  0.00000000000E+00 0. -1.
          2    1    1    2  501    0  0.19591500229E+01  0.51724928465E+02  0.10236981799E+03  0.11471218823E+03  0.00000000000E+00 0. -1.
<scales pt_clust_5="13000.00000" pt_clust_6="13000.00000" pt_clust_7="13000.00000" pt_clust_8="13000.00000" pt_clust_9="51.76202"></scales>
<clustering>
<clus scale="   51.762">  1  9  2 -1</clus>
<clus scale="   80.327">  5  6 -1 -1</clus>
<clus scale="   90.903">  7  8 -1 -1</clus>
<clus scale="  151.521">  1  5  2 -1</clus>
<clus scale="   51.762">  1  5  2 -1</clus>
</clustering>
</event>
<event>
 9    1  0.5981539E-005  0.1699313E+03  0.7546771E-02  0.1201449E+00
         21   -1    0    0  501  502  0.00000000000E+00  0.00000000000E+00  0.24005467049E+03  0.24005467049E+03  0.00000000000E+00 0. -1.
          3   -1    0    0  502    0 -0.00000000000E+00 -0.00000000000E+00 -0.19710677554E+03  0.19710677554E+03  0.00000000000E+00 0. -1.
         23    2    1    2    0    0 -0.35617231005E+02  0.89713896408E+00  0.49781718568E+02  0.11260818800E+03  0.94514509458E+02 0.  0.
        -24    2    1    2    0    0 -0.12610492795E+03 -0.43669220701E+02  0.57261373908E+01  0.15679968790E+03  0.82121250514E+02 0.  0.
         13    1    4    4    0    0 -0.12533315003E+03 -0.33322680330E+02 -0.17975025928E+02  0.13092708305E+03  0.00000000000E+00 0. -1.
        -14    1    4    4    0    0 -0.77177792333E+00 -0.10346540371E+02  0.23701163319E+02  0.25872604845E+02  0.00000000000E+00 0.  1.
        -13    1    3    3    0    0 -0.12586762859E+02 -0.29379907386E+02 -0.16662403753E+02  0.36044989334E+02  0.00000000000E+00 0.  1.
         13    1    3    3    0    0 -0.23030468147E+02  0.30277046350E+02  0.66444122322E+02  0.76563198665E+02  0.00000000000E+00 0. -1.
          4    1    1    2  501    0  0.16172215895E+03  0.42772081736E+02 -0.12559961004E+02  0.16775357014E+03  0.00000000000E+00 0. -1.
<scales pt_clust_5="13000.00000" pt_clust_6="13000.00000" pt_clust_7="13000.00000" pt_clust_8="13000.00000" pt_clust_9="148.77087"></scales>
<clustering>
<clus scale="   82.121">  5  6 -1 -1</clus>
<clus scale="   94.515">  7  8 -1 -1</clus>
<clus scale="  101.007">  2  7  1 -1</clus>
<clus scale="  148.771">  1  9  2 -1</clus>
<clus scale="  148.771">  1  5  2 -1</clus>
</clustering>
</event>
<event>
 9    1  0.5981539E-005  0.1160933E+03  0.7546771E-02  0.1254770E+00
         21   -1    0    0  501  502  0.00000000000E+00  0.00000000000E+00  0.94814861042E+02  0.94814861042E+02  0.00000000000E+00 0. -1.
          1   -1    0    0  502    0 -0.00000000000E+00 -0.00000000000E+00 -0.41932499553E+03  0.41932499553E+03  0.00000000000E+00 0. -1.
        -24    2    1    2    0    0  0.54285518541E+02 -0.37716183488E+02 -0.32380390306E+03  0.33988630332E+03  0.79399644372E+02 0.  0.
         23    2    1    2    0    0 -0.89138749966E+02  0.21129797639E+02 -0.17453487398E+02  0.13217830497E+03  0.93671206822E+02 0.  0.
         13    1    3    3    0    0  0.75052887037E+02 -0.28638586256E+02 -0.24093970783E+03  0.25397843862E+03  0.00000000000E+00 0. -1.
        -14    1    3    3    0    0 -0.20767368495E+02 -0.90775972320E+01 -0.82864195235E+02  0.85907864702E+02  0.00000000000E+00 0.  1.
        -11    1    4    4    0    0 -0.49426796750E+02 -0.17299562070E+02  0.29110803344E+02  0.59914288414E+02  0.00000000000E+00 0.  1.
         11    1    4    4    0    0 -0.39711953215E+02  0.38429359709E+02 -0.46564290742E+02  0.72264016552E+02  0.00000000000E+00 0. -1.
          2    1    1    2  501    0  0.34853231424E+02  0.16586385849E+02  0.16747255968E+02  0.42075248291E+02  0.00000000000E+00 0. -1.
<scales pt_clust_5="13000.00000" pt_clust_6="13000.00000" pt_clust_7="13000.00000" pt_clust_8="13000.00000" pt_clust_9="38.59865"></scales>
<clustering>
<clus scale="   38.599">  1  9  2 -1</clus>
<clus scale="   79.400">  5  6 -1 -1</clus>
<clus scale="   93.671">  7  8 -1 -1</clus>
<clus scale="  104.917">  2  5  1 -1</clus>
<clus scale="   38.599">  1  5  2 -1</clus>
</clustering>
</event>
<event>
 9    1  0.5981539E-005  0.4211915E+03  0.7546771E-02  0.1036941E+00
          1   -1    0    0  502    0 -0.00000000000E+00  0.00000000000E+00  0.40422437418E+03  0.40422437418E+03  0.00000000000E+00 0. -1.
         21   -1    0    0  501  502  0.00000000000E+00 -0.00000000000E+00 -0.48315671631E+03  0.48315671631E+03  0.00000000000E+00 0.  1.
         23    2    1    2    0    0 -0.26522805312E+03  0.31594176105E+03  0.17357563677E+02  0.42365601537E+03  0.94963244512E+02 0.  0.
        -24    2    1    2    0    0  0.23346760641E+03 -0.33522449512E+03 -0.92888761506E+02  0.42641398305E+03  0.79485706593E+02 0.  0.
         11    1    4    4    0    0  0.21468068108E+02 -0.38651665777E+02  0.14232786170E+02  0.46447835448E+02  0.00000000000E+00 0. -1.
        -12    1    4    4    0    0  0.21199953830E+03 -0.29657282935E+03 -0.10712154768E+03  0.37996614760E+03  0.00000000000E+00 0.  1.
        -11    1    3    3    0    0 -0.26147102830E+03  0.27369316749E+03  0.19291330653E+01  0.37852182253E+03  0.00000000000E+00 0.  1.
         11    1    3    3    0    0 -0.37570248193E+01  0.42248593555E+02  0.15428430611E+02  0.45134192847E+02  0.00000000000E+00 0. -1.
          2    1    1    2  501    0  0.31760446710E+02  0.19282734076E+02 -0.34011443072E+01  0.37311092067E+02  0.00000000000E+00 0. -1.
<scales pt_clust_5="13000.00000" pt_clust_6="13000.00000" pt_clust_7="13000.00000" pt_clust_8="13000.00000" pt_clust_9="37.15575"></scales>
<clustering>
<clus scale="   37.156">  2  9  1 -1</clus>
<clus scale="   79.486">  5  6 -1 -1</clus>
<clus scale="   94.963">  7  8 -1 -1</clus>
<clus scale="  417.974">  2  5  1 -1</clus>
<clus scale="   37.156">  2  5  1 -1</clus>
</clustering>
</event>
<event>
 9    1  0.5981539E-005  0.1078738E+03  0.7546771E-02  0.1268736E+00
          3   -1    0    0  502    0 -0.00000000000E+00  0.00000000000E+00  0.28626058156E+03  0.28626058156E+03  0.00000000000E+00 0. -1.
         21   -1    0    0  501  502  0.00000000000E+00 -0.00000000000E+00 -0.12772126631E+03  0.12772126631E+03  0.00000000000E+00 0. -1.
        -24    2    1    2    0    0  0.44132260677E+01  0.69047218734E+02  0.18923251274E+03  0.21701798569E+03  0.80627955795E+02 0.  0.
         23    2    1    2    0    0  0.26279806645E+02  0.71015598116E+01 -0.57164415222E+02  0.11070017284E+03  0.90805823109E+02 0.  0.
         11    1    3    3    0    0  0.15698853498E+02  0.79129928783E+02  0.11033076127E+03  0.13667800303E+03  0.00000000000E+00 0. -1.
        -12    1    3    3    0    0 -0.11285627430E+02 -0.10082710049E+02  0.78901751470E+02  0.80339982658E+02  0.00000000000E+00 0.  1.
        -13    1    4    4    0    0 -0.24402532472E+02  0.71680054319E+01 -0.54271302608E+02  0.59935283262E+02  0.00000000000E+00 0. -1.
         13    1    4    4    0    0  0.50682339117E+02 -0.66445620273E-01 -0.28931126138E+01  0.50764889580E+02  0.00000000000E+00 0.  1.
          4    1    1    2  501    0 -0.30693032713E+02 -0.76148778545E+02  0.26471217732E+02  0.86263689344E+02  0.00000000000E+00 0. -1.
<scales pt_clust_5="13000.00000" pt_clust_6="13000.00000" pt_clust_7="13000.00000" pt_clust_8="13000.00000" pt_clust_9="82.10176"></scales>
<clustering>
<clus scale="   80.628">  5  6 -1 -1</clus>
<clus scale="   82.102">  2  9  1 -1</clus>
<clus scale="   90.806">  7  8 -1 -1</clus>
<clus scale="   99.458">  1  5  2 -1</clus>
<clus scale="   82.102">  2  5  1 -1</clus>
</clustering>
</event>
<event>
 9    1  0.5981539E-005  0.1962061E+03  0.7546771E-02  0.1167532E+00
         21   -1    0    0  501  502  0.00000000000E+00  0.00000000000E+00  0.75915570692E+02  0.75915570692E+02  0.00000000000E+00 0.  1.
          1   -1    0    0  502    0 -0.00000000000E+00 -0.00000000000E+00 -0.97412505481E+03  0.97412505481E+03  0.00000000000E+00 0. -1.
        -24    2    1    2    0    0 -0.54687413893E+02  0.10018403645E+03 -0.17964973456E+03  0.22766565128E+03  0.80808831505E+02 0.  0.
         23    2    1    2    0    0  0.15664906587E+03  0.69387978697E+02 -0.27493845940E+03  0.33662741027E+03  0.91505384907E+02 0.  0.
         11    1    3    3    0    0 -0.17512580931E+02 -0.11859514217E+02 -0.19979617034E+02  0.29095079742E+02  0.00000000000E+00 0. -1.
        -12    1    3    3    0    0 -0.37174832962E+02  0.11204355066E+03 -0.15967011753E+03  0.19857057154E+03  0.00000000000E+00 0.  1.
        -13    1    4    4    0    0  0.37077020095E+02  0.64696037731E+02 -0.10640886516E+03  0.12993509649E+03  0.00000000000E+00 0. -1.
         13    1    4    4    0    0  0.11957204577E+03  0.46919409666E+01 -0.16852959424E+03  0.20669231378E+03  0.00000000000E+00 0.  1.
          2    1    1    2  501    0 -0.10196165198E+03 -0.16957201514E+03 -0.44362129016E+03  0.48574756395E+03  0.00000000000E+00 0. -1.
<scales pt_clust_5="13000.00000" pt_clust_6="13000.00000" pt_clust_7="13000.00000" pt_clust_8="13000.00000" pt_clust_9="173.56156"></scales>
<clustering>
<clus scale="   80.809">  5  6 -1 -1</clus>
<clus scale="   91.505">  7  8 -1 -1</clus>
<clus scale="  139.849">  2  5  1 -1</clus>
<clus scale="  173.562">  1  9  2 -1</clus>
<clus scale="  173.562">  1  5  2 -1</clus>
</clustering>
</event>
<event>
 9    1  0.5981539E-005  0.9747399E+02  0.7546771E-02  0.1291939E+00
          1   -1    0    0  502    0 -0.00000000000E+00  0.00000000000E+00  0.93103381759E+02  0.93103381759E+02  0.00000000000E+00 0. -1.
         21   -1    0    0  501  502  0.00000000000E+00 -0.00000000000E+00 -0.15095408728E+03  0.15095408728E+03  0.00000000000E+00 0.  1.
         23    2    1    2    0    0  0.27114993038E+02 -0.15474761533E+02  0.24336983263E+02  0.98279016370E+02  0.89954350714E+02 0.  0.
        -24    2    1    2    0    0 -0.36812872244E+02  0.38695645662E+02 -0.58882639897E+02  0.11148000337E+03  0.78154240535E+02 0.  0.
         11    1    4    4    0    0 -0.84414874211E+01 -0.23568704433E+02 -0.23988175668E+02  0.34672396952E+02  0.00000000000E+00 0. -1.
        -12    1    4    4    0    0 -0.28371384823E+02  0.62264350095E+02 -0.34894464229E+02  0.76807606415E+02  0.00000000000E+00 0.  1.
        -13    1    3    3    0    0 -0.78548034168E+01 -0.38454870875E+02  0.37630072502E+02  0.54373682855E+02  0.00000000000E+00 0. -1.
         13    1    3    3    0    0  0.34969796455E+02  0.22980109343E+02 -0.13293089239E+02  0.43905333514E+02  0.00000000000E+00 0.  1.
          2    1    1    2  501    0  0.96978792061E+01 -0.23220884129E+02 -0.23305048888E+02  0.34298449302E+02  0.00000000000E+00 0. -1.
<scales pt_clust_5="13000.00000" pt_clust_6="13000.00000" pt_clust_7="13000.00000" pt_clust_8="13000.00000" pt_clust_9="25.16462"></scales>
<clustering>
<clus scale="   25.165">  2  9  1 -1</clus>
<clus scale="   78.154">  5  6 -1 -1</clus>
<clus scale="   86.703">  2  5  1 -1</clus>
<clus scale="   89.954">  7  8 -1 -1</clus>
<clus scale="   25.165">  2  5  1 -1</clus>
</clustering>
</event>
<event>
 9    1  0.5981539E-005  0.2720927E+03  0.7546771E-02  0.1100518E+00
         21   -1    0    0  501  502  0.00000000000E+00  0.00000000000E+00  0.10546663997E+03  0.10546663997E+03  0.00000000000E+00 0.  1.
         -4   -1    0    0    0  501 -0.00000000000E+00 -0.00000000000E+00 -0.90654171014E+03  0.90654171014E+03  0.00000000000E+00 0.  1.
         23    2    1    2    0    0 -0.25585181185E+03 -0.45752595511E+02 -0.58770734196E+03  0.64925176452E+03  0.92598511451E+02 0.  0.
        -24    2    1    2    0    0  0.24733294628E+03  0.16266066149E+02 -0.18023405122E+03  0.31759169838E+03  0.83318679993E+02 0.  0.
         11    1    4    4    0    0  0.42153487378E+02  0.25766117698E+02 -0.90855873685E+01  0.50233029146E+02  0.00000000000E+00 0. -1.
        -12    1    4    4    0    0  0.20517945891E+03 -0.95000515489E+01 -0.17114846385E+03  0.26735866923E+03  0.00000000000E+00 0.  1.
        -13    1    3    3    0    0 -0.23141996154E+03 -0.63563406149E+02 -0.47004358241E+03  0.52776554886E+03  0.00000000000E+00 0.  1.
         13    1    3    3    0    0 -0.24431850314E+02  0.17810810638E+02 -0.11766375955E+03  0.12148621566E+03  0.00000000000E+00 0. -1.
         -3    1    1    2    0  502  0.85188655675E+01  0.29486529362E+02 -0.33133676999E+02  0.45164887200E+02  0.00000000000E+00 0.  1.
<scales pt_clust_5="13000.00000" pt_clust_6="13000.00000" pt_clust_7="13000.00000" pt_clust_8="13000.00000" pt_clust_9="30.69245"></scales>
<clustering>
<clus scale="   30.692">  1  9  2 -1</clus>
<clus scale="   83.319">  5  6 -1 -1</clus>
<clus scale="   92.599">  7  8 -1 -1</clus>
<clus scale="  269.076">  1  5  2 -1</clus>
<clus scale="   30.692">  1  5  2 -1</clus>
</clustering>
</event>
<event>
 9    1  0.5981539E-005  0.2778806E+03  0.7546771E-02  0.1117730E+00
         21   -1    0    0  501  502  0.00000000000E+00  0.00000000000E+00  0.21524363573E+03  0.21524363573E+03  0.00000000000E+00 0. -1.
          1   -1    0    0  502    0 -0.00000000000E+00 -0.00000000000E+00 -0.12863518138E+04  0.12863518138E+04  0.00000000000E+00 0. -1.
         23    2    1    2    0    0 -0.12276666587E+03  0.55323950781E+02 -0.16786497214E+03  0.23386289634E+03  0.91546772944E+02 0.  0.
        -24    2    1    2    0    0 -0.63005836424E+02  0.15121745239E+03 -0.96570546576E+03  0.98300056039E+03  0.82864961315E+02 0.  0.
         13    1    4    4    0    0 -0.17981323232E+02  0.13390849998E+03 -0.73302168107E+03  0.74536943811E+03  0.00000000000E+00 0. -1.
        -14    1    4    4    0    0 -0.45024513192E+02  0.17308952414E+02 -0.23268378469E+03  0.23763112228E+03  0.00000000000E+00 0.  1.
        -11    1    3    3    0    0  0.91230526460E+01  0.23902096905E+02 -0.15519022707E+02  0.29922907476E+02  0.00000000000E+00 0.  1.
         11    1    3    3    0    0 -0.13188971852E+03  0.31421853876E+02 -0.15234594943E+03  0.20393998887E+03  0.00000000000E+00 0. -1.
          2    1    1    2  501    0  0.18577250230E+03 -0.20654140318E+03  0.62462259796E+02  0.28473199282E+03  0.00000000000E+00 0. -1.
<scales pt_clust_5="13000.00000" pt_clust_6="13000.00000" pt_clust_7="13000.00000" pt_clust_8="13000.00000" pt_clust_9="265.23773"></scales>
<clustering>
<clus scale="   82.865">  5  6 -1 -1</clus>
<clus scale="   91.547">  7  8 -1 -1</clus>
<clus scale="  162.829">  2  7  1 -1</clus>
<clus scale="  265.238">  1  9  2 -1</clus>
<clus scale="  265.238">  1  5  2 -1</clus>
</clustering>
</event>
<event>
 9    1  0.5981539E-005  0.2898375E+03  0.7546771E-02  0.1113004E+00
         21   -1    0    0  501  502  0.00000000000E+00  0.00000000000E+00  0.10674882401E+03  0.10674882401E+03  0.00000000000E+00 0. -1.
          1   -1    0    0  502    0 -0.00000000000E+00 -0.00000000000E+00 -0.19869335268E+04  0.19869335268E+04  0.00000000000E+00 0. -1.
        -24    2    1    2    0    0  0.62212066084E+02 -0.12602893210E+03 -0.39161883358E+03  0.42367431754E+03  0.79881059297E+02 0.  0.
         23    2    1    2    0    0  0.17985026322E+02  0.29599663820E+03 -0.20381501392E+03  0.37158385185E+03  0.92717463598E+02 0.  0.
         11    1    3    3    0    0  0.63529084982E+02 -0.13672378137E+03 -0.36938270391E+03  0.39896480920E+03  0.00000000000E+00 0. -1.
        -12    1    3    3    0    0 -0.13170188970E+01  0.10694849271E+02 -0.22236129669E+02  0.24709508339E+02  0.00000000000E+00 0.  1.
        -13    1    4    4    0    0  0.49945063119E+02  0.19452854359E+03 -0.10612861663E+03  0.22715445597E+03  0.00000000000E+00 0. -1.
         13    1    4    4    0    0 -0.31960036797E+02  0.10146809461E+03 -0.97686397299E+02  0.14442939588E+03  0.00000000000E+00 0.  1.
          2    1    1    2  501    0 -0.80197092407E+02 -0.16996770611E+03 -0.12847508553E+04  0.12984241814E+04  0.00000000000E+00 0. -1.
<scales pt_clust_5="13000.00000" pt_clust_6="13000.00000" pt_clust_7="13000.00000" pt_clust_8="13000.00000" pt_clust_9="274.60758"></scales>
<clustering>
<clus scale="   79.881">  5  6 -1 -1</clus>
<clus scale="   92.717">  7  8 -1 -1</clus>
<clus scale="  161.662">  2  5  1 -1</clus>
<clus scale="  274.608">  1  9  2 -1</clus>
<clus scale="  274.608">  1  5  2 -1</clus>
</clustering>
</event>
<event>
 9    1  0.5981539E-005  0.1732700E+03  0.7546771E-02  0.1176022E+00
          1   -1    0    0  502    0 -0.00000000000E+00  0.00000000000E+00  0.86984875471E+02  0.86984875471E+02  0.00000000000E+00 0. -1.
         21   -1    0    0  501  502  0.00000000000E+00 -0.00000000000E+00 -0.78355654553E+03  0.78355654553E+03  0.00000000000E+00 0. -1.
         23    2    1    2    0    0  0.15347777171E+03  0.76499733473E+02 -0.76414379650E+02  0.20867398001E+03  0.91093561159E+02 0.  0.
        -24    2    1    2    0    0 -0.10669519783E+03 -0.53340162809E+00 -0.27578271602E+03  0.30612407805E+03  0.79194033552E+02 0.  0.
         13    1    4    4    0    0 -0.87903671725E+02  0.29395155201E+02 -0.15827861139E+03  0.18342096247E+03  0.00000000000E+00 0. -1.
        -14    1    4    4    0    0 -0.18791526107E+02 -0.29928556829E+02 -0.11750410463E+03  0.12270311557E+03  0.00000000000E+00 0.  1.
        -13    1    3    3    0    0  0.94902980365E+02  0.70146456023E+02 -0.78522070931E+01  0.11827408055E+03  0.00000000000E+00 0. -1.
         13    1    3    3    0    0  0.58574791342E+02  0.63532774494E+01 -0.68562172557E+02  0.90399899451E+02  0.00000000000E+00 0.  1.
          2    1    1    2  501    0 -0.46782573874E+02 -0.75966331845E+02 -0.34437457439E+03  0.35574336295E+03  0.00000000000E+00 0. -1.
<scales pt_clust_5="13000.00000" pt_clust_6="13000.00000" pt_clust_7="13000.00000" pt_clust_8="13000.00000" pt_clust_9="89.21599"></scales>
<clustering>
<clus scale="   79.194">  5  6 -1 -1</clus>
<clus scale="   89.216">  2  9  1 -1</clus>
<clus scale="   91.094">  7  8 -1 -1</clus>
<clus scale="  167.320">  2  5  1 -1</clus>
<clus scale="   89.216">  2  5  1 -1</clus>
</clustering>
</event>
<event>
 9    1  0.5981539E-005  0.2451205E+03  0.7546771E-02  0.1116807E+00
         21   -1    0    0  501  502  0.00000000000E+00  0.00000000000E+00  0.84286296692E+02  0.84286296692E+02  0.00000000000E+00 0.  1.
          1   -1    0    0  502    0 -0.00000000000E+00 -0.00000000000E+00 -0.14823673729E+04  0.14823673729E+04  0.00000000000E+00 0. -1.
         23    2    1    2    0    0  0.53633292787E+02 -0.23474960624E+03 -0.11669614763E+04  0.11947249721E+04  0.87090550185E+02 0.  0.
        -24    2    1    2    0    0 -0.44749212096E+02  0.17003362643E+03 -0.83615519869E+02  0.21060746967E+03  0.80312047780E+02 0.  0.
         11    1    4    4    0    0 -0.41160407813E+02  0.91774059862E+02 -0.85843851223E+02  0.13223397456E+03  0.00000000000E+00 0. -1.
        -12    1    4    4    0    0 -0.35888042831E+01  0.78259566570E+02  0.22283313540E+01  0.78373495115E+02  0.00000000000E+00 0.  1.
        -11    1    3    3    0    0  0.73175080824E+02 -0.19499726338E+03 -0.10275569814E+04  0.10484521330E+04  0.00000000000E+00 0. -1.
         11    1    3    3    0    0 -0.19541788037E+02 -0.39752342858E+02 -0.13940449495E+03  0.14627283909E+03  0.00000000000E+00 0.  1.
          2    1    1    2  501    0 -0.88840806914E+01  0.64715979810E+02 -0.14750407996E+03  0.16132122780E+03  0.00000000000E+00 0. -1.
<scales pt_clust_5="13000.00000" pt_clust_6="13000.00000" pt_clust_7="13000.00000" pt_clust_8="13000.00000" pt_clust_9="65.32296"></scales>
<clustering>
<clus scale="   65.323">  1  9  2 -1</clus>
<clus scale="   80.312">  5  6 -1 -1</clus>
<clus scale="   87.091">  7  8 -1 -1</clus>
<clus scale="  242.795">  1  5  2 -1</clus>
<clus scale="   65.323">  1  5  2 -1</clus>
</clustering>
</event>
<event>
 9    1  0.5981539E-005  0.1304963E+03  0.7546771E-02  0.1229676E+00
          1   -1    0    0  502    0 -0.00000000000E+00  0.00000000000E+00  0.77752949210E+03  0.77752949210E+03  0.00000000000E+00 0. -1.
         21   -1    0    0  501  502  0.00000000000E+00 -0.00000000000E+00 -0.32326065422E+02  0.32326065422E+02  0.00000000000E+00 0.  1.
        -24    2    1    2    0    0 -0.58199052528E+02 -0.57183401754E+02  0.29028961141E+03  0.31212382311E+03  0.80598705358E+02 0.  0.
         23    2    1    2    0    0  0.67009855467E+02  0.91555829583E+02  0.24810666051E+03  0.28790253410E+03  0.91968274400E+02 0.  0.
         13    1    3    3    0    0 -0.50740799363E+02  0.48757521581E+01  0.10823491385E+03  0.11963777938E+03  0.00000000000E+00 0. -1.
        -14    1    3    3    0    0 -0.74582531651E+01 -0.62059153912E+02  0.18205469756E+03  0.19248604373E+03  0.00000000000E+00 0.  1.
        -11    1    4    4    0    0 -0.14010119259E+02  0.33108929677E+02  0.12104134922E+03  0.12626754487E+03  0.00000000000E+00 0. -1.
         11    1    4    4    0    0  0.81019974726E+02  0.58446899906E+02  0.12706531129E+03  0.16163498924E+03  0.00000000000E+00 0.  1.
          2    1    1    2  501    0 -0.88108029394E+01 -0.34372427829E+02  0.20680715476E+03  0.20982920031E+03  0.00000000000E+00 0. -1.
<scales pt_clust_5="13000.00000" pt_clust_6="13000.00000" pt_clust_7="13000.00000" pt_clust_8="13000.00000" pt_clust_9="35.48373"></scales>
<clustering>
<clus scale="   35.484">  2  9  1 -1</clus>
<clus scale="   80.599">  5  6 -1 -1</clus>
<clus scale="   91.968">  7  8 -1 -1</clus>
<clus scale="  122.749">  1  5  2 -1</clus>
<clus scale="   35.484">  2  5  1 -1</clus>
</clustering>
</event>
<event>
 9    1  0.5981539E-005  0.1366916E+03  0.7546771E-02  0.1226515E+00
         21   -1    0    0  501  502  0.00000000000E+00  0.00000000000E+00  0.85176582579E+02  0.85176582579E+02  0.00000000000E+00 0. -1.
          1   -1    0    0  502    0 -0.00000000000E+00 -0.00000000000E+00 -0.63392793484E+03  0.63392793484E+03  0.00000000000E+00 0. -1.
         23    2    1    2    0    0 -0.35966036984E+02  0.59798895935E+02 -0.39140912753E+02  0.12056156714E+03  0.90186565795E+02 0.  0.
        -24    2    1    2    0    0 -0.93903737627E+02 -0.49323725216E+02 -0.42712129482E+03  0.44433417442E+03  0.61233293703E+02 0.  0.
         13    1    4    4    0    0 -0.29990337280E+02 -0.44671459675E+02 -0.25633850164E+03  0.26192439188E+03  0.00000000000E+00 0. -1.
        -14    1    4    4    0    0 -0.63913400347E+02 -0.46522655410E+01 -0.17078279318E+03  0.18240978254E+03  0.00000000000E+00 0.  1.
        -13    1    3    3    0    0  0.71915814661E+01  0.67426382824E+02 -0.35616705886E+02  0.76593639964E+02  0.00000000000E+00 0.  1.
         13    1    3    3    0    0 -0.43157618450E+02 -0.76274868897E+01 -0.35242068673E+01  0.43967927181E+02  0.00000000000E+00 0. -1.
          2    1    1    2  501    0  0.12986977461E+03 -0.10475170719E+02 -0.82489144684E+02  0.15420877585E+03  0.00000000000E+00 0. -1.
<scales pt_clust_5="13000.00000" pt_clust_6="13000.00000" pt_clust_7="13000.00000" pt_clust_8="13000.00000" pt_clust_9="122.20915"></scales>
<clustering>
<clus scale="   61.233">  5  6 -1 -1</clus>
<clus scale="   90.187">  7  8 -1 -1</clus>
<clus scale="  114.031">  2  7  1 -1</clus>
<clus scale="  122.209">  1  9  2 -1</clus>
<clus scale="  122.209">  1  5  2 -1</clus>
</clustering>
</event>
<event>
 9    1  0.5981539E-005  0.8968239E+02  0.7546771E-02  0.1309968E+00
          3   -1    0    0  502    0 -0.00000000000E+00  0.00000000000E+00  0.11412642979E+03  0.11412642979E+03  0.00000000000E+00 0. -1.
         21   -1    0    0  501  502  0.00000000000E+00 -0.00000000000E+00 -0.14532901546E+03  0.14532901546E+03  0.00000000000E+00 0. -1.
        -24    2    1    2    0    0  0.58463803143E-03 -0.78225233803E+01  0.34590189553E+02  0.86150545774E+02  0.78512696117E+02 0.  0.
         23    2    1    2    0    0 -0.33836601719E+02  0.34324027808E+02 -0.79347681993E+02  0.12823893354E+03  0.88465331835E+02 0.  0.
         11    1    3    3    0    0 -0.25043197218E+02 -0.34290805124E+02  0.18829316556E+02  0.46449587779E+02  0.00000000000E+00 0. -1.
        -12    1    3    3    0    0  0.25043781856E+02  0.26468281743E+02  0.15760872997E+02  0.39700957995E+02  0.00000000000E+00 0.  1.
        -11    1    4    4    0    0  0.24285715539E+02 -0.18075325465E+01 -0.46135140692E+02  0.52168135483E+02  0.00000000000E+00 0. -1.
         11    1    4    4    0    0 -0.58122317258E+02  0.36131560355E+02 -0.33212541301E+02  0.76070798055E+02  0.00000000000E+00 0.  1.
          4    1    1    2  501    0  0.33836017081E+02 -0.26501504428E+02  0.13554906765E+02  0.45065965942E+02  0.00000000000E+00 0. -1.
<scales pt_clust_5="13000.00000" pt_clust_6="13000.00000" pt_clust_7="13000.00000" pt_clust_8="13000.00000" pt_clust_9="42.97915"></scales>
<clustering>
<clus scale="   42.979">  2  9  1 -1</clus>
<clus scale="   78.513">  5  6 -1 -1</clus>
<clus scale="   79.882">  1  5  2 -1</clus>
<clus scale="   88.465">  7  8 -1 -1</clus>
<clus scale="   42.979">  2  5  1 -1</clus>
</clustering>
</event>
<event>
 9    1  0.5981539E-005  0.2975884E+03  0.7546771E-02  0.1118811E+00
          1   -1    0    0  502    0 -0.00000000000E+00  0.00000000000E+00  0.10547010791E+03  0.10547010791E+03  0.00000000000E+00 0. -1.
         21   -1    0    0  501  502  0.00000000000E+00 -0.00000000000E+00 -0.14253899160E+04  0.14253899160E+04  0.00000000000E+00 0. -1.
        -24    2    1    2    0    0  0.89609462360E+02 -0.47833217782E+02 -0.17025187446E+03  0.21361980949E+03  0.79560353086E+02 0.  0.
         23    2    1    2    0    0  0.26069700611E+02 -0.23445141093E+03 -0.20847748699E+03  0.32784356129E+03  0.91495599469E+02 0.  0.
         13    1    3    3    0    0  0.92851361847E+02 -0.58974570299E+02 -0.12320475657E+03  0.16516291163E+03  0.00000000000E+00 0. -1.
        -14    1    3    3    0    0 -0.32418994866E+01  0.11141352516E+02 -0.47047117891E+02  0.48456897858E+02  0.00000000000E+00 0.  1.
        -11    1    4    4    0    0 -0.58188908854E+01 -0.13728170854E+03 -0.16997548358E+03  0.21856759140E+03  0.00000000000E+00 0. -1.
         11    1    4    4    0    0  0.31888591496E+02 -0.97169702385E+02 -0.38502003408E+02  0.10927596989E+03  0.00000000000E+00 0.  1.
          2    1    1    2  501    0 -0.11567916297E+03  0.28228462871E+03 -0.94119044662E+03  0.98939665310E+03  0.00000000000E+00 0. -1.
<scales pt_clust_5="13000.00000" pt_clust_6="13000.00000" pt_clust_7="13000.00000" pt_clust_8="13000.00000" pt_clust_9="283.17386"></scales>
<clustering>
<clus scale="   79.560">  5  6 -1 -1</clus>
<clus scale="   91.496">  7  8 -1 -1</clus>
<clus scale="  129.026">  1  5  2 -1</clus>
<clus scale="  283.174">  2  9  1 -1</clus>
<clus scale="  283.174">  2  5  1 -1</clus>
</clustering>
</event>
<event>
 9    1  0.5981539E-005  0.9589248E+02  0.7546771E-02  0.1296307E+00
          1   -1    0    0  502    0 -0.00000000000E+00  0.00000000000E+00  0.37052287923E+03  0.37052287923E+03  0.00000000000E+00 0. -1.
         21   -1    0    0  501  502  0.00000000000E+00 -0.00000000000E+00 -0.10491757132E+03  0.10491757132E+03  0.00000000000E+00 0. -1.
        -24    2    1    2    0    0 -0.23804004535E+02  0.25009658414E+01  0.29567217335E+03  0.30707443594E+03  0.79371214257E+02 0.  0.
         23    2    1    2    0    0  0.53641518182E+02 -0.11281880948E+01  0.21690733288E+02  0.10860807985E+03  0.91905069595E+02 0.  0.
         11    1    3    3    0    0 -0.49394955431E+02  0.15706782113E+02  0.15349329158E+03  0.16200850344E+03  0.00000000000E+00 0. -1.
        -12    1    3    3    0    0  0.25590950896E+02 -0.13205816272E+02  0.14217888177E+03  0.14506593250E+03  0.00000000000E+00 0.  1.
        -13    1    4    4    0    0  0.70138053941E+02 -0.16913241924E+02  0.37035305441E+02  0.81098817575E+02  0.00000000000E+00 0. -1.
         13    1    4    4    0    0 -0.16496535758E+02  0.15785053829E+02 -0.15344572154E+02  0.27509262276E+02  0.00000000000E+00 0.  1.
          2    1    1    2  501    0 -0.29837513647E+02 -0.13727777466E+01 -0.51757598735E+02  0.59757934755E+02  0.00000000000E+00 0. -1.
<scales pt_clust_5="13000.00000" pt_clust_6="13000.00000" pt_clust_7="13000.00000" pt_clust_8="13000.00000" pt_clust_9="29.86908"></scales>
<clustering>
<clus scale="   29.869">  2  9  1 -1</clus>
<clus scale="   79.371">  5  6 -1 -1</clus>
<clus scale="   83.956">  1  5  2 -1</clus>
<clus scale="   91.905">  7  8 -1 -1</clus>
<clus scale="   29.869">  2  5  1 -1</clus>
</clustering>
</event>
<event>
 9    1  0.5981539E-005  0.9274336E+02  0.7546771E-02  0.1303710E+00
         -2   -1    0    0    0  501 -0.00000000000E+00  0.00000000000E+00  0.16633042635E+03  0.16633042635E+03  0.00000000000E+00 0.  1.
         21   -1    0    0  501  502  0.00000000000E+00 -0.00000000000E+00 -0.15404390013E+03  0.15404390013E+03  0.00000000000E+00 0. -1.
         23    2    1    2    0    0 -0.88968637548E+01 -0.28805092119E+01  0.12145280912E+03  0.15303394789E+03  0.92634512181E+02 0.  0.
        -24    2    1    2    0    0 -0.25451023599E+02 -0.14830294758E+02 -0.88849365797E+02  0.12368001826E+03  0.80838387355E+02 0.  0.
         11    1    4    4    0    0 -0.47591640683E+02 -0.80910786634E+01 -0.88177027887E+02  0.10052670324E+03  0.00000000000E+00 0. -1.
        -12    1    4    4    0    0  0.22140617084E+02 -0.67392160950E+01 -0.67233791026E+00  0.23153315026E+02  0.00000000000E+00 0.  1.
        -13    1    3    3    0    0  0.24166560567E+02  0.20215373405E+02  0.78296640791E+01  0.32465175360E+02  0.00000000000E+00 0.  1.
         13    1    3    3    0    0 -0.33063424321E+02 -0.23095882617E+02  0.11362314504E+03  0.12056877253E+03  0.00000000000E+00 0. -1.
         -1    1    1    2    0  502  0.34347887354E+02  0.17710803970E+02 -0.20316917104E+02  0.43660360323E+02  0.00000000000E+00 0.  1.
<scales pt_clust_5="13000.00000" pt_clust_6="13000.00000" pt_clust_7="13000.00000" pt_clust_8="13000.00000" pt_clust_9="38.64518"></scales>
<clustering>
<clus scale="   38.645">  2  9  1 -1</clus>
<clus scale="   80.838">  5  6 -1 -1</clus>
<clus scale="   80.963">  2  5  1 -1</clus>
<clus scale="   92.635">  7  8 -1 -1</clus>
<clus scale="   38.645">  2  5  1 -1</clus>
</clustering>
</event>
<event>
 9    1  0.5981539E-005  0.1146407E+03  0.7546771E-02  0.1255686E+00
          1   -1    0    0  502    0 -0.00000000000E+00  0.00000000000E+00  0.33652197349E+03  0.33652197349E+03  0.00000000000E+00 0. -1.
         21   -1    0    0  501  502  0.00000000000E+00 -0.00000000000E+00 -0.53895199414E+02  0.53895199414E+02  0.00000000000E+00 0. -1.
         23    2    1    2    0    0  0.57932376041E+02  0.25798623977E+02  0.18640910244E+03  0.21671215731E+03  0.90521138202E+02 0.  0.
        -24    2    1    2    0    0 -0.79559949498E+02 -0.33583583058E+02  0.64705552742E+02  0.13470025744E+03  0.80620767694E+02 0.  0.
         13    1    4    4    0    0 -0.53991551960E+02 -0.73684393535E+01 -0.62531889152E+01  0.54849648615E+02  0.00000000000E+00 0. -1.
        -14    1    4    4    0    0 -0.25568397537E+02 -0.26215143704E+02  0.70958741657E+02  0.79850608824E+02  0.00000000000E+00 0.  1.
        -11    1    3    3    0    0 -0.24248978351E+02  0.44154448697E+01  0.54764533028E+02  0.60055500849E+02  0.00000000000E+00 0. -1.
         11    1    3    3    0    0  0.82181354392E+02  0.21383179108E+02  0.13164456941E+03  0.15665665646E+03  0.00000000000E+00 0.  1.
          2    1    1    2  501    0  0.21627573456E+02  0.77849590805E+01  0.31512118901E+02  0.39004758160E+02  0.00000000000E+00 0. -1.
<scales pt_clust_5="13000.00000" pt_clust_6="13000.00000" pt_clust_7="13000.00000" pt_clust_8="13000.00000" pt_clust_9="22.98604"></scales>
<clustering>
<clus scale="   22.986">  2  9  1 -1</clus>
<clus scale="   80.621">  5  6 -1 -1</clus>
<clus scale="   90.521">  7  8 -1 -1</clus>
<clus scale="  106.996">  2  5  1 -1</clus>
<clus scale="   22.986">  2  5  1 -1</clus>
</clustering>
</event>
<event>
 9    1  0.5981539E-005  0.1058668E+03  0.7546771E-02  0.1272719E+00
         -2   -1    0    0    0  501 -0.00000000000E+00  0.00000000000E+00  0.23707831260E+03  0.23707831260E+03  0.00000000000E+00 0.  1.
         21   -1    0    0  501  502  0.00000000000E+00 -0.00000000000E+00 -0.85342603427E+02  0.85342603427E+02  0.00000000000E+00 0.  1.
         23    2    1    2    0    0 -0.12808846957E+02  0.34704180960E+02  0.74222931388E+02  0.12247635201E+03  0.90127501473E+02 0.  0.
        -24    2    1    2    0    0  0.27817494328E+02 -0.67290713520E+02  0.10798408299E+03  0.15287395704E+03  0.80050180785E+02 0.  0.
         11    1    4    4    0    0 -0.28403826929E+02 -0.20697671098E+02  0.37244752828E+02  0.51208813561E+02  0.00000000000E+00 0. -1.
        -12    1    4    4    0    0  0.56221321256E+02 -0.46593042421E+02  0.70739330162E+02  0.10166514347E+03  0.00000000000E+00 0.  1.
        -13    1    3    3    0    0 -0.34169861936E+02  0.12927126858E+02  0.83041550714E+02  0.90722594862E+02  0.00000000000E+00 0. -1.
         13    1    3    3    0    0  0.21361014980E+02  0.21777054102E+02 -0.88186193255E+01  0.31753757150E+02  0.00000000000E+00 0.  1.
         -1    1    1    2    0  502 -0.15008647371E+02  0.32586532560E+02 -0.30471305208E+02  0.47070606978E+02  0.00000000000E+00 0.  1.
<scales pt_clust_5="13000.00000" pt_clust_6="13000.00000" pt_clust_7="13000.00000" pt_clust_8="13000.00000" pt_clust_9="35.87676"></scales>
<clustering>
<clus scale="   35.877">  2  9  1 -1</clus>
<clus scale="   80.050">  5  6 -1 -1</clus>
<clus scale="   90.128">  7  8 -1 -1</clus>
<clus scale="   97.431">  2  5  1 -1</clus>
<clus scale="   35.877">  2  5  1 -1</clus>
</clustering>
</event>
<event>
 9    1  0.5981539E-005  0.1483082E+03  0.7546771E-02  0.1229889E+00
         21   -1    0    0  501  502  0.00000000000E+00  0.00000000000E+00  0.13970979268E+03  0.13970979268E+03  0.00000000000E+00 0. -1.
          1   -1    0    0  502    0 -0.00000000000E+00 -0.00000000000E+00 -0.55067342410E+03  0.55067342410E+03  0.00000000000E+00 0. -1.
        -24    2    1    2    0    0  0.31701024971E+02 -0.87947606500E+01 -0.12525900229E+03  0.15040308948E+03  0.76478551713E+02 0.  0.
         23    2    1    2    0    0 -0.17418302568E+02 -0.10920894435E+03 -0.36851226273E+03  0.39511475968E+03  0.89913262329E+02 0.  0.
         11    1    3    3    0    0  0.25663911045E+02 -0.20351831678E+02 -0.13180462108E+03  0.13581344382E+03  0.00000000000E+00 0. -1.
        -12    1    3    3    0    0  0.60371139261E+01  0.11557071028E+02  0.65456187921E+01  0.14589645666E+02  0.00000000000E+00 0.  1.
        -11    1    4    4    0    0 -0.49803171001E+02 -0.72291685908E+02 -0.28521098705E+03  0.29841539978E+03  0.00000000000E+00 0. -1.
         11    1    4    4    0    0  0.32384868433E+02 -0.36917258441E+02 -0.83301275678E+02  0.96699359894E+02  0.00000000000E+00 0.  1.
          2    1    1    2  501    0 -0.14282722403E+02  0.11800370500E+03  0.82807633600E+02  0.14486536762E+03  0.00000000000E+00 0. -1.
<scales pt_clust_5="13000.00000" pt_clust_6="13000.00000" pt_clust_7="13000.00000" pt_clust_8="13000.00000" pt_clust_9="117.94457"></scales>
<clustering>
<clus scale="   76.479">  5  6 -1 -1</clus>
<clus scale="   83.254">  2  5  1 -1</clus>
<clus scale="   89.913">  7  8 -1 -1</clus>
<clus scale="  117.945">  1  9  2 -1</clus>
<clus scale="  117.945">  1  5  2 -1</clus>
</clustering>
</event>
<event>
 9    1  0.5981539E-005  0.1054175E+03  0.7546771E-02  0.1276574E+00
         21   -1    0    0  501  502  0.00000000000E+00  0.00000000000E+00  0.24369620415E+02  0.24369620415E+02  0.00000000000E+00 0. -1.
          1   -1    0    0  502    0 -0.00000000000E+00 -0.00000000000E+00 -0.11340292369E+04  0.11340292369E+04  0.00000000000E+00 0. -1.
        -24    2    1    2    0    0  0.50778221215E+02 -0.16146238405E+01 -0.41217044928E+03  0.42191644414E+03  0.74484708623E+02 0.  0.
         23    2    1    2    0    0 -0.44615849964E+02 -0.87515781300E+02 -0.29115694296E+03  0.32044385678E+03  0.90897270995E+02 0.  0.
         13    1    3    3    0    0  0.27967460563E+02 -0.37261962629E+02 -0.25067499829E+03  0.25496781656E+03  0.00000000000E+00 0. -1.
        -14    1    3    3    0    0  0.22810760652E+02  0.35647338788E+02 -0.16149545098E+03  0.16694862758E+03  0.00000000000E+00 0.  1.
        -11    1    4    4    0    0 -0.67539486494E+02 -0.47231457894E+02 -0.14125941150E+03  0.16354392128E+03  0.00000000000E+00 0. -1.
         11    1    4    4    0    0  0.22923636530E+02 -0.40284323406E+02 -0.14989753146E+03  0.15689993550E+03  0.00000000000E+00 0.  1.
          2    1    1    2  501    0 -0.61623712518E+01  0.89130405141E+02 -0.40633222429E+03  0.41603855643E+03  0.00000000000E+00 0. -1.
<scales pt_clust_5="13000.00000" pt_clust_6="13000.00000" pt_clust_7="13000.00000" pt_clust_8="13000.00000" pt_clust_9="89.34323"></scales>
<clustering>
<clus scale="   74.485">  5  6 -1 -1</clus>
<clus scale="   89.343">  1  9  2 -1</clus>
<clus scale="   90.897">  7  8 -1 -1</clus>
<clus scale="   91.643">  2  5  1 -1</clus>
<clus scale="   89.343">  1  5  2 -1</clus>
</clustering>
</event>
<event>
 9    1  0.5981539E-005  0.1619155E+03  0.7546771E-02  0.1188206E+00
          1   -1    0    0  502    0 -0.00000000000E+00  0.00000000000E+00  0.37116453493E+03  0.37116453493E+03  0.00000000000E+00 0. -1.
         21   -1    0    0  501  502  0.00000000000E+00 -0.00000000000E+00 -0.10234757047E+03  0.10234757047E+03  0.00000000000E+00 0. -1.
        -24    2    1    2    0    0  0.10785246487E+03  0.70289181199E+02  0.19985008775E+03  0.25080316623E+03  0.79934019327E+02 0.  0.
         23    2    1    2    0    0 -0.13354570043E+03 -0.67956204052E+02  0.32755727645E+02  0.17824735516E+03  0.90811244657E+02 0.  0.
         13    1    3    3    0    0  0.10788617993E+03  0.39845957561E+02  0.12427211496E+03  0.16932420592E+03  0.00000000000E+00 0. -1.
        -14    1    3    3    0    0 -0.33715062610E-01  0.30443223638E+02  0.75577972787E+02  0.81478960307E+02  0.00000000000E+00 0.  1.
        -11    1    4    4    0    0 -0.12242256944E+03 -0.18115858170E+02  0.17752088337E+02  0.12502242385E+03  0.00000000000E+00 0. -1.
         11    1    4    4    0    0 -0.11123130992E+02 -0.49840345882E+02  0.15003639307E+02  0.53224931312E+02  0.00000000000E+00 0.  1.
          2    1    1    2  501    0  0.25693235559E+02 -0.23329771470E+01  0.36211149073E+02  0.44461584014E+02  0.00000000000E+00 0. -1.
<scales pt_clust_5="13000.00000" pt_clust_6="13000.00000" pt_clust_7="13000.00000" pt_clust_8="13000.00000" pt_clust_9="25.79895"></scales>
<clustering>
<clus scale="   25.799">  2  9  1 -1</clus>
<clus scale="   79.934">  5  6 -1 -1</clus>
<clus scale="   90.811">  7  8 -1 -1</clus>
<clus scale="  156.075">  1  5  2 -1</clus>
<clus scale="   25.799">  2  5  1 -1</clus>
</clustering>
</event>
<event>
 9    1  0.5981539E-005  0.1246293E+03  0.7546771E-02  0.1240551E+00
         -2   -1    0    0    0  501 -0.00000000000E+00  0.00000000000E+00  0.20071766022E+03  0.20071766022E+03  0.00000000000E+00 0.  1.
         21   -1    0    0  501  502  0.00000000000E+00 -0.00000000000E+00 -0.31671040873E+03  0.31671040873E+03  0.00000000000E+00 0. -1.
         23    2    1    2    0    0  0.53624207575E+02 -0.35345390668E+02  0.17896283793E+02  0.11419744771E+03  0.92714226578E+02 0.  0.
        -24    2    1    2    0    0  0.20796123611E+01 -0.84612982412E+02 -0.21583384471E+03  0.24764180703E+03  0.87054778646E+02 0.  0.
         11    1    4    4    0    0 -0.38601484523E+02 -0.34960021596E+02 -0.13310369140E+03  0.14292959939E+03  0.00000000000E+00 0. -1.
        -12    1    4    4    0    0  0.40681096884E+02 -0.49652960817E+02 -0.82730153305E+02  0.10471220763E+03  0.00000000000E+00 0.  1.
        -13    1    3    3    0    0 -0.17499933355E+02 -0.26318068861E+02 -0.15389234670E+02  0.35152766032E+02  0.00000000000E+00 0.  1.
         13    1    3    3    0    0  0.71124140929E+02 -0.90273218067E+01  0.33285518462E+02  0.79044681676E+02  0.00000000000E+00 0. -1.
         -1    1    1    2    0  502 -0.55703819936E+02  0.11995837308E+03  0.81944812414E+02  0.15558881422E+03  0.00000000000E+00 0.  1.
<scales pt_clust_5="13000.00000" pt_clust_6="13000.00000" pt_clust_7="13000.00000" pt_clust_8="13000.00000" pt_clust_9="89.18479"></scales>
<clustering>
<clus scale="   87.055">  5  6 -1 -1</clus>
<clus scale="   92.714">  7  8 -1 -1</clus>
<clus scale="  112.786">  1  7  2 -1</clus>
<clus scale="   89.185">  2  9  1 -1</clus>
<clus scale="   89.185">  2  5  1 -1</clus>
</clustering>
</event>
<event>
 9    1  0.5981539E-005  0.2173094E+03  0.7546771E-02  0.1163068E+00
         -2   -1    0    0    0  501 -0.00000000000E+00  0.00000000000E+00  0.73441075854E+03  0.73441075854E+03  0.00000000000E+00 0.  1.
         21   -1    0    0  501  502  0.00000000000E+00 -0.00000000000E+00 -0.15234709216E+03  0.15234709216E+03  0.00000000000E+00 0.  1.
         23    2    1    2    0    0 -0.36154355024E+01 -0.59605490002E+02 -0.49414483898E+02  0.12433782455E+03  0.97222515816E+02 0.  0.
        -24    2    1    2    0    0  0.16052150801E+03  0.16222433600E+03  0.34635262038E+03  0.42117713474E+03  0.73117381356E+02 0.  0.
         13    1    4    4    0    0  0.31120255835E+02  0.80799403940E+02  0.13297473274E+03  0.15867984607E+03  0.00000000000E+00 0. -1.
        -14    1    4    4    0    0  0.12940125218E+03  0.81424932058E+02  0.21337788764E+03  0.26249728867E+03  0.00000000000E+00 0.  1.
        -13    1    3    3    0    0  0.11496897920E+02 -0.82575859463E+02 -0.49268101432E+02  0.96841608034E+02  0.00000000000E+00 0.  1.
         13    1    3    3    0    0 -0.15112333422E+02  0.22970369461E+02 -0.14638246565E+00  0.27496216512E+02  0.00000000000E+00 0. -1.
         -1    1    1    2    0  502 -0.15690607251E+03 -0.10261884599E+03  0.28512552990E+03  0.34124289142E+03  0.00000000000E+00 0.  1.
<scales pt_clust_5="13000.00000" pt_clust_6="13000.00000" pt_clust_7="13000.00000" pt_clust_8="13000.00000" pt_clust_9="204.63929"></scales>
<clustering>
<clus scale="   73.117">  5  6 -1 -1</clus>
<clus scale="   97.223">  7  8 -1 -1</clus>
<clus scale="  114.097">  1  7  2 -1</clus>
<clus scale="  204.639">  2  9  1 -1</clus>
<clus scale="  204.639">  2  5  1 -1</clus>
</clustering>
</event>
<event>
 9    1  0.5981539E-005  0.9469479E+02  0.7546771E-02  0.1298330E+00
         21   -1    0    0  501  502  0.00000000000E+00  0.00000000000E+00  0.12505401079E+03  0.12505401079E+03  0.00000000000E+00 0. -1.
          3   -1    0    0  502    0 -0.00000000000E+00 -0.00000000000E+00 -0.18034083186E+03  0.18034083186E+03  0.00000000000E+00 0. -1.
        -24    2    1    2    0    0  0.28798189392E+02 -0.53242778516E+01 -0.87825882887E+02  0.12230050906E+03  0.79914611715E+02 0.  0.
         23    2    1    2    0    0 -0.66947392696E+01 -0.12951822684E+02  0.83612453510E+02  0.12451900007E+03  0.91111852966E+02 0.  0.
         11    1    3    3    0    0  0.24008503291E+02 -0.41358532195E+02 -0.58740469493E+02  0.75745489449E+02  0.00000000000E+00 0. -1.
        -12    1    3    3    0    0  0.47896861006E+01  0.36034254344E+02 -0.29085413394E+02  0.46555019615E+02  0.00000000000E+00 0.  1.
        -11    1    4    4    0    0  0.19794348995E+02  0.10456708203E+02 -0.99522276766E+01  0.24499098642E+02  0.00000000000E+00 0.  1.
         11    1    4    4    0    0 -0.26489088264E+02 -0.23408530887E+02  0.93564681187E+02  0.10001990142E+03  0.00000000000E+00 0. -1.
          4    1    1    2  501    0 -0.22103450122E+02  0.18276100536E+02 -0.51073391696E+02  0.58575333524E+02  0.00000000000E+00 0. -1.
<scales pt_clust_5="13000.00000" pt_clust_6="13000.00000" pt_clust_7="13000.00000" pt_clust_8="13000.00000" pt_clust_9="28.68064"></scales>
<clustering>
<clus scale="   28.681">  1  9  2 -1</clus>
<clus scale="   79.915">  5  6 -1 -1</clus>
<clus scale="   83.977">  2  5  1 -1</clus>
<clus scale="   91.112">  7  8 -1 -1</clus>
<clus scale="   28.681">  1  5  2 -1</clus>
</clustering>
</event>
<event>
 9    1  0.5981539E-005  0.9756459E+02  0.7546771E-02  0.1287713E+00
         -2   -1    0    0    0  501 -0.00000000000E+00  0.00000000000E+00  0.16759166421E+03  0.16759166421E+03  0.00000000000E+00 0.  1.
         21   -1    0    0  501  502  0.00000000000E+00 -0.00000000000E+00 -0.19930705795E+03  0.19930705795E+03  0.00000000000E+00 0. -1.
         23    2    1    2    0    0  0.47842677654E+01  0.43623587103E+02 -0.50725934030E+02  0.10928110306E+03  0.86274750268E+02 0.  0.
        -24    2    1    2    0    0 -0.44692357446E+02 -0.35687611832E+02 -0.94263654664E+02  0.13725700025E+03  0.81748609007E+02 0.  0.
         11    1    4    4    0    0 -0.57665803462E+02 -0.52001810533E+02 -0.82615859323E+02  0.11337951049E+03  0.00000000000E+00 0. -1.
        -12    1    4    4    0    0  0.12973446017E+02  0.16314198702E+02 -0.11647795340E+02  0.23877489757E+02  0.00000000000E+00 0.  1.
        -13    1    3    3    0    0  0.39267273327E+02 -0.87785893310E+00 -0.29471765984E+02  0.49104728703E+02  0.00000000000E+00 0.  1.
         13    1    3    3    0    0 -0.34483005561E+02  0.44501446036E+02 -0.21254168046E+02  0.60176374360E+02  0.00000000000E+00 0. -1.
         -1    1    1    2    0  502  0.39908089680E+02 -0.79359752714E+01  0.11327419496E+03  0.12036061885E+03  0.00000000000E+00 0.  1.
<scales pt_clust_5="13000.00000" pt_clust_6="13000.00000" pt_clust_7="13000.00000" pt_clust_8="13000.00000" pt_clust_9="40.68952"></scales>
<clustering>
<clus scale="   40.690">  2  9  1 -1</clus>
<clus scale="   81.749">  5  6 -1 -1</clus>
<clus scale="   86.275">  7  8 -1 -1</clus>
<clus scale="   93.586">  2  5  1 -1</clus>
<clus scale="   40.690">  2  5  1 -1</clus>
</clustering>
</event>
<event>
 9    1  0.5981539E-005  0.9751996E+02  0.7546771E-02  0.1290072E+00
         -2   -1    0    0    0  501 -0.00000000000E+00  0.00000000000E+00  0.42146751091E+03  0.42146751091E+03  0.00000000000E+00 0.  1.
         21   -1    0    0  501  502  0.00000000000E+00 -0.00000000000E+00 -0.17755599418E+03  0.17755599418E+03  0.00000000000E+00 0.  1.
         23    2    1    2    0    0  0.27962250005E+02 -0.24402695089E+02  0.32841317836E+03  0.34272950938E+03  0.90724428480E+02 0.  0.
        -24    2    1    2    0    0  0.23921669166E+01  0.44077423002E+02  0.57599751097E+02  0.10966078991E+03  0.82214450283E+02 0.  0.
         11    1    4    4    0    0 -0.18147383461E+02 -0.11057919554E+02 -0.69129957497E+01  0.22347139002E+02  0.00000000000E+00 0. -1.
        -12    1    4    4    0    0  0.20539550378E+02  0.55135342555E+02  0.64512746847E+02  0.87313650904E+02  0.00000000000E+00 0.  1.
        -11    1    3    3    0    0  0.43315969411E+01  0.34358551764E+02  0.11057853753E+03  0.11587443969E+03  0.00000000000E+00 0. -1.
         11    1    3    3    0    0  0.23630653064E+02 -0.58761246853E+02  0.21783464084E+03  0.22685506969E+03  0.00000000000E+00 0.  1.
         -1    1    1    2    0  502 -0.30354416922E+02 -0.19674727912E+02 -0.14210141273E+03  0.14663320581E+03  0.00000000000E+00 0.  1.
<scales pt_clust_5="13000.00000" pt_clust_6="13000.00000" pt_clust_7="13000.00000" pt_clust_8="13000.00000" pt_clust_9="36.17299"></scales>
<clustering>
<clus scale="   36.173">  2  9  1 -1</clus>
<clus scale="   82.214">  5  6 -1 -1</clus>
<clus scale="   89.657">  2  5  1 -1</clus>
<clus scale="   90.724">  7  8 -1 -1</clus>
<clus scale="   36.173">  2  5  1 -1</clus>
</clustering>
</event>
<event>
 9    1  0.5981539E-005  0.2274361E+03  0.7546771E-02  0.1129312E+00
         21   -1    0    0  501  502  0.00000000000E+00  0.00000000000E+00  0.10706181890E+03  0.10706181890E+03  0.00000000000E+00 0. -1.
          1   -1    0    0  502    0 -0.00000000000E+00 -0.00000000000E+00 -0.10206899723E+04  0.10206899723E+04  0.00000000000E+00 0. -1.
        -24    2    1    2    0    0  0.14990003806E+03 -0.10816464906E+03 -0.33812030490E+03  0.39371743679E+03  0.80737022081E+02 0.  0.
         23    2    1    2    0    0 -0.11361596970E+03  0.25478277281E+03 -0.30152944600E+03  0.42118043823E+03  0.93005939846E+02 0.  0.
         11    1    3    3    0    0  0.11821661035E+03 -0.11241938579E+03 -0.23742338125E+03  0.28806795592E+03  0.00000000000E+00 0. -1.
        -12    1    3    3    0    0  0.31683427702E+02  0.42547367341E+01 -0.10069692365E+03  0.10564948087E+03  0.00000000000E+00 0.  1.
        -11    1    4    4    0    0 -0.12880887980E+03  0.20606621735E+03 -0.25103820639E+03  0.34939260799E+03  0.00000000000E+00 0. -1.
         11    1    4    4    0    0  0.15192910096E+02  0.48716555463E+02 -0.50491239613E+02  0.71787830243E+02  0.00000000000E+00 0.  1.
          2    1    1    2  501    0 -0.36284068350E+02 -0.14661812375E+03 -0.27397840254E+03  0.31285391621E+03  0.00000000000E+00 0. -1.
<scales pt_clust_5="13000.00000" pt_clust_6="13000.00000" pt_clust_7="13000.00000" pt_clust_8="13000.00000" pt_clust_9="151.04116"></scales>
<clustering>
<clus scale="   80.737">  5  6 -1 -1</clus>
<clus scale="   93.006">  7  8 -1 -1</clus>
<clus scale="  151.041">  1  9  2 -1</clus>
<clus scale="  222.701">  2  5  1 -1</clus>
<clus scale="  151.041">  1  5  2 -1</clus>
</clustering>
</event>
<event>
 9    1  0.5981539E-005  0.1876229E+03  0.7546771E-02  0.1161090E+00
         21   -1    0    0  501  502  0.00000000000E+00  0.00000000000E+00  0.22167399790E+03  0.22167399790E+03  0.00000000000E+00 0. -1.
          1   -1    0    0  502    0 -0.00000000000E+00 -0.00000000000E+00 -0.40848771784E+03  0.40848771784E+03  0.00000000000E+00 0. -1.
         23    2    1    2    0    0  0.16047651052E+03 -0.72461381069E+02 -0.28740035867E+03  0.34765994208E+03  0.85235596968E+02 0.  0.
        -24    2    1    2    0    0 -0.84651386622E+02  0.98261457994E+02  0.12649412929E+03  0.19832166050E+03  0.80681750701E+02 0.  0.
         11    1    4    4    0    0 -0.30391678238E+02  0.73146996587E+02  0.29788820923E+02  0.84625711623E+02  0.00000000000E+00 0. -1.
        -12    1    4    4    0    0 -0.54259708384E+02  0.25114461408E+02  0.96705308365E+02  0.11369594888E+03  0.00000000000E+00 0.  1.
        -11    1    3    3    0    0  0.72526608275E+01 -0.24461774696E+02 -0.88132484954E+02  0.91751372821E+02  0.00000000000E+00 0.  1.
         11    1    3    3    0    0  0.15322384969E+03 -0.47999606373E+02 -0.19926787371E+03  0.25590856926E+03  0.00000000000E+00 0. -1.
          2    1    1    2  501    0 -0.75825123896E+02 -0.25800076926E+02 -0.25907490567E+02  0.84180113155E+02  0.00000000000E+00 0. -1.
<scales pt_clust_5="13000.00000" pt_clust_6="13000.00000" pt_clust_7="13000.00000" pt_clust_8="13000.00000" pt_clust_9="80.09432"></scales>
<clustering>
<clus scale="   80.094">  1  9  2 -1</clus>
<clus scale="   80.682">  5  6 -1 -1</clus>
<clus scale="   85.236">  7  8 -1 -1</clus>
<clus scale="  185.598">  1  5  2 -1</clus>
<clus scale="   80.094">  1  5  2 -1</clus>
</clustering>
</event>
<event>
 9    1  0.5981539E-005  0.9577985E+02  0.7546771E-02  0.1294897E+00
         21   -1    0    0  501  502  0.00000000000E+00  0.00000000000E+00  0.16353205919E+02  0.16353205919E+02  0.00000000000E+00 0.  1.
          1   -1    0    0  502    0 -0.00000000000E+00 -0.00000000000E+00 -0.96278979408E+03  0.96278979408E+03  0.00000000000E+00 0. -1.
        -24    2    1    2    0    0 -0.14710528531E+02  0.37620357717E+02 -0.55521278324E+03  0.56258927796E+03  0.81325088643E+02 0.  0.
         23    2    1    2    0    0 -0.23724934420E+02 -0.12712990014E+02 -0.29610279055E+03  0.31098067077E+03  0.91146159511E+02 0.  0.
         11    1    3    3    0    0  0.23238702496E+02  0.32816643274E+02 -0.14123145847E+03  0.14684445591E+03  0.00000000000E+00 0. -1.
        -12    1    3    3    0    0 -0.37949231027E+02  0.48037144429E+01 -0.41398132477E+03  0.41574482205E+03  0.00000000000E+00 0.  1.
        -11    1    4    4    0    0 -0.53996288757E+02 -0.11319377042E+02 -0.24850246604E+03  0.25455294759E+03  0.00000000000E+00 0. -1.
         11    1    4    4    0    0  0.30271354338E+02 -0.13936129718E+01 -0.47600324508E+02  0.56427723185E+02  0.00000000000E+00 0.  1.
          2    1    1    2  501    0  0.38435462951E+02 -0.24907367703E+02 -0.95121014374E+02  0.10557305127E+03  0.00000000000E+00 0. -1.
<scales pt_clust_5="13000.00000" pt_clust_6="13000.00000" pt_clust_7="13000.00000" pt_clust_8="13000.00000" pt_clust_9="45.80024"></scales>
<clustering>
<clus scale="   45.800">  1  9  2 -1</clus>
<clus scale="   81.325">  5  6 -1 -1</clus>
<clus scale="   86.487">  2  5  1 -1</clus>
<clus scale="   91.146">  7  8 -1 -1</clus>
<clus scale="   45.800">  1  5  2 -1</clus>
</clustering>
</event>
<event>
 9    1  0.5981539E-005  0.1296969E+03  0.7546771E-02  0.1231140E+00
         21   -1    0    0  501  502  0.00000000000E+00  0.00000000000E+00  0.72736948807E+03  0.72736948807E+03  0.00000000000E+00 0.  1.
         -4   -1    0    0    0  501 -0.00000000000E+00 -0.00000000000E+00 -0.57241798804E+02  0.57241798804E+02  0.00000000000E+00 0.  1.
         23    2    1    2    0    0  0.36482394407E+02  0.25636793854E+02  0.16195144495E+03  0.19113278550E+03  0.91188052235E+02 0.  0.
        -24    2    1    2    0    0 -0.12923790420E+03 -0.60065248527E+02  0.14833231837E+03  0.22028076006E+03  0.78809051610E+02 0.  0.
         11    1    4    4    0    0 -0.42589801141E+02 -0.46430656314E+02  0.10498541360E+03  0.12244032863E+03  0.00000000000E+00 0. -1.
        -12    1    4    4    0    0 -0.86648103055E+02 -0.13634592213E+02  0.43346904775E+02  0.97840431425E+02  0.00000000000E+00 0.  1.
        -11    1    3    3    0    0  0.25375163726E+02 -0.31661220614E+02  0.46119943903E+02  0.61427852401E+02  0.00000000000E+00 0.  1.
         11    1    3    3    0    0  0.11107230681E+02  0.57298014468E+02  0.11583150104E+03  0.12970493310E+03  0.00000000000E+00 0. -1.
         -3    1    1    2    0  502  0.92755509788E+02  0.34428454674E+02  0.35984392594E+03  0.37319774132E+03  0.00000000000E+00 0.  1.
<scales pt_clust_5="13000.00000" pt_clust_6="13000.00000" pt_clust_7="13000.00000" pt_clust_8="13000.00000" pt_clust_9="98.93889"></scales>
<clustering>
<clus scale="   78.809">  5  6 -1 -1</clus>
<clus scale="   91.188">  7  8 -1 -1</clus>
<clus scale="   98.939">  1  9  2 -1</clus>
<clus scale="  121.313">  1  5  2 -1</clus>
<clus scale="   98.939">  1  5  2 -1</clus>
</clustering>
</event>
<event>
 9    1  0.5981539E-005  0.1064003E+03  0.7546771E-02  0.1272091E+00
         -2   -1    0    0    0  501 -0.00000000000E+00  0.00000000000E+00  0.13490580993E+03  0.13490580993E+03  0.00000000000E+00 0.  1.
         21   -1    0    0  501  502  0.00000000000E+00 -0.00000000000E+00 -0.13005980982E+03  0.13005980982E+03  0.00000000000E+00 0.  1.
         23    2    1    2    0    0  0.55435577625E+02  0.37474381414E+02  0.31534784539E+02  0.11752814077E+03  0.91329013512E+02 0.  0.
        -24    2    1    2    0    0 -0.48290733576E+02  0.41367830026E+01  0.60199166312E+01  0.94029643174E+02  0.80350647018E+02 0.  0.
         11    1    4    4    0    0 -0.45369751000E+02 -0.32705003445E+02  0.10149394838E+02  0.56842253401E+02  0.00000000000E+00 0. -1.
        -12    1    4    4    0    0 -0.29209825754E+01  0.36841786447E+02 -0.41294782068E+01  0.37187389773E+02  0.00000000000E+00 0.  1.
        -13    1    3    3    0    0 -0.18624977335E+02  0.27095265155E+02  0.27107497052E+02  0.42612903808E+02  0.00000000000E+00 0. -1.
         13    1    3    3    0    0  0.74060554960E+02  0.10379116259E+02  0.44272874867E+01  0.74915236967E+02  0.00000000000E+00 0.  1.
         -1    1    1    2    0  502 -0.71448440495E+01 -0.41611164417E+02 -0.32708701058E+02  0.53407835806E+02  0.00000000000E+00 0.  1.
<scales pt_clust_5="13000.00000" pt_clust_6="13000.00000" pt_clust_7="13000.00000" pt_clust_8="13000.00000" pt_clust_9="42.22011"></scales>
<clustering>
<clus scale="   42.220">  2  9  1 -1</clus>
<clus scale="   80.351">  5  6 -1 -1</clus>
<clus scale="   91.329">  7  8 -1 -1</clus>
<clus scale="   97.140">  2  5  1 -1</clus>
<clus scale="   42.220">  2  5  1 -1</clus>
</clustering>
</event>
<event>
 9    1  0.5981539E-005  0.1431333E+03  0.7546771E-02  0.1212059E+00
         21   -1    0    0  501  502  0.00000000000E+00  0.00000000000E+00  0.27193017558E+03  0.27193017558E+03  0.00000000000E+00 0.  1.
          1   -1    0    0  502    0 -0.00000000000E+00 -0.00000000000E+00 -0.43250255734E+03  0.43250255734E+03  0.00000000000E+00 0. -1.
         23    2    1    2    0    0 -0.93544840438E+02 -0.51245690777E+02 -0.38595828909E+03  0.41135660812E+03  0.94200319162E+02 0.  0.
        -24    2    1    2    0    0  0.96189664847E+02  0.80662922131E+02  0.14759847522E+03  0.20987003614E+03  0.80629793212E+02 0.  0.
         13    1    4    4    0    0  0.59755109995E+02  0.31763750624E+02  0.12973968337E+03  0.14632837888E+03  0.00000000000E+00 0. -1.
        -14    1    4    4    0    0  0.36434554852E+02  0.48899171507E+02  0.17858791845E+02  0.63541657261E+02  0.00000000000E+00 0.  1.
        -13    1    3    3    0    0 -0.14684907494E+02  0.17009024027E+02 -0.17673141581E+02  0.28588342725E+02  0.00000000000E+00 0.  1.
         13    1    3    3    0    0 -0.78859932945E+02 -0.68254714804E+02 -0.36828514751E+03  0.38276826539E+03  0.00000000000E+00 0. -1.
          2    1    1    2  501    0 -0.26448244086E+01 -0.29417231354E+02  0.77787432113E+02  0.83206088668E+02  0.00000000000E+00 0. -1.
<scales pt_clust_5="13000.00000" pt_clust_6="13000.00000" pt_clust_7="13000.00000" pt_clust_8="13000.00000" pt_clust_9="29.53589"></scales>
<clustering>
<clus scale="   29.536">  1  9  2 -1</clus>
<clus scale="   80.630">  5  6 -1 -1</clus>
<clus scale="   94.200">  7  8 -1 -1</clus>
<clus scale="  134.590">  1  5  2 -1</clus>
<clus scale="   29.536">  1  5  2 -1</clus>
</clustering>
</event>
<event>
 9    1  0.5981539E-005  0.1697084E+03  0.7546771E-02  0.1201851E+00
         21   -1    0    0  501  502  0.00000000000E+00  0.00000000000E+00  0.98457229998E+02  0.98457229998E+02  0.00000000000E+00 0. -1.
          1   -1    0    0  502    0 -0.00000000000E+00 -0.00000000000E+00 -0.49642109087E+03  0.49642109087E+03  0.00000000000E+00 0. -1.
        -24    2    1    2    0    0  0.33601793784E+02 -0.41794142239E+02 -0.52634024427E+02  0.11347194620E+03  0.85027708290E+02 0.  0.
         23    2    1    2    0    0  0.99431385501E+02  0.10304802431E+03 -0.26436320135E+03  0.31405805272E+03  0.90769281764E+02 0.  0.
         11    1    3    3    0    0  0.93378318339E+01 -0.20312145916E+02 -0.72223446059E+02  0.75604262682E+02  0.00000000000E+00 0. -1.
        -12    1    3    3    0    0  0.24263961950E+02 -0.21481996323E+02  0.19589421631E+02  0.37867683523E+02  0.00000000000E+00 0.  1.
        -13    1    4    4    0    0  0.42549683348E+02  0.78356014239E+01 -0.14412490597E+03  0.15047877167E+03  0.00000000000E+00 0.  1.
         13    1    4    4    0    0  0.56881702153E+02  0.95212422889E+02 -0.12023829538E+03  0.16357928105E+03  0.00000000000E+00 0. -1.
          2    1    1    2  501    0 -0.13303317928E+03 -0.61253882073E+02 -0.80966635098E+02  0.16734832195E+03  0.00000000000E+00 0. -1.
<scales pt_clust_5="13000.00000" pt_clust_6="13000.00000" pt_clust_7="13000.00000" pt_clust_8="13000.00000" pt_clust_9="143.39416"></scales>
<clustering>
<clus scale="   85.028">  5  6 -1 -1</clus>
<clus scale="   90.769">  7  8 -1 -1</clus>
<clus scale="  100.526">  2  5  1 -1</clus>
<clus scale="  143.394">  1  9  2 -1</clus>
<clus scale="  143.394">  1  5  2 -1</clus>
</clustering>
</event>
<event>
 9    1  0.2418055E-004  0.9545422E+02  0.7546771E-02  0.1296011E+00
         21   -1    0    0  501  502  0.00000000000E+00  0.00000000000E+00  0.57760602312E+03  0.57760602312E+03  0.00000000000E+00 0. -1.
          1   -1    0    0  502    0 -0.00000000000E+00 -0.00000000000E+00 -0.25480188245E+03  0.25480188245E+03  0.00000000000E+00 0. -1.
         23    2    1    2    0    0  0.21326344234E+02 -0.19299895590E+02 -0.23015877082E+03  0.24930115366E+03  0.91382200121E+02 0.  0.
        -24    2    1    2    0    0 -0.33968301283E+02 -0.58937129114E+02  0.31263130843E+03  0.33004523657E+03  0.81019087221E+02 0.  0.
         13    1    4    4    0    0 -0.16858416357E+02 -0.70621923569E+02  0.15622761993E+03  0.17227516223E+03  0.00000000000E+00 0. -1.
        -14    1    4    4    0    0 -0.17109884926E+02  0.11684794455E+02  0.15640368850E+03  0.15777007435E+03  0.00000000000E+00 0.  1.
        -13    1    3    3    0    0  0.27912606338E+02  0.31776442981E+02 -0.78985992673E+02  0.89597114684E+02  0.00000000000E+00 0.  1.
         13    1    3    3    0    0 -0.65862621031E+01 -0.51076338571E+02 -0.15117277815E+03  0.15970403897E+03  0.00000000000E+00 0. -1.
          2    1    1    2  501    0  0.12641957049E+02  0.78237024704E+02  0.24033160307E+03  0.25306151534E+03  0.00000000000E+00 0. -1.
<scales pt_clust_5="13000.00000" pt_clust_6="13000.00000" pt_clust_7="13000.00000" pt_clust_8="13000.00000" pt_clust_9="79.25182"></scales>
<clustering>
<clus scale="   79.252">  1  9  2 -1</clus>
<clus scale="   81.019">  5  6 -1 -1</clus>
<clus scale="   85.586">  1  5  2 -1</clus>
<clus scale="   91.382">  7  8 -1 -1</clus>
<clus scale="   79.252">  1  5  2 -1</clus>
</clustering>
</event>
<event>
 9    1  0.5981539E-005  0.2104242E+03  0.7546771E-02  0.1158694E+00
         21   -1    0    0  501  502  0.00000000000E+00  0.00000000000E+00  0.39463086037E+03  0.39463086037E+03  0.00000000000E+00 0. -1.
          1   -1    0    0  502    0 -0.00000000000E+00 -0.00000000000E+00 -0.23241990365E+03  0.23241990365E+03  0.00000000000E+00 0. -1.
        -24    2    1    2    0    0  0.11189826797E+03  0.25546090663E+02  0.76935681764E+02  0.15897143423E+03  0.78606568744E+02 0.  0.
         23    2    1    2    0    0 -0.18719185928E+03  0.10021425185E+03  0.17955265607E+03  0.29380077910E+03  0.94847525229E+02 0.  0.
         11    1    3    3    0    0  0.11466596296E+03  0.35682516404E+02  0.83784725518E+02  0.14642884029E+03  0.00000000000E+00 0. -1.
        -12    1    3    3    0    0 -0.27676949921E+01 -0.10136425741E+02 -0.68490437537E+01  0.12542593939E+02  0.00000000000E+00 0.  1.
        -13    1    4    4    0    0 -0.40392955645E+02  0.65587714707E+02  0.34010307702E+02  0.84202376547E+02  0.00000000000E+00 0. -1.
         13    1    4    4    0    0 -0.14679890364E+03  0.34626537142E+02  0.14554234837E+03  0.20959840255E+03  0.00000000000E+00 0.  1.
          2    1    1    2  501    0  0.75293591314E+02 -0.12576034251E+03 -0.94277381119E+02  0.17427855070E+03  0.00000000000E+00 0. -1.
<scales pt_clust_5="13000.00000" pt_clust_6="13000.00000" pt_clust_7="13000.00000" pt_clust_8="13000.00000" pt_clust_9="187.83586"></scales>
<clustering>
<clus scale="   78.607">  5  6 -1 -1</clus>
<clus scale="   94.848">  7  8 -1 -1</clus>
<clus scale="  139.114">  2  5  1 -1</clus>
<clus scale="  187.836">  1  9  2 -1</clus>
<clus scale="  187.836">  1  5  2 -1</clus>
</clustering>
</event>
<event>
 9    1  0.5981539E-005  0.9993299E+02  0.7546771E-02  0.1286199E+00
          1   -1    0    0  502    0 -0.00000000000E+00  0.00000000000E+00  0.19325049063E+03  0.19325049063E+03  0.00000000000E+00 0. -1.
         21   -1    0    0  501  502  0.00000000000E+00 -0.00000000000E+00 -0.15349464287E+03  0.15349464287E+03  0.00000000000E+00 0. -1.
         23    2    1    2    0    0  0.31207547113E+02 -0.28249370884E+01  0.99750101525E+02  0.13875941264E+03  0.91226095920E+02 0.  0.
        -24    2    1    2    0    0 -0.57009396687E+02  0.72417405360E+02 -0.19538981213E+02  0.12345480249E+03  0.79780728007E+02 0.  0.
         13    1    4    4    0    0 -0.64330448890E+02  0.18319022670E+02 -0.15841356792E+02  0.68738212306E+02  0.00000000000E+00 0. -1.
        -14    1    4    4    0    0  0.73210522033E+01  0.54098382690E+02 -0.36976244209E+01  0.54716590185E+02  0.00000000000E+00 0.  1.
        -11    1    3    3    0    0 -0.29745662574E+02 -0.15388630203E+02  0.26978170843E+02  0.43005070440E+02  0.00000000000E+00 0. -1.
         11    1    3    3    0    0  0.60953209688E+02  0.12563693115E+02  0.72771930681E+02  0.95754342204E+02  0.00000000000E+00 0.  1.
          2    1    1    2  501    0  0.25801849573E+02 -0.69592468272E+02 -0.40455272552E+02  0.84530918360E+02  0.00000000000E+00 0. -1.
<scales pt_clust_5="13000.00000" pt_clust_6="13000.00000" pt_clust_7="13000.00000" pt_clust_8="13000.00000" pt_clust_9="74.22161"></scales>
<clustering>
<clus scale="   74.222">  2  9  1 -1</clus>
<clus scale="   79.781">  5  6 -1 -1</clus>
<clus scale="   89.607">  2  5  1 -1</clus>
<clus scale="   91.226">  7  8 -1 -1</clus>
<clus scale="   74.222">  2  5  1 -1</clus>
</clustering>
</event>
<event>
 9    1  0.5981539E-005  0.1330722E+03  0.7546771E-02  0.1225706E+00
         21   -1    0    0  501  502  0.00000000000E+00  0.00000000000E+00  0.12088587427E+03  0.12088587427E+03  0.00000000000E+00 0. -1.
         -2   -1    0    0    0  501 -0.00000000000E+00 -0.00000000000E+00 -0.36576669979E+03  0.36576669979E+03  0.00000000000E+00 0.  1.
         23    2    1    2    0    0 -0.80150397611E+02 -0.45650012954E+02 -0.16432833857E+03  0.20859658384E+03  0.89446755183E+02 0.  0.
        -24    2    1    2    0    0  0.10189686636E+03  0.74880424509E+02  0.38544063458E+02  0.15351156368E+03  0.78039131252E+02 0.  0.
         13    1    4    4    0    0  0.65818841242E+02  0.85852870207E+02  0.15411105544E+02  0.10927185072E+03  0.00000000000E+00 0. -1.
        -14    1    4    4    0    0  0.36078025117E+02 -0.10972445698E+02  0.23132957915E+02  0.44239712960E+02  0.00000000000E+00 0.  1.
        -13    1    3    3    0    0  0.11731329253E+02 -0.30214974743E+02 -0.63620546477E+02  0.71401279532E+02  0.00000000000E+00 0.  1.
         13    1    3    3    0    0 -0.91881726864E+02 -0.15435038211E+02 -0.10070779209E+03  0.13719530431E+03  0.00000000000E+00 0. -1.
         -1    1    1    2    0  502 -0.21746468747E+02 -0.29230411555E+02 -0.11909655041E+03  0.12454442654E+03  0.00000000000E+00 0.  1.
<scales pt_clust_5="13000.00000" pt_clust_6="13000.00000" pt_clust_7="13000.00000" pt_clust_8="13000.00000" pt_clust_9="36.43250"></scales>
<clustering>
<clus scale="   36.433">  1  9  2 -1</clus>
<clus scale="   78.039">  5  6 -1 -1</clus>
<clus scale="   89.447">  7  8 -1 -1</clus>
<clus scale="  125.688">  1  5  2 -1</clus>
<clus scale="   36.433">  1  5  2 -1</clus>
</clustering>
</event>
<event>
 9    1  0.5981539E-005  0.1325468E+03  0.7546771E-02  0.1226057E+00
          1   -1    0    0  502    0 -0.00000000000E+00  0.00000000000E+00  0.31936770489E+03  0.31936770489E+03  0.00000000000E+00 0. -1.
         21   -1    0    0  501  502  0.00000000000E+00 -0.00000000000E+00 -0.17535023813E+03  0.17535023813E+03  0.00000000000E+00 0. -1.
         23    2    1    2    0    0 -0.32164934742E+02 -0.97797063053E+02  0.21668663677E+03  0.25686419447E+03  0.91800148570E+02 0.  0.
        -24    2    1    2    0    0  0.26210366451E+02  0.76320564558E+02  0.40674387926E+02  0.12233985763E+03  0.82467102822E+02 0.  0.
         13    1    4    4    0    0  0.26458069342E+02  0.74530991525E+01  0.45655895027E+02  0.53292015078E+02  0.00000000000E+00 0. -1.
        -14    1    4    4    0    0 -0.24770289091E+00  0.68867465406E+02 -0.49815071020E+01  0.69047842552E+02  0.00000000000E+00 0.  1.
        -13    1    3    3    0    0  0.22909466029E+02 -0.28122655719E+02  0.20870304842E+02  0.41848500841E+02  0.00000000000E+00 0.  1.
         13    1    3    3    0    0 -0.55074400771E+02 -0.69674407334E+02  0.19581633192E+03  0.21501569363E+03  0.00000000000E+00 0. -1.
          2    1    1    2  501    0  0.59545682912E+01  0.21476498494E+02 -0.11334355793E+03  0.11551389092E+03  0.00000000000E+00 0. -1.
<scales pt_clust_5="13000.00000" pt_clust_6="13000.00000" pt_clust_7="13000.00000" pt_clust_8="13000.00000" pt_clust_9="22.28670"></scales>
<clustering>
<clus scale="   22.287">  2  9  1 -1</clus>
<clus scale="   82.467">  5  6 -1 -1</clus>
<clus scale="   91.800">  7  8 -1 -1</clus>
<clus scale="  126.262">  2  5  1 -1</clus>
<clus scale="   22.287">  2  5  1 -1</clus>
</clustering>
</event>
<event>
 9    1  0.5981539E-005  0.1512968E+03  0.7546771E-02  0.1220623E+00
          1   -1    0    0  502    0 -0.00000000000E+00  0.00000000000E+00  0.15903110528E+03  0.15903110528E+03  0.00000000000E+00 0. -1.
         21   -1    0    0  501  502  0.00000000000E+00 -0.00000000000E+00 -0.71786263495E+03  0.71786263495E+03  0.00000000000E+00 0. -1.
         23    2    1    2    0    0  0.28996149530E+02  0.33604783393E+02  0.94298366162E+02  0.13392409658E+03  0.84103648142E+02 0.  0.
        -24    2    1    2    0    0  0.61760518632E+02 -0.12240115278E+03 -0.13295659483E+03  0.20752419255E+03  0.81193783757E+02 0.  0.
         13    1    4    4    0    0  0.62993244069E+02 -0.45019487847E+02 -0.91033123081E+02  0.11950703989E+03  0.00000000000E+00 0. -1.
        -14    1    4    4    0    0 -0.12327254365E+01 -0.77381664929E+02 -0.41923471753E+02  0.88017152664E+02  0.00000000000E+00 0.  1.
        -13    1    3    3    0    0 -0.80611621082E+01  0.46174989879E+02  0.22141840071E+02  0.51839879500E+02  0.00000000000E+00 0.  1.
         13    1    3    3    0    0  0.37057311638E+02 -0.12570206486E+02  0.72156526090E+02  0.82084217084E+02  0.00000000000E+00 0. -1.
          2    1    1    2  501    0 -0.90756668162E+02  0.88796369383E+02 -0.52017330099E+03  0.53544545109E+03  0.00000000000E+00 0. -1.
<scales pt_clust_5="13000.00000" pt_clust_6="13000.00000" pt_clust_7="13000.00000" pt_clust_8="13000.00000" pt_clust_9="127.66482"></scales>
<clustering>
<clus scale="   81.194">  5  6 -1 -1</clus>
<clus scale="   84.104">  7  8 -1 -1</clus>
<clus scale="   95.097">  1  7  2 -1</clus>
<clus scale="  127.665">  2  9  1 -1</clus>
<clus scale="  127.665">  2  5  1 -1</clus>
</clustering>
</event>
<event>
 9    1  0.5981539E-005  0.1058095E+03  0.7546771E-02  0.1273390E+00
         21   -1    0    0  501  502  0.00000000000E+00  0.00000000000E+00  0.11007977583E+03  0.11007977583E+03  0.00000000000E+00 0. -1.
          1   -1    0    0  502    0 -0.00000000000E+00 -0.00000000000E+00 -0.73788437543E+03  0.73788437543E+03  0.00000000000E+00 0. -1.
        -24    2    1    2    0    0  0.12489653456E+02 -0.58502813393E+02 -0.57933374758E+03  0.58779957875E+03  0.79386290244E+02 0.  0.
         23    2    1    2    0    0 -0.65709388895E+02  0.70266550107E+01 -0.11497969970E+03  0.16063788291E+03  0.90648223446E+02 0.  0.
         11    1    3    3    0    0 -0.15118020371E+02 -0.66463684166E+02 -0.34144550044E+03  0.34818243153E+03  0.00000000000E+00 0. -1.
        -12    1    3    3    0    0  0.27607673827E+02  0.79608707734E+01 -0.23788824714E+03  0.23961714722E+03  0.00000000000E+00 0.  1.
        -11    1    4    4    0    0 -0.24866576684E+02 -0.40304292666E+02 -0.65928689511E+02  0.81174963775E+02  0.00000000000E+00 0. -1.
         11    1    4    4    0    0 -0.40842812212E+02  0.47330947677E+02 -0.49051010192E+02  0.79462919139E+02  0.00000000000E+00 0.  1.
          2    1    1    2  501    0  0.53219735439E+02  0.51476158382E+02  0.66508847674E+02  0.99526689591E+02  0.00000000000E+00 0. -1.
<scales pt_clust_5="13000.00000" pt_clust_6="13000.00000" pt_clust_7="13000.00000" pt_clust_8="13000.00000" pt_clust_9="74.04144"></scales>
<clustering>
<clus scale="   74.041">  1  9  2 -1</clus>
<clus scale="   79.386">  5  6 -1 -1</clus>
<clus scale="   90.648">  7  8 -1 -1</clus>
<clus scale="   96.337">  2  5  1 -1</clus>
<clus scale="   74.041">  1  5  2 -1</clus>
</clustering>
</event>
<event>
 9    1  0.5981539E-005  0.1010325E+03  0.7546771E-02  0.1278775E+00
          1   -1    0    0  502    0 -0.00000000000E+00  0.00000000000E+00  0.85603030205E+03  0.85603030205E+03  0.00000000000E+00 0. -1.
         21   -1    0    0  501  502  0.00000000000E+00 -0.00000000000E+00 -0.22145721388E+02  0.22145721388E+02  0.00000000000E+00 0. -1.
         23    2    1    2    0    0 -0.68177363195E+01  0.64709891765E+02  0.59710101885E+03  0.60625821659E+03  0.82374430797E+02 0.  0.
        -24    2    1    2    0    0 -0.65459399552E+01 -0.36675007409E+02  0.11071669332E+03  0.14208176441E+03  0.80877290384E+02 0.  0.
         11    1    4    4    0    0 -0.41788060386E+02 -0.11363346681E+02  0.39095088019E+02  0.58342039267E+02  0.00000000000E+00 0. -1.
        -12    1    4    4    0    0  0.35242120431E+02 -0.25311660728E+02  0.71621605298E+02  0.83739725141E+02  0.00000000000E+00 0.  1.
        -11    1    3    3    0    0  0.11916116670E+02 -0.17184715347E+02  0.11160461688E+03  0.11354690127E+03  0.00000000000E+00 0.  1.
         11    1    3    3    0    0 -0.18733852990E+02  0.81894607112E+02  0.48549640197E+03  0.49271131532E+03  0.00000000000E+00 0. -1.
          2    1    1    2  501    0  0.13363676275E+02 -0.28034884356E+02  0.12606686849E+03  0.12983604244E+03  0.00000000000E+00 0. -1.
<scales pt_clust_5="13000.00000" pt_clust_6="13000.00000" pt_clust_7="13000.00000" pt_clust_8="13000.00000" pt_clust_9="31.05710"></scales>
<clustering>
<clus scale="   31.057">  2  9  1 -1</clus>
<clus scale="   80.877">  5  6 -1 -1</clus>
<clus scale="   82.374">  7  8 -1 -1</clus>
<clus scale="   99.816">  2  5  1 -1</clus>
<clus scale="   31.057">  2  5  1 -1</clus>
</clustering>
</event>
<event>
 9    1  0.5981539E-005  0.2443312E+03  0.7546771E-02  0.1147474E+00
         21   -1    0    0  501  502  0.00000000000E+00  0.00000000000E+00  0.90942768625E+03  0.90942768625E+03  0.00000000000E+00 0. -1.
          1   -1    0    0  502    0 -0.00000000000E+00 -0.00000000000E+00 -0.10825665512E+03  0.10825665512E+03  0.00000000000E+00 0. -1.
        -24    2    1    2    0    0 -0.14403047181E+02  0.81844159591E+02  0.11039242865E+03  0.15995670971E+03  0.80583785285E+02 0.  0.
         23    2    1    2    0    0  0.14000236044E+03 -0.20922919728E+03  0.59963834958E+03  0.65695741221E+03  0.93002006673E+02 0.  0.
         13    1    3    3    0    0 -0.30084507548E+01  0.94510366924E+02  0.10661400366E+03  0.14250545957E+03  0.00000000000E+00 0. -1.
        -14    1    3    3    0    0 -0.11394596427E+02 -0.12666207333E+02  0.37784249910E+01  0.17451250137E+02  0.00000000000E+00 0.  1.
        -13    1    4    4    0    0  0.41751312587E+02 -0.10994384542E+03  0.36931940517E+03  0.38759211070E+03  0.00000000000E+00 0. -1.
         13    1    4    4    0    0  0.98251047848E+02 -0.99285351867E+02  0.23031894441E+03  0.26936530150E+03  0.00000000000E+00 0.  1.
          2    1    1    2  501    0 -0.12559931325E+03  0.12738503769E+03  0.91140252908E+02  0.20077021945E+03  0.00000000000E+00 0. -1.
<scales pt_clust_5="13000.00000" pt_clust_6="13000.00000" pt_clust_7="13000.00000" pt_clust_8="13000.00000" pt_clust_9="225.93893"></scales>
<clustering>
<clus scale="   80.584">  5  6 -1 -1</clus>
<clus scale="   93.002">  7  8 -1 -1</clus>
<clus scale="  115.757">  2  5  1 -1</clus>
<clus scale="  225.939">  1  9  2 -1</clus>
<clus scale="  225.939">  1  5  2 -1</clus>
</clustering>
</event>
<event>
 9    1  0.5981539E-005  0.1189548E+03  0.7546771E-02  0.1247415E+00
         21   -1    0    0  501  502  0.00000000000E+00  0.00000000000E+00  0.21308039461E+03  0.21308039461E+03  0.00000000000E+00 0.  1.
         -4   -1    0    0    0  501 -0.00000000000E+00 -0.00000000000E+00 -0.19000896703E+03  0.19000896703E+03  0.00000000000E+00 0.  1.
         23    2    1    2    0    0  0.59889044162E+02  0.41933408071E+02 -0.48644798003E+02  0.12436007451E+03  0.88056819363E+02 0.  0.
        -24    2    1    2    0    0 -0.37971748804E+02 -0.11991969559E+03  0.11380954883E+03  0.18743812251E+03  0.79736122729E+02 0.  0.
         13    1    4    4    0    0 -0.54326454361E+02 -0.56732643593E+02  0.37556453713E+02  0.87065743596E+02  0.00000000000E+00 0. -1.
        -14    1    4    4    0    0  0.16354705557E+02 -0.63187051993E+02  0.76253095119E+02  0.10037237891E+03  0.00000000000E+00 0.  1.
        -11    1    3    3    0    0  0.76542489725E+02  0.16495995311E+02 -0.16318489608E+02  0.79982271146E+02  0.00000000000E+00 0.  1.
         11    1    3    3    0    0 -0.16653445563E+02  0.25437412759E+02 -0.32326308395E+02  0.44377803364E+02  0.00000000000E+00 0. -1.
         -3    1    1    2    0  502 -0.21917295359E+02  0.77986287516E+02 -0.42093323241E+02  0.91291164621E+02  0.00000000000E+00 0.  1.
<scales pt_clust_5="13000.00000" pt_clust_6="13000.00000" pt_clust_7="13000.00000" pt_clust_8="13000.00000" pt_clust_9="81.00763"></scales>
<clustering>
<clus scale="   79.736">  5  6 -1 -1</clus>
<clus scale="   81.008">  1  9  2 -1</clus>
<clus scale="   88.057">  7  8 -1 -1</clus>
<clus scale="  112.934">  1  5  2 -1</clus>
<clus scale="   81.008">  1  5  2 -1</clus>
</clustering>
</event>
<event>
 9    1  0.5981539E-005  0.1357317E+03  0.7546771E-02  0.1222356E+00
         -2   -1    0    0    0  501 -0.00000000000E+00  0.00000000000E+00  0.47312394272E+03  0.47312394272E+03  0.00000000000E+00 0.  1.
         21   -1    0    0  501  502  0.00000000000E+00 -0.00000000000E+00 -0.73600846807E+02  0.73600846807E+02  0.00000000000E+00 0. -1.
        -24    2    1    2    0    0 -0.53995040676E+02 -0.87235994119E+02  0.36670884316E+03  0.38926069340E+03  0.80764649956E+02 0.  0.
         23    2    1    2    0    0  0.31044761721E+02  0.74469348464E+02  0.40257654106E+02  0.13016745222E+03  0.93879847740E+02 0.  0.
         11    1    3    3    0    0  0.21441032513E+02 -0.15659733415E+02  0.77989228673E+02  0.82384858529E+02  0.00000000000E+00 0. -1.
        -12    1    3    3    0    0 -0.75436073189E+02 -0.71576260704E+02  0.28871961449E+03  0.30687583487E+03  0.00000000000E+00 0.  1.
        -11    1    4    4    0    0  0.51752049219E+02  0.40979476549E+02 -0.95248822734E+01  0.66695693106E+02  0.00000000000E+00 0. -1.
         11    1    4    4    0    0 -0.20707287498E+02  0.33489871916E+02  0.49782536379E+02  0.63471759112E+02  0.00000000000E+00 0.  1.
         -1    1    1    2    0  502  0.22950278955E+02  0.12766645654E+02 -0.74434013515E+01  0.27296643916E+02  0.00000000000E+00 0.  1.
<scales pt_clust_5="13000.00000" pt_clust_6="13000.00000" pt_clust_7="13000.00000" pt_clust_8="13000.00000" pt_clust_9="26.26219"></scales>
<clustering>
<clus scale="   26.262">  2  9  1 -1</clus>
<clus scale="   80.765">  5  6 -1 -1</clus>
<clus scale="   93.880">  7  8 -1 -1</clus>
<clus scale="  127.014">  1  5  2 -1</clus>
<clus scale="   26.262">  2  5  1 -1</clus>
</clustering>
</event>
<event>
 9    1  0.5981539E-005  0.1013070E+03  0.7546771E-02  0.1283069E+00
         21   -1    0    0  501  502  0.00000000000E+00  0.00000000000E+00  0.30083020639E+03  0.30083020639E+03  0.00000000000E+00 0.  1.
         -4   -1    0    0    0  501 -0.00000000000E+00 -0.00000000000E+00 -0.48683802655E+03  0.48683802655E+03  0.00000000000E+00 0.  1.
        -24    2    1    2    0    0 -0.17528002005E+02  0.33329091920E+02 -0.46021734950E+03  0.46923284122E+03  0.83434952368E+02 0.  0.
         23    2    1    2    0    0 -0.42672784404E+01 -0.24010735459E+02  0.89780903199E+02  0.13248974334E+03  0.94330251927E+02 0.  0.
         13    1    3    3    0    0 -0.25149911088E+02 -0.18109149061E+02 -0.85874687379E+02  0.91295789826E+02  0.00000000000E+00 0. -1.
        -14    1    3    3    0    0  0.76219090829E+01  0.51438240981E+02 -0.37434266212E+03  0.37793705139E+03  0.00000000000E+00 0.  1.
        -13    1    4    4    0    0 -0.28283534098E+02 -0.26027668672E+02 -0.11148724580E+01  0.38453098421E+02  0.00000000000E+00 0.  1.
         13    1    4    4    0    0  0.24016255658E+02  0.20169332130E+01  0.90895775657E+02  0.94036644919E+02  0.00000000000E+00 0. -1.
         -3    1    1    2    0  502  0.21795280445E+02 -0.93183564604E+01  0.18442862613E+03  0.18594564838E+03  0.00000000000E+00 0.  1.
<scales pt_clust_5="13000.00000" pt_clust_6="13000.00000" pt_clust_7="13000.00000" pt_clust_8="13000.00000" pt_clust_9="23.70371"></scales>
<clustering>
<clus scale="   23.704">  1  9  2 -1</clus>
<clus scale="   83.435">  5  6 -1 -1</clus>
<clus scale="   91.249">  2  5  1 -1</clus>
<clus scale="   94.330">  7  8 -1 -1</clus>
<clus scale="   23.704">  1  5  2 -1</clus>
</clustering>
</event>
<event>
 9    1  0.5981539E-005  0.1945969E+03  0.7546771E-02  0.1187830E+00
         -2   -1    0    0    0  501 -0.00000000000E+00  0.00000000000E+00  0.45243526600E+03  0.45243526600E+03  0.00000000000E+00 0.  1.
         21   -1    0    0  501  502  0.00000000000E+00 -0.00000000000E+00 -0.11851331336E+03  0.11851331336E+03  0.00000000000E+00 0.  1.
        -24    2    1    2    0    0  0.15504659327E+02  0.31317277110E+02  0.66015927192E+02  0.11214802621E+03  0.83653516557E+02 0.  0.
         23    2    1    2    0    0 -0.17520898999E+03 -0.47612747517E+02  0.10091557400E+03  0.22716112114E+03  0.91940513269E+02 0.  0.
         13    1    3    3    0    0  0.28868880352E+02  0.15774850906E+01 -0.90596605680E+01  0.30298154425E+02  0.00000000000E+00 0. -1.
        -14    1    3    3    0    0 -0.13364221025E+02  0.29739792019E+02  0.75075587760E+02  0.81849871780E+02  0.00000000000E+00 0.  1.
        -13    1    4    4    0    0  0.26215876667E+01 -0.23591261286E+02  0.16094718484E+02  0.28678568549E+02  0.00000000000E+00 0. -1.
         13    1    4    4    0    0 -0.17783057766E+03 -0.24021486231E+02  0.84820855511E+02  0.19848255259E+03  0.00000000000E+00 0.  1.
         -1    1    1    2    0  502  0.15970433067E+03  0.16295470407E+02  0.16699045146E+03  0.23163943202E+03  0.00000000000E+00 0.  1.
<scales pt_clust_5="13000.00000" pt_clust_6="13000.00000" pt_clust_7="13000.00000" pt_clust_8="13000.00000" pt_clust_9="171.50782"></scales>
<clustering>
<clus scale="   83.654">  5  6 -1 -1</clus>
<clus scale="   90.659">  1  5  2 -1</clus>
<clus scale="   91.941">  7  8 -1 -1</clus>
<clus scale="  171.508">  2  9  1 -1</clus>
<clus scale="  171.508">  2  5  1 -1</clus>
</clustering>
</event>
<event>
 9    1  0.5981539E-005  0.1037352E+03  0.7546771E-02  0.1278267E+00
         21   -1    0    0  501  502  0.00000000000E+00  0.00000000000E+00  0.13920027278E+03  0.13920027278E+03  0.00000000000E+00 0. -1.
          1   -1    0    0  502    0 -0.00000000000E+00 -0.00000000000E+00 -0.12035610654E+03  0.12035610654E+03  0.00000000000E+00 0. -1.
        -24    2    1    2    0    0  0.35233171125E+02 -0.23695324227E+00 -0.16080109609E+02  0.88399466520E+02  0.79463597084E+02 0.  0.
         23    2    1    2    0    0 -0.67110683612E+02 -0.23200886654E+02 -0.34814436185E+01  0.11601611639E+03  0.91681480226E+02 0.  0.
         13    1    3    3    0    0  0.27162336956E+02 -0.31429580891E+01 -0.48057288777E+02  0.55291714922E+02  0.00000000000E+00 0. -1.
        -14    1    3    3    0    0  0.80708341689E+01  0.29060048468E+01  0.31977179168E+02  0.33107751598E+02  0.00000000000E+00 0.  1.
        -13    1    4    4    0    0 -0.34848706983E+02 -0.20037169242E+02 -0.46939162285E+02  0.61799720757E+02  0.00000000000E+00 0.  1.
         13    1    4    4    0    0 -0.32261976628E+02 -0.31637174120E+01  0.43457718667E+02  0.54216395634E+02  0.00000000000E+00 0. -1.
          2    1    1    2  501    0  0.31877512487E+02  0.23437839897E+02  0.38405719463E+02  0.55140796411E+02  0.00000000000E+00 0. -1.
<scales pt_clust_5="13000.00000" pt_clust_6="13000.00000" pt_clust_7="13000.00000" pt_clust_8="13000.00000" pt_clust_9="39.56650"></scales>
<clustering>
<clus scale="   39.567">  1  9  2 -1</clus>
<clus scale="   79.464">  5  6 -1 -1</clus>
<clus scale="   91.681">  7  8 -1 -1</clus>
<clus scale="   93.113">  2  5  1 -1</clus>
<clus scale="   39.567">  1  5  2 -1</clus>
</clustering>
</event>
<event>
 9    1  0.5981539E-005  0.1000363E+03  0.7546771E-02  0.1285848E+00
          1   -1    0    0  502    0 -0.00000000000E+00  0.00000000000E+00  0.42515282301E+03  0.42515282301E+03  0.00000000000E+00 0. -1.
         21   -1    0    0  501  502  0.00000000000E+00 -0.00000000000E+00 -0.62144160246E+02  0.62144160246E+02  0.00000000000E+00 0.  1.
         23    2    1    2    0    0 -0.10281453792E+02  0.57084225879E+02  0.25405964107E+03  0.27629079359E+03  0.91793160250E+02 0.  0.
        -24    2    1    2    0    0  0.47459623100E+02  0.16771895720E+02  0.77080577460E+02  0.12239162704E+03  0.80650992783E+02 0.  0.
         13    1    4    4    0    0  0.94449560493E+01  0.39259745426E+02  0.65135861940E+02  0.76636905707E+02  0.00000000000E+00 0. -1.
        -14    1    4    4    0    0  0.38014667051E+02 -0.22487849706E+02  0.11944715520E+02  0.45754721332E+02  0.00000000000E+00 0.  1.
        -11    1    3    3    0    0 -0.18213278737E+02  0.80623346992E+02  0.17747260932E+03  0.19577633836E+03  0.00000000000E+00 0. -1.
         11    1    3    3    0    0  0.79318249449E+01 -0.23539121113E+02  0.76587031742E+02  0.80514455228E+02  0.00000000000E+00 0.  1.
          2    1    1    2  501    0 -0.37178169308E+02 -0.73856121599E+02  0.31868444234E+02  0.88614562622E+02  0.00000000000E+00 0. -1.
<scales pt_clust_5="13000.00000" pt_clust_6="13000.00000" pt_clust_7="13000.00000" pt_clust_8="13000.00000" pt_clust_9="82.68581"></scales>
<clustering>
<clus scale="   80.651">  5  6 -1 -1</clus>
<clus scale="   82.686">  2  9  1 -1</clus>
<clus scale="   89.921">  2  5  1 -1</clus>
<clus scale="   91.793">  7  8 -1 -1</clus>
<clus scale="   82.686">  2  5  1 -1</clus>
</clustering>
</event>
<event>
 9    1  0.5981539E-005  0.2306233E+03  0.7546771E-02  0.1155311E+00
          1   -1    0    0  502    0 -0.00000000000E+00  0.00000000000E+00  0.25527563179E+03  0.25527563179E+03  0.00000000000E+00 0. -1.
         21   -1    0    0  501  502  0.00000000000E+00 -0.00000000000E+00 -0.52702189507E+03  0.52702189507E+03  0.00000000000E+00 0. -1.
         23    2    1    2    0    0  0.55011944269E+02  0.41587704996E+02 -0.28138325010E+03  0.30374027221E+03  0.91245648166E+02 0.  0.
        -24    2    1    2    0    0 -0.22686269172E+03 -0.72156218914E+02 -0.10170002781E+03  0.27152333406E+03  0.81907413967E+02 0.  0.
         13    1    4    4    0    0 -0.15714496658E+03 -0.88218251551E+02 -0.72886550288E+02  0.19439508646E+03  0.00000000000E+00 0. -1.
        -14    1    4    4    0    0 -0.69717725139E+02  0.16062032638E+02 -0.28813477520E+02  0.77128247600E+02  0.00000000000E+00 0.  1.
        -13    1    3    3    0    0  0.20438676970E+02 -0.16392091740E+02 -0.17860485487E+02  0.31708628631E+02  0.00000000000E+00 0.  1.
         13    1    3    3    0    0  0.34573267300E+02  0.57979796736E+02 -0.26352276461E+03  0.27203164358E+03  0.00000000000E+00 0. -1.
          2    1    1    2  501    0  0.17185074745E+03  0.30568513918E+02  0.11133701463E+03  0.20703392058E+03  0.00000000000E+00 0. -1.
<scales pt_clust_5="13000.00000" pt_clust_6="13000.00000" pt_clust_7="13000.00000" pt_clust_8="13000.00000" pt_clust_9="215.58830"></scales>
<clustering>
<clus scale="   81.907">  5  6 -1 -1</clus>
<clus scale="   91.246">  7  8 -1 -1</clus>
<clus scale="  114.375">  1  7  2 -1</clus>
<clus scale="  215.588">  2  9  1 -1</clus>
<clus scale="  215.588">  2  5  1 -1</clus>
</clustering>
</event>
<event>
 9    1  0.5981539E-005  0.1024037E+03  0.7546771E-02  0.1279860E+00
          1   -1    0    0  502    0 -0.00000000000E+00  0.00000000000E+00  0.44343552685E+03  0.44343552685E+03  0.00000000000E+00 0. -1.
         21   -1    0    0  501  502  0.00000000000E+00 -0.00000000000E+00 -0.46806261481E+02  0.46806261481E+02  0.00000000000E+00 0.  1.
        -24    2    1    2    0    0 -0.38407399595E+02 -0.47316957913E+01  0.22093346621E+03  0.23834280113E+03  0.80611271385E+02 0.  0.
         23    2    1    2    0    0  0.82472803271E+02 -0.21179714948E+02  0.94869162653E+02  0.15626371035E+03  0.90376133717E+02 0.  0.
         13    1    3    3    0    0 -0.54722329677E+02 -0.17962669198E+02  0.98355544706E+02  0.11397808572E+03  0.00000000000E+00 0. -1.
        -14    1    3    3    0    0  0.16314930082E+02  0.13230973407E+02  0.12257792150E+03  0.12436471541E+03  0.00000000000E+00 0.  1.
        -13    1    4    4    0    0  0.82732122886E+02  0.18231639520E+02  0.62875074446E+02  0.10550010343E+03  0.00000000000E+00 0.  1.
         13    1    4    4    0    0 -0.25931961492E+00 -0.39411354468E+02  0.31994088207E+02  0.50763606924E+02  0.00000000000E+00 0. -1.
          2    1    1    2  501    0 -0.44065403676E+02  0.25911410739E+02  0.80826636510E+02  0.95635276845E+02  0.00000000000E+00 0. -1.
<scales pt_clust_5="13000.00000" pt_clust_6="13000.00000" pt_clust_7="13000.00000" pt_clust_8="13000.00000" pt_clust_9="51.11911"></scales>
<clustering>
<clus scale="   51.119">  2  9  1 -1</clus>
<clus scale="   80.611">  5  6 -1 -1</clus>
<clus scale="   90.376">  7  8 -1 -1</clus>
<clus scale="   93.898">  1  5  2 -1</clus>
<clus scale="   51.119">  2  5  1 -1</clus>
</clustering>
</event>
<event>
 9    1  0.5981539E-005  0.1055202E+03  0.7546771E-02  0.1272139E+00
          1   -1    0    0  502    0 -0.00000000000E+00  0.00000000000E+00  0.92885785200E+03  0.92885785200E+03  0.00000000000E+00 0. -1.
         21   -1    0    0  501  502  0.00000000000E+00 -0.00000000000E+00 -0.27288736470E+02  0.27288736470E+02  0.00000000000E+00 0. -1.
        -24    2    1    2    0    0  0.11077539432E+02 -0.57377012821E+02  0.76090754237E+03  0.76757804518E+03  0.82346426306E+02 0.  0.
         23    2    1    2    0    0 -0.16648042588E+02  0.36357934498E+02  0.88617575042E+02  0.13216455496E+03  0.89528421519E+02 0.  0.
         13    1    3    3    0    0  0.38859017755E+02 -0.48029975875E+02  0.33403228457E+03  0.33969761403E+03  0.00000000000E+00 0. -1.
        -14    1    3    3    0    0 -0.27781478323E+02 -0.93470369461E+01  0.42687525781E+03  0.42788043116E+03  0.00000000000E+00 0.  1.
        -13    1    4    4    0    0 -0.34826541399E+02  0.25879280308E+02  0.24273345289E+01  0.43457071783E+02  0.00000000000E+00 0. -1.
         13    1    4    4    0    0  0.18178498811E+02  0.10478654189E+02  0.86190240513E+02  0.88707483181E+02  0.00000000000E+00 0.  1.
          2    1    1    2  501    0  0.55705031554E+01  0.21019078324E+02  0.52043998117E+02  0.56403988325E+02  0.00000000000E+00 0. -1.
<scales pt_clust_5="13000.00000" pt_clust_6="13000.00000" pt_clust_7="13000.00000" pt_clust_8="13000.00000" pt_clust_9="21.74470"></scales>
<clustering>
<clus scale="   21.745">  2  9  1 -1</clus>
<clus scale="   82.346">  5  6 -1 -1</clus>
<clus scale="   89.528">  7  8 -1 -1</clus>
<clus scale="   99.499">  1  5  2 -1</clus>
<clus scale="   21.745">  2  5  1 -1</clus>
</clustering>
</event>
<event>
 9    1  0.5981539E-005  0.2550613E+03  0.7546771E-02  0.1154193E+00
         21   -1    0    0  501  502  0.00000000000E+00  0.00000000000E+00  0.19253997041E+03  0.19253997041E+03  0.00000000000E+00 0. -1.
          1   -1    0    0  502    0 -0.00000000000E+00 -0.00000000000E+00 -0.51672549692E+03  0.51672549692E+03  0.00000000000E+00 0. -1.
        -24    2    1    2    0    0  0.15478874818E+02  0.27068284393E+02 -0.41922164828E+02  0.96392483496E+02  0.81004662737E+02 0.  0.
         23    2    1    2    0    0 -0.15850964056E+03 -0.20690431449E+03 -0.26467516910E+03  0.38242094504E+03  0.90874267889E+02 0.  0.
         13    1    3    3    0    0  0.22538433885E+02  0.30149396382E+02 -0.63312482488E+02  0.73657569489E+02  0.00000000000E+00 0. -1.
        -14    1    3    3    0    0 -0.70595590664E+01 -0.30811119888E+01  0.21390317661E+02  0.22734914007E+02  0.00000000000E+00 0.  1.
        -13    1    4    4    0    0 -0.51259299219E+02 -0.49227802451E+02 -0.13263136395E+03  0.15047249249E+03  0.00000000000E+00 0.  1.
         13    1    4    4    0    0 -0.10725034134E+03 -0.15767651203E+03 -0.13204380515E+03  0.23194845255E+03  0.00000000000E+00 0. -1.
          2    1    1    2  501    0  0.14303076574E+03  0.17983603009E+03 -0.17588192581E+02  0.23045203880E+03  0.00000000000E+00 0. -1.
<scales pt_clust_5="13000.00000" pt_clust_6="13000.00000" pt_clust_7="13000.00000" pt_clust_8="13000.00000" pt_clust_9="238.32364"></scales>
<clustering>
<clus scale="   81.005">  5  6 -1 -1</clus>
<clus scale="   86.799">  2  5  1 -1</clus>
<clus scale="   90.874">  7  8 -1 -1</clus>
<clus scale="  238.324">  1  9  2 -1</clus>
<clus scale="  238.324">  1  5  2 -1</clus>
</clustering>
</event>
<event>
 9    1  0.6385094E-005  0.9293139E+02  0.7546771E-02  0.1303086E+00
         21   -1    0    0  501  502  0.00000000000E+00  0.00000000000E+00  0.36655208616E+03  0.36655208616E+03  0.00000000000E+00 0. -1.
          1   -1    0    0  502    0 -0.00000000000E+00 -0.00000000000E+00 -0.91496400067E+02  0.91496400067E+02  0.00000000000E+00 0. -1.
         23    2    1    2    0    0 -0.19382702856E+02  0.13964266960E+02 -0.42710099164E+02  0.10411760779E+03  0.91900129272E+02 0.  0.
        -24    2    1    2    0    0 -0.33868137113E+02  0.19845129730E+02  0.14840180175E+03  0.17320211434E+03  0.80218437803E+02 0.  0.
         11    1    4    4    0    0 -0.50114143366E+02  0.38593152259E+02  0.92675579521E+02  0.11220348393E+03  0.00000000000E+00 0. -1.
        -12    1    4    4    0    0  0.16246006253E+02 -0.18748022529E+02  0.55726222231E+02  0.60998630411E+02  0.00000000000E+00 0.  1.
        -13    1    3    3    0    0  0.30808405625E+02  0.17216931907E+02  0.39470615979E+01  0.35512813134E+02  0.00000000000E+00 0.  1.
         13    1    3    3    0    0 -0.50191108481E+02 -0.32526649474E+01 -0.46657160762E+02  0.68604794659E+02  0.00000000000E+00 0. -1.
          2    1    1    2  501    0  0.53250839969E+02 -0.33809396690E+02  0.16936398351E+03  0.18072876410E+03  0.00000000000E+00 0. -1.
<scales pt_clust_5="13000.00000" pt_clust_6="13000.00000" pt_clust_7="13000.00000" pt_clust_8="13000.00000" pt_clust_9="63.07715"></scales>
<clustering>
<clus scale="   63.077">  1  9  2 -1</clus>
<clus scale="   80.218">  5  6 -1 -1</clus>
<clus scale="   81.398">  1  5  2 -1</clus>
<clus scale="   91.900">  7  8 -1 -1</clus>
<clus scale="   63.077">  1  5  2 -1</clus>
</clustering>
</event>
<event>
 9    1  0.5981539E-005  0.1656244E+03  0.7546771E-02  0.1197220E+00
         21   -1    0    0  501  502  0.00000000000E+00  0.00000000000E+00  0.15032914103E+03  0.15032914103E+03  0.00000000000E+00 0.  1.
          1   -1    0    0  502    0 -0.00000000000E+00 -0.00000000000E+00 -0.45842644080E+03  0.45842644080E+03  0.00000000000E+00 0. -1.
        -24    2    1    2    0    0  0.38341416501E+02 -0.79365971942E+02 -0.13475142199E+03  0.18017364136E+03  0.80842894505E+02 0.  0.
         23    2    1    2    0    0  0.62058216676E+02 -0.98327660905E+02  0.15315517204E+02  0.15064627264E+03  0.94552542200E+02 0.  0.
         11    1    3    3    0    0 -0.16160036522E+02 -0.54306429962E+02 -0.85443215535E+02  0.10252257408E+03  0.00000000000E+00 0. -1.
        -12    1    3    3    0    0  0.54501453023E+02 -0.25059541979E+02 -0.49308206456E+02  0.77651067280E+02  0.00000000000E+00 0.  1.
        -13    1    4    4    0    0  0.26463980984E+02 -0.61154170938E+02  0.54400433638E+02  0.86020823599E+02  0.00000000000E+00 0.  1.
         13    1    4    4    0    0  0.35594235692E+02 -0.37173489968E+02 -0.39084916434E+02  0.64625449039E+02  0.00000000000E+00 0. -1.
          2    1    1    2  501    0 -0.10039963318E+03  0.17769363285E+03 -0.18866139499E+03  0.27793566783E+03  0.00000000000E+00 0. -1.
<scales pt_clust_5="13000.00000" pt_clust_6="13000.00000" pt_clust_7="13000.00000" pt_clust_8="13000.00000" pt_clust_9="135.98259"></scales>
<clustering>
<clus scale="   80.843">  5  6 -1 -1</clus>
<clus scale="   94.553">  7  8 -1 -1</clus>
<clus scale="  119.602">  2  5  1 -1</clus>
<clus scale="  135.983">  1  9  2 -1</clus>
<clus scale="  135.983">  1  5  2 -1</clus>
</clustering>
</event>
<event>
 9    1  0.5981539E-005  0.1134279E+03  0.7546771E-02  0.1258345E+00
         21   -1    0    0  501  502  0.00000000000E+00  0.00000000000E+00  0.42911134920E+03  0.42911134920E+03  0.00000000000E+00 0.  1.
         -4   -1    0    0    0  501 -0.00000000000E+00 -0.00000000000E+00 -0.38354894031E+02  0.38354894031E+02  0.00000000000E+00 0.  1.
         23    2    1    2    0    0 -0.70050372934E+02 -0.12710979502E+02  0.12700903534E+03  0.17205898863E+03  0.91675387978E+02 0.  0.
        -24    2    1    2    0    0  0.62687539106E+02 -0.96283757642E+01  0.16876760865E+03  0.19755827583E+03  0.80773346106E+02 0.  0.
         11    1    4    4    0    0  0.57461233658E+02 -0.98353517757E+01  0.17780415156E+03  0.18711719277E+03  0.00000000000E+00 0. -1.
        -12    1    4    4    0    0  0.52263054483E+01  0.20697601142E+00 -0.90365429113E+01  0.10441083061E+02  0.00000000000E+00 0.  1.
        -11    1    3    3    0    0 -0.13029627748E+02  0.34397370557E+02  0.68503029937E+02  0.77753555616E+02  0.00000000000E+00 0. -1.
         11    1    3    3    0    0 -0.57020745186E+02 -0.47108350060E+02  0.58506005408E+02  0.94305433013E+02  0.00000000000E+00 0.  1.
         -3    1    1    2    0  502  0.73628338276E+01  0.22339355266E+02  0.94979811182E+02  0.97848978778E+02  0.00000000000E+00 0.  1.
<scales pt_clust_5="13000.00000" pt_clust_6="13000.00000" pt_clust_7="13000.00000" pt_clust_8="13000.00000" pt_clust_9="23.52144"></scales>
<clustering>
<clus scale="   23.521">  1  9  2 -1</clus>
<clus scale="   80.773">  5  6 -1 -1</clus>
<clus scale="   91.675">  7  8 -1 -1</clus>
<clus scale="  104.813">  1  5  2 -1</clus>
<clus scale="   23.521">  1  5  2 -1</clus>
</clustering>
</event>
<event>
 9    1  0.5981539E-005  0.2661904E+03  0.7546771E-02  0.1138761E+00
         21   -1    0    0  501  502  0.00000000000E+00  0.00000000000E+00  0.49950427527E+03  0.49950427527E+03  0.00000000000E+00 0. -1.
          1   -1    0    0  502    0 -0.00000000000E+00 -0.00000000000E+00 -0.34221858099E+03  0.34221858099E+03  0.00000000000E+00 0. -1.
         23    2    1    2    0    0 -0.44146989350E+02 -0.38400344608E+02  0.53746028606E+01  0.11045606743E+03  0.93531349513E+02 0.  0.
        -24    2    1    2    0    0 -0.14462643072E+03  0.20885256394E+03 -0.17351767168E+03  0.31823743994E+03  0.81427807681E+02 0.  0.
         13    1    4    4    0    0 -0.15095731535E+03  0.16979524280E+03 -0.14698053570E+03  0.27059529451E+03  0.00000000000E+00 0. -1.
        -14    1    4    4    0    0  0.63308846310E+01  0.39057321140E+02 -0.26537135977E+02  0.47642145425E+02  0.00000000000E+00 0.  1.
        -11    1    3    3    0    0 -0.73255761096E+02 -0.29694865754E+02  0.10170865264E+02  0.79697164856E+02  0.00000000000E+00 0. -1.
         11    1    3    3    0    0  0.29108771745E+02 -0.87054788540E+01 -0.47962624031E+01  0.30758902575E+02  0.00000000000E+00 0.  1.
          2    1    1    2  501    0  0.18877342007E+03 -0.17045221933E+03  0.32542876310E+03  0.41302934890E+03  0.00000000000E+00 0. -1.
<scales pt_clust_5="13000.00000" pt_clust_6="13000.00000" pt_clust_7="13000.00000" pt_clust_8="13000.00000" pt_clust_9="253.43012"></scales>
<clustering>
<clus scale="   81.428">  5  6 -1 -1</clus>
<clus scale="   93.531">  7  8 -1 -1</clus>
<clus scale="  110.325">  2  7  1 -1</clus>
<clus scale="  253.430">  1  9  2 -1</clus>
<clus scale="  253.430">  1  5  2 -1</clus>
</clustering>
</event>
<event>
 9    1  0.5981539E-005  0.9799029E+02  0.7546771E-02  0.1289439E+00
         -4   -1    0    0    0  501 -0.00000000000E+00  0.00000000000E+00  0.16425711742E+03  0.16425711742E+03  0.00000000000E+00 0.  1.
         21   -1    0    0  501  502  0.00000000000E+00 -0.00000000000E+00 -0.24703308094E+03  0.24703308094E+03  0.00000000000E+00 0. -1.
        -24    2    1    2    0    0 -0.33054212043E+02  0.19108784701E+02  0.12248366122E+03  0.15257392165E+03  0.82576193398E+02 0.  0.
         23    2    1    2    0    0  0.10320363489E+02  0.34039602893E+02 -0.14460593386E+03  0.17492815589E+03  0.91781148094E+02 0.  0.
         13    1    3    3    0    0  0.24829837921E+02  0.26837368035E+01  0.14287064137E+02  0.28772269567E+02  0.00000000000E+00 0. -1.
        -14    1    3    3    0    0 -0.57884049964E+02  0.16425047898E+02  0.10819659708E+03  0.12380165208E+03  0.00000000000E+00 0.  1.
        -13    1    4    4    0    0 -0.31159223894E+02 -0.81553039485E+01 -0.22646467136E+02  0.39373451588E+02  0.00000000000E+00 0.  1.
         13    1    4    4    0    0  0.41479587384E+02  0.42194906841E+02 -0.12195946673E+03  0.13555470430E+03  0.00000000000E+00 0. -1.
         -3    1    1    2    0  502  0.22733848554E+02 -0.53148387594E+02 -0.60653690880E+02  0.83788120824E+02  0.00000000000E+00 0.  1.
<scales pt_clust_5="13000.00000" pt_clust_6="13000.00000" pt_clust_7="13000.00000" pt_clust_8="13000.00000" pt_clust_9="57.80639"></scales>
<clustering>
<clus scale="   57.806">  2  9  1 -1</clus>
<clus scale="   82.576">  5  6 -1 -1</clus>
<clus scale="   89.427">  1  5  2 -1</clus>
<clus scale="   91.781">  7  8 -1 -1</clus>
<clus scale="   57.806">  2  5  1 -1</clus>
</clustering>
</event>
<event>
 9    1  0.5981539E-005  0.1834005E+03  0.7546771E-02  0.1197398E+00
         21   -1    0    0  501  502  0.00000000000E+00  0.00000000000E+00  0.20800345056E+03  0.20800345056E+03  0.00000000000E+00 0. -1.
          1   -1    0    0  502    0 -0.00000000000E+00 -0.00000000000E+00 -0.32420695542E+03  0.32420695542E+03  0.00000000000E+00 0. -1.
         23    2    1    2    0    0 -0.13236701343E+02  0.14239671499E+01 -0.15429679250E+03  0.17750095666E+03  0.86728608278E+02 0.  0.
        -24    2    1    2    0    0  0.66155544561E+02  0.15433290897E+03 -0.21736337864E+01  0.18535174093E+03  0.78455976927E+02 0.  0.
         11    1    4    4    0    0  0.33552444867E+02  0.14184084716E+03 -0.18287956301E+02  0.14689806610E+03  0.00000000000E+00 0. -1.
        -12    1    4    4    0    0  0.32603099695E+02  0.12492061816E+02  0.16114322515E+02  0.38453674834E+02  0.00000000000E+00 0.  1.
        -11    1    3    3    0    0 -0.35346140913E+02 -0.49295084983E+01 -0.19328405245E+02  0.40586167358E+02  0.00000000000E+00 0.  1.
         11    1    3    3    0    0  0.22109439571E+02  0.63534756482E+01 -0.13496838725E+03  0.13691478930E+03  0.00000000000E+00 0. -1.
          2    1    1    2  501    0 -0.52918843219E+02 -0.15575687612E+03  0.40266921426E+02  0.16935770838E+03  0.00000000000E+00 0. -1.
<scales pt_clust_5="13000.00000" pt_clust_6="13000.00000" pt_clust_7="13000.00000" pt_clust_8="13000.00000" pt_clust_9="165.77215"></scales>
<clustering>
<clus scale="   78.456">  5  6 -1 -1</clus>
<clus scale="   86.729">  7  8 -1 -1</clus>
<clus scale="   87.744">  2  7  1 -1</clus>
<clus scale="  165.772">  1  9  2 -1</clus>
<clus scale="  165.772">  1  5  2 -1</clus>
</clustering>
</event>
<event>
 9    1  0.5981539E-005  0.9892709E+02  0.7546771E-02  0.1288371E+00
          3   -1    0    0  502    0 -0.00000000000E+00  0.00000000000E+00  0.78438379158E+02  0.78438379158E+02  0.00000000000E+00 0. -1.
         21   -1    0    0  501  502  0.00000000000E+00 -0.00000000000E+00 -0.22433281498E+03  0.22433281498E+03  0.00000000000E+00 0. -1.
        -24    2    1    2    0    0 -0.28478142187E+02 -0.34654954555E+02 -0.42702111641E+02  0.10093200150E+03  0.79698357140E+02 0.  0.
         23    2    1    2    0    0 -0.32860125546E+02  0.44764584664E+02 -0.87046319688E+02  0.13761084087E+03  0.90972665470E+02 0.  0.
         13    1    3    3    0    0 -0.13289331058E+02 -0.26118534576E+02  0.20245026567E+02  0.35618046957E+02  0.00000000000E+00 0. -1.
        -14    1    3    3    0    0 -0.15188811130E+02 -0.85364199790E+01 -0.62947138207E+02  0.65313954543E+02  0.00000000000E+00 0.  1.
        -13    1    4    4    0    0  0.31523384284E+02  0.11826881932E+02 -0.34583712152E+02  0.48266261915E+02  0.00000000000E+00 0.  1.
         13    1    4    4    0    0 -0.64383509830E+02  0.32937702732E+02 -0.52462607535E+02  0.89344578956E+02  0.00000000000E+00 0. -1.
          4    1    1    2  501    0  0.61338267733E+02 -0.10109630109E+02 -0.16146004493E+02  0.64228351766E+02  0.00000000000E+00 0. -1.
<scales pt_clust_5="13000.00000" pt_clust_6="13000.00000" pt_clust_7="13000.00000" pt_clust_8="13000.00000" pt_clust_9="62.16584"></scales>
<clustering>
<clus scale="   62.166">  2  9  1 -1</clus>
<clus scale="   79.698">  5  6 -1 -1</clus>
<clus scale="   88.670">  1  5  2 -1</clus>
<clus scale="   90.973">  7  8 -1 -1</clus>
<clus scale="   62.166">  2  5  1 -1</clus>
</clustering>
</event>
<event>
 9    1  0.5981539E-005  0.2946012E+03  0.7546771E-02  0.1112843E+00
          1   -1    0    0  502    0 -0.00000000000E+00  0.00000000000E+00  0.20021768243E+03  0.20021768243E+03  0.00000000000E+00 0. -1.
         21   -1    0    0  501  502  0.00000000000E+00 -0.00000000000E+00 -0.69702305050E+03  0.69702305050E+03  0.00000000000E+00 0. -1.
        -24    2    1    2    0    0  0.27280908111E+02  0.12910356075E+03 -0.71497344871E+02  0.17030714284E+03  0.80502641157E+02 0.  0.
         23    2    1    2    0    0  0.22553091353E+03  0.78085552302E+02 -0.13194041376E+03  0.28772327601E+03  0.91732569671E+02 0.  0.
         13    1    3    3    0    0  0.18996680748E+02  0.77760536099E+02  0.22350674905E+01  0.80078526338E+02  0.00000000000E+00 0. -1.
        -14    1    3    3    0    0  0.82842273627E+01  0.51343024653E+02 -0.73732412361E+02  0.90228616503E+02  0.00000000000E+00 0.  1.
        -13    1    4    4    0    0  0.23128876630E+02 -0.32378327954E+01  0.12124460420E+02  0.26314084363E+02  0.00000000000E+00 0.  1.
         13    1    4    4    0    0  0.20240203690E+03  0.81323385098E+02 -0.14406487418E+03  0.26140919165E+03  0.00000000000E+00 0. -1.
          2    1    1    2  501    0 -0.25281182164E+03 -0.20718911305E+03 -0.29336760945E+03  0.43921031409E+03  0.00000000000E+00 0. -1.
<scales pt_clust_5="13000.00000" pt_clust_6="13000.00000" pt_clust_7="13000.00000" pt_clust_8="13000.00000" pt_clust_9="279.95531"></scales>
<clustering>
<clus scale="   80.503">  5  6 -1 -1</clus>
<clus scale="   91.733">  7  8 -1 -1</clus>
<clus scale="  154.572">  1  5  2 -1</clus>
<clus scale="  279.955">  2  9  1 -1</clus>
<clus scale="  279.955">  2  5  1 -1</clus>
</clustering>
</event>
<event>
 9    1  0.5981539E-005  0.1357635E+03  0.7546771E-02  0.1221658E+00
         -2   -1    0    0    0  501 -0.00000000000E+00  0.00000000000E+00  0.79450547795E+02  0.79450547795E+02  0.00000000000E+00 0.  1.
         21   -1    0    0  501  502  0.00000000000E+00 -0.00000000000E+00 -0.43427743034E+03  0.43427743034E+03  0.00000000000E+00 0. -1.
        -24    2    1    2    0    0  0.73367824932E+02  0.54883514935E+02 -0.37044367099E+02  0.12677953560E+03  0.79408611416E+02 0.  0.
         23    2    1    2    0    0 -0.96337880465E+02 -0.99296356431E+02 -0.27657193275E+03  0.32215310267E+03  0.90276430842E+02 0.  0.
         13    1    3    3    0    0  0.53782336921E+02 -0.87390524157E+01 -0.13149125550E+02  0.56051853712E+02  0.00000000000E+00 0. -1.
        -14    1    3    3    0    0  0.19585488010E+02  0.63622567351E+02 -0.23895241548E+02  0.70727681890E+02  0.00000000000E+00 0.  1.
        -11    1    4    4    0    0 -0.95957471782E+02 -0.38951553425E+02 -0.15478230107E+03  0.18623270558E+03  0.00000000000E+00 0. -1.
         11    1    4    4    0    0 -0.38040868327E+00 -0.60344803005E+02 -0.12178963168E+03  0.13592039709E+03  0.00000000000E+00 0.  1.
         -1    1    1    2    0  502  0.22970055534E+02  0.44412841496E+02 -0.41210582698E+02  0.64795339858E+02  0.00000000000E+00 0.  1.
<scales pt_clust_5="13000.00000" pt_clust_6="13000.00000" pt_clust_7="13000.00000" pt_clust_8="13000.00000" pt_clust_9="50.00126"></scales>
<clustering>
<clus scale="   50.001">  2  9  1 -1</clus>
<clus scale="   79.409">  5  6 -1 -1</clus>
<clus scale="   90.276">  7  8 -1 -1</clus>
<clus scale="  128.793">  1  5  2 -1</clus>
<clus scale="   50.001">  2  5  1 -1</clus>
</clustering>
</event>
<event>
 9    1  0.5981539E-005  0.1243034E+03  0.7546771E-02  0.1242196E+00
         -2   -1    0    0    0  501 -0.00000000000E+00  0.00000000000E+00  0.25473516027E+03  0.25473516027E+03  0.00000000000E+00 0.  1.
         21   -1    0    0  501  502  0.00000000000E+00 -0.00000000000E+00 -0.26167013076E+03  0.26167013076E+03  0.00000000000E+00 0. -1.
         23    2    1    2    0    0  0.33821564697E+02 -0.68185678277E+02  0.22142204102E+03  0.25403592242E+03  0.98556302012E+02 0.  0.
        -24    2    1    2    0    0 -0.49310438371E+02  0.54864327694E+02 -0.18704577142E+03  0.21628268783E+03  0.79689815291E+02 0.  0.
         13    1    4    4    0    0  0.39892577655E+01  0.53846075585E+02 -0.11071301512E+03  0.12317745634E+03  0.00000000000E+00 0. -1.
        -14    1    4    4    0    0 -0.53299696136E+02  0.10182521082E+01 -0.76332756306E+02  0.93105231490E+02  0.00000000000E+00 0.  1.
        -11    1    3    3    0    0  0.49234451524E+02 -0.54662727007E+02  0.22164029447E+03  0.23353043715E+03  0.00000000000E+00 0.  1.
         11    1    3    3    0    0 -0.15412886827E+02 -0.13522951270E+02 -0.21825345170E+00  0.20505485266E+02  0.00000000000E+00 0. -1.
         -1    1    1    2    0  502  0.15488873674E+02  0.13321350584E+02 -0.41311240081E+02  0.46086680788E+02  0.00000000000E+00 0.  1.
<scales pt_clust_5="13000.00000" pt_clust_6="13000.00000" pt_clust_7="13000.00000" pt_clust_8="13000.00000" pt_clust_9="20.42948"></scales>
<clustering>
<clus scale="   20.429">  2  9  1 -1</clus>
<clus scale="   79.690">  5  6 -1 -1</clus>
<clus scale="   98.556">  7  8 -1 -1</clus>
<clus scale="  109.948">  2  5  1 -1</clus>
<clus scale="   20.429">  2  5  1 -1</clus>
</clustering>
</event>
<event>
 9    1  0.5981539E-005  0.9424334E+02  0.7546771E-02  0.1298797E+00
         21   -1    0    0  501  502  0.00000000000E+00  0.00000000000E+00  0.30101882884E+02  0.30101882884E+02  0.00000000000E+00 0. -1.
          1   -1    0    0  502    0 -0.00000000000E+00 -0.00000000000E+00 -0.41011842537E+03  0.41011842537E+03  0.00000000000E+00 0. -1.
         23    2    1    2    0    0 -0.16705111548E+02 -0.86121233496E+01 -0.19392809767E+03  0.21453282698E+03  0.89794194495E+02 0.  0.
        -24    2    1    2    0    0  0.41391123073E+02 -0.66026982766E+01 -0.17060722367E+03  0.19281563663E+03  0.79462093273E+02 0.  0.
         13    1    4    4    0    0  0.14009432138E+02 -0.24816390925E+02 -0.15276670552E+03  0.15540200695E+03  0.00000000000E+00 0. -1.
        -14    1    4    4    0    0  0.27381690935E+02  0.18213692648E+02 -0.17840518149E+02  0.37413629685E+02  0.00000000000E+00 0.  1.
        -11    1    3    3    0    0 -0.40447142638E+02  0.17546431298E+01 -0.18120122807E+03  0.18566888586E+03  0.00000000000E+00 0. -1.
         11    1    3    3    0    0  0.23742031090E+02 -0.10366766479E+02 -0.12726869603E+02  0.28863941127E+02  0.00000000000E+00 0.  1.
          2    1    1    2  501    0 -0.24686011525E+02  0.15214821626E+02 -0.15481221145E+02  0.32871844643E+02  0.00000000000E+00 0. -1.
<scales pt_clust_5="13000.00000" pt_clust_6="13000.00000" pt_clust_7="13000.00000" pt_clust_8="13000.00000" pt_clust_9="28.99810"></scales>
<clustering>
<clus scale="   28.998">  1  9  2 -1</clus>
<clus scale="   79.462">  5  6 -1 -1</clus>
<clus scale="   84.457">  1  5  2 -1</clus>
<clus scale="   89.794">  7  8 -1 -1</clus>
<clus scale="   28.998">  1  5  2 -1</clus>
</clustering>
</event>
<event>
 9    1  0.5981539E-005  0.1188667E+03  0.7546771E-02  0.1248317E+00
         21   -1    0    0  501  502  0.00000000000E+00  0.00000000000E+00  0.27429015996E+03  0.27429015996E+03  0.00000000000E+00 0. -1.
          1   -1    0    0  502    0 -0.00000000000E+00 -0.00000000000E+00 -0.17745524835E+03  0.17745524835E+03  0.00000000000E+00 0. -1.
         23    2    1    2    0    0 -0.53927735899E+02 -0.66107740843E+02 -0.82829903175E+02  0.15016051910E+03  0.91700351894E+02 0.  0.
        -24    2    1    2    0    0 -0.21103114220E+02  0.78343525856E+02  0.96848573620E+01  0.11537928019E+03  0.81458777073E+02 0.  0.
         13    1    4    4    0    0 -0.46119469616E+02  0.65567266277E+02 -0.10417987090E+02  0.80836911988E+02  0.00000000000E+00 0. -1.
        -14    1    4    4    0    0  0.25016355396E+02  0.12776259579E+02  0.20102844452E+02  0.34542368205E+02  0.00000000000E+00 0.  1.
        -13    1    3    3    0    0 -0.23298742829E+02 -0.37362449514E+02 -0.96431161758E+02  0.10600826859E+03  0.00000000000E+00 0. -1.
         13    1    3    3    0    0 -0.30628993070E+02 -0.28745291329E+02  0.13601258583E+02  0.44152250510E+02  0.00000000000E+00 0.  1.
          2    1    1    2  501    0  0.75030850119E+02 -0.12235785013E+02  0.16997995743E+03  0.18620560902E+03  0.00000000000E+00 0. -1.
<scales pt_clust_5="13000.00000" pt_clust_6="13000.00000" pt_clust_7="13000.00000" pt_clust_8="13000.00000" pt_clust_9="76.02199"></scales>
<clustering>
<clus scale="   76.022">  1  9  2 -1</clus>
<clus scale="   81.459">  5  6 -1 -1</clus>
<clus scale="   91.700">  7  8 -1 -1</clus>
<clus scale="  111.157">  1  5  2 -1</clus>
<clus scale="   76.022">  1  5  2 -1</clus>
</clustering>
</event>
<event>
 9    1  0.5981539E-005  0.9862538E+02  0.7546771E-02  0.1288179E+00
         21   -1    0    0  501  502  0.00000000000E+00  0.00000000000E+00  0.65503280885E+02  0.65503280885E+02  0.00000000000E+00 0. -1.
          1   -1    0    0  502    0 -0.00000000000E+00 -0.00000000000E+00 -0.45062351156E+03  0.45062351156E+03  0.00000000000E+00 0. -1.
        -24    2    1    2    0    0 -0.23877013080E+02  0.28716508727E+02 -0.30201295631E+03  0.31553966895E+03  0.83418866428E+02 0.  0.
         23    2    1    2    0    0  0.29772214048E+02  0.24793005200E+02  0.11394072618E+01  0.10060950180E+03  0.92843393769E+02 0.  0.
         13    1    3    3    0    0 -0.47653435029E+02 -0.63353140912E+01 -0.13747911784E+03  0.14564166271E+03  0.00000000000E+00 0. -1.
        -14    1    3    3    0    0  0.23776421949E+02  0.35051822818E+02 -0.16453383847E+03  0.16989800624E+03  0.00000000000E+00 0.  1.
        -11    1    4    4    0    0 -0.18277463420E+02 -0.25113855013E+02 -0.30157297173E+01  0.31206826311E+02  0.00000000000E+00 0.  1.
         11    1    4    4    0    0  0.48049677467E+02  0.49906860213E+02  0.41551369791E+01  0.69402675484E+02  0.00000000000E+00 0. -1.
          2    1    1    2  501    0 -0.58952009680E+01 -0.53509513927E+02 -0.84246681626E+02  0.99977621697E+02  0.00000000000E+00 0. -1.
<scales pt_clust_5="13000.00000" pt_clust_6="13000.00000" pt_clust_7="13000.00000" pt_clust_8="13000.00000" pt_clust_9="53.83330"></scales>
<clustering>
<clus scale="   53.833">  1  9  2 -1</clus>
<clus scale="   83.419">  5  6 -1 -1</clus>
<clus scale="   89.810">  2  5  1 -1</clus>
<clus scale="   92.843">  7  8 -1 -1</clus>
<clus scale="   53.833">  1  5  2 -1</clus>
</clustering>
</event>
<event>
 9    1  0.5981539E-005  0.1315387E+03  0.7546771E-02  0.1227280E+00
          3   -1    0    0  502    0 -0.00000000000E+00  0.00000000000E+00  0.94209693612E+02  0.94209693612E+02  0.00000000000E+00 0. -1.
         21   -1    0    0  501  502  0.00000000000E+00 -0.00000000000E+00 -0.79029862323E+03  0.79029862323E+03  0.00000000000E+00 0. -1.
        -24    2    1    2    0    0  0.28384817277E+02 -0.98897022371E+02  0.29137860193E+02  0.13384349990E+03  0.80490674514E+02 0.  0.
         23    2    1    2    0    0 -0.66012540692E+02  0.34105136568E+02 -0.37482597316E+03  0.39234294160E+03  0.88981221627E+02 0.  0.
         13    1    3    3    0    0 -0.89869010431E+01 -0.47922534391E+02  0.47452397815E+02  0.68037223277E+02  0.00000000000E+00 0. -1.
        -14    1    3    3    0    0  0.37371718321E+02 -0.50974487979E+02 -0.18314537621E+02  0.65806276625E+02  0.00000000000E+00 0.  1.
        -13    1    4    4    0    0 -0.29285214846E+02  0.59881265431E+02 -0.27385815820E+03  0.28185400578E+03  0.00000000000E+00 0.  1.
         13    1    4    4    0    0 -0.36727325846E+02 -0.25776128863E+02 -0.10096781495E+03  0.11048893582E+03  0.00000000000E+00 0. -1.
          4    1    1    2  501    0  0.37627723414E+02  0.64791885802E+02 -0.35040081665E+03  0.35832187534E+03  0.00000000000E+00 0. -1.
<scales pt_clust_5="13000.00000" pt_clust_6="13000.00000" pt_clust_7="13000.00000" pt_clust_8="13000.00000" pt_clust_9="74.92552"></scales>
<clustering>
<clus scale="   74.926">  2  9  1 -1</clus>
<clus scale="   80.491">  5  6 -1 -1</clus>
<clus scale="   88.981">  7  8 -1 -1</clus>
<clus scale="  125.950">  1  5  2 -1</clus>
<clus scale="   74.926">  2  5  1 -1</clus>
</clustering>
</event>
<event>
 9    1  0.5981539E-005  0.4293635E+03  0.7546771E-02  0.1034061E+00
          1   -1    0    0  502    0 -0.00000000000E+00  0.00000000000E+00  0.37635259186E+03  0.37635259186E+03  0.00000000000E+00 0. -1.
         21   -1    0    0  501  502  0.00000000000E+00 -0.00000000000E+00 -0.46884134059E+03  0.46884134059E+03  0.00000000000E+00 0. -1.
        -24    2    1    2    0    0 -0.95958478552E+00 -0.74628561196E+02  0.26021487799E+02  0.11303840579E+03  0.80809779156E+02 0.  0.
         23    2    1    2    0    0  0.69920220074E+02 -0.29580290434E+03  0.43660828785E+02  0.32194278392E+03  0.96709320924E+02 0.  0.
         13    1    3    3    0    0  0.25955826038E+02 -0.10363985592E+02 -0.15472081169E+02  0.31945303229E+02  0.00000000000E+00 0. -1.
        -14    1    3    3    0    0 -0.26915410824E+02 -0.64264575604E+02  0.41493568968E+02  0.81093102561E+02  0.00000000000E+00 0.  1.
        -11    1    4    4    0    0  0.37458469970E+02 -0.10446798869E+03 -0.29017012459E+02  0.11471131001E+03  0.00000000000E+00 0. -1.
         11    1    4    4    0    0  0.32461750103E+02 -0.19133491566E+03  0.72677841244E+02  0.20723147391E+03  0.00000000000E+00 0.  1.
          2    1    1    2  501    0 -0.68960635288E+02  0.37043146554E+03 -0.16217106531E+03  0.41021274274E+03  0.00000000000E+00 0. -1.
<scales pt_clust_5="13000.00000" pt_clust_6="13000.00000" pt_clust_7="13000.00000" pt_clust_8="13000.00000" pt_clust_9="376.79575"></scales>
<clustering>
<clus scale="   80.810">  5  6 -1 -1</clus>
<clus scale="   96.709">  7  8 -1 -1</clus>
<clus scale="  100.019">  5  7 -1 -1</clus>
<clus scale="  376.796">  2  9  1 -1</clus>
<clus scale="  376.796">  2  5  1 -1</clus>
</clustering>
</event>
<event>
 9    1  0.5981539E-005  0.1011618E+03  0.7546771E-02  0.1283604E+00
         21   -1    0    0  501  502  0.00000000000E+00  0.00000000000E+00  0.88714249381E+02  0.88714249381E+02  0.00000000000E+00 0.  1.
         -2   -1    0    0    0  501 -0.00000000000E+00 -0.00000000000E+00 -0.40045283646E+03  0.40045283646E+03  0.00000000000E+00 0.  1.
         23    2    1    2    0    0 -0.24618725417E+02 -0.34285386105E+02 -0.33467901086E+03  0.34953441970E+03  0.91557090949E+02 0.  0.
        -24    2    1    2    0    0  0.45925725332E+02  0.24414388557E+02 -0.13520971275E+02  0.96263804410E+02  0.79866568472E+02 0.  0.
         13    1    4    4    0    0 -0.20312884419E+02  0.20599644745E+02 -0.29798916445E+01  0.29083300900E+02  0.00000000000E+00 0. -1.
        -14    1    4    4    0    0  0.66238609751E+02  0.38147438113E+01 -0.10541079630E+02  0.67180503510E+02  0.00000000000E+00 0.  1.
        -13    1    3    3    0    0 -0.34640289232E+02 -0.61889744245E+02 -0.25220524060E+03  0.26198811703E+03  0.00000000000E+00 0.  1.
         13    1    3    3    0    0  0.10021563815E+02  0.27604358140E+02 -0.82473770264E+02  0.87546302670E+02  0.00000000000E+00 0. -1.
         -1    1    1    2    0  502 -0.21306999915E+02  0.98709975487E+01  0.36461395058E+02  0.43368861728E+02  0.00000000000E+00 0.  1.
<scales pt_clust_5="13000.00000" pt_clust_6="13000.00000" pt_clust_7="13000.00000" pt_clust_8="13000.00000" pt_clust_9="23.48244"></scales>
<clustering>
<clus scale="   23.482">  1  9  2 -1</clus>
<clus scale="   79.867">  5  6 -1 -1</clus>
<clus scale="   90.718">  1  5  2 -1</clus>
<clus scale="   91.557">  7  8 -1 -1</clus>
<clus scale="   23.482">  1  5  2 -1</clus>
</clustering>
</event>
<event>
 9    1  0.5981539E-005  0.1412479E+03  0.7546771E-02  0.1212636E+00
          1   -1    0    0  502    0 -0.00000000000E+00  0.00000000000E+00  0.12232433179E+04  0.12232433179E+04  0.00000000000E+00 0. -1.
         21   -1    0    0  501  502  0.00000000000E+00 -0.00000000000E+00 -0.53307381509E+02  0.53307381509E+02  0.00000000000E+00 0. -1.
         23    2    1    2    0    0  0.71008614759E+02 -0.61380239975E+02  0.47684014083E+03  0.49354690428E+03  0.86036443390E+02 0.  0.
        -24    2    1    2    0    0 -0.17972120943E+03  0.85536993622E+02  0.26796195215E+03  0.34352596656E+03  0.81179994485E+02 0.  0.
         13    1    4    4    0    0 -0.11000396550E+03  0.12026083454E+02  0.11123007850E+03  0.15690006205E+03  0.00000000000E+00 0. -1.
        -14    1    4    4    0    0 -0.69717243925E+02  0.73510910168E+02  0.15673187365E+03  0.18662590451E+03  0.00000000000E+00 0.  1.
        -13    1    3    3    0    0  0.89290983566E+02 -0.36977472194E+02  0.35059180404E+03  0.36366856649E+03  0.00000000000E+00 0.  1.
         13    1    3    3    0    0 -0.18282368806E+02 -0.24402767781E+02  0.12624833679E+03  0.12987833779E+03  0.00000000000E+00 0. -1.
          2    1    1    2  501    0  0.10871259467E+03 -0.24156753647E+02  0.42513384338E+03  0.43947782853E+03  0.00000000000E+00 0. -1.
<scales pt_clust_5="13000.00000" pt_clust_6="13000.00000" pt_clust_7="13000.00000" pt_clust_8="13000.00000" pt_clust_9="111.36422"></scales>
<clustering>
<clus scale="   81.180">  5  6 -1 -1</clus>
<clus scale="   86.036">  7  8 -1 -1</clus>
<clus scale="  111.364">  2  9  1 -1</clus>
<clus scale="  138.343">  2  5  1 -1</clus>
<clus scale="  111.364">  2  5  1 -1</clus>
</clustering>
</event>
<event>
 9    1  0.5981539E-005  0.2383399E+03  0.7546771E-02  0.1121007E+00
         21   -1    0    0  501  502  0.00000000000E+00  0.00000000000E+00  0.50429423092E+03  0.50429423092E+03  0.00000000000E+00 0. -1.
          1   -1    0    0  502    0 -0.00000000000E+00 -0.00000000000E+00 -0.14922254398E+04  0.14922254398E+04  0.00000000000E+00 0. -1.
        -24    2    1    2    0    0 -0.92499322595E+02 -0.17166475675E+03 -0.88259434588E+03  0.90812113934E+03  0.87671608514E+02 0.  0.
         23    2    1    2    0    0  0.16733676937E+03  0.26455022175E+03 -0.54391734072E+03  0.63388649796E+03  0.89317436961E+02 0.  0.
         11    1    3    3    0    0 -0.36577588773E+02 -0.14905845412E+03 -0.63570688184E+03  0.65397215717E+03  0.00000000000E+00 0. -1.
        -12    1    3    3    0    0 -0.55921733822E+02 -0.22606302633E+02 -0.24688746405E+03  0.25414898216E+03  0.00000000000E+00 0.  1.
        -13    1    4    4    0    0  0.11686804435E+03  0.15047983686E+03 -0.40249791025E+03  0.44531661640E+03  0.00000000000E+00 0.  1.
         13    1    4    4    0    0  0.50468725016E+02  0.11407038489E+03 -0.14141943047E+03  0.18856988155E+03  0.00000000000E+00 0. -1.
          2    1    1    2  501    0 -0.74837446773E+02 -0.92885465002E+02  0.43858047774E+03  0.45451203340E+03  0.00000000000E+00 0. -1.
<scales pt_clust_5="13000.00000" pt_clust_6="13000.00000" pt_clust_7="13000.00000" pt_clust_8="13000.00000" pt_clust_9="119.28266"></scales>
<clustering>
<clus scale="   87.672">  5  6 -1 -1</clus>
<clus scale="   89.317">  7  8 -1 -1</clus>
<clus scale="  119.283">  1  9  2 -1</clus>
<clus scale="  237.728">  2  5  1 -1</clus>
<clus scale="  119.283">  1  5  2 -1</clus>
</clustering>
</event>
<event>
 9    1  0.5981539E-005  0.9513429E+02  0.7546771E-02  0.1296230E+00
         -4   -1    0    0    0  501 -0.00000000000E+00  0.00000000000E+00  0.35079301375E+02  0.35079301375E+02  0.00000000000E+00 0.  1.
         21   -1    0    0  501  502  0.00000000000E+00 -0.00000000000E+00 -0.51415351015E+03  0.51415351015E+03  0.00000000000E+00 0.  1.
         23    2    1    2    0    0 -0.98988681382E+01  0.15024171154E+01 -0.12037554492E+03  0.15059041164E+03  0.89927500887E+02 0.  0.
        -24    2    1    2    0    0  0.56343880336E+02 -0.46277556091E+02 -0.24448544140E+03  0.26746842224E+03  0.80311772407E+02 0.  0.
         13    1    4    4    0    0  0.63971110316E+02 -0.11720517099E+02 -0.20180018739E+03  0.21202119966E+03  0.00000000000E+00 0. -1.
        -14    1    4    4    0    0 -0.76272299797E+01 -0.34557038992E+02 -0.42685254016E+02  0.55447222576E+02  0.00000000000E+00 0.  1.
        -11    1    3    3    0    0  0.39835091939E+02 -0.77107881443E+00 -0.63898267560E+02  0.75302175995E+02  0.00000000000E+00 0.  1.
         11    1    3    3    0    0 -0.49733960078E+02  0.22734959298E+01 -0.56477277356E+02  0.75288235643E+02  0.00000000000E+00 0. -1.
         -3    1    1    2    0  502 -0.46445012198E+02  0.44775138976E+02 -0.11421322245E+03  0.13117397765E+03  0.00000000000E+00 0.  1.
<scales pt_clust_5="13000.00000" pt_clust_6="13000.00000" pt_clust_7="13000.00000" pt_clust_8="13000.00000" pt_clust_9="64.51323"></scales>
<clustering>
<clus scale="   64.513">  2  9  1 -1</clus>
<clus scale="   80.312">  5  6 -1 -1</clus>
<clus scale="   86.102">  2  5  1 -1</clus>
<clus scale="   89.928">  7  8 -1 -1</clus>
<clus scale="   64.513">  2  5  1 -1</clus>
</clustering>
</event>
<event>
 9    1  0.5981539E-005  0.1353353E+03  0.7546771E-02  0.1221766E+00
         -2   -1    0    0    0  501 -0.00000000000E+00  0.00000000000E+00  0.88619660755E+03  0.88619660755E+03  0.00000000000E+00 0.  1.
         21   -1    0    0  501  502  0.00000000000E+00 -0.00000000000E+00 -0.55382917843E+02  0.55382917843E+02  0.00000000000E+00 0.  1.
        -24    2    1    2    0    0 -0.80844034166E+02 -0.21404060962E+02  0.35113185821E+03  0.36980197382E+03  0.80411605513E+02 0.  0.
         23    2    1    2    0    0  0.11666088254E+03  0.13040309145E+03  0.30835147196E+03  0.36557927958E+03  0.89178762196E+02 0.  0.
         11    1    3    3    0    0 -0.96328622003E+02 -0.18611457932E+02  0.32296747908E+03  0.33754048990E+03  0.00000000000E+00 0. -1.
        -12    1    3    3    0    0  0.15484587837E+02 -0.27926030297E+01  0.28164379137E+02  0.32261483914E+02  0.00000000000E+00 0.  1.
        -13    1    4    4    0    0  0.85411129280E+02  0.57198081424E+02  0.23838485645E+03  0.25960358493E+03  0.00000000000E+00 0. -1.
         13    1    4    4    0    0  0.31249753262E+02  0.73205010024E+02  0.69966615507E+02  0.10597569465E+03  0.00000000000E+00 0.  1.
         -1    1    1    2    0  502 -0.35816848376E+02 -0.10899903049E+03  0.17133035954E+03  0.20619827200E+03  0.00000000000E+00 0.  1.
<scales pt_clust_5="13000.00000" pt_clust_6="13000.00000" pt_clust_7="13000.00000" pt_clust_8="13000.00000" pt_clust_9="114.73289"></scales>
<clustering>
<clus scale="   80.412">  5  6 -1 -1</clus>
<clus scale="   89.179">  7  8 -1 -1</clus>
<clus scale="  114.733">  2  9  1 -1</clus>
<clus scale="  129.726">  1  5  2 -1</clus>
<clus scale="  114.733">  2  5  1 -1</clus>
</clustering>
</event>
<event>
 9    1  0.5981539E-005  0.9189341E+02  0.7546771E-02  0.1305317E+00
          3   -1    0    0  502    0 -0.00000000000E+00  0.00000000000E+00  0.19262767927E+03  0.19262767927E+03  0.00000000000E+00 0. -1.
         21   -1    0    0  501  502  0.00000000000E+00 -0.00000000000E+00 -0.22820422781E+03  0.22820422781E+03  0.00000000000E+00 0.  1.
        -24    2    1    2    0    0 -0.11901255311E+01  0.41420649064E+01  0.16091782039E+03  0.18007303874E+03  0.80704282802E+02 0.  0.
         23    2    1    2    0    0  0.33575086793E+02  0.14159623293E+02 -0.16361790680E+03  0.19111413781E+03  0.91793315992E+02 0.  0.
         13    1    3    3    0    0 -0.19155605664E+02  0.18767074083E+02  0.12026050720E+02  0.29389899522E+02  0.00000000000E+00 0. -1.
        -14    1    3    3    0    0  0.17965480133E+02 -0.14625009177E+02  0.14889176967E+03  0.15068313922E+03  0.00000000000E+00 0.  1.
        -11    1    4    4    0    0  0.58434089244E+02  0.36685069702E+00 -0.60350998257E+02  0.84005478129E+02  0.00000000000E+00 0. -1.
         11    1    4    4    0    0 -0.24859002451E+02  0.13792772596E+02 -0.10326690854E+03  0.10710865968E+03  0.00000000000E+00 0.  1.
          4    1    1    2  501    0 -0.32384961262E+02 -0.18301688199E+02 -0.32876462127E+02  0.49644730525E+02  0.00000000000E+00 0. -1.
<scales pt_clust_5="13000.00000" pt_clust_6="13000.00000" pt_clust_7="13000.00000" pt_clust_8="13000.00000" pt_clust_9="37.19862"></scales>
<clustering>
<clus scale="   37.199">  2  9  1 -1</clus>
<clus scale="   80.704">  5  6 -1 -1</clus>
<clus scale="   80.818">  1  5  2 -1</clus>
<clus scale="   91.793">  7  8 -1 -1</clus>
<clus scale="   37.199">  2  5  1 -1</clus>
</clustering>
</event>
<event>
 9    1  0.5981539E-005  0.9261958E+02  0.7546771E-02  0.1298243E+00
         21   -1    0    0  501  502  0.00000000000E+00  0.00000000000E+00  0.25935114199E+03  0.25935114199E+03  0.00000000000E+00 0.  1.
          1   -1    0    0  502    0 -0.00000000000E+00 -0.00000000000E+00 -0.91624213625E+02  0.91624213625E+02  0.00000000000E+00 0. -1.
         23    2    1    2    0    0  0.10152082921E+02 -0.28582685200E+02  0.34687155754E+02  0.10230555279E+03  0.91341078805E+02 0.  0.
        -24    2    1    2    0    0  0.57793196371E+02 -0.30275843414E+02  0.11889638053E+03  0.15767022640E+03  0.80416856123E+02 0.  0.
         11    1    4    4    0    0  0.26902251567E+02  0.19244985684E+02  0.10751759205E+02  0.34780755301E+02  0.00000000000E+00 0. -1.
        -12    1    4    4    0    0  0.30890944804E+02 -0.49520829097E+02  0.10814462132E+03  0.12288947110E+03  0.00000000000E+00 0.  1.
        -11    1    3    3    0    0  0.38138975245E+02 -0.87041601291E+01  0.51018839110E+02  0.64290479703E+02  0.00000000000E+00 0.  1.
         11    1    3    3    0    0 -0.27986892324E+02 -0.19878525070E+02 -0.16331683356E+02  0.38015073091E+02  0.00000000000E+00 0. -1.
          2    1    1    2  501    0 -0.67945279292E+02  0.58858528613E+02  0.14143392077E+02  0.90999576416E+02  0.00000000000E+00 0. -1.
<scales pt_clust_5="13000.00000" pt_clust_6="13000.00000" pt_clust_7="13000.00000" pt_clust_8="13000.00000" pt_clust_9="89.89380"></scales>
<clustering>
<clus scale="   80.417">  5  6 -1 -1</clus>
<clus scale="   89.894">  1  9  2 -1</clus>
<clus scale="   89.894">  1  5  2 -1</clus>
<clus scale="   91.341">  7  8 -1 -1</clus>
<clus scale="   89.894">  1  5  2 -1</clus>
</clustering>
</event>
<event>
 9    1  0.5981539E-005  0.1835042E+03  0.7546771E-02  0.1195422E+00
          1   -1    0    0  502    0 -0.00000000000E+00  0.00000000000E+00  0.76888177060E+03  0.76888177060E+03  0.00000000000E+00 0. -1.
         21   -1    0    0  501  502  0.00000000000E+00 -0.00000000000E+00 -0.19203549309E+03  0.19203549309E+03  0.00000000000E+00 0. -1.
        -24    2    1    2    0    0 -0.15035555613E+01 -0.42665619042E+02  0.79640271274E+02  0.12127627848E+03  0.80887249831E+02 0.  0.
         23    2    1    2    0    0  0.37462471442E+02 -0.11529512724E+03  0.61881632679E+03  0.63707319147E+03  0.90731482174E+02 0.  0.
         11    1    3    3    0    0 -0.32602137466E+02 -0.46479972260E+02  0.66125115627E+02  0.87153990759E+02  0.00000000000E+00 0. -1.
        -12    1    3    3    0    0  0.31098581905E+02  0.38143532177E+01  0.13515155647E+02  0.34122287718E+02  0.00000000000E+00 0.  1.
        -11    1    4    4    0    0  0.93755095520E+01 -0.12214910309E+03  0.49924290273E+03  0.51405425734E+03  0.00000000000E+00 0. -1.
         11    1    4    4    0    0  0.28086961890E+02  0.68539758451E+01  0.11957342406E+03  0.12301893413E+03  0.00000000000E+00 0.  1.
          2    1    1    2  501    0 -0.35958915880E+02  0.15796074629E+03 -0.12161032055E+03  0.20256779374E+03  0.00000000000E+00 0. -1.
<scales pt_clust_5="13000.00000" pt_clust_6="13000.00000" pt_clust_7="13000.00000" pt_clust_8="13000.00000" pt_clust_9="159.50425"></scales>
<clustering>
<clus scale="   80.887">  5  6 -1 -1</clus>
<clus scale="   90.731">  7  8 -1 -1</clus>
<clus scale="   91.462">  1  5  2 -1</clus>
<clus scale="  159.504">  2  9  1 -1</clus>
<clus scale="  159.504">  2  5  1 -1</clus>
</clustering>
</event>
<event>
 9    1  0.5981539E-005  0.1123960E+03  0.7546771E-02  0.1257668E+00
          1   -1    0    0  502    0 -0.00000000000E+00  0.00000000000E+00  0.10435131250E+03  0.10435131250E+03  0.00000000000E+00 0. -1.
         21   -1    0    0  501  502  0.00000000000E+00 -0.00000000000E+00 -0.22469595707E+03  0.22469595707E+03  0.00000000000E+00 0.  1.
        -24    2    1    2    0    0  0.44976441232E+02 -0.79289070727E+02  0.22676712345E+02  0.12338428637E+03  0.79998823974E+02 0.  0.
         23    2    1    2    0    0 -0.86130424181E+01  0.38461772630E+02 -0.88417028191E+02  0.12839204585E+03  0.84341295397E+02 0.  0.
         13    1    3    3    0    0  0.62791237483E+01 -0.46435309050E+02  0.47634085332E+02  0.66818196675E+02  0.00000000000E+00 0. -1.
        -14    1    3    3    0    0  0.38697317484E+02 -0.32853761678E+02 -0.24957372986E+02  0.56566089693E+02  0.00000000000E+00 0.  1.
        -13    1    4    4    0    0  0.24780525209E+02  0.91301876431E+01  0.31615948269E+01  0.26597564511E+02  0.00000000000E+00 0. -1.
         13    1    4    4    0    0 -0.33393567628E+02  0.29331584987E+02 -0.91578623018E+02  0.10179448134E+03  0.00000000000E+00 0.  1.
          2    1    1    2  501    0 -0.36363398814E+02  0.40827298097E+02 -0.54604328733E+02  0.77270937355E+02  0.00000000000E+00 0. -1.
<scales pt_clust_5="13000.00000" pt_clust_6="13000.00000" pt_clust_7="13000.00000" pt_clust_8="13000.00000" pt_clust_9="54.67326"></scales>
<clustering>
<clus scale="   54.673">  2  9  1 -1</clus>
<clus scale="   79.999">  5  6 -1 -1</clus>
<clus scale="   84.341">  7  8 -1 -1</clus>
<clus scale="  109.175">  1  5  2 -1</clus>
<clus scale="   54.673">  2  5  1 -1</clus>
</clustering>
</event>
<event>
 9    1  0.5981539E-005  0.1162908E+03  0.7546771E-02  0.1252884E+00
         21   -1    0    0  501  502  0.00000000000E+00  0.00000000000E+00  0.19928972577E+03  0.19928972577E+03  0.00000000000E+00 0.  1.
         -2   -1    0    0    0  501 -0.00000000000E+00 -0.00000000000E+00 -0.29026315582E+03  0.29026315582E+03  0.00000000000E+00 0.  1.
        -24    2    1    2    0    0 -0.27723040483E+02 -0.10640304203E+03 -0.18345173778E+03  0.22888553478E+03  0.81509960206E+02 0.  0.
         23    2    1    2    0    0  0.12559609758E+02  0.14538945071E+02 -0.37321515939E+02  0.10092713219E+03  0.91783798890E+02 0.  0.
         13    1    3    3    0    0  0.16542413444E+02 -0.14694811379E+02 -0.82799023494E+02  0.85704534393E+02  0.00000000000E+00 0. -1.
        -14    1    3    3    0    0 -0.44265453927E+02 -0.91708230646E+02 -0.10065271429E+03  0.14318100039E+03  0.00000000000E+00 0.  1.
        -11    1    4    4    0    0 -0.32196623418E+02 -0.19220499711E+02 -0.11628360632E+02  0.39258998199E+02  0.00000000000E+00 0.  1.
         11    1    4    4    0    0  0.44756233175E+02  0.33759444782E+02 -0.25693155307E+02  0.61668133989E+02  0.00000000000E+00 0. -1.
         -1    1    1    2    0  502  0.15163430725E+02  0.91864096955E+02  0.12979982368E+03  0.15974021462E+03  0.00000000000E+00 0.  1.
<scales pt_clust_5="13000.00000" pt_clust_6="13000.00000" pt_clust_7="13000.00000" pt_clust_8="13000.00000" pt_clust_9="93.10715"></scales>
<clustering>
<clus scale="   81.510">  5  6 -1 -1</clus>
<clus scale="   91.784">  7  8 -1 -1</clus>
<clus scale="   93.107">  1  9  2 -1</clus>
<clus scale="  108.366">  2  5  1 -1</clus>
<clus scale="   93.107">  1  5  2 -1</clus>
</clustering>
</event>
<event>
 9    1  0.5981539E-005  0.1104307E+03  0.7546771E-02  0.1264337E+00
         21   -1    0    0  501  502  0.00000000000E+00  0.00000000000E+00  0.16644342547E+03  0.16644342547E+03  0.00000000000E+00 0. -1.
          1   -1    0    0  502    0 -0.00000000000E+00 -0.00000000000E+00 -0.19561010776E+03  0.19561010776E+03  0.00000000000E+00 0. -1.
         23    2    1    2    0    0  0.54945609011E+02  0.44786748241E+02 -0.12457677193E+03  0.16989874612E+03  0.91221373937E+02 0.  0.
        -24    2    1    2    0    0 -0.22487407730E+01 -0.54579774557E+02  0.18234231339E+02  0.98192154152E+02  0.79531146846E+02 0.  0.
         11    1    4    4    0    0  0.26712864161E+02 -0.50906200134E+02  0.32131628074E+02  0.65859394520E+02  0.00000000000E+00 0. -1.
        -12    1    4    4    0    0 -0.28961604934E+02 -0.36735744233E+01 -0.13897396735E+02  0.32332759632E+02  0.00000000000E+00 0.  1.
        -13    1    3    3    0    0  0.46216459153E+02 -0.17905279790E+02 -0.37041220516E+02  0.61875780062E+02  0.00000000000E+00 0.  1.
         13    1    3    3    0    0  0.87291498585E+01  0.62692028031E+02 -0.87535551412E+02  0.10802296606E+03  0.00000000000E+00 0. -1.
          2    1    1    2  501    0 -0.52696868238E+02  0.97930263168E+01  0.77175858306E+02  0.93962632955E+02  0.00000000000E+00 0. -1.
<scales pt_clust_5="13000.00000" pt_clust_6="13000.00000" pt_clust_7="13000.00000" pt_clust_8="13000.00000" pt_clust_9="53.59910"></scales>
<clustering>
<clus scale="   53.599">  1  9  2 -1</clus>
<clus scale="   79.531">  5  6 -1 -1</clus>
<clus scale="   91.221">  7  8 -1 -1</clus>
<clus scale="  100.989">  1  5  2 -1</clus>
<clus scale="   53.599">  1  5  2 -1</clus>
</clustering>
</event>
<event>
 9    1  0.5981539E-005  0.3605219E+03  0.7546771E-02  0.1058645E+00
         -2   -1    0    0    0  501 -0.00000000000E+00  0.00000000000E+00  0.12613592568E+04  0.12613592568E+04  0.00000000000E+00 0.  1.
         21   -1    0    0  501  502  0.00000000000E+00 -0.00000000000E+00 -0.36398672294E+03  0.36398672294E+03  0.00000000000E+00 0.  1.
        -24    2    1    2    0    0 -0.37645329439E+02 -0.34834734894E+03  0.11255905764E+04  0.11816899858E+04  0.81694740120E+02 0.  0.
         23    2    1    2    0    0  0.97439092154E+01  0.32652534042E+03 -0.22648878687E+03  0.40819221478E+03  0.92789934390E+02 0.  0.
         11    1    3    3    0    0  0.16630673362E+02 -0.18282478544E+02  0.62183931798E+02  0.66915392041E+02  0.00000000000E+00 0. -1.
        -12    1    3    3    0    0 -0.54276002801E+02 -0.33006487040E+03  0.10634066446E+04  0.11147745938E+04  0.00000000000E+00 0.  1.
        -13    1    4    4    0    0 -0.17101704009E+02  0.57180817251E+02 -0.81829472507E+02  0.10128265751E+03  0.00000000000E+00 0.  1.
         13    1    4    4    0    0  0.26845613224E+02  0.26934452317E+03 -0.14465931437E+03  0.30690955727E+03  0.00000000000E+00 0. -1.
         -1    1    1    2    0  502  0.27901420223E+02  0.21822008517E+02 -0.17292556622E+01  0.35463779146E+02  0.00000000000E+00 0.  1.
<scales pt_clust_5="13000.00000" pt_clust_6="13000.00000" pt_clust_7="13000.00000" pt_clust_8="13000.00000" pt_clust_9="35.42159"></scales>
<clustering>
<clus scale="   35.422">  2  9  1 -1</clus>
<clus scale="   81.695">  5  6 -1 -1</clus>
<clus scale="   92.790">  7  8 -1 -1</clus>
<clus scale="  357.827">  1  5  2 -1</clus>
<clus scale="   35.422">  2  5  1 -1</clus>
</clustering>
</event>
<event>
 9    1  0.5981539E-005  0.1306749E+03  0.7546771E-02  0.1229624E+00
         -2   -1    0    0    0  501 -0.00000000000E+00  0.00000000000E+00  0.67702536797E+03  0.67702536797E+03  0.00000000000E+00 0.  1.
         21   -1    0    0  501  502  0.00000000000E+00 -0.00000000000E+00 -0.78664045355E+02  0.78664045355E+02  0.00000000000E+00 0.  1.
         23    2    1    2    0    0  0.24602076863E+01 -0.10098776515E+03  0.55023101169E+03  0.56698443230E+03  0.92263746491E+02 0.  0.
        -24    2    1    2    0    0 -0.48791887267E+01  0.67617379954E+02  0.87797364488E+02  0.13681173274E+03  0.80082185604E+02 0.  0.
         11    1    4    4    0    0  0.11213926108E+02  0.70416116492E+02  0.31068739630E+02  0.77778198634E+02  0.00000000000E+00 0. -1.
        -12    1    4    4    0    0 -0.16093114835E+02 -0.27987365385E+01  0.56728624858E+02  0.59033534110E+02  0.00000000000E+00 0.  1.
        -13    1    3    3    0    0 -0.39289156741E+02 -0.55265269345E+02  0.37632774531E+03  0.38238783940E+03  0.00000000000E+00 0.  1.
         13    1    3    3    0    0  0.41749364427E+02 -0.45722495803E+02  0.17390326638E+03  0.18459659290E+03  0.00000000000E+00 0. -1.
         -1    1    1    2    0  502  0.24189810404E+01  0.33370385195E+02 -0.39667053569E+02  0.51893248271E+02  0.00000000000E+00 0.  1.
<scales pt_clust_5="13000.00000" pt_clust_6="13000.00000" pt_clust_7="13000.00000" pt_clust_8="13000.00000" pt_clust_9="33.45794"></scales>
<clustering>
<clus scale="   33.458">  2  9  1 -1</clus>
<clus scale="   80.082">  5  6 -1 -1</clus>
<clus scale="   92.264">  7  8 -1 -1</clus>
<clus scale="  122.378">  2  5  1 -1</clus>
<clus scale="   33.458">  2  5  1 -1</clus>
</clustering>
</event>
<event>
 9    1  0.5981539E-005  0.1723397E+03  0.7546771E-02  0.1177316E+00
         21   -1    0    0  501  502  0.00000000000E+00  0.00000000000E+00  0.23145498080E+03  0.23145498080E+03  0.00000000000E+00 0.  1.
         -2   -1    0    0    0  501 -0.00000000000E+00 -0.00000000000E+00 -0.43800573400E+03  0.43800573400E+03  0.00000000000E+00 0.  1.
         23    2    1    2    0    0 -0.32784224163E+02  0.11537847772E+03  0.61211839487E+02  0.16351294245E+03  0.92750172932E+02 0.  0.
        -24    2    1    2    0    0 -0.32121360768E+02 -0.17520480350E+03  0.28551210210E+02  0.19676531167E+03  0.78567876941E+02 0.  0.
         11    1    4    4    0    0 -0.44342534183E+02 -0.56503977987E+02 -0.72274311224E+01  0.72188611475E+02  0.00000000000E+00 0. -1.
        -12    1    4    4    0    0  0.12221173414E+02 -0.11870082551E+03  0.35778641332E+02  0.12457670020E+03  0.00000000000E+00 0.  1.
        -13    1    3    3    0    0 -0.60049450234E+02  0.41848743638E+02  0.30384787864E+02  0.79249537229E+02  0.00000000000E+00 0.  1.
         13    1    3    3    0    0  0.27265226071E+02  0.73529734083E+02  0.30827051623E+02  0.84263405217E+02  0.00000000000E+00 0. -1.
         -1    1    1    2    0  502  0.64905584932E+02  0.59826325776E+02 -0.29631380289E+03  0.30918246069E+03  0.00000000000E+00 0.  1.
<scales pt_clust_5="13000.00000" pt_clust_6="13000.00000" pt_clust_7="13000.00000" pt_clust_8="13000.00000" pt_clust_9="88.27192"></scales>
<clustering>
<clus scale="   78.568">  5  6 -1 -1</clus>
<clus scale="   88.272">  1  9  2 -1</clus>
<clus scale="   92.750">  7  8 -1 -1</clus>
<clus scale="  165.140">  1  5  2 -1</clus>
<clus scale="   88.272">  1  5  2 -1</clus>
</clustering>
</event>
<event>
 9    1  0.5981539E-005  0.1380950E+03  0.7546771E-02  0.1218557E+00
         21   -1    0    0  501  502  0.00000000000E+00  0.00000000000E+00  0.39382828336E+03  0.39382828336E+03  0.00000000000E+00 0. -1.
          1   -1    0    0  502    0 -0.00000000000E+00 -0.00000000000E+00 -0.87387511403E+02  0.87387511403E+02  0.00000000000E+00 0. -1.
         23    2    1    2    0    0 -0.11326235350E+03  0.97102816240E+01  0.52621912451E+02  0.15490607906E+03  0.91127259203E+02 0.  0.
        -24    2    1    2    0    0  0.93906923839E+02  0.80650353988E+01  0.72182683663E+02  0.14278234737E+03  0.79327824624E+02 0.  0.
         11    1    4    4    0    0  0.11402776831E+02 -0.21202446335E+02  0.45141047420E+02  0.51159370718E+02  0.00000000000E+00 0. -1.
        -12    1    4    4    0    0  0.82504147008E+02  0.29267481734E+02  0.27041636243E+02  0.91622976655E+02  0.00000000000E+00 0.  1.
        -13    1    3    3    0    0 -0.11472782261E+03 -0.19500709733E+02  0.40068936481E+02  0.12307831097E+03  0.00000000000E+00 0. -1.
         13    1    3    3    0    0  0.14654691099E+01  0.29210991357E+02  0.12552975970E+02  0.31827768088E+02  0.00000000000E+00 0.  1.
          2    1    1    2  501    0  0.19355429657E+02 -0.17775317023E+02  0.18163617585E+03  0.18352736834E+03  0.00000000000E+00 0. -1.
<scales pt_clust_5="13000.00000" pt_clust_6="13000.00000" pt_clust_7="13000.00000" pt_clust_8="13000.00000" pt_clust_9="26.27917"></scales>
<clustering>
<clus scale="   26.279">  1  9  2 -1</clus>
<clus scale="   79.328">  5  6 -1 -1</clus>
<clus scale="   91.127">  7  8 -1 -1</clus>
<clus scale="  130.610">  1  5  2 -1</clus>
<clus scale="   26.279">  1  5  2 -1</clus>
</clustering>
</event>
<event>
 9    1  0.5981539E-005  0.1723815E+03  0.7546771E-02  0.1176710E+00
          1   -1    0    0  502    0 -0.00000000000E+00  0.00000000000E+00  0.21451354290E+03  0.21451354290E+03  0.00000000000E+00 0. -1.
         21   -1    0    0  501  502  0.00000000000E+00 -0.00000000000E+00 -0.32989202907E+03  0.32989202907E+03  0.00000000000E+00 0.  1.
         23    2    1    2    0    0 -0.13772924553E+03 -0.46007336228E+02  0.87733091310E+02  0.19248147772E+03  0.90917566465E+02 0.  0.
        -24    2    1    2    0    0  0.13281430614E+03  0.82620985975E+02 -0.24135127496E+03  0.29875464401E+03  0.80858098849E+02 0.  0.
         11    1    4    4    0    0  0.63858029732E+02  0.72000925231E+02 -0.88551091678E+02  0.13077949775E+03  0.00000000000E+00 0. -1.
        -12    1    4    4    0    0  0.68956276409E+02  0.10620060744E+02 -0.15280018328E+03  0.16797514625E+03  0.00000000000E+00 0.  1.
        -13    1    3    3    0    0 -0.51913837679E+02  0.22726149383E+02  0.93086340395E+01  0.57429740345E+02  0.00000000000E+00 0.  1.
         13    1    3    3    0    0 -0.85815407850E+02 -0.68733485611E+02  0.78424457271E+02  0.13505173737E+03  0.00000000000E+00 0. -1.
          2    1    1    2  501    0  0.49149393885E+01 -0.36613649747E+02  0.38239697475E+02  0.53169450251E+02  0.00000000000E+00 0. -1.
<scales pt_clust_5="13000.00000" pt_clust_6="13000.00000" pt_clust_7="13000.00000" pt_clust_8="13000.00000" pt_clust_9="36.94208"></scales>
<clustering>
<clus scale="   36.942">  2  9  1 -1</clus>
<clus scale="   80.858">  5  6 -1 -1</clus>
<clus scale="   90.918">  7  8 -1 -1</clus>
<clus scale="  167.294">  2  5  1 -1</clus>
<clus scale="   36.942">  2  5  1 -1</clus>
</clustering>
</event>
<event>
 9    1  0.5981539E-005  0.1075583E+03  0.7546771E-02  0.1269669E+00
         21   -1    0    0  501  502  0.00000000000E+00  0.00000000000E+00  0.71261749414E+02  0.71261749414E+02  0.00000000000E+00 0. -1.
          1   -1    0    0  502    0 -0.00000000000E+00 -0.00000000000E+00 -0.29206318123E+03  0.29206318123E+03  0.00000000000E+00 0. -1.
        -24    2    1    2    0    0  0.57341664245E+02 -0.51978727958E+02 -0.16871270363E+03  0.20168245832E+03  0.78879547475E+02 0.  0.
         23    2    1    2    0    0 -0.25443571140E+02  0.17850810072E+01 -0.28884452957E+02  0.97804169346E+02  0.89893170442E+02 0.  0.
         13    1    3    3    0    0  0.45500301120E+02 -0.31031997188E+02 -0.16886552708E+03  0.17761989891E+03  0.00000000000E+00 0. -1.
        -14    1    3    3    0    0  0.11841363125E+02 -0.20946730770E+02  0.15282344933E+00  0.24062559415E+02  0.00000000000E+00 0.  1.
        -13    1    4    4    0    0 -0.56492662589E+02 -0.57449224073E+01 -0.32863529637E+02  0.65608205585E+02  0.00000000000E+00 0.  1.
         13    1    4    4    0    0  0.31049091449E+02  0.75300034144E+01  0.39790766803E+01  0.32195963760E+02  0.00000000000E+00 0. -1.
          2    1    1    2  501    0 -0.31898093105E+02  0.50193646951E+02 -0.23204275227E+02  0.63838302975E+02  0.00000000000E+00 0. -1.
<scales pt_clust_5="13000.00000" pt_clust_6="13000.00000" pt_clust_7="13000.00000" pt_clust_8="13000.00000" pt_clust_9="59.47176"></scales>
<clustering>
<clus scale="   59.472">  1  9  2 -1</clus>
<clus scale="   78.880">  5  6 -1 -1</clus>
<clus scale="   89.893">  7  8 -1 -1</clus>
<clus scale="   98.539">  2  5  1 -1</clus>
<clus scale="   59.472">  1  5  2 -1</clus>
</clustering>
</event>
<event>
 9    1  0.5981539E-005  0.1023018E+03  0.7546771E-02  0.1284559E+00
         21   -1    0    0  501  502  0.00000000000E+00  0.00000000000E+00  0.31261164425E+03  0.31261164425E+03  0.00000000000E+00 0. -1.
          3   -1    0    0  502    0 -0.00000000000E+00 -0.00000000000E+00 -0.79634593735E+02  0.79634593735E+02  0.00000000000E+00 0. -1.
         23    2    1    2    0    0  0.48510342621E+02  0.24868071545E+02 -0.14085892963E+02  0.10611021533E+03  0.89940486392E+02 0.  0.
        -24    2    1    2    0    0 -0.43914240389E+02  0.27609205193E+02  0.12171891809E+03  0.15017237520E+03  0.71031813522E+02 0.  0.
         13    1    4    4    0    0 -0.47498656876E+01  0.36156384144E+02  0.21737436063E+02  0.42454227882E+02  0.00000000000E+00 0. -1.
        -14    1    4    4    0    0 -0.39164374702E+02 -0.85471789509E+01  0.99981482022E+02  0.10771814732E+03  0.00000000000E+00 0.  1.
        -13    1    3    3    0    0  0.20422187289E+02  0.35114919349E+02 -0.46679891610E+02  0.61880009497E+02  0.00000000000E+00 0. -1.
         13    1    3    3    0    0  0.28088155332E+02 -0.10246847803E+02  0.32593998648E+02  0.44230205829E+02  0.00000000000E+00 0.  1.
          4    1    1    2  501    0 -0.45961022317E+01 -0.52477276739E+02  0.12534402539E+03  0.13596364746E+03  0.00000000000E+00 0. -1.
<scales pt_clust_5="13000.00000" pt_clust_6="13000.00000" pt_clust_7="13000.00000" pt_clust_8="13000.00000" pt_clust_9="52.67816"></scales>
<clustering>
<clus scale="   52.678">  1  9  2 -1</clus>
<clus scale="   71.032">  5  6 -1 -1</clus>
<clus scale="   86.150">  1  5  2 -1</clus>
<clus scale="   89.940">  7  8 -1 -1</clus>
<clus scale="   52.678">  1  5  2 -1</clus>
</clustering>
</event>
<event>
 9    1  0.5981539E-005  0.1273933E+03  0.7546771E-02  0.1232158E+00
         21   -1    0    0  501  502  0.00000000000E+00  0.00000000000E+00  0.36524217830E+03  0.36524217830E+03  0.00000000000E+00 0. -1.
          1   -1    0    0  502    0 -0.00000000000E+00 -0.00000000000E+00 -0.53630128133E+03  0.53630128133E+03  0.00000000000E+00 0. -1.
         23    2    1    2    0    0  0.61928956787E+02 -0.80741510987E+02 -0.49075833607E+03  0.50820876131E+03  0.84130929905E+02 0.  0.
        -24    2    1    2    0    0 -0.48864882877E+02  0.20978973713E+02  0.36421047648E+02  0.10352655281E+03  0.81014568500E+02 0.  0.
         11    1    4    4    0    0 -0.23444288830E+02 -0.26429546320E+02  0.34975099119E+02  0.49713309644E+02  0.00000000000E+00 0. -1.
        -12    1    4    4    0    0 -0.25420594047E+02  0.47408520032E+02  0.14459485287E+01  0.53813243170E+02  0.00000000000E+00 0.  1.
        -13    1    3    3    0    0 -0.12914191669E+02 -0.47966631187E+02 -0.21061837557E+03  0.21639702905E+03  0.00000000000E+00 0.  1.
         13    1    3    3    0    0  0.74843148456E+02 -0.32774879800E+02 -0.28013996050E+03  0.29181173226E+03  0.00000000000E+00 0. -1.
          2    1    1    2  501    0 -0.13064073909E+02  0.59762537275E+02  0.28327818538E+03  0.28980814551E+03  0.00000000000E+00 0. -1.
<scales pt_clust_5="13000.00000" pt_clust_6="13000.00000" pt_clust_7="13000.00000" pt_clust_8="13000.00000" pt_clust_9="61.17378"></scales>
<clustering>
<clus scale="   61.174">  1  9  2 -1</clus>
<clus scale="   81.015">  5  6 -1 -1</clus>
<clus scale="   84.131">  7  8 -1 -1</clus>
<clus scale="  125.357">  1  5  2 -1</clus>
<clus scale="   61.174">  1  5  2 -1</clus>
</clustering>
</event>
<event>
 9    1  0.5981539E-005  0.1190049E+03  0.7546771E-02  0.1248471E+00
         -2   -1    0    0    0  501 -0.00000000000E+00  0.00000000000E+00  0.16865825131E+03  0.16865825131E+03  0.00000000000E+00 0.  1.
         21   -1    0    0  501  502  0.00000000000E+00 -0.00000000000E+00 -0.12289845148E+03  0.12289845148E+03  0.00000000000E+00 0.  1.
        -24    2    1    2    0    0 -0.60785473173E+02  0.26374677271E+02  0.66520595798E+02  0.12445220378E+03  0.81687600097E+02 0.  0.
         23    2    1    2    0    0  0.84383237696E+02 -0.46882577914E+02 -0.22051491844E+02  0.13581401523E+03  0.92955212472E+02 0.  0.
         13    1    3    3    0    0 -0.22535750570E+02 -0.16307709718E+01  0.73172547605E+02  0.76581598252E+02  0.00000000000E+00 0. -1.
        -14    1    3    3    0    0 -0.38249722603E+02  0.28005448243E+02 -0.66519518076E+01  0.47870605525E+02  0.00000000000E+00 0.  1.
        -13    1    4    4    0    0  0.92858000596E+02 -0.27199832493E+02 -0.42965675168E+02  0.10587014879E+03  0.00000000000E+00 0.  1.
         13    1    4    4    0    0 -0.84747629003E+01 -0.19682745421E+02  0.20914183323E+02  0.29943866444E+02  0.00000000000E+00 0. -1.
         -1    1    1    2    0  502 -0.23597764523E+02  0.20507900643E+02  0.12906958806E+01  0.31290483779E+02  0.00000000000E+00 0.  1.
<scales pt_clust_5="13000.00000" pt_clust_6="13000.00000" pt_clust_7="13000.00000" pt_clust_8="13000.00000" pt_clust_9="31.26385"></scales>
<clustering>
<clus scale="   31.264">  2  9  1 -1</clus>
<clus scale="   81.688">  5  6 -1 -1</clus>
<clus scale="   92.955">  7  8 -1 -1</clus>
<clus scale="  110.428">  1  5  2 -1</clus>
<clus scale="   31.264">  2  5  1 -1</clus>
</clustering>
</event>
<event>
 9    1  0.5981539E-005  0.1507151E+03  0.7546771E-02  0.1203618E+00
          1   -1    0    0  502    0 -0.00000000000E+00  0.00000000000E+00  0.18778242927E+03  0.18778242927E+03  0.00000000000E+00 0. -1.
         21   -1    0    0  501  502  0.00000000000E+00 -0.00000000000E+00 -0.25925907287E+03  0.25925907287E+03  0.00000000000E+00 0.  1.
         23    2    1    2    0    0  0.82179186271E+02  0.66625622999E+02  0.65299756122E+02  0.15599061307E+03  0.94215820969E+02 0.  0.
        -24    2    1    2    0    0 -0.13451147761E+03 -0.55478232625E+02 -0.21482452551E+02  0.16394610047E+03  0.72426902376E+02 0.  0.
         11    1    4    4    0    0 -0.63301864521E+02 -0.64720660767E+02 -0.15959420358E+02  0.91927107428E+02  0.00000000000E+00 0. -1.
        -12    1    4    4    0    0 -0.71209613088E+02  0.92424281417E+01 -0.55230321930E+01  0.72018993041E+02  0.00000000000E+00 0.  1.
        -13    1    3    3    0    0  0.50517928969E+02  0.13163069307E+02 -0.15132697862E+02  0.54353712711E+02  0.00000000000E+00 0.  1.
         13    1    3    3    0    0  0.31661257302E+02  0.53462553692E+02  0.80432453983E+02  0.10163690036E+03  0.00000000000E+00 0. -1.
          2    1    1    2  501    0  0.52332291337E+02 -0.11147390374E+02 -0.11529394718E+03  0.12710478860E+03  0.00000000000E+00 0. -1.
<scales pt_clust_5="13000.00000" pt_clust_6="13000.00000" pt_clust_7="13000.00000" pt_clust_8="13000.00000" pt_clust_9="53.50638"></scales>
<clustering>
<clus scale="   53.506">  2  9  1 -1</clus>
<clus scale="   72.427">  5  6 -1 -1</clus>
<clus scale="   94.216">  7  8 -1 -1</clus>
<clus scale="  138.145">  2  5  1 -1</clus>
<clus scale="   53.506">  2  5  1 -1</clus>
</clustering>
</event>
<event>
 9    1  0.5981539E-005  0.1844129E+03  0.7546771E-02  0.1164855E+00
         21   -1    0    0  501  502  0.00000000000E+00  0.00000000000E+00  0.13849852620E+03  0.13849852620E+03  0.00000000000E+00 0. -1.
          3   -1    0    0  502    0 -0.00000000000E+00 -0.00000000000E+00 -0.27133229328E+03  0.27133229328E+03  0.00000000000E+00 0. -1.
        -24    2    1    2    0    0  0.14482607005E+03  0.56804017710E+02 -0.61807623968E+02  0.18558290133E+03  0.80122056201E+02 0.  0.
         23    2    1    2    0    0 -0.16097889736E+03 -0.40341071481E+02 -0.66443189492E+02  0.20073311659E+03  0.91309798069E+02 0.  0.
         13    1    3    3    0    0  0.10430326109E+03  0.75414509073E+02 -0.56881312241E+02  0.14071958689E+03  0.00000000000E+00 0. -1.
        -14    1    3    3    0    0  0.40522808960E+02 -0.18610491363E+02 -0.49263117265E+01  0.44863314434E+02  0.00000000000E+00 0.  1.
        -11    1    4    4    0    0 -0.19757823746E+02 -0.43669871187E+02 -0.21137044354E+02  0.52385149544E+02  0.00000000000E+00 0.  1.
         11    1    4    4    0    0 -0.14122107361E+03  0.33287997061E+01 -0.45306145138E+02  0.14834796705E+03  0.00000000000E+00 0. -1.
          4    1    1    2  501    0  0.16152827305E+02 -0.16462946229E+02 -0.45829536177E+01  0.23514801559E+02  0.00000000000E+00 0. -1.
<scales pt_clust_5="13000.00000" pt_clust_6="13000.00000" pt_clust_7="13000.00000" pt_clust_8="13000.00000" pt_clust_9="23.06388"></scales>
<clustering>
<clus scale="   23.064">  1  9  2 -1</clus>
<clus scale="   80.122">  5  6 -1 -1</clus>
<clus scale="   91.310">  7  8 -1 -1</clus>
<clus scale="  179.137">  2  5  1 -1</clus>
<clus scale="   23.064">  1  5  2 -1</clus>
</clustering>
</event>
<event>
 9    1  0.5981539E-005  0.9769092E+02  0.7546771E-02  0.1291621E+00
         -4   -1    0    0    0  501 -0.00000000000E+00  0.00000000000E+00  0.33723479640E+03  0.33723479640E+03  0.00000000000E+00 0.  1.
         21   -1    0    0  501  502  0.00000000000E+00 -0.00000000000E+00 -0.13643191327E+03  0.13643191327E+03  0.00000000000E+00 0. -1.
        -24    2    1    2    0    0 -0.97706218794E+01 -0.33425012303E+02  0.28162023991E+03  0.29477878830E+03  0.79824044031E+02 0.  0.
         23    2    1    2    0    0 -0.25550456639E+02  0.30697628784E+02 -0.11033580443E+02  0.10062686689E+03  0.91699815682E+02 0.  0.
         11    1    3    3    0    0  0.14048589685E+01  0.26251122476E+02  0.79147624684E+02  0.83399289884E+02  0.00000000000E+00 0. -1.
        -12    1    3    3    0    0 -0.11175480848E+02 -0.59676134779E+02  0.20247261522E+03  0.21137949842E+03  0.00000000000E+00 0.  1.
        -13    1    4    4    0    0  0.31632508214E+02  0.15014683932E+02 -0.20510088485E+02  0.40579798412E+02  0.00000000000E+00 0. -1.
         13    1    4    4    0    0 -0.57182964853E+02  0.15682944852E+02  0.94765080423E+01  0.60047068482E+02  0.00000000000E+00 0.  1.
         -3    1    1    2    0  502  0.35321078518E+02  0.27273835189E+01 -0.69783776335E+02  0.78261054479E+02  0.00000000000E+00 0.  1.
<scales pt_clust_5="13000.00000" pt_clust_6="13000.00000" pt_clust_7="13000.00000" pt_clust_8="13000.00000" pt_clust_9="35.42622"></scales>
<clustering>
<clus scale="   35.426">  2  9  1 -1</clus>
<clus scale="   79.824">  5  6 -1 -1</clus>
<clus scale="   86.640">  1  5  2 -1</clus>
<clus scale="   91.700">  7  8 -1 -1</clus>
<clus scale="   35.426">  2  5  1 -1</clus>
</clustering>
</event>
<event>
 9    1  0.5981539E-005  0.9690482E+02  0.7546771E-02  0.1292580E+00
         21   -1    0    0  501  502  0.00000000000E+00  0.00000000000E+00  0.26494247018E+02  0.26494247018E+02  0.00000000000E+00 0.  1.
         -2   -1    0    0    0  501 -0.00000000000E+00 -0.00000000000E+00 -0.79863437933E+03  0.79863437933E+03  0.00000000000E+00 0.  1.
        -24    2    1    2    0    0 -0.19821435397E+02  0.29625078264E+02 -0.35567619484E+03  0.36661260309E+03  0.81416893873E+02 0.  0.
         23    2    1    2    0    0 -0.57305752130E+02 -0.34767384048E+02 -0.22569299976E+03  0.25267968769E+03  0.91744069061E+02 0.  0.
         11    1    3    3    0    0  0.96665490276E+01 -0.19945895582E+02 -0.40186260463E+02  0.45893533865E+02  0.00000000000E+00 0. -1.
        -12    1    3    3    0    0 -0.29487984425E+02  0.49570973846E+02 -0.31548993437E+03  0.32071906923E+03  0.00000000000E+00 0.  1.
        -11    1    4    4    0    0 -0.54818216137E+02  0.74830004945E+01 -0.59780192318E+02  0.81453689360E+02  0.00000000000E+00 0.  1.
         11    1    4    4    0    0 -0.24875359926E+01 -0.42250384542E+02 -0.16591280745E+03  0.17122599833E+03  0.00000000000E+00 0. -1.
         -1    1    1    2    0  502  0.77127187527E+02  0.51423057839E+01 -0.19077093771E+03  0.20583633557E+03  0.00000000000E+00 0.  1.
<scales pt_clust_5="13000.00000" pt_clust_6="13000.00000" pt_clust_7="13000.00000" pt_clust_8="13000.00000" pt_clust_9="77.29842"></scales>
<clustering>
<clus scale="   77.298">  1  9  2 -1</clus>
<clus scale="   81.417">  5  6 -1 -1</clus>
<clus scale="   87.191">  2  5  1 -1</clus>
<clus scale="   91.744">  7  8 -1 -1</clus>
<clus scale="   77.298">  1  5  2 -1</clus>
</clustering>
</event>
<event>
 9    1  0.5981539E-005  0.9642750E+02  0.7546771E-02  0.1293195E+00
         21   -1    0    0  501  502  0.00000000000E+00  0.00000000000E+00  0.42527214449E+03  0.42527214449E+03  0.00000000000E+00 0.  1.
          1   -1    0    0  502    0 -0.00000000000E+00 -0.00000000000E+00 -0.42377577461E+02  0.42377577461E+02  0.00000000000E+00 0. -1.
         23    2    1    2    0    0 -0.15589975793E+02 -0.29148867951E+02  0.38381606149E+02  0.10269175821E+03  0.89329422167E+02 0.  0.
        -24    2    1    2    0    0  0.34647680401E+02  0.38864265746E+02  0.31083932212E+03  0.32506436768E+03  0.79591871783E+02 0.  0.
         11    1    4    4    0    0 -0.66419261504E+01 -0.21169984164E+02  0.67808455008E+02  0.71346128017E+02  0.00000000000E+00 0. -1.
        -12    1    4    4    0    0  0.41289606552E+02  0.60034249910E+02  0.24303086711E+03  0.25371823967E+03  0.00000000000E+00 0.  1.
        -13    1    3    3    0    0 -0.42338509836E+02 -0.41769153889E+02  0.42122067339E+02  0.72879902502E+02  0.00000000000E+00 0. -1.
         13    1    3    3    0    0  0.26748534042E+02  0.12620285938E+02 -0.37404611902E+01  0.29811855704E+02  0.00000000000E+00 0.  1.
          2    1    1    2  501    0 -0.19057704608E+02 -0.97153977947E+01  0.33673638758E+02  0.39893596058E+02  0.00000000000E+00 0. -1.
<scales pt_clust_5="13000.00000" pt_clust_6="13000.00000" pt_clust_7="13000.00000" pt_clust_8="13000.00000" pt_clust_9="21.39124"></scales>
<clustering>
<clus scale="   21.391">  1  9  2 -1</clus>
<clus scale="   79.592">  5  6 -1 -1</clus>
<clus scale="   87.484">  1  5  2 -1</clus>
<clus scale="   89.329">  7  8 -1 -1</clus>
<clus scale="   21.391">  1  5  2 -1</clus>
</clustering>
</event>
<event>
 9    1  0.5981539E-005  0.1129723E+03  0.7546771E-02  0.1261555E+00
         21   -1    0    0  501  502  0.00000000000E+00  0.00000000000E+00  0.88806668432E+02  0.88806668432E+02  0.00000000000E+00 0.  1.
          1   -1    0    0  502    0 -0.00000000000E+00 -0.00000000000E+00 -0.24068022127E+03  0.24068022127E+03  0.00000000000E+00 0. -1.
         23    2    1    2    0    0 -0.29843348483E+02 -0.57885471072E+02 -0.59568748253E+02  0.13023916266E+03  0.95772911167E+02 0.  0.
        -24    2    1    2    0    0  0.36578033579E+01  0.55095619965E+02  0.64342558098E+01  0.97057374800E+02  0.79560212988E+02 0.  0.
         13    1    4    4    0    0 -0.55201547049E+01  0.29414179322E+02 -0.35875552907E+02  0.46719603482E+02  0.00000000000E+00 0. -1.
        -14    1    4    4    0    0  0.91779580628E+01  0.25681440642E+02  0.42309808716E+02  0.50337771318E+02  0.00000000000E+00 0.  1.
        -11    1    3    3    0    0 -0.26443526024E+02 -0.83977048780E+02 -0.54190867289E+02  0.10338304933E+03  0.00000000000E+00 0.  1.
         11    1    3    3    0    0 -0.33998224594E+01  0.26091577708E+02 -0.53778809634E+01  0.26856113339E+02  0.00000000000E+00 0. -1.
          2    1    1    2  501    0  0.26185545125E+02  0.27898511076E+01 -0.98739060395E+02  0.10219035224E+03  0.00000000000E+00 0. -1.
<scales pt_clust_5="13000.00000" pt_clust_6="13000.00000" pt_clust_7="13000.00000" pt_clust_8="13000.00000" pt_clust_9="26.33376"></scales>
<clustering>
<clus scale="   26.334">  1  9  2 -1</clus>
<clus scale="   79.560">  5  6 -1 -1</clus>
<clus scale="   95.773">  7  8 -1 -1</clus>
<clus scale="   99.600">  1  5  2 -1</clus>
<clus scale="   26.334">  1  5  2 -1</clus>
</clustering>
</event>
<event>
 9    1  0.5981539E-005  0.9205564E+02  0.7546771E-02  0.1301469E+00
         21   -1    0    0  501  502  0.00000000000E+00  0.00000000000E+00  0.53531016076E+02  0.53531016076E+02  0.00000000000E+00 0.  1.
         -2   -1    0    0    0  501 -0.00000000000E+00 -0.00000000000E+00 -0.48931405666E+03  0.48931405666E+03  0.00000000000E+00 0.  1.
         23    2    1    2    0    0  0.26322943691E+02 -0.21125083355E+02 -0.27341556030E+03  0.29004086393E+03  0.90710901353E+02 0.  0.
        -24    2    1    2    0    0  0.38979086260E+02 -0.35247303381E+02 -0.42522069311E+02  0.10513862841E+03  0.80524923122E+02 0.  0.
         11    1    4    4    0    0 -0.18329585387E+02 -0.13683974725E+02 -0.37208636312E+02  0.43677310826E+02  0.00000000000E+00 0. -1.
        -12    1    4    4    0    0  0.57308671648E+02 -0.21563328656E+02 -0.53134329984E+01  0.61461317583E+02  0.00000000000E+00 0.  1.
        -13    1    3    3    0    0  0.54128500095E+02  0.31020404815E+01 -0.11156025769E+03  0.12403712458E+03  0.00000000000E+00 0.  1.
         13    1    3    3    0    0 -0.27805556404E+02 -0.24227123837E+02 -0.16185530261E+03  0.16600373935E+03  0.00000000000E+00 0. -1.
         -1    1    1    2    0  502 -0.65302029952E+02  0.56372386736E+02 -0.11984541097E+03  0.14766558039E+03  0.00000000000E+00 0.  1.
<scales pt_clust_5="13000.00000" pt_clust_6="13000.00000" pt_clust_7="13000.00000" pt_clust_8="13000.00000" pt_clust_9="86.26824"></scales>
<clustering>
<clus scale="   80.525">  5  6 -1 -1</clus>
<clus scale="   86.268">  1  9  2 -1</clus>
<clus scale="   86.268">  1  5  2 -1</clus>
<clus scale="   90.711">  7  8 -1 -1</clus>
<clus scale="   86.268">  1  5  2 -1</clus>
</clustering>
</event>
<event>
 9    1  0.5981539E-005  0.9456898E+02  0.7546771E-02  0.1298832E+00
         21   -1    0    0  501  502  0.00000000000E+00  0.00000000000E+00  0.61949873410E+03  0.61949873410E+03  0.00000000000E+00 0.  1.
          1   -1    0    0  502    0 -0.00000000000E+00 -0.00000000000E+00 -0.46059822194E+02  0.46059822194E+02  0.00000000000E+00 0. -1.
         23    2    1    2    0    0  0.22707160540E+02 -0.18634749439E+02  0.39868342328E+02  0.10357463839E+03  0.90968961583E+02 0.  0.
        -24    2    1    2    0    0  0.64604223077E+01  0.74516859311E+01  0.52287364665E+03  0.52896524200E+03  0.79436214656E+02 0.  0.
         13    1    4    4    0    0  0.18371614288E+02  0.86990238593E+01  0.31774774584E+02  0.37720359589E+02  0.00000000000E+00 0. -1.
        -14    1    4    4    0    0 -0.11911191981E+02 -0.12473379282E+01  0.49109887207E+03  0.49124488241E+03  0.00000000000E+00 0.  1.
        -11    1    3    3    0    0  0.41251595265E+02 -0.41483060346E+02  0.61555595666E+01  0.58825413906E+02  0.00000000000E+00 0. -1.
         11    1    3    3    0    0 -0.18544434725E+02  0.22848310907E+02  0.33712782761E+02  0.44749224486E+02  0.00000000000E+00 0.  1.
          2    1    1    2  501    0 -0.29167582848E+02  0.11183063508E+02  0.10696922931E+02  0.33018675909E+02  0.00000000000E+00 0. -1.
<scales pt_clust_5="13000.00000" pt_clust_6="13000.00000" pt_clust_7="13000.00000" pt_clust_8="13000.00000" pt_clust_9="31.23795"></scales>
<clustering>
<clus scale="   31.238">  1  9  2 -1</clus>
<clus scale="   79.436">  5  6 -1 -1</clus>
<clus scale="   83.535">  1  5  2 -1</clus>
<clus scale="   90.969">  7  8 -1 -1</clus>
<clus scale="   31.238">  1  5  2 -1</clus>
</clustering>
</event>
<event>
 9    1  0.5981539E-005  0.1385028E+03  0.7546771E-02  0.1218002E+00
          1   -1    0    0  502    0 -0.00000000000E+00  0.00000000000E+00  0.39613775561E+03  0.39613775561E+03  0.00000000000E+00 0. -1.
         21   -1    0    0  501  502  0.00000000000E+00 -0.00000000000E+00 -0.16615297172E+03  0.16615297172E+03  0.00000000000E+00 0.  1.
         23    2    1    2    0    0  0.93075306566E+02  0.55008828966E+02  0.32317669907E+03  0.35280901186E+03  0.91334747317E+02 0.  0.
        -24    2    1    2    0    0 -0.53112563067E+02 -0.40654468921E+02 -0.12042884737E+03  0.15903452531E+03  0.79467872524E+02 0.  0.
         13    1    4    4    0    0 -0.30962399916E+02 -0.89005544796E+01  0.33324911187E+00  0.32218024980E+02  0.00000000000E+00 0. -1.
        -14    1    4    4    0    0 -0.22150163151E+02 -0.31753914441E+02 -0.12076209648E+03  0.12681650033E+03  0.00000000000E+00 0.  1.
        -11    1    3    3    0    0  0.50289944109E+02 -0.83998451420E+01  0.21073261022E+03  0.21681298136E+03  0.00000000000E+00 0.  1.
         11    1    3    3    0    0  0.42785362456E+02  0.63408674108E+02  0.11244408886E+03  0.13599603050E+03  0.00000000000E+00 0. -1.
          2    1    1    2  501    0 -0.39962743498E+02 -0.14354360045E+02  0.27236932179E+02  0.50447190157E+02  0.00000000000E+00 0. -1.
<scales pt_clust_5="13000.00000" pt_clust_6="13000.00000" pt_clust_7="13000.00000" pt_clust_8="13000.00000" pt_clust_9="42.46258"></scales>
<clustering>
<clus scale="   42.463">  2  9  1 -1</clus>
<clus scale="   79.468">  5  6 -1 -1</clus>
<clus scale="   91.335">  7  8 -1 -1</clus>
<clus scale="  130.981">  2  5  1 -1</clus>
<clus scale="   42.463">  2  5  1 -1</clus>
</clustering>
</event>
<event>
 9    1  0.5981539E-005  0.1950257E+03  0.7546771E-02  0.1162638E+00
          1   -1    0    0  502    0 -0.00000000000E+00  0.00000000000E+00  0.10648516507E+04  0.10648516507E+04  0.00000000000E+00 0. -1.
         21   -1    0    0  501  502  0.00000000000E+00 -0.00000000000E+00 -0.29610201903E+03  0.29610201903E+03  0.00000000000E+00 0.  1.
        -24    2    1    2    0    0  0.13702080731E+03 -0.38556933445E+02  0.97197565259E+02  0.18671725727E+03  0.71795743026E+02 0.  0.
         23    2    1    2    0    0  0.70412214369E+02  0.15610744216E+03 -0.19519921232E+03  0.27529016281E+03  0.91403106168E+02 0.  0.
         11    1    3    3    0    0  0.26673924667E+02 -0.39133804739E+02  0.17055840508E+02  0.50337407819E+02  0.00000000000E+00 0. -1.
        -12    1    3    3    0    0  0.11034688264E+03  0.57687129400E+00  0.80141724751E+02  0.13637984945E+03  0.00000000000E+00 0.  1.
        -13    1    4    4    0    0  0.35747079249E+02  0.30457357034E+02 -0.87084063175E+01  0.47763381506E+02  0.00000000000E+00 0. -1.
         13    1    4    4    0    0  0.34665135121E+02  0.12565008513E+03 -0.18649080600E+03  0.22752678130E+03  0.00000000000E+00 0.  1.
          2    1    1    2  501    0 -0.20743302168E+03 -0.11755050872E+03  0.86675127870E+03  0.89894624963E+03  0.00000000000E+00 0. -1.
<scales pt_clust_5="13000.00000" pt_clust_6="13000.00000" pt_clust_7="13000.00000" pt_clust_8="13000.00000" pt_clust_9="172.28034"></scales>
<clustering>
<clus scale="   71.796">  5  6 -1 -1</clus>
<clus scale="   91.403">  7  8 -1 -1</clus>
<clus scale="  159.424">  1  5  2 -1</clus>
<clus scale="  172.280">  2  9  1 -1</clus>
<clus scale="  172.280">  2  5  1 -1</clus>
</clustering>
</event>
<event>
 9    1  0.5981539E-005  0.6022706E+03  0.7546771E-02  0.9900706E-01
         21   -1    0    0  501  502  0.00000000000E+00  0.00000000000E+00  0.12772171484E+03  0.12772171484E+03  0.00000000000E+00 0. -1.
          1   -1    0    0  502    0 -0.00000000000E+00 -0.00000000000E+00 -0.25582760301E+04  0.25582760301E+04  0.00000000000E+00 0. -1.
        -24    2    1    2    0    0 -0.30047216829E+03  0.27109713663E+02 -0.41213934705E+03  0.51678186405E+03  0.78652356197E+02 0.  0.
         23    2    1    2    0    0 -0.23344618085E+03  0.26085986355E+02 -0.75514404945E+03  0.79671742908E+03  0.96636061305E+02 0.  0.
         11    1    3    3    0    0 -0.22375213036E+03 -0.12258421473E+02 -0.31914582096E+03  0.38996069004E+03  0.00000000000E+00 0. -1.
        -12    1    3    3    0    0 -0.76720037934E+02  0.39368135136E+02 -0.92993526083E+02  0.12682117401E+03  0.00000000000E+00 0.  1.
        -11    1    4    4    0    0 -0.40365372354E+02 -0.31701630684E+02 -0.18555109992E+03  0.19251900518E+03  0.00000000000E+00 0.  1.
         11    1    4    4    0    0 -0.19308080849E+03  0.57787617039E+02 -0.56959294952E+03  0.60419842390E+03  0.00000000000E+00 0. -1.
          2    1    1    2  501    0  0.53391834914E+03 -0.53195700018E+02 -0.12632709188E+04  0.13724984518E+04  0.00000000000E+00 0. -1.
<scales pt_clust_5="13000.00000" pt_clust_6="13000.00000" pt_clust_7="13000.00000" pt_clust_8="13000.00000" pt_clust_9="536.56209"></scales>
<clustering>
<clus scale="   78.652">  5  6 -1 -1</clus>
<clus scale="   96.636">  7  8 -1 -1</clus>
<clus scale="  205.860">  5  7 -1 -1</clus>
<clus scale="  536.562">  1  9  2 -1</clus>
<clus scale="  536.562">  1  5  2 -1</clus>
</clustering>
</event>
<event>
 9    1  0.5981539E-005  0.1065327E+03  0.7546771E-02  0.1271969E+00
         -2   -1    0    0    0  501 -0.00000000000E+00  0.00000000000E+00  0.18120406426E+03  0.18120406426E+03  0.00000000000E+00 0.  1.
         21   -1    0    0  501  502  0.00000000000E+00 -0.00000000000E+00 -0.33708816690E+03  0.33708816690E+03  0.00000000000E+00 0.  1.
        -24    2    1    2    0    0 -0.59732009270E+02  0.43493647736E+02  0.12224866656E+03  0.16299032107E+03  0.78495209808E+02 0.  0.
         23    2    1    2    0    0  0.14763246043E+02  0.21446713935E+02 -0.35597021120E+02  0.10022735366E+03  0.90002552946E+02 0.  0.
         11    1    3    3    0    0  0.69966782019E+00  0.47241042221E+02  0.52643742152E+02  0.70735911621E+02  0.00000000000E+00 0. -1.
        -12    1    3    3    0    0 -0.60431677090E+02 -0.37473944843E+01  0.69604924404E+02  0.92254409448E+02  0.00000000000E+00 0.  1.
        -11    1    4    4    0    0  0.20925304762E+02 -0.18472813979E+02  0.17926106778E+02  0.33173159932E+02  0.00000000000E+00 0. -1.
         11    1    4    4    0    0 -0.61620587189E+01  0.39919527915E+02 -0.53523127898E+02  0.67054193728E+02  0.00000000000E+00 0.  1.
         -1    1    1    2    0  502  0.44968763227E+02 -0.64940361672E+02 -0.24253574808E+03  0.25507455643E+03  0.00000000000E+00 0.  1.
<scales pt_clust_5="13000.00000" pt_clust_6="13000.00000" pt_clust_7="13000.00000" pt_clust_8="13000.00000" pt_clust_9="78.99013"></scales>
<clustering>
<clus scale="   78.495">  5  6 -1 -1</clus>
<clus scale="   78.990">  2  9  1 -1</clus>
<clus scale="   90.003">  7  8 -1 -1</clus>
<clus scale="   97.006">  1  5  2 -1</clus>
<clus scale="   78.990">  2  5  1 -1</clus>
</clustering>
</event>
<event>
 9    1  0.5981539E-005  0.1962889E+03  0.7546771E-02  0.1188771E+00
         21   -1    0    0  501  502  0.00000000000E+00  0.00000000000E+00  0.41137414177E+03  0.41137414177E+03  0.00000000000E+00 0. -1.
          3   -1    0    0  502    0 -0.00000000000E+00 -0.00000000000E+00 -0.13781571288E+03  0.13781571288E+03  0.00000000000E+00 0. -1.
        -24    2    1    2    0    0  0.26246106873E+02 -0.16058737777E+02  0.11753805428E+03  0.14594424079E+03  0.80856576915E+02 0.  0.
         23    2    1    2    0    0  0.15023733021E+03  0.67198351746E+02  0.78317696249E+02  0.20374781962E+03  0.91063925846E+02 0.  0.
         13    1    3    3    0    0  0.49967977370E+02 -0.23072544201E+02  0.10419570421E+03  0.11783838862E+03  0.00000000000E+00 0. -1.
        -14    1    3    3    0    0 -0.23721870498E+02  0.70138064242E+01  0.13342350076E+02  0.28105852167E+02  0.00000000000E+00 0.  1.
        -11    1    4    4    0    0  0.76748886950E+02  0.63367575976E+02  0.83586360592E+02  0.12997123147E+03  0.00000000000E+00 0. -1.
         11    1    4    4    0    0  0.73488443259E+02  0.38307757697E+01 -0.52686643430E+01  0.73776588153E+02  0.00000000000E+00 0.  1.
          4    1    1    2  501    0 -0.17648343708E+03 -0.51139613969E+02  0.77702678361E+02  0.19949779424E+03  0.00000000000E+00 0. -1.
<scales pt_clust_5="13000.00000" pt_clust_6="13000.00000" pt_clust_7="13000.00000" pt_clust_8="13000.00000" pt_clust_9="173.88713"></scales>
<clustering>
<clus scale="   80.857">  5  6 -1 -1</clus>
<clus scale="   86.513">  2  5  1 -1</clus>
<clus scale="   91.064">  7  8 -1 -1</clus>
<clus scale="  173.887">  1  9  2 -1</clus>
<clus scale="  173.887">  1  5  2 -1</clus>
</clustering>
</event>
<event>
 9    1  0.5981539E-005  0.1408322E+03  0.7546771E-02  0.1215927E+00
         21   -1    0    0  501  502  0.00000000000E+00  0.00000000000E+00  0.78605804923E+02  0.78605804923E+02  0.00000000000E+00 0.  1.
          1   -1    0    0  502    0 -0.00000000000E+00 -0.00000000000E+00 -0.39220080975E+03  0.39220080975E+03  0.00000000000E+00 0. -1.
        -24    2    1    2    0    0 -0.76664536057E+02  0.65790133114E+02 -0.18924802135E+03  0.22666496639E+03  0.73187435400E+02 0.  0.
         23    2    1    2    0    0  0.98184855833E+02 -0.67328280859E+02 -0.14909827745E+03  0.21130696213E+03  0.90812843741E+02 0.  0.
         11    1    3    3    0    0  0.10094802668E+02  0.21917082955E+02 -0.61978764818E+02  0.66510381554E+02  0.00000000000E+00 0. -1.
        -12    1    3    3    0    0 -0.86759338725E+02  0.43873050159E+02 -0.12726925653E+03  0.16015458484E+03  0.00000000000E+00 0.  1.
        -13    1    4    4    0    0  0.82068570252E+02 -0.24884729803E+02 -0.43067327500E+02  0.95965070200E+02  0.00000000000E+00 0.  1.
         13    1    4    4    0    0  0.16116285581E+02 -0.42443551056E+02 -0.10603094995E+03  0.11534189193E+03  0.00000000000E+00 0. -1.
          2    1    1    2  501    0 -0.21520319775E+02  0.15381477451E+01  0.24751293968E+02  0.32834686154E+02  0.00000000000E+00 0. -1.
<scales pt_clust_5="13000.00000" pt_clust_6="13000.00000" pt_clust_7="13000.00000" pt_clust_8="13000.00000" pt_clust_9="21.57522"></scales>
<clustering>
<clus scale="   21.575">  1  9  2 -1</clus>
<clus scale="   73.187">  5  6 -1 -1</clus>
<clus scale="   90.813">  7  8 -1 -1</clus>
<clus scale="  130.166">  2  5  1 -1</clus>
<clus scale="   21.575">  1  5  2 -1</clus>
</clustering>
</event>
<event>
 9    1  0.5981539E-005  0.1120501E+03  0.7546771E-02  0.1260892E+00
         21   -1    0    0  501  502  0.00000000000E+00  0.00000000000E+00  0.25909531801E+02  0.25909531801E+02  0.00000000000E+00 0.  1.
          1   -1    0    0  502    0 -0.00000000000E+00 -0.00000000000E+00 -0.82016868583E+03  0.82016868583E+03  0.00000000000E+00 0. -1.
        -24    2    1    2    0    0  0.28490320730E+02  0.79369052946E+02 -0.47046126783E+03  0.48470814135E+03  0.80604173700E+02 0.  0.
         23    2    1    2    0    0 -0.36639802038E+02 -0.20217224499E+02 -0.21163691440E+03  0.23430538233E+03  0.91420005436E+02 0.  0.
         11    1    3    3    0    0  0.45786836119E+02  0.21487591662E+02 -0.29071043713E+03  0.29507746307E+03  0.00000000000E+00 0. -1.
        -12    1    3    3    0    0 -0.17296515388E+02  0.57881461284E+02 -0.17975083070E+03  0.18963067827E+03  0.00000000000E+00 0.  1.
        -13    1    4    4    0    0  0.22002822161E+02 -0.62251273736E+01 -0.12122778483E+02  0.25881231656E+02  0.00000000000E+00 0.  1.
         13    1    4    4    0    0 -0.58642624199E+02 -0.13992097125E+02 -0.19951413592E+03  0.20842415068E+03  0.00000000000E+00 0. -1.
          2    1    1    2  501    0  0.81494813073E+01 -0.59151828447E+02 -0.11216097180E+03  0.12706469395E+03  0.00000000000E+00 0. -1.
<scales pt_clust_5="13000.00000" pt_clust_6="13000.00000" pt_clust_7="13000.00000" pt_clust_8="13000.00000" pt_clust_9="59.71058"></scales>
<clustering>
<clus scale="   59.711">  1  9  2 -1</clus>
<clus scale="   80.604">  5  6 -1 -1</clus>
<clus scale="   91.420">  7  8 -1 -1</clus>
<clus scale="  103.415">  2  5  1 -1</clus>
<clus scale="   59.711">  1  5  2 -1</clus>
</clustering>
</event>
<event>
 9    1  0.5981539E-005  0.1220118E+03  0.7546771E-02  0.1242888E+00
          1   -1    0    0  502    0 -0.00000000000E+00  0.00000000000E+00  0.28976435365E+03  0.28976435365E+03  0.00000000000E+00 0. -1.
         21   -1    0    0  501  502  0.00000000000E+00 -0.00000000000E+00 -0.11019360058E+03  0.11019360058E+03  0.00000000000E+00 0. -1.
        -24    2    1    2    0    0  0.88271526350E+02  0.31813959136E+02  0.20742856351E+03  0.24131654350E+03  0.80019215504E+02 0.  0.
         23    2    1    2    0    0 -0.47331207659E+02  0.28996759835E+00 -0.56458315769E+01  0.10207159712E+03  0.90257455234E+02 0.  0.
         11    1    3    3    0    0  0.49380764689E+02  0.54892287352E+02  0.15752581135E+03  0.17397127456E+03  0.00000000000E+00 0. -1.
        -12    1    3    3    0    0  0.38890761661E+02 -0.23078328215E+02  0.49902752161E+02  0.67345268944E+02  0.00000000000E+00 0.  1.
        -11    1    4    4    0    0  0.21791998614E+02 -0.20307025126E+02 -0.19156054410E+01  0.29848551343E+02  0.00000000000E+00 0.  1.
         11    1    4    4    0    0 -0.69123206273E+02  0.20596992724E+02 -0.37302261359E+01  0.72223045780E+02  0.00000000000E+00 0. -1.
          2    1    1    2  501    0 -0.40940318691E+02 -0.32103926735E+02 -0.22211978860E+02  0.56569813604E+02  0.00000000000E+00 0. -1.
<scales pt_clust_5="13000.00000" pt_clust_6="13000.00000" pt_clust_7="13000.00000" pt_clust_8="13000.00000" pt_clust_9="52.02665"></scales>
<clustering>
<clus scale="   52.027">  2  9  1 -1</clus>
<clus scale="   80.019">  5  6 -1 -1</clus>
<clus scale="   90.257">  7  8 -1 -1</clus>
<clus scale="  114.645">  1  5  2 -1</clus>
<clus scale="   52.027">  2  5  1 -1</clus>
</clustering>
</event>
<event>
 9    1  0.5981539E-005  0.2015579E+03  0.7546771E-02  0.1184276E+00
         21   -1    0    0  501  502  0.00000000000E+00  0.00000000000E+00  0.27814617595E+03  0.27814617595E+03  0.00000000000E+00 0.  1.
         -4   -1    0    0    0  501 -0.00000000000E+00 -0.00000000000E+00 -0.22366247714E+03  0.22366247714E+03  0.00000000000E+00 0.  1.
        -24    2    1    2    0    0  0.29899931785E+02 -0.13151041588E+02 -0.36128355217E+02  0.95404389176E+02  0.82035258321E+02 0.  0.
         23    2    1    2    0    0 -0.15746109669E+03  0.10738148533E+03  0.12128681492E+03  0.24487356010E+03  0.94486975827E+02 0.  0.
         13    1    3    3    0    0  0.54061425852E+02  0.75073309750E+01 -0.13042311697E+02  0.56116839521E+02  0.00000000000E+00 0. -1.
        -14    1    3    3    0    0 -0.24161494066E+02 -0.20658372563E+02 -0.23086043520E+02  0.39287549655E+02  0.00000000000E+00 0.  1.
        -13    1    4    4    0    0 -0.84458259970E+02  0.10669910934E+03  0.99855465725E+02  0.16878688233E+03  0.00000000000E+00 0.  1.
         13    1    4    4    0    0 -0.73002836717E+02  0.68237598941E+00  0.21431349191E+02  0.76086677769E+02  0.00000000000E+00 0. -1.
         -3    1    1    2    0  502  0.12756116490E+03 -0.94230443743E+02 -0.30674760884E+02  0.16153070381E+03  0.00000000000E+00 0.  1.
<scales pt_clust_5="13000.00000" pt_clust_6="13000.00000" pt_clust_7="13000.00000" pt_clust_8="13000.00000" pt_clust_9="178.03889"></scales>
<clustering>
<clus scale="   82.035">  5  6 -1 -1</clus>
<clus scale="   88.299">  2  5  1 -1</clus>
<clus scale="   94.487">  7  8 -1 -1</clus>
<clus scale="  178.039">  1  9  2 -1</clus>
<clus scale="  178.039">  1  5  2 -1</clus>
</clustering>
</event>
<event>
 9    1  0.5981539E-005  0.1811844E+03  0.7546771E-02  0.1168079E+00
         21   -1    0    0  501  502  0.00000000000E+00  0.00000000000E+00  0.18669083926E+03  0.18669083926E+03  0.00000000000E+00 0. -1.
          1   -1    0    0  502    0 -0.00000000000E+00 -0.00000000000E+00 -0.37738325782E+03  0.37738325782E+03  0.00000000000E+00 0. -1.
         23    2    1    2    0    0  0.18112299251E+03  0.44011778298E+02 -0.25349531402E+03  0.32825191494E+03  0.93524704693E+02 0.  0.
        -24    2    1    2    0    0 -0.75257770469E+02 -0.19363757671E+02  0.58518529700E+02  0.12704109026E+03  0.81708831653E+02 0.  0.
         11    1    4    4    0    0 -0.11589778555E+02  0.17916401969E+02  0.47982226717E+02  0.52512993698E+02  0.00000000000E+00 0. -1.
        -12    1    4    4    0    0 -0.63667991914E+02 -0.37280159640E+02  0.10536302984E+02  0.74528096566E+02  0.00000000000E+00 0.  1.
        -13    1    3    3    0    0  0.25502150953E+02  0.38535572233E+02 -0.97200860940E+02  0.10762600707E+03  0.00000000000E+00 0. -1.
         13    1    3    3    0    0  0.15562084156E+03  0.54762060645E+01 -0.15629445308E+03  0.22062590787E+03  0.00000000000E+00 0.  1.
          2    1    1    2  501    0 -0.10586522205E+03 -0.24648020627E+02  0.42843657492E+01  0.10878109187E+03  0.00000000000E+00 0. -1.
<scales pt_clust_5="13000.00000" pt_clust_6="13000.00000" pt_clust_7="13000.00000" pt_clust_8="13000.00000" pt_clust_9="108.69669"></scales>
<clustering>
<clus scale="   81.709">  5  6 -1 -1</clus>
<clus scale="   93.525">  7  8 -1 -1</clus>
<clus scale="  108.697">  1  9  2 -1</clus>
<clus scale="  175.377">  1  5  2 -1</clus>
<clus scale="  108.697">  1  5  2 -1</clus>
</clustering>
</event>
<event>
 9    1  0.5981539E-005  0.9313650E+02  0.7546771E-02  0.1301682E+00
         21   -1    0    0  501  502  0.00000000000E+00  0.00000000000E+00  0.15173306586E+03  0.15173306586E+03  0.00000000000E+00 0.  1.
         -4   -1    0    0    0  501 -0.00000000000E+00 -0.00000000000E+00 -0.97992821748E+02  0.97992821748E+02  0.00000000000E+00 0.  1.
        -24    2    1    2    0    0 -0.24804496679E+02 -0.14519602081E+02 -0.85366485349E+01  0.85807965833E+02  0.80399320471E+02 0.  0.
         23    2    1    2    0    0 -0.26244302058E+02  0.28181307059E+02  0.37617309754E+02  0.10560225438E+03  0.90850562344E+02 0.  0.
         11    1    3    3    0    0  0.21135341699E+02 -0.29986014057E+02 -0.61299323996E+00  0.36691136102E+02  0.00000000000E+00 0. -1.
        -12    1    3    3    0    0 -0.45939838378E+02  0.15466411976E+02 -0.79236552949E+01  0.49116829731E+02  0.00000000000E+00 0.  1.
        -13    1    4    4    0    0 -0.26545084222E+02  0.52255608250E+02 -0.26665426338E+01  0.58671974056E+02  0.00000000000E+00 0.  1.
         13    1    4    4    0    0  0.30078216413E+00 -0.24074301192E+02  0.40283852388E+02  0.46930280321E+02  0.00000000000E+00 0. -1.
         -3    1    1    2    0  502  0.51048798737E+02 -0.13661704977E+02  0.24659582889E+02  0.58315667394E+02  0.00000000000E+00 0.  1.
<scales pt_clust_5="13000.00000" pt_clust_6="13000.00000" pt_clust_7="13000.00000" pt_clust_8="13000.00000" pt_clust_9="52.84527"></scales>
<clustering>
<clus scale="   52.845">  1  9  2 -1</clus>
<clus scale="   80.399">  5  6 -1 -1</clus>
<clus scale="   82.974">  2  5  1 -1</clus>
<clus scale="   90.851">  7  8 -1 -1</clus>
<clus scale="   52.845">  1  5  2 -1</clus>
</clustering>
</event>
<event>
 9    1  0.5981539E-005  0.1055466E+03  0.7546771E-02  0.1272477E+00
         21   -1    0    0  501  502  0.00000000000E+00  0.00000000000E+00  0.19733632466E+03  0.19733632466E+03  0.00000000000E+00 0.  1.
          1   -1    0    0  502    0 -0.00000000000E+00 -0.00000000000E+00 -0.23341210705E+03  0.23341210705E+03  0.00000000000E+00 0. -1.
        -24    2    1    2    0    0 -0.52857334276E+02  0.20067011675E+02 -0.18627687542E+03  0.21072375083E+03  0.80677395242E+02 0.  0.
         23    2    1    2    0    0  0.43065875822E+02 -0.54602433339E+02  0.71613515034E+02  0.13362690648E+03  0.88834448341E+02 0.  0.
         13    1    3    3    0    0 -0.38635228080E+02 -0.13472718056E+02 -0.16165544577E+03  0.16675334518E+03  0.00000000000E+00 0. -1.
        -14    1    3    3    0    0 -0.14222106197E+02  0.33539729731E+02 -0.24621429646E+02  0.43970405649E+02  0.00000000000E+00 0.  1.
        -13    1    4    4    0    0 -0.15803261764E+02 -0.29178130826E+02 -0.51757087889E+01  0.33584138553E+02  0.00000000000E+00 0. -1.
         13    1    4    4    0    0  0.58869137586E+02 -0.25424302513E+02  0.76789223823E+02  0.10004276792E+03  0.00000000000E+00 0.  1.
          2    1    1    2  501    0  0.97914584542E+01  0.34535421664E+02  0.78587577997E+02  0.86397774413E+02  0.00000000000E+00 0. -1.
<scales pt_clust_5="13000.00000" pt_clust_6="13000.00000" pt_clust_7="13000.00000" pt_clust_8="13000.00000" pt_clust_9="35.89663"></scales>
<clustering>
<clus scale="   35.897">  1  9  2 -1</clus>
<clus scale="   80.677">  5  6 -1 -1</clus>
<clus scale="   88.834">  7  8 -1 -1</clus>
<clus scale="   98.779">  2  5  1 -1</clus>
<clus scale="   35.897">  1  5  2 -1</clus>
</clustering>
</event>
<event>
 9    1  0.5981539E-005  0.9954142E+02  0.7546771E-02  0.1287445E+00
          3   -1    0    0  502    0 -0.00000000000E+00  0.00000000000E+00  0.82488884371E+02  0.82488884371E+02  0.00000000000E+00 0. -1.
         21   -1    0    0  501  502  0.00000000000E+00 -0.00000000000E+00 -0.20425881452E+03  0.20425881452E+03  0.00000000000E+00 0. -1.
         23    2    1    2    0    0  0.22478270215E+02  0.42697290155E+02  0.49031142200E+01  0.10388223044E+03  0.91864824893E+02 0.  0.
        -24    2    1    2    0    0 -0.37738295791E+01 -0.25673382102E+02 -0.40792732524E+02  0.93338391504E+02  0.79841367495E+02 0.  0.
         13    1    4    4    0    0 -0.83305605633E+01 -0.45187837111E+02  0.20979747340E+01  0.45997177740E+02  0.00000000000E+00 0. -1.
        -14    1    4    4    0    0  0.45567309842E+01  0.19514455009E+02 -0.42890707258E+02  0.47341213764E+02  0.00000000000E+00 0.  1.
        -13    1    3    3    0    0  0.29512054665E+02  0.21245416778E+02 -0.39733325572E+02  0.53861547189E+02  0.00000000000E+00 0. -1.
         13    1    3    3    0    0 -0.70337844493E+01  0.21451873377E+02  0.44636439792E+02  0.50020683246E+02  0.00000000000E+00 0.  1.
          4    1    1    2  501    0 -0.18704440636E+02 -0.17023908053E+02 -0.85880311849E+02  0.89527076956E+02  0.00000000000E+00 0. -1.
<scales pt_clust_5="13000.00000" pt_clust_6="13000.00000" pt_clust_7="13000.00000" pt_clust_8="13000.00000" pt_clust_9="25.29169"></scales>
<clustering>
<clus scale="   25.292">  2  9  1 -1</clus>
<clus scale="   79.841">  5  6 -1 -1</clus>
<clus scale="   88.566">  2  5  1 -1</clus>
<clus scale="   91.865">  7  8 -1 -1</clus>
<clus scale="   25.292">  2  5  1 -1</clus>
</clustering>
</event>
<event>
 9    1  0.5981539E-005  0.1130663E+03  0.7546771E-02  0.1259160E+00
          1   -1    0    0  502    0 -0.00000000000E+00  0.00000000000E+00  0.36225440474E+03  0.36225440474E+03  0.00000000000E+00 0. -1.
         21   -1    0    0  501  502  0.00000000000E+00 -0.00000000000E+00 -0.80408131200E+02  0.80408131200E+02  0.00000000000E+00 0.  1.
         23    2    1    2    0    0  0.17594834103E+01 -0.65190675097E+02  0.15310862457E+03  0.18969002374E+03  0.91033698628E+02 0.  0.
        -24    2    1    2    0    0  0.32574525606E+02  0.71919754385E+02 -0.74008869812E+01  0.11241005045E+03  0.79672426378E+02 0.  0.
         13    1    4    4    0    0  0.43738205037E+02  0.53433504150E+01  0.27315470335E+01  0.44147970765E+02  0.00000000000E+00 0. -1.
        -14    1    4    4    0    0 -0.11163679431E+02  0.66576403969E+02 -0.10132434015E+02  0.68262079686E+02  0.00000000000E+00 0.  1.
        -11    1    3    3    0    0 -0.43181921587E+02 -0.46039303851E+02  0.85100196368E+02  0.10595442073E+03  0.00000000000E+00 0. -1.
         11    1    3    3    0    0  0.44941404998E+02 -0.19151371246E+02  0.68008428201E+02  0.83735603002E+02  0.00000000000E+00 0.  1.
          2    1    1    2  501    0 -0.34334009016E+02 -0.67290792872E+01  0.13613853595E+03  0.14056246176E+03  0.00000000000E+00 0. -1.
<scales pt_clust_5="13000.00000" pt_clust_6="13000.00000" pt_clust_7="13000.00000" pt_clust_8="13000.00000" pt_clust_9="34.98722"></scales>
<clustering>
<clus scale="   34.987">  2  9  1 -1</clus>
<clus scale="   79.672">  5  6 -1 -1</clus>
<clus scale="   91.034">  7  8 -1 -1</clus>
<clus scale="  104.137">  2  5  1 -1</clus>
<clus scale="   34.987">  2  5  1 -1</clus>
</clustering>
</event>
<event>
 9    1  0.5981539E-005  0.1282822E+03  0.7546771E-02  0.1233262E+00
         21   -1    0    0  501  502  0.00000000000E+00  0.00000000000E+00  0.12722458074E+03  0.12722458074E+03  0.00000000000E+00 0. -1.
          1   -1    0    0  502    0 -0.00000000000E+00 -0.00000000000E+00 -0.37669363550E+03  0.37669363550E+03  0.00000000000E+00 0. -1.
        -24    2    1    2    0    0 -0.91175824492E+02 -0.49216745515E+02 -0.25815235504E+03  0.28930000025E+03  0.79476617432E+02 0.  0.
         23    2    1    2    0    0  0.53164194161E+02  0.32681161390E+02 -0.66204798769E+02  0.12902302359E+03  0.91484290374E+02 0.  0.
         11    1    3    3    0    0 -0.64532538787E+02 -0.70706714544E+02 -0.20204071626E+03  0.22357177611E+03  0.00000000000E+00 0. -1.
        -12    1    3    3    0    0 -0.26643285704E+02  0.21489969029E+02 -0.56111638776E+02  0.65728224137E+02  0.00000000000E+00 0.  1.
        -13    1    4    4    0    0 -0.16555472408E+02  0.34670095565E+02 -0.10691811996E+02  0.39879995447E+02  0.00000000000E+00 0. -1.
         13    1    4    4    0    0  0.69719666569E+02 -0.19889341742E+01 -0.55512986773E+02  0.89143028141E+02  0.00000000000E+00 0.  1.
          2    1    1    2  501    0  0.38011630331E+02  0.16535584125E+02  0.74888099056E+02  0.85595192405E+02  0.00000000000E+00 0. -1.
<scales pt_clust_5="13000.00000" pt_clust_6="13000.00000" pt_clust_7="13000.00000" pt_clust_8="13000.00000" pt_clust_9="41.45250"></scales>
<clustering>
<clus scale="   41.452">  1  9  2 -1</clus>
<clus scale="   79.477">  5  6 -1 -1</clus>
<clus scale="   91.484">  7  8 -1 -1</clus>
<clus scale="  120.015">  2  5  1 -1</clus>
<clus scale="   41.452">  1  5  2 -1</clus>
</clustering>
</event>
<event>
 9    1  0.5981539E-005  0.9993352E+02  0.7546771E-02  0.1290471E+00
          1   -1    0    0  502    0 -0.00000000000E+00  0.00000000000E+00  0.16704383774E+03  0.16704383774E+03  0.00000000000E+00 0. -1.
         21   -1    0    0  501  502  0.00000000000E+00 -0.00000000000E+00 -0.18586355596E+03  0.18586355596E+03  0.00000000000E+00 0. -1.
         23    2    1    2    0    0  0.40018880562E+01 -0.17876204552E+02  0.25786772578E+02  0.10109744593E+03  0.96021675349E+02 0.  0.
        -24    2    1    2    0    0  0.25271636918E+02  0.63602389255E+02 -0.12018766190E+03  0.15874901796E+03  0.77924688511E+02 0.  0.
         13    1    4    4    0    0  0.33101401536E+02  0.78132845983E+02 -0.86161385196E+02  0.12093067727E+03  0.00000000000E+00 0. -1.
        -14    1    4    4    0    0 -0.78297646180E+01 -0.14530456728E+02 -0.34026276705E+02  0.37818340698E+02  0.00000000000E+00 0.  1.
        -13    1    3    3    0    0 -0.34764785214E+02 -0.13961325438E+02  0.44251199131E+02  0.57979975194E+02  0.00000000000E+00 0.  1.
         13    1    3    3    0    0  0.38766673270E+02 -0.39148791142E+01 -0.18464426553E+02  0.43117470738E+02  0.00000000000E+00 0. -1.
          2    1    1    2  501    0 -0.29273524974E+02 -0.45726184703E+02  0.75581171095E+02  0.93060929805E+02  0.00000000000E+00 0. -1.
<scales pt_clust_5="13000.00000" pt_clust_6="13000.00000" pt_clust_7="13000.00000" pt_clust_8="13000.00000" pt_clust_9="54.29389"></scales>
<clustering>
<clus scale="   54.294">  2  9  1 -1</clus>
<clus scale="   77.925">  5  6 -1 -1</clus>
<clus scale="   82.697">  2  5  1 -1</clus>
<clus scale="   96.022">  7  8 -1 -1</clus>
<clus scale="   54.294">  2  5  1 -1</clus>
</clustering>
</event>
<event>
 9    1  0.5981539E-005  0.1081507E+03  0.7546771E-02  0.1266386E+00
         21   -1    0    0  501  502  0.00000000000E+00  0.00000000000E+00  0.13629895000E+03  0.13629895000E+03  0.00000000000E+00 0. -1.
          1   -1    0    0  502    0 -0.00000000000E+00 -0.00000000000E+00 -0.31860329217E+03  0.31860329217E+03  0.00000000000E+00 0. -1.
        -24    2    1    2    0    0 -0.31362604084E+02  0.60757988278E+02 -0.20269888191E+03  0.22827467838E+03  0.79670232736E+02 0.  0.
         23    2    1    2    0    0  0.52909957663E+02 -0.18609961906E+02  0.93997220888E+02  0.13911699732E+03  0.85861907194E+02 0.  0.
         11    1    3    3    0    0 -0.36459839835E+02  0.72406744271E+02 -0.19923397954E+03  0.21509587430E+03  0.00000000000E+00 0. -1.
        -12    1    3    3    0    0  0.50972357517E+01 -0.11648755993E+02 -0.34649023756E+01  0.13178804080E+02  0.00000000000E+00 0.  1.
        -13    1    4    4    0    0 -0.13061598903E+02 -0.24877592103E+02  0.56185946182E+02  0.62820064494E+02  0.00000000000E+00 0.  1.
         13    1    4    4    0    0  0.65971556565E+02  0.62676301963E+01  0.37811274706E+02  0.76296932827E+02  0.00000000000E+00 0. -1.
          2    1    1    2  501    0 -0.21547353579E+02 -0.42148026371E+02 -0.73602681145E+02  0.87510566476E+02  0.00000000000E+00 0. -1.
<scales pt_clust_5="13000.00000" pt_clust_6="13000.00000" pt_clust_7="13000.00000" pt_clust_8="13000.00000" pt_clust_9="47.33653"></scales>
<clustering>
<clus scale="   47.337">  1  9  2 -1</clus>
<clus scale="   79.670">  5  6 -1 -1</clus>
<clus scale="   85.862">  7  8 -1 -1</clus>
<clus scale="  103.304">  2  5  1 -1</clus>
<clus scale="   47.337">  1  5  2 -1</clus>
</clustering>
</event>
<event>
 9    1  0.5981539E-005  0.1366339E+03  0.7546771E-02  0.1223811E+00
         21   -1    0    0  501  502  0.00000000000E+00  0.00000000000E+00  0.80969466845E+02  0.80969466845E+02  0.00000000000E+00 0. -1.
         -2   -1    0    0    0  501 -0.00000000000E+00 -0.00000000000E+00 -0.49098583383E+03  0.49098583383E+03  0.00000000000E+00 0.  1.
         23    2    1    2    0    0 -0.16347534020E+02  0.75972187324E+02 -0.20672851877E+03  0.23942920808E+03  0.92469725283E+02 0.  0.
        -24    2    1    2    0    0 -0.10411441801E+03 -0.18873786511E+02 -0.10703791081E+03  0.16810176437E+03  0.74866928478E+02 0.  0.
         11    1    4    4    0    0 -0.11608694597E+03 -0.19036104163E+02 -0.96603029311E+02  0.15221924175E+03  0.00000000000E+00 0. -1.
        -12    1    4    4    0    0  0.11972527965E+02  0.16231765197E+00 -0.10434881502E+02  0.15882522623E+02  0.00000000000E+00 0.  1.
        -11    1    3    3    0    0  0.78075138381E+01  0.45857736564E+02 -0.23383919754E+02  0.52064354199E+02  0.00000000000E+00 0.  1.
         11    1    3    3    0    0 -0.24155047858E+02  0.30114450760E+02 -0.18334459901E+03  0.18736485388E+03  0.00000000000E+00 0. -1.
         -1    1    1    2    0  502  0.12046195203E+03 -0.57098400813E+02 -0.96249937399E+02  0.16442432822E+03  0.00000000000E+00 0.  1.
<scales pt_clust_5="13000.00000" pt_clust_6="13000.00000" pt_clust_7="13000.00000" pt_clust_8="13000.00000" pt_clust_9="114.29692"></scales>
<clustering>
<clus scale="   74.867">  5  6 -1 -1</clus>
<clus scale="   92.470">  7  8 -1 -1</clus>
<clus scale="  120.788">  2  7  1 -1</clus>
<clus scale="  114.297">  1  9  2 -1</clus>
<clus scale="  114.297">  1  5  2 -1</clus>
</clustering>
</event>
<event>
 9    1  0.5981539E-005  0.1060274E+03  0.7546771E-02  0.1271801E+00
          1   -1    0    0  502    0 -0.00000000000E+00  0.00000000000E+00  0.11104291688E+04  0.11104291688E+04  0.00000000000E+00 0. -1.
         21   -1    0    0  501  502  0.00000000000E+00 -0.00000000000E+00 -0.17544649810E+02  0.17544649810E+02  0.00000000000E+00 0. -1.
        -24    2    1    2    0    0  0.20257544744E+02 -0.67880095173E+02  0.46023149715E+03  0.47292508323E+03  0.82625830943E+02 0.  0.
         23    2    1    2    0    0 -0.43255000711E+02  0.13586844872E+02  0.29035398719E+03  0.30770845679E+03  0.91232993278E+02 0.  0.
         11    1    3    3    0    0  0.23737402528E+02 -0.67158490057E+02  0.19389302283E+03  0.20656289930E+03  0.00000000000E+00 0. -1.
        -12    1    3    3    0    0 -0.34798577846E+01 -0.72160511600E+00  0.26633847431E+03  0.26636218392E+03  0.00000000000E+00 0.  1.
        -11    1    4    4    0    0 -0.14966771789E+02 -0.39026078511E+02  0.10725812795E+03  0.11511448680E+03  0.00000000000E+00 0. -1.
         11    1    4    4    0    0 -0.28288228921E+02  0.52612923383E+02  0.18309585925E+03  0.19259396999E+03  0.00000000000E+00 0.  1.
          2    1    1    2  501    0  0.22997455967E+02  0.54293250301E+02  0.34229903467E+03  0.34734027861E+03  0.00000000000E+00 0. -1.
<scales pt_clust_5="13000.00000" pt_clust_6="13000.00000" pt_clust_7="13000.00000" pt_clust_8="13000.00000" pt_clust_9="58.96307"></scales>
<clustering>
<clus scale="   58.963">  2  9  1 -1</clus>
<clus scale="   82.626">  5  6 -1 -1</clus>
<clus scale="   91.233">  7  8 -1 -1</clus>
<clus scale="   98.719">  1  5  2 -1</clus>
<clus scale="   58.963">  2  5  1 -1</clus>
</clustering>
</event>
<event>
 9    1  0.5981539E-005  0.1049362E+03  0.7546771E-02  0.1273510E+00
          1   -1    0    0  502    0 -0.00000000000E+00  0.00000000000E+00  0.17425930867E+03  0.17425930867E+03  0.00000000000E+00 0. -1.
         21   -1    0    0  501  502  0.00000000000E+00 -0.00000000000E+00 -0.23910075403E+03  0.23910075403E+03  0.00000000000E+00 0. -1.
        -24    2    1    2    0    0 -0.53691910434E+02 -0.64605412240E+01  0.12485391271E+03  0.15789602522E+03  0.80113016559E+02 0.  0.
         23    2    1    2    0    0  0.92649858775E+02  0.16061067577E+02 -0.16110035656E+03  0.20619370203E+03  0.87866738011E+02 0.  0.
         11    1    3    3    0    0 -0.67859719224E+02  0.16237222140E+02  0.86572674014E+02  0.11119090233E+03  0.00000000000E+00 0. -1.
        -12    1    3    3    0    0  0.14167808790E+02 -0.22697763364E+02  0.38281238697E+02  0.46705122886E+02  0.00000000000E+00 0.  1.
        -11    1    4    4    0    0  0.13056424783E+02  0.19226809727E+02 -0.10797273095E+03  0.11044569285E+03  0.00000000000E+00 0.  1.
         11    1    4    4    0    0  0.79593433992E+02 -0.31657421501E+01 -0.53127625610E+02  0.95748009175E+02  0.00000000000E+00 0. -1.
          2    1    1    2  501    0 -0.38957948341E+02 -0.96005263532E+01 -0.28595001507E+02  0.49270335460E+02  0.00000000000E+00 0. -1.
<scales pt_clust_5="13000.00000" pt_clust_6="13000.00000" pt_clust_7="13000.00000" pt_clust_8="13000.00000" pt_clust_9="40.12346"></scales>
<clustering>
<clus scale="   40.123">  2  9  1 -1</clus>
<clus scale="   80.113">  5  6 -1 -1</clus>
<clus scale="   87.867">  7  8 -1 -1</clus>
<clus scale="   98.535">  1  5  2 -1</clus>
<clus scale="   40.123">  2  5  1 -1</clus>
</clustering>
</event>
<event>
 9    1  0.5981539E-005  0.1050354E+03  0.7546771E-02  0.1275578E+00
         21   -1    0    0  501  502  0.00000000000E+00  0.00000000000E+00  0.69918031020E+02  0.69918031020E+02  0.00000000000E+00 0. -1.
          1   -1    0    0  502    0 -0.00000000000E+00 -0.00000000000E+00 -0.26098073519E+03  0.26098073519E+03  0.00000000000E+00 0. -1.
        -24    2    1    2    0    0 -0.37974774587E+02 -0.23627586772E+00 -0.78576424944E+02  0.11739481098E+03  0.78518454888E+02 0.  0.
         23    2    1    2    0    0  0.65477175346E+02 -0.30249826480E+02 -0.12497211774E+03  0.17058914837E+03  0.90996235285E+02 0.  0.
         11    1    3    3    0    0 -0.57843136256E+01  0.29009426878E+02 -0.24006576330E+01  0.29677740632E+02  0.00000000000E+00 0. -1.
        -12    1    3    3    0    0 -0.32190460961E+02 -0.29245702746E+02 -0.76175767311E+02  0.87717070353E+02  0.00000000000E+00 0.  1.
        -11    1    4    4    0    0  0.88544110114E+02 -0.25803776771E+02 -0.93678314867E+02  0.13145919902E+03  0.00000000000E+00 0. -1.
         11    1    4    4    0    0 -0.23066934768E+02 -0.44460497083E+01 -0.31293802877E+02  0.39129949350E+02  0.00000000000E+00 0.  1.
          2    1    1    2  501    0 -0.27502400759E+02  0.30486102347E+02  0.12485838516E+02  0.42914806854E+02  0.00000000000E+00 0. -1.
<scales pt_clust_5="13000.00000" pt_clust_6="13000.00000" pt_clust_7="13000.00000" pt_clust_8="13000.00000" pt_clust_9="41.05831"></scales>
<clustering>
<clus scale="   41.058">  1  9  2 -1</clus>
<clus scale="   78.518">  5  6 -1 -1</clus>
<clus scale="   90.996">  7  8 -1 -1</clus>
<clus scale="   94.431">  2  5  1 -1</clus>
<clus scale="   41.058">  1  5  2 -1</clus>
</clustering>
</event>
<event>
 9    1  0.5981539E-005  0.1619147E+03  0.7546771E-02  0.1193562E+00
          1   -1    0    0  502    0 -0.00000000000E+00  0.00000000000E+00  0.36509989522E+03  0.36509989522E+03  0.00000000000E+00 0. -1.
         21   -1    0    0  501  502  0.00000000000E+00 -0.00000000000E+00 -0.16364897069E+03  0.16364897069E+03  0.00000000000E+00 0. -1.
         23    2    1    2    0    0  0.12878506326E+02 -0.10520141419E+03 -0.17675905022E+02  0.13980774396E+03  0.89445928813E+02 0.  0.
        -24    2    1    2    0    0 -0.14607574107E+03  0.44890618105E+02  0.97288485593E+02  0.19861645847E+03  0.81425784760E+02 0.  0.
         11    1    4    4    0    0 -0.24319595870E+02 -0.17427395799E+02  0.40891169987E+02  0.50667984473E+02  0.00000000000E+00 0. -1.
        -12    1    4    4    0    0 -0.12175614520E+03  0.62318013905E+02  0.56397315605E+02  0.14794847400E+03  0.00000000000E+00 0.  1.
        -11    1    3    3    0    0 -0.37501283007E+02 -0.41907614432E+02 -0.17548209833E+02  0.58911238681E+02  0.00000000000E+00 0.  1.
         11    1    3    3    0    0  0.50379789332E+02 -0.63293799759E+02 -0.12769518860E+00  0.80896505284E+02  0.00000000000E+00 0. -1.
          2    1    1    2  501    0  0.13319723474E+03  0.60310796086E+02  0.12183834396E+03  0.19032466347E+03  0.00000000000E+00 0. -1.
<scales pt_clust_5="13000.00000" pt_clust_6="13000.00000" pt_clust_7="13000.00000" pt_clust_8="13000.00000" pt_clust_9="139.95076"></scales>
<clustering>
<clus scale="   81.426">  5  6 -1 -1</clus>
<clus scale="   89.446">  7  8 -1 -1</clus>
<clus scale="  138.686">  1  7  2 -1</clus>
<clus scale="  139.951">  2  9  1 -1</clus>
<clus scale="  139.951">  2  5  1 -1</clus>
</clustering>
</event>
<event>
 9    1  0.5981539E-005  0.1619331E+03  0.7546771E-02  0.1188259E+00
         21   -1    0    0  501  502  0.00000000000E+00  0.00000000000E+00  0.46632319061E+03  0.46632319061E+03  0.00000000000E+00 0. -1.
          1   -1    0    0  502    0 -0.00000000000E+00 -0.00000000000E+00 -0.48747804653E+03  0.48747804653E+03  0.00000000000E+00 0. -1.
        -24    2    1    2    0    0  0.12458435636E+03 -0.29603751426E+02 -0.40501639080E+03  0.43282589453E+03  0.83080287723E+02 0.  0.
         23    2    1    2    0    0 -0.18163086330E+03 -0.59646857166E+01  0.97170921703E+02  0.22650815368E+03  0.94012805927E+02 0.  0.
         13    1    3    3    0    0  0.81287670411E+02 -0.35111642457E+02 -0.15067557990E+03  0.17476739734E+03  0.00000000000E+00 0. -1.
        -14    1    3    3    0    0  0.43296685946E+02  0.55078910311E+01 -0.25434081090E+03  0.25805849718E+03  0.00000000000E+00 0.  1.
        -13    1    4    4    0    0 -0.95399722851E+02 -0.38296366339E+02  0.85441374598E+02  0.13367104132E+03  0.00000000000E+00 0.  1.
         13    1    4    4    0    0 -0.86231140449E+02  0.32331680622E+02  0.11729547104E+02  0.92837112354E+02  0.00000000000E+00 0. -1.
          2    1    1    2  501    0  0.57046506944E+02  0.35568437142E+02  0.28669061318E+03  0.29446718893E+03  0.00000000000E+00 0. -1.
<scales pt_clust_5="13000.00000" pt_clust_6="13000.00000" pt_clust_7="13000.00000" pt_clust_8="13000.00000" pt_clust_9="67.22661"></scales>
<clustering>
<clus scale="   67.227">  1  9  2 -1</clus>
<clus scale="   83.080">  5  6 -1 -1</clus>
<clus scale="   94.013">  7  8 -1 -1</clus>
<clus scale="  155.841">  2  5  1 -1</clus>
<clus scale="   67.227">  1  5  2 -1</clus>
</clustering>
</event>
<event>
 9    1  0.5981539E-005  0.1115680E+03  0.7546771E-02  0.1262067E+00
          3   -1    0    0  502    0 -0.00000000000E+00  0.00000000000E+00  0.31045844488E+03  0.31045844488E+03  0.00000000000E+00 0. -1.
         21   -1    0    0  501  502  0.00000000000E+00 -0.00000000000E+00 -0.70135806188E+02  0.70135806188E+02  0.00000000000E+00 0. -1.
         23    2    1    2    0    0  0.51902780451E+02 -0.47571538537E+02  0.22119785525E+03  0.24959373905E+03  0.91714739866E+02 0.  0.
        -24    2    1    2    0    0 -0.16071070562E+02  0.45477569331E+02  0.12239346382E+02  0.94453208642E+02  0.80281494764E+02 0.  0.
         11    1    4    4    0    0 -0.45570383723E+02  0.39275066214E+02 -0.38519375947E+01  0.60282900743E+02  0.00000000000E+00 0. -1.
        -12    1    4    4    0    0  0.29499313161E+02  0.62025031171E+01  0.16091283977E+02  0.34170307899E+02  0.00000000000E+00 0.  1.
        -13    1    3    3    0    0  0.36501801227E+02 -0.70041482439E+02  0.20014451182E+03  0.21516509095E+03  0.00000000000E+00 0. -1.
         13    1    3    3    0    0  0.15400979224E+02  0.22469943902E+02  0.21053343435E+02  0.34428648098E+02  0.00000000000E+00 0.  1.
          4    1    1    2  501    0 -0.35831709889E+02  0.20939692060E+01  0.68854370604E+01  0.36547303377E+02  0.00000000000E+00 0. -1.
<scales pt_clust_5="13000.00000" pt_clust_6="13000.00000" pt_clust_7="13000.00000" pt_clust_8="13000.00000" pt_clust_9="35.89284"></scales>
<clustering>
<clus scale="   35.893">  2  9  1 -1</clus>
<clus scale="   80.281">  5  6 -1 -1</clus>
<clus scale="   91.715">  7  8 -1 -1</clus>
<clus scale="  102.376">  2  5  1 -1</clus>
<clus scale="   35.893">  2  5  1 -1</clus>
</clustering>
</event>
<event>
 9    1  0.5981539E-005  0.2011066E+03  0.7546771E-02  0.1160104E+00
          1   -1    0    0  502    0 -0.00000000000E+00  0.00000000000E+00  0.11337670389E+04  0.11337670389E+04  0.00000000000E+00 0. -1.
         21   -1    0    0  501  502  0.00000000000E+00 -0.00000000000E+00 -0.69457592984E+02  0.69457592984E+02  0.00000000000E+00 0.  1.
         23    2    1    2    0    0 -0.11776401768E+03  0.40866627830E+02  0.33093714407E+03  0.36510221904E+03  0.90784315224E+02 0.  0.
        -24    2    1    2    0    0 -0.68129558168E+02 -0.15437770362E+03  0.37314069955E+03  0.41716161518E+03  0.79471500875E+02 0.  0.
         13    1    4    4    0    0 -0.69949949048E+02 -0.69296279088E+02  0.23661876522E+03  0.25628774789E+03  0.00000000000E+00 0. -1.
        -14    1    4    4    0    0  0.18203908800E+01 -0.85081424530E+02  0.13652193433E+03  0.16087386729E+03  0.00000000000E+00 0.  1.
        -11    1    3    3    0    0 -0.98233116749E+02  0.11651942732E+02  0.30709884782E+03  0.32263790126E+03  0.00000000000E+00 0.  1.
         11    1    3    3    0    0 -0.19530900935E+02  0.29214685097E+02  0.23838296256E+02  0.42464317786E+02  0.00000000000E+00 0. -1.
          2    1    1    2  501    0  0.18589357585E+03  0.11351107579E+03  0.36023160225E+03  0.42096079761E+03  0.00000000000E+00 0. -1.
<scales pt_clust_5="13000.00000" pt_clust_6="13000.00000" pt_clust_7="13000.00000" pt_clust_8="13000.00000" pt_clust_9="184.73813"></scales>
<clustering>
<clus scale="   79.472">  5  6 -1 -1</clus>
<clus scale="   90.784">  7  8 -1 -1</clus>
<clus scale="  154.208">  1  7  2 -1</clus>
<clus scale="  184.738">  2  9  1 -1</clus>
<clus scale="  184.738">  2  5  1 -1</clus>
</clustering>
</event>
<event>
 9    1  0.5981539E-005  0.1000488E+03  0.7546771E-02  0.1285807E+00
         -2   -1    0    0    0  501 -0.00000000000E+00  0.00000000000E+00  0.10361070381E+03  0.10361070381E+03  0.00000000000E+00 0.  1.
         21   -1    0    0  501  502  0.00000000000E+00 -0.00000000000E+00 -0.20390190861E+03  0.20390190861E+03  0.00000000000E+00 0.  1.
         23    2    1    2    0    0  0.32002499307E+02 -0.79845803183E+01  0.45228346029E+02  0.10765949006E+03  0.91962215228E+02 0.  0.
        -24    2    1    2    0    0 -0.64274477404E+02  0.12875533320E+02 -0.10552985262E+03  0.14823357225E+03  0.80868129342E+02 0.  0.
         11    1    4    4    0    0 -0.30053063609E+02 -0.13888810376E+02  0.10661079097E+01  0.33124345609E+02  0.00000000000E+00 0. -1.
        -12    1    4    4    0    0 -0.34221413795E+02  0.26764343696E+02 -0.10659596053E+03  0.11510922664E+03  0.00000000000E+00 0.  1.
        -11    1    3    3    0    0  0.54445068458E+02 -0.72306929405E+01 -0.24290603987E+01  0.54976801782E+02  0.00000000000E+00 0. -1.
         11    1    3    3    0    0 -0.22442569151E+02 -0.75388737785E+00  0.47657406428E+02  0.52682688273E+02  0.00000000000E+00 0.  1.
         -1    1    1    2    0  502  0.32271978097E+02 -0.48909530015E+01 -0.39989698201E+02  0.51619550112E+02  0.00000000000E+00 0.  1.
<scales pt_clust_5="13000.00000" pt_clust_6="13000.00000" pt_clust_7="13000.00000" pt_clust_8="13000.00000" pt_clust_9="32.64050"></scales>
<clustering>
<clus scale="   32.640">  2  9  1 -1</clus>
<clus scale="   80.868">  5  6 -1 -1</clus>
<clus scale="   89.958">  2  5  1 -1</clus>
<clus scale="   91.962">  7  8 -1 -1</clus>
<clus scale="   32.640">  2  5  1 -1</clus>
</clustering>
</event>
<event>
 9    1  0.5981539E-005  0.1288693E+03  0.7546771E-02  0.1251375E+00
         21   -1    0    0  501  502  0.00000000000E+00  0.00000000000E+00  0.78341750116E+03  0.78341750116E+03  0.00000000000E+00 0. -1.
          1   -1    0    0  502    0 -0.00000000000E+00 -0.00000000000E+00 -0.40201381302E+02  0.40201381302E+02  0.00000000000E+00 0. -1.
        -24    2    1    2    0    0 -0.48654946873E+01 -0.12402958649E+01  0.59637243382E+02  0.10144169077E+03  0.81906070931E+02 0.  0.
         23    2    1    2    0    0 -0.84002764386E+02  0.27007332840E+02  0.26797412010E+03  0.29639694181E+03  0.90857897962E+02 0.  0.
         13    1    3    3    0    0  0.30966563713E+02  0.20333527809E+02  0.14171162648E+02  0.39663613957E+02  0.00000000000E+00 0. -1.
        -14    1    3    3    0    0 -0.35832058401E+02 -0.21573823674E+02  0.45466080734E+02  0.61778076811E+02  0.00000000000E+00 0.  1.
        -13    1    4    4    0    0 -0.17666971447E+02  0.34005473323E+02  0.28365987890E+02  0.47677283532E+02  0.00000000000E+00 0. -1.
         13    1    4    4    0    0 -0.66335792940E+02 -0.69981404831E+01  0.23960813221E+03  0.24871965828E+03  0.00000000000E+00 0.  1.
          2    1    1    2  501    0  0.88868259073E+02 -0.25767036975E+02  0.41560475638E+03  0.42578024988E+03  0.00000000000E+00 0. -1.
<scales pt_clust_5="13000.00000" pt_clust_6="13000.00000" pt_clust_7="13000.00000" pt_clust_8="13000.00000" pt_clust_9="91.39001"></scales>
<clustering>
<clus scale="   81.906">  5  6 -1 -1</clus>
<clus scale="   82.060">  2  5  1 -1</clus>
<clus scale="   90.858">  7  8 -1 -1</clus>
<clus scale="   91.390">  1  9  2 -1</clus>
<clus scale="   91.390">  1  5  2 -1</clus>
</clustering>
</event>
<event>
 9    1  0.5981539E-005  0.1021575E+03  0.7546771E-02  0.1280293E+00
         21   -1    0    0  501  502  0.00000000000E+00  0.00000000000E+00  0.62808207079E+02  0.62808207079E+02  0.00000000000E+00 0.  1.
          1   -1    0    0  502    0 -0.00000000000E+00 -0.00000000000E+00 -0.35110412920E+03  0.35110412920E+03  0.00000000000E+00 0. -1.
         23    2    1    2    0    0 -0.32484343702E+02  0.22344123074E+02 -0.17799637732E+03  0.20355646332E+03  0.90542978734E+02 0.  0.
        -24    2    1    2    0    0  0.78624834682E+02 -0.11190293378E+02 -0.30435176019E+02  0.11744909051E+03  0.80999392757E+02 0.  0.
         11    1    4    4    0    0  0.14482563746E+02  0.31233265125E+02 -0.20071867232E+02  0.39851491280E+02  0.00000000000E+00 0. -1.
        -12    1    4    4    0    0  0.64142270936E+02 -0.42423558503E+02 -0.10363308787E+02  0.77597599228E+02  0.00000000000E+00 0.  1.
        -13    1    3    3    0    0  0.13818237806E+02  0.39526159636E+02 -0.12151992934E+03  0.12853153006E+03  0.00000000000E+00 0.  1.
         13    1    3    3    0    0 -0.46302581507E+02 -0.17182036561E+02 -0.56476447977E+02  0.75024933260E+02  0.00000000000E+00 0. -1.
          2    1    1    2  501    0 -0.46140490980E+02 -0.11153829697E+02 -0.79864368781E+02  0.92906782452E+02  0.00000000000E+00 0. -1.
<scales pt_clust_5="13000.00000" pt_clust_6="13000.00000" pt_clust_7="13000.00000" pt_clust_8="13000.00000" pt_clust_9="47.46952"></scales>
<clustering>
<clus scale="   47.470">  1  9  2 -1</clus>
<clus scale="   80.999">  5  6 -1 -1</clus>
<clus scale="   90.543">  7  8 -1 -1</clus>
<clus scale="   93.803">  1  5  2 -1</clus>
<clus scale="   47.470">  1  5  2 -1</clus>
</clustering>
</event>
<event>
 9    1  0.5981539E-005  0.1958520E+03  0.7546771E-02  0.1153993E+00
         21   -1    0    0  501  502  0.00000000000E+00  0.00000000000E+00  0.96385383175E+02  0.96385383175E+02  0.00000000000E+00 0. -1.
          1   -1    0    0  502    0 -0.00000000000E+00 -0.00000000000E+00 -0.13620528191E+04  0.13620528191E+04  0.00000000000E+00 0. -1.
        -24    2    1    2    0    0  0.13589614048E+03 -0.12565580479E+03 -0.61373992358E+03  0.64604569852E+03  0.80257139870E+02 0.  0.
         23    2    1    2    0    0 -0.17633814140E+03 -0.10743820416E+02 -0.63812347067E+02  0.20731411147E+03  0.87730014162E+02 0.  0.
         13    1    3    3    0    0  0.12599671451E+03 -0.13645896815E+03 -0.58515572867E+03  0.61392462799E+03  0.00000000000E+00 0. -1.
        -14    1    3    3    0    0  0.98994259665E+01  0.10803163363E+02 -0.28584194918E+02  0.32121070534E+02  0.00000000000E+00 0.  1.
        -13    1    4    4    0    0 -0.15149539966E+03 -0.41847670326E+02 -0.55243633459E+02  0.16659514599E+03  0.00000000000E+00 0. -1.
         13    1    4    4    0    0 -0.24842741737E+02  0.31103849910E+02 -0.85687136082E+01  0.40718965472E+02  0.00000000000E+00 0.  1.
          2    1    1    2  501    0  0.40442000923E+02  0.13639962520E+03 -0.58811516530E+03  0.60507839231E+03  0.00000000000E+00 0. -1.
<scales pt_clust_5="13000.00000" pt_clust_6="13000.00000" pt_clust_7="13000.00000" pt_clust_8="13000.00000" pt_clust_9="142.26888"></scales>
<clustering>
<clus scale="   80.257">  5  6 -1 -1</clus>
<clus scale="   87.730">  7  8 -1 -1</clus>
<clus scale="  142.269">  1  9  2 -1</clus>
<clus scale="  192.621">  2  5  1 -1</clus>
<clus scale="  142.269">  1  5  2 -1</clus>
</clustering>
</event>
<event>
 9    1  0.5981539E-005  0.1065943E+03  0.7546771E-02  0.1273292E+00
         -4   -1    0    0    0  501 -0.00000000000E+00  0.00000000000E+00  0.52800098698E+03  0.52800098698E+03  0.00000000000E+00 0.  1.
         21   -1    0    0  501  502  0.00000000000E+00 -0.00000000000E+00 -0.63224885091E+02  0.63224885091E+02  0.00000000000E+00 0.  1.
         23    2    1    2    0    0 -0.61247576597E+02 -0.40911214444E+02  0.26140155501E+03  0.28747380253E+03  0.94262511500E+02 0.  0.
        -24    2    1    2    0    0 -0.22075625358E+02  0.51910164789E+02  0.19627045950E+03  0.21940634677E+03  0.80218783874E+02 0.  0.
         11    1    4    4    0    0 -0.12222807113E+02  0.36526155358E+02  0.22355562472E+02  0.44534573226E+02  0.00000000000E+00 0. -1.
        -12    1    4    4    0    0 -0.98528182450E+01  0.15384009431E+02  0.17391489703E+03  0.17487177354E+03  0.00000000000E+00 0.  1.
        -13    1    3    3    0    0 -0.55479453487E+02 -0.60784444849E+01  0.56010575122E+02  0.79070233161E+02  0.00000000000E+00 0.  1.
         13    1    3    3    0    0 -0.57681231095E+01 -0.34832769959E+02  0.20539097989E+03  0.20840356937E+03  0.00000000000E+00 0. -1.
         -3    1    1    2    0  502  0.83323201955E+02 -0.10998950345E+02  0.71040873821E+01  0.84345722774E+02  0.00000000000E+00 0.  1.
<scales pt_clust_5="13000.00000" pt_clust_6="13000.00000" pt_clust_7="13000.00000" pt_clust_8="13000.00000" pt_clust_9="84.04602"></scales>
<clustering>
<clus scale="   80.219">  5  6 -1 -1</clus>
<clus scale="   84.046">  2  9  1 -1</clus>
<clus scale="   94.263">  7  8 -1 -1</clus>
<clus scale="   94.403">  2  5  1 -1</clus>
<clus scale="   84.046">  2  5  1 -1</clus>
</clustering>
</event>
<event>
 9    1  0.5981539E-005  0.1274924E+03  0.7546771E-02  0.1234360E+00
          1   -1    0    0  502    0 -0.00000000000E+00  0.00000000000E+00  0.32865529564E+03  0.32865529564E+03  0.00000000000E+00 0. -1.
         21   -1    0    0  501  502  0.00000000000E+00 -0.00000000000E+00 -0.65518975225E+02  0.65518975225E+02  0.00000000000E+00 0. -1.
         23    2    1    2    0    0  0.97847364490E+02 -0.20503877037E+02  0.19908083110E+03  0.24015446692E+03  0.89702145777E+02 0.  0.
        -24    2    1    2    0    0 -0.68591949021E+02  0.27864649600E+02  0.37649293510E+02  0.11392806560E+03  0.77979745204E+02 0.  0.
         11    1    4    4    0    0 -0.40424887811E+02 -0.18172957467E+02 -0.57223605552E+01  0.44689745445E+02  0.00000000000E+00 0. -1.
        -12    1    4    4    0    0 -0.28167061210E+02  0.46037607067E+02  0.43371654066E+02  0.69238320156E+02  0.00000000000E+00 0.  1.
        -13    1    3    3    0    0  0.78270302624E+02 -0.39039968838E+02  0.81600154025E+02  0.11962000074E+03  0.00000000000E+00 0. -1.
         13    1    3    3    0    0  0.19577061865E+02  0.18536091801E+02  0.11748067708E+03  0.12053446618E+03  0.00000000000E+00 0.  1.
          2    1    1    2  501    0 -0.29255415469E+02 -0.73607725629E+01  0.26406195804E+02  0.40091738349E+02  0.00000000000E+00 0. -1.
<scales pt_clust_5="13000.00000" pt_clust_6="13000.00000" pt_clust_7="13000.00000" pt_clust_8="13000.00000" pt_clust_9="30.16721"></scales>
<clustering>
<clus scale="   30.167">  2  9  1 -1</clus>
<clus scale="   77.980">  5  6 -1 -1</clus>
<clus scale="   89.702">  7  8 -1 -1</clus>
<clus scale="  119.535">  2  5  1 -1</clus>
<clus scale="   30.167">  2  5  1 -1</clus>
</clustering>
</event>
<event>
 9    1  0.6651905E-005  0.1941138E+03  0.7546771E-02  0.1156861E+00
          1   -1    0    0  502    0 -0.00000000000E+00  0.00000000000E+00  0.15899481023E+03  0.15899481023E+03  0.00000000000E+00 0. -1.
         21   -1    0    0  501  502  0.00000000000E+00 -0.00000000000E+00 -0.39493918797E+03  0.39493918797E+03  0.00000000000E+00 0. -1.
         23    2    1    2    0    0 -0.31976125795E+02 -0.18940756310E+03 -0.53420698374E+02  0.22270605683E+03  0.99229628406E+02 0.  0.
        -24    2    1    2    0    0  0.41148201319E+02  0.11877242670E+03 -0.20779248552E+03  0.25565041808E+03  0.79870867080E+02 0.  0.
         11    1    4    4    0    0  0.34390696953E+02  0.80223425488E+02 -0.19634817535E+03  0.21487467045E+03  0.00000000000E+00 0. -1.
        -12    1    4    4    0    0  0.67575043662E+01  0.38549001212E+02 -0.11444310165E+02  0.40775747631E+02  0.00000000000E+00 0.  1.
        -11    1    3    3    0    0 -0.20745356400E+02  0.35938873282E+01  0.31095059092E+01  0.21282736321E+02  0.00000000000E+00 0.  1.
         11    1    3    3    0    0 -0.11230769394E+02 -0.19300145043E+03 -0.56530204284E+02  0.20142332051E+03  0.00000000000E+00 0. -1.
          2    1    1    2  501    0 -0.91720755244E+01  0.70635136397E+02  0.25268806146E+02  0.75577523295E+02  0.00000000000E+00 0. -1.
<scales pt_clust_5="13000.00000" pt_clust_6="13000.00000" pt_clust_7="13000.00000" pt_clust_8="13000.00000" pt_clust_9="71.22819"></scales>
<clustering>
<clus scale="   71.228">  2  9  1 -1</clus>
<clus scale="   79.871">  5  6 -1 -1</clus>
<clus scale="   99.230">  7  8 -1 -1</clus>
<clus scale="  184.968">  2  5  1 -1</clus>
<clus scale="   71.228">  2  5  1 -1</clus>
</clustering>
</event>
<event>
 9    1  0.5981539E-005  0.3524981E+03  0.7546771E-02  0.1087550E+00
          1   -1    0    0  502    0 -0.00000000000E+00  0.00000000000E+00  0.19500195312E+04  0.19500195312E+04  0.00000000000E+00 0. -1.
         21   -1    0    0  501  502  0.00000000000E+00 -0.00000000000E+00 -0.20949212495E+03  0.20949212495E+03  0.00000000000E+00 0. -1.
         23    2    1    2    0    0 -0.14286501923E+03 -0.39124306504E+02  0.51404588314E+03  0.54266739828E+03  0.91124146680E+02 0.  0.
        -24    2    1    2    0    0 -0.15984952817E+03  0.22579661780E+03  0.12278823677E+04  0.12611975070E+04  0.79925331220E+02 0.  0.
         13    1    4    4    0    0 -0.15749750616E+03  0.21895044389E+03  0.10810755758E+04  0.11142123505E+04  0.00000000000E+00 0. -1.
        -14    1    4    4    0    0 -0.23520220092E+01  0.68461739054E+01  0.14680679187E+03  0.14698515654E+03  0.00000000000E+00 0.  1.
        -13    1    3    3    0    0 -0.80181355094E+02 -0.34779089603E+02  0.42369605255E+03  0.43261643488E+03  0.00000000000E+00 0.  1.
         13    1    3    3    0    0 -0.62683664133E+02 -0.43452169009E+01  0.90349830584E+02  0.11005096340E+03  0.00000000000E+00 0. -1.
          2    1    1    2  501    0  0.30271454740E+03 -0.18667231129E+03 -0.14008445943E+01  0.35564675083E+03  0.00000000000E+00 0. -1.
<scales pt_clust_5="13000.00000" pt_clust_6="13000.00000" pt_clust_7="13000.00000" pt_clust_8="13000.00000" pt_clust_9="343.31739"></scales>
<clustering>
<clus scale="   79.925">  5  6 -1 -1</clus>
<clus scale="   91.124">  7  8 -1 -1</clus>
<clus scale="  173.910">  1  7  2 -1</clus>
<clus scale="  343.317">  2  9  1 -1</clus>
<clus scale="  343.317">  2  5  1 -1</clus>
</clustering>
</event>
<event>
 9    1  0.5981539E-005  0.1368635E+03  0.7546771E-02  0.1219447E+00
          3   -1    0    0  502    0 -0.00000000000E+00  0.00000000000E+00  0.62369408308E+03  0.62369408308E+03  0.00000000000E+00 0. -1.
         21   -1    0    0  501  502  0.00000000000E+00 -0.00000000000E+00 -0.69974536419E+02  0.69974536419E+02  0.00000000000E+00 0. -1.
        -24    2    1    2    0    0 -0.10863166347E+03 -0.27598587421E+02  0.49277221267E+03  0.51181206770E+03  0.81022334747E+02 0.  0.
         23    2    1    2    0    0  0.76964891226E+02  0.28323012392E+01  0.74513218742E+02  0.13942794559E+03  0.89198182901E+02 0.  0.
         11    1    3    3    0    0 -0.87787241987E+02  0.16376597730E+02  0.30161745094E+03  0.31455981867E+03  0.00000000000E+00 0. -1.
        -12    1    3    3    0    0 -0.20844421481E+02 -0.43975185151E+02  0.19115476174E+03  0.19725224904E+03  0.00000000000E+00 0.  1.
        -11    1    4    4    0    0  0.57805133487E+02 -0.11759142336E+02  0.92264110669E+02  0.10950971191E+03  0.00000000000E+00 0. -1.
         11    1    4    4    0    0  0.19159757740E+02  0.14591443575E+02 -0.17750891927E+02  0.29918233679E+02  0.00000000000E+00 0.  1.
          4    1    1    2  501    0  0.31666772241E+02  0.24766286182E+02 -0.13565884753E+02  0.42428606205E+02  0.00000000000E+00 0. -1.
<scales pt_clust_5="13000.00000" pt_clust_6="13000.00000" pt_clust_7="13000.00000" pt_clust_8="13000.00000" pt_clust_9="40.20141"></scales>
<clustering>
<clus scale="   40.201">  2  9  1 -1</clus>
<clus scale="   81.022">  5  6 -1 -1</clus>
<clus scale="   89.198">  7  8 -1 -1</clus>
<clus scale="  131.681">  1  5  2 -1</clus>
<clus scale="   40.201">  2  5  1 -1</clus>
</clustering>
</event>
<event>
 9    1  0.5981539E-005  0.2009773E+03  0.7546771E-02  0.1185795E+00
         21   -1    0    0  501  502  0.00000000000E+00  0.00000000000E+00  0.79235180708E+02  0.79235180708E+02  0.00000000000E+00 0. -1.
         -4   -1    0    0    0  501 -0.00000000000E+00 -0.00000000000E+00 -0.71818691252E+03  0.71818691252E+03  0.00000000000E+00 0.  1.
        -24    2    1    2    0    0  0.14765493579E+02 -0.12936208050E+02 -0.15530798957E+03  0.17757844326E+03  0.83834161324E+02 0.  0.
         23    2    1    2    0    0 -0.14956081748E+03 -0.10106951631E+03 -0.19370720091E+03  0.28038778755E+03  0.92256958933E+02 0.  0.
         11    1    3    3    0    0  0.33577254932E+02  0.22468052032E+02 -0.46392185491E+02  0.61518129730E+02  0.00000000000E+00 0. -1.
        -12    1    3    3    0    0 -0.18811761353E+02 -0.35404260081E+02 -0.10891580408E+03  0.11606031353E+03  0.00000000000E+00 0.  1.
        -13    1    4    4    0    0 -0.10939529186E+03 -0.85455843040E+02 -0.83355488695E+02  0.16192025348E+03  0.00000000000E+00 0. -1.
         13    1    4    4    0    0 -0.40165525627E+02 -0.15613673267E+02 -0.11035171221E+03  0.11846753407E+03  0.00000000000E+00 0.  1.
         -3    1    1    2    0  502  0.13479532390E+03  0.11400572436E+03 -0.28993654133E+03  0.33945586242E+03  0.00000000000E+00 0.  1.
<scales pt_clust_5="13000.00000" pt_clust_6="13000.00000" pt_clust_7="13000.00000" pt_clust_8="13000.00000" pt_clust_9="178.55126"></scales>
<clustering>
<clus scale="   83.834">  5  6 -1 -1</clus>
<clus scale="   86.102">  2  5  1 -1</clus>
<clus scale="   92.257">  7  8 -1 -1</clus>
<clus scale="  178.551">  1  9  2 -1</clus>
<clus scale="  178.551">  1  5  2 -1</clus>
</clustering>
</event>
<event>
 9    1  0.5981539E-005  0.8848362E+02  0.7546771E-02  0.1311086E+00
         21   -1    0    0  501  502  0.00000000000E+00  0.00000000000E+00  0.15213156135E+03  0.15213156135E+03  0.00000000000E+00 0.  1.
         -4   -1    0    0    0  501 -0.00000000000E+00 -0.00000000000E+00 -0.19141951577E+03  0.19141951577E+03  0.00000000000E+00 0.  1.
        -24    2    1    2    0    0 -0.13761953274E+02  0.18208006928E+02 -0.10901531174E+03  0.13633397983E+03  0.78623743157E+02 0.  0.
         23    2    1    2    0    0  0.42561607443E+02  0.33493326161E+02 -0.16301715373E+02  0.10279751450E+03  0.85838742636E+02 0.  0.
         11    1    3    3    0    0  0.28826904781E+02  0.18865516307E+02 -0.72345583231E+02  0.80129779470E+02  0.00000000000E+00 0. -1.
        -12    1    3    3    0    0 -0.42588858056E+02 -0.65750937907E+00 -0.36669728506E+02  0.56204200357E+02  0.00000000000E+00 0.  1.
        -13    1    4    4    0    0  0.30841221971E+02  0.62729399941E+02 -0.13319904528E+02  0.71158825498E+02  0.00000000000E+00 0.  1.
         13    1    4    4    0    0  0.11720385472E+02 -0.29236073780E+02 -0.29818108448E+01  0.31638688999E+02  0.00000000000E+00 0. -1.
         -3    1    1    2    0  502 -0.28799654168E+02 -0.51701333089E+02  0.86029072687E+02  0.10441958279E+03  0.00000000000E+00 0.  1.
<scales pt_clust_5="13000.00000" pt_clust_6="13000.00000" pt_clust_7="13000.00000" pt_clust_8="13000.00000" pt_clust_9="59.18148"></scales>
<clustering>
<clus scale="   59.181">  1  9  2 -1</clus>
<clus scale="   78.624">  5  6 -1 -1</clus>
<clus scale="   81.503">  2  5  1 -1</clus>
<clus scale="   85.839">  7  8 -1 -1</clus>
<clus scale="   59.181">  1  5  2 -1</clus>
</clustering>
</event>
<event>
 9    1  0.5981539E-005  0.8740895E+02  0.7546771E-02  0.1312874E+00
          1   -1    0    0  502    0 -0.00000000000E+00  0.00000000000E+00  0.11236640596E+02  0.11236640596E+02  0.00000000000E+00 0. -1.
         21   -1    0    0  501  502  0.00000000000E+00 -0.00000000000E+00 -0.11871547196E+04  0.11871547196E+04  0.00000000000E+00 0.  1.
         23    2    1    2    0    0  0.79937338641E+01 -0.11942922340E+02 -0.29238235031E+03  0.30524209246E+03  0.86479841964E+02 0.  0.
        -24    2    1    2    0    0 -0.17804509402E+02 -0.66860141961E+01 -0.84635022054E+03  0.85041695431E+03  0.80861591883E+02 0.  0.
         13    1    4    4    0    0  0.24662097456E+02 -0.69864698878E+00 -0.10632011679E+03  0.10914519867E+03  0.00000000000E+00 0. -1.
        -14    1    4    4    0    0 -0.42466606857E+02 -0.59873672073E+01 -0.74003010375E+03  0.74127175565E+03  0.00000000000E+00 0.  1.
        -11    1    3    3    0    0  0.24467663829E+02 -0.43648147910E+02 -0.20069710452E+03  0.20684089333E+03  0.00000000000E+00 0. -1.
         11    1    3    3    0    0 -0.16473929964E+02  0.31705225570E+02 -0.91685245782E+02  0.98401199134E+02  0.00000000000E+00 0.  1.
          2    1    1    2  501    0  0.98107755374E+01  0.18628936536E+02 -0.37185508186E+02  0.42732313442E+02  0.00000000000E+00 0. -1.
<scales pt_clust_5="13000.00000" pt_clust_6="13000.00000" pt_clust_7="13000.00000" pt_clust_8="13000.00000" pt_clust_9="21.05443"></scales>
<clustering>
<clus scale="   21.054">  2  9  1 -1</clus>
<clus scale="   80.862">  5  6 -1 -1</clus>
<clus scale="   81.854">  2  5  1 -1</clus>
<clus scale="   86.480">  7  8 -1 -1</clus>
<clus scale="   21.054">  2  5  1 -1</clus>
</clustering>
</event>
<event>
 9    1  0.5981539E-005  0.1042160E+03  0.7546771E-02  0.1277183E+00
          3   -1    0    0  502    0 -0.00000000000E+00  0.00000000000E+00  0.49652184305E+03  0.49652184305E+03  0.00000000000E+00 0. -1.
         21   -1    0    0  501  502  0.00000000000E+00 -0.00000000000E+00 -0.63635501726E+02  0.63635501726E+02  0.00000000000E+00 0. -1.
        -24    2    1    2    0    0 -0.67611142196E+02 -0.87606886107E+01  0.15571149244E+03  0.18801974280E+03  0.80357567091E+02 0.  0.
         23    2    1    2    0    0 -0.19188764024E+02  0.63884965203E+02  0.53292865489E+02  0.12577191428E+03  0.92352300811E+02 0.  0.
         13    1    3    3    0    0 -0.65076378259E+02 -0.24292797706E+02  0.62350521498E+02  0.93341644290E+02  0.00000000000E+00 0. -1.
        -14    1    3    3    0    0 -0.25347639370E+01  0.15532109095E+02  0.93360970945E+02  0.94678098507E+02  0.00000000000E+00 0.  1.
        -13    1    4    4    0    0 -0.45673621264E+02  0.69320945373E+02  0.25138229315E+02  0.86737556571E+02  0.00000000000E+00 0. -1.
         13    1    4    4    0    0  0.26484857240E+02 -0.54359801696E+01  0.28154636174E+02  0.39034357706E+02  0.00000000000E+00 0.  1.
          4    1    1    2  501    0  0.86799906219E+02 -0.55124276593E+02  0.22388198340E+03  0.24636568771E+03  0.00000000000E+00 0. -1.
<scales pt_clust_5="13000.00000" pt_clust_6="13000.00000" pt_clust_7="13000.00000" pt_clust_8="13000.00000" pt_clust_9="102.82471"></scales>
<clustering>
<clus scale="   80.358">  5  6 -1 -1</clus>
<clus scale="   92.352">  7  8 -1 -1</clus>
<clus scale="  102.825">  2  9  1 -1</clus>
<clus scale="   93.752">  1  5  2 -1</clus>
<clus scale="  102.825">  2  5  1 -1</clus>
</clustering>
</event>
<event>
 9    1  0.5981539E-005  0.2035682E+03  0.7546771E-02  0.1183719E+00
         21   -1    0    0  501  502  0.00000000000E+00  0.00000000000E+00  0.12991816048E+04  0.12991816048E+04  0.00000000000E+00 0. -1.
          1   -1    0    0  502    0 -0.00000000000E+00 -0.00000000000E+00 -0.44265757227E+02  0.44265757227E+02  0.00000000000E+00 0. -1.
        -24    2    1    2    0    0 -0.25994142757E+02  0.22623749572E+02  0.25293968090E+03  0.26741242987E+03  0.79645439114E+02 0.  0.
         23    2    1    2    0    0 -0.14373045097E+03  0.72806565914E+02  0.35711613531E+03  0.40241943139E+03  0.91925111269E+02 0.  0.
         13    1    3    3    0    0 -0.26442571273E+02 -0.95892124636E+01  0.26343453010E+02  0.38537515328E+02  0.00000000000E+00 0. -1.
        -14    1    3    3    0    0  0.44842851583E+00  0.32212962036E+02  0.22659622789E+03  0.22887491454E+03  0.00000000000E+00 0.  1.
        -11    1    4    4    0    0 -0.23049455861E+02  0.22407380682E+02  0.13700418242E+02  0.34943806097E+02  0.00000000000E+00 0.  1.
         11    1    4    4    0    0 -0.12068099511E+03  0.50399185233E+02  0.34341571707E+03  0.36747562529E+03  0.00000000000E+00 0. -1.
          2    1    1    2  501    0  0.16972459373E+03 -0.95430315487E+02  0.64486003136E+03  0.67361550077E+03  0.00000000000E+00 0. -1.
<scales pt_clust_5="13000.00000" pt_clust_6="13000.00000" pt_clust_7="13000.00000" pt_clust_8="13000.00000" pt_clust_9="181.63089"></scales>
<clustering>
<clus scale="   79.645">  5  6 -1 -1</clus>
<clus scale="   86.781">  2  5  1 -1</clus>
<clus scale="   91.925">  7  8 -1 -1</clus>
<clus scale="  181.631">  1  9  2 -1</clus>
<clus scale="  181.631">  1  5  2 -1</clus>
</clustering>
</event>
<event>
 9    1  0.5981539E-005  0.9754575E+02  0.7546771E-02  0.1288273E+00
          3   -1    0    0  502    0 -0.00000000000E+00  0.00000000000E+00  0.32394564308E+03  0.32394564308E+03  0.00000000000E+00 0. -1.
         21   -1    0    0  501  502  0.00000000000E+00 -0.00000000000E+00 -0.40708557939E+02  0.40708557939E+02  0.00000000000E+00 0.  1.
        -24    2    1    2    0    0 -0.38144527985E+02 -0.16742029780E+02  0.19433790795E+03  0.21671819196E+03  0.86395900856E+02 0.  0.
         23    2    1    2    0    0  0.14394577096E+02  0.92572911518E+01  0.73060086539E+02  0.11842400688E+03  0.91616417043E+02 0.  0.
         13    1    3    3    0    0 -0.31098043271E+02 -0.49866694034E+02  0.14866505067E+03  0.15985954072E+03  0.00000000000E+00 0. -1.
        -14    1    3    3    0    0 -0.70464847139E+01  0.33124664254E+02  0.45672857279E+02  0.56858651240E+02  0.00000000000E+00 0.  1.
        -11    1    4    4    0    0  0.12909912846E+02  0.44239515751E+02  0.69278824237E+02  0.83206707008E+02  0.00000000000E+00 0.  1.
         11    1    4    4    0    0  0.14846642501E+01 -0.34982224599E+02  0.37812623022E+01  0.35217299874E+02  0.00000000000E+00 0. -1.
          4    1    1    2  501    0  0.23749950889E+02  0.74847386284E+01  0.15839090651E+02  0.29512002173E+02  0.00000000000E+00 0. -1.
<scales pt_clust_5="13000.00000" pt_clust_6="13000.00000" pt_clust_7="13000.00000" pt_clust_8="13000.00000" pt_clust_9="24.90144"></scales>
<clustering>
<clus scale="   24.901">  2  9  1 -1</clus>
<clus scale="   86.396">  5  6 -1 -1</clus>
<clus scale="   91.616">  7  8 -1 -1</clus>
<clus scale="   92.660">  1  5  2 -1</clus>
<clus scale="   24.901">  2  5  1 -1</clus>
</clustering>
</event>
<event>
 9    1  0.5981539E-005  0.1245908E+03  0.7546771E-02  0.1239567E+00
          1   -1    0    0  502    0 -0.00000000000E+00  0.00000000000E+00  0.37775593395E+03  0.37775593395E+03  0.00000000000E+00 0. -1.
         21   -1    0    0  501  502  0.00000000000E+00 -0.00000000000E+00 -0.11125341581E+03  0.11125341581E+03  0.00000000000E+00 0. -1.
         23    2    1    2    0    0 -0.35151723477E+02 -0.69786792195E+02  0.11307960640E+03  0.16515693931E+03  0.91564060586E+02 0.  0.
        -24    2    1    2    0    0  0.11727776973E+03  0.42891058417E+02 -0.44986496248E+00  0.14737323497E+03  0.78262058769E+02 0.  0.
         11    1    4    4    0    0  0.12099802116E+03  0.41177650412E+02  0.17460992906E+02  0.12900002439E+03  0.00000000000E+00 0. -1.
        -12    1    4    4    0    0 -0.37202514299E+01  0.17134080049E+01 -0.17910857868E+02  0.18373210587E+02  0.00000000000E+00 0.  1.
        -13    1    3    3    0    0  0.22740437394E+02 -0.46756338540E+01  0.10554134347E+01  0.23240114938E+02  0.00000000000E+00 0.  1.
         13    1    3    3    0    0 -0.57892160871E+02 -0.65111158341E+02  0.11202419297E+03  0.14191682437E+03  0.00000000000E+00 0. -1.
          2    1    1    2  501    0 -0.82126046255E+02  0.26895733778E+02  0.15387277670E+03  0.17647917548E+03  0.00000000000E+00 0. -1.
<scales pt_clust_5="13000.00000" pt_clust_6="13000.00000" pt_clust_7="13000.00000" pt_clust_8="13000.00000" pt_clust_9="86.41803"></scales>
<clustering>
<clus scale="   78.262">  5  6 -1 -1</clus>
<clus scale="   86.418">  2  9  1 -1</clus>
<clus scale="   91.564">  7  8 -1 -1</clus>
<clus scale="  115.169">  2  5  1 -1</clus>
<clus scale="   86.418">  2  5  1 -1</clus>
</clustering>
</event>
<event>
 9    1  0.5981539E-005  0.1071992E+03  0.7546771E-02  0.1271997E+00
         21   -1    0    0  501  502  0.00000000000E+00  0.00000000000E+00  0.96513285960E+02  0.96513285960E+02  0.00000000000E+00 0.  1.
         -2   -1    0    0    0  501 -0.00000000000E+00 -0.00000000000E+00 -0.36824707712E+03  0.36824707712E+03  0.00000000000E+00 0.  1.
        -24    2    1    2    0    0 -0.18698925847E+02  0.53540228586E+02 -0.14475332983E+03  0.17418265631E+03  0.78548490486E+02 0.  0.
         23    2    1    2    0    0  0.72713197186E+02 -0.83373529146E+01  0.27036746879E+02  0.12121967802E+03  0.92771246402E+02 0.  0.
         11    1    3    3    0    0 -0.19703543978E+02 -0.15350825958E+02 -0.21396544457E+02  0.32889050117E+02  0.00000000000E+00 0. -1.
        -12    1    3    3    0    0  0.10046181304E+01  0.68891054544E+02 -0.12335678537E+03  0.14129360619E+03  0.00000000000E+00 0.  1.
        -13    1    4    4    0    0 -0.14605610147E+02  0.20412343817E+02 -0.96967836440E+00  0.25118278285E+02  0.00000000000E+00 0. -1.
         13    1    4    4    0    0  0.87318807333E+02 -0.28749696732E+02  0.28006425243E+02  0.96101399736E+02  0.00000000000E+00 0.  1.
         -1    1    1    2    0  502 -0.54014271338E+02 -0.45202875671E+02 -0.15401720821E+03  0.16935802875E+03  0.00000000000E+00 0.  1.
<scales pt_clust_5="13000.00000" pt_clust_6="13000.00000" pt_clust_7="13000.00000" pt_clust_8="13000.00000" pt_clust_9="70.43328"></scales>
<clustering>
<clus scale="   70.433">  1  9  2 -1</clus>
<clus scale="   78.548">  5  6 -1 -1</clus>
<clus scale="   92.771">  7  8 -1 -1</clus>
<clus scale="   95.158">  2  5  1 -1</clus>
<clus scale="   70.433">  1  5  2 -1</clus>
</clustering>
</event>
<event>
 9    1  0.5981539E-005  0.9987413E+02  0.7546771E-02  0.1284971E+00
         21   -1    0    0  501  502  0.00000000000E+00  0.00000000000E+00  0.39520952533E+02  0.39520952533E+02  0.00000000000E+00 0.  1.
          1   -1    0    0  502    0 -0.00000000000E+00 -0.00000000000E+00 -0.60354096852E+03  0.60354096852E+03  0.00000000000E+00 0. -1.
         23    2    1    2    0    0  0.69908939587E+01 -0.46071689386E+02 -0.43344864306E+03  0.44537995521E+03  0.91181715151E+02 0.  0.
        -24    2    1    2    0    0 -0.20504183559E+02  0.24638028332E+02 -0.14404548096E+03  0.16898418876E+03  0.82335299124E+02 0.  0.
         13    1    4    4    0    0  0.43784580684E+01 -0.22894410148E+02 -0.11499759564E+02  0.25991717549E+02  0.00000000000E+00 0. -1.
        -14    1    4    4    0    0 -0.24882641627E+02  0.47532438480E+02 -0.13254572140E+03  0.14299247121E+03  0.00000000000E+00 0.  1.
        -11    1    3    3    0    0  0.45971661117E+02 -0.37182504893E+02 -0.20092387279E+03  0.20944291574E+03  0.00000000000E+00 0.  1.
         11    1    3    3    0    0 -0.38980767159E+02 -0.88891844935E+01 -0.23252477027E+03  0.23593703948E+03  0.00000000000E+00 0. -1.
          2    1    1    2  501    0  0.13513289600E+02  0.21433661054E+02  0.13474108032E+02  0.28697777079E+02  0.00000000000E+00 0. -1.
<scales pt_clust_5="13000.00000" pt_clust_6="13000.00000" pt_clust_7="13000.00000" pt_clust_8="13000.00000" pt_clust_9="25.33793"></scales>
<clustering>
<clus scale="   25.338">  1  9  2 -1</clus>
<clus scale="   82.335">  5  6 -1 -1</clus>
<clus scale="   91.182">  7  8 -1 -1</clus>
<clus scale="   91.869">  1  5  2 -1</clus>
<clus scale="   25.338">  1  5  2 -1</clus>
</clustering>
</event>
<event>
 9    1  0.5981539E-005  0.1960354E+03  0.7546771E-02  0.1153953E+00
         21   -1    0    0  501  502  0.00000000000E+00  0.00000000000E+00  0.19596113874E+03  0.19596113874E+03  0.00000000000E+00 0. -1.
          1   -1    0    0  502    0 -0.00000000000E+00 -0.00000000000E+00 -0.98273624334E+03  0.98273624334E+03  0.00000000000E+00 0. -1.
        -24    2    1    2    0    0  0.90116364070E+02  0.14666327595E+03 -0.62155755609E+03  0.64966912596E+03  0.78135152808E+02 0.  0.
         23    2    1    2    0    0 -0.21005151801E+03 -0.99188842452E+02 -0.27015521987E+03  0.36274482984E+03  0.68116826651E+02 0.  0.
         13    1    3    3    0    0  0.61214335046E+02  0.59307088753E+02 -0.18745530243E+03  0.20592235430E+03  0.00000000000E+00 0. -1.
        -14    1    3    3    0    0  0.28902029024E+02  0.87356187193E+02 -0.43410225366E+03  0.44374677166E+03  0.00000000000E+00 0.  1.
        -11    1    4    4    0    0 -0.87674461660E+02 -0.27550424142E+02 -0.61930243730E+02  0.11082054045E+03  0.00000000000E+00 0.  1.
         11    1    4    4    0    0 -0.12237705635E+03 -0.71638418310E+02 -0.20822497613E+03  0.25192428939E+03  0.00000000000E+00 0. -1.
          2    1    1    2  501    0  0.11993515394E+03 -0.47474433495E+02  0.10493767136E+03  0.16628342628E+03  0.00000000000E+00 0. -1.
<scales pt_clust_5="13000.00000" pt_clust_6="13000.00000" pt_clust_7="13000.00000" pt_clust_8="13000.00000" pt_clust_9="128.98939"></scales>
<clustering>
<clus scale="   68.117">  7  8 -1 -1</clus>
<clus scale="   78.135">  5  6 -1 -1</clus>
<clus scale="  128.989">  1  9  2 -1</clus>
<clus scale="  192.262">  1  7  2 -1</clus>
<clus scale="  128.989">  1  5  2 -1</clus>
</clustering>
</event>
<event>
 9    1  0.5981539E-005  0.2973726E+03  0.7546771E-02  0.1086586E+00
          1   -1    0    0  502    0 -0.00000000000E+00  0.00000000000E+00  0.12264569783E+03  0.12264569783E+03  0.00000000000E+00 0. -1.
         21   -1    0    0  501  502  0.00000000000E+00 -0.00000000000E+00 -0.94498521956E+03  0.94498521956E+03  0.00000000000E+00 0.  1.
        -24    2    1    2    0    0 -0.68100037651E+02  0.28971665623E+03 -0.31512328965E+03  0.44456540510E+03  0.98804634065E+02 0.  0.
         23    2    1    2    0    0 -0.25584310276E+01 -0.26565863427E+03 -0.36306044511E+03  0.46073160167E+03  0.99396511237E+02 0.  0.
         11    1    3    3    0    0 -0.94803479163E+01  0.17277165390E+03 -0.12364755469E+03  0.21267025925E+03  0.00000000000E+00 0. -1.
        -12    1    3    3    0    0 -0.58619689735E+02  0.11694500233E+03 -0.19147573496E+03  0.23189514586E+03  0.00000000000E+00 0.  1.
        -11    1    4    4    0    0 -0.13386725790E+02 -0.16686585902E+03 -0.29844619393E+03  0.34218934817E+03  0.00000000000E+00 0.  1.
         11    1    4    4    0    0  0.10828294763E+02 -0.98792775250E+02 -0.64614251185E+02  0.11854225350E+03  0.00000000000E+00 0. -1.
          2    1    1    2  501    0  0.70658468679E+02 -0.24058021957E+02 -0.14415578697E+03  0.16233391061E+03  0.00000000000E+00 0. -1.
<scales pt_clust_5="13000.00000" pt_clust_6="13000.00000" pt_clust_7="13000.00000" pt_clust_8="13000.00000" pt_clust_9="74.64186"></scales>
<clustering>
<clus scale="   74.642">  2  9  1 -1</clus>
<clus scale="   98.805">  5  6 -1 -1</clus>
<clus scale="   99.397">  7  8 -1 -1</clus>
<clus scale="  297.175">  1  5  2 -1</clus>
<clus scale="   74.642">  2  5  1 -1</clus>
</clustering>
</event>
<event>
 9    1  0.5981539E-005  0.1425143E+03  0.7546771E-02  0.1227978E+00
          1   -1    0    0  502    0 -0.00000000000E+00  0.00000000000E+00  0.23215656119E+03  0.23215656119E+03  0.00000000000E+00 0. -1.
         21   -1    0    0  501  502  0.00000000000E+00 -0.00000000000E+00 -0.37085358049E+03  0.37085358049E+03  0.00000000000E+00 0. -1.
        -24    2    1    2    0    0 -0.87540440753E+01  0.32869958400E+02  0.85617528623E+02  0.12983851147E+03  0.91491039997E+02 0.  0.
         23    2    1    2    0    0  0.10874193103E+03 -0.75543875805E+02  0.58255117309E+02  0.17041057512E+03  0.90080079292E+02 0.  0.
         11    1    3    3    0    0  0.32483816369E+02  0.17403803304E+02  0.76425730509E+02  0.84846820678E+02  0.00000000000E+00 0. -1.
        -12    1    3    3    0    0 -0.41237860445E+02  0.15466155096E+02  0.91917981139E+01  0.44991690789E+02  0.00000000000E+00 0.  1.
        -11    1    4    4    0    0  0.19530733226E+02 -0.38882430742E+02  0.59791222555E+02  0.73947841452E+02  0.00000000000E+00 0.  1.
         11    1    4    4    0    0  0.89211197808E+02 -0.36661445062E+02 -0.15361052457E+01  0.96462733673E+02  0.00000000000E+00 0. -1.
          2    1    1    2  501    0 -0.99987886958E+02  0.42673917405E+02 -0.28256966523E+03  0.30276105508E+03  0.00000000000E+00 0. -1.
<scales pt_clust_5="13000.00000" pt_clust_6="13000.00000" pt_clust_7="13000.00000" pt_clust_8="13000.00000" pt_clust_9="110.43511"></scales>
<clustering>
<clus scale="   90.080">  7  8 -1 -1</clus>
<clus scale="   91.491">  5  6 -1 -1</clus>
<clus scale="   97.610">  1  5  2 -1</clus>
<clus scale="  110.435">  2  9  1 -1</clus>
<clus scale="  110.435">  2  5  1 -1</clus>
</clustering>
</event>
<event>
 9    1  0.5981539E-005  0.1470926E+03  0.7546771E-02  0.1204996E+00
          1   -1    0    0  502    0 -0.00000000000E+00  0.00000000000E+00  0.11352314815E+04  0.11352314815E+04  0.00000000000E+00 0. -1.
         21   -1    0    0  501  502  0.00000000000E+00 -0.00000000000E+00 -0.43919809180E+02  0.43919809180E+02  0.00000000000E+00 0. -1.
        -24    2    1    2    0    0  0.11381682330E+03  0.10422487124E+02  0.87313825555E+03  0.88442951112E+03  0.82354412962E+02 0.  0.
         23    2    1    2    0    0 -0.13949721118E+03 -0.31519055289E+01  0.21003054665E+03  0.26681747858E+03  0.87231473165E+02 0.  0.
         11    1    3    3    0    0  0.11964104214E+03 -0.80309982283E+00  0.64908777052E+03  0.66002239187E+03  0.00000000000E+00 0. -1.
        -12    1    3    3    0    0 -0.58242188450E+01  0.11225586947E+02  0.22405048503E+03  0.22440711925E+03  0.00000000000E+00 0.  1.
        -11    1    4    4    0    0 -0.87563433394E+02 -0.44423843670E+02  0.12274703956E+03  0.15718673123E+03  0.00000000000E+00 0.  1.
         11    1    4    4    0    0 -0.51933777789E+02  0.41271938141E+02  0.87283507090E+02  0.10963074734E+03  0.00000000000E+00 0. -1.
          2    1    1    2  501    0  0.25680387884E+02 -0.72705815953E+01  0.81428700958E+01  0.27904300959E+02  0.00000000000E+00 0. -1.
<scales pt_clust_5="13000.00000" pt_clust_6="13000.00000" pt_clust_7="13000.00000" pt_clust_8="13000.00000" pt_clust_9="26.68977"></scales>
<clustering>
<clus scale="   26.690">  2  9  1 -1</clus>
<clus scale="   82.354">  5  6 -1 -1</clus>
<clus scale="   87.231">  7  8 -1 -1</clus>
<clus scale="  144.254">  1  5  2 -1</clus>
<clus scale="   26.690">  2  5  1 -1</clus>
</clustering>
</event>
<event>
 9    1  0.5981539E-005  0.1538127E+03  0.7546771E-02  0.1199172E+00
         21   -1    0    0  501  502  0.00000000000E+00  0.00000000000E+00  0.20763619135E+03  0.20763619135E+03  0.00000000000E+00 0. -1.
          1   -1    0    0  502    0 -0.00000000000E+00 -0.00000000000E+00 -0.13152680272E+03  0.13152680272E+03  0.00000000000E+00 0. -1.
        -24    2    1    2    0    0  0.99337318622E+02  0.61701084903E+02  0.14988526375E+02  0.15912597450E+03  0.10687138574E+03 0.  0.
         23    2    1    2    0    0 -0.74476769194E+02 -0.72858459908E+02  0.64631988098E+02  0.15256226862E+03  0.90789909080E+02 0.  0.
         13    1    3    3    0    0  0.95242464408E+02  0.82645871839E+02 -0.97221636083E+01  0.12647524510E+03  0.00000000000E+00 0. -1.
        -14    1    3    3    0    0  0.40948542135E+01 -0.20944786936E+02  0.24710689984E+02  0.32650729399E+02  0.00000000000E+00 0.  1.
        -13    1    4    4    0    0  0.20496822895E+02 -0.23283919359E+02  0.16080476858E+02  0.34940555026E+02  0.00000000000E+00 0.  1.
         13    1    4    4    0    0 -0.94973592089E+02 -0.49574540549E+02  0.48551511240E+02  0.11762171359E+03  0.00000000000E+00 0. -1.
          2    1    1    2  501    0 -0.24860549428E+02  0.11157375005E+02 -0.35111258399E+01  0.27474750946E+02  0.00000000000E+00 0. -1.
<scales pt_clust_5="13000.00000" pt_clust_6="13000.00000" pt_clust_7="13000.00000" pt_clust_8="13000.00000" pt_clust_9="27.24949"></scales>
<clustering>
<clus scale="   27.249">  1  9  2 -1</clus>
<clus scale="   90.790">  7  8 -1 -1</clus>
<clus scale="  106.871">  5  6 -1 -1</clus>
<clus scale="  143.107">  1  7  2 -1</clus>
<clus scale="   27.249">  1  5  2 -1</clus>
</clustering>
</event>
<event>
 9    1  0.5981539E-005  0.1190810E+03  0.7546771E-02  0.1247339E+00
         21   -1    0    0  501  502  0.00000000000E+00  0.00000000000E+00  0.61155774206E+02  0.61155774206E+02  0.00000000000E+00 0. -1.
          1   -1    0    0  502    0 -0.00000000000E+00 -0.00000000000E+00 -0.47201552887E+03  0.47201552887E+03  0.00000000000E+00 0. -1.
         23    2    1    2    0    0  0.27732900004E+02 -0.79318512492E+02 -0.31001596493E+03  0.33364370370E+03  0.90264513199E+02 0.  0.
        -24    2    1    2    0    0 -0.60149236369E+00  0.69360291078E+02 -0.12296773861E+03  0.16313050377E+03  0.81726891238E+02 0.  0.
         13    1    4    4    0    0  0.39620380783E+02  0.23003286294E+02 -0.53389809985E+02  0.70351954940E+02  0.00000000000E+00 0. -1.
        -14    1    4    4    0    0 -0.40221873147E+02  0.46357004784E+02 -0.69577928625E+02  0.92778548834E+02  0.00000000000E+00 0.  1.
        -13    1    3    3    0    0  0.45628669722E+02 -0.35194036754E+02 -0.79068365264E+02  0.97838653451E+02  0.00000000000E+00 0.  1.
         13    1    3    3    0    0 -0.17895769718E+02 -0.44124475738E+02 -0.23094759967E+03  0.23580505025E+03  0.00000000000E+00 0. -1.
          2    1    1    2  501    0 -0.27131407640E+02  0.99582214145E+01  0.22123948873E+02  0.36397095599E+02  0.00000000000E+00 0. -1.
<scales pt_clust_5="13000.00000" pt_clust_6="13000.00000" pt_clust_7="13000.00000" pt_clust_8="13000.00000" pt_clust_9="28.90120"></scales>
<clustering>
<clus scale="   28.901">  1  9  2 -1</clus>
<clus scale="   81.727">  5  6 -1 -1</clus>
<clus scale="   90.265">  7  8 -1 -1</clus>
<clus scale="  112.747">  1  5  2 -1</clus>
<clus scale="   28.901">  1  5  2 -1</clus>
</clustering>
</event>
<event>
 9    1  0.5981539E-005  0.9950653E+02  0.7546771E-02  0.1289594E+00
          1   -1    0    0  502    0 -0.00000000000E+00  0.00000000000E+00  0.14581206397E+03  0.14581206397E+03  0.00000000000E+00 0. -1.
         21   -1    0    0  501  502  0.00000000000E+00 -0.00000000000E+00 -0.49942081675E+03  0.49942081675E+03  0.00000000000E+00 0. -1.
         23    2    1    2    0    0  0.18310014773E+02 -0.42116614943E+02  0.10684064114E+03  0.14786495345E+03  0.91323906859E+02 0.  0.
        -24    2    1    2    0    0 -0.39850868921E+02 -0.21233655510E+02 -0.11113501685E+03  0.14170263630E+03  0.75430002553E+02 0.  0.
         11    1    4    4    0    0 -0.11569395383E+02 -0.22127955205E+02  0.20313708414E+01  0.25052420614E+02  0.00000000000E+00 0. -1.
        -12    1    4    4    0    0 -0.28281473539E+02  0.89429969556E+00 -0.11316638769E+03  0.11665021569E+03  0.00000000000E+00 0.  1.
        -11    1    3    3    0    0 -0.91044305935E+01  0.25722402527E+02  0.17629114844E+02  0.32485663582E+02  0.00000000000E+00 0.  1.
         11    1    3    3    0    0  0.27414445366E+02 -0.67839017470E+02  0.89211526297E+02  0.11537928987E+03  0.00000000000E+00 0. -1.
          2    1    1    2  501    0  0.21540854149E+02  0.63350270453E+02 -0.34931437708E+03  0.35566529096E+03  0.00000000000E+00 0. -1.
<scales pt_clust_5="13000.00000" pt_clust_6="13000.00000" pt_clust_7="13000.00000" pt_clust_8="13000.00000" pt_clust_9="66.91237"></scales>
<clustering>
<clus scale="   66.912">  2  9  1 -1</clus>
<clus scale="   75.430">  5  6 -1 -1</clus>
<clus scale="   85.154">  2  5  1 -1</clus>
<clus scale="   91.324">  7  8 -1 -1</clus>
<clus scale="   66.912">  2  5  1 -1</clus>
</clustering>
</event>
<event>
 9    1  0.5981539E-005  0.2085556E+03  0.7546771E-02  0.1143137E+00
         21   -1    0    0  501  502  0.00000000000E+00  0.00000000000E+00  0.46440704927E+03  0.46440704927E+03  0.00000000000E+00 0.  1.
         -2   -1    0    0    0  501 -0.00000000000E+00 -0.00000000000E+00 -0.16183868580E+03  0.16183868580E+03  0.00000000000E+00 0.  1.
         23    2    1    2    0    0  0.35088333974E+02 -0.13891360039E+03  0.94900877777E+02  0.19507177359E+03  0.92296482571E+02 0.  0.
        -24    2    1    2    0    0 -0.96290595259E+02  0.23030384776E+03  0.14252067051E+03  0.30333812288E+03  0.96902705020E+02 0.  0.
         13    1    4    4    0    0 -0.80023045646E+02  0.69039810361E+02  0.56543172965E+02  0.11986372954E+03  0.00000000000E+00 0. -1.
        -14    1    4    4    0    0 -0.16267549613E+02  0.16126403740E+03  0.85977497550E+02  0.18347439334E+03  0.00000000000E+00 0.  1.
        -11    1    3    3    0    0 -0.12658746791E+02 -0.10139033510E+03  0.30676482746E+02  0.10668313136E+03  0.00000000000E+00 0.  1.
         11    1    3    3    0    0  0.47747080764E+02 -0.37523265293E+02  0.64224395031E+02  0.88388642239E+02  0.00000000000E+00 0. -1.
         -1    1    1    2    0  502  0.61202261285E+02 -0.91390247365E+02  0.65146815178E+02  0.12783583859E+03  0.00000000000E+00 0.  1.
<scales pt_clust_5="13000.00000" pt_clust_6="13000.00000" pt_clust_7="13000.00000" pt_clust_8="13000.00000" pt_clust_9="109.99043"></scales>
<clustering>
<clus scale="   92.296">  7  8 -1 -1</clus>
<clus scale="   96.903">  5  6 -1 -1</clus>
<clus scale="  109.990">  1  9  2 -1</clus>
<clus scale="  206.456">  2  7  1 -1</clus>
<clus scale="  109.990">  1  5  2 -1</clus>
</clustering>
</event>
<event>
 9    1  0.5981539E-005  0.1025497E+03  0.7546771E-02  0.1278966E+00
          1   -1    0    0  502    0 -0.00000000000E+00  0.00000000000E+00  0.42559108894E+02  0.42559108894E+02  0.00000000000E+00 0. -1.
         21   -1    0    0  501  502  0.00000000000E+00 -0.00000000000E+00 -0.68866032413E+03  0.68866032413E+03  0.00000000000E+00 0. -1.
        -24    2    1    2    0    0  0.62083657419E+02  0.18091230509E+02 -0.13065773760E+03  0.16686194501E+03  0.81177528648E+02 0.  0.
         23    2    1    2    0    0  0.23647683668E+02 -0.65769799065E+02 -0.38298099555E+03  0.39952600466E+03  0.89787003725E+02 0.  0.
         11    1    3    3    0    0  0.80800749031E+02  0.12062232476E+02 -0.11783899347E+03  0.14338858699E+03  0.00000000000E+00 0. -1.
        -12    1    3    3    0    0 -0.18717091612E+02  0.60289980333E+01 -0.12818744131E+02  0.23473358022E+02  0.00000000000E+00 0.  1.
        -11    1    4    4    0    0 -0.32878285397E+02 -0.20782506863E+02 -0.95738276676E+02  0.10333785300E+03  0.00000000000E+00 0.  1.
         11    1    4    4    0    0  0.56525969065E+02 -0.44987292202E+02 -0.28724271888E+03  0.29618815166E+03  0.00000000000E+00 0. -1.
          2    1    1    2  501    0 -0.85731341086E+02  0.47678568556E+02 -0.13246248209E+03  0.16483148335E+03  0.00000000000E+00 0. -1.
<scales pt_clust_5="13000.00000" pt_clust_6="13000.00000" pt_clust_7="13000.00000" pt_clust_8="13000.00000" pt_clust_9="98.09749"></scales>
<clustering>
<clus scale="   81.178">  5  6 -1 -1</clus>
<clus scale="   89.787">  7  8 -1 -1</clus>
<clus scale="   98.097">  2  9  1 -1</clus>
<clus scale="   95.103">  1  5  2 -1</clus>
<clus scale="   98.097">  2  5  1 -1</clus>
</clustering>
</event>
<event>
 9    1  0.5981539E-005  0.1129454E+03  0.7546771E-02  0.1260184E+00
         21   -1    0    0  501  502  0.00000000000E+00  0.00000000000E+00  0.81479280293E+02  0.81479280293E+02  0.00000000000E+00 0. -1.
          1   -1    0    0  502    0 -0.00000000000E+00 -0.00000000000E+00 -0.32034961964E+03  0.32034961964E+03  0.00000000000E+00 0. -1.
        -24    2    1    2    0    0 -0.68154650687E+02 -0.84038172801E+01 -0.12175249712E+03  0.16026459703E+03  0.78392537591E+02 0.  0.
         23    2    1    2    0    0  0.58780462614E+02 -0.34801979931E+02  0.21062539376E+01  0.11440691452E+03  0.91750668622E+02 0.  0.
         13    1    3    3    0    0 -0.41931420655E+02 -0.37829932217E+02 -0.10100820672E+03  0.11572383348E+03  0.00000000000E+00 0. -1.
        -14    1    3    3    0    0 -0.26223230031E+02  0.29426114937E+02 -0.20744290404E+02  0.44540763553E+02  0.00000000000E+00 0.  1.
        -11    1    4    4    0    0  0.47967280980E+02  0.24657563065E+02  0.20325918869E+01  0.53972093629E+02  0.00000000000E+00 0. -1.
         11    1    4    4    0    0  0.10813181634E+02 -0.59459542995E+02  0.73662050634E-01  0.60434820893E+02  0.00000000000E+00 0.  1.
          2    1    1    2  501    0  0.93741880723E+01  0.43205797211E+02 -0.11922409616E+03  0.12715738838E+03  0.00000000000E+00 0. -1.
<scales pt_clust_5="13000.00000" pt_clust_6="13000.00000" pt_clust_7="13000.00000" pt_clust_8="13000.00000" pt_clust_9="44.21107"></scales>
<clustering>
<clus scale="   44.211">  1  9  2 -1</clus>
<clus scale="   78.393">  5  6 -1 -1</clus>
<clus scale="   91.751">  7  8 -1 -1</clus>
<clus scale="  102.391">  2  5  1 -1</clus>
<clus scale="   44.211">  1  5  2 -1</clus>
</clustering>
</event>
<event>
 9    1  0.5981539E-005  0.1060808E+03  0.7546771E-02  0.1273569E+00
          1   -1    0    0  502    0 -0.00000000000E+00  0.00000000000E+00  0.67563635389E+03  0.67563635389E+03  0.00000000000E+00 0. -1.
         21   -1    0    0  501  502  0.00000000000E+00 -0.00000000000E+00 -0.27181566257E+02  0.27181566257E+02  0.00000000000E+00 0.  1.
         23    2    1    2    0    0 -0.58312908582E+02  0.16412997813E+02  0.50275337703E+03  0.51437750548E+03  0.90296612469E+02 0.  0.
        -24    2    1    2    0    0  0.33738667301E+02 -0.25731142921E+02  0.85860209399E+02  0.12308224361E+03  0.77310243477E+02 0.  0.
         11    1    4    4    0    0 -0.22133659332E+02 -0.21680263406E+02  0.40555782489E+02  0.51036302669E+02  0.00000000000E+00 0. -1.
        -12    1    4    4    0    0  0.55872326633E+02 -0.40508795143E+01  0.45304426910E+02  0.72045940940E+02  0.00000000000E+00 0.  1.
        -11    1    3    3    0    0 -0.77923047208E+02  0.23598488312E+02  0.45543064026E+03  0.46265101105E+03  0.00000000000E+00 0. -1.
         11    1    3    3    0    0  0.19610138626E+02 -0.71854904994E+01  0.47322736772E+02  0.51726494432E+02  0.00000000000E+00 0.  1.
          2    1    1    2  501    0  0.24574241281E+02  0.93181451079E+01  0.59841201207E+02  0.65358171063E+02  0.00000000000E+00 0. -1.
<scales pt_clust_5="13000.00000" pt_clust_6="13000.00000" pt_clust_7="13000.00000" pt_clust_8="13000.00000" pt_clust_9="26.28157"></scales>
<clustering>
<clus scale="   26.282">  2  9  1 -1</clus>
<clus scale="   77.310">  5  6 -1 -1</clus>
<clus scale="   90.297">  7  8 -1 -1</clus>
<clus scale="   95.271">  2  5  1 -1</clus>
<clus scale="   26.282">  2  5  1 -1</clus>
</clustering>
</event>
<event>
 9    1  0.5981539E-005  0.1920386E+03  0.7546771E-02  0.1158026E+00
         21   -1    0    0  501  502  0.00000000000E+00  0.00000000000E+00  0.19631374020E+03  0.19631374020E+03  0.00000000000E+00 0. -1.
          1   -1    0    0  502    0 -0.00000000000E+00 -0.00000000000E+00 -0.31271187675E+03  0.31271187675E+03  0.00000000000E+00 0. -1.
         23    2    1    2    0    0  0.97813661654E+02  0.17237189898E+03 -0.13718245033E+03  0.25808760504E+03  0.92252930750E+02 0.  0.
        -24    2    1    2    0    0 -0.35156159459E+02 -0.11163948154E+03  0.62462965246E+02  0.15423486254E+03  0.78660291182E+02 0.  0.
         11    1    4    4    0    0 -0.44118330354E+02 -0.12047361770E+03  0.54880254137E+02  0.13954268855E+03  0.00000000000E+00 0. -1.
        -12    1    4    4    0    0  0.89621708945E+01  0.88341361553E+01  0.75827111089E+01  0.14692173989E+02  0.00000000000E+00 0.  1.
        -13    1    3    3    0    0  0.99420084035E+02  0.14245636093E+03 -0.75303245911E+02  0.18933765268E+03  0.00000000000E+00 0. -1.
         13    1    3    3    0    0 -0.16064223816E+01  0.29915538057E+02 -0.61879204417E+02  0.68749952359E+02  0.00000000000E+00 0.  1.
          2    1    1    2  501    0 -0.62657502194E+02 -0.60732417441E+02 -0.41678651465E+02  0.96703149367E+02  0.00000000000E+00 0. -1.
<scales pt_clust_5="13000.00000" pt_clust_6="13000.00000" pt_clust_7="13000.00000" pt_clust_8="13000.00000" pt_clust_9="87.26051"></scales>
<clustering>
<clus scale="   78.660">  5  6 -1 -1</clus>
<clus scale="   87.261">  1  9  2 -1</clus>
<clus scale="   92.253">  7  8 -1 -1</clus>
<clus scale="  185.892">  1  5  2 -1</clus>
<clus scale="   87.261">  1  5  2 -1</clus>
</clustering>
</event>
<event>
 9    1  0.5981539E-005  0.2450367E+03  0.7546771E-02  0.1154301E+00
          1   -1    0    0  502    0 -0.00000000000E+00  0.00000000000E+00  0.11293826123E+04  0.11293826123E+04  0.00000000000E+00 0. -1.
         21   -1    0    0  501  502  0.00000000000E+00 -0.00000000000E+00 -0.84510991172E+02  0.84510991172E+02  0.00000000000E+00 0. -1.
         23    2    1    2    0    0  0.27469078482E+02  0.20047472336E+02  0.48694445722E+02  0.10911272995E+03  0.91531346399E+02 0.  0.
        -24    2    1    2    0    0 -0.20433048002E+03 -0.14268160277E+03  0.52623635374E+03  0.58790229864E+03  0.81212239916E+02 0.  0.
         11    1    4    4    0    0 -0.19431181195E+03 -0.14895582561E+03  0.51948145594E+03  0.57428729858E+03  0.00000000000E+00 0. -1.
        -12    1    4    4    0    0 -0.10018668076E+02  0.62742228396E+01  0.67548977947E+01  0.13615000054E+02  0.00000000000E+00 0.  1.
        -11    1    3    3    0    0 -0.21528053571E+01  0.28738160139E+02  0.67201207938E+02  0.73119893103E+02  0.00000000000E+00 0.  1.
         11    1    3    3    0    0  0.29621883839E+02 -0.86906878028E+01 -0.18506762217E+02  0.35992836848E+02  0.00000000000E+00 0. -1.
          2    1    1    2  501    0  0.17686140154E+03  0.12263413043E+03  0.46994082164E+03  0.51687857486E+03  0.00000000000E+00 0. -1.
<scales pt_clust_5="13000.00000" pt_clust_6="13000.00000" pt_clust_7="13000.00000" pt_clust_8="13000.00000" pt_clust_9="231.18725"></scales>
<clustering>
<clus scale="   81.212">  5  6 -1 -1</clus>
<clus scale="   91.531">  7  8 -1 -1</clus>
<clus scale="   97.644">  1  7  2 -1</clus>
<clus scale="  231.187">  2  9  1 -1</clus>
<clus scale="  231.187">  2  5  1 -1</clus>
</clustering>
</event>
<event>
 9    1  0.5981539E-005  0.1158887E+03  0.7546771E-02  0.1253034E+00
         21   -1    0    0  501  502  0.00000000000E+00  0.00000000000E+00  0.20019311553E+02  0.20019311553E+02  0.00000000000E+00 0. -1.
          1   -1    0    0  502    0 -0.00000000000E+00 -0.00000000000E+00 -0.10618091438E+04  0.10618091438E+04  0.00000000000E+00 0. -1.
         23    2    1    2    0    0  0.42524292283E+02 -0.35992595722E+02 -0.31073354789E+03  0.32768380149E+03  0.87849607800E+02 0.  0.
        -24    2    1    2    0    0 -0.53858244541E+02  0.84179323545E+02 -0.40995720394E+03  0.42925230453E+03  0.78776664475E+02 0.  0.
         11    1    4    4    0    0 -0.72250275230E+02  0.54472556259E+02 -0.32577016671E+03  0.33810288844E+03  0.00000000000E+00 0. -1.
        -12    1    4    4    0    0  0.18392030689E+02  0.29706767286E+02 -0.84187037229E+02  0.91149416086E+02  0.00000000000E+00 0.  1.
        -11    1    3    3    0    0  0.31745852617E+02  0.24897763242E+02 -0.15388575049E+03  0.15908652356E+03  0.00000000000E+00 0. -1.
         11    1    3    3    0    0  0.10778439666E+02 -0.60890358964E+02 -0.15684779740E+03  0.16859727793E+03  0.00000000000E+00 0.  1.
          2    1    1    2  501    0  0.11333952257E+02 -0.48186727823E+02 -0.32109908042E+03  0.32489234934E+03  0.00000000000E+00 0. -1.
<scales pt_clust_5="13000.00000" pt_clust_6="13000.00000" pt_clust_7="13000.00000" pt_clust_8="13000.00000" pt_clust_9="49.50173"></scales>
<clustering>
<clus scale="   49.502">  1  9  2 -1</clus>
<clus scale="   78.777">  5  6 -1 -1</clus>
<clus scale="   87.850">  7  8 -1 -1</clus>
<clus scale="  109.171">  1  5  2 -1</clus>
<clus scale="   49.502">  1  5  2 -1</clus>
</clustering>
</event>
<event>
 9    1  0.5981539E-005  0.1194885E+03  0.7546771E-02  0.1247893E+00
         21   -1    0    0  501  502  0.00000000000E+00  0.00000000000E+00  0.88160706260E+02  0.88160706260E+02  0.00000000000E+00 0. -1.
          1   -1    0    0  502    0 -0.00000000000E+00 -0.00000000000E+00 -0.33450304019E+03  0.33450304019E+03  0.00000000000E+00 0. -1.
        -24    2    1    2    0    0  0.63402012607E+02 -0.42702380396E+02 -0.93409715439E+02  0.14490345158E+03  0.80176847324E+02 0.  0.
         23    2    1    2    0    0 -0.13750338079E+02  0.93716476664E+02 -0.29897670608E+02  0.13561485807E+03  0.92334550561E+02 0.  0.
         11    1    3    3    0    0  0.11877077135E+02  0.22846890324E+02 -0.33417511038E+02  0.42187384402E+02  0.00000000000E+00 0. -1.
        -12    1    3    3    0    0  0.51524935472E+02 -0.65549270719E+02 -0.59992204401E+02  0.10271606718E+03  0.00000000000E+00 0.  1.
        -11    1    4    4    0    0 -0.47398653448E+02  0.30403002680E+02 -0.30234233168E+02  0.63914660102E+02  0.00000000000E+00 0. -1.
         11    1    4    4    0    0  0.33648315369E+02  0.63313473984E+02  0.33656256074E+00  0.71700197973E+02  0.00000000000E+00 0.  1.
          2    1    1    2  501    0 -0.49651674529E+02 -0.51014096268E+02 -0.12303494788E+03  0.14214543679E+03  0.00000000000E+00 0. -1.
<scales pt_clust_5="13000.00000" pt_clust_6="13000.00000" pt_clust_7="13000.00000" pt_clust_8="13000.00000" pt_clust_9="71.18800"></scales>
<clustering>
<clus scale="   71.188">  1  9  2 -1</clus>
<clus scale="   80.177">  5  6 -1 -1</clus>
<clus scale="   92.335">  7  8 -1 -1</clus>
<clus scale="  110.364">  2  5  1 -1</clus>
<clus scale="   71.188">  1  5  2 -1</clus>
</clustering>
</event>
<event>
 9    1  0.5981539E-005  0.1469127E+03  0.7546771E-02  0.1234757E+00
          1   -1    0    0  502    0 -0.00000000000E+00  0.00000000000E+00  0.97909997513E+02  0.97909997513E+02  0.00000000000E+00 0. -1.
         21   -1    0    0  501  502  0.00000000000E+00 -0.00000000000E+00 -0.58176630584E+03  0.58176630584E+03  0.00000000000E+00 0. -1.
        -24    2    1    2    0    0 -0.56347340459E+01 -0.41534260716E+01  0.31274184633E+02  0.83562699177E+02  0.77172850753E+02 0.  0.
         23    2    1    2    0    0 -0.94517926091E+02  0.64590171372E+02 -0.13504650867E+03  0.19843661134E+03  0.89632586857E+02 0.  0.
         13    1    3    3    0    0  0.71892041925E+01  0.33675515427E+02  0.28782877692E+01  0.34554443081E+02  0.00000000000E+00 0. -1.
        -14    1    3    3    0    0 -0.12823938238E+02 -0.37828941498E+02  0.28395896864E+02  0.49008256096E+02  0.00000000000E+00 0.  1.
        -13    1    4    4    0    0 -0.79460721453E+02  0.40700735105E+02 -0.14345982605E+03  0.16897123359E+03  0.00000000000E+00 0. -1.
         13    1    4    4    0    0 -0.15057204638E+02  0.23889436267E+02  0.84133173780E+01  0.29465377751E+02  0.00000000000E+00 0.  1.
          2    1    1    2  501    0  0.10015266014E+03 -0.60436745301E+02 -0.38008398429E+03  0.39767699283E+03  0.00000000000E+00 0. -1.
<scales pt_clust_5="13000.00000" pt_clust_6="13000.00000" pt_clust_7="13000.00000" pt_clust_8="13000.00000" pt_clust_9="116.40162"></scales>
<clustering>
<clus scale="   77.173">  5  6 -1 -1</clus>
<clus scale="   77.490">  1  5  2 -1</clus>
<clus scale="   89.633">  7  8 -1 -1</clus>
<clus scale="  116.402">  2  9  1 -1</clus>
<clus scale="  116.402">  2  5  1 -1</clus>
</clustering>
</event>
<event>
 9    1  0.5981539E-005  0.1892232E+03  0.7546771E-02  0.1160246E+00
         -2   -1    0    0    0  501 -0.00000000000E+00  0.00000000000E+00  0.10642237211E+03  0.10642237211E+03  0.00000000000E+00 0.  1.
         21   -1    0    0  501  502  0.00000000000E+00 -0.00000000000E+00 -0.40162557137E+03  0.40162557137E+03  0.00000000000E+00 0. -1.
         23    2    1    2    0    0  0.15224264231E+03 -0.26522565242E+02 -0.13445109193E+03  0.22433396971E+03  0.91473303423E+02 0.  0.
        -24    2    1    2    0    0 -0.17818097979E+03 -0.64487383414E+00 -0.12882957138E+03  0.23441980171E+03  0.81281655698E+02 0.  0.
         11    1    4    4    0    0 -0.61276685157E+02  0.36519320198E+02 -0.32209098773E+02  0.78268249854E+02  0.00000000000E+00 0. -1.
        -12    1    4    4    0    0 -0.11690429463E+03 -0.37164194032E+02 -0.96620472604E+02  0.15615155186E+03  0.00000000000E+00 0.  1.
        -13    1    3    3    0    0  0.11790225777E+03  0.18459211836E+02 -0.11131588446E+03  0.16319592832E+03  0.00000000000E+00 0.  1.
         13    1    3    3    0    0  0.34340384541E+02 -0.44981777078E+02 -0.23135207472E+02  0.61138041385E+02  0.00000000000E+00 0. -1.
         -1    1    1    2    0  502  0.25938337478E+02  0.27167439076E+02 -0.31922535952E+02  0.49294172056E+02  0.00000000000E+00 0.  1.
<scales pt_clust_5="13000.00000" pt_clust_6="13000.00000" pt_clust_7="13000.00000" pt_clust_8="13000.00000" pt_clust_9="37.56151"></scales>
<clustering>
<clus scale="   37.562">  2  9  1 -1</clus>
<clus scale="   81.282">  5  6 -1 -1</clus>
<clus scale="   91.473">  7  8 -1 -1</clus>
<clus scale="  184.512">  2  5  1 -1</clus>
<clus scale="   37.562">  2  5  1 -1</clus>
</clustering>
</event>
<event>
 9    1  0.5981539E-005  0.1018462E+03  0.7546771E-02  0.1286077E+00
         21   -1    0    0  501  502  0.00000000000E+00  0.00000000000E+00  0.27444964248E+03  0.27444964248E+03  0.00000000000E+00 0. -1.
          1   -1    0    0  502    0 -0.00000000000E+00 -0.00000000000E+00 -0.92125043720E+02  0.92125043720E+02  0.00000000000E+00 0. -1.
        -24    2    1    2    0    0  0.10173138883E+02 -0.36860049729E+02 -0.34439377485E+02  0.92789620715E+02  0.77211961315E+02 0.  0.
         23    2    1    2    0    0  0.45751202678E+02  0.24623593479E+02  0.15717949997E+03  0.19115593833E+03  0.95580874907E+02 0.  0.
         13    1    3    3    0    0  0.37297497775E+02 -0.43059457477E+02 -0.30709240342E+02  0.64716903981E+02  0.00000000000E+00 0. -1.
        -14    1    3    3    0    0 -0.27124358892E+02  0.61994077486E+01 -0.37301371429E+01  0.28072716734E+02  0.00000000000E+00 0.  1.
        -13    1    4    4    0    0  0.65196552241E+02 -0.11267272812E+02  0.11346251881E+03  0.13134414732E+03  0.00000000000E+00 0. -1.
         13    1    4    4    0    0 -0.19445349563E+02  0.35890866291E+02  0.43716981161E+02  0.59811791016E+02  0.00000000000E+00 0.  1.
          2    1    1    2  501    0 -0.55924341561E+02  0.12236456249E+02  0.59584476280E+02  0.82629127154E+02  0.00000000000E+00 0. -1.
<scales pt_clust_5="13000.00000" pt_clust_6="13000.00000" pt_clust_7="13000.00000" pt_clust_8="13000.00000" pt_clust_9="57.24738"></scales>
<clustering>
<clus scale="   57.247">  1  9  2 -1</clus>
<clus scale="   77.212">  5  6 -1 -1</clus>
<clus scale="   84.845">  2  5  1 -1</clus>
<clus scale="   95.581">  7  8 -1 -1</clus>
<clus scale="   57.247">  1  5  2 -1</clus>
</clustering>
</event>
<event>
 9    1  0.5981539E-005  0.1032889E+03  0.7546771E-02  0.1278127E+00
         21   -1    0    0  501  502  0.00000000000E+00  0.00000000000E+00  0.11142514375E+03  0.11142514375E+03  0.00000000000E+00 0. -1.
          1   -1    0    0  502    0 -0.00000000000E+00 -0.00000000000E+00 -0.23913475844E+03  0.23913475844E+03  0.00000000000E+00 0. -1.
         23    2    1    2    0    0  0.42082074520E+02 -0.32802093138E+02 -0.14064242323E+03  0.17564682671E+03  0.90689791103E+02 0.  0.
        -24    2    1    2    0    0 -0.56301992834E+02 -0.18253949822E+02 -0.32434768812E+02  0.10514816543E+03  0.80628787562E+02 0.  0.
         11    1    4    4    0    0 -0.45696642128E+02  0.25487077345E+02 -0.52963799095E+01  0.52591119531E+02  0.00000000000E+00 0. -1.
        -12    1    4    4    0    0 -0.10605350706E+02 -0.43741027167E+02 -0.27138388902E+02  0.52557045897E+02  0.00000000000E+00 0.  1.
        -13    1    3    3    0    0  0.27733250695E+02  0.16021295550E+02 -0.71959721768E+01  0.32826774450E+02  0.00000000000E+00 0.  1.
         13    1    3    3    0    0  0.14348823824E+02 -0.48823388688E+02 -0.13344645105E+03  0.14282005226E+03  0.00000000000E+00 0. -1.
          2    1    1    2  501    0  0.14219918315E+02  0.51056042961E+02  0.45367577350E+02  0.69764910050E+02  0.00000000000E+00 0. -1.
<scales pt_clust_5="13000.00000" pt_clust_6="13000.00000" pt_clust_7="13000.00000" pt_clust_8="13000.00000" pt_clust_9="52.99930"></scales>
<clustering>
<clus scale="   52.999">  1  9  2 -1</clus>
<clus scale="   80.629">  5  6 -1 -1</clus>
<clus scale="   90.690">  7  8 -1 -1</clus>
<clus scale="   94.578">  1  5  2 -1</clus>
<clus scale="   52.999">  1  5  2 -1</clus>
</clustering>
</event>
<event>
 9    1  0.5981539E-005  0.9596702E+02  0.7546771E-02  0.1293193E+00
         21   -1    0    0  501  502  0.00000000000E+00  0.00000000000E+00  0.22367715593E+03  0.22367715593E+03  0.00000000000E+00 0. -1.
         -2   -1    0    0    0  501 -0.00000000000E+00 -0.00000000000E+00 -0.91067388746E+02  0.91067388746E+02  0.00000000000E+00 0.  1.
         23    2    1    2    0    0  0.17251300095E+02  0.17479690087E+02 -0.27820508859E+00  0.91603083261E+02  0.88249082400E+02 0.  0.
        -24    2    1    2    0    0 -0.39617656845E+02 -0.35350295129E+02  0.98374451237E+01  0.96804433310E+02  0.80343766917E+02 0.  0.
         11    1    4    4    0    0  0.10317077800E+02 -0.29568400428E+02  0.29313155652E+02  0.42895145326E+02  0.00000000000E+00 0. -1.
        -12    1    4    4    0    0 -0.49934734645E+02 -0.57818947005E+01 -0.19475710528E+02  0.53909287984E+02  0.00000000000E+00 0.  1.
        -11    1    3    3    0    0  0.25463986096E+02 -0.18948180379E+02 -0.30154164012E+02  0.43780380707E+02  0.00000000000E+00 0.  1.
         11    1    3    3    0    0 -0.82126860015E+01  0.36427870466E+02  0.29875958923E+02  0.47822702555E+02  0.00000000000E+00 0. -1.
         -1    1    1    2    0  502  0.22366356750E+02  0.17870605042E+02  0.12305052715E+03  0.12633702810E+03  0.00000000000E+00 0.  1.
<scales pt_clust_5="13000.00000" pt_clust_6="13000.00000" pt_clust_7="13000.00000" pt_clust_8="13000.00000" pt_clust_9="28.62887"></scales>
<clustering>
<clus scale="   28.629">  1  9  2 -1</clus>
<clus scale="   80.344">  5  6 -1 -1</clus>
<clus scale="   88.249">  7  8 -1 -1</clus>
<clus scale="   88.752">  1  5  2 -1</clus>
<clus scale="   28.629">  1  5  2 -1</clus>
</clustering>
</event>
<event>
 9    1  0.5981539E-005  0.9293279E+02  0.7546771E-02  0.1301563E+00
         21   -1    0    0  501  502  0.00000000000E+00  0.00000000000E+00  0.17233889959E+03  0.17233889959E+03  0.00000000000E+00 0.  1.
          3   -1    0    0  502    0 -0.00000000000E+00 -0.00000000000E+00 -0.11594952086E+03  0.11594952086E+03  0.00000000000E+00 0. -1.
        -24    2    1    2    0    0  0.11202462569E+02 -0.97494256592E+01 -0.72320114794E+02  0.11092782455E+03  0.82790318205E+02 0.  0.
         23    2    1    2    0    0  0.13882038653E+02  0.11045227041E+02  0.83224429711E+02  0.12540097376E+03  0.92110751175E+02 0.  0.
         13    1    3    3    0    0  0.63352617325E+01  0.34488315275E+02 -0.50186457677E+02  0.61223034602E+02  0.00000000000E+00 0. -1.
        -14    1    3    3    0    0  0.48672008362E+01 -0.44237740934E+02 -0.22133657117E+02  0.49704789953E+02  0.00000000000E+00 0.  1.
        -13    1    4    4    0    0  0.43870371533E+02 -0.26426971943E+01  0.81252802444E+02  0.92377547337E+02  0.00000000000E+00 0.  1.
         13    1    4    4    0    0 -0.29988332879E+02  0.13687924235E+02  0.19716272668E+01  0.33023426425E+02  0.00000000000E+00 0. -1.
          4    1    1    2  501    0 -0.25084501222E+02 -0.12958013817E+01  0.45485063807E+02  0.51959622134E+02  0.00000000000E+00 0. -1.
<scales pt_clust_5="13000.00000" pt_clust_6="13000.00000" pt_clust_7="13000.00000" pt_clust_8="13000.00000" pt_clust_9="25.11795"></scales>
<clustering>
<clus scale="   25.118">  1  9  2 -1</clus>
<clus scale="   82.790">  5  6 -1 -1</clus>
<clus scale="   83.704">  2  5  1 -1</clus>
<clus scale="   92.111">  7  8 -1 -1</clus>
<clus scale="   25.118">  1  5  2 -1</clus>
</clustering>
</event>
<event>
 9    1  0.6552650E-005  0.9910810E+02  0.7546771E-02  0.1287836E+00
         21   -1    0    0  501  502  0.00000000000E+00  0.00000000000E+00  0.65208063025E+02  0.65208063025E+02  0.00000000000E+00 0. -1.
         -4   -1    0    0    0  501 -0.00000000000E+00 -0.00000000000E+00 -0.53908664927E+03  0.53908664927E+03  0.00000000000E+00 0.  1.
        -24    2    1    2    0    0 -0.35569147095E+02  0.10569413346E+02 -0.46458982952E+03  0.47291886464E+03  0.80197669017E+02 0.  0.
         23    2    1    2    0    0  0.52948615127E+02 -0.21833464107E+02 -0.17464564158E+02  0.10910998643E+03  0.91212510872E+02 0.  0.
         13    1    3    3    0    0 -0.10724893828E+02 -0.17888482728E+02 -0.29149394087E+02  0.35842828258E+02  0.00000000000E+00 0. -1.
        -14    1    3    3    0    0 -0.24844253267E+02  0.28457896073E+02 -0.43544043544E+03  0.43707603639E+03  0.00000000000E+00 0.  1.
        -11    1    4    4    0    0  0.16092932260E+01  0.32576502002E+02 -0.17071348144E+01  0.32660872870E+02  0.00000000000E+00 0.  1.
         11    1    4    4    0    0  0.51339321902E+02 -0.54409966108E+02 -0.15757429343E+02  0.76449113564E+02  0.00000000000E+00 0. -1.
         -3    1    1    2    0  502 -0.17379468033E+02  0.11264050761E+02  0.81758074344E+01  0.22265861219E+02  0.00000000000E+00 0.  1.
<scales pt_clust_5="13000.00000" pt_clust_6="13000.00000" pt_clust_7="13000.00000" pt_clust_8="13000.00000" pt_clust_9="20.71050"></scales>
<clustering>
<clus scale="   20.710">  1  9  2 -1</clus>
<clus scale="   80.198">  5  6 -1 -1</clus>
<clus scale="   89.075">  2  5  1 -1</clus>
<clus scale="   91.213">  7  8 -1 -1</clus>
<clus scale="   20.710">  1  5  2 -1</clus>
</clustering>
</event>
<event>
 9    1  0.5981539E-005  0.1254721E+03  0.7546771E-02  0.1235908E+00
         21   -1    0    0  501  502  0.00000000000E+00  0.00000000000E+00  0.12085986422E+03  0.12085986422E+03  0.00000000000E+00 0.  1.
         -4   -1    0    0    0  501 -0.00000000000E+00 -0.00000000000E+00 -0.33912475287E+03  0.33912475287E+03  0.00000000000E+00 0.  1.
        -24    2    1    2    0    0 -0.75042737528E+02  0.46740344229E+02 -0.21563274164E+03  0.24840326512E+03  0.85968777011E+02 0.  0.
         23    2    1    2    0    0  0.97352963043E+02  0.25443588036E+02 -0.12281818505E+01  0.13601523948E+03  0.91507711991E+02 0.  0.
         13    1    3    3    0    0 -0.41771559016E+01 -0.19651798110E+02 -0.73991771137E+02  0.76670881020E+02  0.00000000000E+00 0. -1.
        -14    1    3    3    0    0 -0.70865581627E+02  0.66392142340E+02 -0.14164097050E+03  0.17173238410E+03  0.00000000000E+00 0.  1.
        -13    1    4    4    0    0  0.37070003922E+02 -0.10511226898E+02 -0.40238751668E+02  0.55712011429E+02  0.00000000000E+00 0. -1.
         13    1    4    4    0    0  0.60282959121E+02  0.35954814933E+02  0.39010569818E+02  0.80303228047E+02  0.00000000000E+00 0.  1.
         -3    1    1    2    0  502 -0.22310225514E+02 -0.72183932265E+02 -0.14039651607E+01  0.75566112497E+02  0.00000000000E+00 0.  1.
<scales pt_clust_5="13000.00000" pt_clust_6="13000.00000" pt_clust_7="13000.00000" pt_clust_8="13000.00000" pt_clust_9="75.55307"></scales>
<clustering>
<clus scale="   75.553">  1  9  2 -1</clus>
<clus scale="   85.969">  5  6 -1 -1</clus>
<clus scale="   91.508">  7  8 -1 -1</clus>
<clus scale="  121.492">  2  5  1 -1</clus>
<clus scale="   75.553">  1  5  2 -1</clus>
</clustering>
</event>
<event>
 9    1  0.5981539E-005  0.9258675E+02  0.7546771E-02  0.1302230E+00
          1   -1    0    0  502    0 -0.00000000000E+00  0.00000000000E+00  0.11916772655E+03  0.11916772655E+03  0.00000000000E+00 0. -1.
         21   -1    0    0  501  502  0.00000000000E+00 -0.00000000000E+00 -0.42461500799E+03  0.42461500799E+03  0.00000000000E+00 0.  1.
         23    2    1    2    0    0 -0.15085961296E+02 -0.65363510662E+01  0.66527592037E+02  0.11381089360E+03  0.90866324267E+02 0.  0.
        -24    2    1    2    0    0  0.52987767728E+02 -0.48648780479E+02 -0.33759699589E+03  0.35471372416E+03  0.81704878096E+02 0.  0.
         11    1    4    4    0    0 -0.11784760868E+02 -0.38461354020E+02 -0.89978766057E+02  0.98561324478E+02  0.00000000000E+00 0. -1.
        -12    1    4    4    0    0  0.64772528596E+02 -0.10187426459E+02 -0.24761822983E+03  0.25615239968E+03  0.00000000000E+00 0.  1.
        -11    1    3    3    0    0 -0.31570969539E+02  0.34279558648E+02  0.45104183556E+02  0.64855235972E+02  0.00000000000E+00 0.  1.
         11    1    3    3    0    0  0.16485008244E+02 -0.40815909714E+02  0.21423408481E+02  0.48955657625E+02  0.00000000000E+00 0. -1.
          2    1    1    2  501    0 -0.37901806432E+02  0.55185131545E+02 -0.34377877590E+02  0.75258116785E+02  0.00000000000E+00 0. -1.
<scales pt_clust_5="13000.00000" pt_clust_6="13000.00000" pt_clust_7="13000.00000" pt_clust_8="13000.00000" pt_clust_9="66.94737"></scales>
<clustering>
<clus scale="   66.947">  2  9  1 -1</clus>
<clus scale="   81.705">  5  6 -1 -1</clus>
<clus scale="   83.614">  2  5  1 -1</clus>
<clus scale="   90.866">  7  8 -1 -1</clus>
<clus scale="   66.947">  2  5  1 -1</clus>
</clustering>
</event>
<event>
 9    1  0.5981539E-005  0.1751097E+03  0.7546771E-02  0.1182484E+00
         21   -1    0    0  501  502  0.00000000000E+00  0.00000000000E+00  0.36941894915E+02  0.36941894915E+02  0.00000000000E+00 0. -1.
          1   -1    0    0  502    0 -0.00000000000E+00 -0.00000000000E+00 -0.17628786825E+04  0.17628786825E+04  0.00000000000E+00 0. -1.
         23    2    1    2    0    0  0.73902245314E+02 -0.72038570050E+02 -0.51807686208E+03  0.53670120123E+03  0.94833785865E+02 0.  0.
        -24    2    1    2    0    0  0.11357517110E+03  0.93789831221E+02 -0.40806595953E+03  0.44135828740E+03  0.81138514896E+02 0.  0.
         11    1    4    4    0    0  0.48034660345E+02  0.89932626867E+02 -0.23046223220E+03  0.25200802852E+03  0.00000000000E+00 0. -1.
        -12    1    4    4    0    0  0.65540510757E+02  0.38572043541E+01 -0.17760372733E+03  0.18935025887E+03  0.00000000000E+00 0.  1.
        -13    1    3    3    0    0  0.48540679530E+02  0.86068209102E+01 -0.11971865719E+03  0.12947135519E+03  0.00000000000E+00 0.  1.
         13    1    3    3    0    0  0.25361565784E+02 -0.80645390961E+02 -0.39835820489E+03  0.40722984604E+03  0.00000000000E+00 0. -1.
          2    1    1    2  501    0 -0.18747741642E+03 -0.21751261170E+02 -0.79979396595E+03  0.82176108876E+03  0.00000000000E+00 0. -1.
<scales pt_clust_5="13000.00000" pt_clust_6="13000.00000" pt_clust_7="13000.00000" pt_clust_8="13000.00000" pt_clust_9="155.17726"></scales>
<clustering>
<clus scale="   81.139">  5  6 -1 -1</clus>
<clus scale="   94.834">  7  8 -1 -1</clus>
<clus scale="  140.159">  2  7  1 -1</clus>
<clus scale="  155.177">  1  9  2 -1</clus>
<clus scale="  155.177">  1  5  2 -1</clus>
</clustering>
</event>
<event>
 9    1  0.5981539E-005  0.1616507E+03  0.7546771E-02  0.1190184E+00
         -2   -1    0    0    0  501 -0.00000000000E+00  0.00000000000E+00  0.11411417146E+04  0.11411417146E+04  0.00000000000E+00 0.  1.
         21   -1    0    0  501  502  0.00000000000E+00 -0.00000000000E+00 -0.55590082119E+02  0.55590082119E+02  0.00000000000E+00 0. -1.
        -24    2    1    2    0    0 -0.89354759201E+02  0.10793405947E+03  0.63429473800E+03  0.65448781695E+03  0.79940313337E+02 0.  0.
         23    2    1    2    0    0  0.59119512247E+02 -0.95986050582E+02  0.47735236474E+03  0.50055586829E+03  0.99912254134E+02 0.  0.
         13    1    3    3    0    0 -0.59074039224E+02  0.46124901505E+02  0.17956426879E+03  0.19457794139E+03  0.00000000000E+00 0. -1.
        -14    1    3    3    0    0 -0.30280719976E+02  0.61809157960E+02  0.45473046921E+03  0.45990987556E+03  0.00000000000E+00 0.  1.
        -11    1    4    4    0    0  0.68646991960E+02 -0.18873229489E+02  0.26640169157E+03  0.27575073810E+03  0.00000000000E+00 0.  1.
         11    1    4    4    0    0 -0.95274797127E+01 -0.77112821093E+02  0.21095067317E+03  0.22480513019E+03  0.00000000000E+00 0. -1.
         -1    1    1    2    0  502  0.30235246954E+02 -0.11948008884E+02 -0.26095470228E+02  0.41688111507E+02  0.00000000000E+00 0.  1.
<scales pt_clust_5="13000.00000" pt_clust_6="13000.00000" pt_clust_7="13000.00000" pt_clust_8="13000.00000" pt_clust_9="32.51038"></scales>
<clustering>
<clus scale="   32.510">  2  9  1 -1</clus>
<clus scale="   79.940">  5  6 -1 -1</clus>
<clus scale="   99.912">  7  8 -1 -1</clus>
<clus scale="  150.130">  1  5  2 -1</clus>
<clus scale="   32.510">  2  5  1 -1</clus>
</clustering>
</event>
<event>
 9    1  0.5981539E-005  0.9366837E+02  0.7546771E-02  0.1313935E+00
         21   -1    0    0  501  502  0.00000000000E+00  0.00000000000E+00  0.75538269051E+02  0.75538269051E+02  0.00000000000E+00 0. -1.
          1   -1    0    0  502    0 -0.00000000000E+00 -0.00000000000E+00 -0.24380461098E+03  0.24380461098E+03  0.00000000000E+00 0. -1.
         23    2    1    2    0    0 -0.15073761278E+02  0.20644077944E+02 -0.17776636934E+03  0.20147958260E+03  0.91322198295E+02 0.  0.
        -24    2    1    2    0    0  0.20210517355E+02  0.18566540452E+02  0.29193025004E+02  0.73685554031E+02  0.61839685703E+02 0.  0.
         13    1    4    4    0    0 -0.14232782161E+02  0.25168399006E+02  0.14179478792E+01  0.28948764615E+02  0.00000000000E+00 0. -1.
        -14    1    4    4    0    0  0.34443299516E+02 -0.66018585543E+01  0.27775077125E+02  0.44736789416E+02  0.00000000000E+00 0.  1.
        -13    1    3    3    0    0  0.36105492586E+02  0.20412902245E+02 -0.10134112910E+03  0.10950030877E+03  0.00000000000E+00 0.  1.
         13    1    3    3    0    0 -0.51179253864E+02  0.23117569939E+00 -0.76425240246E+02  0.91979273834E+02  0.00000000000E+00 0. -1.
          2    1    1    2  501    0 -0.51367560777E+01 -0.39210618395E+02 -0.19692997589E+02  0.44177743401E+02  0.00000000000E+00 0. -1.
<scales pt_clust_5="13000.00000" pt_clust_6="13000.00000" pt_clust_7="13000.00000" pt_clust_8="13000.00000" pt_clust_9="39.54566"></scales>
<clustering>
<clus scale="   39.546">  1  9  2 -1</clus>
<clus scale="   61.840">  5  6 -1 -1</clus>
<clus scale="   65.255">  1  5  2 -1</clus>
<clus scale="   91.322">  7  8 -1 -1</clus>
<clus scale="   39.546">  1  5  2 -1</clus>
</clustering>
</event>
<event>
 9    1  0.5981539E-005  0.1308450E+03  0.7546771E-02  0.1229981E+00
          1   -1    0    0  502    0 -0.00000000000E+00  0.00000000000E+00  0.19784744711E+03  0.19784744711E+03  0.00000000000E+00 0. -1.
         21   -1    0    0  501  502  0.00000000000E+00 -0.00000000000E+00 -0.12045709661E+03  0.12045709661E+03  0.00000000000E+00 0. -1.
        -24    2    1    2    0    0 -0.93131534930E+02 -0.14399035204E+02  0.88655254703E+02  0.15091135857E+03  0.77676694996E+02 0.  0.
         23    2    1    2    0    0  0.90694288120E+02 -0.10644545508E+02 -0.33226979762E+02  0.13399477396E+03  0.92259454894E+02 0.  0.
         13    1    3    3    0    0 -0.10664412407E+03 -0.75488627831E+01  0.76002956777E+02  0.13117318311E+03  0.00000000000E+00 0. -1.
        -14    1    3    3    0    0  0.13512589144E+02 -0.68501724212E+01  0.12652297926E+02  0.19738175457E+02  0.00000000000E+00 0.  1.
        -11    1    4    4    0    0  0.74739246216E+02 -0.44593777151E+02 -0.40155165362E+02  0.95848824671E+02  0.00000000000E+00 0. -1.
         11    1    4    4    0    0  0.15955041904E+02  0.33949231643E+02  0.69281855994E+01  0.38145949287E+02  0.00000000000E+00 0.  1.
          2    1    1    2  501    0  0.24372468094E+01  0.25043580712E+02  0.21962075566E+02  0.33398411191E+02  0.00000000000E+00 0. -1.
<scales pt_clust_5="13000.00000" pt_clust_6="13000.00000" pt_clust_7="13000.00000" pt_clust_8="13000.00000" pt_clust_9="25.16191"></scales>
<clustering>
<clus scale="   25.162">  2  9  1 -1</clus>
<clus scale="   77.677">  5  6 -1 -1</clus>
<clus scale="   92.259">  7  8 -1 -1</clus>
<clus scale="  121.005">  1  5  2 -1</clus>
<clus scale="   25.162">  2  5  1 -1</clus>
</clustering>
</event>
<event>
 9    1  0.5981539E-005  0.1201903E+03  0.7546771E-02  0.1244718E+00
          1   -1    0    0  502    0 -0.00000000000E+00  0.00000000000E+00  0.16356943134E+03  0.16356943134E+03  0.00000000000E+00 0. -1.
         21   -1    0    0  501  502  0.00000000000E+00 -0.00000000000E+00 -0.11846723843E+03  0.11846723843E+03  0.00000000000E+00 0. -1.
        -24    2    1    2    0    0  0.58935569274E+02 -0.70324915587E+02  0.34062435347E+02  0.12651436923E+03  0.80166333587E+02 0.  0.
         23    2    1    2    0    0 -0.70077780948E+02  0.33569194848E+02  0.12598694222E+02  0.11708322965E+03  0.86671617867E+02 0.  0.
         13    1    3    3    0    0  0.61274020355E+02 -0.82351464855E+02  0.43061338882E+02  0.11131283951E+03  0.00000000000E+00 0. -1.
        -14    1    3    3    0    0 -0.23384510809E+01  0.12026549268E+02 -0.89989035352E+01  0.15201529712E+02  0.00000000000E+00 0.  1.
        -11    1    4    4    0    0 -0.26979679918E+02  0.24176345706E+02  0.48271803223E+02  0.60353672686E+02  0.00000000000E+00 0.  1.
         11    1    4    4    0    0 -0.43098101030E+02  0.93928491412E+01 -0.35673109002E+02  0.56729556963E+02  0.00000000000E+00 0. -1.
          2    1    1    2  501    0  0.11142211674E+02  0.36755720740E+02 -0.15589366539E+01  0.38439070899E+02  0.00000000000E+00 0. -1.
<scales pt_clust_5="13000.00000" pt_clust_6="13000.00000" pt_clust_7="13000.00000" pt_clust_8="13000.00000" pt_clust_9="38.40745"></scales>
<clustering>
<clus scale="   38.407">  2  9  1 -1</clus>
<clus scale="   80.166">  5  6 -1 -1</clus>
<clus scale="   86.672">  7  8 -1 -1</clus>
<clus scale="  115.587">  1  5  2 -1</clus>
<clus scale="   38.407">  2  5  1 -1</clus>
</clustering>
</event>
<event>
 9    1  0.5981539E-005  0.9905024E+02  0.7546771E-02  0.1283561E+00
          1   -1    0    0  502    0 -0.00000000000E+00  0.00000000000E+00  0.40945014411E+03  0.40945014411E+03  0.00000000000E+00 0. -1.
         21   -1    0    0  501  502  0.00000000000E+00 -0.00000000000E+00 -0.80174370341E+02  0.80174370341E+02  0.00000000000E+00 0.  1.
        -24    2    1    2    0    0  0.38218825563E+02 -0.17336307988E+01  0.30358075870E+03  0.31929473724E+03  0.91236878905E+02 0.  0.
         23    2    1    2    0    0 -0.36975741609E+02 -0.55580550809E+02  0.15289793082E+02  0.11206547154E+03  0.88704504076E+02 0.  0.
         11    1    3    3    0    0  0.43959783566E+02  0.34983375400E+02  0.12740522230E+03  0.13924219833E+03  0.00000000000E+00 0. -1.
        -12    1    3    3    0    0 -0.57409580025E+01 -0.36717006199E+02  0.17617553640E+03  0.18005253891E+03  0.00000000000E+00 0.  1.
        -11    1    4    4    0    0 -0.21255961777E+02 -0.31828073901E+02 -0.36546153876E+02  0.52919406293E+02  0.00000000000E+00 0.  1.
         11    1    4    4    0    0 -0.15719779832E+02 -0.23752476907E+02  0.51835946958E+02  0.59146065247E+02  0.00000000000E+00 0. -1.
          2    1    1    2  501    0 -0.12430839540E+01  0.57314181608E+02  0.10405221989E+02  0.58264305674E+02  0.00000000000E+00 0. -1.
<scales pt_clust_5="13000.00000" pt_clust_6="13000.00000" pt_clust_7="13000.00000" pt_clust_8="13000.00000" pt_clust_9="57.32766"></scales>
<clustering>
<clus scale="   57.328">  2  9  1 -1</clus>
<clus scale="   88.705">  7  8 -1 -1</clus>
<clus scale="   91.237">  5  6 -1 -1</clus>
<clus scale="   96.723">  2  7  1 -1</clus>
<clus scale="   57.328">  2  5  1 -1</clus>
</clustering>
</event>
<event>
 9    1  0.5981539E-005  0.1741859E+03  0.7546771E-02  0.1175492E+00
          3   -1    0    0  502    0 -0.00000000000E+00  0.00000000000E+00  0.79863215569E+02  0.79863215569E+02  0.00000000000E+00 0. -1.
         21   -1    0    0  501  502  0.00000000000E+00 -0.00000000000E+00 -0.44728463032E+03  0.44728463032E+03  0.00000000000E+00 0. -1.
        -24    2    1    2    0    0 -0.14433499242E+03 -0.21618362690E+02 -0.11869666626E+03  0.20398252294E+03  0.78867150588E+02 0.  0.
         23    2    1    2    0    0  0.14945470870E+03 -0.97699169950E+00 -0.24117154604E+03  0.29879705666E+03  0.93692592994E+02 0.  0.
         11    1    3    3    0    0 -0.54232405630E+02 -0.25862087807E+01 -0.94138790623E+02  0.10867361316E+03  0.00000000000E+00 0. -1.
        -12    1    3    3    0    0 -0.90102586785E+02 -0.19032153909E+02 -0.24557875633E+02  0.95308909780E+02  0.00000000000E+00 0.  1.
        -11    1    4    4    0    0  0.64179841860E+02 -0.44428673657E+02 -0.83114489051E+02  0.11402182876E+03  0.00000000000E+00 0.  1.
         11    1    4    4    0    0  0.85274866844E+02  0.43451681957E+02 -0.15805705699E+03  0.18477522790E+03  0.00000000000E+00 0. -1.
          4    1    1    2  501    0 -0.51197162878E+01  0.22595354390E+02 -0.75532024519E+01  0.24368266293E+02  0.00000000000E+00 0. -1.
<scales pt_clust_5="13000.00000" pt_clust_6="13000.00000" pt_clust_7="13000.00000" pt_clust_8="13000.00000" pt_clust_9="23.16813"></scales>
<clustering>
<clus scale="   23.168">  2  9  1 -1</clus>
<clus scale="   78.867">  5  6 -1 -1</clus>
<clus scale="   93.693">  7  8 -1 -1</clus>
<clus scale="  166.681">  1  5  2 -1</clus>
<clus scale="   23.168">  2  5  1 -1</clus>
</clustering>
</event>
<event>
 9    1  0.5981539E-005  0.9431692E+02  0.7546771E-02  0.1297664E+00
          1   -1    0    0  502    0 -0.00000000000E+00  0.00000000000E+00  0.18410398831E+03  0.18410398831E+03  0.00000000000E+00 0. -1.
         21   -1    0    0  501  502  0.00000000000E+00 -0.00000000000E+00 -0.20904149434E+03  0.20904149434E+03  0.00000000000E+00 0. -1.
         23    2    1    2    0    0 -0.28224617852E+02  0.26952063830E+01  0.14200443802E+03  0.17089934546E+03  0.90760303385E+02 0.  0.
        -24    2    1    2    0    0  0.10560505337E+02 -0.17456896412E+02 -0.40667143903E+02  0.93890173109E+02  0.82129656689E+02 0.  0.
         13    1    4    4    0    0 -0.33964112152E+02 -0.17337707158E+02 -0.28869481305E+02  0.47828902920E+02  0.00000000000E+00 0. -1.
        -14    1    4    4    0    0  0.44524617489E+02 -0.11918925427E+00 -0.11797662598E+02  0.46061270189E+02  0.00000000000E+00 0.  1.
        -11    1    3    3    0    0  0.16077716029E+02  0.36080184184E+02  0.63187480784E+02  0.74517986897E+02  0.00000000000E+00 0.  1.
         11    1    3    3    0    0 -0.44302333882E+02 -0.33384977801E+02  0.78816957239E+02  0.96381358564E+02  0.00000000000E+00 0. -1.
          2    1    1    2  501    0  0.17664112515E+02  0.14761690029E+02 -0.12627480015E+03  0.12835596408E+03  0.00000000000E+00 0. -1.
<scales pt_clust_5="13000.00000" pt_clust_6="13000.00000" pt_clust_7="13000.00000" pt_clust_8="13000.00000" pt_clust_9="23.02017"></scales>
<clustering>
<clus scale="   23.020">  2  9  1 -1</clus>
<clus scale="   82.130">  5  6 -1 -1</clus>
<clus scale="   86.044">  2  5  1 -1</clus>
<clus scale="   90.760">  7  8 -1 -1</clus>
<clus scale="   23.020">  2  5  1 -1</clus>
</clustering>
</event>
<event>
 9    1  0.5981539E-005  0.2382184E+03  0.7546771E-02  0.1121677E+00
          3   -1    0    0  502    0 -0.00000000000E+00  0.00000000000E+00  0.20679112237E+03  0.20679112237E+03  0.00000000000E+00 0. -1.
         21   -1    0    0  501  502  0.00000000000E+00 -0.00000000000E+00 -0.60484878140E+03  0.60484878140E+03  0.00000000000E+00 0.  1.
        -24    2    1    2    0    0  0.10577512432E+03 -0.13298721774E+03 -0.10175041385E+03  0.21409480506E+03  0.81298596720E+02 0.  0.
         23    2    1    2    0    0 -0.20220666708E+03  0.26083036746E+03 -0.26769558946E+03  0.43487506393E+03  0.92387097655E+02 0.  0.
         13    1    3    3    0    0  0.44626511048E+02 -0.31285324312E+01 -0.21251296650E+02  0.49527071515E+02  0.00000000000E+00 0. -1.
        -14    1    3    3    0    0  0.61148613276E+02 -0.12985868530E+03 -0.80499117196E+02  0.16456773354E+03  0.00000000000E+00 0.  1.
        -13    1    4    4    0    0 -0.19141530240E+03  0.19347235388E+03 -0.19256761462E+03  0.33339714443E+03  0.00000000000E+00 0.  1.
         13    1    4    4    0    0 -0.10791364685E+02  0.67358013578E+02 -0.75127974833E+02  0.10147791951E+03  0.00000000000E+00 0. -1.
          4    1    1    2  501    0  0.96431542761E+02 -0.12784314973E+03 -0.28611655731E+02  0.16267003478E+03  0.00000000000E+00 0. -1.
<scales pt_clust_5="13000.00000" pt_clust_6="13000.00000" pt_clust_7="13000.00000" pt_clust_8="13000.00000" pt_clust_9="160.13413"></scales>
<clustering>
<clus scale="   81.299">  5  6 -1 -1</clus>
<clus scale="   92.387">  7  8 -1 -1</clus>
<clus scale="  160.134">  2  9  1 -1</clus>
<clus scale="  234.141">  1  5  2 -1</clus>
<clus scale="  160.134">  2  5  1 -1</clus>
</clustering>
</event>
<event>
 9    1  0.5981539E-005  0.1257462E+03  0.7546771E-02  0.1238948E+00
          3   -1    0    0  502    0 -0.00000000000E+00  0.00000000000E+00  0.47672508950E+02  0.47672508950E+02  0.00000000000E+00 0. -1.
         21   -1    0    0  501  502  0.00000000000E+00 -0.00000000000E+00 -0.78595585566E+03  0.78595585566E+03  0.00000000000E+00 0.  1.
         23    2    1    2    0    0 -0.10838080019E+02  0.80610485396E+02 -0.89900994035E+02  0.15198934991E+03  0.91668202902E+02 0.  0.
        -24    2    1    2    0    0 -0.53023363585E+01 -0.11216584645E+03 -0.62472964807E+03  0.63902793296E+03  0.73893667142E+02 0.  0.
         11    1    4    4    0    0  0.11026696736E+02 -0.51496680846E+02 -0.12904763576E+03  0.13938001461E+03  0.00000000000E+00 0. -1.
        -12    1    4    4    0    0 -0.16329033094E+02 -0.60669165604E+02 -0.49568201232E+03  0.49964791835E+03  0.00000000000E+00 0.  1.
        -11    1    3    3    0    0 -0.36206329337E+02  0.27490025162E+01 -0.47453470739E+02  0.59751880172E+02  0.00000000000E+00 0.  1.
         11    1    3    3    0    0  0.25368249319E+02  0.77861482880E+02 -0.42447523296E+02  0.92237469738E+02  0.00000000000E+00 0. -1.
          4    1    1    2  501    0  0.16140416377E+02  0.31555361054E+02 -0.23652704606E+02  0.42611081742E+02  0.00000000000E+00 0. -1.
<scales pt_clust_5="13000.00000" pt_clust_6="13000.00000" pt_clust_7="13000.00000" pt_clust_8="13000.00000" pt_clust_9="35.44369"></scales>
<clustering>
<clus scale="   35.444">  2  9  1 -1</clus>
<clus scale="   73.894">  5  6 -1 -1</clus>
<clus scale="   91.668">  7  8 -1 -1</clus>
<clus scale="  113.443">  2  5  1 -1</clus>
<clus scale="   35.444">  2  5  1 -1</clus>
</clustering>
</event>
<event>
 9    1  0.5981539E-005  0.1492277E+03  0.7546771E-02  0.1228491E+00
          1   -1    0    0  502    0 -0.00000000000E+00  0.00000000000E+00  0.99163165808E+02  0.99163165808E+02  0.00000000000E+00 0. -1.
         21   -1    0    0  501  502  0.00000000000E+00 -0.00000000000E+00 -0.39971982737E+03  0.39971982737E+03  0.00000000000E+00 0. -1.
        -24    2    1    2    0    0 -0.66522570429E+01  0.22828413351E+02  0.11915503216E+02  0.84962140019E+02  0.80691988697E+02 0.  0.
         23    2    1    2    0    0 -0.13334339082E+02 -0.13166505729E+03 -0.17176211896E+03  0.23491192578E+03  0.90376409820E+02 0.  0.
         11    1    3    3    0    0 -0.28431277756E+02  0.28563760191E+02 -0.20715237037E+02  0.45313872011E+02  0.00000000000E+00 0. -1.
        -12    1    3    3    0    0  0.21779020713E+02 -0.57353468404E+01  0.32630740253E+02  0.39648268008E+02  0.00000000000E+00 0.  1.
        -11    1    4    4    0    0 -0.19843783651E+02  0.49773396435E+01 -0.91484030157E+01  0.22410777257E+02  0.00000000000E+00 0.  1.
         11    1    4    4    0    0  0.65094445699E+01 -0.13664239693E+03 -0.16261371595E+03  0.21250114852E+03  0.00000000000E+00 0. -1.
          2    1    1    2  501    0  0.19986596125E+02  0.10883664394E+03 -0.14071004582E+03  0.17900892738E+03  0.00000000000E+00 0. -1.
<scales pt_clust_5="13000.00000" pt_clust_6="13000.00000" pt_clust_7="13000.00000" pt_clust_8="13000.00000" pt_clust_9="118.74771"></scales>
<clustering>
<clus scale="   80.692">  5  6 -1 -1</clus>
<clus scale="   84.122">  1  5  2 -1</clus>
<clus scale="   90.376">  7  8 -1 -1</clus>
<clus scale="  118.748">  2  9  1 -1</clus>
<clus scale="  118.748">  2  5  1 -1</clus>
</clustering>
</event>
<event>
 9    1  0.5981539E-005  0.1104157E+03  0.7546771E-02  0.1268666E+00
         21   -1    0    0  501  502  0.00000000000E+00  0.00000000000E+00  0.37117825324E+03  0.37117825324E+03  0.00000000000E+00 0. -1.
          1   -1    0    0  502    0 -0.00000000000E+00 -0.00000000000E+00 -0.80215128506E+02  0.80215128506E+02  0.00000000000E+00 0. -1.
         23    2    1    2    0    0 -0.69551947922E+01  0.74053380530E+02 -0.76406503121E+01  0.11985597728E+03  0.93673890977E+02 0.  0.
        -24    2    1    2    0    0 -0.18626291924E+01 -0.27877816125E+02  0.94770473787E+02  0.12235339104E+03  0.72168328086E+02 0.  0.
         13    1    4    4    0    0  0.14791158124E+02  0.20456279985E+02  0.22410628688E+02  0.33756096155E+02  0.00000000000E+00 0. -1.
        -14    1    4    4    0    0 -0.16653787316E+02 -0.48334096110E+02  0.72359845099E+02  0.88597294889E+02  0.00000000000E+00 0.  1.
        -11    1    3    3    0    0  0.33822666188E+02  0.71065665719E+02 -0.39591642835E+01  0.78803404584E+02  0.00000000000E+00 0.  1.
         11    1    3    3    0    0 -0.40777860980E+02  0.29877148109E+01 -0.36814860286E+01  0.41052572700E+02  0.00000000000E+00 0. -1.
          2    1    1    2  501    0  0.88178239847E+01 -0.46175564405E+02  0.20383330126E+03  0.20918401342E+03  0.00000000000E+00 0. -1.
<scales pt_clust_5="13000.00000" pt_clust_6="13000.00000" pt_clust_7="13000.00000" pt_clust_8="13000.00000" pt_clust_9="47.00996"></scales>
<clustering>
<clus scale="   47.010">  1  9  2 -1</clus>
<clus scale="   72.168">  5  6 -1 -1</clus>
<clus scale="   92.871">  1  5  2 -1</clus>
<clus scale="   93.674">  7  8 -1 -1</clus>
<clus scale="   47.010">  1  5  2 -1</clus>
</clustering>
</event>
<event>
 9    1  0.5981539E-005  0.1769120E+03  0.7546771E-02  0.1171817E+00
         21   -1    0    0  501  502  0.00000000000E+00  0.00000000000E+00  0.79366878095E+02  0.79366878095E+02  0.00000000000E+00 0. -1.
          1   -1    0    0  502    0 -0.00000000000E+00 -0.00000000000E+00 -0.75029781834E+03  0.75029781834E+03  0.00000000000E+00 0. -1.
         23    2    1    2    0    0  0.98616487776E+02 -0.33404543873E+02 -0.10356503841E+03  0.17378490144E+03  0.92921469945E+02 0.  0.
        -24    2    1    2    0    0 -0.18294025615E+03  0.55426715640E+02 -0.26789713740E+03  0.34398716149E+03  0.10009511934E+03 0.  0.
         11    1    4    4    0    0 -0.13262830783E+03  0.74129779045E+02 -0.14564606146E+03  0.21047153584E+03  0.00000000000E+00 0. -1.
        -12    1    4    4    0    0 -0.50311948318E+02 -0.18703063405E+02 -0.12225107594E+03  0.13351562565E+03  0.00000000000E+00 0.  1.
        -13    1    3    3    0    0  0.48428274682E+02 -0.37828968586E+02 -0.32611780249E+01  0.61538312742E+02  0.00000000000E+00 0. -1.
         13    1    3    3    0    0  0.50188213093E+02  0.44244247125E+01 -0.10030386038E+03  0.11224658870E+03  0.00000000000E+00 0.  1.
          2    1    1    2  501    0  0.84323768370E+02 -0.22022171767E+02 -0.29946876444E+03  0.31189263351E+03  0.00000000000E+00 0. -1.
<scales pt_clust_5="13000.00000" pt_clust_6="13000.00000" pt_clust_7="13000.00000" pt_clust_8="13000.00000" pt_clust_9="87.15206"></scales>
<clustering>
<clus scale="   87.152">  1  9  2 -1</clus>
<clus scale="   92.921">  7  8 -1 -1</clus>
<clus scale="  100.095">  5  6 -1 -1</clus>
<clus scale="  172.954">  2  7  1 -1</clus>
<clus scale="   87.152">  1  5  2 -1</clus>
</clustering>
</event>
<event>
 9    1  0.5981539E-005  0.2558553E+03  0.7546771E-02  0.1147417E+00
         21   -1    0    0  501  502  0.00000000000E+00  0.00000000000E+00  0.12809319408E+03  0.12809319408E+03  0.00000000000E+00 0. -1.
          3   -1    0    0  502    0 -0.00000000000E+00 -0.00000000000E+00 -0.87874319233E+03  0.87874319233E+03  0.00000000000E+00 0. -1.
        -24    2    1    2    0    0 -0.12180934560E+02  0.60366764095E+02 -0.56435164298E+02  0.11565022490E+03  0.79984532097E+02 0.  0.
         23    2    1    2    0    0  0.36933935039E+02 -0.27901925128E+03 -0.55643646460E+03  0.63156239479E+03  0.10016816478E+03 0.  0.
         11    1    3    3    0    0 -0.22694901885E+02  0.35093116802E+00  0.10609972095E+02  0.25055004134E+02  0.00000000000E+00 0. -1.
        -12    1    3    3    0    0  0.10513967325E+02  0.60015832927E+02 -0.67045136393E+02  0.90595220762E+02  0.00000000000E+00 0.  1.
        -13    1    4    4    0    0  0.56963554356E+02 -0.10244823389E+03 -0.27192765547E+03  0.29611676238E+03  0.00000000000E+00 0.  1.
         13    1    4    4    0    0 -0.20029619317E+02 -0.17657101739E+03 -0.28450880913E+03  0.33544563242E+03  0.00000000000E+00 0. -1.
          4    1    1    2  501    0 -0.24753000479E+02  0.21865248719E+03 -0.13777836935E+03  0.25962376672E+03  0.00000000000E+00 0. -1.
<scales pt_clust_5="13000.00000" pt_clust_6="13000.00000" pt_clust_7="13000.00000" pt_clust_8="13000.00000" pt_clust_9="235.43207"></scales>
<clustering>
<clus scale="   79.985">  5  6 -1 -1</clus>
<clus scale="  100.168">  7  8 -1 -1</clus>
<clus scale="  100.946">  2  5  1 -1</clus>
<clus scale="  235.432">  1  9  2 -1</clus>
<clus scale="  235.432">  1  5  2 -1</clus>
</clustering>
</event>
<event>
 9    1  0.5981539E-005  0.1553848E+03  0.7546771E-02  0.1195947E+00
         21   -1    0    0  501  502  0.00000000000E+00  0.00000000000E+00  0.36934145647E+02  0.36934145647E+02  0.00000000000E+00 0.  1.
          1   -1    0    0  502    0 -0.00000000000E+00 -0.00000000000E+00 -0.12353903410E+04  0.12353903410E+04  0.00000000000E+00 0. -1.
         23    2    1    2    0    0  0.14354568754E+03 -0.85311630562E+01 -0.87913970192E+03  0.89564943831E+03  0.92860948210E+02 0.  0.
        -24    2    1    2    0    0 -0.80089408677E+02 -0.36683932327E+02 -0.16827577236E+03  0.20672092628E+03  0.81589101769E+02 0.  0.
         13    1    4    4    0    0 -0.36989353282E+02 -0.17833119570E+02 -0.15119756248E+03  0.15667461604E+03  0.00000000000E+00 0. -1.
        -14    1    4    4    0    0 -0.43100055395E+02 -0.18850812757E+02 -0.17078209875E+02  0.50046310245E+02  0.00000000000E+00 0.  1.
        -11    1    3    3    0    0  0.11456865532E+02 -0.33902114385E+02 -0.15018155542E+03  0.15438624523E+03  0.00000000000E+00 0.  1.
         11    1    3    3    0    0  0.13208882201E+03  0.25370951329E+02 -0.72895814650E+03  0.74126319308E+03  0.00000000000E+00 0. -1.
          2    1    1    2  501    0 -0.63456278867E+02  0.45215095383E+02 -0.15104072105E+03  0.16995412202E+03  0.00000000000E+00 0. -1.
<scales pt_clust_5="13000.00000" pt_clust_6="13000.00000" pt_clust_7="13000.00000" pt_clust_8="13000.00000" pt_clust_9="77.91729"></scales>
<clustering>
<clus scale="   77.917">  1  9  2 -1</clus>
<clus scale="   81.589">  5  6 -1 -1</clus>
<clus scale="   92.861">  7  8 -1 -1</clus>
<clus scale="  148.923">  1  5  2 -1</clus>
<clus scale="   77.917">  1  5  2 -1</clus>
</clustering>
</event>
<event>
 9    1  0.5981539E-005  0.9724399E+02  0.7546771E-02  0.1293733E+00
          1   -1    0    0  502    0 -0.00000000000E+00  0.00000000000E+00  0.48451633123E+03  0.48451633123E+03  0.00000000000E+00 0. -1.
         21   -1    0    0  501  502  0.00000000000E+00 -0.00000000000E+00 -0.57424853746E+02  0.57424853746E+02  0.00000000000E+00 0. -1.
         23    2    1    2    0    0 -0.55606457206E+01  0.33326061375E+02  0.31090810431E+03  0.32584007969E+03  0.91467814330E+02 0.  0.
        -24    2    1    2    0    0 -0.52651132176E+02 -0.30229552074E+02  0.15610018452E+02  0.99854818741E+02  0.77726087073E+02 0.  0.
         13    1    4    4    0    0 -0.26110926932E+01 -0.44358586092E+02  0.17664528798E+02  0.47817753427E+02  0.00000000000E+00 0. -1.
        -14    1    4    4    0    0 -0.50040039483E+02  0.14129034018E+02 -0.20545103466E+01  0.52037065314E+02  0.00000000000E+00 0.  1.
        -11    1    3    3    0    0  0.12781520378E+02  0.61698591186E+02  0.18291712815E+03  0.19346513688E+03  0.00000000000E+00 0. -1.
         11    1    3    3    0    0 -0.18342166098E+02 -0.28372529811E+02  0.12799097616E+03  0.13237494281E+03  0.00000000000E+00 0.  1.
          2    1    1    2  501    0  0.58211777897E+02 -0.30965093012E+01  0.10057335472E+03  0.11624628655E+03  0.00000000000E+00 0. -1.
<scales pt_clust_5="13000.00000" pt_clust_6="13000.00000" pt_clust_7="13000.00000" pt_clust_8="13000.00000" pt_clust_9="58.29411"></scales>
<clustering>
<clus scale="   58.294">  2  9  1 -1</clus>
<clus scale="   77.726">  5  6 -1 -1</clus>
<clus scale="   84.447">  2  5  1 -1</clus>
<clus scale="   91.468">  7  8 -1 -1</clus>
<clus scale="   58.294">  2  5  1 -1</clus>
</clustering>
</event>
<event>
 9    1  0.5981539E-005  0.2117299E+03  0.7546771E-02  0.1165276E+00
          1   -1    0    0  502    0 -0.00000000000E+00  0.00000000000E+00  0.22743947317E+04  0.22743947317E+04  0.00000000000E+00 0. -1.
         21   -1    0    0  501  502  0.00000000000E+00 -0.00000000000E+00 -0.34581307710E+02  0.34581307710E+02  0.00000000000E+00 0. -1.
        -24    2    1    2    0    0  0.65453302419E+02 -0.55287616226E+02  0.85721216523E+03  0.86518962999E+03  0.79997152043E+02 0.  0.
         23    2    1    2    0    0 -0.21246546345E+03 -0.15976229253E+02  0.59444987545E+03  0.63888038125E+03  0.96957073261E+02 0.  0.
         11    1    3    3    0    0  0.67299083785E+02 -0.61108724505E+02  0.51755129070E+03  0.52547386366E+03  0.00000000000E+00 0. -1.
        -12    1    3    3    0    0 -0.18457813653E+01  0.58211082785E+01  0.33966087453E+03  0.33971576633E+03  0.00000000000E+00 0.  1.
        -11    1    4    4    0    0 -0.58697718652E+02 -0.99395809666E+01  0.67893697565E+02  0.90298237046E+02  0.00000000000E+00 0.  1.
         11    1    4    4    0    0 -0.15376774480E+03 -0.60366482864E+01  0.52655617789E+03  0.54858214420E+03  0.00000000000E+00 0. -1.
          2    1    1    2  501    0  0.14701216103E+03  0.71263845479E+02  0.78815138334E+03  0.80490602819E+03  0.00000000000E+00 0. -1.
<scales pt_clust_5="13000.00000" pt_clust_6="13000.00000" pt_clust_7="13000.00000" pt_clust_8="13000.00000" pt_clust_9="188.22564"></scales>
<clustering>
<clus scale="   79.997">  5  6 -1 -1</clus>
<clus scale="   96.957">  7  8 -1 -1</clus>
<clus scale="  117.219">  1  5  2 -1</clus>
<clus scale="  188.226">  2  9  1 -1</clus>
<clus scale="  188.226">  2  5  1 -1</clus>
</clustering>
</event>
<event>
 9    1  0.5981539E-005  0.1643516E+03  0.7546771E-02  0.1189277E+00
          3   -1    0    0  502    0 -0.00000000000E+00  0.00000000000E+00  0.21154851511E+03  0.21154851511E+03  0.00000000000E+00 0. -1.
         21   -1    0    0  501  502  0.00000000000E+00 -0.00000000000E+00 -0.35733220224E+03  0.35733220224E+03  0.00000000000E+00 0. -1.
         23    2    1    2    0    0 -0.99362313998E+02 -0.53339343706E+02 -0.17367862458E+03  0.22672658124E+03  0.92318594972E+02 0.  0.
        -24    2    1    2    0    0  0.13795810565E+03 -0.87378349600E+02  0.60560395697E+02  0.19262776215E+03  0.82282916413E+02 0.  0.
         13    1    4    4    0    0  0.12968249336E+03 -0.50195924912E+02  0.66387442743E+02  0.15409241550E+03  0.00000000000E+00 0. -1.
        -14    1    4    4    0    0  0.82756122891E+01 -0.37182424687E+02 -0.58270470462E+01  0.38535346653E+02  0.00000000000E+00 0.  1.
        -11    1    3    3    0    0 -0.19782155450E+02  0.24374708682E+02 -0.20772128754E+02  0.37642282483E+02  0.00000000000E+00 0.  1.
         11    1    3    3    0    0 -0.79580158548E+02 -0.77714052388E+02 -0.15290649582E+03  0.18908429876E+03  0.00000000000E+00 0. -1.
          4    1    1    2  501    0 -0.38595791648E+02  0.14071769331E+03 -0.32665458251E+02  0.14952637394E+03  0.00000000000E+00 0. -1.
<scales pt_clust_5="13000.00000" pt_clust_6="13000.00000" pt_clust_7="13000.00000" pt_clust_8="13000.00000" pt_clust_9="142.27076"></scales>
<clustering>
<clus scale="   82.283">  5  6 -1 -1</clus>
<clus scale="   92.319">  7  8 -1 -1</clus>
<clus scale="  145.742">  1  7  2 -1</clus>
<clus scale="  142.271">  2  9  1 -1</clus>
<clus scale="  142.271">  2  5  1 -1</clus>
</clustering>
</event>
<event>
 9    1  0.5981539E-005  0.1408025E+03  0.7546771E-02  0.1215158E+00
         21   -1    0    0  501  502  0.00000000000E+00  0.00000000000E+00  0.14982837827E+03  0.14982837827E+03  0.00000000000E+00 0.  1.
          1   -1    0    0  502    0 -0.00000000000E+00 -0.00000000000E+00 -0.18611877741E+03  0.18611877741E+03  0.00000000000E+00 0. -1.
         23    2    1    2    0    0  0.29975011005E+02 -0.93198408727E+02 -0.10324984015E+02  0.13563963703E+03  0.93311634669E+02 0.  0.
        -24    2    1    2    0    0  0.12118952856E+02  0.11856300397E+03  0.23530826354E+01  0.14358713606E+03  0.80047946353E+02 0.  0.
         11    1    4    4    0    0  0.23162211865E+02  0.25005634614E+02 -0.28528053793E+02  0.44447943419E+02  0.00000000000E+00 0. -1.
        -12    1    4    4    0    0 -0.11043259009E+02  0.93557369360E+02  0.30881136429E+02  0.99139192645E+02  0.00000000000E+00 0.  1.
        -11    1    3    3    0    0 -0.17635606651E+02 -0.68339514697E+02  0.20779029634E+02  0.73573581967E+02  0.00000000000E+00 0. -1.
         11    1    3    3    0    0  0.47610617655E+02 -0.24858894030E+02 -0.31104013649E+02  0.62066055062E+02  0.00000000000E+00 0.  1.
          2    1    1    2  501    0 -0.42093963860E+02 -0.25364595248E+02 -0.28318497758E+02  0.56720382587E+02  0.00000000000E+00 0. -1.
<scales pt_clust_5="13000.00000" pt_clust_6="13000.00000" pt_clust_7="13000.00000" pt_clust_8="13000.00000" pt_clust_9="49.14536"></scales>
<clustering>
<clus scale="   49.145">  1  9  2 -1</clus>
<clus scale="   80.048">  5  6 -1 -1</clus>
<clus scale="   93.312">  7  8 -1 -1</clus>
<clus scale="  132.386">  1  5  2 -1</clus>
<clus scale="   49.145">  1  5  2 -1</clus>
</clustering>
</event>
<event>
 9    1  0.5981539E-005  0.9771330E+02  0.7546771E-02  0.1289606E+00
         21   -1    0    0  501  502  0.00000000000E+00  0.00000000000E+00  0.24232453692E+03  0.24232453692E+03  0.00000000000E+00 0. -1.
          3   -1    0    0  502    0 -0.00000000000E+00 -0.00000000000E+00 -0.16928117537E+03  0.16928117537E+03  0.00000000000E+00 0. -1.
         23    2    1    2    0    0  0.15017103615E+02  0.34953133468E+02 -0.12267703999E+03  0.15720502369E+03  0.90645068217E+02 0.  0.
        -24    2    1    2    0    0  0.13086746896E+02 -0.36167097245E+02  0.45365919218E+02  0.10143739081E+03  0.82171502113E+02 0.  0.
         11    1    4    4    0    0  0.33268163360E+02 -0.49429676217E+02  0.48837345806E+02  0.77039924257E+02  0.00000000000E+00 0. -1.
        -12    1    4    4    0    0 -0.20181416463E+02  0.13262578971E+02 -0.34714265879E+01  0.24397466549E+02  0.00000000000E+00 0.  1.
        -11    1    3    3    0    0  0.21007580675E+02 -0.15724700280E+01 -0.11803652045E+03  0.11990167333E+03  0.00000000000E+00 0. -1.
         11    1    3    3    0    0 -0.59904770604E+01  0.36525603497E+02 -0.46405195381E+01  0.37303350356E+02  0.00000000000E+00 0.  1.
          4    1    1    2  501    0 -0.28103850511E+02  0.12139637769E+01  0.15035448231E+03  0.15296329780E+03  0.00000000000E+00 0. -1.
<scales pt_clust_5="13000.00000" pt_clust_6="13000.00000" pt_clust_7="13000.00000" pt_clust_8="13000.00000" pt_clust_9="28.13006"></scales>
<clustering>
<clus scale="   28.130">  1  9  2 -1</clus>
<clus scale="   82.172">  5  6 -1 -1</clus>
<clus scale="   89.908">  1  5  2 -1</clus>
<clus scale="   90.645">  7  8 -1 -1</clus>
<clus scale="   28.130">  1  5  2 -1</clus>
</clustering>
</event>
<event>
 9    1  0.5981539E-005  0.1430773E+03  0.7546771E-02  0.1212086E+00
         21   -1    0    0  501  502  0.00000000000E+00  0.00000000000E+00  0.31117148358E+03  0.31117148358E+03  0.00000000000E+00 0. -1.
          3   -1    0    0  502    0 -0.00000000000E+00 -0.00000000000E+00 -0.17125317931E+03  0.17125317931E+03  0.00000000000E+00 0. -1.
        -24    2    1    2    0    0 -0.13599901609E+03 -0.54359780776E+02  0.90649615075E+02  0.18993609122E+03  0.80047785046E+02 0.  0.
         23    2    1    2    0    0  0.73592357772E+02 -0.10752665821E+02  0.12631751382E+03  0.17386840863E+03  0.93502161879E+02 0.  0.
         13    1    3    3    0    0 -0.11621583881E+03 -0.71136912888E+02  0.57627327051E+02  0.14794421377E+03  0.00000000000E+00 0. -1.
        -14    1    3    3    0    0 -0.19783177279E+02  0.16777132112E+02  0.33022288023E+02  0.41991877446E+02  0.00000000000E+00 0.  1.
        -11    1    4    4    0    0  0.17901063717E+02 -0.10547160126E+02 -0.12533686880E+02  0.24264871228E+02  0.00000000000E+00 0.  1.
         11    1    4    4    0    0  0.55691294055E+02 -0.20550569544E+00  0.13885120070E+03  0.14960353740E+03  0.00000000000E+00 0. -1.
          4    1    1    2  501    0  0.62406658316E+02  0.65112446597E+02 -0.77048824627E+02  0.11862016304E+03  0.00000000000E+00 0. -1.
<scales pt_clust_5="13000.00000" pt_clust_6="13000.00000" pt_clust_7="13000.00000" pt_clust_8="13000.00000" pt_clust_9="90.18997"></scales>
<clustering>
<clus scale="   80.048">  5  6 -1 -1</clus>
<clus scale="   90.190">  1  9  2 -1</clus>
<clus scale="   93.502">  7  8 -1 -1</clus>
<clus scale="  134.670">  2  5  1 -1</clus>
<clus scale="   90.190">  1  5  2 -1</clus>
</clustering>
</event>
<event>
 9    1  0.5981539E-005  0.1684471E+03  0.7546771E-02  0.1201598E+00
         21   -1    0    0  501  502  0.00000000000E+00  0.00000000000E+00  0.39954243813E+03  0.39954243813E+03  0.00000000000E+00 0. -1.
          3   -1    0    0  502    0 -0.00000000000E+00 -0.00000000000E+00 -0.13496706147E+03  0.13496706147E+03  0.00000000000E+00 0. -1.
        -24    2    1    2    0    0  0.52916543060E+02  0.55989252074E+02  0.65311325336E+02  0.12227193441E+03  0.68919517191E+02 0.  0.
         23    2    1    2    0    0  0.31451275942E+01  0.90837298599E+02 -0.31462962770E+02  0.13306754184E+03  0.91955130479E+02 0.  0.
         11    1    3    3    0    0 -0.67307227968E+00  0.49268783238E+02  0.33634484798E+02  0.59658566826E+02  0.00000000000E+00 0. -1.
        -12    1    3    3    0    0  0.53589615340E+02  0.67204688353E+01  0.31676840538E+02  0.62613367583E+02  0.00000000000E+00 0.  1.
        -11    1    4    4    0    0  0.44622779642E+02  0.69625387450E+02 -0.19331765312E+02  0.84927052172E+02  0.00000000000E+00 0. -1.
         11    1    4    4    0    0 -0.41477652047E+02  0.21211911149E+02 -0.12131197458E+02  0.48140489670E+02  0.00000000000E+00 0.  1.
          4    1    1    2  501    0 -0.56061670655E+02 -0.14682655067E+03  0.23072701410E+03  0.27917002334E+03  0.00000000000E+00 0. -1.
<scales pt_clust_5="13000.00000" pt_clust_6="13000.00000" pt_clust_7="13000.00000" pt_clust_8="13000.00000" pt_clust_9="141.13355"></scales>
<clustering>
<clus scale="   68.920">  5  6 -1 -1</clus>
<clus scale="   91.955">  7  8 -1 -1</clus>
<clus scale="  103.368">  2  5  1 -1</clus>
<clus scale="  141.134">  1  9  2 -1</clus>
<clus scale="  141.134">  1  5  2 -1</clus>
</clustering>
</event>
<event>
 9    1  0.5981539E-005  0.1023677E+03  0.7546771E-02  0.1282618E+00
         -2   -1    0    0    0  501 -0.00000000000E+00  0.00000000000E+00  0.11200123053E+03  0.11200123053E+03  0.00000000000E+00 0.  1.
         21   -1    0    0  501  502  0.00000000000E+00 -0.00000000000E+00 -0.14717201881E+03  0.14717201881E+03  0.00000000000E+00 0.  1.
        -24    2    1    2    0    0 -0.35798385616E+02 -0.25050064224E+02  0.41849276937E+02  0.98663532472E+02  0.77936516020E+02 0.  0.
         23    2    1    2    0    0  0.51695711997E+02 -0.55490170964E+01 -0.59791020695E+02  0.12196274891E+03  0.92718432558E+02 0.  0.
         13    1    3    3    0    0  0.22587129822E+02  0.41913721890E+01  0.17856559863E+02  0.29096439036E+02  0.00000000000E+00 0. -1.
        -14    1    3    3    0    0 -0.58385515438E+02 -0.29241436413E+02  0.23992717074E+02  0.69567093436E+02  0.00000000000E+00 0.  1.
        -11    1    4    4    0    0  0.44420350528E+02 -0.45930914176E+02 -0.26704692663E+02  0.69252848521E+02  0.00000000000E+00 0.  1.
         11    1    4    4    0    0  0.72753614696E+01  0.40381897079E+02 -0.33086328032E+02  0.52709900388E+02  0.00000000000E+00 0. -1.
         -1    1    1    2    0  502 -0.15897326382E+02  0.30599081321E+02 -0.17229044524E+02  0.38546967961E+02  0.00000000000E+00 0.  1.
<scales pt_clust_5="13000.00000" pt_clust_6="13000.00000" pt_clust_7="13000.00000" pt_clust_8="13000.00000" pt_clust_9="34.48230"></scales>
<clustering>
<clus scale="   34.482">  2  9  1 -1</clus>
<clus scale="   77.937">  5  6 -1 -1</clus>
<clus scale="   89.199">  1  5  2 -1</clus>
<clus scale="   92.718">  7  8 -1 -1</clus>
<clus scale="   34.482">  2  5  1 -1</clus>
</clustering>
</event>
<event>
 9    1  0.5981539E-005  0.2297602E+03  0.7546771E-02  0.1161414E+00
         21   -1    0    0  501  502  0.00000000000E+00  0.00000000000E+00  0.43478887458E+03  0.43478887458E+03  0.00000000000E+00 0. -1.
          1   -1    0    0  502    0 -0.00000000000E+00 -0.00000000000E+00 -0.17612624656E+03  0.17612624656E+03  0.00000000000E+00 0. -1.
        -24    2    1    2    0    0  0.55426381151E+02  0.21486931024E+02  0.93500360291E+02  0.13712839203E+03  0.80796699150E+02 0.  0.
         23    2    1    2    0    0  0.61881987001E+02  0.17860407595E+03  0.58112844370E+02  0.21833175587E+03  0.92535704893E+02 0.  0.
         11    1    3    3    0    0  0.68546251769E+02  0.11815016077E+02  0.37950379785E+02  0.79236447184E+02  0.00000000000E+00 0. -1.
        -12    1    3    3    0    0 -0.13119870618E+02  0.96719149465E+01  0.55549980506E+02  0.57891944846E+02  0.00000000000E+00 0.  1.
        -13    1    4    4    0    0  0.84329179208E+02  0.11569777795E+03  0.46552378634E+02  0.15054736877E+03  0.00000000000E+00 0.  1.
         13    1    4    4    0    0 -0.22447192207E+02  0.62906298001E+02  0.11560465736E+02  0.67784387098E+02  0.00000000000E+00 0. -1.
          2    1    1    2  501    0 -0.11730836815E+03 -0.20009100697E+03  0.10704942336E+03  0.25545497324E+03  0.00000000000E+00 0. -1.
<scales pt_clust_5="13000.00000" pt_clust_6="13000.00000" pt_clust_7="13000.00000" pt_clust_8="13000.00000" pt_clust_9="210.30202"></scales>
<clustering>
<clus scale="   80.797">  5  6 -1 -1</clus>
<clus scale="   92.536">  7  8 -1 -1</clus>
<clus scale="  100.309">  2  5  1 -1</clus>
<clus scale="  210.302">  1  9  2 -1</clus>
<clus scale="  210.302">  1  5  2 -1</clus>
</clustering>
</event>
<event>
 9    1  0.5981539E-005  0.2068253E+03  0.7546771E-02  0.1145206E+00
          1   -1    0    0  502    0 -0.00000000000E+00  0.00000000000E+00  0.39711132221E+03  0.39711132221E+03  0.00000000000E+00 0. -1.
         21   -1    0    0  501  502  0.00000000000E+00 -0.00000000000E+00 -0.15635758823E+03  0.15635758823E+03  0.00000000000E+00 0. -1.
         23    2    1    2    0    0 -0.54994745046E+02 -0.20133757460E+03  0.12820120733E+03  0.26454785859E+03  0.99943879209E+02 0.  0.
        -24    2    1    2    0    0  0.92969467824E+02  0.12987484103E+03  0.58662826351E+02  0.19169398947E+03  0.88286251048E+02 0.  0.
         13    1    4    4    0    0  0.10896711499E+03  0.12455754025E+03  0.55415427717E+02  0.17452587949E+03  0.00000000000E+00 0. -1.
        -14    1    4    4    0    0 -0.15997647167E+02  0.53173007800E+01  0.32473986346E+01  0.17168109982E+02  0.00000000000E+00 0.  1.
        -11    1    3    3    0    0 -0.52083402683E+02 -0.12143613221E+03  0.25799343265E+02  0.13462919875E+03  0.00000000000E+00 0.  1.
         11    1    3    3    0    0 -0.29113423629E+01 -0.79901442392E+02  0.10240186407E+03  0.12991865984E+03  0.00000000000E+00 0. -1.
          2    1    1    2  501    0 -0.37974722778E+02  0.71462733574E+02  0.53889700301E+02  0.97227062377E+02  0.00000000000E+00 0. -1.
<scales pt_clust_5="13000.00000" pt_clust_6="13000.00000" pt_clust_7="13000.00000" pt_clust_8="13000.00000" pt_clust_9="80.92594"></scales>
<clustering>
<clus scale="   80.926">  2  9  1 -1</clus>
<clus scale="   88.286">  5  6 -1 -1</clus>
<clus scale="   99.944">  7  8 -1 -1</clus>
<clus scale="  201.451">  2  5  1 -1</clus>
<clus scale="   80.926">  2  5  1 -1</clus>
</clustering>
</event>
<event>
 9    1  0.5981539E-005  0.1032878E+03  0.7546771E-02  0.1283962E+00
         21   -1    0    0  501  502  0.00000000000E+00  0.00000000000E+00  0.14746525551E+03  0.14746525551E+03  0.00000000000E+00 0. -1.
         -2   -1    0    0    0  501 -0.00000000000E+00 -0.00000000000E+00 -0.12889647099E+03  0.12889647099E+03  0.00000000000E+00 0.  1.
         23    2    1    2    0    0  0.24345485411E+02 -0.13206120660E+02 -0.75417889639E+02  0.12825770664E+03  0.99975381732E+02 0.  0.
        -24    2    1    2    0    0 -0.45298128333E+01  0.27432149812E+02  0.88941256474E+02  0.12319424217E+03  0.80580594140E+02 0.  0.
         11    1    4    4    0    0 -0.37396874479E+02  0.30486906352E+00  0.63115853120E+02  0.73363683666E+02  0.00000000000E+00 0. -1.
        -12    1    4    4    0    0  0.32867061646E+02  0.27127280749E+02  0.25825403354E+02  0.49830558500E+02  0.00000000000E+00 0.  1.
        -13    1    3    3    0    0  0.54027214556E+02  0.20100298611E+02 -0.31660196302E+02  0.65767240681E+02  0.00000000000E+00 0. -1.
         13    1    3    3    0    0 -0.29681729145E+02 -0.33306419271E+02 -0.43757693337E+02  0.62490465960E+02  0.00000000000E+00 0.  1.
         -1    1    1    2    0  502 -0.19815672577E+02 -0.14226029152E+02  0.50454176780E+01  0.24909777692E+02  0.00000000000E+00 0.  1.
<scales pt_clust_5="13000.00000" pt_clust_6="13000.00000" pt_clust_7="13000.00000" pt_clust_8="13000.00000" pt_clust_9="24.39346"></scales>
<clustering>
<clus scale="   24.393">  1  9  2 -1</clus>
<clus scale="   80.581">  5  6 -1 -1</clus>
<clus scale="   84.655">  1  5  2 -1</clus>
<clus scale="   99.975">  7  8 -1 -1</clus>
<clus scale="   24.393">  1  5  2 -1</clus>
</clustering>
</event>
<event>
 9    1  0.5981539E-005  0.9319649E+02  0.7546771E-02  0.1302812E+00
         21   -1    0    0  501  502  0.00000000000E+00  0.00000000000E+00  0.20015707443E+03  0.20015707443E+03  0.00000000000E+00 0. -1.
          1   -1    0    0  502    0 -0.00000000000E+00 -0.00000000000E+00 -0.26499497868E+03  0.26499497868E+03  0.00000000000E+00 0. -1.
        -24    2    1    2    0    0  0.14570233594E+02 -0.65082463841E+01 -0.22246689348E+03  0.23693446928E+03  0.79948577580E+02 0.  0.
         23    2    1    2    0    0  0.76827461545E+01  0.24929490759E+01  0.28073561219E+02  0.96703604925E+02  0.92185806838E+02 0.  0.
         13    1    3    3    0    0  0.28664457477E+02  0.19682494725E+02 -0.18895498506E+03  0.19212766094E+03  0.00000000000E+00 0. -1.
        -14    1    3    3    0    0 -0.14094223883E+02 -0.26190741110E+02 -0.33511908426E+02  0.44806808335E+02  0.00000000000E+00 0.  1.
        -13    1    4    4    0    0 -0.34854189916E+02  0.25770762310E+02  0.73253071782E+01  0.43961424794E+02  0.00000000000E+00 0.  1.
         13    1    4    4    0    0  0.42536936070E+02 -0.23277813234E+02  0.20748254040E+02  0.52742180130E+02  0.00000000000E+00 0. -1.
          2    1    1    2  501    0 -0.22252979748E+02  0.40152973082E+01  0.12955542801E+03  0.13151397891E+03  0.00000000000E+00 0. -1.
<scales pt_clust_5="13000.00000" pt_clust_6="13000.00000" pt_clust_7="13000.00000" pt_clust_8="13000.00000" pt_clust_9="22.61234"></scales>
<clustering>
<clus scale="   22.612">  1  9  2 -1</clus>
<clus scale="   79.949">  5  6 -1 -1</clus>
<clus scale="   81.112">  2  5  1 -1</clus>
<clus scale="   92.186">  7  8 -1 -1</clus>
<clus scale="   22.612">  1  5  2 -1</clus>
</clustering>
</event>
<event>
 9    1  0.5981539E-005  0.1416430E+03  0.7546771E-02  0.1232886E+00
         21   -1    0    0  501  502  0.00000000000E+00  0.00000000000E+00  0.41968404700E+03  0.41968404700E+03  0.00000000000E+00 0. -1.
          1   -1    0    0  502    0 -0.00000000000E+00 -0.00000000000E+00 -0.13392974621E+03  0.13392974621E+03  0.00000000000E+00 0. -1.
        -24    2    1    2    0    0  0.17358791799E+02 -0.31984000679E+02 -0.71006392969E+02  0.11451873155E+03  0.82148208028E+02 0.  0.
         23    2    1    2    0    0  0.45985214252E+02  0.10765381554E+03  0.26609078128E+03  0.30508231222E+03  0.92557708559E+02 0.  0.
         11    1    3    3    0    0  0.21198697980E+02  0.24389425891E+02 -0.17731244719E+02  0.36859543278E+02  0.00000000000E+00 0. -1.
        -12    1    3    3    0    0 -0.38399061811E+01 -0.56373426571E+02 -0.53275148250E+02  0.77659188277E+02  0.00000000000E+00 0.  1.
        -13    1    4    4    0    0  0.74464652240E+02  0.75067772484E+02  0.19618016728E+03  0.22286052349E+03  0.00000000000E+00 0. -1.
         13    1    4    4    0    0 -0.28479437988E+02  0.32586043059E+02  0.69910614008E+02  0.82221788726E+02  0.00000000000E+00 0.  1.
          2    1    1    2  501    0 -0.63344006051E+02 -0.75669814864E+02  0.90669912468E+02  0.13401274943E+03  0.00000000000E+00 0. -1.
<scales pt_clust_5="13000.00000" pt_clust_6="13000.00000" pt_clust_7="13000.00000" pt_clust_8="13000.00000" pt_clust_9="107.21863"></scales>
<clustering>
<clus scale="   82.148">  5  6 -1 -1</clus>
<clus scale="   89.848">  2  5  1 -1</clus>
<clus scale="   92.558">  7  8 -1 -1</clus>
<clus scale="  107.219">  1  9  2 -1</clus>
<clus scale="  107.219">  1  5  2 -1</clus>
</clustering>
</event>
<event>
 9    1  0.5981539E-005  0.1042007E+03  0.7546771E-02  0.1277469E+00
          1   -1    0    0  502    0 -0.00000000000E+00  0.00000000000E+00  0.24154366613E+03  0.24154366613E+03  0.00000000000E+00 0. -1.
         21   -1    0    0  501  502  0.00000000000E+00 -0.00000000000E+00 -0.69568091123E+02  0.69568091123E+02  0.00000000000E+00 0.  1.
         23    2    1    2    0    0  0.42883918714E+02  0.40536820250E+02  0.73796442939E+02  0.13243881302E+03  0.92800107353E+02 0.  0.
        -24    2    1    2    0    0 -0.37988445872E+01 -0.39611614992E+02  0.20894192077E+02  0.92061969325E+02  0.80345053805E+02 0.  0.
         11    1    4    4    0    0  0.19413780656E+02 -0.41463102912E+02  0.40877771332E+02  0.61376509933E+02  0.00000000000E+00 0. -1.
        -12    1    4    4    0    0 -0.23212625243E+02  0.18514879198E+01 -0.19983579256E+02  0.30685459392E+02  0.00000000000E+00 0.  1.
        -11    1    3    3    0    0  0.52025220894E+02  0.15003827173E+02  0.35148147114E+00  0.54146670979E+02  0.00000000000E+00 0.  1.
         11    1    3    3    0    0 -0.91413021802E+01  0.25532993078E+02  0.73444961468E+02  0.78292142046E+02  0.00000000000E+00 0. -1.
          2    1    1    2  501    0 -0.39085074127E+02 -0.92520525825E+00  0.77284939991E+02  0.86610974903E+02  0.00000000000E+00 0. -1.
<scales pt_clust_5="13000.00000" pt_clust_6="13000.00000" pt_clust_7="13000.00000" pt_clust_8="13000.00000" pt_clust_9="39.09604"></scales>
<clustering>
<clus scale="   39.096">  2  9  1 -1</clus>
<clus scale="   80.345">  5  6 -1 -1</clus>
<clus scale="   92.800">  7  8 -1 -1</clus>
<clus scale="   93.281">  2  5  1 -1</clus>
<clus scale="   39.096">  2  5  1 -1</clus>
</clustering>
</event>
<event>
 9    1  0.5981539E-005  0.9857932E+02  0.7546771E-02  0.1286986E+00
          3   -1    0    0  502    0 -0.00000000000E+00  0.00000000000E+00  0.25307502748E+03  0.25307502748E+03  0.00000000000E+00 0. -1.
         21   -1    0    0  501  502  0.00000000000E+00 -0.00000000000E+00 -0.10487306329E+03  0.10487306329E+03  0.00000000000E+00 0. -1.
        -24    2    1    2    0    0  0.32380553577E+02 -0.38021193753E+02  0.14322068114E+03  0.17174177297E+03  0.80554091482E+02 0.  0.
         23    2    1    2    0    0 -0.55846933120E+02 -0.32179873728E+02 -0.13462297936E+02  0.10992377376E+03  0.88020329247E+02 0.  0.
         13    1    3    3    0    0  0.40094152909E+02 -0.26546767027E+01  0.23237861348E+02  0.46417524771E+02  0.00000000000E+00 0. -1.
        -14    1    3    3    0    0 -0.77135993322E+01 -0.35366517050E+02  0.11998281979E+03  0.12532424820E+03  0.00000000000E+00 0.  1.
        -13    1    4    4    0    0 -0.39560716466E+01 -0.51191023236E+02 -0.18160213834E+02  0.54460671400E+02  0.00000000000E+00 0. -1.
         13    1    4    4    0    0 -0.51890861474E+02  0.19011149508E+02  0.46979158978E+01  0.55463102364E+02  0.00000000000E+00 0.  1.
          4    1    1    2  501    0  0.23466379543E+02  0.70201067481E+02  0.18443580986E+02  0.76282544032E+02  0.00000000000E+00 0. -1.
<scales pt_clust_5="13000.00000" pt_clust_6="13000.00000" pt_clust_7="13000.00000" pt_clust_8="13000.00000" pt_clust_9="74.01933"></scales>
<clustering>
<clus scale="   74.019">  2  9  1 -1</clus>
<clus scale="   80.554">  5  6 -1 -1</clus>
<clus scale="   88.020">  7  8 -1 -1</clus>
<clus scale="   91.974">  1  5  2 -1</clus>
<clus scale="   74.019">  2  5  1 -1</clus>
</clustering>
</event>
<event>
 9    1  0.5981539E-005  0.9375469E+02  0.7546771E-02  0.1301154E+00
          1   -1    0    0  502    0 -0.00000000000E+00  0.00000000000E+00  0.46601113784E+03  0.46601113784E+03  0.00000000000E+00 0. -1.
         21   -1    0    0  501  502  0.00000000000E+00 -0.00000000000E+00 -0.25555054554E+03  0.25555054554E+03  0.00000000000E+00 0. -1.
         23    2    1    2    0    0 -0.23664013676E+02  0.70190265714E+01  0.34464314007E+03  0.35764938549E+03  0.92330583614E+02 0.  0.
        -24    2    1    2    0    0 -0.40064214387E+02 -0.35650355863E+02  0.88142096345E+02  0.13086876665E+03  0.80507861663E+02 0.  0.
         11    1    4    4    0    0 -0.49850058498E+02 -0.59950305162E+01  0.16723288639E+02  0.52921045965E+02  0.00000000000E+00 0. -1.
        -12    1    4    4    0    0  0.97858441100E+01 -0.29655325346E+02  0.71418807706E+02  0.77947720688E+02  0.00000000000E+00 0.  1.
        -11    1    3    3    0    0  0.35187563910E+02 -0.47608869063E+01  0.12279732467E+03  0.12782806281E+03  0.00000000000E+00 0.  1.
         11    1    3    3    0    0 -0.58851577586E+02  0.11779913478E+02  0.22184581540E+03  0.22982132268E+03  0.00000000000E+00 0. -1.
          2    1    1    2  501    0  0.63728228064E+02  0.28631329291E+02 -0.22232464411E+03  0.23304353123E+03  0.00000000000E+00 0. -1.
<scales pt_clust_5="13000.00000" pt_clust_6="13000.00000" pt_clust_7="13000.00000" pt_clust_8="13000.00000" pt_clust_9="69.86444"></scales>
<clustering>
<clus scale="   69.864">  2  9  1 -1</clus>
<clus scale="   80.508">  5  6 -1 -1</clus>
<clus scale="   82.137">  2  5  1 -1</clus>
<clus scale="   92.331">  7  8 -1 -1</clus>
<clus scale="   69.864">  2  5  1 -1</clus>
</clustering>
</event>
<event>
 9    1  0.5981539E-005  0.1070334E+03  0.7546771E-02  0.1270194E+00
         21   -1    0    0  501  502  0.00000000000E+00  0.00000000000E+00  0.14118159944E+03  0.14118159944E+03  0.00000000000E+00 0.  1.
          1   -1    0    0  502    0 -0.00000000000E+00 -0.00000000000E+00 -0.14366661731E+03  0.14366661731E+03  0.00000000000E+00 0. -1.
         23    2    1    2    0    0 -0.14941219947E+02 -0.78293420365E+02 -0.25393234323E+02  0.12307184124E+03  0.90270493686E+02 0.  0.
        -24    2    1    2    0    0  0.22581291562E+02  0.19530813378E+02  0.46853780566E+02  0.97863898515E+02  0.80564871249E+02 0.  0.
         13    1    4    4    0    0 -0.18567509868E+02  0.20924085651E+02 -0.81684547299E+01  0.29142639478E+02  0.00000000000E+00 0. -1.
        -14    1    4    4    0    0  0.41148801430E+02 -0.13932722727E+01  0.55022235296E+02  0.68721259037E+02  0.00000000000E+00 0.  1.
        -13    1    3    3    0    0  0.15070537885E+02 -0.87593623062E+02 -0.16301806209E+02  0.90363227028E+02  0.00000000000E+00 0.  1.
         13    1    3    3    0    0 -0.30011757832E+02  0.93002026969E+01 -0.90914281136E+01  0.32708614210E+02  0.00000000000E+00 0. -1.
          2    1    1    2  501    0 -0.76400716142E+01  0.58762606987E+02 -0.23945564116E+02  0.63912476990E+02  0.00000000000E+00 0. -1.
<scales pt_clust_5="13000.00000" pt_clust_6="13000.00000" pt_clust_7="13000.00000" pt_clust_8="13000.00000" pt_clust_9="59.25722"></scales>
<clustering>
<clus scale="   59.257">  1  9  2 -1</clus>
<clus scale="   80.565">  5  6 -1 -1</clus>
<clus scale="   90.270">  7  8 -1 -1</clus>
<clus scale="   98.985">  1  5  2 -1</clus>
<clus scale="   59.257">  1  5  2 -1</clus>
</clustering>
</event>
<event>
 9    1  0.5981539E-005  0.1410417E+03  0.7546771E-02  0.1214474E+00
         -2   -1    0    0    0  501 -0.00000000000E+00  0.00000000000E+00  0.10083595368E+03  0.10083595368E+03  0.00000000000E+00 0.  1.
         21   -1    0    0  501  502  0.00000000000E+00 -0.00000000000E+00 -0.24852964258E+03  0.24852964258E+03  0.00000000000E+00 0.  1.
         23    2    1    2    0    0  0.46642811431E+01 -0.11215111475E+03 -0.66022944639E+02  0.15870897082E+03  0.90718686832E+02 0.  0.
        -24    2    1    2    0    0 -0.40560753717E+02  0.99061037128E+02 -0.72514377789E+02  0.15136609322E+03  0.78708928159E+02 0.  0.
         13    1    4    4    0    0 -0.32881991067E+02  0.37587743724E+02 -0.74142865615E+02  0.89393670561E+02  0.00000000000E+00 0. -1.
        -14    1    4    4    0    0 -0.76787626503E+01  0.61473293404E+02  0.16284878257E+01  0.61972422660E+02  0.00000000000E+00 0.  1.
        -11    1    3    3    0    0 -0.18788366469E+02 -0.24439741955E+02 -0.60315924245E+02  0.67737097804E+02  0.00000000000E+00 0.  1.
         11    1    3    3    0    0  0.23452647612E+02 -0.87711372795E+02 -0.57070203942E+01  0.90971873012E+02  0.00000000000E+00 0. -1.
         -1    1    1    2    0  502  0.35896472574E+02  0.13090077622E+02 -0.91563664763E+01  0.39290532224E+02  0.00000000000E+00 0.  1.
<scales pt_clust_5="13000.00000" pt_clust_6="13000.00000" pt_clust_7="13000.00000" pt_clust_8="13000.00000" pt_clust_9="38.20875"></scales>
<clustering>
<clus scale="   38.209">  2  9  1 -1</clus>
<clus scale="   78.709">  5  6 -1 -1</clus>
<clus scale="   90.719">  7  8 -1 -1</clus>
<clus scale="  133.634">  2  5  1 -1</clus>
<clus scale="   38.209">  2  5  1 -1</clus>
</clustering>
</event>
<event>
 9    1  0.5981539E-005  0.1855135E+03  0.7546771E-02  0.1163997E+00
         -2   -1    0    0    0  501 -0.00000000000E+00  0.00000000000E+00  0.25969589213E+03  0.25969589213E+03  0.00000000000E+00 0.  1.
         21   -1    0    0  501  502  0.00000000000E+00 -0.00000000000E+00 -0.66593118372E+03  0.66593118372E+03  0.00000000000E+00 0. -1.
         23    2    1    2    0    0  0.10002548229E+03 -0.12832442296E+03  0.20777655843E+03  0.27965038056E+03  0.92525577444E+02 0.  0.
        -24    2    1    2    0    0 -0.10304899467E+03  0.87237212832E+02 -0.52444281286E+03  0.54738707677E+03  0.79767921150E+02 0.  0.
         13    1    4    4    0    0 -0.58387910174E+02  0.93813062994E+02 -0.34024945078E+03  0.35774254374E+03  0.00000000000E+00 0. -1.
        -14    1    4    4    0    0 -0.44661084496E+02 -0.65758501621E+01 -0.18419336208E+03  0.18964453303E+03  0.00000000000E+00 0.  1.
        -13    1    3    3    0    0  0.60571304778E+02 -0.10394680375E+03  0.81997230995E+02  0.14559315528E+03  0.00000000000E+00 0. -1.
         13    1    3    3    0    0  0.39454177509E+02 -0.24377619204E+02  0.12577932743E+03  0.13405722528E+03  0.00000000000E+00 0.  1.
         -1    1    1    2    0  502  0.30235123826E+01  0.41087210125E+02 -0.89569037157E+02  0.98589618522E+02  0.00000000000E+00 0.  1.
<scales pt_clust_5="13000.00000" pt_clust_6="13000.00000" pt_clust_7="13000.00000" pt_clust_8="13000.00000" pt_clust_9="41.19831"></scales>
<clustering>
<clus scale="   41.198">  2  9  1 -1</clus>
<clus scale="   79.768">  5  6 -1 -1</clus>
<clus scale="   92.526">  7  8 -1 -1</clus>
<clus scale="  179.492">  2  5  1 -1</clus>
<clus scale="   41.198">  2  5  1 -1</clus>
</clustering>
</event>
<event>
 9    1  0.5981539E-005  0.9937886E+02  0.7546771E-02  0.1287575E+00
         21   -1    0    0  501  502  0.00000000000E+00  0.00000000000E+00  0.14791048128E+03  0.14791048128E+03  0.00000000000E+00 0. -1.
          3   -1    0    0  502    0 -0.00000000000E+00 -0.00000000000E+00 -0.15760413077E+03  0.15760413077E+03  0.00000000000E+00 0. -1.
         23    2    1    2    0    0  0.51458816573E+02 -0.68943537625E+01 -0.10132211056E+03  0.14575453898E+03  0.91009195303E+02 0.  0.
        -24    2    1    2    0    0 -0.57359476884E+00 -0.16050946893E+00  0.51317548181E+02  0.94460405441E+02  0.79302728014E+02 0.  0.
         11    1    4    4    0    0  0.27982948072E+02 -0.16201184606E+02  0.52530663272E+02  0.61684636249E+02  0.00000000000E+00 0. -1.
        -12    1    4    4    0    0 -0.28556542841E+02  0.16040675137E+02 -0.12131150904E+01  0.32775769191E+02  0.00000000000E+00 0.  1.
        -11    1    3    3    0    0  0.12017761625E+02 -0.46211522240E+02 -0.35294837696E+02  0.59377242696E+02  0.00000000000E+00 0.  1.
         11    1    3    3    0    0  0.39441054948E+02  0.39317168478E+02 -0.66027272861E+02  0.86377296287E+02  0.00000000000E+00 0. -1.
          4    1    1    2  501    0 -0.50885221804E+02  0.70548632314E+01  0.40310912887E+02  0.65299667618E+02  0.00000000000E+00 0. -1.
<scales pt_clust_5="13000.00000" pt_clust_6="13000.00000" pt_clust_7="13000.00000" pt_clust_8="13000.00000" pt_clust_9="51.37195"></scales>
<clustering>
<clus scale="   51.372">  1  9  2 -1</clus>
<clus scale="   79.303">  5  6 -1 -1</clus>
<clus scale="   88.783">  1  5  2 -1</clus>
<clus scale="   91.009">  7  8 -1 -1</clus>
<clus scale="   51.372">  1  5  2 -1</clus>
</clustering>
</event>
<event>
 9    1  0.5981539E-005  0.1258755E+03  0.7546771E-02  0.1235820E+00
          3   -1    0    0  502    0 -0.00000000000E+00  0.00000000000E+00  0.39997407158E+03  0.39997407158E+03  0.00000000000E+00 0. -1.
         21   -1    0    0  501  502  0.00000000000E+00 -0.00000000000E+00 -0.80184977478E+02  0.80184977478E+02  0.00000000000E+00 0.  1.
        -24    2    1    2    0    0 -0.74521713453E+02  0.73404040654E+02  0.18202588642E+03  0.22560601077E+03  0.82601512135E+02 0.  0.
         23    2    1    2    0    0 -0.35858714992E+01 -0.70649948685E+02  0.24961572926E+02  0.11732115915E+03  0.90204770035E+02 0.  0.
         11    1    3    3    0    0 -0.66886229188E+02  0.64051679584E+02  0.18984029788E+03  0.21122434522E+03  0.00000000000E+00 0. -1.
        -12    1    3    3    0    0 -0.76354842653E+01  0.93523610701E+01 -0.78144114604E+01  0.14381665551E+02  0.00000000000E+00 0.  1.
        -11    1    4    4    0    0 -0.11704632116E+02 -0.89292410312E+02  0.32344713798E+02  0.95688627658E+02  0.00000000000E+00 0.  1.
         11    1    4    4    0    0  0.81187606169E+01  0.18642461627E+02 -0.73831408724E+01  0.21632531489E+02  0.00000000000E+00 0. -1.
          4    1    1    2  501    0  0.78107584952E+02 -0.27540919690E+01  0.11280163475E+03  0.13723187914E+03  0.00000000000E+00 0. -1.
<scales pt_clust_5="13000.00000" pt_clust_6="13000.00000" pt_clust_7="13000.00000" pt_clust_8="13000.00000" pt_clust_9="78.15616"></scales>
<clustering>
<clus scale="   78.156">  2  9  1 -1</clus>
<clus scale="   82.602">  5  6 -1 -1</clus>
<clus scale="   90.205">  7  8 -1 -1</clus>
<clus scale="  120.544">  1  5  2 -1</clus>
<clus scale="   78.156">  2  5  1 -1</clus>
</clustering>
</event>
<event>
 9    1  0.5981539E-005  0.1035925E+03  0.7546771E-02  0.1274732E+00
         21   -1    0    0  501  502  0.00000000000E+00  0.00000000000E+00  0.13852683597E+03  0.13852683597E+03  0.00000000000E+00 0. -1.
          3   -1    0    0  502    0 -0.00000000000E+00 -0.00000000000E+00 -0.33832854593E+03  0.33832854593E+03  0.00000000000E+00 0. -1.
        -24    2    1    2    0    0 -0.13691202283E+02 -0.59959008697E+02 -0.47729333844E+02  0.11332582867E+03  0.82353642245E+02 0.  0.
         23    2    1    2    0    0 -0.80025950564E+02  0.43939687068E+02  0.53714944162E+02  0.13684046087E+03  0.86632370629E+02 0.  0.
         11    1    3    3    0    0 -0.17076487861E+02 -0.80226220078E+02 -0.35186451054E+02  0.89252110134E+02  0.00000000000E+00 0. -1.
        -12    1    3    3    0    0  0.33852855777E+01  0.20267211380E+02 -0.12542882790E+02  0.24073718538E+02  0.00000000000E+00 0.  1.
        -11    1    4    4    0    0 -0.19002837900E+02 -0.17590922637E+02 -0.11549803374E+02  0.28353947970E+02  0.00000000000E+00 0.  1.
         11    1    4    4    0    0 -0.61023112664E+02  0.61530609706E+02  0.65264747536E+02  0.10848651290E+03  0.00000000000E+00 0. -1.
          4    1    1    2  501    0  0.93717152847E+02  0.16019321629E+02 -0.20578732028E+03  0.22668909235E+03  0.00000000000E+00 0. -1.
<scales pt_clust_5="13000.00000" pt_clust_6="13000.00000" pt_clust_7="13000.00000" pt_clust_8="13000.00000" pt_clust_9="95.07646"></scales>
<clustering>
<clus scale="   82.354">  5  6 -1 -1</clus>
<clus scale="   86.632">  7  8 -1 -1</clus>
<clus scale="   95.076">  1  9  2 -1</clus>
<clus scale="  100.042">  2  5  1 -1</clus>
<clus scale="   95.076">  1  5  2 -1</clus>
</clustering>
</event>
<event>
 9    1  0.5981539E-005  0.1069598E+03  0.7546771E-02  0.1272976E+00
          1   -1    0    0  502    0 -0.00000000000E+00  0.00000000000E+00  0.14968691124E+03  0.14968691124E+03  0.00000000000E+00 0. -1.
         21   -1    0    0  501  502  0.00000000000E+00 -0.00000000000E+00 -0.17748395641E+03  0.17748395641E+03  0.00000000000E+00 0.  1.
        -24    2    1    2    0    0 -0.39927688146E+02  0.25424863682E+02  0.58884042862E+02  0.10745886796E+03  0.76416188247E+02 0.  0.
         23    2    1    2    0    0  0.38733818739E+02 -0.91613788137E+02 -0.63629179804E+02  0.14961357233E+03  0.91881192910E+02 0.  0.
         11    1    3    3    0    0 -0.39783252229E+02 -0.32626917432E+00  0.69116375730E+02  0.79748899701E+02  0.00000000000E+00 0. -1.
        -12    1    3    3    0    0 -0.14443591664E+00  0.25751132856E+02 -0.10232332868E+02  0.27709968262E+02  0.00000000000E+00 0.  1.
        -11    1    4    4    0    0  0.24837025912E+02 -0.41015981528E+02 -0.81180960168E+02  0.94284340644E+02  0.00000000000E+00 0.  1.
         11    1    4    4    0    0  0.13896792827E+02 -0.50597806609E+02  0.17551780364E+02  0.55329231682E+02  0.00000000000E+00 0. -1.
          2    1    1    2  501    0  0.11938694069E+01  0.66188924455E+02 -0.23051908228E+02  0.70098427355E+02  0.00000000000E+00 0. -1.
<scales pt_clust_5="13000.00000" pt_clust_6="13000.00000" pt_clust_7="13000.00000" pt_clust_8="13000.00000" pt_clust_9="66.19969"></scales>
<clustering>
<clus scale="   66.200">  2  9  1 -1</clus>
<clus scale="   76.416">  5  6 -1 -1</clus>
<clus scale="   91.881">  7  8 -1 -1</clus>
<clus scale="   94.009">  1  5  2 -1</clus>
<clus scale="   66.200">  2  5  1 -1</clus>
</clustering>
</event>
<event>
 9    1  0.5981539E-005  0.1557007E+03  0.7546771E-02  0.1195020E+00
          1   -1    0    0  502    0 -0.00000000000E+00  0.00000000000E+00  0.54346130621E+03  0.54346130621E+03  0.00000000000E+00 0. -1.
         21   -1    0    0  501  502  0.00000000000E+00 -0.00000000000E+00 -0.84424760925E+02  0.84424760925E+02  0.00000000000E+00 0.  1.
        -24    2    1    2    0    0  0.11262908099E+03 -0.11309991585E+02  0.17039492716E+03  0.21986773265E+03  0.80586368998E+02 0.  0.
         23    2    1    2    0    0 -0.15796844228E+03 -0.51627237611E+02  0.12295137470E+03  0.22507022909E+03  0.88995320448E+02 0.  0.
         13    1    3    3    0    0  0.94227792995E+02  0.23640654022E+02  0.10181876180E+03  0.14072959088E+03  0.00000000000E+00 0. -1.
        -14    1    3    3    0    0  0.18401287991E+02 -0.34950645607E+02  0.68576165358E+02  0.79138141773E+02  0.00000000000E+00 0.  1.
        -11    1    4    4    0    0 -0.13075014391E+03 -0.34801616533E+02  0.47983804766E+02  0.14355904070E+03  0.00000000000E+00 0.  1.
         11    1    4    4    0    0 -0.27218298365E+02 -0.16825621078E+02  0.74967569937E+02  0.81511188390E+02  0.00000000000E+00 0. -1.
          2    1    1    2  501    0  0.45339361291E+02  0.62937229195E+02  0.16569024342E+03  0.18294810539E+03  0.00000000000E+00 0. -1.
<scales pt_clust_5="13000.00000" pt_clust_6="13000.00000" pt_clust_7="13000.00000" pt_clust_8="13000.00000" pt_clust_9="77.56777"></scales>
<clustering>
<clus scale="   77.568">  2  9  1 -1</clus>
<clus scale="   80.586">  5  6 -1 -1</clus>
<clus scale="   88.995">  7  8 -1 -1</clus>
<clus scale="  151.052">  1  5  2 -1</clus>
<clus scale="   77.568">  2  5  1 -1</clus>
</clustering>
</event>
<event>
 9    1  0.5981539E-005  0.2135612E+03  0.7546771E-02  0.1139235E+00
          1   -1    0    0  502    0 -0.00000000000E+00  0.00000000000E+00  0.19593124069E+03  0.19593124069E+03  0.00000000000E+00 0. -1.
         21   -1    0    0  501  502  0.00000000000E+00 -0.00000000000E+00 -0.38415409107E+03  0.38415409107E+03  0.00000000000E+00 0.  1.
         23    2    1    2    0    0  0.12445911000E+03 -0.16912701535E+03 -0.16034264011E+01  0.22805903364E+03  0.88962545289E+02 0.  0.
        -24    2    1    2    0    0 -0.96937868837E+02  0.12578627285E+03 -0.22517909148E+03  0.28781814728E+03  0.83153627791E+02 0.  0.
         13    1    4    4    0    0 -0.37335168290E+02  0.11098468764E+03 -0.13492242140E+03  0.17864930864E+03  0.00000000000E+00 0. -1.
        -14    1    4    4    0    0 -0.59602700547E+02  0.14801585213E+02 -0.90256670080E+02  0.10916883865E+03  0.00000000000E+00 0.  1.
        -11    1    3    3    0    0  0.12635361445E+03 -0.12937661677E+03  0.21384424746E+02  0.18210117647E+03  0.00000000000E+00 0.  1.
         11    1    3    3    0    0 -0.18945044536E+01 -0.39750398587E+02 -0.22987851147E+02  0.45957857166E+02  0.00000000000E+00 0. -1.
          2    1    1    2  501    0 -0.27521241163E+02  0.43340742506E+02  0.38559667495E+02  0.64208150833E+02  0.00000000000E+00 0. -1.
<scales pt_clust_5="13000.00000" pt_clust_6="13000.00000" pt_clust_7="13000.00000" pt_clust_8="13000.00000" pt_clust_9="51.34045"></scales>
<clustering>
<clus scale="   51.340">  2  9  1 -1</clus>
<clus scale="   83.154">  5  6 -1 -1</clus>
<clus scale="   88.963">  7  8 -1 -1</clus>
<clus scale="  211.207">  2  5  1 -1</clus>
<clus scale="   51.340">  2  5  1 -1</clus>
</clustering>
</event>
<event>
 9    1  0.5981539E-005  0.1881782E+03  0.7546771E-02  0.1183168E+00
          1   -1    0    0  502    0 -0.00000000000E+00  0.00000000000E+00  0.93618632270E+03  0.93618632270E+03  0.00000000000E+00 0. -1.
         21   -1    0    0  501  502  0.00000000000E+00 -0.00000000000E+00 -0.10287278373E+03  0.10287278373E+03  0.00000000000E+00 0.  1.
        -24    2    1    2    0    0 -0.59205590874E+02 -0.49484406877E+02 -0.19465603827E+02  0.11291336823E+03  0.80103124027E+02 0.  0.
         23    2    1    2    0    0 -0.24816992705E+02 -0.12971456185E+03  0.43702184782E+03  0.46568271767E+03  0.91818012307E+02 0.  0.
         11    1    3    3    0    0  0.13678135292E+02 -0.27223597551E+02  0.86727462402E+01  0.31676997586E+02  0.00000000000E+00 0. -1.
        -12    1    3    3    0    0 -0.72883726166E+02 -0.22260809326E+02 -0.28138350067E+02  0.81236370648E+02  0.00000000000E+00 0.  1.
        -13    1    4    4    0    0 -0.28377944435E+01 -0.13748301276E+03  0.37650140589E+03  0.40082781903E+03  0.00000000000E+00 0.  1.
         13    1    4    4    0    0 -0.21979198262E+02  0.77684509130E+01  0.60520441934E+02  0.64854898641E+02  0.00000000000E+00 0. -1.
          2    1    1    2  501    0  0.84022583580E+02  0.17919896872E+03  0.41575729498E+03  0.46046302053E+03  0.00000000000E+00 0. -1.
<scales pt_clust_5="13000.00000" pt_clust_6="13000.00000" pt_clust_7="13000.00000" pt_clust_8="13000.00000" pt_clust_9="164.25748"></scales>
<clustering>
<clus scale="   80.103">  5  6 -1 -1</clus>
<clus scale="   91.818">  7  8 -1 -1</clus>
<clus scale="  111.223">  1  5  2 -1</clus>
<clus scale="  164.257">  2  9  1 -1</clus>
<clus scale="  164.257">  2  5  1 -1</clus>
</clustering>
</event>
<event>
 9    1  0.5981539E-005  0.1092017E+03  0.7546771E-02  0.1267229E+00
         -2   -1    0    0    0  501 -0.00000000000E+00  0.00000000000E+00  0.78164070808E+02  0.78164070808E+02  0.00000000000E+00 0.  1.
         21   -1    0    0  501  502  0.00000000000E+00 -0.00000000000E+00 -0.38859793308E+03  0.38859793308E+03  0.00000000000E+00 0.  1.
         23    2    1    2    0    0 -0.57589984352E+02 -0.37947343710E+02 -0.28571782166E+02  0.11684797357E+03  0.89891573572E+02 0.  0.
        -24    2    1    2    0    0  0.35206165840E+02  0.60421377691E+01 -0.29643656997E+03  0.30830401648E+03  0.76816306977E+02 0.  0.
         13    1    4    4    0    0  0.77907882857E+01 -0.33426336401E+02 -0.89366989586E+02  0.95731265399E+02  0.00000000000E+00 0. -1.
        -14    1    4    4    0    0  0.27415377555E+02  0.39468474170E+02 -0.20706958038E+03  0.21257275108E+03  0.00000000000E+00 0.  1.
        -11    1    3    3    0    0 -0.26833924753E+02 -0.63784208687E+02 -0.32571329424E+02  0.76481215314E+02  0.00000000000E+00 0.  1.
         11    1    3    3    0    0 -0.30756059599E+02  0.25836864977E+02  0.39995472582E+01  0.40366758257E+02  0.00000000000E+00 0. -1.
         -1    1    1    2    0  502  0.22383818512E+02  0.31905205941E+02  0.14574489862E+02  0.41610013844E+02  0.00000000000E+00 0.  1.
<scales pt_clust_5="13000.00000" pt_clust_6="13000.00000" pt_clust_7="13000.00000" pt_clust_8="13000.00000" pt_clust_9="38.97408"></scales>
<clustering>
<clus scale="   38.974">  2  9  1 -1</clus>
<clus scale="   76.816">  5  6 -1 -1</clus>
<clus scale="   89.892">  7  8 -1 -1</clus>
<clus scale="   98.718">  2  5  1 -1</clus>
<clus scale="   38.974">  2  5  1 -1</clus>
</clustering>
</event>
<event>
 9    1  0.5981539E-005  0.1502096E+03  0.7546771E-02  0.1202037E+00
          1   -1    0    0  502    0 -0.00000000000E+00  0.00000000000E+00  0.30420464368E+03  0.30420464368E+03  0.00000000000E+00 0. -1.
         21   -1    0    0  501  502  0.00000000000E+00 -0.00000000000E+00 -0.14771205872E+03  0.14771205872E+03  0.00000000000E+00 0. -1.
         23    2    1    2    0    0 -0.91393667698E+02  0.73309411301E+02  0.95683171800E+02  0.17668966615E+03  0.91306606973E+02 0.  0.
        -24    2    1    2    0    0  0.14525640498E+03  0.12143340186E+02  0.45746495775E+02  0.17309839833E+03  0.81384456317E+02 0.  0.
         11    1    4    4    0    0  0.13204399512E+02 -0.18740445182E+02 -0.11793891865E+02  0.25780929724E+02  0.00000000000E+00 0. -1.
        -12    1    4    4    0    0  0.13205200547E+03  0.30883785368E+02  0.57540387639E+02  0.14731746861E+03  0.00000000000E+00 0.  1.
        -13    1    3    3    0    0 -0.60754476043E+01  0.35802479470E+02  0.71828925238E+02  0.80486788361E+02  0.00000000000E+00 0. -1.
         13    1    3    3    0    0 -0.85318220093E+02  0.37506931830E+02  0.23854246562E+02  0.96202877786E+02  0.00000000000E+00 0.  1.
          2    1    1    2  501    0 -0.53862737284E+02 -0.85452751486E+02  0.15062917387E+02  0.10212863793E+03  0.00000000000E+00 0. -1.
<scales pt_clust_5="13000.00000" pt_clust_6="13000.00000" pt_clust_7="13000.00000" pt_clust_8="13000.00000" pt_clust_9="101.01172"></scales>
<clustering>
<clus scale="   81.384">  5  6 -1 -1</clus>
<clus scale="   91.307">  7  8 -1 -1</clus>
<clus scale="  101.012">  2  9  1 -1</clus>
<clus scale="  144.393">  2  5  1 -1</clus>
<clus scale="  101.012">  2  5  1 -1</clus>
</clustering>
</event>
<event>
 9    1  0.5981539E-005  0.1032504E+03  0.7546771E-02  0.1280452E+00
         21   -1    0    0  501  502  0.00000000000E+00  0.00000000000E+00  0.47825528498E+03  0.47825528498E+03  0.00000000000E+00 0. -1.
          3   -1    0    0  502    0 -0.00000000000E+00 -0.00000000000E+00 -0.13123623524E+03  0.13123623524E+03  0.00000000000E+00 0. -1.
        -24    2    1    2    0    0  0.49754780688E+02  0.36935982039E+02 -0.55820292629E+02  0.11588362757E+03  0.80456852412E+02 0.  0.
         23    2    1    2    0    0  0.44853061870E+02 -0.29656034964E+02  0.35742739424E+02  0.11444624189E+03  0.94494027816E+02 0.  0.
         11    1    3    3    0    0  0.32956164069E+02  0.19660385963E+02 -0.75551903832E+02  0.84739186324E+02  0.00000000000E+00 0. -1.
        -12    1    3    3    0    0  0.16798616620E+02  0.17275596076E+02  0.19731611203E+02  0.31144441250E+02  0.00000000000E+00 0.  1.
        -11    1    4    4    0    0  0.27616844044E+02 -0.61558636808E+02  0.63484392347E+01  0.67767680507E+02  0.00000000000E+00 0.  1.
         11    1    4    4    0    0  0.17236217826E+02  0.31902601844E+02  0.29394300189E+02  0.46678561385E+02  0.00000000000E+00 0. -1.
          4    1    1    2  501    0 -0.94607842558E+02 -0.72799470752E+01  0.36709660295E+03  0.37916165075E+03  0.00000000000E+00 0. -1.
<scales pt_clust_5="13000.00000" pt_clust_6="13000.00000" pt_clust_7="13000.00000" pt_clust_8="13000.00000" pt_clust_9="94.88752"></scales>
<clustering>
<clus scale="   80.457">  5  6 -1 -1</clus>
<clus scale="   94.494">  7  8 -1 -1</clus>
<clus scale="   94.888">  1  9  2 -1</clus>
<clus scale="   90.580">  2  5  1 -1</clus>
<clus scale="   94.888">  1  5  2 -1</clus>
</clustering>
</event>
<event>
 9    1  0.5981539E-005  0.1125739E+03  0.7546771E-02  0.1258493E+00
         -2   -1    0    0    0  501 -0.00000000000E+00  0.00000000000E+00  0.22306744159E+03  0.22306744159E+03  0.00000000000E+00 0.  1.
         21   -1    0    0  501  502  0.00000000000E+00 -0.00000000000E+00 -0.12235225655E+03  0.12235225655E+03  0.00000000000E+00 0.  1.
        -24    2    1    2    0    0 -0.63133416934E+02 -0.11455433453E+01  0.77303457004E+02  0.12899830444E+03  0.81716567973E+02 0.  0.
         23    2    1    2    0    0  0.72692368216E+02 -0.32071788749E+02  0.84521155894E+02  0.14621365285E+03  0.89004642884E+02 0.  0.
         11    1    3    3    0    0 -0.41008190402E+02  0.13857979916E+02  0.89649308298E+02  0.99552567851E+02  0.00000000000E+00 0. -1.
        -12    1    3    3    0    0 -0.22125226531E+02 -0.15003523262E+02 -0.12345851294E+02  0.29445736593E+02  0.00000000000E+00 0.  1.
        -13    1    4    4    0    0  0.28236097332E+02 -0.47460116138E+02  0.82307412699E+02  0.99117354695E+02  0.00000000000E+00 0.  1.
         13    1    4    4    0    0  0.44456270884E+02  0.15388327389E+02  0.22137431946E+01  0.47096298153E+02  0.00000000000E+00 0. -1.
         -1    1    1    2    0  502 -0.95589512825E+01  0.33217332094E+02 -0.61109427858E+02  0.70207740842E+02  0.00000000000E+00 0.  1.
<scales pt_clust_5="13000.00000" pt_clust_6="13000.00000" pt_clust_7="13000.00000" pt_clust_8="13000.00000" pt_clust_9="34.56537"></scales>
<clustering>
<clus scale="   34.565">  2  9  1 -1</clus>
<clus scale="   81.717">  5  6 -1 -1</clus>
<clus scale="   89.005">  7  8 -1 -1</clus>
<clus scale="  106.905">  1  5  2 -1</clus>
<clus scale="   34.565">  2  5  1 -1</clus>
</clustering>
</event>
<event>
 9    1  0.5981539E-005  0.1611891E+03  0.7546771E-02  0.1203286E+00
          1   -1    0    0  502    0 -0.00000000000E+00  0.00000000000E+00  0.90141413034E+02  0.90141413034E+02  0.00000000000E+00 0. -1.
         21   -1    0    0  501  502  0.00000000000E+00 -0.00000000000E+00 -0.56927684403E+03  0.56927684403E+03  0.00000000000E+00 0. -1.
         23    2    1    2    0    0 -0.63214794448E+02  0.18980146981E+02 -0.10694289719E+03  0.15612031357E+03  0.92630517839E+02 0.  0.
        -24    2    1    2    0    0 -0.54940740230E+02 -0.12272174870E+03 -0.27928443337E+03  0.32066452533E+03  0.82139092660E+02 0.  0.
         11    1    4    4    0    0  0.55737305227E+01 -0.85000612090E+02 -0.13326588291E+03  0.15816436411E+03  0.00000000000E+00 0. -1.
        -12    1    4    4    0    0 -0.60514470753E+02 -0.37721136605E+02 -0.14601855046E+03  0.16250016122E+03  0.00000000000E+00 0.  1.
        -11    1    3    3    0    0 -0.82271614380E+02  0.28796618803E+02 -0.64045849062E+02  0.10816531130E+03  0.00000000000E+00 0. -1.
         11    1    3    3    0    0  0.19056819932E+02 -0.98164718223E+01 -0.42897048124E+02  0.47955002270E+02  0.00000000000E+00 0.  1.
          2    1    1    2  501    0  0.11815553468E+03  0.10374160171E+03 -0.92908100439E+02  0.18263341816E+03  0.00000000000E+00 0. -1.
<scales pt_clust_5="13000.00000" pt_clust_6="13000.00000" pt_clust_7="13000.00000" pt_clust_8="13000.00000" pt_clust_9="138.69075"></scales>
<clustering>
<clus scale="   82.139">  5  6 -1 -1</clus>
<clus scale="   92.631">  7  8 -1 -1</clus>
<clus scale="  113.740">  1  7  2 -1</clus>
<clus scale="  138.691">  2  9  1 -1</clus>
<clus scale="  138.691">  2  5  1 -1</clus>
</clustering>
</event>
<event>
 9    1  0.5981539E-005  0.1305727E+03  0.7546771E-02  0.1246728E+00
         21   -1    0    0  501  502  0.00000000000E+00  0.00000000000E+00  0.26105361128E+03  0.26105361128E+03  0.00000000000E+00 0. -1.
          3   -1    0    0  502    0 -0.00000000000E+00 -0.00000000000E+00 -0.27048586103E+03  0.27048586103E+03  0.00000000000E+00 0. -1.
        -24    2    1    2    0    0  0.28371223731E+02  0.91657921099E+01 -0.19405567372E+03  0.21249229626E+03  0.81279969156E+02 0.  0.
         23    2    1    2    0    0 -0.36936490098E+02  0.84705936603E+02  0.23138773373E+02  0.13206440247E+03  0.91466953429E+02 0.  0.
         11    1    3    3    0    0  0.48543273757E+02  0.29110070052E+01 -0.62191101967E+02  0.78947175711E+02  0.00000000000E+00 0. -1.
        -12    1    3    3    0    0 -0.20172050026E+02  0.62547851047E+01 -0.13186457175E+03  0.13354512055E+03  0.00000000000E+00 0.  1.
        -11    1    4    4    0    0 -0.20940483882E+02  0.10325518005E+03  0.16107549791E+02  0.10658137376E+03  0.00000000000E+00 0. -1.
         11    1    4    4    0    0 -0.15996006216E+02 -0.18549243444E+02  0.70312235821E+01  0.25483028711E+02  0.00000000000E+00 0.  1.
          4    1    1    2  501    0  0.85652663674E+01 -0.93871728713E+02  0.16148465059E+03  0.18698277358E+03  0.00000000000E+00 0. -1.
<scales pt_clust_5="13000.00000" pt_clust_6="13000.00000" pt_clust_7="13000.00000" pt_clust_8="13000.00000" pt_clust_9="93.18276"></scales>
<clustering>
<clus scale="   81.280">  5  6 -1 -1</clus>
<clus scale="   86.576">  2  5  1 -1</clus>
<clus scale="   91.467">  7  8 -1 -1</clus>
<clus scale="   93.183">  1  9  2 -1</clus>
<clus scale="   93.183">  1  5  2 -1</clus>
</clustering>
</event>
<event>
 9    1  0.5981539E-005  0.1404031E+03  0.7546771E-02  0.1236460E+00
         21   -1    0    0  501  502  0.00000000000E+00  0.00000000000E+00  0.99799221294E+02  0.99799221294E+02  0.00000000000E+00 0. -1.
          1   -1    0    0  502    0 -0.00000000000E+00 -0.00000000000E+00 -0.72440254604E+03  0.72440254604E+03  0.00000000000E+00 0. -1.
        -24    2    1    2    0    0 -0.11386274993E+02 -0.27766230836E+02 -0.55934675628E+03  0.56587910017E+03  0.80310344446E+02 0.  0.
         23    2    1    2    0    0 -0.74688069441E+02  0.74390600741E+02 -0.58160677626E+01  0.14379844368E+03  0.97631432262E+02 0.  0.
         11    1    3    3    0    0 -0.35977352885E+02  0.10424021982E+02 -0.18246425531E+03  0.18626925302E+03  0.00000000000E+00 0. -1.
        -12    1    3    3    0    0  0.24591077893E+02 -0.38190252818E+02 -0.37688250096E+03  0.37960984715E+03  0.00000000000E+00 0.  1.
        -13    1    4    4    0    0  0.21836573010E+02  0.30832038118E+02 -0.17997168906E+01  0.37824456060E+02  0.00000000000E+00 0.  1.
         13    1    4    4    0    0 -0.96524642451E+02  0.43558562623E+02 -0.40163508720E+01  0.10597398762E+03  0.00000000000E+00 0. -1.
          2    1    1    2  501    0  0.86074344434E+02 -0.46624369906E+02 -0.59440500706E+02  0.11452422348E+03  0.00000000000E+00 0. -1.
<scales pt_clust_5="13000.00000" pt_clust_6="13000.00000" pt_clust_7="13000.00000" pt_clust_8="13000.00000" pt_clust_9="100.90161"></scales>
<clustering>
<clus scale="   80.310">  5  6 -1 -1</clus>
<clus scale="   85.734">  2  5  1 -1</clus>
<clus scale="   97.631">  7  8 -1 -1</clus>
<clus scale="  100.902">  1  9  2 -1</clus>
<clus scale="  100.902">  1  5  2 -1</clus>
</clustering>
</event>
<event>
 9    1  0.5981539E-005  0.2573660E+03  0.7546771E-02  0.1140721E+00
         21   -1    0    0  501  502  0.00000000000E+00  0.00000000000E+00  0.22649235659E+03  0.22649235659E+03  0.00000000000E+00 0. -1.
          1   -1    0    0  502    0 -0.00000000000E+00 -0.00000000000E+00 -0.47338950338E+03  0.47338950338E+03  0.00000000000E+00 0. -1.
        -24    2    1    2    0    0  0.36341606204E+02  0.74273833618E+02 -0.13992137893E+03  0.18202517643E+03  0.81962539442E+02 0.  0.
         23    2    1    2    0    0 -0.22605108684E+03  0.83764633019E+02 -0.78792701592E+02  0.26934083051E+03  0.90667444809E+02 0.  0.
         13    1    3    3    0    0 -0.68590265784E+01  0.23586629197E+02 -0.10297465172E+03  0.10586384755E+03  0.00000000000E+00 0. -1.
        -14    1    3    3    0    0  0.43200632782E+02  0.50687204422E+02 -0.36946727211E+02  0.76161328878E+02  0.00000000000E+00 0.  1.
        -11    1    4    4    0    0 -0.28475473198E+02 -0.89263403931E+00  0.17899000841E+02  0.33645558406E+02  0.00000000000E+00 0.  1.
         11    1    4    4    0    0 -0.19757561364E+03  0.84657267058E+02 -0.96691702432E+02  0.23569527210E+03  0.00000000000E+00 0. -1.
          2    1    1    2  501    0  0.18970948064E+03 -0.15803846664E+03 -0.28183066270E+02  0.24851585303E+03  0.00000000000E+00 0. -1.
<scales pt_clust_5="13000.00000" pt_clust_6="13000.00000" pt_clust_7="13000.00000" pt_clust_8="13000.00000" pt_clust_9="240.86649"></scales>
<clustering>
<clus scale="   81.963">  5  6 -1 -1</clus>
<clus scale="   90.667">  7  8 -1 -1</clus>
<clus scale="  116.427">  2  5  1 -1</clus>
<clus scale="  240.866">  1  9  2 -1</clus>
<clus scale="  240.866">  1  5  2 -1</clus>
</clustering>
</event>
<event>
 9    1  0.5981539E-005  0.1032933E+03  0.7546771E-02  0.1277376E+00
         21   -1    0    0  501  502  0.00000000000E+00  0.00000000000E+00  0.25640859267E+03  0.25640859267E+03  0.00000000000E+00 0.  1.
         -4   -1    0    0    0  501 -0.00000000000E+00 -0.00000000000E+00 -0.17488356428E+03  0.17488356428E+03  0.00000000000E+00 0.  1.
         23    2    1    2    0    0  0.61087991595E+02 -0.36149208545E+02 -0.11272578579E+03  0.16098435669E+03  0.90390001228E+02 0.  0.
        -24    2    1    2    0    0  0.16987863587E+02  0.15370978740E+02  0.35411160967E+02  0.92101152151E+02  0.81876842940E+02 0.  0.
         11    1    4    4    0    0 -0.20159567163E+02 -0.17354374074E+02  0.33204650838E+02  0.42545637673E+02  0.00000000000E+00 0. -1.
        -12    1    4    4    0    0  0.37147430750E+02  0.32725352815E+02  0.22065101288E+01  0.49555514478E+02  0.00000000000E+00 0.  1.
        -13    1    3    3    0    0  0.66424549281E+02 -0.20779022501E+01 -0.10709762144E+03  0.12604141757E+03  0.00000000000E+00 0.  1.
         13    1    3    3    0    0 -0.53365576859E+01 -0.34071306295E+02 -0.56281643503E+01  0.34942939123E+02  0.00000000000E+00 0. -1.
         -3    1    1    2    0  502 -0.78075855183E+02  0.20778229805E+02  0.15883965322E+03  0.17820664811E+03  0.00000000000E+00 0.  1.
<scales pt_clust_5="13000.00000" pt_clust_6="13000.00000" pt_clust_7="13000.00000" pt_clust_8="13000.00000" pt_clust_9="80.79340"></scales>
<clustering>
<clus scale="   80.793">  1  9  2 -1</clus>
<clus scale="   81.877">  5  6 -1 -1</clus>
<clus scale="   90.390">  7  8 -1 -1</clus>
<clus scale="   95.932">  1  5  2 -1</clus>
<clus scale="   80.793">  1  5  2 -1</clus>
</clustering>
</event>
<event>
 9    1  0.5981539E-005  0.9493677E+02  0.7546771E-02  0.1291786E+00
         21   -1    0    0  501  502  0.00000000000E+00  0.00000000000E+00  0.21518997863E+02  0.21518997863E+02  0.00000000000E+00 0. -1.
         -4   -1    0    0    0  501 -0.00000000000E+00 -0.00000000000E+00 -0.16527982382E+04  0.16527982382E+04  0.00000000000E+00 0.  1.
        -24    2    1    2    0    0  0.24341696561E+02 -0.24268902891E+01 -0.14352358352E+04  0.14384318631E+04  0.92660208732E+02 0.  0.
         23    2    1    2    0    0  0.70156821441E+01  0.52432858220E+01 -0.17559703747E+03  0.19834511141E+03  0.91813679853E+02 0.  0.
         13    1    3    3    0    0 -0.11540594453E+02 -0.18725792695E+02 -0.91083480165E+02  0.93701872935E+02  0.00000000000E+00 0. -1.
        -14    1    3    3    0    0  0.35882291014E+02  0.16298902406E+02 -0.13441523550E+04  0.13447299902E+04  0.00000000000E+00 0.  1.
        -13    1    4    4    0    0 -0.34929869814E+02  0.17723388368E+02 -0.12720829540E+03  0.13310208382E+03  0.00000000000E+00 0.  1.
         13    1    4    4    0    0  0.41945551958E+02 -0.12480102546E+02 -0.48388742076E+02  0.65243027584E+02  0.00000000000E+00 0. -1.
         -3    1    1    2    0  502 -0.31357378705E+02 -0.28163955328E+01 -0.20446367651E+02  0.37540261496E+02  0.00000000000E+00 0.  1.
<scales pt_clust_5="13000.00000" pt_clust_6="13000.00000" pt_clust_7="13000.00000" pt_clust_8="13000.00000" pt_clust_9="31.48360"></scales>
<clustering>
<clus scale="   31.484">  1  9  2 -1</clus>
<clus scale="   91.814">  7  8 -1 -1</clus>
<clus scale="   92.660">  5  6 -1 -1</clus>
<clus scale="   94.111">  1  7  2 -1</clus>
<clus scale="   31.484">  1  5  2 -1</clus>
</clustering>
</event>
<event>
 9    1  0.5981539E-005  0.9334718E+02  0.7546771E-02  0.1301595E+00
         -2   -1    0    0    0  501 -0.00000000000E+00  0.00000000000E+00  0.48776879309E+02  0.48776879309E+02  0.00000000000E+00 0.  1.
         21   -1    0    0  501  502  0.00000000000E+00 -0.00000000000E+00 -0.36919247631E+03  0.36919247631E+03  0.00000000000E+00 0. -1.
        -24    2    1    2    0    0 -0.87364533669E+01 -0.16834329432E+02 -0.53959148222E+02  0.99790515127E+02  0.81773082169E+02 0.  0.
         23    2    1    2    0    0 -0.50182598999E+02 -0.14692997631E+02 -0.17701385323E+03  0.20653026244E+03  0.92664273837E+02 0.  0.
         13    1    3    3    0    0 -0.24507667530E+02  0.21536888681E+02 -0.11653929948E+01  0.32646921488E+02  0.00000000000E+00 0. -1.
        -14    1    3    3    0    0  0.15771214163E+02 -0.38371218113E+02 -0.52793755228E+02  0.67143593639E+02  0.00000000000E+00 0.  1.
        -13    1    4    4    0    0 -0.45800295758E+02  0.32889799347E+02 -0.11647051508E+03  0.12940164943E+03  0.00000000000E+00 0. -1.
         13    1    4    4    0    0 -0.43823032409E+01 -0.47582796978E+02 -0.60543338151E+02  0.77128613007E+02  0.00000000000E+00 0.  1.
         -1    1    1    2    0  502  0.58919052366E+02  0.31527327063E+02 -0.89442595549E+02  0.11164857806E+03  0.00000000000E+00 0.  1.
<scales pt_clust_5="13000.00000" pt_clust_6="13000.00000" pt_clust_7="13000.00000" pt_clust_8="13000.00000" pt_clust_9="66.82385"></scales>
<clustering>
<clus scale="   66.824">  2  9  1 -1</clus>
<clus scale="   81.773">  5  6 -1 -1</clus>
<clus scale="   82.546">  1  5  2 -1</clus>
<clus scale="   92.664">  7  8 -1 -1</clus>
<clus scale="   66.824">  2  5  1 -1</clus>
</clustering>
</event>
<event>
 9    1  0.5981539E-005  0.1796829E+03  0.7546771E-02  0.1182197E+00
          1   -1    0    0  502    0 -0.00000000000E+00  0.00000000000E+00  0.58088078089E+03  0.58088078089E+03  0.00000000000E+00 0. -1.
         21   -1    0    0  501  502  0.00000000000E+00 -0.00000000000E+00 -0.10581996056E+03  0.10581996056E+03  0.00000000000E+00 0. -1.
         23    2    1    2    0    0  0.92943721883E+02 -0.20266860292E+01  0.19999786956E+03  0.23884179989E+03  0.91671231316E+02 0.  0.
        -24    2    1    2    0    0  0.56453016091E+02 -0.12266779379E+03  0.14254718085E+03  0.21242630174E+03  0.81061114244E+02 0.  0.
         13    1    4    4    0    0  0.65991288917E+02 -0.74389226911E+02  0.12598602228E+03  0.16050260154E+03  0.00000000000E+00 0. -1.
        -14    1    4    4    0    0 -0.95382728265E+01 -0.48278566881E+02  0.16561158574E+02  0.51923700195E+02  0.00000000000E+00 0.  1.
        -13    1    3    3    0    0  0.31809311020E+02  0.81039361523E+01  0.37454776634E+01  0.33038381493E+02  0.00000000000E+00 0. -1.
         13    1    3    3    0    0  0.61134410863E+02 -0.10130622182E+02  0.19625239190E+03  0.20580341840E+03  0.00000000000E+00 0.  1.
          2    1    1    2  501    0 -0.14939673797E+03  0.12469447982E+03  0.13251576992E+03  0.23543263982E+03  0.00000000000E+00 0. -1.
<scales pt_clust_5="13000.00000" pt_clust_6="13000.00000" pt_clust_7="13000.00000" pt_clust_8="13000.00000" pt_clust_9="160.35923"></scales>
<clustering>
<clus scale="   81.061">  5  6 -1 -1</clus>
<clus scale="   91.671">  7  8 -1 -1</clus>
<clus scale="  130.561">  1  7  2 -1</clus>
<clus scale="  160.359">  2  9  1 -1</clus>
<clus scale="  160.359">  2  5  1 -1</clus>
</clustering>
</event>
<event>
 9    1  0.5981539E-005  0.1161896E+03  0.7546771E-02  0.1255114E+00
         21   -1    0    0  501  502  0.00000000000E+00  0.00000000000E+00  0.40776291313E+02  0.40776291313E+02  0.00000000000E+00 0.  1.
          1   -1    0    0  502    0 -0.00000000000E+00 -0.00000000000E+00 -0.77571572080E+03  0.77571572080E+03  0.00000000000E+00 0. -1.
         23    2    1    2    0    0  0.63883538665E+02  0.20224918073E+02 -0.47303579137E+03  0.48782216581E+03  0.98577135851E+02 0.  0.
        -24    2    1    2    0    0 -0.57635557171E+02  0.89274999215E+01 -0.27702532132E+03  0.29523982909E+03  0.83797197597E+02 0.  0.
         13    1    4    4    0    0 -0.35446486216E+01 -0.29222530136E+02 -0.43567089975E+02  0.52579579023E+02  0.00000000000E+00 0. -1.
        -14    1    4    4    0    0 -0.54090908550E+02  0.38150030057E+02 -0.23345823135E+03  0.24266025007E+03  0.00000000000E+00 0.  1.
        -11    1    3    3    0    0  0.89893709756E+02  0.14308350659E+02 -0.39502891826E+03  0.40538062881E+03  0.00000000000E+00 0.  1.
         11    1    3    3    0    0 -0.26010171092E+02  0.59165674138E+01 -0.78006873108E+02  0.82441536996E+02  0.00000000000E+00 0. -1.
          2    1    1    2  501    0 -0.62479814932E+01 -0.29152417995E+02  0.15121683206E+02  0.33430017210E+02  0.00000000000E+00 0. -1.
<scales pt_clust_5="13000.00000" pt_clust_6="13000.00000" pt_clust_7="13000.00000" pt_clust_8="13000.00000" pt_clust_9="29.81444"></scales>
<clustering>
<clus scale="   29.814">  1  9  2 -1</clus>
<clus scale="   83.797">  5  6 -1 -1</clus>
<clus scale="   98.577">  7  8 -1 -1</clus>
<clus scale="  103.945">  1  5  2 -1</clus>
<clus scale="   29.814">  1  5  2 -1</clus>
</clustering>
</event>
<event>
 9    1  0.5981539E-005  0.9740970E+02  0.7546771E-02  0.1291847E+00
         -2   -1    0    0    0  501 -0.00000000000E+00  0.00000000000E+00  0.82710637322E+02  0.82710637322E+02  0.00000000000E+00 0.  1.
         21   -1    0    0  501  502  0.00000000000E+00 -0.00000000000E+00 -0.15373691673E+03  0.15373691673E+03  0.00000000000E+00 0. -1.
         23    2    1    2    0    0  0.28404194320E+02  0.30248518771E+02 -0.90582466334E+01  0.10150012313E+03  0.92187049094E+02 0.  0.
        -24    2    1    2    0    0  0.34158029807E+00 -0.25640704218E+02 -0.26630533996E+02  0.89162167644E+02  0.81136578731E+02 0.  0.
         13    1    4    4    0    0  0.16372932455E+02 -0.13138106068E+02 -0.52335808551E+02  0.56389002518E+02  0.00000000000E+00 0. -1.
        -14    1    4    4    0    0 -0.16031352157E+02 -0.12502598150E+02  0.25705274555E+02  0.32773165127E+02  0.00000000000E+00 0.  1.
        -13    1    3    3    0    0 -0.86136790103E+01  0.51696968529E+02 -0.21945162313E+02  0.56818678004E+02  0.00000000000E+00 0.  1.
         13    1    3    3    0    0  0.37017873331E+02 -0.21448449758E+02  0.12886915679E+02  0.44681445127E+02  0.00000000000E+00 0. -1.
         -1    1    1    2    0  502 -0.28745774619E+02 -0.46078145526E+01 -0.35337498777E+02  0.45785263275E+02  0.00000000000E+00 0.  1.
<scales pt_clust_5="13000.00000" pt_clust_6="13000.00000" pt_clust_7="13000.00000" pt_clust_8="13000.00000" pt_clust_9="29.11274"></scales>
<clustering>
<clus scale="   29.113">  2  9  1 -1</clus>
<clus scale="   81.137">  5  6 -1 -1</clus>
<clus scale="   87.025">  2  5  1 -1</clus>
<clus scale="   92.187">  7  8 -1 -1</clus>
<clus scale="   29.113">  2  5  1 -1</clus>
</clustering>
</event>
<event>
 9    1  0.7627503E-005  0.3334369E+03  0.7546771E-02  0.1069882E+00
         21   -1    0    0  501  502  0.00000000000E+00  0.00000000000E+00  0.28491800498E+03  0.28491800498E+03  0.00000000000E+00 0.  1.
          1   -1    0    0  502    0 -0.00000000000E+00 -0.00000000000E+00 -0.16021067324E+04  0.16021067324E+04  0.00000000000E+00 0. -1.
        -24    2    1    2    0    0 -0.16972125141E+03  0.27912081779E+03 -0.14410448045E+04  0.14798426183E+04  0.81303826395E+02 0.  0.
         23    2    1    2    0    0  0.74470186415E+02 -0.25418996968E+03  0.12990163368E+03  0.30853699083E+03  0.90345397955E+02 0.  0.
         13    1    3    3    0    0 -0.15558561657E+03  0.26873858446E+03 -0.14133529444E+04  0.14470638743E+04  0.00000000000E+00 0. -1.
        -14    1    3    3    0    0 -0.14135634849E+02  0.10382233329E+02 -0.27691860169E+02  0.32778744044E+02  0.00000000000E+00 0.  1.
        -13    1    4    4    0    0  0.48870274674E+02 -0.55344987408E+02  0.63371947021E+02  0.97300437034E+02  0.00000000000E+00 0. -1.
         13    1    4    4    0    0  0.25599911741E+02 -0.19884498227E+03  0.66529686660E+02  0.21123655380E+03  0.00000000000E+00 0.  1.
          2    1    1    2  501    0  0.95251065000E+02 -0.24930848114E+02 -0.60455565773E+01  0.98645128240E+02  0.00000000000E+00 0. -1.
<scales pt_clust_5="13000.00000" pt_clust_6="13000.00000" pt_clust_7="13000.00000" pt_clust_8="13000.00000" pt_clust_9="98.45970"></scales>
<clustering>
<clus scale="   81.304">  5  6 -1 -1</clus>
<clus scale="   90.345">  7  8 -1 -1</clus>
<clus scale="   98.460">  1  9  2 -1</clus>
<clus scale="  331.101">  2  5  1 -1</clus>
<clus scale="   98.460">  1  5  2 -1</clus>
</clustering>
</event>
<event>
 9    1  0.5981539E-005  0.9389989E+02  0.7546771E-02  0.1300635E+00
         21   -1    0    0  501  502  0.00000000000E+00  0.00000000000E+00  0.10146608837E+03  0.10146608837E+03  0.00000000000E+00 0. -1.
         -2   -1    0    0    0  501 -0.00000000000E+00 -0.00000000000E+00 -0.23742586382E+03  0.23742586382E+03  0.00000000000E+00 0.  1.
         23    2    1    2    0    0  0.41948040282E+01 -0.13198755846E+02 -0.16336811509E+03  0.18791729684E+03  0.91825736515E+02 0.  0.
        -24    2    1    2    0    0 -0.34831324237E+02  0.43995674113E+02  0.40040580673E+02  0.10573507027E+03  0.80173664595E+02 0.  0.
         11    1    4    4    0    0 -0.47184766548E+02  0.24284702197E+02  0.56288894376E+02  0.77360122706E+02  0.00000000000E+00 0. -1.
        -12    1    4    4    0    0  0.12353442311E+02  0.19710971916E+02 -0.16248313703E+02  0.28374947560E+02  0.00000000000E+00 0.  1.
        -13    1    3    3    0    0  0.31319001216E+02 -0.38835316334E+00 -0.11897502616E+02  0.33504943275E+02  0.00000000000E+00 0.  1.
         13    1    3    3    0    0 -0.27124197188E+02 -0.12810402683E+02 -0.15147061248E+03  0.15441235357E+03  0.00000000000E+00 0. -1.
         -1    1    1    2    0  502  0.30636520209E+02 -0.30796918267E+02 -0.12632241025E+02  0.45239585084E+02  0.00000000000E+00 0.  1.
<scales pt_clust_5="13000.00000" pt_clust_6="13000.00000" pt_clust_7="13000.00000" pt_clust_8="13000.00000" pt_clust_9="43.44015"></scales>
<clustering>
<clus scale="   43.440">  1  9  2 -1</clus>
<clus scale="   80.174">  5  6 -1 -1</clus>
<clus scale="   82.541">  1  5  2 -1</clus>
<clus scale="   91.826">  7  8 -1 -1</clus>
<clus scale="   43.440">  1  5  2 -1</clus>
</clustering>
</event>
<event>
 9    1  0.5981539E-005  0.1039080E+03  0.7546771E-02  0.1278837E+00
         21   -1    0    0  501  502  0.00000000000E+00  0.00000000000E+00  0.15784084530E+03  0.15784084530E+03  0.00000000000E+00 0. -1.
          1   -1    0    0  502    0 -0.00000000000E+00 -0.00000000000E+00 -0.11794920648E+03  0.11794920648E+03  0.00000000000E+00 0. -1.
        -24    2    1    2    0    0  0.55598973520E+02  0.56826303192E+01 -0.55060059205E+02  0.11009484456E+03  0.77238115816E+02 0.  0.
         23    2    1    2    0    0 -0.21626701996E+02 -0.13633658963E+02  0.89298746693E+02  0.13034991124E+03  0.91450764372E+02 0.  0.
         11    1    3    3    0    0  0.33406001407E+01  0.24523128647E+02 -0.48120516465E+02  0.54112175643E+02  0.00000000000E+00 0. -1.
        -12    1    3    3    0    0  0.52258373379E+02 -0.18840498327E+02 -0.69395427397E+01  0.55982668915E+02  0.00000000000E+00 0.  1.
        -13    1    4    4    0    0  0.29570969294E+02 -0.70758140403E+01  0.68045015212E+02  0.74529413418E+02  0.00000000000E+00 0. -1.
         13    1    4    4    0    0 -0.51197671290E+02 -0.65578449230E+01  0.21253731481E+02  0.55820497825E+02  0.00000000000E+00 0.  1.
          2    1    1    2  501    0 -0.33972271524E+02  0.79510286441E+01  0.56529513352E+01  0.35345295978E+02  0.00000000000E+00 0. -1.
<scales pt_clust_5="13000.00000" pt_clust_6="13000.00000" pt_clust_7="13000.00000" pt_clust_8="13000.00000" pt_clust_9="34.89032"></scales>
<clustering>
<clus scale="   34.890">  1  9  2 -1</clus>
<clus scale="   77.238">  5  6 -1 -1</clus>
<clus scale="   91.451">  7  8 -1 -1</clus>
<clus scale="   91.648">  2  5  1 -1</clus>
<clus scale="   34.890">  1  5  2 -1</clus>
</clustering>
</event>
<event>
 9    1  0.5981539E-005  0.9220793E+02  0.7546771E-02  0.1305343E+00
         21   -1    0    0  501  502  0.00000000000E+00  0.00000000000E+00  0.55055126417E+02  0.55055126417E+02  0.00000000000E+00 0.  1.
         -4   -1    0    0    0  501 -0.00000000000E+00 -0.00000000000E+00 -0.46464949679E+03  0.46464949679E+03  0.00000000000E+00 0.  1.
         23    2    1    2    0    0 -0.18035438552E+02  0.41634364336E+01 -0.34710428035E+03  0.35947441433E+03  0.91639848720E+02 0.  0.
        -24    2    1    2    0    0 -0.36187355513E+02 -0.18532192059E+02 -0.51960032245E+02  0.10315609345E+03  0.79299229655E+02 0.  0.
         11    1    4    4    0    0  0.20804888904E+02 -0.15369817309E+02  0.15043210309E+00  0.25866915475E+02  0.00000000000E+00 0. -1.
        -12    1    4    4    0    0 -0.56992244417E+02 -0.31623747498E+01 -0.52110464348E+02  0.77289177976E+02  0.00000000000E+00 0.  1.
        -13    1    3    3    0    0 -0.10272109160E+01  0.47162822209E+02 -0.16806006882E+03  0.17455535996E+03  0.00000000000E+00 0. -1.
         13    1    3    3    0    0 -0.17008227636E+02 -0.42999385775E+02 -0.17904421154E+03  0.18491905437E+03  0.00000000000E+00 0.  1.
         -3    1    1    2    0  502  0.54222794065E+02  0.14368755625E+02 -0.10530057774E+02  0.57074115421E+02  0.00000000000E+00 0.  1.
<scales pt_clust_5="13000.00000" pt_clust_6="13000.00000" pt_clust_7="13000.00000" pt_clust_8="13000.00000" pt_clust_9="56.09432"></scales>
<clustering>
<clus scale="   56.094">  1  9  2 -1</clus>
<clus scale="   79.299">  5  6 -1 -1</clus>
<clus scale="   79.955">  1  5  2 -1</clus>
<clus scale="   91.640">  7  8 -1 -1</clus>
<clus scale="   56.094">  1  5  2 -1</clus>
</clustering>
</event>
<event>
 9    1  0.5981539E-005  0.1142937E+03  0.7546771E-02  0.1260371E+00
         21   -1    0    0  501  502  0.00000000000E+00  0.00000000000E+00  0.13566973226E+03  0.13566973226E+03  0.00000000000E+00 0.  1.
         -2   -1    0    0    0  501 -0.00000000000E+00 -0.00000000000E+00 -0.53627311436E+03  0.53627311436E+03  0.00000000000E+00 0.  1.
        -24    2    1    2    0    0 -0.32943392635E+02 -0.45374994519E+02 -0.44965856880E+03  0.46039937168E+03  0.81428469843E+02 0.  0.
         23    2    1    2    0    0  0.97312420076E+01  0.53582179519E+02 -0.38799235108E+02  0.12030444132E+03  0.10001015410E+03 0.  0.
         13    1    3    3    0    0 -0.39109913669E+02 -0.17971542165E+02 -0.91248080809E+02  0.10088990993E+03  0.00000000000E+00 0. -1.
        -14    1    3    3    0    0  0.61665210343E+01 -0.27403452354E+02 -0.35841048799E+03  0.35950946175E+03  0.00000000000E+00 0.  1.
        -13    1    4    4    0    0  0.18235954931E+02 -0.26792933130E+02 -0.54240502927E+01  0.32860791828E+02  0.00000000000E+00 0.  1.
         13    1    4    4    0    0 -0.85047129231E+01  0.80375112649E+02 -0.33375184816E+02  0.87443649494E+02  0.00000000000E+00 0. -1.
         -1    1    1    2    0  502  0.23212150627E+02 -0.82071850003E+01  0.87854421812E+02  0.91239033611E+02  0.00000000000E+00 0.  1.
<scales pt_clust_5="13000.00000" pt_clust_6="13000.00000" pt_clust_7="13000.00000" pt_clust_8="13000.00000" pt_clust_9="24.62035"></scales>
<clustering>
<clus scale="   24.620">  1  9  2 -1</clus>
<clus scale="   81.428">  5  6 -1 -1</clus>
<clus scale="   98.446">  2  5  1 -1</clus>
<clus scale="  100.010">  7  8 -1 -1</clus>
<clus scale="   24.620">  1  5  2 -1</clus>
</clustering>
</event>
<event>
 9    1  0.5981539E-005  0.1727274E+03  0.7546771E-02  0.1176269E+00
         -2   -1    0    0    0  501 -0.00000000000E+00  0.00000000000E+00  0.13790579178E+03  0.13790579178E+03  0.00000000000E+00 0.  1.
         21   -1    0    0  501  502  0.00000000000E+00 -0.00000000000E+00 -0.31038610289E+03  0.31038610289E+03  0.00000000000E+00 0. -1.
         23    2    1    2    0    0  0.13487309539E+03  0.93796622117E+02 -0.72420181087E+02  0.20105060795E+03  0.90488154733E+02 0.  0.
        -24    2    1    2    0    0 -0.10299285754E+03 -0.73431441736E+02 -0.13026921039E+03  0.19882973155E+03  0.81015366654E+02 0.  0.
         13    1    4    4    0    0 -0.25017333613E+02  0.17201590658E+02 -0.31500674430E+02  0.43749905050E+02  0.00000000000E+00 0. -1.
        -14    1    4    4    0    0 -0.77975523923E+02 -0.90633032394E+02 -0.98768535958E+02  0.15507982650E+03  0.00000000000E+00 0.  1.
        -13    1    3    3    0    0  0.13780154300E+02  0.44239330268E+02  0.86399605933E+01  0.47134487524E+02  0.00000000000E+00 0.  1.
         13    1    3    3    0    0  0.12109294109E+03  0.49557291849E+02 -0.81060141681E+02  0.15391612042E+03  0.00000000000E+00 0. -1.
         -1    1    1    2    0  502 -0.31880237853E+02 -0.20365180381E+02  0.30209080370E+02  0.48411555174E+02  0.00000000000E+00 0.  1.
<scales pt_clust_5="13000.00000" pt_clust_6="13000.00000" pt_clust_7="13000.00000" pt_clust_8="13000.00000" pt_clust_9="37.82977"></scales>
<clustering>
<clus scale="   37.830">  2  9  1 -1</clus>
<clus scale="   81.015">  5  6 -1 -1</clus>
<clus scale="   90.488">  7  8 -1 -1</clus>
<clus scale="  167.959">  2  5  1 -1</clus>
<clus scale="   37.830">  2  5  1 -1</clus>
</clustering>
</event>
<event>
 9    1  0.5981539E-005  0.2269159E+03  0.7546771E-02  0.1128830E+00
          3   -1    0    0  502    0 -0.00000000000E+00  0.00000000000E+00  0.17777028511E+03  0.17777028511E+03  0.00000000000E+00 0. -1.
         21   -1    0    0  501  502  0.00000000000E+00 -0.00000000000E+00 -0.19421978273E+03  0.19421978273E+03  0.00000000000E+00 0. -1.
        -24    2    1    2    0    0  0.44941953973E+02  0.70583826063E+02 -0.26056386204E+02  0.11820257537E+03  0.79316188970E+02 0.  0.
         23    2    1    2    0    0  0.29232632052E+02  0.53580666747E+02  0.19712098429E+02  0.10880195612E+03  0.87885517607E+02 0.  0.
         11    1    3    3    0    0 -0.19814944995E+02  0.19448041803E+02 -0.22288757131E+02  0.35604031647E+02  0.00000000000E+00 0. -1.
        -12    1    3    3    0    0  0.64756898967E+02  0.51135784260E+02 -0.37676290735E+01  0.82598543720E+02  0.00000000000E+00 0.  1.
        -11    1    4    4    0    0 -0.21235548836E+02 -0.31403393613E+00  0.27288233263E+02  0.34578820487E+02  0.00000000000E+00 0.  1.
         11    1    4    4    0    0  0.50468180889E+02  0.53894700683E+02 -0.75761348338E+01  0.74223135631E+02  0.00000000000E+00 0. -1.
          4    1    1    2  501    0 -0.74174586025E+02 -0.12416449281E+03 -0.10105209850E+02  0.14498553636E+03  0.00000000000E+00 0. -1.
<scales pt_clust_5="13000.00000" pt_clust_6="13000.00000" pt_clust_7="13000.00000" pt_clust_8="13000.00000" pt_clust_9="144.63295"></scales>
<clustering>
<clus scale="   79.316">  5  6 -1 -1</clus>
<clus scale="   87.886">  7  8 -1 -1</clus>
<clus scale="   96.504">  5  7 -1 -1</clus>
<clus scale="  144.633">  2  9  1 -1</clus>
<clus scale="  144.633">  2  5  1 -1</clus>
</clustering>
</event>
<event>
 9    1  0.5981539E-005  0.1240971E+03  0.7546771E-02  0.1240211E+00
         21   -1    0    0  501  502  0.00000000000E+00  0.00000000000E+00  0.27713308380E+03  0.27713308380E+03  0.00000000000E+00 0.  1.
          1   -1    0    0  502    0 -0.00000000000E+00 -0.00000000000E+00 -0.14322190884E+03  0.14322190884E+03  0.00000000000E+00 0. -1.
        -24    2    1    2    0    0 -0.92786714023E+02 -0.68386600581E+01 -0.79288562311E+02  0.14583564981E+03  0.79531245886E+02 0.  0.
         23    2    1    2    0    0  0.42241718676E+02 -0.34310855278E+02  0.12003090543E+03  0.16081573517E+03  0.92155763975E+02 0.  0.
         13    1    3    3    0    0 -0.98671519846E+02  0.38053903389E+01 -0.86858090427E+02  0.13150999086E+03  0.00000000000E+00 0. -1.
        -14    1    3    3    0    0  0.58848058229E+01 -0.10644050397E+02  0.75695281153E+01  0.14325658949E+02  0.00000000000E+00 0.  1.
        -11    1    4    4    0    0  0.54476552587E+02  0.48350333351E+01  0.10257101364E+03  0.11624063475E+03  0.00000000000E+00 0.  1.
         11    1    4    4    0    0 -0.12234833911E+02 -0.39145888613E+02  0.17459891798E+02  0.44575100423E+02  0.00000000000E+00 0. -1.
          2    1    1    2  501    0  0.50544995347E+02  0.41149515336E+02  0.93168831843E+02  0.11370360766E+03  0.00000000000E+00 0. -1.
<scales pt_clust_5="13000.00000" pt_clust_6="13000.00000" pt_clust_7="13000.00000" pt_clust_8="13000.00000" pt_clust_9="65.17729"></scales>
<clustering>
<clus scale="   65.177">  1  9  2 -1</clus>
<clus scale="   79.531">  5  6 -1 -1</clus>
<clus scale="   92.156">  7  8 -1 -1</clus>
<clus scale="  115.033">  2  5  1 -1</clus>
<clus scale="   65.177">  1  5  2 -1</clus>
</clustering>
</event>
<event>
 9    1  0.5981539E-005  0.1502873E+03  0.7546771E-02  0.1213092E+00
         21   -1    0    0  501  502  0.00000000000E+00  0.00000000000E+00  0.54623518024E+02  0.54623518024E+02  0.00000000000E+00 0. -1.
          1   -1    0    0  502    0 -0.00000000000E+00 -0.00000000000E+00 -0.13049119793E+04  0.13049119793E+04  0.00000000000E+00 0. -1.
         23    2    1    2    0    0 -0.46899814148E+02  0.49762545201E+02 -0.36611254402E+03  0.38337512879E+03  0.90896595164E+02 0.  0.
        -24    2    1    2    0    0 -0.10820090267E+03 -0.58420615541E+02 -0.10392106527E+03  0.18059212597E+03  0.81813962713E+02 0.  0.
         13    1    4    4    0    0 -0.10240191928E+03 -0.72829849662E+02 -0.10665622244E+03  0.16482078103E+03  0.00000000000E+00 0. -1.
        -14    1    4    4    0    0 -0.57989833901E+01  0.14409234121E+02  0.27351571703E+01  0.15771344935E+02  0.00000000000E+00 0.  1.
        -13    1    3    3    0    0  0.33385885472E+01 -0.22078156810E+02 -0.12135046325E+03  0.12338770649E+03  0.00000000000E+00 0. -1.
         13    1    3    3    0    0 -0.50238402695E+02  0.71840702012E+02 -0.24476208078E+03  0.25998742230E+03  0.00000000000E+00 0.  1.
          2    1    1    2  501    0  0.15510071682E+03  0.86580703401E+01 -0.78025485195E+03  0.79556824254E+03  0.00000000000E+00 0. -1.
<scales pt_clust_5="13000.00000" pt_clust_6="13000.00000" pt_clust_7="13000.00000" pt_clust_8="13000.00000" pt_clust_9="126.06645"></scales>
<clustering>
<clus scale="   81.814">  5  6 -1 -1</clus>
<clus scale="   90.897">  7  8 -1 -1</clus>
<clus scale="  113.746">  2  7  1 -1</clus>
<clus scale="  126.066">  1  9  2 -1</clus>
<clus scale="  126.066">  1  5  2 -1</clus>
</clustering>
</event>
<event>
 9    1  0.5981539E-005  0.1846889E+03  0.7546771E-02  0.1164448E+00
         21   -1    0    0  501  502  0.00000000000E+00  0.00000000000E+00  0.27055951672E+03  0.27055951672E+03  0.00000000000E+00 0. -1.
          1   -1    0    0  502    0 -0.00000000000E+00 -0.00000000000E+00 -0.37529280370E+03  0.37529280370E+03  0.00000000000E+00 0. -1.
        -24    2    1    2    0    0 -0.13859727767E+03  0.10208962390E+03 -0.22169306499E+03  0.29225283520E+03  0.81439596813E+02 0.  0.
         23    2    1    2    0    0  0.11281528598E+03 -0.26384742613E+00  0.17990456290E+03  0.23114440858E+03  0.91294728754E+02 0.  0.
         13    1    3    3    0    0 -0.14621591236E+03  0.97152746639E+02 -0.22217726043E+03  0.28316158684E+03  0.00000000000E+00 0. -1.
        -14    1    3    3    0    0  0.76186346861E+01  0.49368772628E+01  0.48419543770E+00  0.90912483637E+01  0.00000000000E+00 0.  1.
        -13    1    4    4    0    0  0.29661236637E+02  0.33601971073E+02  0.23025672828E+02  0.50389116166E+02  0.00000000000E+00 0.  1.
         13    1    4    4    0    0  0.83154049348E+02 -0.33865818499E+02  0.15687889007E+03  0.18075529241E+03  0.00000000000E+00 0. -1.
          2    1    1    2  501    0  0.25781991690E+02 -0.10182577648E+03 -0.62944784886E+02  0.12245507664E+03  0.00000000000E+00 0. -1.
<scales pt_clust_5="13000.00000" pt_clust_6="13000.00000" pt_clust_7="13000.00000" pt_clust_8="13000.00000" pt_clust_9="105.03909"></scales>
<clustering>
<clus scale="   81.440">  5  6 -1 -1</clus>
<clus scale="   91.295">  7  8 -1 -1</clus>
<clus scale="  105.039">  1  9  2 -1</clus>
<clus scale="  180.021">  2  5  1 -1</clus>
<clus scale="  105.039">  1  5  2 -1</clus>
</clustering>
</event>
<event>
 9    1  0.5981539E-005  0.1116435E+03  0.7546771E-02  0.1260720E+00
          1   -1    0    0  502    0 -0.00000000000E+00  0.00000000000E+00  0.49990348785E+03  0.49990348785E+03  0.00000000000E+00 0. -1.
         21   -1    0    0  501  502  0.00000000000E+00 -0.00000000000E+00 -0.59399548821E+02  0.59399548821E+02  0.00000000000E+00 0. -1.
         23    2    1    2    0    0  0.46931003725E+02 -0.29913596979E+02  0.39693478423E+03  0.41289373667E+03  0.99129574073E+02 0.  0.
        -24    2    1    2    0    0 -0.32536962300E+02 -0.10028691525E+01  0.84538073391E+01  0.97459285353E+02  0.91472322485E+02 0.  0.
         11    1    4    4    0    0 -0.39051593747E+02 -0.40948709828E+02  0.36619991283E+01  0.56703033855E+02  0.00000000000E+00 0. -1.
        -12    1    4    4    0    0  0.65146314475E+01  0.39945840676E+02  0.47918082108E+01  0.40756251497E+02  0.00000000000E+00 0.  1.
        -11    1    3    3    0    0  0.42058926601E+02 -0.64092167674E+02  0.31039833259E+03  0.31972470054E+03  0.00000000000E+00 0. -1.
         11    1    3    3    0    0  0.48720771237E+01  0.34178570695E+02  0.86536451641E+02  0.93169036127E+02  0.00000000000E+00 0.  1.
          2    1    1    2  501    0 -0.14394041425E+02  0.30916466132E+02  0.35115347458E+02  0.48950014645E+02  0.00000000000E+00 0. -1.
<scales pt_clust_5="13000.00000" pt_clust_6="13000.00000" pt_clust_7="13000.00000" pt_clust_8="13000.00000" pt_clust_9="34.10302"></scales>
<clustering>
<clus scale="   34.103">  2  9  1 -1</clus>
<clus scale="   91.472">  5  6 -1 -1</clus>
<clus scale="   99.130">  7  8 -1 -1</clus>
<clus scale="  104.904">  2  5  1 -1</clus>
<clus scale="   34.103">  2  5  1 -1</clus>
</clustering>
</event>
<event>
 9    1  0.5981539E-005  0.8636057E+02  0.7546771E-02  0.1316313E+00
         -4   -1    0    0    0  501 -0.00000000000E+00  0.00000000000E+00  0.20302235207E+03  0.20302235207E+03  0.00000000000E+00 0.  1.
         21   -1    0    0  501  502  0.00000000000E+00 -0.00000000000E+00 -0.42748105319E+03  0.42748105319E+03  0.00000000000E+00 0.  1.
         23    2    1    2    0    0 -0.73331454630E+01  0.55608167563E+01  0.18500649126E+03  0.20413459279E+03  0.85783637489E+02 0.  0.
        -24    2    1    2    0    0  0.19564043121E+02 -0.33290249509E+02 -0.32074256660E+03  0.33261263602E+03  0.79147830743E+02 0.  0.
         13    1    4    4    0    0 -0.27561084940E+02 -0.25351985119E+02 -0.10062802959E+03  0.10737009309E+03  0.00000000000E+00 0. -1.
        -14    1    4    4    0    0  0.47125128061E+02 -0.79382643903E+01 -0.22011453702E+03  0.22524254292E+03  0.00000000000E+00 0.  1.
        -11    1    3    3    0    0 -0.56089276560E+01 -0.34957481487E+02  0.13595369139E+03  0.14048804854E+03  0.00000000000E+00 0. -1.
         11    1    3    3    0    0 -0.17242178070E+01  0.40518298243E+02  0.49052799869E+02  0.63646544247E+02  0.00000000000E+00 0.  1.
         -3    1    1    2    0  502 -0.12230897658E+02  0.27729432753E+02 -0.88722625773E+02  0.93756176449E+02  0.00000000000E+00 0.  1.
<scales pt_clust_5="13000.00000" pt_clust_6="13000.00000" pt_clust_7="13000.00000" pt_clust_8="13000.00000" pt_clust_9="30.30703"></scales>
<clustering>
<clus scale="   30.307">  2  9  1 -1</clus>
<clus scale="   79.148">  5  6 -1 -1</clus>
<clus scale="   79.773">  2  5  1 -1</clus>
<clus scale="   85.784">  7  8 -1 -1</clus>
<clus scale="   30.307">  2  5  1 -1</clus>
</clustering>
</event>
<event>
 9    1  0.5981539E-005  0.1052539E+03  0.7546771E-02  0.1276488E+00
         21   -1    0    0  501  502  0.00000000000E+00  0.00000000000E+00  0.53302432900E+02  0.53302432900E+02  0.00000000000E+00 0.  1.
          3   -1    0    0  502    0 -0.00000000000E+00 -0.00000000000E+00 -0.39589441680E+03  0.39589441680E+03  0.00000000000E+00 0. -1.
         23    2    1    2    0    0 -0.55185315648E+01 -0.48932409396E+02 -0.30423217052E+03  0.32306095858E+03  0.96883097085E+02 0.  0.
        -24    2    1    2    0    0  0.11815990082E+02  0.14979188248E+02 -0.34176229119E+02  0.91351101525E+02  0.82540992306E+02 0.  0.
         13    1    4    4    0    0  0.41584534560E+02  0.12574750854E+02 -0.42053744735E+02  0.60464165584E+02  0.00000000000E+00 0. -1.
        -14    1    4    4    0    0 -0.29768544478E+02  0.24044373949E+01  0.78775156158E+01  0.30886935940E+02  0.00000000000E+00 0.  1.
        -13    1    3    3    0    0 -0.46133136574E+02 -0.22757896715E+02 -0.22018981572E+03  0.22611886940E+03  0.00000000000E+00 0.  1.
         13    1    3    3    0    0  0.40614605009E+02 -0.26174512681E+02 -0.84042354797E+02  0.96942089177E+02  0.00000000000E+00 0. -1.
          4    1    1    2  501    0 -0.62974585171E+01  0.33953221148E+02 -0.41835842661E+01  0.34784789598E+02  0.00000000000E+00 0. -1.
<scales pt_clust_5="13000.00000" pt_clust_6="13000.00000" pt_clust_7="13000.00000" pt_clust_8="13000.00000" pt_clust_9="34.53229"></scales>
<clustering>
<clus scale="   34.532">  1  9  2 -1</clus>
<clus scale="   82.541">  5  6 -1 -1</clus>
<clus scale="   92.223">  1  5  2 -1</clus>
<clus scale="   96.883">  7  8 -1 -1</clus>
<clus scale="   34.532">  1  5  2 -1</clus>
</clustering>
</event>
<event>
 9    1  0.5981539E-005  0.1021179E+03  0.7546771E-02  0.1281549E+00
         21   -1    0    0  501  502  0.00000000000E+00  0.00000000000E+00  0.11686432653E+03  0.11686432653E+03  0.00000000000E+00 0.  1.
         -2   -1    0    0    0  501 -0.00000000000E+00 -0.00000000000E+00 -0.39978075367E+03  0.39978075367E+03  0.00000000000E+00 0.  1.
        -24    2    1    2    0    0 -0.12534397360E+02  0.40079341266E+02 -0.30280072871E+03  0.31591558214E+03  0.79692590739E+02 0.  0.
         23    2    1    2    0    0  0.27023645449E+02 -0.57786355023E+02 -0.53613581142E+02  0.12375277815E+03  0.91492042156E+02 0.  0.
         11    1    3    3    0    0 -0.18677124306E+02  0.58080425550E+02 -0.14995475825E+03  0.16189070488E+03  0.00000000000E+00 0. -1.
        -12    1    3    3    0    0  0.61427269465E+01 -0.18001084284E+02 -0.15284597046E+03  0.15402487726E+03  0.00000000000E+00 0.  1.
        -11    1    4    4    0    0 -0.33127823282E+02 -0.11336940112E+02 -0.22574149692E+02  0.41660186279E+02  0.00000000000E+00 0.  1.
         11    1    4    4    0    0  0.60151468731E+02 -0.46449414911E+02 -0.31039431450E+02  0.82092591876E+02  0.00000000000E+00 0. -1.
         -1    1    1    2    0  502 -0.14489248090E+02  0.17707013757E+02  0.73497882700E+02  0.76976719908E+02  0.00000000000E+00 0.  1.
<scales pt_clust_5="13000.00000" pt_clust_6="13000.00000" pt_clust_7="13000.00000" pt_clust_8="13000.00000" pt_clust_9="22.87961"></scales>
<clustering>
<clus scale="   22.880">  1  9  2 -1</clus>
<clus scale="   79.693">  5  6 -1 -1</clus>
<clus scale="   91.492">  7  8 -1 -1</clus>
<clus scale="   91.696">  2  5  1 -1</clus>
<clus scale="   22.880">  1  5  2 -1</clus>
</clustering>
</event>
<event>
 9    1  0.5981539E-005  0.1025382E+03  0.7546771E-02  0.1280113E+00
          1   -1    0    0  502    0 -0.00000000000E+00  0.00000000000E+00  0.55863071843E+03  0.55863071843E+03  0.00000000000E+00 0. -1.
         21   -1    0    0  501  502  0.00000000000E+00 -0.00000000000E+00 -0.26114054399E+02  0.26114054399E+02  0.00000000000E+00 0. -1.
        -24    2    1    2    0    0  0.34580185520E+02  0.40482967628E+02  0.30785381924E+03  0.32279961637E+03  0.81184717839E+02 0.  0.
         23    2    1    2    0    0 -0.24550422025E+02 -0.15580480082E+02  0.12005739655E+03  0.15394964802E+03  0.91876226941E+02 0.  0.
         13    1    3    3    0    0  0.35264736883E+02  0.59054614383E+02  0.16529960584E+03  0.17903912656E+03  0.00000000000E+00 0. -1.
        -14    1    3    3    0    0 -0.68455136350E+00 -0.18571646755E+02  0.14255421340E+03  0.14376048981E+03  0.00000000000E+00 0.  1.
        -13    1    4    4    0    0 -0.19273311784E+01  0.37613166622E+02  0.57865836951E+02  0.69042885186E+02  0.00000000000E+00 0.  1.
         13    1    4    4    0    0 -0.22623090846E+02 -0.53193646703E+02  0.62191559601E+02  0.84906762833E+02  0.00000000000E+00 0. -1.
          2    1    1    2  501    0 -0.10029763495E+02 -0.24902487546E+02  0.10460544824E+03  0.10799550844E+03  0.00000000000E+00 0. -1.
<scales pt_clust_5="13000.00000" pt_clust_6="13000.00000" pt_clust_7="13000.00000" pt_clust_8="13000.00000" pt_clust_9="26.84643"></scales>
<clustering>
<clus scale="   26.846">  2  9  1 -1</clus>
<clus scale="   81.185">  5  6 -1 -1</clus>
<clus scale="   91.876">  7  8 -1 -1</clus>
<clus scale="   93.080">  1  5  2 -1</clus>
<clus scale="   26.846">  2  5  1 -1</clus>
</clustering>
</event>
<event>
 9    1  0.5981539E-005  0.1040325E+03  0.7546771E-02  0.1278311E+00
         21   -1    0    0  501  502  0.00000000000E+00  0.00000000000E+00  0.40252771797E+03  0.40252771797E+03  0.00000000000E+00 0.  1.
          3   -1    0    0  502    0 -0.00000000000E+00 -0.00000000000E+00 -0.13141354838E+03  0.13141354838E+03  0.00000000000E+00 0. -1.
         23    2    1    2    0    0  0.41882175453E+02 -0.24035811698E+02 -0.95581391825E+02  0.14225179550E+03  0.93637246836E+02 0.  0.
        -24    2    1    2    0    0 -0.29824252787E+02 -0.23156158713E+02  0.22639163349E+03  0.24317123035E+03  0.80332943526E+02 0.  0.
         11    1    4    4    0    0 -0.21966271964E+02  0.28759097918E+02  0.97118445707E+02  0.10364166784E+03  0.00000000000E+00 0. -1.
        -12    1    4    4    0    0 -0.78579808228E+01 -0.51915256631E+02  0.12927318778E+03  0.13952956251E+03  0.00000000000E+00 0.  1.
        -13    1    3    3    0    0  0.37198602717E+01 -0.34165111784E+02 -0.96830387337E+02  0.10274831451E+03  0.00000000000E+00 0. -1.
         13    1    3    3    0    0  0.38162315181E+02  0.10129300086E+02  0.12489955119E+01  0.39503480986E+02  0.00000000000E+00 0.  1.
          4    1    1    2  501    0 -0.12057922665E+02  0.47191970410E+02  0.14030392793E+03  0.14851824050E+03  0.00000000000E+00 0. -1.
<scales pt_clust_5="13000.00000" pt_clust_6="13000.00000" pt_clust_7="13000.00000" pt_clust_8="13000.00000" pt_clust_9="48.70806"></scales>
<clustering>
<clus scale="   48.708">  1  9  2 -1</clus>
<clus scale="   80.333">  5  6 -1 -1</clus>
<clus scale="   92.240">  1  5  2 -1</clus>
<clus scale="   93.637">  7  8 -1 -1</clus>
<clus scale="   48.708">  1  5  2 -1</clus>
</clustering>
</event>
<event>
 9    1  0.5981539E-005  0.1725482E+03  0.7546771E-02  0.1175996E+00
         21   -1    0    0  501  502  0.00000000000E+00  0.00000000000E+00  0.10056578099E+03  0.10056578099E+03  0.00000000000E+00 0.  1.
         -2   -1    0    0    0  501 -0.00000000000E+00 -0.00000000000E+00 -0.11945812836E+04  0.11945812836E+04  0.00000000000E+00 0.  1.
        -24    2    1    2    0    0 -0.83596684122E+02 -0.98680911773E+02 -0.62939648374E+03  0.64755866804E+03  0.80411235979E+02 0.  0.
         23    2    1    2    0    0  0.16201595458E+03  0.12121570191E+03 -0.50911413727E+03  0.55465178213E+03  0.86596643832E+02 0.  0.
         11    1    3    3    0    0 -0.21464090966E+02  0.81645190928E+00 -0.30635596804E+02  0.37415419098E+02  0.00000000000E+00 0. -1.
        -12    1    3    3    0    0 -0.62132593156E+02 -0.99497363683E+02 -0.59876088693E+03  0.61014324895E+03  0.00000000000E+00 0.  1.
        -11    1    4    4    0    0  0.14185844450E+03  0.12987176272E+03 -0.40628489188E+03  0.44950851649E+03  0.00000000000E+00 0.  1.
         11    1    4    4    0    0  0.20157510078E+02 -0.86560608132E+01 -0.10282924538E+03  0.10514326563E+03  0.00000000000E+00 0. -1.
         -1    1    1    2    0  502 -0.78419270457E+02 -0.22534790138E+02  0.44495118373E+02  0.92936614446E+02  0.00000000000E+00 0.  1.
<scales pt_clust_5="13000.00000" pt_clust_6="13000.00000" pt_clust_7="13000.00000" pt_clust_8="13000.00000" pt_clust_9="81.59288"></scales>
<clustering>
<clus scale="   80.411">  5  6 -1 -1</clus>
<clus scale="   81.593">  1  9  2 -1</clus>
<clus scale="   86.597">  7  8 -1 -1</clus>
<clus scale="  169.528">  2  5  1 -1</clus>
<clus scale="   81.593">  1  5  2 -1</clus>
</clustering>
</event>
<event>
 9    1  0.5981539E-005  0.1565940E+03  0.7546771E-02  0.1215842E+00
          1   -1    0    0  502    0 -0.00000000000E+00  0.00000000000E+00  0.52131020667E+03  0.52131020667E+03  0.00000000000E+00 0. -1.
         21   -1    0    0  501  502  0.00000000000E+00 -0.00000000000E+00 -0.15062745852E+03  0.15062745852E+03  0.00000000000E+00 0.  1.
        -24    2    1    2    0    0 -0.16067873331E+02 -0.53699515689E+02  0.21067282803E+03  0.23104226297E+03  0.76522364509E+02 0.  0.
         23    2    1    2    0    0  0.13138621788E+03 -0.11033834980E+02 -0.72206789256E+02  0.17366268080E+03  0.86952990316E+02 0.  0.
         11    1    3    3    0    0  0.24562445489E+01 -0.48977246047E+02  0.20545510156E+03  0.21122642478E+03  0.00000000000E+00 0. -1.
        -12    1    3    3    0    0 -0.18524117880E+02 -0.47222696414E+01  0.52177264712E+01  0.19815838194E+02  0.00000000000E+00 0.  1.
        -11    1    4    4    0    0  0.58611293995E+02  0.16466805813E+02  0.86084477938E+01  0.61486135436E+02  0.00000000000E+00 0. -1.
         11    1    4    4    0    0  0.72774923890E+02 -0.27500640793E+02 -0.80815237050E+02  0.11217654537E+03  0.00000000000E+00 0.  1.
          2    1    1    2  501    0 -0.11531834455E+03  0.64733350669E+02  0.23221670938E+03  0.26723272142E+03  0.00000000000E+00 0. -1.
<scales pt_clust_5="13000.00000" pt_clust_6="13000.00000" pt_clust_7="13000.00000" pt_clust_8="13000.00000" pt_clust_9="130.23391"></scales>
<clustering>
<clus scale="   76.522">  5  6 -1 -1</clus>
<clus scale="   86.953">  7  8 -1 -1</clus>
<clus scale="   94.855">  1  5  2 -1</clus>
<clus scale="  130.234">  2  9  1 -1</clus>
<clus scale="  130.234">  2  5  1 -1</clus>
</clustering>
</event>
<event>
 9    1  0.5981539E-005  0.1046983E+03  0.7546771E-02  0.1281563E+00
         21   -1    0    0  501  502  0.00000000000E+00  0.00000000000E+00  0.21227513546E+03  0.21227513546E+03  0.00000000000E+00 0. -1.
         -2   -1    0    0    0  501 -0.00000000000E+00 -0.00000000000E+00 -0.13116839048E+03  0.13116839048E+03  0.00000000000E+00 0.  1.
        -24    2    1    2    0    0 -0.20669348925E+02  0.12958466028E+02 -0.58141649525E+02  0.10151031387E+03  0.79553432268E+02 0.  0.
         23    2    1    2    0    0  0.41441096959E+02 -0.20349085950E+02  0.10031484524E+02  0.11084890103E+03  0.10027660924E+03 0.  0.
         13    1    3    3    0    0  0.11880940648E+02  0.39318534043E+02 -0.24854735079E+02  0.48008975471E+02  0.00000000000E+00 0. -1.
        -14    1    3    3    0    0 -0.32550289573E+02 -0.26360068015E+02 -0.33286914445E+02  0.53501338398E+02  0.00000000000E+00 0.  1.
        -11    1    4    4    0    0  0.36786846231E+02  0.19156686390E+02 -0.32441748779E+02  0.52656602177E+02  0.00000000000E+00 0.  1.
         11    1    4    4    0    0  0.46542507282E+01 -0.39505772339E+02  0.42473233303E+02  0.58192298848E+02  0.00000000000E+00 0. -1.
         -1    1    1    2    0  502 -0.20771748034E+02  0.73906199218E+01  0.12921690997E+03  0.13108431105E+03  0.00000000000E+00 0.  1.
<scales pt_clust_5="13000.00000" pt_clust_6="13000.00000" pt_clust_7="13000.00000" pt_clust_8="13000.00000" pt_clust_9="22.04738"></scales>
<clustering>
<clus scale="   22.047">  1  9  2 -1</clus>
<clus scale="   79.553">  5  6 -1 -1</clus>
<clus scale="   85.059">  2  5  1 -1</clus>
<clus scale="  100.277">  7  8 -1 -1</clus>
<clus scale="   22.047">  1  5  2 -1</clus>
</clustering>
</event>
<event>
 9    1  0.5981539E-005  0.1044812E+03  0.7546771E-02  0.1278177E+00
         21   -1    0    0  501  502  0.00000000000E+00  0.00000000000E+00  0.29996293334E+03  0.29996293334E+03  0.00000000000E+00 0. -1.
          3   -1    0    0  502    0 -0.00000000000E+00 -0.00000000000E+00 -0.84457130107E+02  0.84457130107E+02  0.00000000000E+00 0. -1.
        -24    2    1    2    0    0  0.38959778896E+02 -0.16765493417E+02 -0.30818345886E+02  0.94686160752E+02  0.78846385165E+02 0.  0.
         23    2    1    2    0    0 -0.62993996184E+02  0.14854935981E+02  0.13906340903E+03  0.17979682890E+03  0.93804878728E+02 0.  0.
         13    1    3    3    0    0 -0.58140238016E+01 -0.36217578708E+02 -0.27333165851E+02  0.45745140022E+02  0.00000000000E+00 0. -1.
        -14    1    3    3    0    0  0.44773802698E+02  0.19452085291E+02 -0.34851800350E+01  0.48941020730E+02  0.00000000000E+00 0.  1.
        -11    1    4    4    0    0 -0.23986898624E+02  0.14456598553E+02  0.13795797210E+03  0.14077203776E+03  0.00000000000E+00 0.  1.
         11    1    4    4    0    0 -0.39007097560E+02  0.39833742793E+00  0.11054369239E+01  0.39024791141E+02  0.00000000000E+00 0. -1.
          4    1    1    2  501    0  0.24034217288E+02  0.19105574365E+01  0.10726074009E+03  0.10993707380E+03  0.00000000000E+00 0. -1.
<scales pt_clust_5="13000.00000" pt_clust_6="13000.00000" pt_clust_7="13000.00000" pt_clust_8="13000.00000" pt_clust_9="24.11004"></scales>
<clustering>
<clus scale="   24.110">  1  9  2 -1</clus>
<clus scale="   78.846">  5  6 -1 -1</clus>
<clus scale="   91.289">  2  5  1 -1</clus>
<clus scale="   93.805">  7  8 -1 -1</clus>
<clus scale="   24.110">  1  5  2 -1</clus>
</clustering>
</event>
<event>
 9    1  0.5981539E-005  0.2859812E+03  0.7546771E-02  0.1092953E+00
         21   -1    0    0  501  502  0.00000000000E+00  0.00000000000E+00  0.69240330988E+02  0.69240330988E+02  0.00000000000E+00 0.  1.
         -2   -1    0    0    0  501 -0.00000000000E+00 -0.00000000000E+00 -0.14030739739E+04  0.14030739739E+04  0.00000000000E+00 0.  1.
        -24    2    1    2    0    0  0.26308000691E+03 -0.37024917061E+01 -0.69469441982E+03  0.74721707820E+03  0.80673580221E+02 0.  0.
         23    2    1    2    0    0 -0.28135857004E+03  0.30651884666E+02 -0.49792232615E+03  0.58017453132E+03  0.92594065400E+02 0.  0.
         13    1    3    3    0    0  0.70644592649E+02 -0.17069369747E+02 -0.28899054519E+03  0.29798918951E+03  0.00000000000E+00 0. -1.
        -14    1    3    3    0    0  0.19243541426E+03  0.13366878041E+02 -0.40570387463E+03  0.44922788869E+03  0.00000000000E+00 0.  1.
        -13    1    4    4    0    0 -0.14250603982E+02  0.27138409640E+02 -0.51789968270E+02  0.60181174839E+02  0.00000000000E+00 0. -1.
         13    1    4    4    0    0 -0.26710796605E+03  0.35134750258E+01 -0.44613235788E+03  0.51999335648E+03  0.00000000000E+00 0.  1.
         -1    1    1    2    0  502  0.18278563129E+02 -0.26949392960E+02 -0.14121689696E+03  0.14492269538E+03  0.00000000000E+00 0.  1.
<scales pt_clust_5="13000.00000" pt_clust_6="13000.00000" pt_clust_7="13000.00000" pt_clust_8="13000.00000" pt_clust_9="32.56343"></scales>
<clustering>
<clus scale="   32.563">  1  9  2 -1</clus>
<clus scale="   80.674">  5  6 -1 -1</clus>
<clus scale="   92.594">  7  8 -1 -1</clus>
<clus scale="  282.347">  2  5  1 -1</clus>
<clus scale="   32.563">  1  5  2 -1</clus>
</clustering>
</event>
<event>
 9    1  0.5981539E-005  0.1668031E+03  0.7546771E-02  0.1182559E+00
         21   -1    0    0  501  502  0.00000000000E+00  0.00000000000E+00  0.29112353230E+02  0.29112353230E+02  0.00000000000E+00 0. -1.
          1   -1    0    0  502    0 -0.00000000000E+00 -0.00000000000E+00 -0.17992166723E+04  0.17992166723E+04  0.00000000000E+00 0. -1.
        -24    2    1    2    0    0 -0.16160092339E+03 -0.91348580868E+02 -0.96958296435E+03  0.99044944334E+03  0.80246827960E+02 0.  0.
         23    2    1    2    0    0  0.61349759972E+02  0.57623741163E+02 -0.26719746132E+03  0.29416822875E+03  0.89756196879E+02 0.  0.
         13    1    3    3    0    0 -0.16967700018E+03 -0.81405861267E+02 -0.87549642691E+03  0.89549494257E+03  0.00000000000E+00 0. -1.
        -14    1    3    3    0    0  0.80760767970E+01 -0.99427196010E+01 -0.94086537441E+02  0.94954500774E+02  0.00000000000E+00 0.  1.
        -13    1    4    4    0    0  0.51712733102E+02  0.14047949149E+02 -0.52994713175E+02  0.75365716773E+02  0.00000000000E+00 0.  1.
         13    1    4    4    0    0  0.96370268695E+01  0.43575792014E+02 -0.21420274814E+03  0.21880251198E+03  0.00000000000E+00 0. -1.
          2    1    1    2  501    0  0.10025116341E+03  0.33724839705E+02 -0.53332389342E+03  0.54371135345E+03  0.00000000000E+00 0. -1.
<scales pt_clust_5="13000.00000" pt_clust_6="13000.00000" pt_clust_7="13000.00000" pt_clust_8="13000.00000" pt_clust_9="105.77179"></scales>
<clustering>
<clus scale="   80.247">  5  6 -1 -1</clus>
<clus scale="   89.756">  7  8 -1 -1</clus>
<clus scale="  105.772">  1  9  2 -1</clus>
<clus scale="  161.885">  2  5  1 -1</clus>
<clus scale="  105.772">  1  5  2 -1</clus>
</clustering>
</event>
<event>
 9    1  0.5981539E-005  0.1083399E+03  0.7546771E-02  0.1268650E+00
         -2   -1    0    0    0  501 -0.00000000000E+00  0.00000000000E+00  0.67900959256E+03  0.67900959256E+03  0.00000000000E+00 0.  1.
         21   -1    0    0  501  502  0.00000000000E+00 -0.00000000000E+00 -0.52770562272E+02  0.52770562272E+02  0.00000000000E+00 0. -1.
         23    2    1    2    0    0  0.47719966725E+02  0.31142806508E+02  0.22393374552E+03  0.24851910381E+03  0.91478702194E+02 0.  0.
        -24    2    1    2    0    0 -0.63356014580E+01 -0.84356189299E+02  0.53059204506E+02  0.12756855128E+03  0.79387338870E+02 0.  0.
         11    1    4    4    0    0  0.14175209441E+02 -0.60483501158E+02 -0.41630299489E+01  0.62261716114E+02  0.00000000000E+00 0. -1.
        -12    1    4    4    0    0 -0.20510810899E+02 -0.23872688140E+02  0.57222234455E+02  0.65306835162E+02  0.00000000000E+00 0.  1.
        -13    1    3    3    0    0 -0.27251066367E+02  0.23158438761E+01  0.61725867202E+02  0.67513453717E+02  0.00000000000E+00 0. -1.
         13    1    3    3    0    0  0.74971033092E+02  0.28826962632E+02  0.16220787832E+03  0.18100565010E+03  0.00000000000E+00 0.  1.
         -1    1    1    2    0  502 -0.41384365267E+02  0.53213382791E+02  0.34924608026E+03  0.35569249974E+03  0.00000000000E+00 0.  1.
<scales pt_clust_5="13000.00000" pt_clust_6="13000.00000" pt_clust_7="13000.00000" pt_clust_8="13000.00000" pt_clust_9="67.41168"></scales>
<clustering>
<clus scale="   67.412">  2  9  1 -1</clus>
<clus scale="   79.387">  5  6 -1 -1</clus>
<clus scale="   91.479">  7  8 -1 -1</clus>
<clus scale="   98.344">  2  5  1 -1</clus>
<clus scale="   67.412">  2  5  1 -1</clus>
</clustering>
</event>
<event>
 9    1  0.5981539E-005  0.3161909E+03  0.7546771E-02  0.1077695E+00
          1   -1    0    0  502    0 -0.00000000000E+00  0.00000000000E+00  0.46823867398E+03  0.46823867398E+03  0.00000000000E+00 0. -1.
         21   -1    0    0  501  502  0.00000000000E+00 -0.00000000000E+00 -0.37545798901E+03  0.37545798901E+03  0.00000000000E+00 0. -1.
        -24    2    1    2    0    0 -0.30172956170E+03 -0.74193849558E+02  0.27081283939E+03  0.42009393536E+03  0.81202615932E+02 0.  0.
         23    2    1    2    0    0  0.26604081858E+03  0.62235680980E+02 -0.22371899755E+03  0.36440837134E+03  0.89957068131E+02 0.  0.
         11    1    3    3    0    0 -0.26015568569E+03 -0.65908536466E+02  0.26525530362E+03  0.37733975682E+03  0.00000000000E+00 0. -1.
        -12    1    3    3    0    0 -0.41573876003E+02 -0.82853130914E+01  0.55575357713E+01  0.42754178542E+02  0.00000000000E+00 0.  1.
        -13    1    4    4    0    0  0.21226482047E+03  0.78744469613E+02 -0.14960771786E+03  0.27136601619E+03  0.00000000000E+00 0. -1.
         13    1    4    4    0    0  0.53775998111E+02 -0.16508788633E+02 -0.74111279689E+02  0.93042355152E+02  0.00000000000E+00 0.  1.
          2    1    1    2  501    0  0.35688743118E+02  0.11958168578E+02  0.45686843119E+02  0.59194356279E+02  0.00000000000E+00 0. -1.
<scales pt_clust_5="13000.00000" pt_clust_6="13000.00000" pt_clust_7="13000.00000" pt_clust_8="13000.00000" pt_clust_9="37.63888"></scales>
<clustering>
<clus scale="   37.639">  2  9  1 -1</clus>
<clus scale="   81.203">  5  6 -1 -1</clus>
<clus scale="   89.957">  7  8 -1 -1</clus>
<clus scale="  313.812">  1  5  2 -1</clus>
<clus scale="   37.639">  2  5  1 -1</clus>
</clustering>
</event>
<event>
 9    1  0.5981539E-005  0.1569986E+03  0.7546771E-02  0.1193690E+00
         21   -1    0    0  501  502  0.00000000000E+00  0.00000000000E+00  0.66287877738E+02  0.66287877738E+02  0.00000000000E+00 0. -1.
          3   -1    0    0  502    0 -0.00000000000E+00 -0.00000000000E+00 -0.52639803520E+03  0.52639803520E+03  0.00000000000E+00 0. -1.
         23    2    1    2    0    0 -0.10876036171E+02  0.13295125078E+03 -0.29001129447E+03  0.33154390492E+03  0.89557170123E+02 0.  0.
        -24    2    1    2    0    0  0.53445394097E+02 -0.11428077952E+03 -0.11161406551E+03  0.18643452333E+03  0.79897591666E+02 0.  0.
         13    1    4    4    0    0  0.57187308290E+02 -0.60150899742E+02 -0.10171461904E+03  0.13127978784E+03  0.00000000000E+00 0. -1.
        -14    1    4    4    0    0 -0.37419141934E+01 -0.54129879779E+02 -0.98994464623E+01  0.55154735490E+02  0.00000000000E+00 0.  1.
        -13    1    3    3    0    0  0.12718021618E+02  0.11712792832E+03 -0.16136552192E+03  0.19979872705E+03  0.00000000000E+00 0. -1.
         13    1    3    3    0    0 -0.23594057789E+02  0.15823322465E+02 -0.12864577255E+03  0.13174517787E+03  0.00000000000E+00 0.  1.
          4    1    1    2  501    0 -0.42569357926E+02 -0.18670471259E+02 -0.58484797481E+02  0.74707484683E+02  0.00000000000E+00 0. -1.
<scales pt_clust_5="13000.00000" pt_clust_6="13000.00000" pt_clust_7="13000.00000" pt_clust_8="13000.00000" pt_clust_9="46.48375"></scales>
<clustering>
<clus scale="   46.484">  1  9  2 -1</clus>
<clus scale="   79.898">  5  6 -1 -1</clus>
<clus scale="   89.557">  7  8 -1 -1</clus>
<clus scale="  151.696">  1  5  2 -1</clus>
<clus scale="   46.484">  1  5  2 -1</clus>
</clustering>
</event>
<event>
 9    1  0.5981539E-005  0.1062319E+03  0.7546771E-02  0.1272861E+00
         21   -1    0    0  501  502  0.00000000000E+00  0.00000000000E+00  0.19130144953E+03  0.19130144953E+03  0.00000000000E+00 0.  1.
         -2   -1    0    0    0  501 -0.00000000000E+00 -0.00000000000E+00 -0.11897460904E+03  0.11897460904E+03  0.00000000000E+00 0.  1.
        -24    2    1    2    0    0 -0.41609641248E+02 -0.41971809689E+02 -0.57607315528E+02  0.11400481628E+03  0.78647951522E+02 0.  0.
         23    2    1    2    0    0  0.18365963248E+02  0.30704955610E+02  0.13822589189E+03  0.16914259596E+03  0.90679201988E+02 0.  0.
         11    1    3    3    0    0 -0.16571775998E+02  0.16315283658E+02  0.61599404596E+01  0.24057371158E+02  0.00000000000E+00 0. -1.
        -12    1    3    3    0    0 -0.25037865249E+02 -0.58287093347E+02 -0.63767255987E+02  0.89947445118E+02  0.00000000000E+00 0.  1.
        -13    1    4    4    0    0  0.46433322593E+02  0.34964443241E+01  0.33511955670E+02  0.57370111929E+02  0.00000000000E+00 0. -1.
         13    1    4    4    0    0 -0.28067359344E+02  0.27208511285E+02  0.10471393622E+03  0.11177248403E+03  0.00000000000E+00 0.  1.
         -1    1    1    2    0  502  0.23243677999E+02  0.11266854079E+02 -0.82917358805E+01  0.27128646330E+02  0.00000000000E+00 0.  1.
<scales pt_clust_5="13000.00000" pt_clust_6="13000.00000" pt_clust_7="13000.00000" pt_clust_8="13000.00000" pt_clust_9="25.83043"></scales>
<clustering>
<clus scale="   25.830">  1  9  2 -1</clus>
<clus scale="   78.648">  5  6 -1 -1</clus>
<clus scale="   90.679">  7  8 -1 -1</clus>
<clus scale="   96.167">  2  5  1 -1</clus>
<clus scale="   25.830">  1  5  2 -1</clus>
</clustering>
</event>
<event>
 9    1  0.5981539E-005  0.4117661E+03  0.7546771E-02  0.1068105E+00
         21   -1    0    0  501  502  0.00000000000E+00  0.00000000000E+00  0.17208057982E+03  0.17208057982E+03  0.00000000000E+00 0. -1.
          3   -1    0    0  502    0 -0.00000000000E+00 -0.00000000000E+00 -0.21243469387E+04  0.21243469387E+04  0.00000000000E+00 0. -1.
        -24    2    1    2    0    0 -0.17900268392E+02  0.16509386768E+03 -0.89260394227E+03  0.91149668132E+03  0.80672160882E+02 0.  0.
         23    2    1    2    0    0  0.19148859882E+03  0.24571766718E+03 -0.81306948686E+03  0.87531618018E+03  0.89729423076E+02 0.  0.
         11    1    3    3    0    0 -0.14529561455E+02  0.17278608221E+03 -0.87469903290E+03  0.89171998773E+03  0.00000000000E+00 0. -1.
        -12    1    3    3    0    0 -0.33707069377E+01 -0.76922145308E+01 -0.17904909368E+02  0.19776693584E+02  0.00000000000E+00 0.  1.
        -11    1    4    4    0    0  0.35907634822E+02  0.93236396059E+02 -0.34237138122E+03  0.35665185611E+03  0.00000000000E+00 0.  1.
         11    1    4    4    0    0  0.15558096400E+03  0.15248127112E+03 -0.47069810565E+03  0.51866432407E+03  0.00000000000E+00 0. -1.
          4    1    1    2  501    0 -0.17358833043E+03 -0.41081153487E+03 -0.24659292972E+03  0.50961465700E+03  0.00000000000E+00 0. -1.
<scales pt_clust_5="13000.00000" pt_clust_6="13000.00000" pt_clust_7="13000.00000" pt_clust_8="13000.00000" pt_clust_9="401.87061"></scales>
<clustering>
<clus scale="   80.672">  5  6 -1 -1</clus>
<clus scale="   89.729">  7  8 -1 -1</clus>
<clus scale="  184.620">  2  5  1 -1</clus>
<clus scale="  401.871">  1  9  2 -1</clus>
<clus scale="  401.871">  1  5  2 -1</clus>
</clustering>
</event>
<event>
 9    1  0.5981539E-005  0.1473759E+03  0.7546771E-02  0.1205935E+00
         21   -1    0    0  501  502  0.00000000000E+00  0.00000000000E+00  0.55695953709E+02  0.55695953709E+02  0.00000000000E+00 0. -1.
          1   -1    0    0  502    0 -0.00000000000E+00 -0.00000000000E+00 -0.54187062000E+03  0.54187062000E+03  0.00000000000E+00 0. -1.
        -24    2    1    2    0    0  0.10572757334E+03 -0.27641245691E+02 -0.22993696403E+03  0.26670922207E+03  0.79501216877E+02 0.  0.
         23    2    1    2    0    0 -0.11303647304E+03  0.51992685236E+02 -0.26272957456E+03  0.30461698143E+03  0.91017539376E+02 0.  0.
         11    1    3    3    0    0  0.14868014279E-01 -0.27538036552E+02 -0.31267366619E+02  0.41665236030E+02  0.00000000000E+00 0. -1.
        -12    1    3    3    0    0  0.10571270532E+03 -0.10320913901E+00 -0.19866959741E+03  0.22504398604E+03  0.00000000000E+00 0.  1.
        -11    1    4    4    0    0 -0.10954840698E+02 -0.23007396289E+02 -0.64725673491E+02  0.69561207779E+02  0.00000000000E+00 0.  1.
         11    1    4    4    0    0 -0.10208163234E+03  0.75000081525E+02 -0.19800390107E+03  0.23505577365E+03  0.00000000000E+00 0. -1.
          2    1    1    2  501    0  0.73088996997E+01 -0.24351439545E+02  0.64918722926E+01  0.26240370207E+02  0.00000000000E+00 0. -1.
<scales pt_clust_5="13000.00000" pt_clust_6="13000.00000" pt_clust_7="13000.00000" pt_clust_8="13000.00000" pt_clust_9="25.42465"></scales>
<clustering>
<clus scale="   25.425">  1  9  2 -1</clus>
<clus scale="   79.501">  5  6 -1 -1</clus>
<clus scale="   91.018">  7  8 -1 -1</clus>
<clus scale="  140.556">  2  5  1 -1</clus>
<clus scale="   25.425">  1  5  2 -1</clus>
</clustering>
</event>
<event>
 9    1  0.5981539E-005  0.2014081E+03  0.7546771E-02  0.1149165E+00
         21   -1    0    0  501  502  0.00000000000E+00  0.00000000000E+00  0.58666106183E+03  0.58666106183E+03  0.00000000000E+00 0. -1.
          1   -1    0    0  502    0 -0.00000000000E+00 -0.00000000000E+00 -0.41626876671E+03  0.41626876671E+03  0.00000000000E+00 0. -1.
        -24    2    1    2    0    0 -0.10207680137E+03 -0.15918098460E+03 -0.34266406398E+03  0.39992303344E+03  0.82228417813E+02 0.  0.
         23    2    1    2    0    0  0.23681155162E+01  0.14459325296E+03  0.15112076404E+03  0.22730478695E+03  0.88978447234E+02 0.  0.
         11    1    3    3    0    0 -0.11632634400E+03 -0.14657555389E+03 -0.31357466812E+03  0.36516473515E+03  0.00000000000E+00 0. -1.
        -12    1    3    3    0    0  0.14249542637E+02 -0.12605430712E+02 -0.29089395865E+02  0.34758298298E+02  0.00000000000E+00 0.  1.
        -13    1    4    4    0    0  0.28236280078E+02  0.46864346980E+02  0.13168543310E+02  0.56275794649E+02  0.00000000000E+00 0.  1.
         13    1    4    4    0    0 -0.25868164561E+02  0.97728905985E+02  0.13795222073E+03  0.17102899230E+03  0.00000000000E+00 0. -1.
          2    1    1    2  501    0  0.99708685852E+02  0.14587731639E+02  0.36193559506E+03  0.37570200814E+03  0.00000000000E+00 0. -1.
<scales pt_clust_5="13000.00000" pt_clust_6="13000.00000" pt_clust_7="13000.00000" pt_clust_8="13000.00000" pt_clust_9="100.77015"></scales>
<clustering>
<clus scale="   82.228">  5  6 -1 -1</clus>
<clus scale="   88.978">  7  8 -1 -1</clus>
<clus scale="  100.770">  1  9  2 -1</clus>
<clus scale="  198.518">  2  5  1 -1</clus>
<clus scale="  100.770">  1  5  2 -1</clus>
</clustering>
</event>
<event>
 9    1  0.5981539E-005  0.9905619E+02  0.7546771E-02  0.1287419E+00
         21   -1    0    0  501  502  0.00000000000E+00  0.00000000000E+00  0.12483998243E+03  0.12483998243E+03  0.00000000000E+00 0.  1.
         -2   -1    0    0    0  501 -0.00000000000E+00 -0.00000000000E+00 -0.18872427369E+03  0.18872427369E+03  0.00000000000E+00 0.  1.
        -24    2    1    2    0    0  0.12462415523E+02 -0.35901691218E+02 -0.12943373481E+03  0.15825272404E+03  0.82744122006E+02 0.  0.
         23    2    1    2    0    0 -0.32690395426E+02  0.51277199228E+01  0.66100239531E+02  0.11848067740E+03  0.92593054742E+02 0.  0.
         11    1    3    3    0    0  0.16196269562E+02  0.13635237355E+02 -0.17480872967E+01  0.21243696822E+02  0.00000000000E+00 0. -1.
        -12    1    3    3    0    0 -0.37338540390E+01 -0.49536928574E+02 -0.12768564752E+03  0.13700902722E+03  0.00000000000E+00 0.  1.
        -13    1    4    4    0    0 -0.92308597570E+01 -0.34989222736E+02 -0.17640424419E+01  0.36229357230E+02  0.00000000000E+00 0. -1.
         13    1    4    4    0    0 -0.23459535669E+02  0.40116942659E+02  0.67864281973E+02  0.82251320171E+02  0.00000000000E+00 0.  1.
         -1    1    1    2    0  502  0.20227979902E+02  0.30773971296E+02 -0.55079598092E+00  0.36830854680E+02  0.00000000000E+00 0.  1.
<scales pt_clust_5="13000.00000" pt_clust_6="13000.00000" pt_clust_7="13000.00000" pt_clust_8="13000.00000" pt_clust_9="36.82674"></scales>
<clustering>
<clus scale="   36.827">  1  9  2 -1</clus>
<clus scale="   82.744">  5  6 -1 -1</clus>
<clus scale="   89.918">  2  5  1 -1</clus>
<clus scale="   92.593">  7  8 -1 -1</clus>
<clus scale="   36.827">  1  5  2 -1</clus>
</clustering>
</event>
<event>
 9    1  0.5981539E-005  0.1036004E+03  0.7546771E-02  0.1274689E+00
         -2   -1    0    0    0  501 -0.00000000000E+00  0.00000000000E+00  0.70646460695E+03  0.70646460695E+03  0.00000000000E+00 0.  1.
         21   -1    0    0  501  502  0.00000000000E+00 -0.00000000000E+00 -0.50298734745E+02  0.50298734745E+02  0.00000000000E+00 0.  1.
         23    2    1    2    0    0 -0.42558591125E+02 -0.96084514250E+01  0.39521289179E+03  0.40865539610E+03  0.94352778994E+02 0.  0.
        -24    2    1    2    0    0  0.37412714717E+02 -0.90360742103E+02  0.12553611268E+03  0.17970946649E+03  0.83494920946E+02 0.  0.
         11    1    4    4    0    0  0.46103249631E+02 -0.36993901283E+02  0.10755553042E+03  0.12272836055E+03  0.00000000000E+00 0. -1.
        -12    1    4    4    0    0 -0.86905349137E+01 -0.53366840820E+02  0.17980582261E+02  0.56981105945E+02  0.00000000000E+00 0.  1.
        -11    1    3    3    0    0  0.19905567053E+02 -0.31922129307E+02  0.14426365542E+03  0.14908808206E+03  0.00000000000E+00 0. -1.
         11    1    3    3    0    0 -0.62464158178E+02  0.22313677882E+02  0.25094923638E+03  0.25956731404E+03  0.00000000000E+00 0.  1.
         -1    1    1    2    0  502  0.51458764071E+01  0.99969193528E+02  0.13541686772E+03  0.16839847910E+03  0.00000000000E+00 0.  1.
<scales pt_clust_5="13000.00000" pt_clust_6="13000.00000" pt_clust_7="13000.00000" pt_clust_8="13000.00000" pt_clust_9="100.10155"></scales>
<clustering>
<clus scale="   83.495">  5  6 -1 -1</clus>
<clus scale="   94.353">  7  8 -1 -1</clus>
<clus scale="  100.102">  2  9  1 -1</clus>
<clus scale="  100.102">  2  5  1 -1</clus>
<clus scale="  100.102">  2  5  1 -1</clus>
</clustering>
</event>
<event>
 9    1  0.5981539E-005  0.1177446E+03  0.7546771E-02  0.1250910E+00
          1   -1    0    0  502    0 -0.00000000000E+00  0.00000000000E+00  0.27962589926E+03  0.27962589926E+03  0.00000000000E+00 0. -1.
         21   -1    0    0  501  502  0.00000000000E+00 -0.00000000000E+00 -0.57833352884E+02  0.57833352884E+02  0.00000000000E+00 0. -1.
        -24    2    1    2    0    0 -0.57273922307E+02 -0.26732767413E+02  0.73904845222E+02  0.12699953377E+03  0.81682387335E+02 0.  0.
         23    2    1    2    0    0  0.67984941193E+02  0.44135415502E+02  0.10251380013E+03  0.16069658965E+03  0.93511644072E+02 0.  0.
         11    1    3    3    0    0 -0.59758304658E+02 -0.50580161987E+02  0.48644859782E+02  0.92172285127E+02  0.00000000000E+00 0. -1.
        -12    1    3    3    0    0  0.24843823515E+01  0.23847394574E+02  0.25259985440E+02  0.34827248644E+02  0.00000000000E+00 0.  1.
        -13    1    4    4    0    0  0.53092150339E+02  0.68860110573E+01  0.32527859794E+01  0.53635568353E+02  0.00000000000E+00 0.  1.
         13    1    4    4    0    0  0.14892790854E+02  0.37249404445E+02  0.99261014147E+02  0.10706102129E+03  0.00000000000E+00 0. -1.
          2    1    1    2  501    0 -0.10711018886E+02 -0.17402648090E+02  0.45373901029E+02  0.49763128727E+02  0.00000000000E+00 0. -1.
<scales pt_clust_5="13000.00000" pt_clust_6="13000.00000" pt_clust_7="13000.00000" pt_clust_8="13000.00000" pt_clust_9="20.43474"></scales>
<clustering>
<clus scale="   20.435">  2  9  1 -1</clus>
<clus scale="   81.682">  5  6 -1 -1</clus>
<clus scale="   93.512">  7  8 -1 -1</clus>
<clus scale="  108.588">  1  5  2 -1</clus>
<clus scale="   20.435">  2  5  1 -1</clus>
</clustering>
</event>
<event>
 9    1  0.5981539E-005  0.1692632E+03  0.7546771E-02  0.1196829E+00
         -2   -1    0    0    0  501 -0.00000000000E+00  0.00000000000E+00  0.19675830034E+03  0.19675830034E+03  0.00000000000E+00 0.  1.
         21   -1    0    0  501  502  0.00000000000E+00 -0.00000000000E+00 -0.25653828090E+03  0.25653828090E+03  0.00000000000E+00 0. -1.
         23    2    1    2    0    0 -0.45845604642E+02 -0.49484132616E+02  0.28732713508E+02  0.11660948513E+03  0.90673614418E+02 0.  0.
        -24    2    1    2    0    0 -0.87883982235E+02  0.12331160568E+03 -0.51221092850E+02  0.17944600191E+03  0.81534782873E+02 0.  0.
         11    1    4    4    0    0 -0.22705352577E+02  0.15176599826E+02 -0.45487695392E+02  0.53056504313E+02  0.00000000000E+00 0. -1.
        -12    1    4    4    0    0 -0.65178629657E+02  0.10813500585E+03 -0.57333974588E+01  0.12638949759E+03  0.00000000000E+00 0.  1.
        -13    1    3    3    0    0 -0.47438069957E+02 -0.11414584825E+02  0.52523315604E+02  0.71689343071E+02  0.00000000000E+00 0. -1.
         13    1    3    3    0    0  0.15924653148E+01 -0.38069547791E+02 -0.23790602096E+02  0.44920142062E+02  0.00000000000E+00 0.  1.
         -1    1    1    2    0  502  0.13372958688E+03 -0.73827473064E+02 -0.37291601220E+02  0.15724109420E+03  0.00000000000E+00 0.  1.
<scales pt_clust_5="13000.00000" pt_clust_6="13000.00000" pt_clust_7="13000.00000" pt_clust_8="13000.00000" pt_clust_9="148.33116"></scales>
<clustering>
<clus scale="   81.535">  5  6 -1 -1</clus>
<clus scale="   90.674">  7  8 -1 -1</clus>
<clus scale="  113.014">  1  7  2 -1</clus>
<clus scale="  148.331">  2  9  1 -1</clus>
<clus scale="  148.331">  2  5  1 -1</clus>
</clustering>
</event>
<event>
 9    1  0.5981539E-005  0.1057430E+03  0.7546771E-02  0.1273620E+00
          1   -1    0    0  502    0 -0.00000000000E+00  0.00000000000E+00  0.19520014735E+03  0.19520014735E+03  0.00000000000E+00 0. -1.
         21   -1    0    0  501  502  0.00000000000E+00 -0.00000000000E+00 -0.16973900993E+03  0.16973900993E+03  0.00000000000E+00 0.  1.
        -24    2    1    2    0    0  0.45716234400E+02 -0.37510542649E+02  0.14459422406E+03  0.17512902126E+03  0.79155982461E+02 0.  0.
         23    2    1    2    0    0 -0.19478275292E+02  0.27815397823E+02 -0.37971878622E+02  0.10396394788E+03  0.90628578984E+02 0.  0.
         13    1    3    3    0    0  0.64576845908E+02 -0.37849761366E+02  0.13401380986E+03  0.15350073190E+03  0.00000000000E+00 0. -1.
        -14    1    3    3    0    0 -0.18860611508E+02  0.33921871701E+00  0.10580414199E+02  0.21628289355E+02  0.00000000000E+00 0.  1.
        -11    1    4    4    0    0 -0.34441524436E+02 -0.27918125886E+01 -0.55708144747E+02  0.65554635337E+02  0.00000000000E+00 0.  1.
         11    1    4    4    0    0  0.14963249144E+02  0.30607210412E+02  0.17736266125E+02  0.38409312545E+02  0.00000000000E+00 0. -1.
          2    1    1    2  501    0 -0.26237959108E+02  0.96951448260E+01 -0.81161208015E+02  0.85846188138E+02  0.00000000000E+00 0. -1.
<scales pt_clust_5="13000.00000" pt_clust_6="13000.00000" pt_clust_7="13000.00000" pt_clust_8="13000.00000" pt_clust_9="27.97188"></scales>
<clustering>
<clus scale="   27.972">  2  9  1 -1</clus>
<clus scale="   79.156">  5  6 -1 -1</clus>
<clus scale="   90.629">  7  8 -1 -1</clus>
<clus scale="   96.092">  1  5  2 -1</clus>
<clus scale="   27.972">  2  5  1 -1</clus>
</clustering>
</event>
<event>
 9    1  0.5981539E-005  0.1425182E+03  0.7546771E-02  0.1212648E+00
         21   -1    0    0  501  502  0.00000000000E+00  0.00000000000E+00  0.13805549397E+03  0.13805549397E+03  0.00000000000E+00 0. -1.
          1   -1    0    0  502    0 -0.00000000000E+00 -0.00000000000E+00 -0.57766723039E+03  0.57766723039E+03  0.00000000000E+00 0. -1.
        -24    2    1    2    0    0 -0.94697487260E+02 -0.46708015769E+02 -0.43068647968E+03  0.45076165953E+03  0.80907212890E+02 0.  0.
         23    2    1    2    0    0  0.11161006731E+03  0.35311083913E+02 -0.94430894309E+02  0.17705691546E+03  0.93425252156E+02 0.  0.
         11    1    3    3    0    0 -0.36972562608E+02 -0.56973971473E+02 -0.16036410944E+03  0.17415410247E+03  0.00000000000E+00 0. -1.
        -12    1    3    3    0    0 -0.57724924652E+02  0.10265955704E+02 -0.27032237024E+03  0.27660755707E+03  0.00000000000E+00 0.  1.
        -11    1    4    4    0    0  0.11038141812E+03 -0.32164898741E+00 -0.87217380826E+02  0.14068060436E+03  0.00000000000E+00 0.  1.
         11    1    4    4    0    0  0.12286491928E+01  0.35632732901E+02 -0.72135134826E+01  0.36376311105E+02  0.00000000000E+00 0. -1.
          2    1    1    2  501    0 -0.16912580054E+02  0.11396931856E+02  0.85505637567E+02  0.87904149365E+02  0.00000000000E+00 0. -1.
<scales pt_clust_5="13000.00000" pt_clust_6="13000.00000" pt_clust_7="13000.00000" pt_clust_8="13000.00000" pt_clust_9="20.39425"></scales>
<clustering>
<clus scale="   20.394">  1  9  2 -1</clus>
<clus scale="   80.907">  5  6 -1 -1</clus>
<clus scale="   93.425">  7  8 -1 -1</clus>
<clus scale="  134.644">  2  5  1 -1</clus>
<clus scale="   20.394">  1  5  2 -1</clus>
</clustering>
</event>
<event>
 9    1  0.5981539E-005  0.1738203E+03  0.7546771E-02  0.1198533E+00
         21   -1    0    0  501  502  0.00000000000E+00  0.00000000000E+00  0.35019576122E+03  0.35019576122E+03  0.00000000000E+00 0. -1.
          1   -1    0    0  502    0 -0.00000000000E+00 -0.00000000000E+00 -0.14211858556E+03  0.14211858556E+03  0.00000000000E+00 0. -1.
        -24    2    1    2    0    0 -0.17108923195E+02  0.49934668463E+02  0.10184614142E+03  0.14311862002E+03  0.85581052264E+02 0.  0.
         23    2    1    2    0    0  0.14423344983E+03 -0.89198811525E+02  0.10325678425E+03  0.21611242816E+03  0.85339920808E+02 0.  0.
         13    1    3    3    0    0  0.22335900692E+02  0.52863964313E+02  0.40936621900E+02  0.70493249288E+02  0.00000000000E+00 0. -1.
        -14    1    3    3    0    0 -0.39444823887E+02 -0.29292958501E+01  0.60909519521E+02  0.72625370732E+02  0.00000000000E+00 0.  1.
        -13    1    4    4    0    0  0.45499398041E+02  0.11038886789E+02  0.41085453504E+02  0.62290181676E+02  0.00000000000E+00 0.  1.
         13    1    4    4    0    0  0.98734051794E+02 -0.10023769831E+03  0.62171330743E+02  0.15382224648E+03  0.00000000000E+00 0. -1.
          2    1    1    2  501    0 -0.12712452664E+03  0.39264143062E+02  0.29742499996E+01  0.13308329860E+03  0.00000000000E+00 0. -1.
<scales pt_clust_5="13000.00000" pt_clust_6="13000.00000" pt_clust_7="13000.00000" pt_clust_8="13000.00000" pt_clust_9="151.42856"></scales>
<clustering>
<clus scale="   85.340">  7  8 -1 -1</clus>
<clus scale="   85.581">  5  6 -1 -1</clus>
<clus scale="  100.550">  2  5  1 -1</clus>
<clus scale="  151.429">  1  9  2 -1</clus>
<clus scale="  151.429">  1  5  2 -1</clus>
</clustering>
</event>
<event>
 9    1  0.5981539E-005  0.9977694E+02  0.7546771E-02  0.1288225E+00
         21   -1    0    0  501  502  0.00000000000E+00  0.00000000000E+00  0.53016590918E+02  0.53016590918E+02  0.00000000000E+00 0. -1.
          3   -1    0    0  502    0 -0.00000000000E+00 -0.00000000000E+00 -0.38007400070E+03  0.38007400070E+03  0.00000000000E+00 0. -1.
        -24    2    1    2    0    0 -0.20090289147E+02  0.43054286810E+02 -0.23897913318E+03  0.25604030128E+03  0.78665865851E+02 0.  0.
         23    2    1    2    0    0  0.26082784576E+02  0.96909180000E+01 -0.74367636944E+02  0.12222376144E+03  0.92918657394E+02 0.  0.
         11    1    3    3    0    0 -0.58657081956E+01  0.64863501568E+02 -0.18452105101E+03  0.19567753737E+03  0.00000000000E+00 0. -1.
        -12    1    3    3    0    0 -0.14224580952E+02 -0.21809214758E+02 -0.54458082179E+02  0.60362763904E+02  0.00000000000E+00 0.  1.
        -13    1    4    4    0    0  0.48446439561E+02 -0.20958898065E+02 -0.21148698112E+02  0.56864754867E+02  0.00000000000E+00 0. -1.
         13    1    4    4    0    0 -0.22363654986E+02  0.30649816065E+02 -0.53218938832E+02  0.65359006568E+02  0.00000000000E+00 0.  1.
          4    1    1    2  501    0 -0.59924954284E+01 -0.52745204810E+02 -0.13710639652E+02  0.54826528903E+02  0.00000000000E+00 0. -1.
<scales pt_clust_5="13000.00000" pt_clust_6="13000.00000" pt_clust_7="13000.00000" pt_clust_8="13000.00000" pt_clust_9="53.08452"></scales>
<clustering>
<clus scale="   53.085">  1  9  2 -1</clus>
<clus scale="   78.666">  5  6 -1 -1</clus>
<clus scale="   86.660">  2  5  1 -1</clus>
<clus scale="   92.919">  7  8 -1 -1</clus>
<clus scale="   53.085">  1  5  2 -1</clus>
</clustering>
</event>
<event>
 9    1  0.5981539E-005  0.1814718E+03  0.7546771E-02  0.1167483E+00
         21   -1    0    0  501  502  0.00000000000E+00  0.00000000000E+00  0.11172153927E+03  0.11172153927E+03  0.00000000000E+00 0. -1.
          1   -1    0    0  502    0 -0.00000000000E+00 -0.00000000000E+00 -0.54899906463E+03  0.54899906463E+03  0.00000000000E+00 0. -1.
         23    2    1    2    0    0 -0.61670943634E+02  0.16102826946E+03 -0.18523737357E+03  0.26897893889E+03  0.91122862899E+02 0.  0.
        -24    2    1    2    0    0  0.76051404234E+00 -0.13874148960E+03 -0.34439737751E+02  0.16468061336E+03  0.81754691387E+02 0.  0.
         13    1    4    4    0    0  0.12139740982E+02 -0.13136657744E+03 -0.52591938739E+02  0.14202275522E+03  0.00000000000E+00 0. -1.
        -14    1    4    4    0    0 -0.11379226940E+02 -0.73749121614E+01  0.18152200988E+02  0.22657858148E+02  0.00000000000E+00 0.  1.
        -11    1    3    3    0    0 -0.37691577758E+02  0.69249206130E+01 -0.27571126143E+02  0.47209920104E+02  0.00000000000E+00 0.  1.
         11    1    3    3    0    0 -0.23979365875E+02  0.15410334885E+03 -0.15766624743E+03  0.22176901878E+03  0.00000000000E+00 0. -1.
          2    1    1    2  501    0  0.60910429591E+02 -0.22286779862E+02 -0.21760041403E+03  0.22706105165E+03  0.00000000000E+00 0. -1.
<scales pt_clust_5="13000.00000" pt_clust_6="13000.00000" pt_clust_7="13000.00000" pt_clust_8="13000.00000" pt_clust_9="64.85973"></scales>
<clustering>
<clus scale="   64.860">  1  9  2 -1</clus>
<clus scale="   81.755">  5  6 -1 -1</clus>
<clus scale="   91.123">  7  8 -1 -1</clus>
<clus scale="  176.953">  1  5  2 -1</clus>
<clus scale="   64.860">  1  5  2 -1</clus>
</clustering>
</event>
<event>
 9    1  0.5981539E-005  0.1078311E+03  0.7546771E-02  0.1269142E+00
          1   -1    0    0  502    0 -0.00000000000E+00  0.00000000000E+00  0.50760827075E+03  0.50760827075E+03  0.00000000000E+00 0. -1.
         21   -1    0    0  501  502  0.00000000000E+00 -0.00000000000E+00 -0.39215208803E+02  0.39215208803E+02  0.00000000000E+00 0.  1.
        -24    2    1    2    0    0 -0.26744558374E+02 -0.38641542199E+02  0.26286129764E+03  0.27875468820E+03  0.79997963789E+02 0.  0.
         23    2    1    2    0    0  0.52901724637E+02  0.63548082167E+02  0.19491126809E+03  0.23042137418E+03  0.90921152846E+02 0.  0.
         11    1    3    3    0    0 -0.35712364462E+02 -0.55959407423E+02  0.23840424787E+03  0.24747406664E+03  0.00000000000E+00 0. -1.
        -12    1    3    3    0    0  0.89678060884E+01  0.17317865224E+02  0.24457049766E+02  0.31280621560E+02  0.00000000000E+00 0.  1.
        -11    1    4    4    0    0  0.67401506640E+02  0.77374616967E+02  0.16821088735E+03  0.19703983626E+03  0.00000000000E+00 0.  1.
         11    1    4    4    0    0 -0.14499782003E+02 -0.13826534800E+02  0.26700380736E+02  0.33381537924E+02  0.00000000000E+00 0. -1.
          2    1    1    2  501    0 -0.26157166263E+02 -0.24906539968E+02  0.10620496224E+02  0.37647417178E+02  0.00000000000E+00 0. -1.
<scales pt_clust_5="13000.00000" pt_clust_6="13000.00000" pt_clust_7="13000.00000" pt_clust_8="13000.00000" pt_clust_9="36.11832"></scales>
<clustering>
<clus scale="   36.118">  2  9  1 -1</clus>
<clus scale="   79.998">  5  6 -1 -1</clus>
<clus scale="   90.921">  7  8 -1 -1</clus>
<clus scale="   98.796">  1  5  2 -1</clus>
<clus scale="   36.118">  2  5  1 -1</clus>
</clustering>
</event>
<event>
 9    1  0.5981539E-005  0.1270420E+03  0.7546771E-02  0.1235056E+00
         -2   -1    0    0    0  501 -0.00000000000E+00  0.00000000000E+00  0.96452871844E+03  0.96452871844E+03  0.00000000000E+00 0.  1.
         21   -1    0    0  501  502  0.00000000000E+00 -0.00000000000E+00 -0.72825290756E+02  0.72825290756E+02  0.00000000000E+00 0.  1.
         23    2    1    2    0    0  0.12796388415E+02 -0.56777980129E+02  0.37162016728E+03  0.38706654402E+03  0.91276909370E+02 0.  0.
        -24    2    1    2    0    0  0.14063932700E+02  0.13304706255E+03  0.54407315702E+03  0.56594314158E+03  0.79854394129E+02 0.  0.
         13    1    4    4    0    0  0.22738318167E+02  0.43928765365E+02  0.86085930607E+02  0.99285220391E+02  0.00000000000E+00 0. -1.
        -14    1    4    4    0    0 -0.86743854668E+01  0.89118297182E+02  0.45798722641E+03  0.46665792119E+03  0.00000000000E+00 0.  1.
        -11    1    3    3    0    0  0.48109925261E+02 -0.96263060221E+01  0.15507314702E+03  0.16264965909E+03  0.00000000000E+00 0.  1.
         11    1    3    3    0    0 -0.35313536847E+02 -0.47151674107E+02  0.21654702026E+03  0.22441688492E+03  0.00000000000E+00 0. -1.
         -1    1    1    2    0  502 -0.26860321114E+02 -0.76269082418E+02 -0.23989896613E+02  0.84344323596E+02  0.00000000000E+00 0.  1.
<scales pt_clust_5="13000.00000" pt_clust_6="13000.00000" pt_clust_7="13000.00000" pt_clust_8="13000.00000" pt_clust_9="80.86068"></scales>
<clustering>
<clus scale="   79.854">  5  6 -1 -1</clus>
<clus scale="   80.861">  2  9  1 -1</clus>
<clus scale="   91.277">  7  8 -1 -1</clus>
<clus scale="  119.100">  2  5  1 -1</clus>
<clus scale="   80.861">  2  5  1 -1</clus>
</clustering>
</event>
<event>
 9    1  0.5981539E-005  0.2067293E+03  0.7546771E-02  0.1145030E+00
         21   -1    0    0  501  502  0.00000000000E+00  0.00000000000E+00  0.20209971685E+03  0.20209971685E+03  0.00000000000E+00 0.  1.
          1   -1    0    0  502    0 -0.00000000000E+00 -0.00000000000E+00 -0.68967806268E+03  0.68967806268E+03  0.00000000000E+00 0. -1.
        -24    2    1    2    0    0 -0.56267635943E+01  0.17466232191E+03 -0.29863016484E+03  0.35486857690E+03  0.78823501304E+02 0.  0.
         23    2    1    2    0    0 -0.68567563443E+02 -0.25482614083E+03  0.41815221607E+02  0.28160000966E+03  0.88950434937E+02 0.  0.
         11    1    3    3    0    0 -0.19156805469E+02  0.10072568539E+03 -0.23497834685E+03  0.25637369285E+03  0.00000000000E+00 0. -1.
        -12    1    3    3    0    0  0.13530041875E+02  0.73936636515E+02 -0.63651817984E+02  0.98494884055E+02  0.00000000000E+00 0.  1.
        -11    1    4    4    0    0 -0.71659513393E+02 -0.18618054962E+03 -0.30795602585E+01  0.19951883773E+03  0.00000000000E+00 0.  1.
         11    1    4    4    0    0  0.30919499497E+01 -0.68645591210E+02  0.44894781866E+02  0.82081171933E+02  0.00000000000E+00 0. -1.
          2    1    1    2  501    0  0.74194327038E+02  0.80163818924E+02 -0.23076340260E+03  0.25530919296E+03  0.00000000000E+00 0. -1.
<scales pt_clust_5="13000.00000" pt_clust_6="13000.00000" pt_clust_7="13000.00000" pt_clust_8="13000.00000" pt_clust_9="109.22934"></scales>
<clustering>
<clus scale="   78.824">  5  6 -1 -1</clus>
<clus scale="   88.950">  7  8 -1 -1</clus>
<clus scale="  109.229">  1  9  2 -1</clus>
<clus scale="  202.578">  2  5  1 -1</clus>
<clus scale="  109.229">  1  5  2 -1</clus>
</clustering>
</event>
<event>
 9    1  0.5981539E-005  0.1482831E+03  0.7546771E-02  0.1204450E+00
         21   -1    0    0  501  502  0.00000000000E+00  0.00000000000E+00  0.10974966528E+03  0.10974966528E+03  0.00000000000E+00 0.  1.
          1   -1    0    0  502    0 -0.00000000000E+00 -0.00000000000E+00 -0.40391620096E+03  0.40391620096E+03  0.00000000000E+00 0. -1.
        -24    2    1    2    0    0 -0.48947956760E+02 -0.12592826308E+03 -0.28412683386E+03  0.32461002442E+03  0.79936101476E+02 0.  0.
         23    2    1    2    0    0  0.28005990401E+02  0.56654810020E+02  0.18195569853E+02  0.11137310357E+03  0.89882069627E+02 0.  0.
         13    1    3    3    0    0  0.45188746789E+01 -0.95205482977E+02 -0.17377922019E+03  0.19820121490E+03  0.00000000000E+00 0. -1.
        -14    1    3    3    0    0 -0.53466831438E+02 -0.30722780106E+02 -0.11034761367E+03  0.12640880952E+03  0.00000000000E+00 0.  1.
        -11    1    4    4    0    0  0.26144103356E+02  0.79052617573E+02  0.26552126896E+02  0.87394770600E+02  0.00000000000E+00 0.  1.
         11    1    4    4    0    0  0.18618870458E+01 -0.22397807553E+02 -0.83565570434E+01  0.23978332973E+02  0.00000000000E+00 0. -1.
          2    1    1    2  501    0  0.20941966358E+02  0.69273453063E+02 -0.28235271677E+02  0.77682738243E+02  0.00000000000E+00 0. -1.
<scales pt_clust_5="13000.00000" pt_clust_6="13000.00000" pt_clust_7="13000.00000" pt_clust_8="13000.00000" pt_clust_9="72.36973"></scales>
<clustering>
<clus scale="   72.370">  1  9  2 -1</clus>
<clus scale="   79.936">  5  6 -1 -1</clus>
<clus scale="   89.882">  7  8 -1 -1</clus>
<clus scale="  142.474">  2  5  1 -1</clus>
<clus scale="   72.370">  1  5  2 -1</clus>
</clustering>
</event>
<event>
 9    1  0.5981539E-005  0.1380318E+03  0.7546771E-02  0.1240163E+00
         21   -1    0    0  501  502  0.00000000000E+00  0.00000000000E+00  0.24235256725E+03  0.24235256725E+03  0.00000000000E+00 0. -1.
          1   -1    0    0  502    0 -0.00000000000E+00 -0.00000000000E+00 -0.10975697739E+03  0.10975697739E+03  0.00000000000E+00 0. -1.
        -24    2    1    2    0    0 -0.16819980996E+02 -0.54524697090E+01  0.38492793011E+02  0.92104583894E+02  0.81785806066E+02 0.  0.
         23    2    1    2    0    0 -0.50348976224E+02 -0.81292258008E+02  0.54607385300E+02  0.14340219862E+03  0.91862796722E+02 0.  0.
         11    1    3    3    0    0 -0.12400217609E+02 -0.25325580337E+02 -0.17047202899E+02  0.32950835237E+02  0.00000000000E+00 0. -1.
        -12    1    3    3    0    0 -0.44197633873E+01  0.19873110628E+02  0.55539995910E+02  0.59153748656E+02  0.00000000000E+00 0.  1.
        -13    1    4    4    0    0  0.22254564199E+02 -0.24879858833E+02 -0.51067906174E+01  0.33769102944E+02  0.00000000000E+00 0.  1.
         13    1    4    4    0    0 -0.72603540423E+02 -0.56412399175E+02  0.59714175917E+02  0.10963309568E+03  0.00000000000E+00 0. -1.
          2    1    1    2  501    0  0.67168957220E+02  0.86744727717E+02  0.39495411552E+02  0.11660276212E+03  0.00000000000E+00 0. -1.
<scales pt_clust_5="13000.00000" pt_clust_6="13000.00000" pt_clust_7="13000.00000" pt_clust_8="13000.00000" pt_clust_9="103.02437"></scales>
<clustering>
<clus scale="   81.786">  5  6 -1 -1</clus>
<clus scale="   83.675">  2  5  1 -1</clus>
<clus scale="   91.863">  7  8 -1 -1</clus>
<clus scale="  103.024">  1  9  2 -1</clus>
<clus scale="  103.024">  1  5  2 -1</clus>
</clustering>
</event>
<event>
 9    1  0.5981539E-005  0.9892454E+02  0.7546771E-02  0.1288138E+00
          3   -1    0    0  502    0 -0.00000000000E+00  0.00000000000E+00  0.72776597522E+02  0.72776597522E+02  0.00000000000E+00 0. -1.
         21   -1    0    0  501  502  0.00000000000E+00 -0.00000000000E+00 -0.38019186724E+03  0.38019186724E+03  0.00000000000E+00 0. -1.
        -24    2    1    2    0    0  0.87405852228E+01  0.40564293786E+02  0.27595636867E+02  0.94672171123E+02  0.80494975314E+02 0.  0.
         23    2    1    2    0    0  0.65050236236E+01 -0.18450996444E+02 -0.20103407403E+03  0.22165362764E+03  0.91284594129E+02 0.  0.
         11    1    3    3    0    0  0.33818313469E+02  0.41620849087E+02  0.39779735265E+02  0.66771256858E+02  0.00000000000E+00 0. -1.
        -12    1    3    3    0    0 -0.25077728246E+02 -0.10565553011E+01 -0.12184098399E+02  0.27900914266E+02  0.00000000000E+00 0.  1.
        -13    1    4    4    0    0 -0.31972447660E+02 -0.19765367503E+02 -0.35504255911E+02  0.51705505990E+02  0.00000000000E+00 0.  1.
         13    1    4    4    0    0  0.38477471284E+02  0.13143710596E+01 -0.16552981812E+03  0.16994812165E+03  0.00000000000E+00 0. -1.
          4    1    1    2  501    0 -0.15245608846E+02 -0.22113297343E+02 -0.13397683256E+03  0.13664266600E+03  0.00000000000E+00 0. -1.
<scales pt_clust_5="13000.00000" pt_clust_6="13000.00000" pt_clust_7="13000.00000" pt_clust_8="13000.00000" pt_clust_9="26.85938"></scales>
<clustering>
<clus scale="   26.859">  2  9  1 -1</clus>
<clus scale="   80.495">  5  6 -1 -1</clus>
<clus scale="   89.065">  1  5  2 -1</clus>
<clus scale="   91.285">  7  8 -1 -1</clus>
<clus scale="   26.859">  2  5  1 -1</clus>
</clustering>
</event>
<event>
 9    1  0.5981539E-005  0.9859615E+02  0.7546771E-02  0.1286882E+00
         21   -1    0    0  501  502  0.00000000000E+00  0.00000000000E+00  0.28789450533E+02  0.28789450533E+02  0.00000000000E+00 0. -1.
          1   -1    0    0  502    0 -0.00000000000E+00 -0.00000000000E+00 -0.80467550805E+03  0.80467550805E+03  0.00000000000E+00 0. -1.
        -24    2    1    2    0    0  0.48241445564E+02 -0.13208184595E+02 -0.28555908914E+03  0.30182650234E+03  0.83985420823E+02 0.  0.
         23    2    1    2    0    0 -0.12689287913E+02 -0.19403239505E+02 -0.95850001976E+02  0.13422237968E+03  0.91054492457E+02 0.  0.
         13    1    3    3    0    0  0.71168878540E+02 -0.10535091691E+02 -0.24280082345E+03  0.25323553719E+03  0.00000000000E+00 0. -1.
        -14    1    3    3    0    0 -0.22927432977E+02 -0.26730929038E+01 -0.42758265694E+02  0.48590965145E+02  0.00000000000E+00 0.  1.
        -11    1    4    4    0    0 -0.33762130805E+02 -0.25927967992E+02 -0.10265940993E+03  0.11113548240E+03  0.00000000000E+00 0.  1.
         11    1    4    4    0    0  0.21072842892E+02  0.65247284870E+01  0.68094079532E+01  0.23086897281E+02  0.00000000000E+00 0. -1.
          2    1    1    2  501    0 -0.35552157650E+02  0.32611424100E+02 -0.39447696641E+03  0.39741607657E+03  0.00000000000E+00 0. -1.
<scales pt_clust_5="13000.00000" pt_clust_6="13000.00000" pt_clust_7="13000.00000" pt_clust_8="13000.00000" pt_clust_9="48.24379"></scales>
<clustering>
<clus scale="   48.244">  1  9  2 -1</clus>
<clus scale="   83.985">  5  6 -1 -1</clus>
<clus scale="   91.054">  7  8 -1 -1</clus>
<clus scale="   92.108">  2  5  1 -1</clus>
<clus scale="   48.244">  1  5  2 -1</clus>
</clustering>
</event>
<event>
 9    1  0.5981539E-005  0.1277466E+03  0.7546771E-02  0.1239656E+00
         21   -1    0    0  501  502  0.00000000000E+00  0.00000000000E+00  0.19854914157E+03  0.19854914157E+03  0.00000000000E+00 0. -1.
          1   -1    0    0  502    0 -0.00000000000E+00 -0.00000000000E+00 -0.16780790931E+03  0.16780790931E+03  0.00000000000E+00 0. -1.
         23    2    1    2    0    0 -0.88218699327E+01 -0.31652338908E+02  0.15150895868E+02  0.11310079660E+03  0.10715663581E+03 0.  0.
        -24    2    1    2    0    0 -0.13022314705E+02  0.12583773007E+03  0.36099827223E+02  0.15441954285E+03  0.80854701155E+02 0.  0.
         13    1    4    4    0    0 -0.41871791849E+02  0.10868548676E+03  0.25602086199E+02  0.11925287755E+03  0.00000000000E+00 0. -1.
        -14    1    4    4    0    0  0.28849477144E+02  0.17152243311E+02  0.10497741024E+02  0.35166665306E+02  0.00000000000E+00 0.  1.
        -13    1    3    3    0    0  0.38909032700E+02  0.70306127279E+01 -0.17826442885E+02  0.43371931095E+02  0.00000000000E+00 0. -1.
         13    1    3    3    0    0 -0.47730902632E+02 -0.38682951636E+02  0.32977338753E+02  0.69728865505E+02  0.00000000000E+00 0.  1.
          2    1    1    2  501    0  0.21844184638E+02 -0.94185391166E+02 -0.20509490824E+02  0.98836711425E+02  0.00000000000E+00 0. -1.
<scales pt_clust_5="13000.00000" pt_clust_6="13000.00000" pt_clust_7="13000.00000" pt_clust_8="13000.00000" pt_clust_9="96.68540"></scales>
<clustering>
<clus scale="   80.855">  5  6 -1 -1</clus>
<clus scale="   96.685">  1  9  2 -1</clus>
<clus scale="  106.650">  1  5  2 -1</clus>
<clus scale="  107.157">  7  8 -1 -1</clus>
<clus scale="   96.685">  1  5  2 -1</clus>
</clustering>
</event>
<event>
 9    1  0.5981539E-005  0.1037465E+03  0.7546771E-02  0.1278406E+00
          1   -1    0    0  502    0 -0.00000000000E+00  0.00000000000E+00  0.83040875516E+03  0.83040875516E+03  0.00000000000E+00 0. -1.
         21   -1    0    0  501  502  0.00000000000E+00 -0.00000000000E+00 -0.11338287221E+03  0.11338287221E+03  0.00000000000E+00 0. -1.
        -24    2    1    2    0    0  0.57679037618E+02  0.18995281292E+01  0.74061706190E+03  0.74674576989E+03  0.76060061026E+02 0.  0.
         23    2    1    2    0    0  0.10682375342E+02 -0.47814233443E+02  0.20427754271E+02  0.10366968585E+03  0.89049405142E+02 0.  0.
         13    1    3    3    0    0  0.38061418690E+02 -0.33509258237E+02  0.29823865035E+03  0.30251914740E+03  0.00000000000E+00 0. -1.
        -14    1    3    3    0    0  0.19617618928E+02  0.35408786366E+02  0.44237841155E+03  0.44422662249E+03  0.00000000000E+00 0.  1.
        -11    1    4    4    0    0 -0.25492130647E+02  0.12153872270E+02  0.18204924363E+02  0.33600366175E+02  0.00000000000E+00 0.  1.
         11    1    4    4    0    0  0.36174505989E+02 -0.59968105713E+02  0.22228299081E+01  0.70069319671E+02  0.00000000000E+00 0. -1.
          2    1    1    2  501    0 -0.68361412960E+02  0.45914705314E+02 -0.44018933219E+02  0.93376171627E+02  0.00000000000E+00 0. -1.
<scales pt_clust_5="13000.00000" pt_clust_6="13000.00000" pt_clust_7="13000.00000" pt_clust_8="13000.00000" pt_clust_9="82.34952"></scales>
<clustering>
<clus scale="   76.060">  5  6 -1 -1</clus>
<clus scale="   82.350">  2  9  1 -1</clus>
<clus scale="   89.049">  7  8 -1 -1</clus>
<clus scale="   92.837">  1  5  2 -1</clus>
<clus scale="   82.350">  2  5  1 -1</clus>
</clustering>
</event>
<event>
 9    1  0.5981539E-005  0.1373285E+03  0.7546771E-02  0.1219227E+00
         21   -1    0    0  501  502  0.00000000000E+00  0.00000000000E+00  0.22630350547E+03  0.22630350547E+03  0.00000000000E+00 0.  1.
          1   -1    0    0  502    0 -0.00000000000E+00 -0.00000000000E+00 -0.41184533976E+03  0.41184533976E+03  0.00000000000E+00 0. -1.
         23    2    1    2    0    0  0.14887470660E+01  0.96064333307E+02 -0.31384378715E+03  0.34079100770E+03  0.91706137730E+02 0.  0.
        -24    2    1    2    0    0 -0.29496875574E+02 -0.14084989228E+03  0.77434148556E+01  0.16573503311E+03  0.81849758101E+02 0.  0.
         11    1    4    4    0    0 -0.10254886057E+02 -0.94158872472E+02 -0.33569730190E+02  0.10048871946E+03  0.00000000000E+00 0. -1.
        -12    1    4    4    0    0 -0.19241989516E+02 -0.46691019812E+02  0.41313145045E+02  0.65246313652E+02  0.00000000000E+00 0.  1.
        -13    1    3    3    0    0 -0.17387258645E+02  0.73548816937E+02 -0.29795158640E+03  0.30738720382E+03  0.00000000000E+00 0. -1.
         13    1    3    3    0    0  0.18876005711E+02  0.22515516370E+02 -0.15892200751E+02  0.33403803881E+02  0.00000000000E+00 0.  1.
          2    1    1    2  501    0  0.28008128508E+02  0.44785558977E+02  0.12055853800E+03  0.13162280441E+03  0.00000000000E+00 0. -1.
<scales pt_clust_5="13000.00000" pt_clust_6="13000.00000" pt_clust_7="13000.00000" pt_clust_8="13000.00000" pt_clust_9="52.82236"></scales>
<clustering>
<clus scale="   52.822">  1  9  2 -1</clus>
<clus scale="   81.850">  5  6 -1 -1</clus>
<clus scale="   91.706">  7  8 -1 -1</clus>
<clus scale="  130.952">  1  5  2 -1</clus>
<clus scale="   52.822">  1  5  2 -1</clus>
</clustering>
</event>
<event>
 9    1  0.5981539E-005  0.1182976E+03  0.7546771E-02  0.1251161E+00
          1   -1    0    0  502    0 -0.00000000000E+00  0.00000000000E+00  0.38968136055E+03  0.38968136055E+03  0.00000000000E+00 0. -1.
         21   -1    0    0  501  502  0.00000000000E+00 -0.00000000000E+00 -0.39955535600E+02  0.39955535600E+02  0.00000000000E+00 0. -1.
        -24    2    1    2    0    0  0.64835962961E+02 -0.27004914649E+02  0.14882274065E+03  0.18096034440E+03  0.75269320444E+02 0.  0.
         23    2    1    2    0    0 -0.67115401101E+02  0.49428965624E+02  0.16203788309E+03  0.20374841173E+03  0.91156129920E+02 0.  0.
         11    1    3    3    0    0  0.72285363457E+02 -0.79784355425E+01  0.14178742148E+03  0.15935024975E+03  0.00000000000E+00 0. -1.
        -12    1    3    3    0    0 -0.74494004962E+01 -0.19026479107E+02  0.70353191733E+01  0.21610094651E+02  0.00000000000E+00 0.  1.
        -11    1    4    4    0    0 -0.83556814031E+02  0.15796610172E+02  0.12418975173E+03  0.15051368210E+03  0.00000000000E+00 0. -1.
         11    1    4    4    0    0  0.16441412930E+02  0.33632355452E+02  0.37848131354E+02  0.53234729636E+02  0.00000000000E+00 0.  1.
          2    1    1    2  501    0  0.22794381396E+01 -0.22424050974E+02  0.38865201208E+02  0.44928140016E+02  0.00000000000E+00 0. -1.
<scales pt_clust_5="13000.00000" pt_clust_6="13000.00000" pt_clust_7="13000.00000" pt_clust_8="13000.00000" pt_clust_9="22.53962"></scales>
<clustering>
<clus scale="   22.540">  2  9  1 -1</clus>
<clus scale="   75.269">  5  6 -1 -1</clus>
<clus scale="   91.156">  7  8 -1 -1</clus>
<clus scale="  106.538">  1  5  2 -1</clus>
<clus scale="   22.540">  2  5  1 -1</clus>
</clustering>
</event>
<event>
 9    1  0.5981539E-005  0.1200342E+03  0.7546771E-02  0.1246071E+00
         21   -1    0    0  501  502  0.00000000000E+00  0.00000000000E+00  0.82926553539E+02  0.82926553539E+02  0.00000000000E+00 0. -1.
          1   -1    0    0  502    0 -0.00000000000E+00 -0.00000000000E+00 -0.50015790299E+03  0.50015790299E+03  0.00000000000E+00 0. -1.
        -24    2    1    2    0    0 -0.85539540804E+02 -0.15112058998E+02 -0.41165500483E+03  0.42845475895E+03  0.81044741337E+02 0.  0.
         23    2    1    2    0    0  0.29665636987E+02 -0.52855888985E+00  0.54164426760E+01  0.95575794844E+02  0.90692145836E+02 0.  0.
         11    1    3    3    0    0 -0.75920448230E+02  0.91939313874E+01 -0.18337162788E+03  0.19867963344E+03  0.00000000000E+00 0. -1.
        -12    1    3    3    0    0 -0.96190925748E+01 -0.24305990385E+02 -0.22828337695E+03  0.22977512551E+03  0.00000000000E+00 0.  1.
        -11    1    4    4    0    0  0.48954894822E+02  0.31366732490E+02  0.27745881365E+01  0.58207834297E+02  0.00000000000E+00 0.  1.
         11    1    4    4    0    0 -0.19289257835E+02 -0.31895291380E+02  0.26418545395E+01  0.37367960547E+02  0.00000000000E+00 0. -1.
          2    1    1    2  501    0  0.55873903817E+02  0.15640617888E+02 -0.10992787297E+02  0.59053902735E+02  0.00000000000E+00 0. -1.
<scales pt_clust_5="13000.00000" pt_clust_6="13000.00000" pt_clust_7="13000.00000" pt_clust_8="13000.00000" pt_clust_9="58.02174"></scales>
<clustering>
<clus scale="   58.022">  1  9  2 -1</clus>
<clus scale="   81.045">  5  6 -1 -1</clus>
<clus scale="   90.692">  7  8 -1 -1</clus>
<clus scale="  112.922">  2  5  1 -1</clus>
<clus scale="   58.022">  1  5  2 -1</clus>
</clustering>
</event>
<event>
 9    1  0.5981539E-005  0.1583222E+03  0.7546771E-02  0.1207358E+00
         -2   -1    0    0    0  501 -0.00000000000E+00  0.00000000000E+00  0.13604908634E+03  0.13604908634E+03  0.00000000000E+00 0.  1.
         21   -1    0    0  501  502  0.00000000000E+00 -0.00000000000E+00 -0.37609546718E+03  0.37609546718E+03  0.00000000000E+00 0.  1.
        -24    2    1    2    0    0 -0.72026347439E+02  0.22147013378E+02 -0.83307111054E+02  0.13795156254E+03  0.80076675300E+02 0.  0.
         23    2    1    2    0    0 -0.34601427473E+02 -0.12170537500E+03 -0.16523909255E+03  0.22806429175E+03  0.93273288675E+02 0.  0.
         13    1    3    3    0    0 -0.65934206420E+02  0.44694939537E+02 -0.82356892499E+02  0.11457580433E+03  0.00000000000E+00 0. -1.
        -14    1    3    3    0    0 -0.60921410188E+01 -0.22547926159E+02 -0.95021855436E+00  0.23375758203E+02  0.00000000000E+00 0.  1.
        -13    1    4    4    0    0  0.28728182610E+02 -0.27432134314E+02 -0.22482875481E+02  0.45643292595E+02  0.00000000000E+00 0. -1.
         13    1    4    4    0    0 -0.63329610083E+02 -0.94273240688E+02 -0.14275621707E+03  0.18242099916E+03  0.00000000000E+00 0.  1.
         -1    1    1    2    0  502  0.10662777491E+03  0.99558361623E+02  0.84998227521E+01  0.14612869923E+03  0.00000000000E+00 0.  1.
<scales pt_clust_5="13000.00000" pt_clust_6="13000.00000" pt_clust_7="13000.00000" pt_clust_8="13000.00000" pt_clust_9="127.92979"></scales>
<clustering>
<clus scale="   80.077">  5  6 -1 -1</clus>
<clus scale="   93.273">  7  8 -1 -1</clus>
<clus scale="  109.957">  1  5  2 -1</clus>
<clus scale="  127.930">  2  9  1 -1</clus>
<clus scale="  127.930">  2  5  1 -1</clus>
</clustering>
</event>
<event>
 9    1  0.5981539E-005  0.1036972E+03  0.7546771E-02  0.1281871E+00
         21   -1    0    0  501  502  0.00000000000E+00  0.00000000000E+00  0.19178507076E+02  0.19178507076E+02  0.00000000000E+00 0. -1.
          3   -1    0    0  502    0 -0.00000000000E+00 -0.00000000000E+00 -0.10224853368E+04  0.10224853368E+04  0.00000000000E+00 0. -1.
        -24    2    1    2    0    0  0.12542227376E+02  0.17028064100E+02 -0.72956160649E+03  0.73460113381E+03  0.83255184253E+02 0.  0.
         23    2    1    2    0    0 -0.21565508755E+02 -0.43113951766E+02 -0.22003665573E+03  0.24667642548E+03  0.10054474137E+03 0.  0.
         11    1    3    3    0    0  0.77997346745E+01  0.35652384308E+02 -0.13851715182E+03  0.14324430082E+03  0.00000000000E+00 0. -1.
        -12    1    3    3    0    0  0.47424927015E+01 -0.18624320208E+02 -0.59104445467E+03  0.59135683300E+03  0.00000000000E+00 0.  1.
        -11    1    4    4    0    0 -0.50297801202E+02  0.96435448253E+01 -0.10894052721E+03  0.12037817590E+03  0.00000000000E+00 0.  1.
         11    1    4    4    0    0  0.28732292448E+02 -0.52757496591E+02 -0.11109612852E+03  0.12629824958E+03  0.00000000000E+00 0. -1.
          4    1    1    2  501    0  0.90232813786E+01  0.26085887666E+02 -0.53708567489E+02  0.60386284568E+02  0.00000000000E+00 0. -1.
<scales pt_clust_5="13000.00000" pt_clust_6="13000.00000" pt_clust_7="13000.00000" pt_clust_8="13000.00000" pt_clust_9="27.60241"></scales>
<clustering>
<clus scale="   27.602">  1  9  2 -1</clus>
<clus scale="   83.255">  5  6 -1 -1</clus>
<clus scale="   87.036">  2  5  1 -1</clus>
<clus scale="  100.545">  7  8 -1 -1</clus>
<clus scale="   27.602">  1  5  2 -1</clus>
</clustering>
</event>
<event>
 9    1  0.5981539E-005  0.9713040E+02  0.7546771E-02  0.1290425E+00
         -4   -1    0    0    0  501 -0.00000000000E+00  0.00000000000E+00  0.25995424914E+03  0.25995424914E+03  0.00000000000E+00 0.  1.
         21   -1    0    0  501  502  0.00000000000E+00 -0.00000000000E+00 -0.71007215773E+02  0.71007215773E+02  0.00000000000E+00 0. -1.
         23    2    1    2    0    0  0.39567331534E+02 -0.36705085933E+02  0.16607231832E+03  0.19508293303E+03  0.86974127111E+02 0.  0.
        -24    2    1    2    0    0 -0.28951138093E+02 -0.11080018717E+02  0.12970872395E+02  0.85936506606E+02  0.79094275553E+02 0.  0.
         11    1    4    4    0    0 -0.47384582972E+02 -0.25659095000E+02 -0.79533132984E+01  0.54469652579E+02  0.00000000000E+00 0. -1.
        -12    1    4    4    0    0  0.18433444879E+02  0.14579076283E+02  0.20924185694E+02  0.31466854027E+02  0.00000000000E+00 0.  1.
        -11    1    3    3    0    0  0.65492384376E+02 -0.39176599900E+02  0.12414265684E+03  0.14572390895E+03  0.00000000000E+00 0.  1.
         11    1    3    3    0    0 -0.25925052842E+02  0.24715139662E+01  0.41929661480E+02  0.49359024079E+02  0.00000000000E+00 0. -1.
         -3    1    1    2    0  502 -0.10616193441E+02  0.47785104651E+02  0.99038426450E+01  0.49942025277E+02  0.00000000000E+00 0.  1.
<scales pt_clust_5="13000.00000" pt_clust_6="13000.00000" pt_clust_7="13000.00000" pt_clust_8="13000.00000" pt_clust_9="48.95018"></scales>
<clustering>
<clus scale="   48.950">  2  9  1 -1</clus>
<clus scale="   79.094">  5  6 -1 -1</clus>
<clus scale="   86.974">  7  8 -1 -1</clus>
<clus scale="   90.143">  2  5  1 -1</clus>
<clus scale="   48.950">  2  5  1 -1</clus>
</clustering>
</event>
<event>
 9    1  0.5981539E-005  0.2508209E+03  0.7546771E-02  0.1144708E+00
         21   -1    0    0  501  502  0.00000000000E+00  0.00000000000E+00  0.28379391750E+03  0.28379391750E+03  0.00000000000E+00 0. -1.
          1   -1    0    0  502    0 -0.00000000000E+00 -0.00000000000E+00 -0.44002203690E+03  0.44002203690E+03  0.00000000000E+00 0. -1.
         23    2    1    2    0    0 -0.28680735896E+02  0.62029207200E+02 -0.70067061821E+02  0.13406843674E+03  0.91622843339E+02 0.  0.
        -24    2    1    2    0    0 -0.21072005850E+03 -0.36651368275E+01 -0.21487451176E+03  0.31174345590E+03  0.81219149290E+02 0.  0.
         13    1    4    4    0    0 -0.21427374100E+03 -0.88501106406E+01 -0.21701631893E+03  0.30510267653E+03  0.00000000000E+00 0. -1.
        -14    1    4    4    0    0  0.35536825019E+01  0.51849738131E+01  0.21418071701E+01  0.66407793760E+01  0.00000000000E+00 0.  1.
        -11    1    3    3    0    0 -0.29856352465E+02  0.84401275866E+02 -0.66177605775E+02  0.11133037616E+03  0.00000000000E+00 0. -1.
         11    1    3    3    0    0  0.11756165690E+01 -0.22372068666E+02 -0.38894560452E+01  0.22738060582E+02  0.00000000000E+00 0.  1.
          2    1    1    2  501    0  0.23940079439E+03 -0.58364070373E+02  0.12871345418E+03  0.27800406176E+03  0.00000000000E+00 0. -1.
<scales pt_clust_5="13000.00000" pt_clust_6="13000.00000" pt_clust_7="13000.00000" pt_clust_8="13000.00000" pt_clust_9="237.30690"></scales>
<clustering>
<clus scale="   81.219">  5  6 -1 -1</clus>
<clus scale="   91.623">  7  8 -1 -1</clus>
<clus scale="  114.302">  2  7  1 -1</clus>
<clus scale="  237.307">  1  9  2 -1</clus>
<clus scale="  237.307">  1  5  2 -1</clus>
</clustering>
</event>
<event>
 9    1  0.5981539E-005  0.1395423E+03  0.7546771E-02  0.1215976E+00
         21   -1    0    0  501  502  0.00000000000E+00  0.00000000000E+00  0.92115100158E+02  0.92115100158E+02  0.00000000000E+00 0. -1.
          1   -1    0    0  502    0 -0.00000000000E+00 -0.00000000000E+00 -0.45288007318E+03  0.45288007318E+03  0.00000000000E+00 0. -1.
         23    2    1    2    0    0  0.42078916308E+02 -0.95772873102E+02 -0.33928484847E+03  0.36623545457E+03  0.89839419853E+02 0.  0.
        -24    2    1    2    0    0 -0.26026572063E+02  0.11739906582E+03 -0.56996433683E+00  0.14466272818E+03  0.80418013871E+02 0.  0.
         13    1    4    4    0    0 -0.27850754014E+02  0.10698251992E+03 -0.29034267318E+02  0.11429747480E+03  0.00000000000E+00 0. -1.
        -14    1    4    4    0    0  0.18241819505E+01  0.10416545903E+02  0.28464302981E+02  0.30365253375E+02  0.00000000000E+00 0.  1.
        -13    1    3    3    0    0  0.42487526510E+02 -0.65434042651E+01 -0.16406782916E+03  0.16960618684E+03  0.00000000000E+00 0.  1.
         13    1    3    3    0    0 -0.40861020165E+00 -0.89229468837E+02 -0.17521701931E+03  0.19662926772E+03  0.00000000000E+00 0. -1.
          2    1    1    2  501    0 -0.16052344245E+02 -0.21626192721E+02 -0.20910160217E+02  0.34096990596E+02  0.00000000000E+00 0. -1.
<scales pt_clust_5="13000.00000" pt_clust_6="13000.00000" pt_clust_7="13000.00000" pt_clust_8="13000.00000" pt_clust_9="26.93269"></scales>
<clustering>
<clus scale="   26.933">  1  9  2 -1</clus>
<clus scale="   80.418">  5  6 -1 -1</clus>
<clus scale="   89.839">  7  8 -1 -1</clus>
<clus scale="  133.671">  1  5  2 -1</clus>
<clus scale="   26.933">  1  5  2 -1</clus>
</clustering>
</event>
<event>
 9    1  0.5981539E-005  0.1084866E+03  0.7546771E-02  0.1267892E+00
          1   -1    0    0  502    0 -0.00000000000E+00  0.00000000000E+00  0.32403848610E+03  0.32403848610E+03  0.00000000000E+00 0. -1.
         21   -1    0    0  501  502  0.00000000000E+00 -0.00000000000E+00 -0.75773900201E+02  0.75773900201E+02  0.00000000000E+00 0.  1.
        -24    2    1    2    0    0  0.17481974465E+02 -0.57289834935E+02  0.25033034903E+03  0.26996560562E+03  0.81414986079E+02 0.  0.
         23    2    1    2    0    0 -0.71237699712E-01  0.41264242362E+02 -0.16044265404E+02  0.10236311466E+03  0.92293260954E+02 0.  0.
         11    1    3    3    0    0  0.31288473228E+02 -0.40875308244E+02  0.24123839911E+03  0.24666926154E+03  0.00000000000E+00 0. -1.
        -12    1    3    3    0    0 -0.13806498763E+02 -0.16414526692E+02  0.90919499152E+01  0.23296344088E+02  0.00000000000E+00 0.  1.
        -11    1    4    4    0    0  0.27570182033E+02  0.19153124910E+02  0.29493686221E+02  0.44685955937E+02  0.00000000000E+00 0. -1.
         11    1    4    4    0    0 -0.27641419733E+02  0.22111117452E+02 -0.45537951624E+02  0.57677158720E+02  0.00000000000E+00 0.  1.
          2    1    1    2  501    0 -0.17410736765E+02  0.16025592573E+02  0.13978502277E+02  0.27483666021E+02  0.00000000000E+00 0. -1.
<scales pt_clust_5="13000.00000" pt_clust_6="13000.00000" pt_clust_7="13000.00000" pt_clust_8="13000.00000" pt_clust_9="23.66333"></scales>
<clustering>
<clus scale="   23.663">  2  9  1 -1</clus>
<clus scale="   81.415">  5  6 -1 -1</clus>
<clus scale="   92.293">  7  8 -1 -1</clus>
<clus scale="   99.397">  1  5  2 -1</clus>
<clus scale="   23.663">  2  5  1 -1</clus>
</clustering>
</event>
<event>
 9    1  0.5981539E-005  0.1126569E+03  0.7546771E-02  0.1259786E+00
          1   -1    0    0  502    0 -0.00000000000E+00  0.00000000000E+00  0.52286376742E+03  0.52286376742E+03  0.00000000000E+00 0. -1.
         21   -1    0    0  501  502  0.00000000000E+00 -0.00000000000E+00 -0.60847853513E+02  0.60847853513E+02  0.00000000000E+00 0.  1.
        -24    2    1    2    0    0  0.91499939800E+01 -0.63841312594E+02  0.16164256743E+03  0.19254435225E+03  0.82374585851E+02 0.  0.
         23    2    1    2    0    0 -0.88805226576E+02  0.32044674642E+02  0.80367032664E+02  0.15503433921E+03  0.93078230293E+02 0.  0.
         13    1    3    3    0    0  0.26120723376E+02 -0.18407006011E+02  0.10228075561E+02  0.33551804566E+02  0.00000000000E+00 0. -1.
        -14    1    3    3    0    0 -0.16970729396E+02 -0.45434306583E+02  0.15141449187E+03  0.15899254768E+03  0.00000000000E+00 0.  1.
        -13    1    4    4    0    0 -0.35461797521E+02  0.55444163920E+02  0.15044612575E+02  0.67512478578E+02  0.00000000000E+00 0.  1.
         13    1    4    4    0    0 -0.53343429055E+02 -0.23399489279E+02  0.65322420089E+02  0.87521860630E+02  0.00000000000E+00 0. -1.
          2    1    1    2  501    0  0.79655232596E+02  0.31796637952E+02  0.22000631382E+03  0.23613292948E+03  0.00000000000E+00 0. -1.
<scales pt_clust_5="13000.00000" pt_clust_6="13000.00000" pt_clust_7="13000.00000" pt_clust_8="13000.00000" pt_clust_9="85.76707"></scales>
<clustering>
<clus scale="   82.375">  5  6 -1 -1</clus>
<clus scale="   85.767">  2  9  1 -1</clus>
<clus scale="   93.078">  7  8 -1 -1</clus>
<clus scale="  103.988">  1  5  2 -1</clus>
<clus scale="   85.767">  2  5  1 -1</clus>
</clustering>
</event>
<event>
 9    1  0.5981539E-005  0.1043719E+03  0.7546771E-02  0.1276269E+00
         21   -1    0    0  501  502  0.00000000000E+00  0.00000000000E+00  0.21946423712E+03  0.21946423712E+03  0.00000000000E+00 0. -1.
          3   -1    0    0  502    0 -0.00000000000E+00 -0.00000000000E+00 -0.10148512505E+03  0.10148512505E+03  0.00000000000E+00 0. -1.
         23    2    1    2    0    0  0.82041918390E+01  0.48236888577E+02 -0.12044660524E+02  0.10466296000E+03  0.91734154846E+02 0.  0.
        -24    2    1    2    0    0  0.32103129850E+02 -0.54992299495E+02  0.14042259325E+03  0.17411471463E+03  0.80886743071E+02 0.  0.
         11    1    4    4    0    0  0.50920662872E+02 -0.62717047423E+02  0.97528395238E+02  0.12664173807E+03  0.00000000000E+00 0. -1.
        -12    1    4    4    0    0 -0.18817533022E+02  0.77247479288E+01  0.42894198015E+02  0.47472976555E+02  0.00000000000E+00 0.  1.
        -11    1    3    3    0    0  0.29803245585E+02  0.39284669415E+02 -0.43304759060E+02  0.65626373172E+02  0.00000000000E+00 0. -1.
         11    1    3    3    0    0 -0.21599053746E+02  0.89522191622E+01  0.31260098536E+02  0.39036586827E+02  0.00000000000E+00 0.  1.
          4    1    1    2  501    0 -0.40307321688E+02  0.67554109174E+01 -0.10398820662E+02  0.42171687535E+02  0.00000000000E+00 0. -1.
<scales pt_clust_5="13000.00000" pt_clust_6="13000.00000" pt_clust_7="13000.00000" pt_clust_8="13000.00000" pt_clust_9="40.86952"></scales>
<clustering>
<clus scale="   40.870">  1  9  2 -1</clus>
<clus scale="   80.887">  5  6 -1 -1</clus>
<clus scale="   91.734">  7  8 -1 -1</clus>
<clus scale="   94.979">  1  5  2 -1</clus>
<clus scale="   40.870">  1  5  2 -1</clus>
</clustering>
</event>
<event>
 9    1  0.5981539E-005  0.1090520E+03  0.7546771E-02  0.1266893E+00
         21   -1    0    0  501  502  0.00000000000E+00  0.00000000000E+00  0.90800822985E+02  0.90800822985E+02  0.00000000000E+00 0. -1.
          1   -1    0    0  502    0 -0.00000000000E+00 -0.00000000000E+00 -0.41163733989E+03  0.41163733989E+03  0.00000000000E+00 0. -1.
        -24    2    1    2    0    0 -0.20388792949E+02 -0.66270149310E+02 -0.27955120584E+03  0.29887068725E+03  0.79795836010E+02 0.  0.
         23    2    1    2    0    0 -0.31200430600E+02  0.41824188565E+02 -0.82178209905E+02  0.13334438712E+03  0.91130334002E+02 0.  0.
         13    1    3    3    0    0 -0.11300408679E+02 -0.57846697204E+02 -0.28032560120E+03  0.28645485212E+03  0.00000000000E+00 0. -1.
        -14    1    3    3    0    0 -0.90883842700E+01 -0.84234521063E+01  0.77439535556E+00  0.12415835139E+02  0.00000000000E+00 0.  1.
        -11    1    4    4    0    0 -0.53320519997E+02  0.44874508799E+02 -0.28658303827E+02  0.75353153690E+02  0.00000000000E+00 0. -1.
         11    1    4    4    0    0  0.22120089398E+02 -0.30503202339E+01 -0.53519906078E+02  0.57991233433E+02  0.00000000000E+00 0.  1.
          2    1    1    2  501    0  0.51589223548E+02  0.24445960745E+02  0.40892898839E+02  0.70223088500E+02  0.00000000000E+00 0. -1.
<scales pt_clust_5="13000.00000" pt_clust_6="13000.00000" pt_clust_7="13000.00000" pt_clust_8="13000.00000" pt_clust_9="57.08812"></scales>
<clustering>
<clus scale="   57.088">  1  9  2 -1</clus>
<clus scale="   79.796">  5  6 -1 -1</clus>
<clus scale="   91.130">  7  8 -1 -1</clus>
<clus scale="   99.775">  2  5  1 -1</clus>
<clus scale="   57.088">  1  5  2 -1</clus>
</clustering>
</event>
<event>
 9    1  0.5981539E-005  0.1443644E+03  0.7546771E-02  0.1207874E+00
          3   -1    0    0  502    0 -0.00000000000E+00  0.00000000000E+00  0.72957609876E+03  0.72957609876E+03  0.00000000000E+00 0. -1.
         21   -1    0    0  501  502  0.00000000000E+00 -0.00000000000E+00 -0.23610779311E+03  0.23610779311E+03  0.00000000000E+00 0. -1.
        -24    2    1    2    0    0  0.10891402009E+03 -0.48971896225E+01  0.40695187824E+03  0.42782932942E+03  0.74443654318E+02 0.  0.
         23    2    1    2    0    0 -0.16537404061E+03 -0.10428430409E+03  0.25440598820E+03  0.32977948681E+03  0.76212293619E+02 0.  0.
         13    1    3    3    0    0  0.11858645711E+03 -0.13025244658E+02  0.37221345494E+03  0.39086476030E+03  0.00000000000E+00 0. -1.
        -14    1    3    3    0    0 -0.96724370174E+01  0.81280550352E+01  0.34738423304E+02  0.36964569119E+02  0.00000000000E+00 0.  1.
        -13    1    4    4    0    0 -0.53653302797E+02  0.18781142976E+01  0.87028698374E+02  0.10225555513E+03  0.00000000000E+00 0.  1.
         13    1    4    4    0    0 -0.11172073782E+03 -0.10616241839E+03  0.16737728982E+03  0.22752393168E+03  0.00000000000E+00 0. -1.
          4    1    1    2  501    0  0.56460020524E+02  0.10918149371E+03 -0.16788956078E+03  0.20807507565E+03  0.00000000000E+00 0. -1.
<scales pt_clust_5="13000.00000" pt_clust_6="13000.00000" pt_clust_7="13000.00000" pt_clust_8="13000.00000" pt_clust_9="122.91596"></scales>
<clustering>
<clus scale="   74.444">  5  6 -1 -1</clus>
<clus scale="   76.212">  7  8 -1 -1</clus>
<clus scale="  122.916">  2  9  1 -1</clus>
<clus scale="  143.439">  1  5  2 -1</clus>
<clus scale="  122.916">  2  5  1 -1</clus>
</clustering>
</event>
<event>
 9    1  0.5981539E-005  0.9840045E+02  0.7546771E-02  0.1286450E+00
         -2   -1    0    0    0  501 -0.00000000000E+00  0.00000000000E+00  0.80664040277E+03  0.80664040277E+03  0.00000000000E+00 0.  1.
         21   -1    0    0  501  502  0.00000000000E+00 -0.00000000000E+00 -0.64863093392E+02  0.64863093392E+02  0.00000000000E+00 0. -1.
        -24    2    1    2    0    0 -0.32654731550E+02  0.31546345950E+02  0.69372419879E+03  0.70000646451E+03  0.81818597709E+02 0.  0.
         23    2    1    2    0    0  0.19895502600E+01 -0.53291191781E+02 -0.93622272426E+01  0.10286968520E+03  0.87467773503E+02 0.  0.
         13    1    3    3    0    0 -0.23839082995E+02 -0.21435137891E+02  0.13716378629E+03  0.14086046743E+03  0.00000000000E+00 0. -1.
        -14    1    3    3    0    0 -0.88156485558E+01  0.52981483841E+02  0.55656041250E+03  0.55914599708E+03  0.00000000000E+00 0.  1.
        -11    1    4    4    0    0 -0.23086861600E+02 -0.36447742275E+01 -0.34629738759E+02  0.41779257583E+02  0.00000000000E+00 0.  1.
         11    1    4    4    0    0  0.25076411860E+02 -0.49646417553E+02  0.25267511516E+02  0.61090427612E+02  0.00000000000E+00 0. -1.
         -1    1    1    2    0  502  0.30665181290E+02  0.21744845830E+02  0.57415337834E+02  0.68627346462E+02  0.00000000000E+00 0.  1.
<scales pt_clust_5="13000.00000" pt_clust_6="13000.00000" pt_clust_7="13000.00000" pt_clust_8="13000.00000" pt_clust_9="37.59244"></scales>
<clustering>
<clus scale="   37.592">  2  9  1 -1</clus>
<clus scale="   81.819">  5  6 -1 -1</clus>
<clus scale="   87.468">  7  8 -1 -1</clus>
<clus scale="   93.415">  1  5  2 -1</clus>
<clus scale="   37.592">  2  5  1 -1</clus>
</clustering>
</event>
<event>
 9    1  0.5981539E-005  0.1552419E+03  0.7546771E-02  0.1217149E+00
          1   -1    0    0  502    0 -0.00000000000E+00  0.00000000000E+00  0.10584173051E+03  0.10584173051E+03  0.00000000000E+00 0. -1.
         21   -1    0    0  501  502  0.00000000000E+00 -0.00000000000E+00 -0.35939106126E+03  0.35939106126E+03  0.00000000000E+00 0.  1.
        -24    2    1    2    0    0 -0.45703154936E+00 -0.51641094491E+02 -0.10933235604E+03  0.14464622865E+03  0.79384859190E+02 0.  0.
         23    2    1    2    0    0  0.42825480413E+02  0.14701898510E+03 -0.11683874898E+03  0.21269034113E+03  0.90206896592E+02 0.  0.
         13    1    3    3    0    0  0.31068455924E+02 -0.17474270621E+02 -0.13469338622E+02  0.38105408674E+02  0.00000000000E+00 0. -1.
        -14    1    3    3    0    0 -0.31525487474E+02 -0.34166823869E+02 -0.95863017415E+02  0.10654081998E+03  0.00000000000E+00 0.  1.
        -13    1    4    4    0    0  0.20027555381E+02  0.10603564333E+02 -0.58217686182E+02  0.62472694320E+02  0.00000000000E+00 0. -1.
         13    1    4    4    0    0  0.22797925031E+02  0.13641542077E+03 -0.58621062801E+02  0.15021764681E+03  0.00000000000E+00 0.  1.
          2    1    1    2  501    0 -0.42368448864E+02 -0.95377890609E+02 -0.27378225721E+02  0.10789622199E+03  0.00000000000E+00 0. -1.
<scales pt_clust_5="13000.00000" pt_clust_6="13000.00000" pt_clust_7="13000.00000" pt_clust_8="13000.00000" pt_clust_9="126.34391"></scales>
<clustering>
<clus scale="   79.385">  5  6 -1 -1</clus>
<clus scale="   90.207">  7  8 -1 -1</clus>
<clus scale="   94.705">  1  5  2 -1</clus>
<clus scale="  126.344">  2  9  1 -1</clus>
<clus scale="  126.344">  2  5  1 -1</clus>
</clustering>
</event>
<event>
 9    1  0.5981539E-005  0.1787951E+03  0.7546771E-02  0.1170331E+00
         21   -1    0    0  501  502  0.00000000000E+00  0.00000000000E+00  0.34319326433E+03  0.34319326433E+03  0.00000000000E+00 0. -1.
          1   -1    0    0  502    0 -0.00000000000E+00 -0.00000000000E+00 -0.13035931171E+03  0.13035931171E+03  0.00000000000E+00 0. -1.
        -24    2    1    2    0    0  0.94001297355E+02  0.94073511038E+02  0.56332422845E+02  0.16514593064E+03  0.80085998532E+02 0.  0.
         23    2    1    2    0    0 -0.11599106067E+03 -0.14629353672E+03  0.11025274923E+03  0.23526684449E+03  0.91318641924E+02 0.  0.
         13    1    3    3    0    0  0.50431412322E+02  0.91108237272E+02  0.61866547535E+02  0.12112600031E+03  0.00000000000E+00 0. -1.
        -14    1    3    3    0    0  0.43569885033E+02  0.29652737658E+01 -0.55341246900E+01  0.44019930331E+02  0.00000000000E+00 0.  1.
        -11    1    4    4    0    0 -0.11687149581E+03 -0.81126172459E+02  0.82239303984E+02  0.16432804238E+03  0.00000000000E+00 0.  1.
         11    1    4    4    0    0  0.88043514335E+00 -0.65167364266E+02  0.28013445246E+02  0.70938802118E+02  0.00000000000E+00 0. -1.
          2    1    1    2  501    0  0.21989763314E+02  0.52220025687E+02  0.46248780554E+02  0.73139800903E+02  0.00000000000E+00 0. -1.
<scales pt_clust_5="13000.00000" pt_clust_6="13000.00000" pt_clust_7="13000.00000" pt_clust_8="13000.00000" pt_clust_9="56.66110"></scales>
<clustering>
<clus scale="   56.661">  1  9  2 -1</clus>
<clus scale="   80.086">  5  6 -1 -1</clus>
<clus scale="   91.319">  7  8 -1 -1</clus>
<clus scale="  173.327">  2  5  1 -1</clus>
<clus scale="   56.661">  1  5  2 -1</clus>
</clustering>
</event>
<event>
 9    1  0.5981539E-005  0.9678057E+02  0.7546771E-02  0.1293580E+00
         -2   -1    0    0    0  501 -0.00000000000E+00  0.00000000000E+00  0.59534233025E+03  0.59534233025E+03  0.00000000000E+00 0.  1.
         21   -1    0    0  501  502  0.00000000000E+00 -0.00000000000E+00 -0.46413546583E+02  0.46413546583E+02  0.00000000000E+00 0. -1.
        -24    2    1    2    0    0 -0.45070092780E+01 -0.20806960043E+01  0.43552899569E+03  0.44392667092E+03  0.85794758795E+02 0.  0.
         23    2    1    2    0    0  0.30808184831E+01 -0.28967275125E+02  0.24851276648E+02  0.10398439045E+03  0.96677675992E+02 0.  0.
         11    1    3    3    0    0  0.27660585602E+02 -0.31766391270E+02  0.22074742483E+03  0.22473014301E+03  0.00000000000E+00 0. -1.
        -12    1    3    3    0    0 -0.32167594880E+02  0.29685695265E+02  0.21478157086E+03  0.21919652790E+03  0.00000000000E+00 0.  1.
        -11    1    4    4    0    0 -0.38350294096E+02  0.24950218289E+01 -0.11966003858E+02  0.40251154512E+02  0.00000000000E+00 0. -1.
         11    1    4    4    0    0  0.41431112579E+02 -0.31462296954E+02  0.36817280506E+02  0.63733235937E+02  0.00000000000E+00 0.  1.
         -1    1    1    2    0  502  0.14261907949E+01  0.31047971129E+02  0.88548511331E+02  0.93844815469E+02  0.00000000000E+00 0.  1.
<scales pt_clust_5="13000.00000" pt_clust_6="13000.00000" pt_clust_7="13000.00000" pt_clust_8="13000.00000" pt_clust_9="31.08073"></scales>
<clustering>
<clus scale="   31.081">  2  9  1 -1</clus>
<clus scale="   85.795">  5  6 -1 -1</clus>
<clus scale="   85.911">  1  5  2 -1</clus>
<clus scale="   96.678">  7  8 -1 -1</clus>
<clus scale="   31.081">  2  5  1 -1</clus>
</clustering>
</event>
<event>
 9    1  0.5981539E-005  0.1023387E+03  0.7546771E-02  0.1280082E+00
         -2   -1    0    0    0  501 -0.00000000000E+00  0.00000000000E+00  0.81956275298E+03  0.81956275298E+03  0.00000000000E+00 0.  1.
         21   -1    0    0  501  502  0.00000000000E+00 -0.00000000000E+00 -0.22042396093E+02  0.22042396093E+02  0.00000000000E+00 0.  1.
         23    2    1    2    0    0  0.62044096101E+02 -0.32549831540E+02  0.50012856308E+03  0.51303003222E+03  0.90345298470E+02 0.  0.
        -24    2    1    2    0    0 -0.12930284592E+02  0.21447736314E+02  0.22626456789E+03  0.24142865814E+03  0.80404879443E+02 0.  0.
         11    1    4    4    0    0 -0.42388074253E+02 -0.72167330311E+01  0.10938798195E+03  0.11753535923E+03  0.00000000000E+00 0. -1.
        -12    1    4    4    0    0  0.29457789661E+02  0.28664469345E+02  0.11687658594E+03  0.12389329891E+03  0.00000000000E+00 0.  1.
        -13    1    3    3    0    0  0.39395090530E+02 -0.63437897055E+02  0.36597441986E+03  0.37351521513E+03  0.00000000000E+00 0.  1.
         13    1    3    3    0    0  0.22649005571E+02  0.30888065515E+02  0.13415414321E+03  0.13951481708E+03  0.00000000000E+00 0. -1.
         -1    1    1    2    0  502 -0.49113811509E+02  0.11102095226E+02  0.71127225927E+02  0.87146458720E+02  0.00000000000E+00 0.  1.
<scales pt_clust_5="13000.00000" pt_clust_6="13000.00000" pt_clust_7="13000.00000" pt_clust_8="13000.00000" pt_clust_9="50.35298"></scales>
<clustering>
<clus scale="   50.353">  2  9  1 -1</clus>
<clus scale="   80.405">  5  6 -1 -1</clus>
<clus scale="   90.345">  7  8 -1 -1</clus>
<clus scale="   93.680">  2  5  1 -1</clus>
<clus scale="   50.353">  2  5  1 -1</clus>
</clustering>
</event>
<event>
 9    1  0.5981539E-005  0.1481476E+03  0.7546771E-02  0.1220447E+00
         21   -1    0    0  501  502  0.00000000000E+00  0.00000000000E+00  0.39281234573E+02  0.39281234573E+02  0.00000000000E+00 0.  1.
         -2   -1    0    0    0  501 -0.00000000000E+00 -0.00000000000E+00 -0.13326804281E+04  0.13326804281E+04  0.00000000000E+00 0.  1.
        -24    2    1    2    0    0  0.32732311486E+02 -0.49063843489E+02 -0.29628503782E+03  0.31324257350E+03  0.82809548139E+02 0.  0.
         23    2    1    2    0    0  0.23542604014E+02  0.14433388628E+03 -0.88219738807E+03  0.89919131526E+03  0.94266987842E+02 0.  0.
         13    1    3    3    0    0 -0.14696582208E+02 -0.46730766010E+02 -0.19962877736E+03  0.20555146015E+03  0.00000000000E+00 0. -1.
        -14    1    3    3    0    0  0.47428893695E+02 -0.23330774782E+01 -0.96656260458E+02  0.10769111334E+03  0.00000000000E+00 0.  1.
        -11    1    4    4    0    0  0.47960687729E+02  0.12813978446E+03 -0.80645888850E+03  0.81798286704E+03  0.00000000000E+00 0.  1.
         11    1    4    4    0    0 -0.24418083716E+02  0.16194101813E+02 -0.75738499573E+02  0.81208448227E+02  0.00000000000E+00 0. -1.
         -1    1    1    2    0  502 -0.56274915500E+02 -0.95270042788E+02 -0.11491676767E+03  0.15952777394E+03  0.00000000000E+00 0.  1.
<scales pt_clust_5="13000.00000" pt_clust_6="13000.00000" pt_clust_7="13000.00000" pt_clust_8="13000.00000" pt_clust_9="114.28666"></scales>
<clustering>
<clus scale="   82.810">  5  6 -1 -1</clus>
<clus scale="   94.267">  7  8 -1 -1</clus>
<clus scale="  101.667">  2  5  1 -1</clus>
<clus scale="  114.287">  1  9  2 -1</clus>
<clus scale="  114.287">  1  5  2 -1</clus>
</clustering>
</event>
<event>
 9    1  0.5981539E-005  0.1514818E+03  0.7546771E-02  0.1201077E+00
          1   -1    0    0  502    0 -0.00000000000E+00  0.00000000000E+00  0.16394199897E+03  0.16394199897E+03  0.00000000000E+00 0. -1.
         21   -1    0    0  501  502  0.00000000000E+00 -0.00000000000E+00 -0.29172155265E+03  0.29172155265E+03  0.00000000000E+00 0. -1.
         23    2    1    2    0    0  0.19145698474E+02 -0.14235253999E+03  0.11526354741E+02  0.17194555758E+03  0.93816920154E+02 0.  0.
        -24    2    1    2    0    0  0.53723618098E+02  0.72007204640E+02 -0.13667918267E+03  0.18240016150E+03  0.80730138584E+02 0.  0.
         13    1    4    4    0    0  0.31504833334E+02  0.52435247560E+02 -0.23695470554E+02  0.65600953003E+02  0.00000000000E+00 0. -1.
        -14    1    4    4    0    0  0.22218784764E+02  0.19571957080E+02 -0.11298371212E+03  0.11679920849E+03  0.00000000000E+00 0.  1.
        -11    1    3    3    0    0 -0.37365888025E+02 -0.44896939430E+02 -0.22258670306E+01  0.58454249137E+02  0.00000000000E+00 0.  1.
         11    1    3    3    0    0  0.56511586499E+02 -0.97455600556E+02  0.13752221771E+02  0.11349130844E+03  0.00000000000E+00 0. -1.
          2    1    1    2  501    0 -0.72869316572E+02  0.70345335346E+02 -0.26267257502E+01  0.10131783254E+03  0.00000000000E+00 0. -1.
<scales pt_clust_5="13000.00000" pt_clust_6="13000.00000" pt_clust_7="13000.00000" pt_clust_8="13000.00000" pt_clust_9="101.28383"></scales>
<clustering>
<clus scale="   80.730">  5  6 -1 -1</clus>
<clus scale="   93.817">  7  8 -1 -1</clus>
<clus scale="  101.284">  2  9  1 -1</clus>
<clus scale="  143.744">  2  5  1 -1</clus>
<clus scale="  101.284">  2  5  1 -1</clus>
</clustering>
</event>
<event>
 9    1  0.5981539E-005  0.1376159E+03  0.7546771E-02  0.1219319E+00
         21   -1    0    0  501  502  0.00000000000E+00  0.00000000000E+00  0.15049809150E+03  0.15049809150E+03  0.00000000000E+00 0. -1.
          1   -1    0    0  502    0 -0.00000000000E+00 -0.00000000000E+00 -0.24865779340E+03  0.24865779340E+03  0.00000000000E+00 0. -1.
        -24    2    1    2    0    0 -0.16461692136E+02 -0.58718846174E+02 -0.59521872504E+01  0.10063807416E+03  0.79835476033E+02 0.  0.
         23    2    1    2    0    0  0.84428384752E+02  0.13129999951E+03 -0.81102194813E+02  0.19846370911E+03  0.91882728556E+02 0.  0.
         13    1    3    3    0    0  0.17237152954E+01 -0.26921368425E+02 -0.41563386141E+02  0.49550442377E+02  0.00000000000E+00 0. -1.
        -14    1    3    3    0    0 -0.18185407431E+02 -0.31797477749E+02  0.35611198891E+02  0.51087631782E+02  0.00000000000E+00 0.  1.
        -11    1    4    4    0    0  0.41394175282E+02  0.13043793885E+03 -0.71341499165E+02  0.15432803745E+03  0.00000000000E+00 0. -1.
         11    1    4    4    0    0  0.43034209470E+02  0.86206065390E+00 -0.97606956475E+01  0.44135671659E+02  0.00000000000E+00 0.  1.
          2    1    1    2  501    0 -0.67966692616E+02 -0.72581153331E+02 -0.11105319839E+02  0.10005410163E+03  0.00000000000E+00 0. -1.
<scales pt_clust_5="13000.00000" pt_clust_6="13000.00000" pt_clust_7="13000.00000" pt_clust_8="13000.00000" pt_clust_9="99.43588"></scales>
<clustering>
<clus scale="   79.835">  5  6 -1 -1</clus>
<clus scale="   91.883">  7  8 -1 -1</clus>
<clus scale="   99.436">  1  9  2 -1</clus>
<clus scale="  129.882">  2  5  1 -1</clus>
<clus scale="   99.436">  1  5  2 -1</clus>
</clustering>
</event>
<event>
 9    1  0.5981539E-005  0.1107569E+03  0.7546771E-02  0.1265993E+00
         21   -1    0    0  501  502  0.00000000000E+00  0.00000000000E+00  0.33780076194E+03  0.33780076194E+03  0.00000000000E+00 0.  1.
          3   -1    0    0  502    0 -0.00000000000E+00 -0.00000000000E+00 -0.89423395272E+02  0.89423395272E+02  0.00000000000E+00 0. -1.
         23    2    1    2    0    0  0.82873043421E+01 -0.66362789545E+02  0.35138388185E+02  0.11961825979E+03  0.92742236877E+02 0.  0.
        -24    2    1    2    0    0  0.29128935153E+02  0.41929035494E+02  0.23912763784E+03  0.25596089769E+03  0.75679687437E+02 0.  0.
         11    1    4    4    0    0  0.20536075997E+02  0.99626439628E+01  0.10808669939E+02  0.25254940862E+02  0.00000000000E+00 0. -1.
        -12    1    4    4    0    0  0.85928591551E+01  0.31966391531E+02  0.22831896790E+03  0.23070595683E+03  0.00000000000E+00 0.  1.
        -11    1    3    3    0    0  0.39784143649E+02 -0.35652667784E+02 -0.12407204429E+02  0.54843682661E+02  0.00000000000E+00 0.  1.
         11    1    3    3    0    0 -0.31496839307E+02 -0.30710121761E+02  0.47545592615E+02  0.64774577127E+02  0.00000000000E+00 0. -1.
          4    1    1    2  501    0 -0.37416239495E+02  0.24433754051E+02 -0.25888659347E+02  0.51644999736E+02  0.00000000000E+00 0. -1.
<scales pt_clust_5="13000.00000" pt_clust_6="13000.00000" pt_clust_7="13000.00000" pt_clust_8="13000.00000" pt_clust_9="44.68764"></scales>
<clustering>
<clus scale="   44.688">  1  9  2 -1</clus>
<clus scale="   75.680">  5  6 -1 -1</clus>
<clus scale="   92.742">  7  8 -1 -1</clus>
<clus scale="   96.919">  1  5  2 -1</clus>
<clus scale="   44.688">  1  5  2 -1</clus>
</clustering>
</event>
<event>
 9    1  0.5981539E-005  0.1213828E+03  0.7546771E-02  0.1243407E+00
         21   -1    0    0  501  502  0.00000000000E+00  0.00000000000E+00  0.79232017411E+03  0.79232017411E+03  0.00000000000E+00 0.  1.
          1   -1    0    0  502    0 -0.00000000000E+00 -0.00000000000E+00 -0.74342924418E+02  0.74342924418E+02  0.00000000000E+00 0. -1.
         23    2    1    2    0    0 -0.54717080198E+02  0.64044435181E+02  0.30591611438E+02  0.12601861337E+03  0.88595686589E+02 0.  0.
        -24    2    1    2    0    0 -0.25093678699E+02 -0.11029060147E+03  0.59186529233E+03  0.60785667842E+03  0.79946905856E+02 0.  0.
         11    1    4    4    0    0  0.17212682810E+02 -0.22785384903E+02  0.52122824922E+02  0.59432643324E+02  0.00000000000E+00 0. -1.
        -12    1    4    4    0    0 -0.42306361510E+02 -0.87505216570E+02  0.53974246740E+03  0.54842403509E+03  0.00000000000E+00 0.  1.
        -13    1    3    3    0    0 -0.82532702907E+01  0.42037901066E+02  0.54497897291E+02  0.69320432815E+02  0.00000000000E+00 0.  1.
         13    1    3    3    0    0 -0.46463809907E+02  0.22006534116E+02 -0.23906285853E+02  0.56698180554E+02  0.00000000000E+00 0. -1.
          2    1    1    2  501    0  0.79810758897E+02  0.46246166291E+02  0.95520345933E+02  0.13278780674E+03  0.00000000000E+00 0. -1.
<scales pt_clust_5="13000.00000" pt_clust_6="13000.00000" pt_clust_7="13000.00000" pt_clust_8="13000.00000" pt_clust_9="92.24139"></scales>
<clustering>
<clus scale="   79.947">  5  6 -1 -1</clus>
<clus scale="   88.596">  7  8 -1 -1</clus>
<clus scale="   92.241">  1  9  2 -1</clus>
<clus scale="  115.222">  1  5  2 -1</clus>
<clus scale="   92.241">  1  5  2 -1</clus>
</clustering>
</event>
<event>
 9    1  0.5981539E-005  0.1252596E+03  0.7546771E-02  0.1237962E+00
         21   -1    0    0  501  502  0.00000000000E+00  0.00000000000E+00  0.25163166014E+03  0.25163166014E+03  0.00000000000E+00 0. -1.
          1   -1    0    0  502    0 -0.00000000000E+00 -0.00000000000E+00 -0.34830084500E+03  0.34830084500E+03  0.00000000000E+00 0. -1.
        -24    2    1    2    0    0  0.81925085663E+01  0.93147006081E+02 -0.28402452205E+03  0.30959785900E+03  0.80233554270E+02 0.  0.
         23    2    1    2    0    0  0.90005552226E+01 -0.49742436352E+02  0.80492409078E+01  0.10505044746E+03  0.91735959487E+02 0.  0.
         11    1    3    3    0    0 -0.13526318893E+02  0.98527472797E+02 -0.24790189138E+03  0.26710666774E+03  0.00000000000E+00 0. -1.
        -12    1    3    3    0    0  0.21718827459E+02 -0.53804667163E+01 -0.36122630668E+02  0.42491191260E+02  0.00000000000E+00 0.  1.
        -13    1    4    4    0    0  0.30037390573E+02 -0.98903542055E+01  0.39127490881E+02  0.50309288221E+02  0.00000000000E+00 0.  1.
         13    1    4    4    0    0 -0.21036835350E+02 -0.39852082146E+02 -0.31078249973E+02  0.54741159234E+02  0.00000000000E+00 0. -1.
          2    1    1    2  501    0 -0.17193063789E+02 -0.43404569729E+02  0.17930609629E+03  0.18528419868E+03  0.00000000000E+00 0. -1.
<scales pt_clust_5="13000.00000" pt_clust_6="13000.00000" pt_clust_7="13000.00000" pt_clust_8="13000.00000" pt_clust_9="46.68574"></scales>
<clustering>
<clus scale="   46.686">  1  9  2 -1</clus>
<clus scale="   80.234">  5  6 -1 -1</clus>
<clus scale="   91.736">  7  8 -1 -1</clus>
<clus scale="  117.098">  2  5  1 -1</clus>
<clus scale="   46.686">  1  5  2 -1</clus>
</clustering>
</event>
<event>
 9    1  0.5981539E-005  0.1351736E+03  0.7546771E-02  0.1221399E+00
         -2   -1    0    0    0  501 -0.00000000000E+00  0.00000000000E+00  0.17851867578E+03  0.17851867578E+03  0.00000000000E+00 0.  1.
         21   -1    0    0  501  502  0.00000000000E+00 -0.00000000000E+00 -0.14938153521E+03  0.14938153521E+03  0.00000000000E+00 0.  1.
         23    2    1    2    0    0 -0.72806472623E+02  0.57179424263E+02 -0.15567765689E+02  0.13032948458E+03  0.90405476647E+02 0.  0.
        -24    2    1    2    0    0  0.69433628405E+02 -0.84815728565E+02 -0.73893833704E+01  0.13850333773E+03  0.84343553458E+02 0.  0.
         13    1    4    4    0    0  0.42915096975E+02 -0.52949237523E+02  0.37176184237E+02  0.77636305792E+02  0.00000000000E+00 0. -1.
        -14    1    4    4    0    0  0.26518531430E+02 -0.31866491043E+02 -0.44565567608E+02  0.60867031937E+02  0.00000000000E+00 0.  1.
        -11    1    3    3    0    0  0.21372405461E+02  0.82071114484E+01  0.88650726068E+00  0.22911182612E+02  0.00000000000E+00 0. -1.
         11    1    3    3    0    0 -0.94178878085E+02  0.48972312814E+02 -0.16454272949E+02  0.10741830197E+03  0.00000000000E+00 0.  1.
         -1    1    1    2    0  502  0.33728442177E+01  0.27636304303E+02  0.52094289627E+02  0.59067388679E+02  0.00000000000E+00 0.  1.
<scales pt_clust_5="13000.00000" pt_clust_6="13000.00000" pt_clust_7="13000.00000" pt_clust_8="13000.00000" pt_clust_9="27.84138"></scales>
<clustering>
<clus scale="   27.841">  2  9  1 -1</clus>
<clus scale="   84.344">  5  6 -1 -1</clus>
<clus scale="   90.405">  7  8 -1 -1</clus>
<clus scale="  131.197">  2  5  1 -1</clus>
<clus scale="   27.841">  2  5  1 -1</clus>
</clustering>
</event>
<event>
 9    1  0.6284877E-005  0.1855681E+03  0.7546771E-02  0.1164148E+00
         21   -1    0    0  501  502  0.00000000000E+00  0.00000000000E+00  0.22670335646E+03  0.22670335646E+03  0.00000000000E+00 0. -1.
          1   -1    0    0  502    0 -0.00000000000E+00 -0.00000000000E+00 -0.34314696457E+03  0.34314696457E+03  0.00000000000E+00 0. -1.
        -24    2    1    2    0    0 -0.47762232768E+01 -0.12452909577E+03 -0.14481837203E+02  0.14889365554E+03  0.80182847610E+02 0.  0.
         23    2    1    2    0    0 -0.55077687014E+02  0.22794454248E+03  0.15636559488E+02  0.25330639705E+03  0.94484722270E+02 0.  0.
         11    1    3    3    0    0 -0.42436612301E+02 -0.64830618587E+02 -0.10547935147E+02  0.78199322924E+02  0.00000000000E+00 0. -1.
        -12    1    3    3    0    0  0.37660389024E+02 -0.59698477178E+02 -0.39339020555E+01  0.70694332617E+02  0.00000000000E+00 0.  1.
        -13    1    4    4    0    0 -0.76489969818E+02  0.14999196059E+03 -0.95319255730E+01  0.16863914530E+03  0.00000000000E+00 0. -1.
         13    1    4    4    0    0  0.21412282804E+02  0.77952581893E+02  0.25168485061E+02  0.84667251750E+02  0.00000000000E+00 0.  1.
          2    1    1    2  501    0  0.59853910291E+02 -0.10341544672E+03 -0.11759833039E+03  0.16765026844E+03  0.00000000000E+00 0. -1.
<scales pt_clust_5="13000.00000" pt_clust_6="13000.00000" pt_clust_7="13000.00000" pt_clust_8="13000.00000" pt_clust_9="119.48749"></scales>
<clustering>
<clus scale="   80.183">  5  6 -1 -1</clus>
<clus scale="   94.485">  7  8 -1 -1</clus>
<clus scale="  119.487">  1  9  2 -1</clus>
<clus scale="  178.710">  2  5  1 -1</clus>
<clus scale="  119.487">  1  5  2 -1</clus>
</clustering>
</event>
<event>
 9    1  0.5981539E-005  0.9440063E+02  0.7546771E-02  0.1299230E+00
         21   -1    0    0  501  502  0.00000000000E+00  0.00000000000E+00  0.12303749865E+03  0.12303749865E+03  0.00000000000E+00 0.  1.
          1   -1    0    0  502    0 -0.00000000000E+00 -0.00000000000E+00 -0.12538503990E+03  0.12538503990E+03  0.00000000000E+00 0. -1.
         23    2    1    2    0    0 -0.16308329127E+02  0.49815030138E+01 -0.71278352834E+02  0.11772840126E+03  0.92133576443E+02 0.  0.
        -24    2    1    2    0    0  0.24239350426E+02 -0.26243580736E+02  0.55467224949E+02  0.10430767841E+03  0.80791132510E+02 0.  0.
         11    1    4    4    0    0  0.52504201960E+02 -0.27266028081E+02  0.30403239067E+02  0.66516798303E+02  0.00000000000E+00 0. -1.
        -12    1    4    4    0    0 -0.28264851533E+02  0.10224473453E+01  0.25063985882E+02  0.37790880105E+02  0.00000000000E+00 0.  1.
        -11    1    3    3    0    0 -0.13981158581E+02  0.48080100099E+02 -0.44097546026E+02  0.66721528657E+02  0.00000000000E+00 0.  1.
         11    1    3    3    0    0 -0.23271705464E+01 -0.43098597086E+02 -0.27180806808E+02  0.51006872598E+02  0.00000000000E+00 0. -1.
          2    1    1    2  501    0 -0.79310212991E+01  0.21262077722E+02  0.13463586633E+02  0.26386458893E+02  0.00000000000E+00 0. -1.
<scales pt_clust_5="13000.00000" pt_clust_6="13000.00000" pt_clust_7="13000.00000" pt_clust_8="13000.00000" pt_clust_9="22.69311"></scales>
<clustering>
<clus scale="   22.693">  1  9  2 -1</clus>
<clus scale="   80.791">  5  6 -1 -1</clus>
<clus scale="   83.367">  1  5  2 -1</clus>
<clus scale="   92.134">  7  8 -1 -1</clus>
<clus scale="   22.693">  1  5  2 -1</clus>
</clustering>
</event>
<event>
 9    1  0.5981539E-005  0.9280897E+02  0.7546771E-02  0.1296451E+00
          1   -1    0    0  502    0 -0.00000000000E+00  0.00000000000E+00  0.14189132216E+03  0.14189132216E+03  0.00000000000E+00 0. -1.
         21   -1    0    0  501  502  0.00000000000E+00 -0.00000000000E+00 -0.20294137789E+03  0.20294137789E+03  0.00000000000E+00 0.  1.
         23    2    1    2    0    0  0.13825624030E+01  0.38289728798E+02  0.95315515094E+02  0.13188838168E+03  0.82713257674E+02 0.  0.
        -24    2    1    2    0    0 -0.47136737585E+00 -0.72581270064E+02 -0.12692964519E+03  0.16774239587E+03  0.82207746565E+02 0.  0.
         13    1    4    4    0    0  0.22874457590E+02  0.80458982090E+01 -0.17875584811E+02  0.30124970048E+02  0.00000000000E+00 0. -1.
        -14    1    4    4    0    0 -0.23345824966E+02 -0.80627168273E+02 -0.10905406038E+03  0.13761742583E+03  0.00000000000E+00 0.  1.
        -11    1    3    3    0    0 -0.27649233196E+02  0.32427077123E+02  0.13226809852E+02  0.44619994688E+02  0.00000000000E+00 0.  1.
         11    1    3    3    0    0  0.29031795599E+02  0.58626516748E+01  0.82088705243E+02  0.87268386996E+02  0.00000000000E+00 0. -1.
          2    1    1    2  501    0 -0.91119502712E+00  0.34291541266E+02 -0.29435925641E+02  0.45201922494E+02  0.00000000000E+00 0. -1.
<scales pt_clust_5="13000.00000" pt_clust_6="13000.00000" pt_clust_7="13000.00000" pt_clust_8="13000.00000" pt_clust_9="34.30365"></scales>
<clustering>
<clus scale="   34.304">  2  9  1 -1</clus>
<clus scale="   82.208">  5  6 -1 -1</clus>
<clus scale="   82.713">  7  8 -1 -1</clus>
<clus scale="   92.359">  2  5  1 -1</clus>
<clus scale="   34.304">  2  5  1 -1</clus>
</clustering>
</event>
<event>
 9    1  0.5981539E-005  0.1662596E+03  0.7546771E-02  0.1200422E+00
         21   -1    0    0  501  502  0.00000000000E+00  0.00000000000E+00  0.18494954575E+03  0.18494954575E+03  0.00000000000E+00 0. -1.
          1   -1    0    0  502    0 -0.00000000000E+00 -0.00000000000E+00 -0.28006334375E+03  0.28006334375E+03  0.00000000000E+00 0. -1.
        -24    2    1    2    0    0 -0.60144217940E+02  0.43021936853E+02  0.12789731901E+02  0.11101691135E+03  0.81810533321E+02 0.  0.
         23    2    1    2    0    0  0.17681944143E+03 -0.70742960170E+02 -0.10051871939E+03  0.23384566255E+03  0.91159748054E+02 0.  0.
         13    1    3    3    0    0  0.31901156342E+01  0.33239962721E+02 -0.20109419998E+02  0.38980260801E+02  0.00000000000E+00 0. -1.
        -14    1    3    3    0    0 -0.63334333574E+02  0.97819741322E+01  0.32899151899E+02  0.72036650553E+02  0.00000000000E+00 0.  1.
        -13    1    4    4    0    0  0.42759714035E+02 -0.32119886475E+02 -0.74848389548E+02  0.91991095599E+02  0.00000000000E+00 0.  1.
         13    1    4    4    0    0  0.13405972740E+03 -0.38623073695E+02 -0.25670329838E+02  0.14185456695E+03  0.00000000000E+00 0. -1.
          2    1    1    2  501    0 -0.11667522349E+03  0.27721023316E+02 -0.73848105085E+01  0.12015031559E+03  0.00000000000E+00 0. -1.
<scales pt_clust_5="13000.00000" pt_clust_6="13000.00000" pt_clust_7="13000.00000" pt_clust_8="13000.00000" pt_clust_9="139.04008"></scales>
<clustering>
<clus scale="   81.811">  5  6 -1 -1</clus>
<clus scale="   91.160">  7  8 -1 -1</clus>
<clus scale="  110.278">  2  5  1 -1</clus>
<clus scale="  139.040">  1  9  2 -1</clus>
<clus scale="  139.040">  1  5  2 -1</clus>
</clustering>
</event>
<event>
 9    1  0.5981539E-005  0.1238509E+03  0.7546771E-02  0.1241695E+00
         21   -1    0    0  501  502  0.00000000000E+00  0.00000000000E+00  0.10265731875E+03  0.10265731875E+03  0.00000000000E+00 0. -1.
          1   -1    0    0  502    0 -0.00000000000E+00 -0.00000000000E+00 -0.23294468451E+03  0.23294468451E+03  0.00000000000E+00 0. -1.
         23    2    1    2    0    0 -0.35521386121E+02  0.66742688261E+02 -0.13473958899E+03  0.17921866432E+03  0.90819697717E+02 0.  0.
        -24    2    1    2    0    0  0.61623095496E+00 -0.46748814286E+02 -0.57700865313E+01  0.11487887568E+03  0.10477609842E+03 0.  0.
         11    1    4    4    0    0  0.42989844655E+02  0.82627306107E+01  0.68285693151E+01  0.44306081067E+02  0.00000000000E+00 0. -1.
        -12    1    4    4    0    0 -0.42373613700E+02 -0.55011544897E+02 -0.12598655846E+02  0.70572794610E+02  0.00000000000E+00 0.  1.
        -11    1    3    3    0    0 -0.65400782883E+02  0.56497876305E+02 -0.94462716715E+02  0.12803311008E+03  0.00000000000E+00 0. -1.
         11    1    3    3    0    0  0.29879396762E+02  0.10244811956E+02 -0.40276872271E+02  0.51185554239E+02  0.00000000000E+00 0.  1.
          2    1    1    2  501    0  0.34905155166E+02 -0.19993873975E+02  0.10222309762E+02  0.41504463261E+02  0.00000000000E+00 0. -1.
<scales pt_clust_5="13000.00000" pt_clust_6="13000.00000" pt_clust_7="13000.00000" pt_clust_8="13000.00000" pt_clust_9="40.22592"></scales>
<clustering>
<clus scale="   40.226">  1  9  2 -1</clus>
<clus scale="   90.820">  7  8 -1 -1</clus>
<clus scale="  104.776">  5  6 -1 -1</clus>
<clus scale="  112.291">  2  7  1 -1</clus>
<clus scale="   40.226">  1  5  2 -1</clus>
</clustering>
</event>
<event>
 9    1  0.5981539E-005  0.1814738E+03  0.7546771E-02  0.1167587E+00
          1   -1    0    0  502    0 -0.00000000000E+00  0.00000000000E+00  0.10528793488E+04  0.10528793488E+04  0.00000000000E+00 0. -1.
         21   -1    0    0  501  502  0.00000000000E+00 -0.00000000000E+00 -0.40343008181E+02  0.40343008181E+02  0.00000000000E+00 0. -1.
         23    2    1    2    0    0  0.11818077496E+03 -0.13122406399E+03  0.49438339324E+03  0.53262995936E+03  0.89962678707E+02 0.  0.
        -24    2    1    2    0    0 -0.10073526081E+03  0.95311148240E+02  0.31153300258E+03  0.35015027952E+03  0.79502193682E+02 0.  0.
         13    1    4    4    0    0 -0.55348438867E+02  0.99904541626E+02  0.22006007333E+03  0.24793306152E+03  0.00000000000E+00 0. -1.
        -14    1    4    4    0    0 -0.45386821939E+02 -0.45933933857E+01  0.91472929258E+02  0.10221721800E+03  0.00000000000E+00 0.  1.
        -11    1    3    3    0    0  0.98894418342E+02 -0.13860597321E+03  0.38008329872E+03  0.41647933413E+03  0.00000000000E+00 0. -1.
         11    1    3    3    0    0  0.19286356618E+02  0.73819092243E+01  0.11430009452E+03  0.11615062523E+03  0.00000000000E+00 0.  1.
          2    1    1    2  501    0 -0.17445514154E+02  0.35912915749E+02  0.20661994477E+03  0.21044211807E+03  0.00000000000E+00 0. -1.
<scales pt_clust_5="13000.00000" pt_clust_6="13000.00000" pt_clust_7="13000.00000" pt_clust_8="13000.00000" pt_clust_9="39.92599"></scales>
<clustering>
<clus scale="   39.926">  2  9  1 -1</clus>
<clus scale="   79.502">  5  6 -1 -1</clus>
<clus scale="   89.963">  7  8 -1 -1</clus>
<clus scale="  176.522">  2  5  1 -1</clus>
<clus scale="   39.926">  2  5  1 -1</clus>
</clustering>
</event>
<event>
 9    1  0.5981539E-005  0.9584928E+02  0.7546771E-02  0.1294672E+00
          1   -1    0    0  502    0 -0.00000000000E+00  0.00000000000E+00  0.11063067238E+03  0.11063067238E+03  0.00000000000E+00 0. -1.
         21   -1    0    0  501  502  0.00000000000E+00 -0.00000000000E+00 -0.14635713701E+03  0.14635713701E+03  0.00000000000E+00 0.  1.
         23    2    1    2    0    0  0.28526558843E+02 -0.34964611918E+02 -0.16811418958E+02  0.10320659674E+03  0.91283564548E+02 0.  0.
        -24    2    1    2    0    0  0.14028491182E+02  0.18564029655E+02 -0.50107101534E+02  0.98528559045E+02  0.81582679298E+02 0.  0.
         13    1    4    4    0    0  0.28346236576E+02  0.24930151386E+02  0.77931797146E+01  0.38545495537E+02  0.00000000000E+00 0. -1.
        -14    1    4    4    0    0 -0.14317745394E+02 -0.63661217315E+01 -0.57900281249E+02  0.59983063508E+02  0.00000000000E+00 0.  1.
        -13    1    3    3    0    0  0.61422950482E+02 -0.16137598010E+02 -0.59908923515E+01  0.63789432562E+02  0.00000000000E+00 0.  1.
         13    1    3    3    0    0 -0.32896391638E+02 -0.18827013908E+02 -0.10820526606E+02  0.39417164174E+02  0.00000000000E+00 0. -1.
          2    1    1    2  501    0 -0.42555050025E+02  0.16400582263E+02  0.31192055865E+02  0.55252653604E+02  0.00000000000E+00 0. -1.
<scales pt_clust_5="13000.00000" pt_clust_6="13000.00000" pt_clust_7="13000.00000" pt_clust_8="13000.00000" pt_clust_9="45.60607"></scales>
<clustering>
<clus scale="   45.606">  2  9  1 -1</clus>
<clus scale="   81.583">  5  6 -1 -1</clus>
<clus scale="   86.661">  2  5  1 -1</clus>
<clus scale="   91.284">  7  8 -1 -1</clus>
<clus scale="   45.606">  2  5  1 -1</clus>
</clustering>
</event>
<event>
 9    1  0.5981539E-005  0.1256251E+03  0.7546771E-02  0.1249450E+00
          1   -1    0    0  502    0 -0.00000000000E+00  0.00000000000E+00  0.98401569207E+03  0.98401569207E+03  0.00000000000E+00 0. -1.
         21   -1    0    0  501  502  0.00000000000E+00 -0.00000000000E+00 -0.50722463727E+02  0.50722463727E+02  0.00000000000E+00 0. -1.
         23    2    1    2    0    0 -0.13270426752E+02  0.76134778460E+01  0.26097790576E+03  0.27673649464E+03  0.90771971998E+02 0.  0.
        -24    2    1    2    0    0  0.66450660895E+01  0.91040905513E+02  0.64399645441E+03  0.65514962639E+03  0.78466529749E+02 0.  0.
         11    1    4    4    0    0 -0.84479329142E+01  0.10115938410E+03  0.51837916783E+03  0.52822490494E+03  0.00000000000E+00 0. -1.
        -12    1    4    4    0    0  0.15092999004E+02 -0.10118478582E+02  0.12561728658E+03  0.12692472145E+03  0.00000000000E+00 0.  1.
        -11    1    3    3    0    0  0.36280563939E+02  0.16503412304E+02  0.14336464327E+03  0.14880209299E+03  0.00000000000E+00 0.  1.
         11    1    3    3    0    0 -0.49550990691E+02 -0.88899344577E+01  0.11761326249E+03  0.12793440166E+03  0.00000000000E+00 0. -1.
          2    1    1    2  501    0  0.66253606622E+01 -0.98654383359E+02  0.28318868171E+02  0.10285203476E+03  0.00000000000E+00 0. -1.
<scales pt_clust_5="13000.00000" pt_clust_6="13000.00000" pt_clust_7="13000.00000" pt_clust_8="13000.00000" pt_clust_9="98.10536"></scales>
<clustering>
<clus scale="   78.467">  5  6 -1 -1</clus>
<clus scale="   90.772">  7  8 -1 -1</clus>
<clus scale="   92.052">  1  7  2 -1</clus>
<clus scale="   98.105">  2  9  1 -1</clus>
<clus scale="   98.105">  2  5  1 -1</clus>
</clustering>
</event>
<event>
 9    1  0.5981539E-005  0.1909482E+03  0.7546771E-02  0.1158907E+00
          3   -1    0    0  502    0 -0.00000000000E+00  0.00000000000E+00  0.18496348700E+03  0.18496348700E+03  0.00000000000E+00 0. -1.
         21   -1    0    0  501  502  0.00000000000E+00 -0.00000000000E+00 -0.59592982517E+03  0.59592982517E+03  0.00000000000E+00 0. -1.
         23    2    1    2    0    0 -0.15948656525E+03  0.63474164478E+01 -0.80179412683E+02  0.20108434978E+03  0.92357583980E+02 0.  0.
        -24    2    1    2    0    0  0.18388917773E+03 -0.79253962247E+02 -0.41384158881E+03  0.46663242324E+03  0.79903301408E+02 0.  0.
         11    1    4    4    0    0  0.65085710548E+02 -0.64328839427E+01 -0.20816215640E+03  0.21819490157E+03  0.00000000000E+00 0. -1.
        -12    1    4    4    0    0  0.11880346718E+03 -0.72821078304E+02 -0.20567943240E+03  0.24843752167E+03  0.00000000000E+00 0.  1.
        -13    1    3    3    0    0 -0.34697898917E+02  0.29935949912E+02  0.79385690620E+01  0.46509420177E+02  0.00000000000E+00 0.  1.
         13    1    3    3    0    0 -0.12478866633E+03 -0.23588533464E+02 -0.88117981745E+02  0.15457492961E+03  0.00000000000E+00 0. -1.
          4    1    1    2  501    0 -0.24402612474E+02  0.72906545799E+02  0.83054663318E+02  0.11317653915E+03  0.00000000000E+00 0. -1.
<scales pt_clust_5="13000.00000" pt_clust_6="13000.00000" pt_clust_7="13000.00000" pt_clust_8="13000.00000" pt_clust_9="76.88210"></scales>
<clustering>
<clus scale="   76.882">  2  9  1 -1</clus>
<clus scale="   79.903">  5  6 -1 -1</clus>
<clus scale="   92.358">  7  8 -1 -1</clus>
<clus scale="  185.245">  2  5  1 -1</clus>
<clus scale="   76.882">  2  5  1 -1</clus>
</clustering>
</event>
<event>
 9    1  0.5981539E-005  0.1092163E+03  0.7546771E-02  0.1265269E+00
         -2   -1    0    0    0  501 -0.00000000000E+00  0.00000000000E+00  0.35199963738E+03  0.35199963738E+03  0.00000000000E+00 0.  1.
         21   -1    0    0  501  502  0.00000000000E+00 -0.00000000000E+00 -0.10785858159E+03  0.10785858159E+03  0.00000000000E+00 0. -1.
        -24    2    1    2    0    0  0.59620042113E+02  0.23177102602E+01  0.29793581605E+03  0.31538148589E+03  0.84497396173E+02 0.  0.
         23    2    1    2    0    0 -0.43630681619E+02 -0.23715390727E+02 -0.31328197836E+02  0.10957305411E+03  0.92513469677E+02 0.  0.
         13    1    3    3    0    0  0.47539174664E+02 -0.37565207187E+02  0.15257801065E+03  0.16416810668E+03  0.00000000000E+00 0. -1.
        -14    1    3    3    0    0  0.12080867449E+02  0.39882917447E+02  0.14535780540E+03  0.15121337921E+03  0.00000000000E+00 0.  1.
        -11    1    4    4    0    0 -0.17775635629E+02  0.26062762954E+02 -0.41945331761E+02  0.52484775806E+02  0.00000000000E+00 0.  1.
         11    1    4    4    0    0 -0.25855045990E+02 -0.49778153681E+02  0.10617133925E+02  0.57088278305E+02  0.00000000000E+00 0. -1.
         -1    1    1    2    0  502 -0.15989360494E+02  0.21397680467E+02 -0.22466562421E+02  0.34903678966E+02  0.00000000000E+00 0.  1.
<scales pt_clust_5="13000.00000" pt_clust_6="13000.00000" pt_clust_7="13000.00000" pt_clust_8="13000.00000" pt_clust_9="26.71180"></scales>
<clustering>
<clus scale="   26.712">  2  9  1 -1</clus>
<clus scale="   84.497">  5  6 -1 -1</clus>
<clus scale="   92.513">  7  8 -1 -1</clus>
<clus scale="  102.515">  1  5  2 -1</clus>
<clus scale="   26.712">  2  5  1 -1</clus>
</clustering>
</event>
<event>
 9    1  0.5981539E-005  0.8505446E+02  0.7546771E-02  0.1317207E+00
          1   -1    0    0  502    0 -0.00000000000E+00  0.00000000000E+00  0.17565278743E+03  0.17565278743E+03  0.00000000000E+00 0. -1.
         21   -1    0    0  501  502  0.00000000000E+00 -0.00000000000E+00 -0.15686737811E+03  0.15686737811E+03  0.00000000000E+00 0.  1.
         23    2    1    2    0    0  0.11471959606E+02  0.11812151279E+02  0.13119610838E+03  0.15659155896E+03  0.83889002308E+02 0.  0.
        -24    2    1    2    0    0  0.29528325514E+02 -0.12530697418E+02 -0.10100220368E+03  0.13336461411E+03  0.80967492013E+02 0.  0.
         13    1    4    4    0    0 -0.23083131374E+02  0.72269386077E+01 -0.95092923371E+01  0.25990118054E+02  0.00000000000E+00 0. -1.
        -14    1    4    4    0    0  0.52611456888E+02 -0.19757636026E+02 -0.91492911341E+02  0.10737449605E+03  0.00000000000E+00 0.  1.
        -13    1    3    3    0    0  0.48071029163E+01 -0.36360612936E+02  0.51400633521E+02  0.63144497289E+02  0.00000000000E+00 0.  1.
         13    1    3    3    0    0  0.66648566896E+01  0.48172764215E+02  0.79795474857E+02  0.93447061669E+02  0.00000000000E+00 0. -1.
          2    1    1    2  501    0 -0.41000285119E+02  0.71854613894E+00 -0.11408495378E+02  0.42563992473E+02  0.00000000000E+00 0. -1.
<scales pt_clust_5="13000.00000" pt_clust_6="13000.00000" pt_clust_7="13000.00000" pt_clust_8="13000.00000" pt_clust_9="41.00658"></scales>
<clustering>
<clus scale="   41.007">  2  9  1 -1</clus>
<clus scale="   80.967">  5  6 -1 -1</clus>
<clus scale="   82.174">  2  5  1 -1</clus>
<clus scale="   83.889">  7  8 -1 -1</clus>
<clus scale="   41.007">  2  5  1 -1</clus>
</clustering>
</event>
<event>
 9    1  0.5981539E-005  0.9562685E+02  0.7546771E-02  0.1294494E+00
         -4   -1    0    0    0  501 -0.00000000000E+00  0.00000000000E+00  0.16205994971E+03  0.16205994971E+03  0.00000000000E+00 0.  1.
         21   -1    0    0  501  502  0.00000000000E+00 -0.00000000000E+00 -0.92551516859E+02  0.92551516859E+02  0.00000000000E+00 0. -1.
         23    2    1    2    0    0  0.49379594351E+02  0.98408706900E+00  0.66707235360E+02  0.12263619947E+03  0.90279950189E+02 0.  0.
        -24    2    1    2    0    0 -0.17924393921E+01  0.17532211238E+01 -0.10738950921E+02  0.82423619373E+02  0.81682564483E+02 0.  0.
         13    1    4    4    0    0 -0.23267665076E+02 -0.24377732995E+02 -0.28576925075E+02  0.44184824893E+02  0.00000000000E+00 0. -1.
        -14    1    4    4    0    0  0.21475225684E+02  0.26130954119E+02  0.17837974155E+02  0.38238794480E+02  0.00000000000E+00 0.  1.
        -11    1    3    3    0    0 -0.26206941558E+02 -0.46338431801E+01  0.22783797784E+02  0.35033951103E+02  0.00000000000E+00 0.  1.
         11    1    3    3    0    0  0.75586535909E+02  0.56179302491E+01  0.43923437576E+02  0.87602248370E+02  0.00000000000E+00 0. -1.
         -3    1    1    2    0  502 -0.47587154959E+02 -0.27373081928E+01  0.13540148414E+02  0.49551647726E+02  0.00000000000E+00 0.  1.
<scales pt_clust_5="13000.00000" pt_clust_6="13000.00000" pt_clust_7="13000.00000" pt_clust_8="13000.00000" pt_clust_9="47.66584"></scales>
<clustering>
<clus scale="   47.666">  2  9  1 -1</clus>
<clus scale="   81.683">  5  6 -1 -1</clus>
<clus scale="   87.556">  2  5  1 -1</clus>
<clus scale="   90.280">  7  8 -1 -1</clus>
<clus scale="   47.666">  2  5  1 -1</clus>
</clustering>
</event>
<event>
 9    1  0.5981539E-005  0.2185558E+03  0.7546771E-02  0.1166872E+00
          1   -1    0    0  502    0 -0.00000000000E+00  0.00000000000E+00  0.13733022188E+04  0.13733022188E+04  0.00000000000E+00 0. -1.
         21   -1    0    0  501  502  0.00000000000E+00 -0.00000000000E+00 -0.10750675995E+03  0.10750675995E+03  0.00000000000E+00 0. -1.
         23    2    1    2    0    0 -0.38719216944E+02 -0.26115492672E+02  0.29392098873E+03  0.31135622476E+03  0.91498384503E+02 0.  0.
        -24    2    1    2    0    0 -0.15981763486E+03  0.86508643418E+02  0.93870501150E+03  0.95929941198E+03  0.77864249934E+02 0.  0.
         11    1    4    4    0    0 -0.14307879135E+03  0.51688136578E+02  0.83249419514E+03  0.84627997078E+03  0.00000000000E+00 0. -1.
        -12    1    4    4    0    0 -0.16738843514E+02  0.34820506840E+02  0.10621081636E+03  0.11301944121E+03  0.00000000000E+00 0.  1.
        -11    1    3    3    0    0  0.16876025580E+02  0.20636763788E+02  0.47704771866E+02  0.54648161157E+02  0.00000000000E+00 0.  1.
         11    1    3    3    0    0 -0.55595242525E+02 -0.46752256460E+02  0.24621621686E+03  0.25670806361E+03  0.00000000000E+00 0. -1.
          2    1    1    2  501    0  0.19853685181E+03 -0.60393150746E+02  0.33169458669E+02  0.21015334204E+03  0.00000000000E+00 0. -1.
<scales pt_clust_5="13000.00000" pt_clust_6="13000.00000" pt_clust_7="13000.00000" pt_clust_8="13000.00000" pt_clust_9="204.21508"></scales>
<clustering>
<clus scale="   77.864">  5  6 -1 -1</clus>
<clus scale="   91.498">  7  8 -1 -1</clus>
<clus scale="  102.729">  1  7  2 -1</clus>
<clus scale="  204.215">  2  9  1 -1</clus>
<clus scale="  204.215">  2  5  1 -1</clus>
</clustering>
</event>
<event>
 9    1  0.5981539E-005  0.2179521E+03  0.7546771E-02  0.1181347E+00
         -4   -1    0    0    0  501 -0.00000000000E+00  0.00000000000E+00  0.34040041185E+03  0.34040041185E+03  0.00000000000E+00 0.  1.
         21   -1    0    0  501  502  0.00000000000E+00 -0.00000000000E+00 -0.24321963732E+03  0.24321963732E+03  0.00000000000E+00 0. -1.
         23    2    1    2    0    0  0.99214986828E+01 -0.21507096291E+02  0.75657333500E+00  0.74568125185E+02  0.70702486260E+02 0.  0.
        -24    2    1    2    0    0 -0.16225399507E+03 -0.12650044078E+03 -0.82047710998E+02  0.23162870231E+03  0.67759194353E+02 0.  0.
         13    1    4    4    0    0 -0.11139132855E+03 -0.69793220841E+02 -0.82974675281E+02  0.15544747823E+03  0.00000000000E+00 0. -1.
        -14    1    4    4    0    0 -0.50862666528E+02 -0.56707219935E+02  0.92696428320E+00  0.76181224077E+02  0.00000000000E+00 0.  1.
        -13    1    3    3    0    0  0.27697121552E+02  0.87187973014E+01 -0.18630819098E+02  0.34500078100E+02  0.00000000000E+00 0.  1.
         13    1    3    3    0    0 -0.17775622869E+02 -0.30225893593E+02  0.19387392433E+02  0.40068047085E+02  0.00000000000E+00 0. -1.
         -3    1    1    2    0  502  0.15233249639E+03  0.14800753707E+03  0.17847191219E+03  0.27742322168E+03  0.00000000000E+00 0.  1.
<scales pt_clust_5="13000.00000" pt_clust_6="13000.00000" pt_clust_7="13000.00000" pt_clust_8="13000.00000" pt_clust_9="207.15180"></scales>
<clustering>
<clus scale="   67.759">  5  6 -1 -1</clus>
<clus scale="   70.702">  7  8 -1 -1</clus>
<clus scale="   74.564">  1  7  2 -1</clus>
<clus scale="  207.152">  2  9  1 -1</clus>
<clus scale="  207.152">  2  5  1 -1</clus>
</clustering>
</event>
<event>
 9    1  0.5981539E-005  0.9037398E+02  0.7546771E-02  0.1307130E+00
         -2   -1    0    0    0  501 -0.00000000000E+00  0.00000000000E+00  0.10189137544E+04  0.10189137544E+04  0.00000000000E+00 0.  1.
         21   -1    0    0  501  502  0.00000000000E+00 -0.00000000000E+00 -0.18029432789E+02  0.18029432789E+02  0.00000000000E+00 0.  1.
        -24    2    1    2    0    0  0.12391097677E+01 -0.26324141551E+02  0.51468416861E+03  0.52157956977E+03  0.80317858328E+02 0.  0.
         23    2    1    2    0    0  0.20390217360E+02 -0.16981075325E+02  0.15413173174E+03  0.17978559966E+03  0.88668783871E+02 0.  0.
         11    1    3    3    0    0 -0.26773059812E+02 -0.43457621612E+02  0.28078329077E+03  0.28538503462E+03  0.00000000000E+00 0. -1.
        -12    1    3    3    0    0  0.28012169580E+02  0.17133480061E+02  0.23390087784E+03  0.23619453516E+03  0.00000000000E+00 0.  1.
        -11    1    4    4    0    0 -0.26246774676E+02 -0.26697879289E+02  0.34079380018E+02  0.50626811886E+02  0.00000000000E+00 0.  1.
         11    1    4    4    0    0  0.46636992035E+02  0.97168039642E+01  0.12005235172E+03  0.12915878777E+03  0.00000000000E+00 0. -1.
         -1    1    1    2    0  502 -0.21629327127E+02  0.43305216876E+02  0.33206842130E+03  0.33557801779E+03  0.00000000000E+00 0.  1.
<scales pt_clust_5="13000.00000" pt_clust_6="13000.00000" pt_clust_7="13000.00000" pt_clust_8="13000.00000" pt_clust_9="48.40632"></scales>
<clustering>
<clus scale="   48.406">  2  9  1 -1</clus>
<clus scale="   80.318">  5  6 -1 -1</clus>
<clus scale="   82.196">  1  5  2 -1</clus>
<clus scale="   88.669">  7  8 -1 -1</clus>
<clus scale="   48.406">  2  5  1 -1</clus>
</clustering>
</event>
<event>
 9    1  0.5981539E-005  0.1788043E+03  0.7546771E-02  0.1170512E+00
         21   -1    0    0  501  502  0.00000000000E+00  0.00000000000E+00  0.41356224721E+02  0.41356224721E+02  0.00000000000E+00 0.  1.
          1   -1    0    0  502    0 -0.00000000000E+00 -0.00000000000E+00 -0.93733418103E+03  0.93733418103E+03  0.00000000000E+00 0. -1.
         23    2    1    2    0    0  0.55191714102E+02  0.15258054551E+03 -0.47199930098E+03  0.50763153064E+03  0.92625496495E+02 0.  0.
        -24    2    1    2    0    0 -0.22227493847E+02 -0.14162279701E+03 -0.29622598865E+03  0.33866757663E+03  0.79967574652E+02 0.  0.
         11    1    4    4    0    0  0.16463323251E+01 -0.73790440197E+02 -0.22758894597E+03  0.23925816141E+03  0.00000000000E+00 0. -1.
        -12    1    4    4    0    0 -0.23873826172E+02 -0.67832356813E+02 -0.68637042679E+02  0.99409415221E+02  0.00000000000E+00 0.  1.
        -11    1    3    3    0    0  0.74771759010E+02  0.72553023850E+02 -0.27675114528E+03  0.29571262000E+03  0.00000000000E+00 0.  1.
         11    1    3    3    0    0 -0.19580044907E+02  0.80027521656E+02 -0.19524815570E+03  0.21191891064E+03  0.00000000000E+00 0. -1.
          2    1    1    2  501    0 -0.32964220255E+02 -0.10957748497E+02 -0.12775266668E+03  0.13239129848E+03  0.00000000000E+00 0. -1.
<scales pt_clust_5="13000.00000" pt_clust_6="13000.00000" pt_clust_7="13000.00000" pt_clust_8="13000.00000" pt_clust_9="34.73778"></scales>
<clustering>
<clus scale="   34.738">  1  9  2 -1</clus>
<clus scale="   79.968">  5  6 -1 -1</clus>
<clus scale="   92.625">  7  8 -1 -1</clus>
<clus scale="  172.587">  1  5  2 -1</clus>
<clus scale="   34.738">  1  5  2 -1</clus>
</clustering>
</event>
<event>
 9    1  0.5981539E-005  0.2191745E+03  0.7546771E-02  0.1135185E+00
          1   -1    0    0  502    0 -0.00000000000E+00  0.00000000000E+00  0.40630531388E+03  0.40630531388E+03  0.00000000000E+00 0. -1.
         21   -1    0    0  501  502  0.00000000000E+00 -0.00000000000E+00 -0.42951078803E+03  0.42951078803E+03  0.00000000000E+00 0. -1.
         23    2    1    2    0    0  0.15969273886E+03 -0.14502751330E+03  0.30298295970E+03  0.38260265009E+03  0.89729390582E+02 0.  0.
        -24    2    1    2    0    0 -0.12444547537E+02  0.13070495053E+03 -0.22985728842E+03  0.27667208207E+03  0.80463762644E+02 0.  0.
         11    1    4    4    0    0  0.27401495418E+02  0.94447300353E+02 -0.12768160902E+03  0.16116366767E+03  0.00000000000E+00 0. -1.
        -12    1    4    4    0    0 -0.39846042954E+02  0.36257650179E+02 -0.10217567940E+03  0.11550841440E+03  0.00000000000E+00 0.  1.
        -11    1    3    3    0    0  0.87228652138E+02 -0.91683886138E+02  0.10249992841E+03  0.16285271891E+03  0.00000000000E+00 0. -1.
         11    1    3    3    0    0  0.72464086717E+02 -0.53343627164E+02  0.20048303129E+03  0.21974993119E+03  0.00000000000E+00 0.  1.
          2    1    1    2  501    0 -0.14724819132E+03  0.14322562769E+02 -0.96331145438E+02  0.17654136975E+03  0.00000000000E+00 0. -1.
<scales pt_clust_5="13000.00000" pt_clust_6="13000.00000" pt_clust_7="13000.00000" pt_clust_8="13000.00000" pt_clust_9="147.94312"></scales>
<clustering>
<clus scale="   80.464">  5  6 -1 -1</clus>
<clus scale="   89.729">  7  8 -1 -1</clus>
<clus scale="  147.943">  2  9  1 -1</clus>
<clus scale="  215.547">  2  5  1 -1</clus>
<clus scale="  147.943">  2  5  1 -1</clus>
</clustering>
</event>
<event>
 9    1  0.5981539E-005  0.1494012E+03  0.7546771E-02  0.1229612E+00
         21   -1    0    0  501  502  0.00000000000E+00  0.00000000000E+00  0.10201644913E+04  0.10201644913E+04  0.00000000000E+00 0.  1.
         -4   -1    0    0    0  501 -0.00000000000E+00 -0.00000000000E+00 -0.11184825009E+03  0.11184825009E+03  0.00000000000E+00 0.  1.
        -24    2    1    2    0    0 -0.15104026320E+02  0.20362335793E+01  0.79531192162E+02  0.11416721393E+03  0.80477725807E+02 0.  0.
         23    2    1    2    0    0 -0.52682343702E+02  0.95346900362E+02 -0.34618553100E+02  0.14632717026E+03  0.91360471716E+02 0.  0.
         11    1    3    3    0    0  0.24869890065E+02  0.22311072253E+02  0.51217464118E+02  0.61151647628E+02  0.00000000000E+00 0. -1.
        -12    1    3    3    0    0 -0.39973916385E+02 -0.20274838674E+02  0.28313728044E+02  0.53015566300E+02  0.00000000000E+00 0.  1.
        -13    1    4    4    0    0 -0.24492619536E+02  0.11984798028E+02 -0.50039643205E+02  0.56986750106E+02  0.00000000000E+00 0.  1.
         13    1    4    4    0    0 -0.28189724165E+02  0.83362102333E+02  0.15421090106E+02  0.89340420158E+02  0.00000000000E+00 0. -1.
         -3    1    1    2    0  502  0.67786370022E+02 -0.97383133941E+02  0.86340360215E+03  0.87151835721E+03  0.00000000000E+00 0.  1.
<scales pt_clust_5="13000.00000" pt_clust_6="13000.00000" pt_clust_7="13000.00000" pt_clust_8="13000.00000" pt_clust_9="118.21160"></scales>
<clustering>
<clus scale="   80.478">  5  6 -1 -1</clus>
<clus scale="   81.908">  2  5  1 -1</clus>
<clus scale="   91.360">  7  8 -1 -1</clus>
<clus scale="  118.212">  1  9  2 -1</clus>
<clus scale="  118.212">  1  5  2 -1</clus>
</clustering>
</event>
<event>
 9    1  0.5981539E-005  0.8318633E+02  0.7546771E-02  0.1322564E+00
          1   -1    0    0  502    0 -0.00000000000E+00  0.00000000000E+00  0.13979900186E+03  0.13979900186E+03  0.00000000000E+00 0. -1.
         21   -1    0    0  501  502  0.00000000000E+00 -0.00000000000E+00 -0.11778315955E+03  0.11778315955E+03  0.00000000000E+00 0. -1.
         23    2    1    2    0    0 -0.68877537841E+01 -0.20722939509E+02  0.85313642450E+02  0.12042399662E+03  0.82137932773E+02 0.  0.
        -24    2    1    2    0    0 -0.63219555098E+00 -0.12915999233E+02 -0.20811241110E+02  0.82447694707E+02  0.78722880400E+02 0.  0.
         11    1    4    4    0    0 -0.62713495892E+01 -0.45470436920E+02 -0.61848898556E+01  0.46315691962E+02  0.00000000000E+00 0. -1.
        -12    1    4    4    0    0  0.56391540382E+01  0.32554437687E+02 -0.14626351254E+02  0.36132002745E+02  0.00000000000E+00 0.  1.
        -13    1    3    3    0    0 -0.33536345237E+02 -0.36338620403E+02  0.70643142908E+02  0.86230130607E+02  0.00000000000E+00 0. -1.
         13    1    3    3    0    0  0.26648591453E+02  0.15615680894E+02  0.14670499542E+02  0.34193866015E+02  0.00000000000E+00 0.  1.
          2    1    1    2  501    0  0.75199493350E+01  0.33638938743E+02 -0.42486559034E+02  0.54710470079E+02  0.00000000000E+00 0. -1.
<scales pt_clust_5="13000.00000" pt_clust_6="13000.00000" pt_clust_7="13000.00000" pt_clust_8="13000.00000" pt_clust_9="34.46923"></scales>
<clustering>
<clus scale="   34.469">  2  9  1 -1</clus>
<clus scale="   78.723">  5  6 -1 -1</clus>
<clus scale="   79.816">  2  5  1 -1</clus>
<clus scale="   82.138">  7  8 -1 -1</clus>
<clus scale="   34.469">  2  5  1 -1</clus>
</clustering>
</event>
<event>
 9    1  0.5981539E-005  0.1083990E+03  0.7546771E-02  0.1266472E+00
         -2   -1    0    0    0  501 -0.00000000000E+00  0.00000000000E+00  0.42119906130E+03  0.42119906130E+03  0.00000000000E+00 0.  1.
         21   -1    0    0  501  502  0.00000000000E+00 -0.00000000000E+00 -0.19365050755E+03  0.19365050755E+03  0.00000000000E+00 0. -1.
        -24    2    1    2    0    0  0.17470897751E+02  0.57463722825E+02  0.80096249356E+02  0.13002407332E+03  0.82967094512E+02 0.  0.
         23    2    1    2    0    0  0.32580669034E+02  0.44598878374E+02 -0.13982444662E+03  0.17587587897E+03  0.91273703668E+02 0.  0.
         13    1    3    3    0    0  0.24913446431E+02  0.75722130114E+02  0.50178400707E+02  0.94193379277E+02  0.00000000000E+00 0. -1.
        -14    1    3    3    0    0 -0.74425486801E+01 -0.18258407289E+02  0.29917848649E+02  0.35830694040E+02  0.00000000000E+00 0.  1.
        -11    1    4    4    0    0 -0.86995433579E+01  0.34670031091E+02 -0.69909890756E+01  0.36422068018E+02  0.00000000000E+00 0.  1.
         11    1    4    4    0    0  0.41280212392E+02  0.99288472832E+01 -0.13283345755E+03  0.13945381095E+03  0.00000000000E+00 0. -1.
         -1    1    1    2    0  502 -0.50051566785E+02 -0.10206260120E+03  0.28727675102E+03  0.30894961657E+03  0.00000000000E+00 0.  1.
<scales pt_clust_5="13000.00000" pt_clust_6="13000.00000" pt_clust_7="13000.00000" pt_clust_8="13000.00000" pt_clust_9="58.47613"></scales>
<clustering>
<clus scale="   82.967">  5  6 -1 -1</clus>
<clus scale="   91.274">  7  8 -1 -1</clus>
<clus scale="  102.425">  1  5  2 -1</clus>
<clus scale="   58.476">  2  9  1 -1</clus>
<clus scale="   58.476">  2  5  1 -1</clus>
</clustering>
</event>
<event>
 9    1  0.5981539E-005  0.1993908E+03  0.7546771E-02  0.1151199E+00
         21   -1    0    0  501  502  0.00000000000E+00  0.00000000000E+00  0.39829874071E+03  0.39829874071E+03  0.00000000000E+00 0.  1.
          1   -1    0    0  502    0 -0.00000000000E+00 -0.00000000000E+00 -0.18796386717E+03  0.18796386717E+03  0.00000000000E+00 0. -1.
         23    2    1    2    0    0 -0.15635400136E+03  0.88928259849E+02 -0.81562869927E+02  0.21715436239E+03  0.90270184522E+02 0.  0.
        -24    2    1    2    0    0  0.13883956592E+03 -0.10020201176E+03  0.20123732078E+03  0.27608585479E+03  0.80062923487E+02 0.  0.
         11    1    4    4    0    0  0.79278217780E+02 -0.20893910050E+02  0.52644780205E+02  0.97432356917E+02  0.00000000000E+00 0. -1.
        -12    1    4    4    0    0  0.59561348135E+02 -0.79308101708E+02  0.14859254058E+03  0.17865349788E+03  0.00000000000E+00 0.  1.
        -11    1    3    3    0    0  0.32711386308E+01  0.26073991121E+02 -0.25642073075E+02  0.36716062868E+02  0.00000000000E+00 0.  1.
         11    1    3    3    0    0 -0.15962513999E+03  0.62854268728E+02 -0.55920796852E+02  0.18043829952E+03  0.00000000000E+00 0. -1.
          2    1    1    2  501    0  0.17514435441E+02  0.11273751909E+02  0.90660422684E+02  0.93022390704E+02  0.00000000000E+00 0. -1.
<scales pt_clust_5="13000.00000" pt_clust_6="13000.00000" pt_clust_7="13000.00000" pt_clust_8="13000.00000" pt_clust_9="20.82914"></scales>
<clustering>
<clus scale="   20.829">  1  9  2 -1</clus>
<clus scale="   80.063">  5  6 -1 -1</clus>
<clus scale="   90.270">  7  8 -1 -1</clus>
<clus scale="  194.982">  1  5  2 -1</clus>
<clus scale="   20.829">  1  5  2 -1</clus>
</clustering>
</event>
<event>
 9    1  0.5981539E-005  0.9666234E+02  0.7546771E-02  0.1299235E+00
         21   -1    0    0  501  502  0.00000000000E+00  0.00000000000E+00  0.43031313755E+03  0.43031313755E+03  0.00000000000E+00 0.  1.
          1   -1    0    0  502    0 -0.00000000000E+00 -0.00000000000E+00 -0.32252851293E+02  0.32252851293E+02  0.00000000000E+00 0. -1.
        -24    2    1    2    0    0 -0.16480972752E+02 -0.20701697138E+02  0.65822510146E+02  0.10263864758E+03  0.74174836763E+02 0.  0.
         23    2    1    2    0    0 -0.15567979482E+02  0.24599105806E+02  0.18835244977E+03  0.21246442297E+03  0.93898922798E+02 0.  0.
         11    1    3    3    0    0 -0.36163699790E+02 -0.36656809548E+02  0.32943061096E+02  0.61129208592E+02  0.00000000000E+00 0. -1.
        -12    1    3    3    0    0  0.19682727038E+02  0.15955112409E+02  0.32879449049E+02  0.41509438992E+02  0.00000000000E+00 0.  1.
        -11    1    4    4    0    0 -0.50234138453E+01  0.60441280656E+02  0.12444006538E+03  0.13843306313E+03  0.00000000000E+00 0. -1.
         11    1    4    4    0    0 -0.10544565636E+02 -0.35842174850E+02  0.63912384387E+02  0.74031359845E+02  0.00000000000E+00 0.  1.
          2    1    1    2  501    0  0.32048952233E+02 -0.38974086676E+01  0.14388532634E+03  0.14746291829E+03  0.00000000000E+00 0. -1.
<scales pt_clust_5="13000.00000" pt_clust_6="13000.00000" pt_clust_7="13000.00000" pt_clust_8="13000.00000" pt_clust_9="32.28506"></scales>
<clustering>
<clus scale="   32.285">  1  9  2 -1</clus>
<clus scale="   74.175">  5  6 -1 -1</clus>
<clus scale="   77.643">  2  5  1 -1</clus>
<clus scale="   93.899">  7  8 -1 -1</clus>
<clus scale="   32.285">  1  5  2 -1</clus>
</clustering>
</event>
<event>
 9    1  0.5981539E-005  0.1397419E+03  0.7546771E-02  0.1231494E+00
         21   -1    0    0  501  502  0.00000000000E+00  0.00000000000E+00  0.42539585331E+03  0.42539585331E+03  0.00000000000E+00 0. -1.
          1   -1    0    0  502    0 -0.00000000000E+00 -0.00000000000E+00 -0.21179499481E+03  0.21179499481E+03  0.00000000000E+00 0. -1.
        -24    2    1    2    0    0  0.34894696925E+02  0.39802778878E+02  0.80873953336E+02  0.12574117220E+03  0.80426021765E+02 0.  0.
         23    2    1    2    0    0 -0.13859972873E+03 -0.12315281443E+02 -0.14143914235E+03  0.21703955765E+03  0.87974926172E+02 0.  0.
         13    1    3    3    0    0  0.12073715747E+02  0.54452370153E+02  0.81331749870E+02  0.98618906728E+02  0.00000000000E+00 0. -1.
        -14    1    3    3    0    0  0.22820981177E+02 -0.14649591275E+02 -0.45779653413E+00  0.27122265467E+02  0.00000000000E+00 0.  1.
        -13    1    4    4    0    0 -0.86481901746E+02  0.32512881281E+02 -0.10265247954E+03  0.13810770556E+03  0.00000000000E+00 0. -1.
         13    1    4    4    0    0 -0.52117826981E+02 -0.44828162724E+02 -0.38786662812E+02  0.78931852091E+02  0.00000000000E+00 0.  1.
          2    1    1    2  501    0  0.10370503180E+03 -0.27487497436E+02  0.27416604751E+03  0.29441011828E+03  0.00000000000E+00 0. -1.
<scales pt_clust_5="13000.00000" pt_clust_6="13000.00000" pt_clust_7="13000.00000" pt_clust_8="13000.00000" pt_clust_9="108.57351"></scales>
<clustering>
<clus scale="   80.426">  5  6 -1 -1</clus>
<clus scale="   87.975">  7  8 -1 -1</clus>
<clus scale="   96.282">  2  5  1 -1</clus>
<clus scale="  108.574">  1  9  2 -1</clus>
<clus scale="  108.574">  1  5  2 -1</clus>
</clustering>
</event>
<event>
 9    1  0.5981539E-005  0.1588994E+03  0.7546771E-02  0.1191310E+00
          3   -1    0    0  502    0 -0.00000000000E+00  0.00000000000E+00  0.71753350085E+03  0.71753350085E+03  0.00000000000E+00 0. -1.
         21   -1    0    0  501  502  0.00000000000E+00 -0.00000000000E+00 -0.63487576152E+02  0.63487576152E+02  0.00000000000E+00 0. -1.
         23    2    1    2    0    0 -0.78320841184E+02  0.78272936475E+02  0.17945758139E+03  0.22951604951E+03  0.90618909270E+02 0.  0.
        -24    2    1    2    0    0  0.73884764979E+02 -0.14376775993E+03  0.20329353436E+03  0.27238117679E+03  0.82067758968E+02 0.  0.
         13    1    4    4    0    0  0.90834428667E+02 -0.11470028642E+03  0.15149326829E+03  0.21061163186E+03  0.00000000000E+00 0. -1.
        -14    1    4    4    0    0 -0.16949663688E+02 -0.29067473507E+02  0.51800266078E+02  0.61769544931E+02  0.00000000000E+00 0.  1.
        -13    1    3    3    0    0 -0.58511021202E+02  0.84504474989E+02  0.86715124715E+02  0.13447698223E+03  0.00000000000E+00 0. -1.
         13    1    3    3    0    0 -0.19809819982E+02 -0.62315385144E+01  0.92742456671E+02  0.95039067280E+02  0.00000000000E+00 0.  1.
          4    1    1    2  501    0  0.44360762046E+01  0.65494823456E+02  0.27129480895E+03  0.27912385071E+03  0.00000000000E+00 0. -1.
<scales pt_clust_5="13000.00000" pt_clust_6="13000.00000" pt_clust_7="13000.00000" pt_clust_8="13000.00000" pt_clust_9="65.64492"></scales>
<clustering>
<clus scale="   65.645">  2  9  1 -1</clus>
<clus scale="   82.068">  5  6 -1 -1</clus>
<clus scale="   90.619">  7  8 -1 -1</clus>
<clus scale="  154.183">  2  5  1 -1</clus>
<clus scale="   65.645">  2  5  1 -1</clus>
</clustering>
</event>
<event>
 9    1  0.5981539E-005  0.1654050E+03  0.7546771E-02  0.1185623E+00
         21   -1    0    0  501  502  0.00000000000E+00  0.00000000000E+00  0.60449834346E+03  0.60449834346E+03  0.00000000000E+00 0. -1.
          3   -1    0    0  502    0 -0.00000000000E+00 -0.00000000000E+00 -0.62445610191E+02  0.62445610191E+02  0.00000000000E+00 0. -1.
         23    2    1    2    0    0  0.90666950853E+02  0.98583696579E+02  0.11575664399E+03  0.20086164408E+03  0.94902888395E+02 0.  0.
        -24    2    1    2    0    0 -0.11328356837E+03 -0.84132860392E+02  0.38386461806E+03  0.41587506105E+03  0.75422253639E+02 0.  0.
         13    1    4    4    0    0 -0.12117365114E+03 -0.80952141557E+02  0.37905569911E+03  0.40610285148E+03  0.00000000000E+00 0. -1.
        -14    1    4    4    0    0  0.78900827662E+01 -0.31807188349E+01  0.48089189460E+01  0.97722095656E+01  0.00000000000E+00 0.  1.
        -11    1    3    3    0    0  0.49592380330E+02  0.55645263367E+02  0.44290766999E+01  0.74668709929E+02  0.00000000000E+00 0.  1.
         11    1    3    3    0    0  0.41074570523E+02  0.42938433212E+02  0.11132756729E+03  0.12619293415E+03  0.00000000000E+00 0. -1.
          4    1    1    2  501    0  0.22616617519E+02 -0.14450836187E+02  0.42431471223E+02  0.50207248527E+02  0.00000000000E+00 0. -1.
<scales pt_clust_5="13000.00000" pt_clust_6="13000.00000" pt_clust_7="13000.00000" pt_clust_8="13000.00000" pt_clust_9="26.83911"></scales>
<clustering>
<clus scale="   26.839">  1  9  2 -1</clus>
<clus scale="   75.422">  5  6 -1 -1</clus>
<clus scale="   94.903">  7  8 -1 -1</clus>
<clus scale="  155.051">  1  5  2 -1</clus>
<clus scale="   26.839">  1  5  2 -1</clus>
</clustering>
</event>
<event>
 9    1  0.5981539E-005  0.1177322E+03  0.7546771E-02  0.1250742E+00
          1   -1    0    0  502    0 -0.00000000000E+00  0.00000000000E+00  0.44340415463E+03  0.44340415463E+03  0.00000000000E+00 0. -1.
         21   -1    0    0  501  502  0.00000000000E+00 -0.00000000000E+00 -0.73919862840E+02  0.73919862840E+02  0.00000000000E+00 0.  1.
         23    2    1    2    0    0  0.62616852885E+02  0.35688150218E+02  0.34382872651E+03  0.36276447713E+03  0.90472970323E+02 0.  0.
        -24    2    1    2    0    0 -0.72938666867E+02 -0.53078559508E+02  0.43683403162E+02  0.12746767592E+03  0.78755228954E+02 0.  0.
         13    1    4    4    0    0 -0.53364518420E+01 -0.51562415036E+02  0.14562960164E+02  0.53844592777E+02  0.00000000000E+00 0. -1.
        -14    1    4    4    0    0 -0.67602215025E+02 -0.15161444726E+01  0.29120442998E+02  0.73623083138E+02  0.00000000000E+00 0.  1.
        -11    1    3    3    0    0 -0.21449900239E+02 -0.36245726660E+01  0.47526981571E+02  0.52269013044E+02  0.00000000000E+00 0.  1.
         11    1    3    3    0    0  0.84066753124E+02  0.39312722884E+02  0.29630174494E+03  0.31049546409E+03  0.00000000000E+00 0. -1.
          2    1    1    2  501    0  0.10321813982E+02  0.17390409290E+02 -0.18027837887E+02  0.27091864425E+02  0.00000000000E+00 0. -1.
<scales pt_clust_5="13000.00000" pt_clust_6="13000.00000" pt_clust_7="13000.00000" pt_clust_8="13000.00000" pt_clust_9="20.22291"></scales>
<clustering>
<clus scale="   20.223">  2  9  1 -1</clus>
<clus scale="   78.755">  5  6 -1 -1</clus>
<clus scale="   90.473">  7  8 -1 -1</clus>
<clus scale="  108.986">  2  5  1 -1</clus>
<clus scale="   20.223">  2  5  1 -1</clus>
</clustering>
</event>
<event>
 9    1  0.5981539E-005  0.1012573E+03  0.7546771E-02  0.1283510E+00
         21   -1    0    0  501  502  0.00000000000E+00  0.00000000000E+00  0.17606566609E+03  0.17606566609E+03  0.00000000000E+00 0. -1.
          3   -1    0    0  502    0 -0.00000000000E+00 -0.00000000000E+00 -0.17205756395E+03  0.17205756395E+03  0.00000000000E+00 0. -1.
        -24    2    1    2    0    0  0.47328498042E+02  0.29517032572E+02 -0.10425781344E+03  0.14330882541E+03  0.80972130005E+02 0.  0.
         23    2    1    2    0    0  0.20951120331E+02 -0.11008671483E+02  0.32271841190E+02  0.10098875723E+03  0.92720639888E+02 0.  0.
         13    1    3    3    0    0  0.48600793194E+02  0.13328354483E+02 -0.11381042873E+03  0.12446885482E+03  0.00000000000E+00 0. -1.
        -14    1    3    3    0    0 -0.12722951523E+01  0.16188678088E+02  0.95526152834E+01  0.18839970593E+02  0.00000000000E+00 0.  1.
        -13    1    4    4    0    0 -0.67296601367E+01  0.37833558284E+02  0.55965363639E+01  0.38832817015E+02  0.00000000000E+00 0.  1.
         13    1    4    4    0    0  0.27680780468E+02 -0.48842229767E+02  0.26675304826E+02  0.62155940211E+02  0.00000000000E+00 0. -1.
          4    1    1    2  501    0 -0.68279618373E+02 -0.18508361089E+02  0.75994074394E+02  0.10382564740E+03  0.00000000000E+00 0. -1.
<scales pt_clust_5="13000.00000" pt_clust_6="13000.00000" pt_clust_7="13000.00000" pt_clust_8="13000.00000" pt_clust_9="70.74366"></scales>
<clustering>
<clus scale="   70.744">  1  9  2 -1</clus>
<clus scale="   80.972">  5  6 -1 -1</clus>
<clus scale="   90.622">  2  5  1 -1</clus>
<clus scale="   92.721">  7  8 -1 -1</clus>
<clus scale="   70.744">  1  5  2 -1</clus>
</clustering>
</event>
<event>
 9    1  0.5981539E-005  0.2250147E+03  0.7546771E-02  0.1131164E+00
         21   -1    0    0  501  502  0.00000000000E+00  0.00000000000E+00  0.37428473831E+03  0.37428473831E+03  0.00000000000E+00 0.  1.
         -2   -1    0    0    0  501 -0.00000000000E+00 -0.00000000000E+00 -0.33790811869E+03  0.33790811869E+03  0.00000000000E+00 0.  1.
        -24    2    1    2    0    0  0.10718869447E+03  0.17393830595E+03 -0.19268336544E+03  0.29152572111E+03  0.78207520438E+02 0.  0.
         23    2    1    2    0    0 -0.13108121947E+03 -0.16825373212E+03  0.28018915563E+03  0.36394536571E+03  0.91970983577E+02 0.  0.
         13    1    3    3    0    0  0.78329269239E+02  0.57116572968E+02 -0.10302136977E+03  0.14146087783E+03  0.00000000000E+00 0. -1.
        -14    1    3    3    0    0  0.28859425235E+02  0.11682173298E+03 -0.89661995667E+02  0.15006484328E+03  0.00000000000E+00 0.  1.
        -13    1    4    4    0    0 -0.95242467253E+02 -0.16071337996E+03  0.26515457061E+03  0.32435607653E+03  0.00000000000E+00 0.  1.
         13    1    4    4    0    0 -0.35838752212E+02 -0.75403521623E+01  0.15034585012E+02  0.39589289174E+02  0.00000000000E+00 0. -1.
         -1    1    1    2    0  502  0.23892524992E+02 -0.56845738252E+01 -0.51129170562E+02  0.56721770180E+02  0.00000000000E+00 0.  1.
<scales pt_clust_5="13000.00000" pt_clust_6="13000.00000" pt_clust_7="13000.00000" pt_clust_8="13000.00000" pt_clust_9="24.55947"></scales>
<clustering>
<clus scale="   24.559">  1  9  2 -1</clus>
<clus scale="   78.208">  5  6 -1 -1</clus>
<clus scale="   91.971">  7  8 -1 -1</clus>
<clus scale="  219.748">  2  5  1 -1</clus>
<clus scale="   24.559">  1  5  2 -1</clus>
</clustering>
</event>
<event>
 9    1  0.5981539E-005  0.1584024E+03  0.7546771E-02  0.1192517E+00
         21   -1    0    0  501  502  0.00000000000E+00  0.00000000000E+00  0.42681882668E+03  0.42681882668E+03  0.00000000000E+00 0.  1.
         -2   -1    0    0    0  501 -0.00000000000E+00 -0.00000000000E+00 -0.91762940036E+02  0.91762940036E+02  0.00000000000E+00 0.  1.
         23    2    1    2    0    0  0.84177326522E+02  0.48711410405E+02  0.14462029534E+03  0.19706776897E+03  0.91989412108E+02 0.  0.
        -24    2    1    2    0    0 -0.15941463426E+03 -0.43972474394E+02  0.13942502358E+03  0.23049098961E+03  0.79625090082E+02 0.  0.
         13    1    4    4    0    0 -0.49172163234E+02  0.15069933226E+01  0.29942362391E+01  0.49286287309E+02  0.00000000000E+00 0. -1.
        -14    1    4    4    0    0 -0.11024247103E+03 -0.45479467716E+02  0.13643078734E+03  0.18120470230E+03  0.00000000000E+00 0.  1.
        -11    1    3    3    0    0  0.82219212748E+02 -0.17627450715E+01  0.10164945226E+03  0.13075059220E+03  0.00000000000E+00 0.  1.
         11    1    3    3    0    0  0.19581137744E+01  0.50474155476E+02  0.42970843076E+02  0.66317176774E+02  0.00000000000E+00 0. -1.
         -1    1    1    2    0  502  0.75237307738E+02 -0.47389360109E+01  0.51010567729E+02  0.91023008137E+02  0.00000000000E+00 0.  1.
<scales pt_clust_5="13000.00000" pt_clust_6="13000.00000" pt_clust_7="13000.00000" pt_clust_8="13000.00000" pt_clust_9="75.38644"></scales>
<clustering>
<clus scale="   75.386">  1  9  2 -1</clus>
<clus scale="   79.625">  5  6 -1 -1</clus>
<clus scale="   91.989">  7  8 -1 -1</clus>
<clus scale="  151.557">  1  5  2 -1</clus>
<clus scale="   75.386">  1  5  2 -1</clus>
</clustering>
</event>
<event>
 9    1  0.5981539E-005  0.9807507E+02  0.7546771E-02  0.1290312E+00
         21   -1    0    0  501  502  0.00000000000E+00  0.00000000000E+00  0.78791656434E+02  0.78791656434E+02  0.00000000000E+00 0.  1.
          1   -1    0    0  502    0 -0.00000000000E+00 -0.00000000000E+00 -0.17105477863E+03  0.17105477863E+03  0.00000000000E+00 0. -1.
         23    2    1    2    0    0  0.39965228352E+02  0.97845657302E+01 -0.98871572608E+02  0.14113312692E+03  0.91923960098E+02 0.  0.
        -24    2    1    2    0    0 -0.18655661684E+02  0.49550693297E+00  0.13582332905E+02  0.84047287738E+02  0.80815763122E+02 0.  0.
         13    1    4    4    0    0 -0.29371169346E+02 -0.29719954447E+02 -0.11504430144E+02  0.43339280035E+02  0.00000000000E+00 0. -1.
        -14    1    4    4    0    0  0.10715507662E+02  0.30215461380E+02  0.25086763049E+02  0.40708007703E+02  0.00000000000E+00 0.  1.
        -13    1    3    3    0    0 -0.23606653922E+02 -0.19077745258E+02 -0.23432957470E+02  0.38344986234E+02  0.00000000000E+00 0.  1.
         13    1    3    3    0    0  0.63571882274E+02  0.28862310988E+02 -0.75438615138E+02  0.10278814068E+03  0.00000000000E+00 0. -1.
          2    1    1    2  501    0 -0.21309566668E+02 -0.10280072663E+02 -0.69738824885E+01  0.24666020403E+02  0.00000000000E+00 0. -1.
<scales pt_clust_5="13000.00000" pt_clust_6="13000.00000" pt_clust_7="13000.00000" pt_clust_8="13000.00000" pt_clust_9="23.65962"></scales>
<clustering>
<clus scale="   23.660">  1  9  2 -1</clus>
<clus scale="   80.816">  5  6 -1 -1</clus>
<clus scale="   87.749">  1  5  2 -1</clus>
<clus scale="   91.924">  7  8 -1 -1</clus>
<clus scale="   23.660">  1  5  2 -1</clus>
</clustering>
</event>
<event>
 9    1  0.5981539E-005  0.1004538E+03  0.7546771E-02  0.1283994E+00
         21   -1    0    0  501  502  0.00000000000E+00  0.00000000000E+00  0.93670328343E+02  0.93670328343E+02  0.00000000000E+00 0.  1.
         -2   -1    0    0    0  501 -0.00000000000E+00 -0.00000000000E+00 -0.34398315876E+03  0.34398315876E+03  0.00000000000E+00 0.  1.
        -24    2    1    2    0    0 -0.12342270586E+02  0.56554375944E+02 -0.73721589970E+02  0.12393600480E+03  0.81083483999E+02 0.  0.
         23    2    1    2    0    0  0.21784400678E+02  0.22904783102E-01  0.31116636320E+02  0.98234989771E+02  0.90594191436E+02 0.  0.
         11    1    3    3    0    0 -0.45546539794E+02  0.21540028886E+02 -0.28938446457E+02  0.58102442418E+02  0.00000000000E+00 0. -1.
        -12    1    3    3    0    0  0.33204269208E+02  0.35014347057E+02 -0.44783143513E+02  0.65833562386E+02  0.00000000000E+00 0.  1.
        -13    1    4    4    0    0 -0.58434966861E+01  0.34887318004E+02 -0.10930866546E+02  0.37023712057E+02  0.00000000000E+00 0. -1.
         13    1    4    4    0    0  0.27627897364E+02 -0.34864413221E+02  0.42047502867E+02  0.61211277714E+02  0.00000000000E+00 0.  1.
         -1    1    1    2    0  502 -0.94421300925E+01 -0.56577280727E+02 -0.20770787677E+03  0.21548249253E+03  0.00000000000E+00 0.  1.
<scales pt_clust_5="13000.00000" pt_clust_6="13000.00000" pt_clust_7="13000.00000" pt_clust_8="13000.00000" pt_clust_9="57.35979"></scales>
<clustering>
<clus scale="   57.360">  1  9  2 -1</clus>
<clus scale="   81.083">  5  6 -1 -1</clus>
<clus scale="   90.594">  7  8 -1 -1</clus>
<clus scale="   91.968">  2  5  1 -1</clus>
<clus scale="   57.360">  1  5  2 -1</clus>
</clustering>
</event>
<event>
 9    1  0.5981539E-005  0.1254037E+03  0.7546771E-02  0.1246652E+00
         21   -1    0    0  501  502  0.00000000000E+00  0.00000000000E+00  0.62362808930E+02  0.62362808930E+02  0.00000000000E+00 0.  1.
          1   -1    0    0  502    0 -0.00000000000E+00 -0.00000000000E+00 -0.15339136838E+04  0.15339136838E+04  0.00000000000E+00 0. -1.
        -24    2    1    2    0    0  0.13089863958E+02  0.51443596683E+02 -0.55000292606E+03  0.55864430381E+03  0.82234125071E+02 0.  0.
         23    2    1    2    0    0 -0.61398568347E+02  0.55673246056E+02 -0.16791857553E+02  0.12527736015E+03  0.92429194329E+02 0.  0.
         13    1    3    3    0    0  0.18528984357E+02 -0.19192799065E+02 -0.13012452704E+03  0.13283101797E+03  0.00000000000E+00 0. -1.
        -14    1    3    3    0    0 -0.54391203993E+01  0.70636395747E+02 -0.41987839902E+03  0.42581328584E+03  0.00000000000E+00 0.  1.
        -11    1    4    4    0    0 -0.52442206574E+02 -0.13358860726E+02 -0.12454942347E+02  0.55531700668E+02  0.00000000000E+00 0.  1.
         11    1    4    4    0    0 -0.89563617733E+01  0.69032106781E+02 -0.43369152066E+01  0.69745659481E+02  0.00000000000E+00 0. -1.
          2    1    1    2  501    0  0.48308704389E+02 -0.10711684274E+03 -0.90475609130E+03  0.91235482882E+03  0.00000000000E+00 0. -1.
<scales pt_clust_5="13000.00000" pt_clust_6="13000.00000" pt_clust_7="13000.00000" pt_clust_8="13000.00000" pt_clust_9="84.75215"></scales>
<clustering>
<clus scale="   82.234">  5  6 -1 -1</clus>
<clus scale="   92.429">  7  8 -1 -1</clus>
<clus scale="   97.879">  2  5  1 -1</clus>
<clus scale="   84.752">  1  9  2 -1</clus>
<clus scale="   84.752">  1  5  2 -1</clus>
</clustering>
</event>
<event>
 9    1  0.5981539E-005  0.1473787E+03  0.7546771E-02  0.1205082E+00
         21   -1    0    0  501  502  0.00000000000E+00  0.00000000000E+00  0.48232385052E+03  0.48232385052E+03  0.00000000000E+00 0.  1.
          1   -1    0    0  502    0 -0.00000000000E+00 -0.00000000000E+00 -0.75798102264E+03  0.75798102264E+03  0.00000000000E+00 0. -1.
         23    2    1    2    0    0 -0.11428240087E+03 -0.18353605735E+02 -0.72609363632E+03  0.74078416222E+03  0.90287786050E+02 0.  0.
        -24    2    1    2    0    0  0.15255247058E+03  0.94467673540E+01  0.33375406902E+03  0.37639999233E+03  0.83208641036E+02 0.  0.
         13    1    4    4    0    0  0.55717645373E+02  0.27192997164E+02  0.20592026993E+03  0.21505132566E+03  0.00000000000E+00 0. -1.
        -14    1    4    4    0    0  0.96834825207E+02 -0.17746229810E+02  0.12783379910E+03  0.16134866667E+03  0.00000000000E+00 0.  1.
        -11    1    3    3    0    0 -0.12479203026E+02 -0.39609454410E+02 -0.16590729267E+03  0.17102593122E+03  0.00000000000E+00 0.  1.
         11    1    3    3    0    0 -0.10180319784E+03  0.21255848675E+02 -0.56018634365E+03  0.56975823101E+03  0.00000000000E+00 0. -1.
          2    1    1    2  501    0 -0.38270069716E+02  0.89068383808E+01  0.11668239518E+03  0.12312071861E+03  0.00000000000E+00 0. -1.
<scales pt_clust_5="13000.00000" pt_clust_6="13000.00000" pt_clust_7="13000.00000" pt_clust_8="13000.00000" pt_clust_9="39.29287"></scales>
<clustering>
<clus scale="   39.293">  1  9  2 -1</clus>
<clus scale="   83.209">  5  6 -1 -1</clus>
<clus scale="   90.288">  7  8 -1 -1</clus>
<clus scale="  143.151">  1  5  2 -1</clus>
<clus scale="   39.293">  1  5  2 -1</clus>
</clustering>
</event>
<event>
 9    1  0.5981539E-005  0.1085471E+03  0.7546771E-02  0.1267989E+00
          1   -1    0    0  502    0 -0.00000000000E+00  0.00000000000E+00  0.28885754345E+03  0.28885754345E+03  0.00000000000E+00 0. -1.
         21   -1    0    0  501  502  0.00000000000E+00 -0.00000000000E+00 -0.11882425284E+03  0.11882425284E+03  0.00000000000E+00 0. -1.
        -24    2    1    2    0    0  0.26974437780E+02 -0.39766402451E+02  0.10445031931E+03  0.14108064670E+03  0.81761192571E+02 0.  0.
         23    2    1    2    0    0 -0.67671831869E+01  0.10448716666E+03 -0.35852840783E+02  0.14459158264E+03  0.93048034967E+02 0.  0.
         13    1    3    3    0    0  0.24752744971E+01 -0.61403404891E+02  0.76084249314E+02  0.97802444293E+02  0.00000000000E+00 0. -1.
        -14    1    3    3    0    0  0.24499163283E+02  0.21637002440E+02  0.28366069998E+02  0.43278202404E+02  0.00000000000E+00 0.  1.
        -11    1    4    4    0    0  0.90858131698E+01  0.46044708722E+02 -0.62727339625E+02  0.78341472661E+02  0.00000000000E+00 0.  1.
         11    1    4    4    0    0 -0.15852996357E+02  0.58442457941E+02  0.26874498841E+02  0.66250109974E+02  0.00000000000E+00 0. -1.
          2    1    1    2  501    0 -0.20207254594E+02 -0.64720764212E+02  0.10143581208E+03  0.12200956697E+03  0.00000000000E+00 0. -1.
<scales pt_clust_5="13000.00000" pt_clust_6="13000.00000" pt_clust_7="13000.00000" pt_clust_8="13000.00000" pt_clust_9="67.80203"></scales>
<clustering>
<clus scale="   67.802">  2  9  1 -1</clus>
<clus scale="   81.761">  5  6 -1 -1</clus>
<clus scale="   93.048">  7  8 -1 -1</clus>
<clus scale="   99.043">  1  5  2 -1</clus>
<clus scale="   67.802">  2  5  1 -1</clus>
</clustering>
</event>
<event>
 9    1  0.5981539E-005  0.2640268E+03  0.7546771E-02  0.1145028E+00
         21   -1    0    0  501  502  0.00000000000E+00  0.00000000000E+00  0.93544586980E+03  0.93544586980E+03  0.00000000000E+00 0.  1.
          1   -1    0    0  502    0 -0.00000000000E+00 -0.00000000000E+00 -0.18627413687E+03  0.18627413687E+03  0.00000000000E+00 0. -1.
        -24    2    1    2    0    0  0.39822548861E+02 -0.94320288390E+01 -0.80339871635E+02  0.12614202190E+03  0.88218570321E+02 0.  0.
         23    2    1    2    0    0 -0.91034279592E+02  0.23788748076E+03  0.63780495342E+03  0.69297928191E+03  0.92452328213E+02 0.  0.
         13    1    3    3    0    0 -0.24268051824E+02  0.53303845962E+01 -0.45188450694E+02  0.51568860908E+02  0.00000000000E+00 0. -1.
        -14    1    3    3    0    0  0.64090600684E+02 -0.14762413435E+02 -0.35151420942E+02  0.74573160995E+02  0.00000000000E+00 0.  1.
        -13    1    4    4    0    0  0.13987979522E+02  0.18201576753E+02  0.10027621368E+03  0.10287020947E+03  0.00000000000E+00 0. -1.
         13    1    4    4    0    0 -0.10502225911E+03  0.21968590401E+03  0.53752873974E+03  0.59010907244E+03  0.00000000000E+00 0.  1.
          2    1    1    2  501    0  0.51211730731E+02 -0.22845545192E+03  0.19170665114E+03  0.30259870285E+03  0.00000000000E+00 0. -1.
<scales pt_clust_5="13000.00000" pt_clust_6="13000.00000" pt_clust_7="13000.00000" pt_clust_8="13000.00000" pt_clust_9="247.31110"></scales>
<clustering>
<clus scale="   88.219">  5  6 -1 -1</clus>
<clus scale="   92.452">  7  8 -1 -1</clus>
<clus scale="   97.249">  2  5  1 -1</clus>
<clus scale="  247.311">  1  9  2 -1</clus>
<clus scale="  247.311">  1  5  2 -1</clus>
</clustering>
</event>
<event>
 9    1  0.5981539E-005  0.2144734E+03  0.7546771E-02  0.1138355E+00
         -4   -1    0    0    0  501 -0.00000000000E+00  0.00000000000E+00  0.15562395619E+04  0.15562395619E+04  0.00000000000E+00 0.  1.
         21   -1    0    0  501  502  0.00000000000E+00 -0.00000000000E+00 -0.54600642768E+02  0.54600642768E+02  0.00000000000E+00 0.  1.
        -24    2    1    2    0    0  0.12136594318E+03 -0.17030235682E+03  0.82809929219E+03  0.85801251806E+03  0.81880757919E+02 0.  0.
         23    2    1    2    0    0 -0.17296819264E+03  0.76070736317E+02  0.30436259350E+03  0.36833571989E+03  0.85614611094E+02 0.  0.
         13    1    3    3    0    0  0.31126598165E+01 -0.50976128643E+02  0.12310217841E+03  0.13327565671E+03  0.00000000000E+00 0. -1.
        -14    1    3    3    0    0  0.11825328337E+03 -0.11932622817E+03  0.70499711378E+03  0.72473686135E+03  0.00000000000E+00 0.  1.
        -11    1    4    4    0    0 -0.14650936534E+02  0.38803765381E+02  0.38058520962E+02  0.56292389955E+02  0.00000000000E+00 0. -1.
         11    1    4    4    0    0 -0.15831725611E+03  0.37266970936E+02  0.26630407254E+03  0.31204332993E+03  0.00000000000E+00 0.  1.
         -3    1    1    2    0  502  0.51602249460E+02  0.94231620499E+02  0.36917703342E+03  0.38449196670E+03  0.00000000000E+00 0.  1.
<scales pt_clust_5="13000.00000" pt_clust_6="13000.00000" pt_clust_7="13000.00000" pt_clust_8="13000.00000" pt_clust_9="107.43557"></scales>
<clustering>
<clus scale="   81.881">  5  6 -1 -1</clus>
<clus scale="   85.615">  7  8 -1 -1</clus>
<clus scale="  107.436">  2  9  1 -1</clus>
<clus scale="  213.010">  1  5  2 -1</clus>
<clus scale="  107.436">  2  5  1 -1</clus>
</clustering>
</event>
<event>
 9    1  0.5981539E-005  0.2016851E+03  0.7546771E-02  0.1164456E+00
         21   -1    0    0  501  502  0.00000000000E+00  0.00000000000E+00  0.16690316919E+03  0.16690316919E+03  0.00000000000E+00 0. -1.
          1   -1    0    0  502    0 -0.00000000000E+00 -0.00000000000E+00 -0.11005553745E+04  0.11005553745E+04  0.00000000000E+00 0. -1.
        -24    2    1    2    0    0  0.68496003572E+02  0.87997746886E+02 -0.83686417310E+03  0.84820070495E+03  0.81654673409E+02 0.  0.
         23    2    1    2    0    0 -0.18733727502E+03 -0.16531150774E+03 -0.59930799660E+02  0.27276851832E+03  0.91585013169E+02 0.  0.
         11    1    3    3    0    0  0.70054631256E+02  0.10216018565E+03 -0.74064035027E+03  0.75092774841E+03  0.00000000000E+00 0. -1.
        -12    1    3    3    0    0 -0.15586276848E+01 -0.14162438765E+02 -0.96223822833E+02  0.97272956533E+02  0.00000000000E+00 0.  1.
        -13    1    4    4    0    0 -0.13537567411E+03 -0.16458400055E+03 -0.38501095819E+02  0.21655669178E+03  0.00000000000E+00 0. -1.
         13    1    4    4    0    0 -0.51961600911E+02 -0.72750718908E+00 -0.21429703841E+02  0.56211826537E+02  0.00000000000E+00 0.  1.
          2    1    1    2  501    0  0.11884127144E+03  0.77313760856E+02 -0.36857232597E+02  0.14648932047E+03  0.00000000000E+00 0. -1.
<scales pt_clust_5="13000.00000" pt_clust_6="13000.00000" pt_clust_7="13000.00000" pt_clust_8="13000.00000" pt_clust_9="179.69154"></scales>
<clustering>
<clus scale="   81.655">  5  6 -1 -1</clus>
<clus scale="   91.585">  7  8 -1 -1</clus>
<clus scale="  138.213">  2  5  1 -1</clus>
<clus scale="  179.692">  1  9  2 -1</clus>
<clus scale="  179.692">  1  5  2 -1</clus>
</clustering>
</event>
<event>
 9    1  0.5981539E-005  0.1446536E+03  0.7546771E-02  0.1226188E+00
         -4   -1    0    0    0  501 -0.00000000000E+00  0.00000000000E+00  0.74560312282E+02  0.74560312282E+02  0.00000000000E+00 0.  1.
         21   -1    0    0  501  502  0.00000000000E+00 -0.00000000000E+00 -0.63490117945E+03  0.63490117945E+03  0.00000000000E+00 0.  1.
         23    2    1    2    0    0  0.29018412346E+02 -0.10317685828E+02 -0.10662040744E+03  0.14405810096E+03  0.91849345520E+02 0.  0.
        -24    2    1    2    0    0 -0.12867041127E+03  0.67680827507E+02 -0.10146453144E+03  0.19485610644E+03  0.80852222778E+02 0.  0.
         13    1    4    4    0    0 -0.80416428791E+02  0.82803551102E+02 -0.76368825920E+02  0.13840313460E+03  0.00000000000E+00 0. -1.
        -14    1    4    4    0    0 -0.48253982483E+02 -0.15122723595E+02 -0.25095705524E+02  0.56452971845E+02  0.00000000000E+00 0.  1.
        -13    1    3    3    0    0 -0.38216418154E+01 -0.22733331675E+02  0.78284329595E+01  0.24345300939E+02  0.00000000000E+00 0. -1.
         13    1    3    3    0    0  0.32840054161E+02  0.12415645847E+02 -0.11444884040E+03  0.11971280002E+03  0.00000000000E+00 0.  1.
         -3    1    1    2    0  502  0.99651998928E+02 -0.57363141679E+02 -0.35225592828E+03  0.37054728433E+03  0.00000000000E+00 0.  1.
<scales pt_clust_5="13000.00000" pt_clust_6="13000.00000" pt_clust_7="13000.00000" pt_clust_8="13000.00000" pt_clust_9="119.94822"></scales>
<clustering>
<clus scale="   80.852">  5  6 -1 -1</clus>
<clus scale="   91.849">  7  8 -1 -1</clus>
<clus scale="   96.875">  1  7  2 -1</clus>
<clus scale="  119.948">  2  9  1 -1</clus>
<clus scale="  119.948">  2  5  1 -1</clus>
</clustering>
</event>
<event>
 9    1  0.5981539E-005  0.1447188E+03  0.7546771E-02  0.1209952E+00
         21   -1    0    0  501  502  0.00000000000E+00  0.00000000000E+00  0.22978408608E+03  0.22978408608E+03  0.00000000000E+00 0.  1.
         -2   -1    0    0    0  501 -0.00000000000E+00 -0.00000000000E+00 -0.12046973495E+03  0.12046973495E+03  0.00000000000E+00 0.  1.
         23    2    1    2    0    0 -0.40827928137E+02 -0.10330819250E+03  0.22258496609E+02  0.14422090334E+03  0.89245313241E+02 0.  0.
        -24    2    1    2    0    0  0.80011170749E+02  0.92283497325E+02  0.82139765327E+02  0.16503245016E+03  0.74637371567E+02 0.  0.
         11    1    4    4    0    0  0.17007586197E+02  0.16758942312E+02 -0.13847950398E+02  0.27602280086E+02  0.00000000000E+00 0. -1.
        -12    1    4    4    0    0  0.63003584552E+02  0.75524555012E+02  0.95987715726E+02  0.13743017007E+03  0.00000000000E+00 0.  1.
        -11    1    3    3    0    0 -0.40599149657E+01 -0.76153602220E+02  0.49587274180E+02  0.90965662759E+02  0.00000000000E+00 0.  1.
         11    1    3    3    0    0 -0.36768013172E+02 -0.27154590281E+02 -0.27328777571E+02  0.53255240582E+02  0.00000000000E+00 0. -1.
         -1    1    1    2    0  502 -0.39183242612E+02  0.11024695176E+02  0.49160891932E+01  0.41000467537E+02  0.00000000000E+00 0.  1.
<scales pt_clust_5="13000.00000" pt_clust_6="13000.00000" pt_clust_7="13000.00000" pt_clust_8="13000.00000" pt_clust_9="40.70469"></scales>
<clustering>
<clus scale="   40.705">  1  9  2 -1</clus>
<clus scale="   74.637">  5  6 -1 -1</clus>
<clus scale="   89.245">  7  8 -1 -1</clus>
<clus scale="  136.197">  1  5  2 -1</clus>
<clus scale="   40.705">  1  5  2 -1</clus>
</clustering>
</event>
<event>
 9    1  0.5981539E-005  0.1411326E+03  0.7546771E-02  0.1214948E+00
         -2   -1    0    0    0  501 -0.00000000000E+00  0.00000000000E+00  0.47997462984E+03  0.47997462984E+03  0.00000000000E+00 0.  1.
         21   -1    0    0  501  502  0.00000000000E+00 -0.00000000000E+00 -0.65991385510E+02  0.65991385510E+02  0.00000000000E+00 0.  1.
         23    2    1    2    0    0 -0.73571093491E+02 -0.42906235314E+02  0.96976760756E+02  0.15998441172E+03  0.94535014888E+02 0.  0.
        -24    2    1    2    0    0  0.10668760527E+03  0.64983787504E+02  0.13846265555E+03  0.20305533381E+03  0.80339429006E+02 0.  0.
         11    1    4    4    0    0  0.53722155668E+02  0.49935999883E+01  0.15130785240E+02  0.56035227424E+02  0.00000000000E+00 0. -1.
        -12    1    4    4    0    0  0.52965449599E+02  0.59990187515E+02  0.12333187031E+03  0.14702010639E+03  0.00000000000E+00 0.  1.
        -13    1    3    3    0    0 -0.40497435701E+02 -0.14103060745E+02  0.10675852032E+03  0.11504920809E+03  0.00000000000E+00 0. -1.
         13    1    3    3    0    0 -0.33073657790E+02 -0.28803174569E+02 -0.97817595666E+01  0.44935203628E+02  0.00000000000E+00 0.  1.
         -1    1    1    2    0  502 -0.33116511776E+02 -0.22077552190E+02  0.17854382803E+03  0.18292626982E+03  0.00000000000E+00 0.  1.
<scales pt_clust_5="13000.00000" pt_clust_6="13000.00000" pt_clust_7="13000.00000" pt_clust_8="13000.00000" pt_clust_9="39.80105"></scales>
<clustering>
<clus scale="   39.801">  2  9  1 -1</clus>
<clus scale="   80.339">  5  6 -1 -1</clus>
<clus scale="   94.535">  7  8 -1 -1</clus>
<clus scale="  132.045">  2  5  1 -1</clus>
<clus scale="   39.801">  2  5  1 -1</clus>
</clustering>
</event>
<event>
 9    1  0.5981539E-005  0.1394458E+03  0.7546771E-02  0.1233151E+00
         21   -1    0    0  501  502  0.00000000000E+00  0.00000000000E+00  0.62315998464E+02  0.62315998464E+02  0.00000000000E+00 0.  1.
          1   -1    0    0  502    0 -0.00000000000E+00 -0.00000000000E+00 -0.53979514189E+03  0.53979514189E+03  0.00000000000E+00 0. -1.
        -24    2    1    2    0    0  0.32667222248E+02  0.33075582698E+02 -0.24172956538E+03  0.25923673684E+03  0.81297978846E+02 0.  0.
         23    2    1    2    0    0  0.86013261002E+02 -0.32268226035E+02 -0.12834926989E+03  0.18281024413E+03  0.92230855994E+02 0.  0.
         11    1    3    3    0    0  0.15101318240E+02 -0.23357587613E+02 -0.37900057118E+02  0.47011073603E+02  0.00000000000E+00 0. -1.
        -12    1    3    3    0    0  0.17565904008E+02  0.56433170311E+02 -0.20382950827E+03  0.21222566323E+03  0.00000000000E+00 0.  1.
        -13    1    4    4    0    0  0.59367253495E+02 -0.15451693850E+02 -0.12308560419E+02  0.62567773573E+02  0.00000000000E+00 0.  1.
         13    1    4    4    0    0  0.26646007507E+02 -0.16816532185E+02 -0.11604070947E+03  0.12024247055E+03  0.00000000000E+00 0. -1.
          2    1    1    2  501    0 -0.11868048325E+03 -0.80735666297E+00 -0.10740030815E+03  0.16006415939E+03  0.00000000000E+00 0. -1.
<scales pt_clust_5="13000.00000" pt_clust_6="13000.00000" pt_clust_7="13000.00000" pt_clust_8="13000.00000" pt_clust_9="104.58780"></scales>
<clustering>
<clus scale="   81.298">  5  6 -1 -1</clus>
<clus scale="   92.231">  7  8 -1 -1</clus>
<clus scale="   93.651">  2  5  1 -1</clus>
<clus scale="  104.588">  1  9  2 -1</clus>
<clus scale="  104.588">  1  5  2 -1</clus>
</clustering>
</event>
<event>
 9    1  0.5981539E-005  0.1683592E+03  0.7546771E-02  0.1203140E+00
         21   -1    0    0  501  502  0.00000000000E+00  0.00000000000E+00  0.78676096761E+02  0.78676096761E+02  0.00000000000E+00 0. -1.
          3   -1    0    0  502    0 -0.00000000000E+00 -0.00000000000E+00 -0.75099994526E+03  0.75099994526E+03  0.00000000000E+00 0. -1.
         23    2    1    2    0    0  0.22340069022E+02 -0.37899817857E+02 -0.46835649017E+02  0.11054535714E+03  0.89951226164E+02 0.  0.
        -24    2    1    2    0    0 -0.26341423389E+02  0.17608427434E+03 -0.48139598483E+03  0.51944713229E+03  0.79897977328E+02 0.  0.
         11    1    4    4    0    0 -0.22000240467E+02  0.15453194604E+03 -0.31444981373E+03  0.35105956515E+03  0.00000000000E+00 0. -1.
        -12    1    4    4    0    0 -0.43411829222E+01  0.21552328304E+02 -0.16694617110E+03  0.16838756714E+03  0.00000000000E+00 0.  1.
        -11    1    3    3    0    0  0.29805576653E+02  0.19018613205E+02 -0.38943915195E+02  0.52599511201E+02  0.00000000000E+00 0.  1.
         11    1    3    3    0    0 -0.74655076308E+01 -0.56918431062E+02 -0.78917338223E+01  0.57945845938E+02  0.00000000000E+00 0. -1.
          4    1    1    2  501    0  0.40013543671E+01 -0.13818445649E+03 -0.14409221466E+03  0.19968355259E+03  0.00000000000E+00 0. -1.
<scales pt_clust_5="13000.00000" pt_clust_6="13000.00000" pt_clust_7="13000.00000" pt_clust_8="13000.00000" pt_clust_9="148.19287"></scales>
<clustering>
<clus scale="   79.898">  5  6 -1 -1</clus>
<clus scale="   89.951">  7  8 -1 -1</clus>
<clus scale="  100.133">  2  7  1 -1</clus>
<clus scale="  148.193">  1  9  2 -1</clus>
<clus scale="  148.193">  1  5  2 -1</clus>
</clustering>
</event>
<event>
 9    1  0.5981539E-005  0.1328351E+03  0.7546771E-02  0.1228310E+00
         -2   -1    0    0    0  501 -0.00000000000E+00  0.00000000000E+00  0.61805871905E+03  0.61805871905E+03  0.00000000000E+00 0.  1.
         21   -1    0    0  501  502  0.00000000000E+00 -0.00000000000E+00 -0.57523154715E+02  0.57523154715E+02  0.00000000000E+00 0. -1.
        -24    2    1    2    0    0  0.90080023692E+02  0.19942311180E+02  0.50569389585E+03  0.52015445201E+03  0.79512459449E+02 0.  0.
         23    2    1    2    0    0 -0.69054737412E+02 -0.21248727636E+02  0.35807239904E+02  0.12703589382E+03  0.98162593196E+02 0.  0.
         11    1    3    3    0    0  0.18346053423E+02 -0.28703768134E+02  0.11374135643E+03  0.11873323100E+03  0.00000000000E+00 0. -1.
        -12    1    3    3    0    0  0.71733970268E+02  0.48646079314E+02  0.39195253941E+03  0.40142122101E+03  0.00000000000E+00 0.  1.
        -11    1    4    4    0    0 -0.17571128825E+02  0.38226265201E+02  0.20886141052E+02  0.46970446106E+02  0.00000000000E+00 0.  1.
         11    1    4    4    0    0 -0.51483608588E+02 -0.59474992836E+02  0.14921098852E+02  0.80065447710E+02  0.00000000000E+00 0. -1.
         -1    1    1    2    0  502 -0.21025286279E+02  0.13064164558E+01  0.19034428589E+02  0.28391527941E+02  0.00000000000E+00 0.  1.
<scales pt_clust_5="13000.00000" pt_clust_6="13000.00000" pt_clust_7="13000.00000" pt_clust_8="13000.00000" pt_clust_9="21.06583"></scales>
<clustering>
<clus scale="   21.066">  2  9  1 -1</clus>
<clus scale="   79.512">  5  6 -1 -1</clus>
<clus scale="   98.163">  7  8 -1 -1</clus>
<clus scale="  119.714">  1  5  2 -1</clus>
<clus scale="   21.066">  2  5  1 -1</clus>
</clustering>
</event>
<event>
 9    1  0.5981539E-005  0.1629792E+03  0.7546771E-02  0.1216959E+00
         21   -1    0    0  501  502  0.00000000000E+00  0.00000000000E+00  0.15453445459E+03  0.15453445459E+03  0.00000000000E+00 0. -1.
          1   -1    0    0  502    0 -0.00000000000E+00 -0.00000000000E+00 -0.28529418554E+03  0.28529418554E+03  0.00000000000E+00 0. -1.
         23    2    1    2    0    0  0.39495108222E+02 -0.19702232829E+02 -0.52868567251E+02  0.97713190033E+02  0.69316235842E+02 0.  0.
        -24    2    1    2    0    0 -0.16307242117E+03 -0.31339881094E+02 -0.95081915768E+02  0.20731125274E+03  0.79765795377E+02 0.  0.
         13    1    4    4    0    0 -0.13832629932E+03 -0.44322225780E+02 -0.10323383235E+03  0.17820170853E+03  0.00000000000E+00 0. -1.
        -14    1    4    4    0    0 -0.24746121852E+02  0.12982344685E+02  0.81519165780E+01  0.29109544211E+02  0.00000000000E+00 0.  1.
        -11    1    3    3    0    0  0.12661621312E+02 -0.42598786365E+02 -0.41085766047E+02  0.60522833920E+02  0.00000000000E+00 0.  1.
         11    1    3    3    0    0  0.26833486910E+02  0.22896553536E+02 -0.11782801204E+02  0.37190356113E+02  0.00000000000E+00 0. -1.
          2    1    1    2  501    0  0.12357731295E+03  0.51042113924E+02  0.17190752069E+02  0.13480419736E+03  0.00000000000E+00 0. -1.
<scales pt_clust_5="13000.00000" pt_clust_6="13000.00000" pt_clust_7="13000.00000" pt_clust_8="13000.00000" pt_clust_9="142.12548"></scales>
<clustering>
<clus scale="   69.316">  7  8 -1 -1</clus>
<clus scale="   79.766">  5  6 -1 -1</clus>
<clus scale="   82.175">  2  7  1 -1</clus>
<clus scale="  142.125">  1  9  2 -1</clus>
<clus scale="  142.125">  1  5  2 -1</clus>
</clustering>
</event>
<event>
 9    1  0.5981539E-005  0.1073691E+03  0.7546771E-02  0.1269675E+00
         -2   -1    0    0    0  501 -0.00000000000E+00  0.00000000000E+00  0.60220217839E+02  0.60220217839E+02  0.00000000000E+00 0.  1.
         21   -1    0    0  501  502  0.00000000000E+00 -0.00000000000E+00 -0.27074963241E+03  0.27074963241E+03  0.00000000000E+00 0. -1.
         23    2    1    2    0    0 -0.25836245460E+02 -0.59021743612E+02 -0.24827765089E+02  0.11323290673E+03  0.89745169503E+02 0.  0.
        -24    2    1    2    0    0  0.99158722183E+01  0.46203481373E+02 -0.14228571878E+03  0.16975039155E+03  0.79604544156E+02 0.  0.
         11    1    4    4    0    0  0.32933475102E+02  0.33675586287E+02 -0.13435207308E+03  0.14236972443E+03  0.00000000000E+00 0. -1.
        -12    1    4    4    0    0 -0.23017602883E+02  0.12527895087E+02 -0.79336457000E+01  0.27380667119E+02  0.00000000000E+00 0.  1.
        -13    1    3    3    0    0  0.18645204464E+02 -0.29708154360E+02  0.22751196261E+02  0.41807116814E+02  0.00000000000E+00 0.  1.
         13    1    3    3    0    0 -0.44481449924E+02 -0.29313589253E+02 -0.47578961350E+02  0.71425789918E+02  0.00000000000E+00 0. -1.
         -1    1    1    2    0  502  0.15920373242E+02  0.12818262239E+02 -0.43415930706E+02  0.47986551971E+02  0.00000000000E+00 0.  1.
<scales pt_clust_5="13000.00000" pt_clust_6="13000.00000" pt_clust_7="13000.00000" pt_clust_8="13000.00000" pt_clust_9="20.43933"></scales>
<clustering>
<clus scale="   20.439">  2  9  1 -1</clus>
<clus scale="   79.605">  5  6 -1 -1</clus>
<clus scale="   89.745">  7  8 -1 -1</clus>
<clus scale="   99.050">  2  5  1 -1</clus>
<clus scale="   20.439">  2  5  1 -1</clus>
</clustering>
</event>
<event>
 9    1  0.5981539E-005  0.1845938E+03  0.7546771E-02  0.1164753E+00
         -2   -1    0    0    0  501 -0.00000000000E+00  0.00000000000E+00  0.12079060836E+03  0.12079060836E+03  0.00000000000E+00 0.  1.
         21   -1    0    0  501  502  0.00000000000E+00 -0.00000000000E+00 -0.59729255489E+03  0.59729255489E+03  0.00000000000E+00 0.  1.
         23    2    1    2    0    0 -0.11478934435E+03 -0.10097299051E+03 -0.12947660462E+03  0.22021374094E+03  0.91420797220E+02 0.  0.
        -24    2    1    2    0    0  0.12972645579E+03  0.12244647177E+03 -0.39644321242E+03  0.44195561702E+03  0.79595571253E+02 0.  0.
         11    1    4    4    0    0  0.12457556513E+02  0.40159963373E+02 -0.16058629859E+03  0.16599991768E+03  0.00000000000E+00 0. -1.
        -12    1    4    4    0    0  0.11726889928E+03  0.82286508400E+02 -0.23585691382E+03  0.27595569935E+03  0.00000000000E+00 0.  1.
        -11    1    3    3    0    0 -0.94324254187E+02 -0.31716374627E+02 -0.45402984728E+02  0.10938201118E+03  0.00000000000E+00 0.  1.
         11    1    3    3    0    0 -0.20465090160E+02 -0.69256615882E+02 -0.84073619895E+02  0.11083172976E+03  0.00000000000E+00 0. -1.
         -1    1    1    2    0  502 -0.14937111446E+02 -0.21473481264E+02  0.49417870518E+02  0.55913805294E+02  0.00000000000E+00 0.  1.
<scales pt_clust_5="13000.00000" pt_clust_6="13000.00000" pt_clust_7="13000.00000" pt_clust_8="13000.00000" pt_clust_9="26.15776"></scales>
<clustering>
<clus scale="   26.158">  2  9  1 -1</clus>
<clus scale="   79.596">  5  6 -1 -1</clus>
<clus scale="   91.421">  7  8 -1 -1</clus>
<clus scale="  179.032">  2  5  1 -1</clus>
<clus scale="   26.158">  2  5  1 -1</clus>
</clustering>
</event>
<event>
 9    1  0.5981539E-005  0.9450581E+02  0.7546771E-02  0.1298952E+00
         21   -1    0    0  501  502  0.00000000000E+00  0.00000000000E+00  0.53459223773E+03  0.53459223773E+03  0.00000000000E+00 0. -1.
          3   -1    0    0  502    0 -0.00000000000E+00 -0.00000000000E+00 -0.23725450944E+02  0.23725450944E+02  0.00000000000E+00 0. -1.
        -24    2    1    2    0    0  0.98776136057E+01 -0.23838316133E+02  0.18614885119E+03  0.20424193529E+03  0.79984628300E+02 0.  0.
         23    2    1    2    0    0 -0.33612339918E+02 -0.13601823884E+00  0.28889957205E+03  0.30487147401E+03  0.91399371106E+02 0.  0.
         13    1    3    3    0    0  0.45125609455E+02 -0.12438943475E+02  0.11067464555E+03  0.12016623948E+03  0.00000000000E+00 0. -1.
        -14    1    3    3    0    0 -0.35247995850E+02 -0.11399372657E+02  0.75474205636E+02  0.84075695803E+02  0.00000000000E+00 0.  1.
        -11    1    4    4    0    0  0.77037514207E+01  0.19732707766E+02  0.12293687586E+02  0.24492086399E+02  0.00000000000E+00 0.  1.
         11    1    4    4    0    0 -0.41316091339E+02 -0.19868726005E+02  0.27660588447E+03  0.28037938761E+03  0.00000000000E+00 0. -1.
          4    1    1    2  501    0  0.23734726312E+02  0.23974334371E+02  0.35818363542E+02  0.49204279372E+02  0.00000000000E+00 0. -1.
<scales pt_clust_5="13000.00000" pt_clust_6="13000.00000" pt_clust_7="13000.00000" pt_clust_8="13000.00000" pt_clust_9="33.73584"></scales>
<clustering>
<clus scale="   33.736">  1  9  2 -1</clus>
<clus scale="   79.985">  5  6 -1 -1</clus>
<clus scale="   83.517">  2  5  1 -1</clus>
<clus scale="   91.399">  7  8 -1 -1</clus>
<clus scale="   33.736">  1  5  2 -1</clus>
</clustering>
</event>
<event>
 9    1  0.5981539E-005  0.1859395E+03  0.7546771E-02  0.1172363E+00
         21   -1    0    0  501  502  0.00000000000E+00  0.00000000000E+00  0.64568034811E+02  0.64568034811E+02  0.00000000000E+00 0. -1.
          1   -1    0    0  502    0 -0.00000000000E+00 -0.00000000000E+00 -0.11061496642E+04  0.11061496642E+04  0.00000000000E+00 0. -1.
        -24    2    1    2    0    0 -0.10714119496E+03  0.63407017396E+02 -0.24471465344E+03  0.28553580676E+03  0.78394832863E+02 0.  0.
         23    2    1    2    0    0  0.72736939228E+02  0.13334254449E+03 -0.29208561298E+03  0.34232070620E+03  0.93800661448E+02 0.  0.
         13    1    3    3    0    0 -0.66799249872E+02  0.76497614006E+02 -0.19741122494E+03  0.22200273977E+03  0.00000000000E+00 0. -1.
        -14    1    3    3    0    0 -0.40341945090E+02 -0.13090596609E+02 -0.47303428494E+02  0.63533066985E+02  0.00000000000E+00 0.  1.
        -13    1    4    4    0    0  0.40183621677E+02 -0.16758922773E+00 -0.81415046915E+02  0.90791857572E+02  0.00000000000E+00 0.  1.
         13    1    4    4    0    0  0.32553317551E+02  0.13351013372E+03 -0.21067056606E+03  0.25152884863E+03  0.00000000000E+00 0. -1.
          2    1    1    2  501    0  0.34404255735E+02 -0.19674956189E+03 -0.50478136296E+03  0.54286118604E+03  0.00000000000E+00 0. -1.
<scales pt_clust_5="13000.00000" pt_clust_6="13000.00000" pt_clust_7="13000.00000" pt_clust_8="13000.00000" pt_clust_9="160.54576"></scales>
<clustering>
<clus scale="   78.395">  5  6 -1 -1</clus>
<clus scale="   93.801">  7  8 -1 -1</clus>
<clus scale="  147.124">  2  5  1 -1</clus>
<clus scale="  160.546">  1  9  2 -1</clus>
<clus scale="  160.546">  1  5  2 -1</clus>
</clustering>
</event>
<event>
 9    1  0.5981539E-005  0.1255496E+03  0.7546771E-02  0.1236811E+00
         21   -1    0    0  501  502  0.00000000000E+00  0.00000000000E+00  0.31126091940E+02  0.31126091940E+02  0.00000000000E+00 0. -1.
          1   -1    0    0  502    0 -0.00000000000E+00 -0.00000000000E+00 -0.10445460838E+04  0.10445460838E+04  0.00000000000E+00 0. -1.
        -24    2    1    2    0    0  0.51756249818E+02  0.85858346326E+02 -0.52754970987E+03  0.54306215129E+03  0.80978013993E+02 0.  0.
         23    2    1    2    0    0 -0.74643004963E+02 -0.13493095641E+02 -0.16443697798E+03  0.20233755815E+03  0.90262538700E+02 0.  0.
         13    1    3    3    0    0  0.71481961014E+02  0.74411643139E+02 -0.46924568304E+03  0.48045631896E+03  0.00000000000E+00 0. -1.
        -14    1    3    3    0    0 -0.19725711196E+02  0.11446703187E+02 -0.58304026831E+02  0.62605832322E+02  0.00000000000E+00 0.  1.
        -11    1    4    4    0    0  0.19141131424E+02  0.87692934274E+01 -0.23035902662E+02  0.31207951404E+02  0.00000000000E+00 0.  1.
         11    1    4    4    0    0 -0.93784136388E+02 -0.22262389069E+02 -0.14140107532E+03  0.17112960675E+03  0.00000000000E+00 0. -1.
          2    1    1    2  501    0  0.22886755145E+02 -0.72365250685E+02 -0.32143330402E+03  0.33027246631E+03  0.00000000000E+00 0. -1.
<scales pt_clust_5="13000.00000" pt_clust_6="13000.00000" pt_clust_7="13000.00000" pt_clust_8="13000.00000" pt_clust_9="75.89821"></scales>
<clustering>
<clus scale="   75.898">  1  9  2 -1</clus>
<clus scale="   80.978">  5  6 -1 -1</clus>
<clus scale="   90.263">  7  8 -1 -1</clus>
<clus scale="  119.050">  2  5  1 -1</clus>
<clus scale="   75.898">  1  5  2 -1</clus>
</clustering>
</event>
<event>
 9    1  0.5981539E-005  0.1016565E+03  0.7546771E-02  0.1280918E+00
         21   -1    0    0  501  502  0.00000000000E+00  0.00000000000E+00  0.29318903412E+02  0.29318903412E+02  0.00000000000E+00 0.  1.
         -4   -1    0    0    0  501 -0.00000000000E+00 -0.00000000000E+00 -0.74507046279E+03  0.74507046279E+03  0.00000000000E+00 0.  1.
         23    2    1    2    0    0  0.42428029353E+02  0.10533059403E+02 -0.52029171547E+03  0.52972881981E+03  0.89431931249E+02 0.  0.
        -24    2    1    2    0    0 -0.71565488040E+02  0.41191965154E+01 -0.11440862823E+03  0.15729362094E+03  0.80705403260E+02 0.  0.
         13    1    4    4    0    0 -0.22397226167E+02 -0.22384112051E+02 -0.91672215743E+02  0.96987006096E+02  0.00000000000E+00 0. -1.
        -14    1    4    4    0    0 -0.49168261874E+02  0.26503308567E+02 -0.22736412488E+02  0.60306614840E+02  0.00000000000E+00 0.  1.
        -11    1    3    3    0    0  0.64813163229E+02 -0.13996133510E+02 -0.35270266912E+03  0.35888133231E+03  0.00000000000E+00 0.  1.
         11    1    3    3    0    0 -0.22385133875E+02  0.24529192913E+02 -0.16758904636E+03  0.17084748749E+03  0.00000000000E+00 0. -1.
         -3    1    1    2    0  502  0.29137458687E+02 -0.14652255918E+02 -0.81051215668E+02  0.87366925455E+02  0.00000000000E+00 0.  1.
<scales pt_clust_5="13000.00000" pt_clust_6="13000.00000" pt_clust_7="13000.00000" pt_clust_8="13000.00000" pt_clust_9="32.61413"></scales>
<clustering>
<clus scale="   32.614">  1  9  2 -1</clus>
<clus scale="   80.705">  5  6 -1 -1</clus>
<clus scale="   89.432">  7  8 -1 -1</clus>
<clus scale="   94.071">  1  5  2 -1</clus>
<clus scale="   32.614">  1  5  2 -1</clus>
</clustering>
</event>
<event>
 9    1  0.5981539E-005  0.1126128E+03  0.7546771E-02  0.1262699E+00
         21   -1    0    0  501  502  0.00000000000E+00  0.00000000000E+00  0.43314926915E+02  0.43314926915E+02  0.00000000000E+00 0.  1.
          1   -1    0    0  502    0 -0.00000000000E+00 -0.00000000000E+00 -0.70026318036E+03  0.70026318036E+03  0.00000000000E+00 0. -1.
        -24    2    1    2    0    0  0.81413634121E+02  0.31316588242E+01 -0.51594499908E+03  0.52727106913E+03  0.71955202451E+02 0.  0.
         23    2    1    2    0    0 -0.23824061742E+02 -0.16961510202E+02 -0.12076000420E+03  0.15371620164E+03  0.90500902132E+02 0.  0.
         11    1    3    3    0    0  0.81268906258E+02 -0.18141000079E+02 -0.45879373760E+03  0.46628899265E+03  0.00000000000E+00 0. -1.
        -12    1    3    3    0    0  0.14472786367E+00  0.21272658903E+02 -0.57151261487E+02  0.60982076485E+02  0.00000000000E+00 0.  1.
        -13    1    4    4    0    0 -0.37567474596E+02  0.66224267567E+00 -0.75538958905E+01  0.38325123040E+02  0.00000000000E+00 0.  1.
         13    1    4    4    0    0  0.13743412854E+02 -0.17623752878E+02 -0.11320610831E+03  0.11539107860E+03  0.00000000000E+00 0. -1.
          2    1    1    2  501    0 -0.57589572379E+02  0.13829851378E+02 -0.20243250157E+02  0.62590836493E+02  0.00000000000E+00 0. -1.
<scales pt_clust_5="13000.00000" pt_clust_6="13000.00000" pt_clust_7="13000.00000" pt_clust_8="13000.00000" pt_clust_9="59.22688"></scales>
<clustering>
<clus scale="   59.227">  1  9  2 -1</clus>
<clus scale="   71.955">  5  6 -1 -1</clus>
<clus scale="   90.501">  7  8 -1 -1</clus>
<clus scale="   98.330">  2  5  1 -1</clus>
<clus scale="   59.227">  1  5  2 -1</clus>
</clustering>
</event>
<event>
 9    1  0.5981539E-005  0.1002363E+03  0.7546771E-02  0.1284350E+00
          1   -1    0    0  502    0 -0.00000000000E+00  0.00000000000E+00  0.25234663145E+03  0.25234663145E+03  0.00000000000E+00 0. -1.
         21   -1    0    0  501  502  0.00000000000E+00 -0.00000000000E+00 -0.66974613438E+02  0.66974613438E+02  0.00000000000E+00 0. -1.
         23    2    1    2    0    0  0.11333314374E+02  0.22285040195E+02  0.12010621516E+03  0.15375579437E+03  0.92683732929E+02 0.  0.
        -24    2    1    2    0    0 -0.10345718301E+02 -0.58476625458E+02  0.76149408897E+02  0.12775990767E+03  0.83649936763E+02 0.  0.
         13    1    4    4    0    0 -0.19904215787E+02 -0.39541100831E+02  0.91453312258E+02  0.10160405890E+03  0.00000000000E+00 0. -1.
        -14    1    4    4    0    0  0.95584974868E+01 -0.18935524627E+02 -0.15303903360E+02  0.26155848776E+02  0.00000000000E+00 0.  1.
        -13    1    3    3    0    0  0.31229254906E+02 -0.27829662317E+02  0.57974847290E+02  0.71490134878E+02  0.00000000000E+00 0.  1.
         13    1    3    3    0    0 -0.19895940531E+02  0.50114702511E+02  0.62131367875E+02  0.82265659491E+02  0.00000000000E+00 0. -1.
          2    1    1    2  501    0 -0.98759607376E+00  0.36191585263E+02 -0.10883606045E+02  0.37805542853E+02  0.00000000000E+00 0. -1.
<scales pt_clust_5="13000.00000" pt_clust_6="13000.00000" pt_clust_7="13000.00000" pt_clust_8="13000.00000" pt_clust_9="36.20506"></scales>
<clustering>
<clus scale="   36.205">  2  9  1 -1</clus>
<clus scale="   83.650">  5  6 -1 -1</clus>
<clus scale="   91.948">  2  5  1 -1</clus>
<clus scale="   92.684">  7  8 -1 -1</clus>
<clus scale="   36.205">  2  5  1 -1</clus>
</clustering>
</event>
<event>
 9    1  0.5981539E-005  0.2955964E+03  0.7546771E-02  0.1087972E+00
          1   -1    0    0  502    0 -0.00000000000E+00  0.00000000000E+00  0.18761220911E+04  0.18761220911E+04  0.00000000000E+00 0. -1.
         21   -1    0    0  501  502  0.00000000000E+00 -0.00000000000E+00 -0.96217977575E+02  0.96217977575E+02  0.00000000000E+00 0. -1.
        -24    2    1    2    0    0  0.26566590292E+02  0.29229347472E+03  0.15414760284E+04  0.15710986510E+04  0.77854774080E+02 0.  0.
         23    2    1    2    0    0  0.13911140893E+02 -0.22874926185E+03  0.17227066801E+03  0.30097618170E+03  0.91595492579E+02 0.  0.
         11    1    3    3    0    0  0.50574766428E+02  0.13367309245E+03  0.76127126404E+03  0.77457100391E+03  0.00000000000E+00 0. -1.
        -12    1    3    3    0    0 -0.24008176136E+02  0.15862038227E+03  0.78020476439E+03  0.79652764709E+03  0.00000000000E+00 0.  1.
        -13    1    4    4    0    0  0.40120143526E+02 -0.17471457875E+03  0.94280691938E+02  0.20254298017E+03  0.00000000000E+00 0. -1.
         13    1    4    4    0    0 -0.26209002633E+02 -0.54034683093E+02  0.77989976070E+02  0.98433201530E+02  0.00000000000E+00 0.  1.
          2    1    1    2  501    0 -0.40477731185E+02 -0.63544212875E+02  0.66157417110E+02  0.10026523600E+03  0.00000000000E+00 0. -1.
<scales pt_clust_5="13000.00000" pt_clust_6="13000.00000" pt_clust_7="13000.00000" pt_clust_8="13000.00000" pt_clust_9="75.34131"></scales>
<clustering>
<clus scale="   75.341">  2  9  1 -1</clus>
<clus scale="   77.855">  5  6 -1 -1</clus>
<clus scale="   91.595">  7  8 -1 -1</clus>
<clus scale="  291.631">  1  5  2 -1</clus>
<clus scale="   75.341">  2  5  1 -1</clus>
</clustering>
</event>
<event>
 9    1  0.5981539E-005  0.9817465E+02  0.7546771E-02  0.1288072E+00
         21   -1    0    0  501  502  0.00000000000E+00  0.00000000000E+00  0.44554180762E+02  0.44554180762E+02  0.00000000000E+00 0. -1.
          1   -1    0    0  502    0 -0.00000000000E+00 -0.00000000000E+00 -0.70329779386E+03  0.70329779386E+03  0.00000000000E+00 0. -1.
         23    2    1    2    0    0  0.17333348606E+02  0.32054695635E+02 -0.47878962449E+03  0.48814573080E+03  0.87856709991E+02 0.  0.
        -24    2    1    2    0    0 -0.31203978777E+02 -0.88547078616E+02 -0.90489976672E+02  0.15299357753E+03  0.80027029584E+02 0.  0.
         11    1    4    4    0    0 -0.58217045745E+02 -0.53140795202E+02 -0.58523921780E+02  0.98174426153E+02  0.00000000000E+00 0. -1.
        -12    1    4    4    0    0  0.27013066968E+02 -0.35406283414E+02 -0.31966054892E+02  0.54819151376E+02  0.00000000000E+00 0.  1.
        -11    1    3    3    0    0  0.53031160193E+02  0.21763288977E+02 -0.26220917967E+03  0.26840193479E+03  0.00000000000E+00 0. -1.
         11    1    3    3    0    0 -0.35697811587E+02  0.10291406657E+02 -0.21658044482E+03  0.21974379601E+03  0.00000000000E+00 0.  1.
          2    1    1    2  501    0  0.13870630171E+02  0.56492382981E+02 -0.89464011938E+02  0.10671266630E+03  0.00000000000E+00 0. -1.
<scales pt_clust_5="13000.00000" pt_clust_6="13000.00000" pt_clust_7="13000.00000" pt_clust_8="13000.00000" pt_clust_9="58.17030"></scales>
<clustering>
<clus scale="   58.170">  1  9  2 -1</clus>
<clus scale="   80.027">  5  6 -1 -1</clus>
<clus scale="   87.857">  7  8 -1 -1</clus>
<clus scale="   91.235">  1  5  2 -1</clus>
<clus scale="   58.170">  1  5  2 -1</clus>
</clustering>
</event>
<event>
 9    1  0.5981539E-005  0.1301020E+03  0.7546771E-02  0.1230622E+00
          1   -1    0    0  502    0 -0.00000000000E+00  0.00000000000E+00  0.15197562551E+04  0.15197562551E+04  0.00000000000E+00 0. -1.
         21   -1    0    0  501  502  0.00000000000E+00 -0.00000000000E+00 -0.21456878448E+02  0.21456878448E+02  0.00000000000E+00 0. -1.
        -24    2    1    2    0    0  0.12059442867E+03  0.11826389472E+02  0.10116127022E+04  0.10219152589E+04  0.79168537039E+02 0.  0.
         23    2    1    2    0    0 -0.47310432007E+02 -0.97891633431E+01  0.33701788981E+03  0.35263822287E+03  0.91861599603E+02 0.  0.
         13    1    3    3    0    0  0.11369341756E+03  0.86417213514E+01  0.63051576222E+03  0.64074253718E+03  0.00000000000E+00 0. -1.
        -14    1    3    3    0    0  0.69010111111E+01  0.31846681208E+01  0.38109694001E+03  0.38117272168E+03  0.00000000000E+00 0.  1.
        -11    1    4    4    0    0 -0.61923926259E+02 -0.32984764072E+02  0.17898766603E+03  0.19224763170E+03  0.00000000000E+00 0. -1.
         11    1    4    4    0    0  0.14613494251E+02  0.23195600729E+02  0.15803022378E+03  0.16039059117E+03  0.00000000000E+00 0.  1.
          2    1    1    2  501    0 -0.73283996662E+02 -0.20372261291E+01  0.14966878458E+03  0.16665965179E+03  0.00000000000E+00 0. -1.
<scales pt_clust_5="13000.00000" pt_clust_6="13000.00000" pt_clust_7="13000.00000" pt_clust_8="13000.00000" pt_clust_9="73.31231"></scales>
<clustering>
<clus scale="   73.312">  2  9  1 -1</clus>
<clus scale="   79.169">  5  6 -1 -1</clus>
<clus scale="   91.862">  7  8 -1 -1</clus>
<clus scale="  121.473">  1  5  2 -1</clus>
<clus scale="   73.312">  2  5  1 -1</clus>
</clustering>
</event>
<event>
 9    1  0.5981539E-005  0.6202013E+03  0.7546771E-02  0.1031287E+00
         21   -1    0    0  501  502  0.00000000000E+00  0.00000000000E+00  0.62162974975E+03  0.62162974975E+03  0.00000000000E+00 0. -1.
          1   -1    0    0  502    0 -0.00000000000E+00 -0.00000000000E+00 -0.92585490524E+03  0.92585490524E+03  0.00000000000E+00 0. -1.
         23    2    1    2    0    0 -0.88379419383E+02  0.92568249326E+02  0.35359031687E+02  0.15861197033E+03  0.86762281307E+02 0.  0.
        -24    2    1    2    0    0 -0.47425814327E+03  0.23782916762E+03 -0.48187307884E+03  0.72106312443E+03  0.79037117030E+02 0.  0.
         13    1    4    4    0    0 -0.45123377689E+03  0.23499937580E+03 -0.47691610608E+03  0.69734181021E+03  0.00000000000E+00 0. -1.
        -14    1    4    4    0    0 -0.23024366387E+02  0.28297918254E+01 -0.49569727569E+01  0.23721314218E+02  0.00000000000E+00 0.  1.
        -13    1    3    3    0    0 -0.82121889568E+02  0.60523317511E+02  0.59415706737E+02  0.11805635483E+03  0.00000000000E+00 0.  1.
         13    1    3    3    0    0 -0.62575298147E+01  0.32044931816E+02 -0.24056675050E+02  0.40555615504E+02  0.00000000000E+00 0. -1.
          2    1    1    2  501    0  0.56263756266E+03 -0.33039741695E+03  0.14228889167E+03  0.66780956023E+03  0.00000000000E+00 0. -1.
<scales pt_clust_5="13000.00000" pt_clust_6="13000.00000" pt_clust_7="13000.00000" pt_clust_8="13000.00000" pt_clust_9="615.14449"></scales>
<clustering>
<clus scale="   79.037">  5  6 -1 -1</clus>
<clus scale="   86.762">  7  8 -1 -1</clus>
<clus scale="  154.621">  2  7  1 -1</clus>
<clus scale="  615.144">  1  9  2 -1</clus>
<clus scale="  615.144">  1  5  2 -1</clus>
</clustering>
</event>
<event>
 9    1  0.5981539E-005  0.1144245E+03  0.7546771E-02  0.1253251E+00
          1   -1    0    0  502    0 -0.00000000000E+00  0.00000000000E+00  0.43552304174E+03  0.43552304174E+03  0.00000000000E+00 0. -1.
         21   -1    0    0  501  502  0.00000000000E+00 -0.00000000000E+00 -0.40415135303E+02  0.40415135303E+02  0.00000000000E+00 0. -1.
        -24    2    1    2    0    0  0.57676671292E+02 -0.57929627295E+02  0.19672534828E+03  0.22774293613E+03  0.80520445653E+02 0.  0.
         23    2    1    2    0    0 -0.31249983063E+02  0.78558305968E+02  0.14648929369E+03  0.18641479797E+03  0.78379811540E+02 0.  0.
         11    1    3    3    0    0  0.71689557796E+02 -0.64540375513E+02  0.18376211449E+03  0.20754124287E+03  0.00000000000E+00 0. -1.
        -12    1    3    3    0    0 -0.14012886503E+02  0.66107482186E+01  0.12963233789E+02  0.20201693257E+02  0.00000000000E+00 0.  1.
        -11    1    4    4    0    0  0.61513759407E+01  0.52113852196E+02  0.28214307797E+02  0.59579696047E+02  0.00000000000E+00 0. -1.
         11    1    4    4    0    0 -0.37401359004E+02  0.26444453772E+02  0.11827498590E+03  0.12683510192E+03  0.00000000000E+00 0.  1.
          2    1    1    2  501    0 -0.26426688230E+02 -0.20628678673E+02  0.51893264463E+02  0.61780442951E+02  0.00000000000E+00 0. -1.
<scales pt_clust_5="13000.00000" pt_clust_6="13000.00000" pt_clust_7="13000.00000" pt_clust_8="13000.00000" pt_clust_9="33.52482"></scales>
<clustering>
<clus scale="   33.525">  2  9  1 -1</clus>
<clus scale="   78.380">  7  8 -1 -1</clus>
<clus scale="   80.520">  5  6 -1 -1</clus>
<clus scale="  112.928">  2  7  1 -1</clus>
<clus scale="   33.525">  2  5  1 -1</clus>
</clustering>
</event>
<event>
 9    1  0.5981539E-005  0.1511720E+03  0.7546771E-02  0.1200680E+00
         21   -1    0    0  501  502  0.00000000000E+00  0.00000000000E+00  0.18437386516E+03  0.18437386516E+03  0.00000000000E+00 0. -1.
          3   -1    0    0  502    0 -0.00000000000E+00 -0.00000000000E+00 -0.26812627822E+03  0.26812627822E+03  0.00000000000E+00 0. -1.
         23    2    1    2    0    0  0.37955810312E+02 -0.16290226473E+03 -0.80858488625E+02  0.20649467020E+03  0.90134134765E+02 0.  0.
        -24    2    1    2    0    0 -0.79960925805E+02  0.48273146836E+02  0.46796529026E+01  0.12368775789E+03  0.80948847680E+02 0.  0.
         11    1    4    4    0    0 -0.90350675374E+02  0.20556784089E+02 -0.42895394807E+01  0.92758967553E+02  0.00000000000E+00 0. -1.
        -12    1    4    4    0    0  0.10389749568E+02  0.27716362746E+02  0.89691923833E+01  0.30928790341E+02  0.00000000000E+00 0.  1.
        -11    1    3    3    0    0  0.45638285358E+02 -0.33637393192E+02 -0.44270706548E+02  0.71932070521E+02  0.00000000000E+00 0.  1.
         11    1    3    3    0    0 -0.76824750467E+01 -0.12926487153E+03 -0.36587782077E+02  0.13456259968E+03  0.00000000000E+00 0. -1.
          4    1    1    2  501    0  0.42005115494E+02  0.11462911789E+03 -0.75735773380E+01  0.12231771527E+03  0.00000000000E+00 0. -1.
<scales pt_clust_5="13000.00000" pt_clust_6="13000.00000" pt_clust_7="13000.00000" pt_clust_8="13000.00000" pt_clust_9="122.08302"></scales>
<clustering>
<clus scale="   80.949">  5  6 -1 -1</clus>
<clus scale="   90.134">  7  8 -1 -1</clus>
<clus scale="  122.083">  1  9  2 -1</clus>
<clus scale="  145.882">  1  5  2 -1</clus>
<clus scale="  122.083">  1  5  2 -1</clus>
</clustering>
</event>
<event>
 9    1  0.5981539E-005  0.1148057E+03  0.7546771E-02  0.1253758E+00
         21   -1    0    0  501  502  0.00000000000E+00  0.00000000000E+00  0.23644041016E+03  0.23644041016E+03  0.00000000000E+00 0. -1.
         -2   -1    0    0    0  501 -0.00000000000E+00 -0.00000000000E+00 -0.24010639451E+03  0.24010639451E+03  0.00000000000E+00 0.  1.
        -24    2    1    2    0    0  0.37485914117E+01  0.67026257080E+02 -0.18765723407E+03  0.21695209217E+03  0.85711152845E+02 0.  0.
         23    2    1    2    0    0 -0.16364359258E+02 -0.93018686094E+02  0.84515321042E+02  0.15600791628E+03  0.90969017991E+02 0.  0.
         13    1    3    3    0    0 -0.95883348121E+01  0.41147544268E+02 -0.19925954105E+02  0.46712955492E+02  0.00000000000E+00 0. -1.
        -14    1    3    3    0    0  0.13336926224E+02  0.25878712812E+02 -0.16773127997E+03  0.17023913668E+03  0.00000000000E+00 0.  1.
        -13    1    4    4    0    0 -0.29483491361E+02 -0.66710427816E+01 -0.53438747483E+01  0.30697492926E+02  0.00000000000E+00 0.  1.
         13    1    4    4    0    0  0.13119132104E+02 -0.86347643312E+02  0.89859195790E+02  0.12531042335E+03  0.00000000000E+00 0. -1.
         -1    1    1    2    0  502  0.12615767846E+02  0.25992429013E+02  0.99475928682E+02  0.10358679622E+03  0.00000000000E+00 0.  1.
<scales pt_clust_5="13000.00000" pt_clust_6="13000.00000" pt_clust_7="13000.00000" pt_clust_8="13000.00000" pt_clust_9="28.89228"></scales>
<clustering>
<clus scale="   28.892">  1  9  2 -1</clus>
<clus scale="   85.711">  5  6 -1 -1</clus>
<clus scale="   90.969">  7  8 -1 -1</clus>
<clus scale="  110.686">  2  5  1 -1</clus>
<clus scale="   28.892">  1  5  2 -1</clus>
</clustering>
</event>
<event>
 9    1  0.5981539E-005  0.1517409E+03  0.7546771E-02  0.1225911E+00
         21   -1    0    0  501  502  0.00000000000E+00  0.00000000000E+00  0.21568385934E+03  0.21568385934E+03  0.00000000000E+00 0.  1.
          1   -1    0    0  502    0 -0.00000000000E+00 -0.00000000000E+00 -0.14890908133E+03  0.14890908133E+03  0.00000000000E+00 0. -1.
        -24    2    1    2    0    0 -0.23989971089E+02 -0.48738338592E+01  0.12269401464E+02  0.85297207208E+02  0.80782438537E+02 0.  0.
         23    2    1    2    0    0 -0.18245200847E+02 -0.11377907799E+03  0.35035005211E+02  0.15185390909E+03  0.92485632268E+02 0.  0.
         13    1    3    3    0    0  0.67395876636E+01 -0.20950163514E+02 -0.25725350573E+02  0.33854468763E+02  0.00000000000E+00 0. -1.
        -14    1    3    3    0    0 -0.30729558753E+02  0.16076329655E+02  0.37994752038E+02  0.51442738445E+02  0.00000000000E+00 0.  1.
        -13    1    4    4    0    0 -0.31062801801E+02 -0.39887930700E+02  0.54536552535E+02  0.74365181595E+02  0.00000000000E+00 0.  1.
         13    1    4    4    0    0  0.12817600953E+02 -0.73891147285E+02 -0.19501547325E+02  0.77488727499E+02  0.00000000000E+00 0. -1.
          2    1    1    2  501    0  0.42235171937E+02  0.11865291184E+03  0.19470371333E+02  0.12744182436E+03  0.00000000000E+00 0. -1.
<scales pt_clust_5="13000.00000" pt_clust_6="13000.00000" pt_clust_7="13000.00000" pt_clust_8="13000.00000" pt_clust_9="120.29846"></scales>
<clustering>
<clus scale="   80.782">  5  6 -1 -1</clus>
<clus scale="   84.410">  2  5  1 -1</clus>
<clus scale="   92.486">  7  8 -1 -1</clus>
<clus scale="  120.298">  1  9  2 -1</clus>
<clus scale="  120.298">  1  5  2 -1</clus>
</clustering>
</event>
<event>
 9    1  0.5981539E-005  0.1173788E+03  0.7546771E-02  0.1249890E+00
         -2   -1    0    0    0  501 -0.00000000000E+00  0.00000000000E+00  0.47437990205E+02  0.47437990205E+02  0.00000000000E+00 0.  1.
         21   -1    0    0  501  502  0.00000000000E+00 -0.00000000000E+00 -0.54465429718E+03  0.54465429718E+03  0.00000000000E+00 0. -1.
         23    2    1    2    0    0  0.20731146927E+02 -0.75428691133E+02 -0.59077568397E+02  0.13109480475E+03  0.87042638088E+02 0.  0.
        -24    2    1    2    0    0  0.49160740548E+01  0.83962559418E+02 -0.33686295477E+03  0.35617672498E+03  0.79443879226E+02 0.  0.
         13    1    4    4    0    0  0.31911731405E+02  0.15211129189E+02 -0.17092724030E+03  0.17454471785E+03  0.00000000000E+00 0. -1.
        -14    1    4    4    0    0 -0.26995657350E+02  0.68751430229E+02 -0.16593571447E+03  0.18163200712E+03  0.00000000000E+00 0.  1.
        -13    1    3    3    0    0  0.30745234090E+02 -0.45950511813E+02 -0.77288135957E+02  0.95027232490E+02  0.00000000000E+00 0. -1.
         13    1    3    3    0    0 -0.10014087163E+02 -0.29478179320E+02  0.18210567560E+02  0.36067572258E+02  0.00000000000E+00 0.  1.
         -1    1    1    2    0  502 -0.25647220982E+02 -0.85338682850E+01 -0.10127578381E+03  0.10482075767E+03  0.00000000000E+00 0.  1.
<scales pt_clust_5="13000.00000" pt_clust_6="13000.00000" pt_clust_7="13000.00000" pt_clust_8="13000.00000" pt_clust_9="27.02974"></scales>
<clustering>
<clus scale="   27.030">  2  9  1 -1</clus>
<clus scale="   79.444">  5  6 -1 -1</clus>
<clus scale="   87.043">  7  8 -1 -1</clus>
<clus scale="  111.860">  2  5  1 -1</clus>
<clus scale="   27.030">  2  5  1 -1</clus>
</clustering>
</event>
<event>
 9    1  0.5981539E-005  0.1595074E+03  0.7546771E-02  0.1191181E+00
         -2   -1    0    0    0  501 -0.00000000000E+00  0.00000000000E+00  0.16706472167E+03  0.16706472167E+03  0.00000000000E+00 0.  1.
         21   -1    0    0  501  502  0.00000000000E+00 -0.00000000000E+00 -0.28986203615E+03  0.28986203615E+03  0.00000000000E+00 0.  1.
         23    2    1    2    0    0  0.91840680467E+01  0.11695609105E+03  0.42171068232E+02  0.15467718314E+03  0.91561769574E+02 0.  0.
        -24    2    1    2    0    0 -0.54096743210E+01 -0.17555148089E+03 -0.14103047481E+03  0.23884067001E+03  0.79420928015E+02 0.  0.
         13    1    4    4    0    0  0.19337560572E+02 -0.32159596386E+02 -0.64018734007E+02  0.74206328520E+02  0.00000000000E+00 0. -1.
        -14    1    4    4    0    0 -0.24747234893E+02 -0.14339188450E+03 -0.77011740806E+02  0.16463434149E+03  0.00000000000E+00 0.  1.
        -11    1    3    3    0    0 -0.59559148429E+01  0.47802883571E+02 -0.27402189155E+02  0.55420831551E+02  0.00000000000E+00 0.  1.
         11    1    3    3    0    0  0.15139982890E+02  0.69153207480E+02  0.69573257387E+02  0.99256351586E+02  0.00000000000E+00 0. -1.
         -1    1    1    2    0  502 -0.37743937256E+01  0.58595389835E+02 -0.23937907899E+02  0.63408904678E+02  0.00000000000E+00 0.  1.
<scales pt_clust_5="13000.00000" pt_clust_6="13000.00000" pt_clust_7="13000.00000" pt_clust_8="13000.00000" pt_clust_9="58.71683"></scales>
<clustering>
<clus scale="   58.717">  2  9  1 -1</clus>
<clus scale="   79.421">  5  6 -1 -1</clus>
<clus scale="   91.562">  7  8 -1 -1</clus>
<clus scale="  152.862">  2  5  1 -1</clus>
<clus scale="   58.717">  2  5  1 -1</clus>
</clustering>
</event>
<event>
 9    1  0.5981539E-005  0.1700290E+03  0.7546771E-02  0.1179472E+00
          1   -1    0    0  502    0 -0.00000000000E+00  0.00000000000E+00  0.64368269297E+03  0.64368269297E+03  0.00000000000E+00 0. -1.
         21   -1    0    0  501  502  0.00000000000E+00 -0.00000000000E+00 -0.14626237175E+03  0.14626237175E+03  0.00000000000E+00 0. -1.
         23    2    1    2    0    0 -0.42294659023E+02 -0.13024669603E+03  0.47275259362E+03  0.50031896882E+03  0.89838832248E+02 0.  0.
        -24    2    1    2    0    0  0.66635375715E+02  0.16560662297E+03  0.87648695817E+02  0.21340669365E+03  0.77422839966E+02 0.  0.
         11    1    4    4    0    0  0.40381496466E+02  0.39310805978E+02  0.58357677759E+02  0.81127204296E+02  0.00000000000E+00 0. -1.
        -12    1    4    4    0    0  0.26253879249E+02  0.12629581699E+03  0.29291018059E+02  0.13227948935E+03  0.00000000000E+00 0.  1.
        -11    1    3    3    0    0  0.24652800275E+02 -0.68045241619E+02  0.20474793131E+03  0.21716268290E+03  0.00000000000E+00 0. -1.
         11    1    3    3    0    0 -0.66947459298E+02 -0.62201454410E+02  0.26800466231E+03  0.28315628592E+03  0.00000000000E+00 0.  1.
          2    1    1    2  501    0 -0.24340716692E+02 -0.35359926938E+02 -0.62980968212E+02  0.76219402248E+02  0.00000000000E+00 0. -1.
<scales pt_clust_5="13000.00000" pt_clust_6="13000.00000" pt_clust_7="13000.00000" pt_clust_8="13000.00000" pt_clust_9="42.92779"></scales>
<clustering>
<clus scale="   42.928">  2  9  1 -1</clus>
<clus scale="   77.423">  5  6 -1 -1</clus>
<clus scale="   89.839">  7  8 -1 -1</clus>
<clus scale="  163.808">  2  5  1 -1</clus>
<clus scale="   42.928">  2  5  1 -1</clus>
</clustering>
</event>
<event>
 9    1  0.5981539E-005  0.1430035E+03  0.7546771E-02  0.1212618E+00
          3   -1    0    0  502    0 -0.00000000000E+00  0.00000000000E+00  0.16913520463E+03  0.16913520463E+03  0.00000000000E+00 0. -1.
         21   -1    0    0  501  502  0.00000000000E+00 -0.00000000000E+00 -0.29716214326E+03  0.29716214326E+03  0.00000000000E+00 0.  1.
        -24    2    1    2    0    0  0.59900778828E+02  0.98578353034E+02  0.10794898176E+03  0.17555634453E+03  0.76558816938E+02 0.  0.
         23    2    1    2    0    0 -0.21456917033E+02 -0.69662504360E+02 -0.19407950744E+03  0.22694941902E+03  0.92335907327E+02 0.  0.
         13    1    3    3    0    0  0.75372094741E+02  0.93045673296E+02  0.83051114323E+02  0.14572555567E+03  0.00000000000E+00 0. -1.
        -14    1    3    3    0    0 -0.15471315913E+02  0.55326797383E+01  0.24897867441E+02  0.29830788864E+02  0.00000000000E+00 0.  1.
        -13    1    4    4    0    0 -0.28864652662E+01 -0.77250571256E+02 -0.19175907333E+03  0.20675474516E+03  0.00000000000E+00 0.  1.
         13    1    4    4    0    0 -0.18570451767E+02  0.75880668957E+01 -0.23204341172E+01  0.20194673866E+02  0.00000000000E+00 0. -1.
          4    1    1    2  501    0 -0.38443861795E+02 -0.28915848674E+02 -0.41896412946E+02  0.63791584335E+02  0.00000000000E+00 0. -1.
<scales pt_clust_5="13000.00000" pt_clust_6="13000.00000" pt_clust_7="13000.00000" pt_clust_8="13000.00000" pt_clust_9="48.10464"></scales>
<clustering>
<clus scale="   48.105">  2  9  1 -1</clus>
<clus scale="   76.559">  5  6 -1 -1</clus>
<clus scale="   92.336">  7  8 -1 -1</clus>
<clus scale="  133.362">  1  5  2 -1</clus>
<clus scale="   48.105">  2  5  1 -1</clus>
</clustering>
</event>
<event>
 9    1  0.5981539E-005  0.1055776E+03  0.7546771E-02  0.1275491E+00
         21   -1    0    0  501  502  0.00000000000E+00  0.00000000000E+00  0.84090291057E+03  0.84090291057E+03  0.00000000000E+00 0. -1.
          1   -1    0    0  502    0 -0.00000000000E+00 -0.00000000000E+00 -0.19784129395E+02  0.19784129395E+02  0.00000000000E+00 0. -1.
        -24    2    1    2    0    0 -0.68233009454E+02 -0.17010169436E+02  0.27516221507E+03  0.29398861557E+03  0.75960332001E+02 0.  0.
         23    2    1    2    0    0  0.32568391690E+02 -0.18391622115E+02  0.41434329984E+03  0.42581796563E+03  0.90783356570E+02 0.  0.
         13    1    3    3    0    0 -0.72706717277E+01 -0.24754428828E+02  0.23386915133E+02  0.34822294775E+02  0.00000000000E+00 0. -1.
        -14    1    3    3    0    0 -0.60962337726E+02  0.77442593924E+01  0.25177529994E+03  0.25916632079E+03  0.00000000000E+00 0.  1.
        -11    1    4    4    0    0  0.50688436855E+02  0.20464529498E+02  0.20761700683E+03  0.21469265502E+03  0.00000000000E+00 0.  1.
         11    1    4    4    0    0 -0.18120045165E+02 -0.38856151612E+02  0.20672629301E+03  0.21112531060E+03  0.00000000000E+00 0. -1.
          2    1    1    2  501    0  0.35664617763E+02  0.35401791551E+02  0.13161326626E+03  0.14088045877E+03  0.00000000000E+00 0. -1.
<scales pt_clust_5="13000.00000" pt_clust_6="13000.00000" pt_clust_7="13000.00000" pt_clust_8="13000.00000" pt_clust_9="50.25191"></scales>
<clustering>
<clus scale="   50.252">  1  9  2 -1</clus>
<clus scale="   75.960">  5  6 -1 -1</clus>
<clus scale="   90.783">  7  8 -1 -1</clus>
<clus scale="   93.140">  2  5  1 -1</clus>
<clus scale="   50.252">  1  5  2 -1</clus>
</clustering>
</event>
<event>
 9    1  0.5981539E-005  0.1259897E+03  0.7546771E-02  0.1236443E+00
         21   -1    0    0  501  502  0.00000000000E+00  0.00000000000E+00  0.13452632353E+03  0.13452632353E+03  0.00000000000E+00 0.  1.
         -2   -1    0    0    0  501 -0.00000000000E+00 -0.00000000000E+00 -0.24828340340E+03  0.24828340340E+03  0.00000000000E+00 0.  1.
        -24    2    1    2    0    0 -0.65270488758E+02 -0.85046116860E+02 -0.15483376187E+03  0.20442221226E+03  0.79510177682E+02 0.  0.
         23    2    1    2    0    0  0.48306613610E+01  0.43231247051E+02  0.26723805645E+02  0.10350453174E+03  0.90037493813E+02 0.  0.
         13    1    3    3    0    0 -0.40437124259E+02 -0.69091502252E-02 -0.26021532042E+02  0.48086185083E+02  0.00000000000E+00 0. -1.
        -14    1    3    3    0    0 -0.24833364499E+02 -0.85039207709E+02 -0.12881222983E+03  0.15633602718E+03  0.00000000000E+00 0.  1.
        -11    1    4    4    0    0 -0.29293238345E+02  0.45183665475E+02 -0.83946008687E+01  0.54498869366E+02  0.00000000000E+00 0.  1.
         11    1    4    4    0    0  0.34123899706E+02 -0.19524184234E+01  0.35118406513E+02  0.49005662375E+02  0.00000000000E+00 0. -1.
         -1    1    1    2    0  502  0.60439827397E+02  0.41814869808E+02  0.14352876353E+02  0.74882982930E+02  0.00000000000E+00 0.  1.
<scales pt_clust_5="13000.00000" pt_clust_6="13000.00000" pt_clust_7="13000.00000" pt_clust_8="13000.00000" pt_clust_9="73.49460"></scales>
<clustering>
<clus scale="   73.495">  1  9  2 -1</clus>
<clus scale="   79.510">  5  6 -1 -1</clus>
<clus scale="   90.037">  7  8 -1 -1</clus>
<clus scale="  118.695">  2  5  1 -1</clus>
<clus scale="   73.495">  1  5  2 -1</clus>
</clustering>
</event>
<event>
 9    1  0.5981539E-005  0.1273597E+03  0.7546771E-02  0.1234358E+00
         21   -1    0    0  501  502  0.00000000000E+00  0.00000000000E+00  0.13969665322E+03  0.13969665322E+03  0.00000000000E+00 0. -1.
          3   -1    0    0  502    0 -0.00000000000E+00 -0.00000000000E+00 -0.26294870943E+03  0.26294870943E+03  0.00000000000E+00 0. -1.
         23    2    1    2    0    0  0.44136420359E+02  0.51351509870E+02 -0.21155970865E+02  0.11568449581E+03  0.91380119821E+02 0.  0.
        -24    2    1    2    0    0 -0.12167411814E+03 -0.49019343835E+02  0.57537469861E+01  0.15411087659E+03  0.80681903695E+02 0.  0.
         13    1    4    4    0    0 -0.67757857417E+02 -0.67706014109E+02 -0.55152115132E+01  0.95946074158E+02  0.00000000000E+00 0. -1.
        -14    1    4    4    0    0 -0.53916260728E+02  0.18686670274E+02  0.11268958499E+02  0.58164802436E+02  0.00000000000E+00 0.  1.
        -13    1    3    3    0    0 -0.25993439450E+02  0.25842911713E+02  0.41438840059E+01  0.36887487783E+02  0.00000000000E+00 0.  1.
         13    1    3    3    0    0  0.70129859809E+02  0.25508598157E+02 -0.25299854871E+02  0.78797008023E+02  0.00000000000E+00 0. -1.
          4    1    1    2  501    0  0.77537697786E+02 -0.23321660352E+01 -0.10784983233E+03  0.13284999025E+03  0.00000000000E+00 0. -1.
<scales pt_clust_5="13000.00000" pt_clust_6="13000.00000" pt_clust_7="13000.00000" pt_clust_8="13000.00000" pt_clust_9="77.57280"></scales>
<clustering>
<clus scale="   77.573">  1  9  2 -1</clus>
<clus scale="   80.682">  5  6 -1 -1</clus>
<clus scale="   91.380">  7  8 -1 -1</clus>
<clus scale="  119.916">  1  5  2 -1</clus>
<clus scale="   77.573">  1  5  2 -1</clus>
</clustering>
</event>
<event>
 9    1  0.5981539E-005  0.5019484E+03  0.7546771E-02  0.1013272E+00
         21   -1    0    0  501  502  0.00000000000E+00  0.00000000000E+00  0.11517908482E+03  0.11517908482E+03  0.00000000000E+00 0. -1.
          1   -1    0    0  502    0 -0.00000000000E+00 -0.00000000000E+00 -0.20717452025E+04  0.20717452025E+04  0.00000000000E+00 0. -1.
        -24    2    1    2    0    0  0.35239951295E+03 -0.12810079194E+03 -0.54540708115E+03  0.66689644514E+03  0.81772579469E+02 0.  0.
         23    2    1    2    0    0  0.75402885330E+02  0.12643632484E+02 -0.21314212178E+03  0.24269085622E+03  0.87314552393E+02 0.  0.
         13    1    3    3    0    0  0.28475119205E+03 -0.13497998301E+03 -0.46288081369E+03  0.55996561044E+03  0.00000000000E+00 0. -1.
        -14    1    3    3    0    0  0.67648320898E+02  0.68791910728E+01 -0.82526267455E+02  0.10693083470E+03  0.00000000000E+00 0.  1.
        -11    1    4    4    0    0  0.66993323120E+02  0.35355099770E+02 -0.92100299803E+02  0.11924996288E+03  0.00000000000E+00 0.  1.
         11    1    4    4    0    0  0.84095622099E+01 -0.22711467286E+02 -0.12104182197E+03  0.12344089335E+03  0.00000000000E+00 0. -1.
          2    1    1    2  501    0 -0.42780239828E+03  0.11545715945E+03 -0.11980169148E+04  0.12773369860E+04  0.00000000000E+00 0. -1.
<scales pt_clust_5="13000.00000" pt_clust_6="13000.00000" pt_clust_7="13000.00000" pt_clust_8="13000.00000" pt_clust_9="443.10884"></scales>
<clustering>
<clus scale="   81.773">  5  6 -1 -1</clus>
<clus scale="   87.315">  7  8 -1 -1</clus>
<clus scale="   96.641">  5  7 -1 -1</clus>
<clus scale="  443.109">  1  9  2 -1</clus>
<clus scale="  443.109">  1  5  2 -1</clus>
</clustering>
</event>
<event>
 9    1  0.5981539E-005  0.1113123E+03  0.7546771E-02  0.1262489E+00
         21   -1    0    0  501  502  0.00000000000E+00  0.00000000000E+00  0.58331878551E+02  0.58331878551E+02  0.00000000000E+00 0.  1.
         -4   -1    0    0    0  501 -0.00000000000E+00 -0.00000000000E+00 -0.51235600198E+03  0.51235600198E+03  0.00000000000E+00 0.  1.
        -24    2    1    2    0    0 -0.17765292312E+01  0.67182076454E+02 -0.42577239175E+03  0.43826115414E+03  0.79209356750E+02 0.  0.
         23    2    1    2    0    0 -0.14161933985E+02 -0.46906919648E+02 -0.17554568543E+02  0.10450637732E+03  0.90623399513E+02 0.  0.
         13    1    3    3    0    0 -0.15169191964E+02  0.35815723820E+02 -0.64054853781E+02  0.74939273752E+02  0.00000000000E+00 0. -1.
        -14    1    3    3    0    0  0.13392662733E+02  0.31366352635E+02 -0.36171753797E+03  0.36332188038E+03  0.00000000000E+00 0.  1.
        -11    1    4    4    0    0 -0.19806420215E+02 -0.72849732091E+02 -0.19226525163E+02  0.77904024397E+02  0.00000000000E+00 0. -1.
         11    1    4    4    0    0  0.56444862306E+01  0.25942812443E+02  0.16719566199E+01  0.26602352926E+02  0.00000000000E+00 0.  1.
         -3    1    1    2    0  502  0.15938463216E+02 -0.20275156806E+02 -0.10697163138E+02  0.27920349074E+02  0.00000000000E+00 0.  1.
<scales pt_clust_5="13000.00000" pt_clust_6="13000.00000" pt_clust_7="13000.00000" pt_clust_8="13000.00000" pt_clust_9="25.78985"></scales>
<clustering>
<clus scale="   25.790">  1  9  2 -1</clus>
<clus scale="   79.209">  5  6 -1 -1</clus>
<clus scale="   90.623">  7  8 -1 -1</clus>
<clus scale="  102.235">  2  5  1 -1</clus>
<clus scale="   25.790">  1  5  2 -1</clus>
</clustering>
</event>
<event>
 9    1  0.5981539E-005  0.1483014E+03  0.7546771E-02  0.1204811E+00
         21   -1    0    0  501  502  0.00000000000E+00  0.00000000000E+00  0.39941088900E+03  0.39941088900E+03  0.00000000000E+00 0.  1.
          1   -1    0    0  502    0 -0.00000000000E+00 -0.00000000000E+00 -0.55769002760E+03  0.55769002760E+03  0.00000000000E+00 0. -1.
        -24    2    1    2    0    0  0.62474568270E+01  0.11432397087E+03 -0.48845908973E+03  0.50776196595E+03  0.78236377045E+02 0.  0.
         23    2    1    2    0    0  0.91405099614E+01 -0.18584152773E+03  0.15176669970E+03  0.25651042905E+03  0.90243264124E+02 0.  0.
         11    1    3    3    0    0 -0.47053794863E+01  0.11496887363E+03 -0.48081073201E+03  0.49438744171E+03  0.00000000000E+00 0. -1.
        -12    1    3    3    0    0  0.10952836313E+02 -0.64490276319E+00 -0.76483577145E+01  0.13374524239E+02  0.00000000000E+00 0.  1.
        -11    1    4    4    0    0  0.37081351274E+02 -0.17087785502E+03  0.13285958004E+03  0.21960404358E+03  0.00000000000E+00 0.  1.
         11    1    4    4    0    0 -0.27940841312E+02 -0.14963672709E+02  0.18907119661E+02  0.36906385464E+02  0.00000000000E+00 0. -1.
          2    1    1    2  501    0 -0.15387966788E+02  0.71517556866E+02  0.17841325143E+03  0.19282852161E+03  0.00000000000E+00 0. -1.
<scales pt_clust_5="13000.00000" pt_clust_6="13000.00000" pt_clust_7="13000.00000" pt_clust_8="13000.00000" pt_clust_9="73.15429"></scales>
<clustering>
<clus scale="   73.154">  1  9  2 -1</clus>
<clus scale="   78.236">  5  6 -1 -1</clus>
<clus scale="   90.243">  7  8 -1 -1</clus>
<clus scale="  141.317">  2  5  1 -1</clus>
<clus scale="   73.154">  1  5  2 -1</clus>
</clustering>
</event>
<event>
 9    1  0.5981539E-005  0.1722398E+03  0.7546771E-02  0.1201947E+00
         21   -1    0    0  501  502  0.00000000000E+00  0.00000000000E+00  0.18807887074E+03  0.18807887074E+03  0.00000000000E+00 0.  1.
          1   -1    0    0  502    0 -0.00000000000E+00 -0.00000000000E+00 -0.32930006304E+03  0.32930006304E+03  0.00000000000E+00 0. -1.
         23    2    1    2    0    0  0.17814600368E+02 -0.27729874439E+02  0.75098341908E+02  0.12185227102E+03  0.90121634876E+02 0.  0.
        -24    2    1    2    0    0 -0.16109291486E+03  0.42314565465E+02 -0.14336643919E+03  0.23408459052E+03  0.80623879607E+02 0.  0.
         11    1    4    4    0    0 -0.85083588509E+02 -0.12949565753E+02 -0.95714365825E+02  0.12871731862E+03  0.00000000000E+00 0. -1.
        -12    1    4    4    0    0 -0.76009326354E+02  0.55264131218E+02 -0.47652073367E+02  0.10536727190E+03  0.00000000000E+00 0.  1.
        -13    1    3    3    0    0  0.52092851959E+02 -0.16575870635E+01  0.33378169825E+02  0.61891154788E+02  0.00000000000E+00 0. -1.
         13    1    3    3    0    0 -0.34278251591E+02 -0.26072287376E+02  0.41720172083E+02  0.59961116232E+02  0.00000000000E+00 0.  1.
          2    1    1    2  501    0  0.14327831450E+03 -0.14584691025E+02 -0.72953095017E+02  0.16144207224E+03  0.00000000000E+00 0. -1.
<scales pt_clust_5="13000.00000" pt_clust_6="13000.00000" pt_clust_7="13000.00000" pt_clust_8="13000.00000" pt_clust_9="152.20495"></scales>
<clustering>
<clus scale="   80.624">  5  6 -1 -1</clus>
<clus scale="   90.122">  7  8 -1 -1</clus>
<clus scale="   95.959">  2  7  1 -1</clus>
<clus scale="  152.205">  1  9  2 -1</clus>
<clus scale="  152.205">  1  5  2 -1</clus>
</clustering>
</event>
<event>
 9    1  0.5981539E-005  0.1576424E+03  0.7546771E-02  0.1222304E+00
         21   -1    0    0  501  502  0.00000000000E+00  0.00000000000E+00  0.22280564274E+02  0.22280564274E+02  0.00000000000E+00 0.  1.
         -2   -1    0    0    0  501 -0.00000000000E+00 -0.00000000000E+00 -0.18393572838E+04  0.18393572838E+04  0.00000000000E+00 0.  1.
        -24    2    1    2    0    0  0.99111583099E+01  0.75682379539E+01 -0.77847678091E+03  0.78269610418E+03  0.80197155817E+02 0.  0.
         23    2    1    2    0    0 -0.13319045039E+03  0.36944476631E+02 -0.58318345932E+03  0.60503950162E+03  0.82856869766E+02 0.  0.
         13    1    3    3    0    0  0.27613520844E+02 -0.93231324595E+01 -0.11073538602E+03  0.11450656335E+03  0.00000000000E+00 0. -1.
        -14    1    3    3    0    0 -0.17702362534E+02  0.16891370413E+02 -0.66774139489E+03  0.66818954084E+03  0.00000000000E+00 0.  1.
        -13    1    4    4    0    0 -0.88034377473E+01  0.35104113444E+02 -0.15362336664E+03  0.15782882523E+03  0.00000000000E+00 0. -1.
         13    1    4    4    0    0 -0.12438701264E+03  0.18403631872E+01 -0.42956009268E+03  0.44721067638E+03  0.00000000000E+00 0.  1.
         -1    1    1    2    0  502  0.12327929208E+03 -0.44512714585E+02 -0.45541647926E+03  0.47390224223E+03  0.00000000000E+00 0.  1.
<scales pt_clust_5="13000.00000" pt_clust_6="13000.00000" pt_clust_7="13000.00000" pt_clust_8="13000.00000" pt_clust_9="134.11143"></scales>
<clustering>
<clus scale="   80.197">  5  6 -1 -1</clus>
<clus scale="   81.161">  2  5  1 -1</clus>
<clus scale="   82.857">  7  8 -1 -1</clus>
<clus scale="  134.111">  1  9  2 -1</clus>
<clus scale="  134.111">  1  5  2 -1</clus>
</clustering>
</event>
<event>
 9    1  0.5981539E-005  0.9273539E+02  0.7546771E-02  0.1300594E+00
         21   -1    0    0  501  502  0.00000000000E+00  0.00000000000E+00  0.93347676365E+02  0.93347676365E+02  0.00000000000E+00 0. -1.
          1   -1    0    0  502    0 -0.00000000000E+00 -0.00000000000E+00 -0.61999870774E+03  0.61999870774E+03  0.00000000000E+00 0. -1.
        -24    2    1    2    0    0  0.24647006567E+02  0.22622234664E+02 -0.41896727298E+03  0.42790946893E+03  0.80334907357E+02 0.  0.
         23    2    1    2    0    0 -0.36450195835E+02  0.19921459874E+02 -0.17779987634E+03  0.20257829331E+03  0.87747863524E+02 0.  0.
         13    1    3    3    0    0  0.54040497079E+02  0.11658295684E+02 -0.24792490061E+03  0.25401387270E+03  0.00000000000E+00 0. -1.
        -14    1    3    3    0    0 -0.29393490511E+02  0.10963938980E+02 -0.17104237237E+03  0.17389559623E+03  0.00000000000E+00 0.  1.
        -13    1    4    4    0    0  0.17613399392E+02 -0.20726975123E+02 -0.33043408269E+02  0.42798436489E+02  0.00000000000E+00 0.  1.
         13    1    4    4    0    0 -0.54063595227E+02  0.40648434997E+02 -0.14475646808E+03  0.15977985682E+03  0.00000000000E+00 0. -1.
          2    1    1    2  501    0  0.11803189267E+02 -0.42543694539E+02  0.70116117945E+02  0.82858621866E+02  0.00000000000E+00 0. -1.
<scales pt_clust_5="13000.00000" pt_clust_6="13000.00000" pt_clust_7="13000.00000" pt_clust_8="13000.00000" pt_clust_9="44.15067"></scales>
<clustering>
<clus scale="   44.151">  1  9  2 -1</clus>
<clus scale="   80.335">  5  6 -1 -1</clus>
<clus scale="   85.755">  2  5  1 -1</clus>
<clus scale="   87.748">  7  8 -1 -1</clus>
<clus scale="   44.151">  1  5  2 -1</clus>
</clustering>
</event>
<event>
 9    1  0.5981539E-005  0.1087803E+03  0.7546771E-02  0.1265730E+00
         21   -1    0    0  501  502  0.00000000000E+00  0.00000000000E+00  0.30637387731E+03  0.30637387731E+03  0.00000000000E+00 0. -1.
         -2   -1    0    0    0  501 -0.00000000000E+00 -0.00000000000E+00 -0.15237665249E+03  0.15237665249E+03  0.00000000000E+00 0.  1.
         23    2    1    2    0    0  0.64136238229E+02 -0.37102514762E+02  0.71293347235E+01  0.11517775702E+03  0.87892176229E+02 0.  0.
        -24    2    1    2    0    0 -0.17659272458E+01  0.43984627068E+02  0.22523837919E+03  0.24317679317E+03  0.80404349132E+02 0.  0.
         13    1    4    4    0    0  0.38384791328E+02  0.17570928871E+02  0.84492174422E+02  0.94451348774E+02  0.00000000000E+00 0. -1.
        -14    1    4    4    0    0 -0.40150718574E+02  0.26413698197E+02  0.14074620477E+03  0.14872544440E+03  0.00000000000E+00 0.  1.
        -11    1    3    3    0    0  0.73208342696E+02 -0.56883828834E+02  0.99090552626E+01  0.93238515643E+02  0.00000000000E+00 0.  1.
         11    1    3    3    0    0 -0.90721044661E+01  0.19781314072E+02 -0.27797205391E+01  0.21939241376E+02  0.00000000000E+00 0. -1.
         -1    1    1    2    0  502 -0.62370310984E+02 -0.68821123060E+01 -0.78370489087E+02  0.10039597961E+03  0.00000000000E+00 0.  1.
<scales pt_clust_5="13000.00000" pt_clust_6="13000.00000" pt_clust_7="13000.00000" pt_clust_8="13000.00000" pt_clust_9="62.74889"></scales>
<clustering>
<clus scale="   62.749">  1  9  2 -1</clus>
<clus scale="   80.404">  5  6 -1 -1</clus>
<clus scale="   87.892">  7  8 -1 -1</clus>
<clus scale="  102.825">  1  5  2 -1</clus>
<clus scale="   62.749">  1  5  2 -1</clus>
</clustering>
</event>
<event>
 9    1  0.5981539E-005  0.2737377E+03  0.7546771E-02  0.1099702E+00
         21   -1    0    0  501  502  0.00000000000E+00  0.00000000000E+00  0.82656149842E+02  0.82656149842E+02  0.00000000000E+00 0.  1.
         -2   -1    0    0    0  501 -0.00000000000E+00 -0.00000000000E+00 -0.19018626966E+04  0.19018626966E+04  0.00000000000E+00 0.  1.
        -24    2    1    2    0    0  0.21593636095E+03 -0.23048724925E+03 -0.12476149156E+04  0.12894907320E+04  0.80563553982E+02 0.  0.
         23    2    1    2    0    0 -0.48507359399E+02  0.18902535098E+03 -0.38104329214E+03  0.43800626894E+03  0.92584847112E+02 0.  0.
         13    1    3    3    0    0  0.72789882040E+02 -0.97589677867E+02 -0.63240819386E+03  0.64402036910E+03  0.00000000000E+00 0. -1.
        -14    1    3    3    0    0  0.14314647891E+03 -0.13289757138E+03 -0.61520672170E+03  0.64547036285E+03  0.00000000000E+00 0.  1.
        -11    1    4    4    0    0  0.16617513535E+01  0.13890851596E+03 -0.19947531816E+03  0.24308175534E+03  0.00000000000E+00 0.  1.
         11    1    4    4    0    0 -0.50169110753E+02  0.50116835020E+02 -0.18156797398E+03  0.19492451360E+03  0.00000000000E+00 0. -1.
         -1    1    1    2    0  502 -0.16742900155E+03  0.41461898265E+02 -0.19054833904E+03  0.25702184553E+03  0.00000000000E+00 0.  1.
<scales pt_clust_5="13000.00000" pt_clust_6="13000.00000" pt_clust_7="13000.00000" pt_clust_8="13000.00000" pt_clust_9="172.48640"></scales>
<clustering>
<clus scale="   80.564">  5  6 -1 -1</clus>
<clus scale="   92.585">  7  8 -1 -1</clus>
<clus scale="  172.486">  1  9  2 -1</clus>
<clus scale="  269.909">  2  5  1 -1</clus>
<clus scale="  172.486">  1  5  2 -1</clus>
</clustering>
</event>
<event>
 9    1  0.5981539E-005  0.1628758E+03  0.7546771E-02  0.1186461E+00
         21   -1    0    0  501  502  0.00000000000E+00  0.00000000000E+00  0.53758906688E+03  0.53758906688E+03  0.00000000000E+00 0. -1.
          1   -1    0    0  502    0 -0.00000000000E+00 -0.00000000000E+00 -0.62003000256E+03  0.62003000256E+03  0.00000000000E+00 0. -1.
        -24    2    1    2    0    0  0.16135000148E+02 -0.13886527485E+03 -0.57146278352E+03  0.59383207566E+03  0.80764585985E+02 0.  0.
         23    2    1    2    0    0  0.41868243318E+02  0.10922351916E+03  0.11989884093E+03  0.18896062843E+03  0.87450901109E+02 0.  0.
         11    1    3    3    0    0  0.12007083513E+02 -0.11573160361E+03 -0.30670408575E+03  0.32803257513E+03  0.00000000000E+00 0. -1.
        -12    1    3    3    0    0  0.41279166348E+01 -0.23133671240E+02 -0.26475869777E+03  0.26579950053E+03  0.00000000000E+00 0.  1.
        -11    1    4    4    0    0  0.86004030242E+01  0.49224953916E+02  0.10844808118E+03  0.11940707404E+03  0.00000000000E+00 0.  1.
         11    1    4    4    0    0  0.33267840293E+02  0.59998565248E+02  0.11450759750E+02  0.69553554391E+02  0.00000000000E+00 0. -1.
          2    1    1    2  501    0 -0.58003243466E+02  0.29641755684E+02  0.36912300691E+03  0.37482636535E+03  0.00000000000E+00 0. -1.
<scales pt_clust_5="13000.00000" pt_clust_6="13000.00000" pt_clust_7="13000.00000" pt_clust_8="13000.00000" pt_clust_9="65.13839"></scales>
<clustering>
<clus scale="   65.138">  1  9  2 -1</clus>
<clus scale="   80.765">  5  6 -1 -1</clus>
<clus scale="   87.451">  7  8 -1 -1</clus>
<clus scale="  159.386">  2  5  1 -1</clus>
<clus scale="   65.138">  1  5  2 -1</clus>
</clustering>
</event>
<event>
 9    1  0.5981539E-005  0.1376870E+03  0.7546771E-02  0.1225051E+00
         21   -1    0    0  501  502  0.00000000000E+00  0.00000000000E+00  0.69632590323E+02  0.69632590323E+02  0.00000000000E+00 0.  1.
          1   -1    0    0  502    0 -0.00000000000E+00 -0.00000000000E+00 -0.60596097939E+03  0.60596097939E+03  0.00000000000E+00 0. -1.
         23    2    1    2    0    0 -0.22993997806E+02  0.35004681420E+02 -0.10235099542E+03  0.15396918810E+03  0.10712951492E+03 0.  0.
        -24    2    1    2    0    0 -0.91698574907E+02 -0.49498884784E+02 -0.36272231570E+03  0.38582396077E+03  0.80211483952E+02 0.  0.
         13    1    4    4    0    0 -0.72652637684E+02 -0.38229738955E+02 -0.35159742280E+03  0.36105493546E+03  0.00000000000E+00 0. -1.
        -14    1    4    4    0    0 -0.19045937224E+02 -0.11269145829E+02 -0.11124892906E+02  0.24769025306E+02  0.00000000000E+00 0.  1.
        -11    1    3    3    0    0 -0.11424014859E+02 -0.33661083862E+02 -0.67070197218E+02  0.75907760058E+02  0.00000000000E+00 0. -1.
         11    1    3    3    0    0 -0.11569982947E+02  0.68665765281E+02 -0.35280798200E+02  0.78061428046E+02  0.00000000000E+00 0.  1.
          2    1    1    2  501    0  0.11469257271E+03  0.14494203364E+02 -0.71255077941E+02  0.13580042084E+03  0.00000000000E+00 0. -1.
<scales pt_clust_5="13000.00000" pt_clust_6="13000.00000" pt_clust_7="13000.00000" pt_clust_8="13000.00000" pt_clust_9="111.90994"></scales>
<clustering>
<clus scale="   80.211">  5  6 -1 -1</clus>
<clus scale="  107.130">  7  8 -1 -1</clus>
<clus scale="  115.025">  2  7  1 -1</clus>
<clus scale="  111.910">  1  9  2 -1</clus>
<clus scale="  111.910">  1  5  2 -1</clus>
</clustering>
</event>
<event>
 9    1  0.5981539E-005  0.8975112E+02  0.7546771E-02  0.1307806E+00
         21   -1    0    0  501  502  0.00000000000E+00  0.00000000000E+00  0.30425313538E+03  0.30425313538E+03  0.00000000000E+00 0. -1.
          1   -1    0    0  502    0 -0.00000000000E+00 -0.00000000000E+00 -0.10962466499E+03  0.10962466499E+03  0.00000000000E+00 0. -1.
         23    2    1    2    0    0  0.23656326465E+02 -0.76555334987E+01 -0.54695292461E+02  0.10599243777E+03  0.87318914748E+02 0.  0.
        -24    2    1    2    0    0  0.10447823708E+02 -0.34065798053E+02  0.23680992626E+03  0.25256485400E+03  0.80252281487E+02 0.  0.
         11    1    4    4    0    0 -0.39196157022E+01 -0.52827609090E+02  0.21109814031E+03  0.21764315866E+03  0.00000000000E+00 0. -1.
        -12    1    4    4    0    0  0.14367439410E+02  0.18761811037E+02  0.25711785944E+02  0.34921695334E+02  0.00000000000E+00 0.  1.
        -11    1    3    3    0    0  0.36517529677E+02  0.20957352846E+02  0.94882932000E+00  0.42114616099E+02  0.00000000000E+00 0. -1.
         11    1    3    3    0    0 -0.12861203212E+02 -0.28612886345E+02 -0.55644121781E+02  0.63877821675E+02  0.00000000000E+00 0.  1.
          2    1    1    2  501    0 -0.34104150173E+02  0.41721331552E+02  0.12513836599E+02  0.55320508601E+02  0.00000000000E+00 0. -1.
<scales pt_clust_5="13000.00000" pt_clust_6="13000.00000" pt_clust_7="13000.00000" pt_clust_8="13000.00000" pt_clust_9="53.88660"></scales>
<clustering>
<clus scale="   53.887">  1  9  2 -1</clus>
<clus scale="   80.252">  5  6 -1 -1</clus>
<clus scale="   82.892">  1  5  2 -1</clus>
<clus scale="   87.319">  7  8 -1 -1</clus>
<clus scale="   53.887">  1  5  2 -1</clus>
</clustering>
</event>
<event>
 9    1  0.5981539E-005  0.1313073E+03  0.7546771E-02  0.1243667E+00
          1   -1    0    0  502    0 -0.00000000000E+00  0.00000000000E+00  0.82891576135E+03  0.82891576135E+03  0.00000000000E+00 0. -1.
         21   -1    0    0  501  502  0.00000000000E+00 -0.00000000000E+00 -0.11424830054E+03  0.11424830054E+03  0.00000000000E+00 0. -1.
        -24    2    1    2    0    0  0.22126386854E+01  0.40432277634E+02  0.56015530340E+03  0.56742604253E+03  0.80985708385E+02 0.  0.
         23    2    1    2    0    0  0.43773473883E+02  0.44446677801E+02  0.22839997593E+03  0.25417088009E+03  0.92437346895E+02 0.  0.
         11    1    3    3    0    0 -0.34442983664E+02  0.39167909940E+02  0.27299708074E+03  0.27793497510E+03  0.00000000000E+00 0. -1.
        -12    1    3    3    0    0  0.36655622349E+02  0.12643676942E+01  0.28715822266E+03  0.28949106743E+03  0.00000000000E+00 0.  1.
        -13    1    4    4    0    0  0.68598300292E+01  0.35832769932E+02  0.18556814409E+02  0.40931650712E+02  0.00000000000E+00 0. -1.
         13    1    4    4    0    0  0.36913643854E+02  0.86139078689E+01  0.20984316152E+03  0.21323922938E+03  0.00000000000E+00 0.  1.
          2    1    1    2  501    0 -0.45986112568E+02 -0.84878955435E+02 -0.73887818515E+02  0.12156713927E+03  0.00000000000E+00 0. -1.
<scales pt_clust_5="13000.00000" pt_clust_6="13000.00000" pt_clust_7="13000.00000" pt_clust_8="13000.00000" pt_clust_9="93.25741"></scales>
<clustering>
<clus scale="   80.986">  5  6 -1 -1</clus>
<clus scale="   90.545">  1  5  2 -1</clus>
<clus scale="   92.437">  7  8 -1 -1</clus>
<clus scale="   93.257">  2  9  1 -1</clus>
<clus scale="   93.257">  2  5  1 -1</clus>
</clustering>
</event>
<event>
 9    1  0.5981539E-005  0.2087903E+03  0.7546771E-02  0.1143375E+00
          1   -1    0    0  502    0 -0.00000000000E+00  0.00000000000E+00  0.67906567179E+03  0.67906567179E+03  0.00000000000E+00 0. -1.
         21   -1    0    0  501  502  0.00000000000E+00 -0.00000000000E+00 -0.16350818336E+03  0.16350818336E+03  0.00000000000E+00 0.  1.
        -24    2    1    2    0    0  0.10118899130E+03 -0.16060431195E+03  0.56505660145E+03  0.60146802468E+03  0.80261229054E+02 0.  0.
         23    2    1    2    0    0 -0.71078752287E+02  0.16303162497E+03 -0.61215209839E+02  0.20870544056E+03  0.90438704311E+02 0.  0.
         13    1    3    3    0    0  0.33215411811E+02 -0.12482237273E+03  0.34467844934E+03  0.36808575326E+03  0.00000000000E+00 0. -1.
        -14    1    3    3    0    0  0.67973579493E+02 -0.35781939221E+02  0.22037815211E+03  0.23338227142E+03  0.00000000000E+00 0.  1.
        -13    1    4    4    0    0 -0.53660602112E+02  0.53007840099E+02 -0.61483012066E+02  0.97311109867E+02  0.00000000000E+00 0.  1.
         13    1    4    4    0    0 -0.17418150175E+02  0.11002378487E+03  0.26780222705E+00  0.11139433069E+03  0.00000000000E+00 0. -1.
          2    1    1    2  501    0 -0.30110239017E+02 -0.24273130198E+01  0.11716096809E+02  0.32400389914E+02  0.00000000000E+00 0. -1.
<scales pt_clust_5="13000.00000" pt_clust_6="13000.00000" pt_clust_7="13000.00000" pt_clust_8="13000.00000" pt_clust_9="30.20792"></scales>
<clustering>
<clus scale="   30.208">  2  9  1 -1</clus>
<clus scale="   80.261">  5  6 -1 -1</clus>
<clus scale="   90.439">  7  8 -1 -1</clus>
<clus scale="  204.588">  1  5  2 -1</clus>
<clus scale="   30.208">  2  5  1 -1</clus>
</clustering>
</event>
<event>
 9    1  0.5981539E-005  0.1151786E+03  0.7546771E-02  0.1254438E+00
          1   -1    0    0  502    0 -0.00000000000E+00  0.00000000000E+00  0.30900070354E+03  0.30900070354E+03  0.00000000000E+00 0. -1.
         21   -1    0    0  501  502  0.00000000000E+00 -0.00000000000E+00 -0.24828671330E+03  0.24828671330E+03  0.00000000000E+00 0. -1.
        -24    2    1    2    0    0 -0.75352367690E+02  0.19970128203E+02  0.26015318345E+03  0.28353815482E+03  0.81470369120E+02 0.  0.
         23    2    1    2    0    0  0.25157630403E+02 -0.22224837353E+02 -0.36572053164E+02  0.10330777450E+03  0.90598738604E+02 0.  0.
         11    1    3    3    0    0 -0.43978041743E+02 -0.28279424726E+02  0.15616802426E+03  0.16468832934E+03  0.00000000000E+00 0. -1.
        -12    1    3    3    0    0 -0.31374325947E+02  0.48249552929E+02  0.10398515919E+03  0.11884982548E+03  0.00000000000E+00 0.  1.
        -13    1    4    4    0    0  0.59321780035E+02 -0.93143851248E+01 -0.21174672774E+02  0.63672585340E+02  0.00000000000E+00 0.  1.
         13    1    4    4    0    0 -0.34164149632E+02 -0.12910452228E+02 -0.15397380391E+02  0.39635189160E+02  0.00000000000E+00 0. -1.
          2    1    1    2  501    0  0.50194737287E+02  0.22547091505E+01 -0.16286714004E+03  0.17044148753E+03  0.00000000000E+00 0. -1.
<scales pt_clust_5="13000.00000" pt_clust_6="13000.00000" pt_clust_7="13000.00000" pt_clust_8="13000.00000" pt_clust_9="50.24535"></scales>
<clustering>
<clus scale="   50.245">  2  9  1 -1</clus>
<clus scale="   81.470">  5  6 -1 -1</clus>
<clus scale="   90.599">  7  8 -1 -1</clus>
<clus scale="  108.145">  1  5  2 -1</clus>
<clus scale="   50.245">  2  5  1 -1</clus>
</clustering>
</event>
<event>
 9    1  0.5981539E-005  0.2554232E+03  0.7546771E-02  0.1110417E+00
         21   -1    0    0  501  502  0.00000000000E+00  0.00000000000E+00  0.20510949283E+03  0.20510949283E+03  0.00000000000E+00 0. -1.
          1   -1    0    0  502    0 -0.00000000000E+00 -0.00000000000E+00 -0.95610281228E+03  0.95610281228E+03  0.00000000000E+00 0. -1.
        -24    2    1    2    0    0  0.24894245619E+03 -0.42614460153E+02 -0.73508594305E+03  0.78144371411E+03  0.80713046943E+02 0.  0.
         23    2    1    2    0    0 -0.19543229136E+03  0.51579194943E+02 -0.12768662481E+03  0.25551761683E+03  0.90173080790E+02 0.  0.
         13    1    3    3    0    0  0.21468873930E+03 -0.34458860676E+02 -0.52211775791E+03  0.56558431819E+03  0.00000000000E+00 0. -1.
        -14    1    3    3    0    0  0.34253716880E+02 -0.81555994765E+01 -0.21296818514E+03  0.21585939591E+03  0.00000000000E+00 0.  1.
        -13    1    4    4    0    0 -0.17416780633E+03  0.69733612006E+02 -0.88646637023E+02  0.20749801845E+03  0.00000000000E+00 0.  1.
         13    1    4    4    0    0 -0.21264485028E+02 -0.18154417063E+02 -0.39039987782E+02  0.48019598379E+02  0.00000000000E+00 0. -1.
          2    1    1    2  501    0 -0.53510164826E+02 -0.89647347901E+01  0.11177924840E+03  0.12425097417E+03  0.00000000000E+00 0. -1.
<scales pt_clust_5="13000.00000" pt_clust_6="13000.00000" pt_clust_7="13000.00000" pt_clust_8="13000.00000" pt_clust_9="54.25591"></scales>
<clustering>
<clus scale="   54.256">  1  9  2 -1</clus>
<clus scale="   80.713">  5  6 -1 -1</clus>
<clus scale="   90.173">  7  8 -1 -1</clus>
<clus scale="  252.239">  2  5  1 -1</clus>
<clus scale="   54.256">  1  5  2 -1</clus>
</clustering>
</event>
<event>
 9    1  0.5981539E-005  0.1132827E+03  0.7546771E-02  0.1258059E+00
          1   -1    0    0  502    0 -0.00000000000E+00  0.00000000000E+00  0.13415416808E+03  0.13415416808E+03  0.00000000000E+00 0. -1.
         21   -1    0    0  501  502  0.00000000000E+00 -0.00000000000E+00 -0.20176256937E+03  0.20176256937E+03  0.00000000000E+00 0.  1.
        -24    2    1    2    0    0 -0.29458070223E+02 -0.65989621474E+02  0.70410887253E+02  0.12909818488E+03  0.80537197933E+02 0.  0.
         23    2    1    2    0    0  0.44193869846E+02  0.33766780099E+02 -0.13452926645E+03  0.17121468268E+03  0.90127967165E+02 0.  0.
         13    1    3    3    0    0 -0.25815080086E+02 -0.40758506590E+02  0.86434438393E+02  0.98987809146E+02  0.00000000000E+00 0. -1.
        -14    1    3    3    0    0 -0.36429901371E+01 -0.25231114884E+02 -0.16023551140E+02  0.30110375729E+02  0.00000000000E+00 0.  1.
        -11    1    4    4    0    0  0.36549330723E+01 -0.27030382016E+02 -0.15027727530E+02  0.31142136767E+02  0.00000000000E+00 0. -1.
         11    1    4    4    0    0  0.40538936774E+02  0.60797162115E+02 -0.11950153892E+03  0.14007254591E+03  0.00000000000E+00 0.  1.
          2    1    1    2  501    0 -0.14735799623E+02  0.32222841375E+02 -0.34900221008E+01  0.35603869889E+02  0.00000000000E+00 0. -1.
<scales pt_clust_5="13000.00000" pt_clust_6="13000.00000" pt_clust_7="13000.00000" pt_clust_8="13000.00000" pt_clust_9="35.43242"></scales>
<clustering>
<clus scale="   35.432">  2  9  1 -1</clus>
<clus scale="   80.537">  5  6 -1 -1</clus>
<clus scale="   90.128">  7  8 -1 -1</clus>
<clus scale="  105.812">  1  5  2 -1</clus>
<clus scale="   35.432">  2  5  1 -1</clus>
</clustering>
</event>
<event>
 9    1  0.5981539E-005  0.9734844E+02  0.7546771E-02  0.1293083E+00
          3   -1    0    0  502    0 -0.00000000000E+00  0.00000000000E+00  0.80723871478E+03  0.80723871478E+03  0.00000000000E+00 0. -1.
         21   -1    0    0  501  502  0.00000000000E+00 -0.00000000000E+00 -0.22991308487E+02  0.22991308487E+02  0.00000000000E+00 0. -1.
        -24    2    1    2    0    0 -0.20777647128E+02 -0.28356056986E+02  0.20522687086E+03  0.22208953622E+03  0.77265237897E+02 0.  0.
         23    2    1    2    0    0 -0.49957425705E+02  0.40800087443E+02  0.29664352494E+03  0.31677288336E+03  0.90483629600E+02 0.  0.
         13    1    3    3    0    0  0.35061510517E+01  0.25472621243E+02  0.56922164220E+02  0.62460229808E+02  0.00000000000E+00 0. -1.
        -14    1    3    3    0    0 -0.24283798180E+02 -0.53828678229E+02  0.14830470664E+03  0.15962930641E+03  0.00000000000E+00 0.  1.
        -13    1    4    4    0    0 -0.61426218604E+02  0.61534008903E+02  0.24447038132E+03  0.25947135088E+03  0.00000000000E+00 0. -1.
         13    1    4    4    0    0  0.11468792899E+02 -0.20733921460E+02  0.52173143614E+02  0.57301532477E+02  0.00000000000E+00 0.  1.
          4    1    1    2  501    0  0.70735072833E+02 -0.12444030457E+02  0.28237701050E+03  0.29136760369E+03  0.00000000000E+00 0. -1.
<scales pt_clust_5="13000.00000" pt_clust_6="13000.00000" pt_clust_7="13000.00000" pt_clust_8="13000.00000" pt_clust_9="71.82137"></scales>
<clustering>
<clus scale="   71.821">  2  9  1 -1</clus>
<clus scale="   77.265">  5  6 -1 -1</clus>
<clus scale="   85.202">  1  5  2 -1</clus>
<clus scale="   90.484">  7  8 -1 -1</clus>
<clus scale="   71.821">  2  5  1 -1</clus>
</clustering>
</event>
<event>
 9    1  0.5981539E-005  0.1114786E+03  0.7546771E-02  0.1264415E+00
         21   -1    0    0  501  502  0.00000000000E+00  0.00000000000E+00  0.97054975037E+02  0.97054975037E+02  0.00000000000E+00 0. -1.
          1   -1    0    0  502    0 -0.00000000000E+00 -0.00000000000E+00 -0.34403097139E+03  0.34403097139E+03  0.00000000000E+00 0. -1.
        -24    2    1    2    0    0 -0.59196302689E+02  0.52348792208E+02 -0.26493858984E+03  0.28490412352E+03  0.68799018261E+02 0.  0.
         23    2    1    2    0    0  0.36792098221E+00 -0.33915010777E+02  0.68972344294E+01  0.93547766969E+02  0.86909432976E+02 0.  0.
         13    1    3    3    0    0 -0.72865210594E+02  0.34248358508E+02 -0.18392454831E+03  0.20077482025E+03  0.00000000000E+00 0. -1.
        -14    1    3    3    0    0  0.13668907904E+02  0.18100433700E+02 -0.81014041530E+02  0.84129303269E+02  0.00000000000E+00 0.  1.
        -13    1    4    4    0    0  0.38494066944E+02 -0.64566009435E+01 -0.14866577854E+02  0.41767164408E+02  0.00000000000E+00 0.  1.
         13    1    4    4    0    0 -0.38126145962E+02 -0.27458409833E+02  0.21763812283E+02  0.51780602561E+02  0.00000000000E+00 0. -1.
          2    1    1    2  501    0  0.58828381707E+02 -0.18433781432E+02  0.11065359058E+02  0.62634055938E+02  0.00000000000E+00 0. -1.
<scales pt_clust_5="13000.00000" pt_clust_6="13000.00000" pt_clust_7="13000.00000" pt_clust_8="13000.00000" pt_clust_9="61.64887"></scales>
<clustering>
<clus scale="   61.649">  1  9  2 -1</clus>
<clus scale="   68.799">  5  6 -1 -1</clus>
<clus scale="   86.909">  7  8 -1 -1</clus>
<clus scale="   98.018">  2  5  1 -1</clus>
<clus scale="   61.649">  1  5  2 -1</clus>
</clustering>
</event>
<event>
 9    1  0.9572618E-005  0.1369871E+03  0.7546771E-02  0.1220775E+00
         21   -1    0    0  501  502  0.00000000000E+00  0.00000000000E+00  0.79428145100E+03  0.79428145100E+03  0.00000000000E+00 0.  1.
          1   -1    0    0  502    0 -0.00000000000E+00 -0.00000000000E+00 -0.21259813873E+03  0.21259813873E+03  0.00000000000E+00 0. -1.
         23    2    1    2    0    0 -0.99003603150E+02  0.36604144614E+02 -0.18279102520E+03  0.22884014673E+03  0.88395005641E+02 0.  0.
        -24    2    1    2    0    0  0.80024389035E+02 -0.10773605895E+02  0.65359899313E+03  0.66262380594E+03  0.73203080210E+02 0.  0.
         13    1    4    4    0    0  0.80663332860E+01 -0.24307099628E+02  0.71706452285E+02  0.76142735204E+02  0.00000000000E+00 0. -1.
        -14    1    4    4    0    0  0.71958055749E+02  0.13533493733E+02  0.58189254085E+03  0.58648107074E+03  0.00000000000E+00 0.  1.
        -11    1    3    3    0    0 -0.78327890696E+02  0.61093843809E+01 -0.55155072364E+02  0.95993046862E+02  0.00000000000E+00 0. -1.
         11    1    3    3    0    0 -0.20675712454E+02  0.30494760233E+02 -0.12763595283E+03  0.13284709986E+03  0.00000000000E+00 0.  1.
          2    1    1    2  501    0  0.18979214115E+02 -0.25830538719E+02  0.11087534433E+03  0.11541563707E+03  0.00000000000E+00 0. -1.
<scales pt_clust_5="13000.00000" pt_clust_6="13000.00000" pt_clust_7="13000.00000" pt_clust_8="13000.00000" pt_clust_9="32.05351"></scales>
<clustering>
<clus scale="   32.054">  1  9  2 -1</clus>
<clus scale="   73.203">  5  6 -1 -1</clus>
<clus scale="   88.395">  7  8 -1 -1</clus>
<clus scale="  127.713">  1  5  2 -1</clus>
<clus scale="   32.054">  1  5  2 -1</clus>
</clustering>
</event>
<event>
 9    1  0.5981539E-005  0.1220299E+03  0.7546771E-02  0.1257243E+00
         21   -1    0    0  501  502  0.00000000000E+00  0.00000000000E+00  0.38354874051E+02  0.38354874051E+02  0.00000000000E+00 0. -1.
          1   -1    0    0  502    0 -0.00000000000E+00 -0.00000000000E+00 -0.56821954086E+03  0.56821954086E+03  0.00000000000E+00 0. -1.
        -24    2    1    2    0    0 -0.30284757414E+02  0.11233797540E+02 -0.13208804109E+03  0.15763031645E+03  0.79728924033E+02 0.  0.
         23    2    1    2    0    0 -0.37016566429E+02 -0.69713704624E+02 -0.22937527179E+03  0.25839650932E+03  0.89025355454E+02 0.  0.
         13    1    3    3    0    0 -0.48629487794E+02  0.28162082288E+02 -0.11301620726E+03  0.12621645323E+03  0.00000000000E+00 0. -1.
        -14    1    3    3    0    0  0.18344730379E+02 -0.16928284748E+02 -0.19071833832E+02  0.31413863228E+02  0.00000000000E+00 0.  1.
        -13    1    4    4    0    0 -0.40757019794E+02  0.58834071868E+01 -0.58835303396E+02  0.71814636867E+02  0.00000000000E+00 0.  1.
         13    1    4    4    0    0  0.37404533657E+01 -0.75597111810E+02 -0.17053996840E+03  0.18658187245E+03  0.00000000000E+00 0. -1.
          2    1    1    2  501    0  0.67301323843E+02  0.58479907084E+02 -0.16840135392E+03  0.19054758914E+03  0.00000000000E+00 0. -1.
<scales pt_clust_5="13000.00000" pt_clust_6="13000.00000" pt_clust_7="13000.00000" pt_clust_8="13000.00000" pt_clust_9="83.46124"></scales>
<clustering>
<clus scale="   79.729">  5  6 -1 -1</clus>
<clus scale="   86.024">  2  5  1 -1</clus>
<clus scale="   83.461">  1  9  2 -1</clus>
<clus scale="   89.025">  7  8 -1 -1</clus>
<clus scale="   83.461">  1  5  2 -1</clus>
</clustering>
</event>
<event>
 9    1  0.5981539E-005  0.1003000E+03  0.7546771E-02  0.1284497E+00
          1   -1    0    0  502    0 -0.00000000000E+00  0.00000000000E+00  0.21563036325E+03  0.21563036325E+03  0.00000000000E+00 0. -1.
         21   -1    0    0  501  502  0.00000000000E+00 -0.00000000000E+00 -0.18216664799E+03  0.18216664799E+03  0.00000000000E+00 0.  1.
        -24    2    1    2    0    0 -0.18634338440E+02 -0.36816257181E+02  0.16306133086E+03  0.18615568074E+03  0.79763804379E+02 0.  0.
         23    2    1    2    0    0  0.25353975685E+02  0.68117125981E+02 -0.49940939890E+02  0.12579213774E+03  0.89703943640E+02 0.  0.
         11    1    3    3    0    0 -0.83832073446E+01 -0.26639580626E+02  0.16844189237E+03  0.17074137321E+03  0.00000000000E+00 0. -1.
        -12    1    3    3    0    0 -0.10251131095E+02 -0.10176676554E+02 -0.53805615114E+01  0.15414307529E+02  0.00000000000E+00 0.  1.
        -13    1    4    4    0    0  0.81839647751E+01  0.46017430752E+02 -0.74904193623E+02  0.88290539894E+02  0.00000000000E+00 0.  1.
         13    1    4    4    0    0  0.17170010910E+02  0.22099695229E+02  0.24963253733E+02  0.37501597844E+02  0.00000000000E+00 0. -1.
          2    1    1    2  501    0 -0.67196372459E+01 -0.31300868800E+02 -0.79656675707E+02  0.85849192758E+02  0.00000000000E+00 0. -1.
<scales pt_clust_5="13000.00000" pt_clust_6="13000.00000" pt_clust_7="13000.00000" pt_clust_8="13000.00000" pt_clust_9="32.01403"></scales>
<clustering>
<clus scale="   32.014">  2  9  1 -1</clus>
<clus scale="   79.764">  5  6 -1 -1</clus>
<clus scale="   89.704">  7  8 -1 -1</clus>
<clus scale="   91.518">  1  5  2 -1</clus>
<clus scale="   32.014">  2  5  1 -1</clus>
</clustering>
</event>
<event>
 9    1  0.5981539E-005  0.1489739E+03  0.7546771E-02  0.1203348E+00
         21   -1    0    0  501  502  0.00000000000E+00  0.00000000000E+00  0.38520848437E+02  0.38520848437E+02  0.00000000000E+00 0.  1.
          1   -1    0    0  502    0 -0.00000000000E+00 -0.00000000000E+00 -0.19266383268E+04  0.19266383268E+04  0.00000000000E+00 0. -1.
        -24    2    1    2    0    0  0.10133857518E+03 -0.60179797554E+02 -0.22216548541E+03  0.26468659068E+03  0.82524987266E+02 0.  0.
         23    2    1    2    0    0 -0.73625658777E+02 -0.90706164471E+02 -0.43284361972E+03  0.45785806693E+03  0.92908903888E+02 0.  0.
         11    1    3    3    0    0  0.44746454615E+02  0.26542652485E+01 -0.13912784681E+03  0.14617061292E+03  0.00000000000E+00 0. -1.
        -12    1    3    3    0    0  0.56592120569E+02 -0.62834062803E+02 -0.83037638603E+02  0.11851597776E+03  0.00000000000E+00 0.  1.
        -13    1    4    4    0    0  0.18794705563E+02 -0.38526796894E+02 -0.13724140300E+03  0.14378024111E+03  0.00000000000E+00 0.  1.
         13    1    4    4    0    0 -0.92420364340E+02 -0.52179367576E+02 -0.29560221672E+03  0.31407782582E+03  0.00000000000E+00 0. -1.
          2    1    1    2  501    0 -0.27712916407E+02  0.15088596202E+03 -0.12331083732E+04  0.12426145176E+04  0.00000000000E+00 0. -1.
<scales pt_clust_5="13000.00000" pt_clust_6="13000.00000" pt_clust_7="13000.00000" pt_clust_8="13000.00000" pt_clust_9="116.45246"></scales>
<clustering>
<clus scale="   82.525">  5  6 -1 -1</clus>
<clus scale="   92.909">  7  8 -1 -1</clus>
<clus scale="  143.880">  2  5  1 -1</clus>
<clus scale="  116.452">  1  9  2 -1</clus>
<clus scale="  116.452">  1  5  2 -1</clus>
</clustering>
</event>
<event>
 9    1  0.5981539E-005  0.9930457E+02  0.7546771E-02  0.1289481E+00
          1   -1    0    0  502    0 -0.00000000000E+00  0.00000000000E+00  0.57051368922E+02  0.57051368922E+02  0.00000000000E+00 0. -1.
         21   -1    0    0  501  502  0.00000000000E+00 -0.00000000000E+00 -0.47856257199E+03  0.47856257199E+03  0.00000000000E+00 0. -1.
        -24    2    1    2    0    0 -0.37993660201E+02 -0.70368569288E+01 -0.81166275971E+01  0.86503101473E+02  0.76966689874E+02 0.  0.
         23    2    1    2    0    0  0.37680434323E+02 -0.43564752703E+02 -0.17820993095E+03  0.20854392977E+03  0.91728339934E+02 0.  0.
         13    1    3    3    0    0 -0.47040721746E+02 -0.27953523153E+02 -0.22922122702E+02  0.59326660686E+02  0.00000000000E+00 0. -1.
        -14    1    3    3    0    0  0.90470615450E+01  0.20916666225E+02  0.14805495105E+02  0.27176440787E+02  0.00000000000E+00 0.  1.
        -11    1    4    4    0    0  0.58458654139E+02 -0.18292602514E+02 -0.59451000223E+02  0.85360734404E+02  0.00000000000E+00 0.  1.
         11    1    4    4    0    0 -0.20778219816E+02 -0.25272150189E+02 -0.11875893073E+03  0.12318319537E+03  0.00000000000E+00 0. -1.
          2    1    1    2  501    0  0.31322587803E+00  0.50601609632E+02 -0.23518464452E+03  0.24056690966E+03  0.00000000000E+00 0. -1.
<scales pt_clust_5="13000.00000" pt_clust_6="13000.00000" pt_clust_7="13000.00000" pt_clust_8="13000.00000" pt_clust_9="50.60258"></scales>
<clustering>
<clus scale="   50.603">  2  9  1 -1</clus>
<clus scale="   76.967">  5  6 -1 -1</clus>
<clus scale="   85.856">  1  5  2 -1</clus>
<clus scale="   91.728">  7  8 -1 -1</clus>
<clus scale="   50.603">  2  5  1 -1</clus>
</clustering>
</event>
<event>
 9    1  0.5981539E-005  0.1369317E+03  0.7546771E-02  0.1234304E+00
         -4   -1    0    0    0  501 -0.00000000000E+00  0.00000000000E+00  0.16167909601E+03  0.16167909601E+03  0.00000000000E+00 0.  1.
         21   -1    0    0  501  502  0.00000000000E+00 -0.00000000000E+00 -0.39710362332E+03  0.39710362332E+03  0.00000000000E+00 0.  1.
         23    2    1    2    0    0  0.31757476643E+02  0.10829538439E+02 -0.11456745932E+03  0.14985171144E+03  0.90576025857E+02 0.  0.
        -24    2    1    2    0    0  0.57927827646E+02  0.58938295901E+02  0.10501909695E+03  0.15608511332E+03  0.80648595365E+02 0.  0.
         11    1    4    4    0    0  0.19722150571E+02  0.55379559895E+02  0.18810488715E+02  0.61722713510E+02  0.00000000000E+00 0. -1.
        -12    1    4    4    0    0  0.38205677075E+02  0.35587360059E+01  0.86208608238E+02  0.94362399805E+02  0.00000000000E+00 0.  1.
        -13    1    3    3    0    0  0.13552022813E+02  0.44892518927E+02 -0.26918416823E+02  0.54070294452E+02  0.00000000000E+00 0.  1.
         13    1    3    3    0    0  0.18205453830E+02 -0.34062980488E+02 -0.87649042500E+02  0.95781416987E+02  0.00000000000E+00 0. -1.
         -3    1    1    2    0  502 -0.89685304289E+02 -0.69767834340E+02 -0.22587616494E+03  0.25284589458E+03  0.00000000000E+00 0.  1.
<scales pt_clust_5="13000.00000" pt_clust_6="13000.00000" pt_clust_7="13000.00000" pt_clust_8="13000.00000" pt_clust_9="110.66211"></scales>
<clustering>
<clus scale="   80.649">  5  6 -1 -1</clus>
<clus scale="   90.576">  7  8 -1 -1</clus>
<clus scale="   96.591">  1  7  2 -1</clus>
<clus scale="  110.662">  2  9  1 -1</clus>
<clus scale="  110.662">  2  5  1 -1</clus>
</clustering>
</event>
<event>
 9    1  0.5981539E-005  0.1489123E+03  0.7546771E-02  0.1215670E+00
          1   -1    0    0  502    0 -0.00000000000E+00  0.00000000000E+00  0.13034430103E+03  0.13034430103E+03  0.00000000000E+00 0. -1.
         21   -1    0    0  501  502  0.00000000000E+00 -0.00000000000E+00 -0.38264112322E+03  0.38264112322E+03  0.00000000000E+00 0. -1.
        -24    2    1    2    0    0  0.65176813978E+02 -0.37687183806E+02  0.31648537422E+02  0.11514279063E+03  0.81165826604E+02 0.  0.
         23    2    1    2    0    0  0.83923954404E+02  0.32658947845E+01 -0.10583937600E+03  0.16302865264E+03  0.91227582867E+02 0.  0.
         11    1    3    3    0    0  0.52488668405E+02 -0.45200286645E+02  0.54368499794E+02  0.88057140503E+02  0.00000000000E+00 0. -1.
        -12    1    3    3    0    0  0.12688145573E+02  0.75131028390E+01 -0.22719962372E+02  0.27085650122E+02  0.00000000000E+00 0.  1.
        -13    1    4    4    0    0 -0.86647067445E+01  0.25381132888E+02 -0.36338818545E+02  0.45164020889E+02  0.00000000000E+00 0.  1.
         13    1    4    4    0    0  0.92588661148E+02 -0.22115238103E+02 -0.69500557459E+02  0.11786463175E+03  0.00000000000E+00 0. -1.
          2    1    1    2  501    0 -0.14910076838E+03  0.34421289022E+02 -0.17810598361E+03  0.23481398099E+03  0.00000000000E+00 0. -1.
<scales pt_clust_5="13000.00000" pt_clust_6="13000.00000" pt_clust_7="13000.00000" pt_clust_8="13000.00000" pt_clust_9="117.69623"></scales>
<clustering>
<clus scale="   81.166">  5  6 -1 -1</clus>
<clus scale="   91.228">  7  8 -1 -1</clus>
<clus scale="  110.708">  1  5  2 -1</clus>
<clus scale="  117.696">  2  9  1 -1</clus>
<clus scale="  117.696">  2  5  1 -1</clus>
</clustering>
</event>
<event>
 9    1  0.5981539E-005  0.1263225E+03  0.7546771E-02  0.1236811E+00
          1   -1    0    0  502    0 -0.00000000000E+00  0.00000000000E+00  0.33690086897E+03  0.33690086897E+03  0.00000000000E+00 0. -1.
         21   -1    0    0  501  502  0.00000000000E+00 -0.00000000000E+00 -0.11960624874E+03  0.11960624874E+03  0.00000000000E+00 0. -1.
         23    2    1    2    0    0  0.56116509811E+02  0.78402661876E+02  0.25437464179E+03  0.28761009731E+03  0.93365248481E+02 0.  0.
        -24    2    1    2    0    0  0.57041978239E+01 -0.57951260194E+02 -0.15245045042E+02  0.10021786838E+03  0.80126920035E+02 0.  0.
         11    1    4    4    0    0  0.35977904218E+02 -0.28163332996E+02 -0.30673115271E+02  0.55031108636E+02  0.00000000000E+00 0. -1.
        -12    1    4    4    0    0 -0.30273706394E+02 -0.29787927198E+02  0.15428070228E+02  0.45186759748E+02  0.00000000000E+00 0.  1.
        -11    1    3    3    0    0  0.21711644488E+01  0.75711694295E+02  0.18336577222E+03  0.19839350047E+03  0.00000000000E+00 0.  1.
         11    1    3    3    0    0  0.53945345363E+02  0.26909675803E+01  0.71008869571E+02  0.89216596834E+02  0.00000000000E+00 0. -1.
          2    1    1    2  501    0 -0.61820707635E+02 -0.20451401682E+02 -0.21834976519E+02  0.68679152025E+02  0.00000000000E+00 0. -1.
<scales pt_clust_5="13000.00000" pt_clust_6="13000.00000" pt_clust_7="13000.00000" pt_clust_8="13000.00000" pt_clust_9="65.11574"></scales>
<clustering>
<clus scale="   65.116">  2  9  1 -1</clus>
<clus scale="   80.127">  5  6 -1 -1</clus>
<clus scale="   93.365">  7  8 -1 -1</clus>
<clus scale="  116.879">  2  5  1 -1</clus>
<clus scale="   65.116">  2  5  1 -1</clus>
</clustering>
</event>
<event>
 9    1  0.5981539E-005  0.1913571E+03  0.7546771E-02  0.1181327E+00
          1   -1    0    0  502    0 -0.00000000000E+00  0.00000000000E+00  0.50564417238E+03  0.50564417238E+03  0.00000000000E+00 0. -1.
         21   -1    0    0  501  502  0.00000000000E+00 -0.00000000000E+00 -0.13541406653E+03  0.13541406653E+03  0.00000000000E+00 0.  1.
         23    2    1    2    0    0 -0.33414578008E+02  0.58417308607E+02  0.20861978286E+03  0.23594740712E+03  0.87291747362E+02 0.  0.
        -24    2    1    2    0    0  0.11390464721E+03 -0.17514765316E+03  0.62731930425E+02  0.23224799282E+03  0.79704868192E+02 0.  0.
         11    1    4    4    0    0  0.48536917759E+02 -0.27141725959E+02 -0.70261485909E+01  0.56052407955E+02  0.00000000000E+00 0. -1.
        -12    1    4    4    0    0  0.65367729452E+02 -0.14800592720E+03  0.69758079016E+02  0.17619558487E+03  0.00000000000E+00 0.  1.
        -11    1    3    3    0    0  0.21727713781E+02  0.42253404226E+02  0.13116166069E+03  0.13950206074E+03  0.00000000000E+00 0.  1.
         11    1    3    3    0    0 -0.55142291790E+02  0.16163904381E+02  0.77458122166E+02  0.96445346379E+02  0.00000000000E+00 0. -1.
          2    1    1    2  501    0 -0.80490069203E+02  0.11673034455E+03  0.98878392571E+02  0.17286283897E+03  0.00000000000E+00 0. -1.
<scales pt_clust_5="13000.00000" pt_clust_6="13000.00000" pt_clust_7="13000.00000" pt_clust_8="13000.00000" pt_clust_9="173.96749"></scales>
<clustering>
<clus scale="   79.705">  5  6 -1 -1</clus>
<clus scale="   87.292">  7  8 -1 -1</clus>
<clus scale="  110.222">  1  7  2 -1</clus>
<clus scale="  173.967">  2  9  1 -1</clus>
<clus scale="  173.967">  2  5  1 -1</clus>
</clustering>
</event>
<event>
 9    1  0.5981539E-005  0.1571662E+03  0.7546771E-02  0.1193234E+00
         21   -1    0    0  501  502  0.00000000000E+00  0.00000000000E+00  0.72101518238E+02  0.72101518238E+02  0.00000000000E+00 0. -1.
          1   -1    0    0  502    0 -0.00000000000E+00 -0.00000000000E+00 -0.47344782341E+03  0.47344782341E+03  0.00000000000E+00 0. -1.
         23    2    1    2    0    0  0.13938145736E+02  0.13348519677E+03 -0.26349880920E+03  0.30846519594E+03  0.87787157349E+02 0.  0.
        -24    2    1    2    0    0  0.22456767967E+02 -0.12559937042E+03 -0.13054327389E+03  0.19913513174E+03  0.79584835600E+02 0.  0.
         11    1    4    4    0    0  0.16604879354E+02 -0.92369580121E+02 -0.13571052728E+03  0.16500063202E+03  0.00000000000E+00 0. -1.
        -12    1    4    4    0    0  0.58518886134E+01 -0.33229790297E+02  0.51672533957E+01  0.34134499721E+02  0.00000000000E+00 0.  1.
        -13    1    3    3    0    0 -0.26280697226E+02  0.26899012340E+02 -0.28087361864E+02  0.46937530911E+02  0.00000000000E+00 0.  1.
         13    1    3    3    0    0  0.40218842963E+02  0.10658618443E+03 -0.23541144733E+03  0.26152766503E+03  0.00000000000E+00 0. -1.
          2    1    1    2  501    0 -0.36394913704E+02 -0.78858263516E+01 -0.73042220830E+01  0.37949013966E+02  0.00000000000E+00 0. -1.
<scales pt_clust_5="13000.00000" pt_clust_6="13000.00000" pt_clust_7="13000.00000" pt_clust_8="13000.00000" pt_clust_9="37.23944"></scales>
<clustering>
<clus scale="   37.239">  1  9  2 -1</clus>
<clus scale="   79.585">  5  6 -1 -1</clus>
<clus scale="   87.787">  7  8 -1 -1</clus>
<clus scale="  152.736">  1  5  2 -1</clus>
<clus scale="   37.239">  1  5  2 -1</clus>
</clustering>
</event>
<event>
 9    1  0.5981539E-005  0.1211761E+03  0.7546771E-02  0.1245363E+00
          1   -1    0    0  502    0 -0.00000000000E+00  0.00000000000E+00  0.24349980887E+03  0.24349980887E+03  0.00000000000E+00 0. -1.
         21   -1    0    0  501  502  0.00000000000E+00 -0.00000000000E+00 -0.11433104609E+03  0.11433104609E+03  0.00000000000E+00 0. -1.
         23    2    1    2    0    0  0.43671751168E+02 -0.20337993209E+02  0.42282176949E+02  0.11250934264E+03  0.92464662847E+02 0.  0.
        -24    2    1    2    0    0 -0.95771920715E+02  0.81627318514E+02  0.50077309645E+02  0.15685834554E+03  0.79129790221E+02 0.  0.
         11    1    4    4    0    0 -0.97775593967E+02  0.91935532380E+02  0.55268531601E+02  0.14514413345E+03  0.00000000000E+00 0. -1.
        -12    1    4    4    0    0  0.20036732514E+01 -0.10308213866E+02 -0.51912219557E+01  0.11714212095E+02  0.00000000000E+00 0.  1.
        -13    1    3    3    0    0  0.63220831681E+02  0.13983614898E+02  0.27172575779E+02  0.70219398449E+02  0.00000000000E+00 0.  1.
         13    1    3    3    0    0 -0.19549080513E+02 -0.34321608108E+02  0.15109601169E+02  0.42289944189E+02  0.00000000000E+00 0. -1.
          2    1    1    2  501    0  0.52100169547E+02 -0.61289325305E+02  0.36809276184E+02  0.88463166778E+02  0.00000000000E+00 0. -1.
<scales pt_clust_5="13000.00000" pt_clust_6="13000.00000" pt_clust_7="13000.00000" pt_clust_8="13000.00000" pt_clust_9="80.44138"></scales>
<clustering>
<clus scale="   79.130">  5  6 -1 -1</clus>
<clus scale="   80.441">  2  9  1 -1</clus>
<clus scale="   92.465">  7  8 -1 -1</clus>
<clus scale="  111.335">  2  5  1 -1</clus>
<clus scale="   80.441">  2  5  1 -1</clus>
</clustering>
</event>
<event>
 9    1  0.5981539E-005  0.2743777E+03  0.7546771E-02  0.1137134E+00
          1   -1    0    0  502    0 -0.00000000000E+00  0.00000000000E+00  0.61552954239E+03  0.61552954239E+03  0.00000000000E+00 0. -1.
         21   -1    0    0  501  502  0.00000000000E+00 -0.00000000000E+00 -0.78215386466E+03  0.78215386466E+03  0.00000000000E+00 0. -1.
         23    2    1    2    0    0 -0.48483538782E+02 -0.17798106641E+02 -0.86360703107E+02  0.13578927056E+03  0.91176361115E+02 0.  0.
        -24    2    1    2    0    0  0.62929672706E+02  0.27890894731E+03  0.52467244817E+03  0.60285300920E+03  0.80001426446E+02 0.  0.
         13    1    4    4    0    0  0.30661602371E+02  0.24958621235E+03  0.46877350312E+03  0.53196053282E+03  0.00000000000E+00 0. -1.
        -14    1    4    4    0    0  0.32268070335E+02  0.29322734954E+02  0.55898945057E+02  0.70892476376E+02  0.00000000000E+00 0.  1.
        -13    1    3    3    0    0 -0.67097500135E+02 -0.38162908906E+02 -0.62927085317E+02  0.99590663253E+02  0.00000000000E+00 0.  1.
         13    1    3    3    0    0  0.18613961353E+02  0.20364802265E+02 -0.23433617790E+02  0.36198607311E+02  0.00000000000E+00 0. -1.
          2    1    1    2  501    0 -0.14446133923E+02 -0.26111084067E+03 -0.60493606733E+03  0.65904112729E+03  0.00000000000E+00 0. -1.
<scales pt_clust_5="13000.00000" pt_clust_6="13000.00000" pt_clust_7="13000.00000" pt_clust_8="13000.00000" pt_clust_9="262.45548"></scales>
<clustering>
<clus scale="   80.001">  5  6 -1 -1</clus>
<clus scale="   91.176">  7  8 -1 -1</clus>
<clus scale="  104.788">  1  7  2 -1</clus>
<clus scale="  262.455">  2  9  1 -1</clus>
<clus scale="  262.455">  2  5  1 -1</clus>
</clustering>
</event>
<event>
 9    1  0.5981539E-005  0.3018718E+03  0.7546771E-02  0.1094797E+00
         21   -1    0    0  501  502  0.00000000000E+00  0.00000000000E+00  0.70519439856E+03  0.70519439856E+03  0.00000000000E+00 0.  1.
          1   -1    0    0  502    0 -0.00000000000E+00 -0.00000000000E+00 -0.95557995054E+03  0.95557995054E+03  0.00000000000E+00 0. -1.
        -24    2    1    2    0    0 -0.35842580496E+02  0.21110015508E+03  0.57558336266E+03  0.61936127970E+03  0.80400381633E+02 0.  0.
         23    2    1    2    0    0 -0.22178706644E+03 -0.27857897316E+03 -0.49132340867E+03  0.61372855889E+03  0.92023393547E+02 0.  0.
         11    1    3    3    0    0 -0.15096799502E+02  0.33424158646E+02  0.20023678026E+03  0.20356781648E+03  0.00000000000E+00 0. -1.
        -12    1    3    3    0    0 -0.20745780994E+02  0.17767599643E+03  0.37534658240E+03  0.41579346322E+03  0.00000000000E+00 0.  1.
        -11    1    4    4    0    0  0.35133772341E+01 -0.33318834846E+02 -0.31635596422E+02  0.46079274474E+02  0.00000000000E+00 0.  1.
         11    1    4    4    0    0 -0.22530044367E+03 -0.24526013831E+03 -0.45968781225E+03  0.56764928441E+03  0.00000000000E+00 0. -1.
          2    1    1    2  501    0  0.25762964693E+03  0.67478818075E+02 -0.33464550597E+03  0.42768451052E+03  0.00000000000E+00 0. -1.
<scales pt_clust_5="13000.00000" pt_clust_6="13000.00000" pt_clust_7="13000.00000" pt_clust_8="13000.00000" pt_clust_9="287.50358"></scales>
<clustering>
<clus scale="   80.400">  5  6 -1 -1</clus>
<clus scale="   92.023">  7  8 -1 -1</clus>
<clus scale="  228.719">  2  5  1 -1</clus>
<clus scale="  287.504">  1  9  2 -1</clus>
<clus scale="  287.504">  1  5  2 -1</clus>
</clustering>
</event>
<event>
 9    1  0.5981539E-005  0.8770288E+02  0.7546771E-02  0.1314334E+00
         21   -1    0    0  501  502  0.00000000000E+00  0.00000000000E+00  0.18402964043E+02  0.18402964043E+02  0.00000000000E+00 0. -1.
          1   -1    0    0  502    0 -0.00000000000E+00 -0.00000000000E+00 -0.67541883730E+03  0.67541883730E+03  0.00000000000E+00 0. -1.
        -24    2    1    2    0    0  0.20273413889E+02 -0.20522735135E+02 -0.36537818936E+03  0.37494225897E+03  0.79046077274E+02 0.  0.
         23    2    1    2    0    0 -0.56377887977E+02  0.14649244599E+02 -0.23087485106E+03  0.24795597228E+03  0.69180204672E+02 0.  0.
         13    1    3    3    0    0  0.22966201841E+02  0.22564933992E+02 -0.78694190510E+02  0.85025868376E+02  0.00000000000E+00 0. -1.
        -14    1    3    3    0    0 -0.26927879524E+01 -0.43087669126E+02 -0.28668399885E+03  0.28991639060E+03  0.00000000000E+00 0.  1.
        -13    1    4    4    0    0 -0.93017066932E+01  0.35433732676E+02 -0.12466191481E+03  0.12993330660E+03  0.00000000000E+00 0.  1.
         13    1    4    4    0    0 -0.47076181284E+02 -0.20784488077E+02 -0.10621293625E+03  0.11802266568E+03  0.00000000000E+00 0. -1.
          2    1    1    2  501    0  0.36104474088E+02  0.58734905354E+01 -0.60762832832E+02  0.70923570088E+02  0.00000000000E+00 0. -1.
<scales pt_clust_5="13000.00000" pt_clust_6="13000.00000" pt_clust_7="13000.00000" pt_clust_8="13000.00000" pt_clust_9="36.57911"></scales>
<clustering>
<clus scale="   36.579">  1  9  2 -1</clus>
<clus scale="   69.180">  7  8 -1 -1</clus>
<clus scale="   78.927">  1  7  2 -1</clus>
<clus scale="   79.046">  5  6 -1 -1</clus>
<clus scale="   36.579">  1  5  2 -1</clus>
</clustering>
</event>
<event>
 9    1  0.5981539E-005  0.2745695E+03  0.7546771E-02  0.1099205E+00
         21   -1    0    0  501  502  0.00000000000E+00  0.00000000000E+00  0.15626814210E+03  0.15626814210E+03  0.00000000000E+00 0. -1.
          1   -1    0    0  502    0 -0.00000000000E+00 -0.00000000000E+00 -0.59675599216E+03  0.59675599216E+03  0.00000000000E+00 0. -1.
        -24    2    1    2    0    0  0.26290363280E+03 -0.44183412262E+02 -0.32694557486E+03  0.43034296556E+03  0.85036257169E+02 0.  0.
         23    2    1    2    0    0 -0.24152056232E+03  0.94012000965E+01 -0.88140170654E+02  0.27459473712E+03  0.95984453892E+02 0.  0.
         11    1    3    3    0    0  0.24095218762E+03 -0.48308242855E+02 -0.25137585809E+03  0.35154155526E+03  0.00000000000E+00 0. -1.
        -12    1    3    3    0    0  0.21951445175E+02  0.41248305931E+01 -0.75569716765E+02  0.78801410296E+02  0.00000000000E+00 0.  1.
        -13    1    4    4    0    0 -0.73639032934E+02  0.13461069108E+02 -0.75291895734E+02  0.10617333524E+03  0.00000000000E+00 0.  1.
         13    1    4    4    0    0 -0.16788152938E+03 -0.40598690116E+01 -0.12848274920E+02  0.16842140188E+03  0.00000000000E+00 0. -1.
          2    1    1    2  501    0 -0.21383070480E+02  0.34782212165E+02 -0.25402104547E+02  0.48086431575E+02  0.00000000000E+00 0. -1.
<scales pt_clust_5="13000.00000" pt_clust_6="13000.00000" pt_clust_7="13000.00000" pt_clust_8="13000.00000" pt_clust_9="40.82938"></scales>
<clustering>
<clus scale="   40.829">  1  9  2 -1</clus>
<clus scale="   85.036">  5  6 -1 -1</clus>
<clus scale="   95.984">  7  8 -1 -1</clus>
<clus scale="  270.936">  2  5  1 -1</clus>
<clus scale="   40.829">  1  5  2 -1</clus>
</clustering>
</event>
<event>
 9    1  0.5981539E-005  0.1223518E+03  0.7546771E-02  0.1240220E+00
         21   -1    0    0  501  502  0.00000000000E+00  0.00000000000E+00  0.37214653043E+03  0.37214653043E+03  0.00000000000E+00 0. -1.
         -2   -1    0    0    0  501 -0.00000000000E+00 -0.00000000000E+00 -0.12751354617E+03  0.12751354617E+03  0.00000000000E+00 0.  1.
        -24    2    1    2    0    0  0.22273616966E+02  0.68355375125E+02  0.50383465823E+01  0.11324951572E+03  0.87358437224E+02 0.  0.
         23    2    1    2    0    0  0.21364544853E+02 -0.13993540412E+03  0.25073680773E+03  0.30184024888E+03  0.90555110235E+02 0.  0.
         13    1    3    3    0    0  0.37191224736E+02  0.11693418992E+00  0.19386843003E+02  0.41941036618E+02  0.00000000000E+00 0. -1.
        -14    1    3    3    0    0 -0.14917607770E+02  0.68238440935E+02 -0.14348496421E+02  0.71308479106E+02  0.00000000000E+00 0.  1.
        -11    1    4    4    0    0 -0.30115406432E+02 -0.85654307873E+02  0.11161852859E+03  0.14388291798E+03  0.00000000000E+00 0.  1.
         11    1    4    4    0    0  0.51479951285E+02 -0.54281096249E+02  0.13911827914E+03  0.15795733090E+03  0.00000000000E+00 0. -1.
         -1    1    1    2    0  502 -0.43638161819E+02  0.71580028996E+02 -0.11142170050E+02  0.84570311998E+02  0.00000000000E+00 0.  1.
<scales pt_clust_5="13000.00000" pt_clust_6="13000.00000" pt_clust_7="13000.00000" pt_clust_8="13000.00000" pt_clust_9="83.83315"></scales>
<clustering>
<clus scale="   83.833">  1  9  2 -1</clus>
<clus scale="   87.358">  5  6 -1 -1</clus>
<clus scale="   90.555">  7  8 -1 -1</clus>
<clus scale="  120.005">  2  5  1 -1</clus>
<clus scale="   83.833">  1  5  2 -1</clus>
</clustering>
</event>
<event>
 9    1  0.5981539E-005  0.1189837E+03  0.7546771E-02  0.1246876E+00
         -4   -1    0    0    0  501 -0.00000000000E+00  0.00000000000E+00  0.22960117227E+03  0.22960117227E+03  0.00000000000E+00 0.  1.
         21   -1    0    0  501  502  0.00000000000E+00 -0.00000000000E+00 -0.10904594484E+03  0.10904594484E+03  0.00000000000E+00 0. -1.
        -24    2    1    2    0    0 -0.47031686077E+02  0.59941369582E+02  0.13883925005E+03  0.17866573143E+03  0.82705253459E+02 0.  0.
         23    2    1    2    0    0  0.33027436453E+02 -0.82026759838E+02  0.37815674424E+01  0.12576481463E+03  0.89349244301E+02 0.  0.
         13    1    3    3    0    0 -0.45917754630E+02 -0.40875791215E+01  0.40780042576E+02  0.61548032997E+02  0.00000000000E+00 0. -1.
        -14    1    3    3    0    0 -0.11139314475E+01  0.64028948704E+02  0.98059207473E+02  0.11711769843E+03  0.00000000000E+00 0.  1.
        -11    1    4    4    0    0  0.28757918545E+02 -0.44534158668E+00 -0.26040653269E+02  0.38798606043E+02  0.00000000000E+00 0.  1.
         11    1    4    4    0    0  0.42695179073E+01 -0.81581418251E+02  0.29822220711E+02  0.86966208583E+02  0.00000000000E+00 0. -1.
         -3    1    1    2    0  502  0.14004249624E+02  0.22085390256E+02 -0.22065590058E+02  0.34216571057E+02  0.00000000000E+00 0.  1.
<scales pt_clust_5="13000.00000" pt_clust_6="13000.00000" pt_clust_7="13000.00000" pt_clust_8="13000.00000" pt_clust_9="26.15117"></scales>
<clustering>
<clus scale="   26.151">  2  9  1 -1</clus>
<clus scale="   82.705">  5  6 -1 -1</clus>
<clus scale="   89.349">  7  8 -1 -1</clus>
<clus scale="  114.079">  1  5  2 -1</clus>
<clus scale="   26.151">  2  5  1 -1</clus>
</clustering>
</event>
<event>
 9    1  0.5981539E-005  0.1102119E+03  0.7546771E-02  0.1263666E+00
          1   -1    0    0  502    0 -0.00000000000E+00  0.00000000000E+00  0.29859020696E+03  0.29859020696E+03  0.00000000000E+00 0. -1.
         21   -1    0    0  501  502  0.00000000000E+00 -0.00000000000E+00 -0.93972724153E+02  0.93972724153E+02  0.00000000000E+00 0. -1.
         23    2    1    2    0    0  0.10641525730E+02  0.77750492965E+02  0.17070295982E+03  0.20828274043E+03  0.89910056427E+02 0.  0.
        -24    2    1    2    0    0  0.30167645728E+02 -0.44441503734E+02  0.70670569232E+02  0.12004714487E+03  0.80819883282E+02 0.  0.
         11    1    4    4    0    0  0.31951936320E+02 -0.38175264280E+02  0.71357639865E+00  0.49787410344E+02  0.00000000000E+00 0. -1.
        -12    1    4    4    0    0 -0.17842905920E+01 -0.62662394539E+01  0.69956992833E+02  0.70259734529E+02  0.00000000000E+00 0.  1.
        -13    1    3    3    0    0 -0.14229007472E+02  0.65776607557E+02  0.48378157050E+02  0.82882282998E+02  0.00000000000E+00 0.  1.
         13    1    3    3    0    0  0.24870533203E+02  0.11973885408E+02  0.12232480277E+03  0.12540045744E+03  0.00000000000E+00 0. -1.
          2    1    1    2  501    0 -0.40809171459E+02 -0.33308989230E+02 -0.36756046239E+02  0.64233045808E+02  0.00000000000E+00 0. -1.
<scales pt_clust_5="13000.00000" pt_clust_6="13000.00000" pt_clust_7="13000.00000" pt_clust_8="13000.00000" pt_clust_9="52.67710"></scales>
<clustering>
<clus scale="   52.677">  2  9  1 -1</clus>
<clus scale="   80.820">  5  6 -1 -1</clus>
<clus scale="   89.910">  7  8 -1 -1</clus>
<clus scale="  102.931">  2  5  1 -1</clus>
<clus scale="   52.677">  2  5  1 -1</clus>
</clustering>
</event>
<event>
 9    1  0.6443234E-005  0.2589816E+03  0.7546771E-02  0.1108567E+00
         21   -1    0    0  501  502  0.00000000000E+00  0.00000000000E+00  0.90017394417E+02  0.90017394417E+02  0.00000000000E+00 0. -1.
          1   -1    0    0  502    0 -0.00000000000E+00 -0.00000000000E+00 -0.12711574829E+04  0.12711574829E+04  0.00000000000E+00 0. -1.
        -24    2    1    2    0    0  0.16524185347E+03  0.17819172438E+03 -0.94663969876E+03  0.98062835843E+03  0.80300045492E+02 0.  0.
         23    2    1    2    0    0 -0.16829560723E+03 -0.15819272725E+03 -0.14552670252E+03  0.28930178034E+03  0.95755671354E+02 0.  0.
         13    1    3    3    0    0  0.16855299921E+03  0.17629962359E+03 -0.86039255256E+03  0.89429693912E+03  0.00000000000E+00 0. -1.
        -14    1    3    3    0    0 -0.33111457365E+01  0.18921007816E+01 -0.86247146203E+02  0.86331419307E+02  0.00000000000E+00 0.  1.
        -11    1    4    4    0    0  0.81108341646E+01 -0.32170110805E+02 -0.17168720519E+02  0.37355944966E+02  0.00000000000E+00 0.  1.
         11    1    4    4    0    0 -0.17640644139E+03 -0.12602261644E+03 -0.12835798200E+03  0.25194583537E+03  0.00000000000E+00 0. -1.
          2    1    1    2  501    0  0.30537537569E+01 -0.19998997130E+02 -0.88973687186E+02  0.91244738531E+02  0.00000000000E+00 0. -1.
<scales pt_clust_5="13000.00000" pt_clust_6="13000.00000" pt_clust_7="13000.00000" pt_clust_8="13000.00000" pt_clust_9="20.23081"></scales>
<clustering>
<clus scale="   20.231">  1  9  2 -1</clus>
<clus scale="   80.300">  5  6 -1 -1</clus>
<clus scale="   95.756">  7  8 -1 -1</clus>
<clus scale="  253.674">  2  5  1 -1</clus>
<clus scale="   20.231">  1  5  2 -1</clus>
</clustering>
</event>
<event>
 9    1  0.6370916E-005  0.1968856E+03  0.7546771E-02  0.1178786E+00
         21   -1    0    0  501  502  0.00000000000E+00  0.00000000000E+00  0.14819643945E+03  0.14819643945E+03  0.00000000000E+00 0. -1.
          1   -1    0    0  502    0 -0.00000000000E+00 -0.00000000000E+00 -0.15389409857E+04  0.15389409857E+04  0.00000000000E+00 0. -1.
        -24    2    1    2    0    0 -0.60731854630E+02 -0.25873514269E+02 -0.27794049679E+03  0.29787735987E+03  0.84393156472E+02 0.  0.
         23    2    1    2    0    0 -0.59285272184E+02  0.16323109789E+03  0.57163861299E+02  0.20515866392E+03  0.93076503621E+02 0.  0.
         13    1    3    3    0    0  0.10195657951E+02 -0.26820197483E+02 -0.13839481341E+03  0.14133788881E+03  0.00000000000E+00 0. -1.
        -14    1    3    3    0    0 -0.70927512581E+02  0.94668321420E+00 -0.13954568338E+03  0.15653947106E+03  0.00000000000E+00 0.  1.
        -11    1    4    4    0    0 -0.12561414727E+02  0.11810380461E+03  0.21311287920E+00  0.11877012764E+03  0.00000000000E+00 0.  1.
         11    1    4    4    0    0 -0.46723857458E+02  0.45127293279E+02  0.56950748419E+02  0.86388536276E+02  0.00000000000E+00 0. -1.
          2    1    1    2  501    0  0.12001712681E+03 -0.13735758362E+03 -0.11699679108E+04  0.11841014014E+04  0.00000000000E+00 0. -1.
<scales pt_clust_5="13000.00000" pt_clust_6="13000.00000" pt_clust_7="13000.00000" pt_clust_8="13000.00000" pt_clust_9="173.49561"></scales>
<clustering>
<clus scale="   84.393">  5  6 -1 -1</clus>
<clus scale="   93.077">  7  8 -1 -1</clus>
<clus scale="  107.145">  2  5  1 -1</clus>
<clus scale="  173.496">  1  9  2 -1</clus>
<clus scale="  173.496">  1  5  2 -1</clus>
</clustering>
</event>
<event>
 9    1  0.5981539E-005  0.2956856E+03  0.7546771E-02  0.1092419E+00
         21   -1    0    0  501  502  0.00000000000E+00  0.00000000000E+00  0.18286602856E+03  0.18286602856E+03  0.00000000000E+00 0.  1.
          1   -1    0    0  502    0 -0.00000000000E+00 -0.00000000000E+00 -0.16124802277E+04  0.16124802277E+04  0.00000000000E+00 0. -1.
        -24    2    1    2    0    0 -0.92957086369E+02  0.22734777416E+03 -0.35060667164E+02  0.26142082662E+03  0.82362417935E+02 0.  0.
         23    2    1    2    0    0 -0.22113421226E+03 -0.17812736543E+03 -0.87833416048E+03  0.92765945499E+03  0.91931870486E+02 0.  0.
         11    1    3    3    0    0 -0.23200280069E+02  0.16817814109E+02 -0.27180524534E+02  0.39495224782E+02  0.00000000000E+00 0. -1.
        -12    1    3    3    0    0 -0.69756806301E+02  0.21052996005E+03 -0.78801426309E+01  0.22192560184E+03  0.00000000000E+00 0.  1.
        -11    1    4    4    0    0 -0.17574196189E+03 -0.17447211762E+03 -0.66733051489E+03  0.71179756469E+03  0.00000000000E+00 0. -1.
         11    1    4    4    0    0 -0.45392250374E+02 -0.36552478181E+01 -0.21100364559E+03  0.21586189030E+03  0.00000000000E+00 0.  1.
          2    1    1    2  501    0  0.31409129863E+03 -0.49220408726E+02 -0.51621937150E+03  0.60626597466E+03  0.00000000000E+00 0. -1.
<scales pt_clust_5="13000.00000" pt_clust_6="13000.00000" pt_clust_7="13000.00000" pt_clust_8="13000.00000" pt_clust_9="281.03119"></scales>
<clustering>
<clus scale="   82.362">  5  6 -1 -1</clus>
<clus scale="   91.932">  7  8 -1 -1</clus>
<clus scale="  259.059">  2  5  1 -1</clus>
<clus scale="  281.031">  1  9  2 -1</clus>
<clus scale="  281.031">  1  5  2 -1</clus>
</clustering>
</event>
<event>
 9    1  0.5981539E-005  0.1085057E+03  0.7546771E-02  0.1264790E+00
         21   -1    0    0  501  502  0.00000000000E+00  0.00000000000E+00  0.67651726632E+02  0.67651726632E+02  0.00000000000E+00 0. -1.
          1   -1    0    0  502    0 -0.00000000000E+00 -0.00000000000E+00 -0.90064091582E+03  0.90064091582E+03  0.00000000000E+00 0. -1.
        -24    2    1    2    0    0 -0.28009501016E+02 -0.52754153074E+02 -0.62838909725E+03  0.63667783314E+03  0.83176155618E+02 0.  0.
         23    2    1    2    0    0 -0.21856410424E+02  0.13660732193E+03 -0.12591170951E+03  0.20627597023E+03  0.86929593471E+02 0.  0.
         13    1    3    3    0    0  0.29454032143E+01 -0.63768252517E+02 -0.30406468094E+03  0.31069341097E+03  0.00000000000E+00 0. -1.
        -14    1    3    3    0    0 -0.30954904231E+02  0.11014099442E+02 -0.32432441631E+03  0.32598442217E+03  0.00000000000E+00 0.  1.
        -11    1    4    4    0    0 -0.34365566420E+02  0.54124092916E+02 -0.10023951993E+03  0.11898895304E+03  0.00000000000E+00 0. -1.
         11    1    4    4    0    0  0.12509155996E+02  0.82483229016E+02 -0.25672189582E+02  0.87287017194E+02  0.00000000000E+00 0.  1.
          2    1    1    2  501    0  0.49865911440E+02 -0.83853168858E+02 -0.78688382423E+02  0.12533883907E+03  0.00000000000E+00 0. -1.
<scales pt_clust_5="13000.00000" pt_clust_6="13000.00000" pt_clust_7="13000.00000" pt_clust_8="13000.00000" pt_clust_9="97.56005"></scales>
<clustering>
<clus scale="   83.176">  5  6 -1 -1</clus>
<clus scale="   86.930">  7  8 -1 -1</clus>
<clus scale="   97.560">  1  9  2 -1</clus>
<clus scale="  105.523">  2  5  1 -1</clus>
<clus scale="   97.560">  1  5  2 -1</clus>
</clustering>
</event>
<event>
 9    1  0.5981539E-005  0.9937737E+02  0.7546771E-02  0.1296989E+00
          1   -1    0    0  502    0 -0.00000000000E+00  0.00000000000E+00  0.27133216647E+03  0.27133216647E+03  0.00000000000E+00 0. -1.
         21   -1    0    0  501  502  0.00000000000E+00 -0.00000000000E+00 -0.48623949054E+02  0.48623949054E+02  0.00000000000E+00 0. -1.
         23    2    1    2    0    0  0.69621405730E+01 -0.24279271716E+01  0.11832762820E+03  0.15388491324E+03  0.98105925894E+02 0.  0.
        -24    2    1    2    0    0 -0.14351273754E+02 -0.33915405803E+02  0.37887336500E+02  0.89934550155E+02  0.72777463788E+02 0.  0.
         13    1    4    4    0    0 -0.41288099283E+02 -0.33767832362E+02  0.17444377587E+02  0.56118445758E+02  0.00000000000E+00 0. -1.
        -14    1    4    4    0    0  0.26936825529E+02 -0.14757344106E+00  0.20442958913E+02  0.33816104398E+02  0.00000000000E+00 0.  1.
        -13    1    3    3    0    0 -0.24609992432E+02 -0.29033197029E+02  0.10306313369E+03  0.10986622676E+03  0.00000000000E+00 0.  1.
         13    1    3    3    0    0  0.31572133005E+02  0.26605269858E+02  0.15264494517E+02  0.44018686482E+02  0.00000000000E+00 0. -1.
          2    1    1    2  501    0  0.73891331808E+01  0.36343332975E+02  0.66493252710E+02  0.76136652125E+02  0.00000000000E+00 0. -1.
<scales pt_clust_5="13000.00000" pt_clust_6="13000.00000" pt_clust_7="13000.00000" pt_clust_8="13000.00000" pt_clust_9="37.08690"></scales>
<clustering>
<clus scale="   37.087">  2  9  1 -1</clus>
<clus scale="   72.777">  5  6 -1 -1</clus>
<clus scale="   74.483">  2  5  1 -1</clus>
<clus scale="   98.106">  7  8 -1 -1</clus>
<clus scale="   37.087">  2  5  1 -1</clus>
</clustering>
</event>
<event>
 9    1  0.5981539E-005  0.1587819E+03  0.7546771E-02  0.1193332E+00
          1   -1    0    0  502    0 -0.00000000000E+00  0.00000000000E+00  0.96116770173E+03  0.96116770173E+03  0.00000000000E+00 0. -1.
         21   -1    0    0  501  502  0.00000000000E+00 -0.00000000000E+00 -0.48986277179E+02  0.48986277179E+02  0.00000000000E+00 0.  1.
        -24    2    1    2    0    0  0.46040876082E+02 -0.10488161192E+03  0.64805119562E+03  0.66620299530E+03  0.10361546220E+03 0.  0.
         23    2    1    2    0    0 -0.40375750777E+02  0.13921932114E+03  0.15327264978E+03  0.22775900982E+03  0.85845446900E+02 0.  0.
         11    1    3    3    0    0  0.75961562298E+02 -0.95653054792E+02  0.48280222043E+03  0.49801370452E+03  0.00000000000E+00 0. -1.
        -12    1    3    3    0    0 -0.29920686216E+02 -0.92285571279E+01  0.16524897519E+03  0.16818929077E+03  0.00000000000E+00 0.  1.
        -11    1    4    4    0    0 -0.59605897096E+02  0.11934974951E+03  0.96624918623E+02  0.16472279920E+03  0.00000000000E+00 0.  1.
         11    1    4    4    0    0  0.19230146319E+02  0.19869571630E+02  0.56647731156E+02  0.63036210620E+02  0.00000000000E+00 0. -1.
          2    1    1    2  501    0 -0.56651253052E+01 -0.34337709219E+02  0.11085757916E+03  0.11619197380E+03  0.00000000000E+00 0. -1.
<scales pt_clust_5="13000.00000" pt_clust_6="13000.00000" pt_clust_7="13000.00000" pt_clust_8="13000.00000" pt_clust_9="34.80191"></scales>
<clustering>
<clus scale="   34.802">  2  9  1 -1</clus>
<clus scale="   85.845">  7  8 -1 -1</clus>
<clus scale="  103.615">  5  6 -1 -1</clus>
<clus scale="  147.800">  2  7  1 -1</clus>
<clus scale="   34.802">  2  5  1 -1</clus>
</clustering>
</event>
<event>
 9    1  0.5981539E-005  0.9157505E+02  0.7546771E-02  0.1307670E+00
         21   -1    0    0  501  502  0.00000000000E+00  0.00000000000E+00  0.10948708475E+03  0.10948708475E+03  0.00000000000E+00 0. -1.
          1   -1    0    0  502    0 -0.00000000000E+00 -0.00000000000E+00 -0.21510977655E+03  0.21510977655E+03  0.00000000000E+00 0. -1.
         23    2    1    2    0    0 -0.10535201318E+02  0.35890345536E+01 -0.15984606815E+03  0.18443807290E+03  0.91338740928E+02 0.  0.
        -24    2    1    2    0    0 -0.17697360529E+02 -0.10443418067E+02  0.22881876161E+01  0.80649764295E+02  0.77954391331E+02 0.  0.
         13    1    4    4    0    0 -0.36530229268E+02 -0.26552547080E+02 -0.18005967188E+02  0.48618003468E+02  0.00000000000E+00 0. -1.
        -14    1    4    4    0    0  0.18832868740E+02  0.16109129013E+02  0.20294154804E+02  0.32031760828E+02  0.00000000000E+00 0.  1.
        -11    1    3    3    0    0 -0.46735060192E+02  0.12023575402E+02 -0.12288047907E+03  0.13201645485E+03  0.00000000000E+00 0. -1.
         11    1    3    3    0    0  0.36199858874E+02 -0.84345408489E+01 -0.36965589086E+02  0.52421618043E+02  0.00000000000E+00 0.  1.
          2    1    1    2  501    0  0.28232561847E+02  0.68543835129E+01  0.51935188729E+02  0.59509024107E+02  0.00000000000E+00 0. -1.
<scales pt_clust_5="13000.00000" pt_clust_6="13000.00000" pt_clust_7="13000.00000" pt_clust_8="13000.00000" pt_clust_9="29.05271"></scales>
<clustering>
<clus scale="   29.053">  1  9  2 -1</clus>
<clus scale="   77.954">  5  6 -1 -1</clus>
<clus scale="   78.231">  1  5  2 -1</clus>
<clus scale="   91.339">  7  8 -1 -1</clus>
<clus scale="   29.053">  1  5  2 -1</clus>
</clustering>
</event>
<event>
 9    1  0.5981539E-005  0.1022096E+03  0.7546771E-02  0.1283554E+00
         -4   -1    0    0    0  501 -0.00000000000E+00  0.00000000000E+00  0.61043580352E+03  0.61043580352E+03  0.00000000000E+00 0.  1.
         21   -1    0    0  501  502  0.00000000000E+00 -0.00000000000E+00 -0.32468758141E+02  0.32468758141E+02  0.00000000000E+00 0. -1.
        -24    2    1    2    0    0 -0.73833776707E+01 -0.45892013679E+02  0.46976764825E+03  0.47835037436E+03  0.77310064809E+02 0.  0.
         23    2    1    2    0    0 -0.58101643741E+01  0.20797785206E+02  0.81901269796E+02  0.12588402625E+03  0.93127139932E+02 0.  0.
         13    1    3    3    0    0  0.31818700770E+02 -0.10715654981E+02  0.11882497888E+03  0.12347724724E+03  0.00000000000E+00 0. -1.
        -14    1    3    3    0    0 -0.39202078441E+02 -0.35176358699E+02  0.35094266936E+03  0.35487312711E+03  0.00000000000E+00 0.  1.
        -13    1    4    4    0    0 -0.91948355353E+01 -0.32345373283E+02  0.76067111382E+01  0.34476517047E+02  0.00000000000E+00 0. -1.
         13    1    4    4    0    0  0.33846711612E+01  0.53143158489E+02  0.74294558658E+02  0.91407509206E+02  0.00000000000E+00 0.  1.
         -3    1    1    2    0  502  0.13193542045E+02  0.25094228474E+02  0.26298127331E+02  0.38670161048E+02  0.00000000000E+00 0.  1.
<scales pt_clust_5="13000.00000" pt_clust_6="13000.00000" pt_clust_7="13000.00000" pt_clust_8="13000.00000" pt_clust_9="28.35119"></scales>
<clustering>
<clus scale="   28.351">  2  9  1 -1</clus>
<clus scale="   77.310">  5  6 -1 -1</clus>
<clus scale="   88.040">  1  5  2 -1</clus>
<clus scale="   93.127">  7  8 -1 -1</clus>
<clus scale="   28.351">  2  5  1 -1</clus>
</clustering>
</event>
<event>
 9    1  0.5981539E-005  0.1070247E+03  0.7546771E-02  0.1271997E+00
         21   -1    0    0  501  502  0.00000000000E+00  0.00000000000E+00  0.26325058272E+03  0.26325058272E+03  0.00000000000E+00 0.  1.
          1   -1    0    0  502    0 -0.00000000000E+00 -0.00000000000E+00 -0.63924577741E+02  0.63924577741E+02  0.00000000000E+00 0. -1.
         23    2    1    2    0    0  0.39023257811E+02 -0.52215159894E+02  0.72115159668E+02  0.13426551840E+03  0.92614230031E+02 0.  0.
        -24    2    1    2    0    0 -0.16128736156E+02  0.33794974615E+02  0.13642491721E+03  0.16211416401E+03  0.79164434561E+02 0.  0.
         13    1    4    4    0    0 -0.34622311015E+02  0.50373098760E+02  0.81859710100E+02  0.10216244729E+03  0.00000000000E+00 0. -1.
        -14    1    4    4    0    0  0.18493574859E+02 -0.16578124146E+02  0.54565207105E+02  0.59951716720E+02  0.00000000000E+00 0.  1.
        -11    1    3    3    0    0  0.67227528042E+02 -0.27279383328E+02  0.32133083340E+02  0.79348852080E+02  0.00000000000E+00 0.  1.
         11    1    3    3    0    0 -0.28204270231E+02 -0.24935776566E+02  0.39982076328E+02  0.54916666320E+02  0.00000000000E+00 0. -1.
          2    1    1    2  501    0 -0.22894521655E+02  0.18420185280E+02 -0.92140718929E+01  0.30795478051E+02  0.00000000000E+00 0. -1.
<scales pt_clust_5="13000.00000" pt_clust_6="13000.00000" pt_clust_7="13000.00000" pt_clust_8="13000.00000" pt_clust_9="29.38474"></scales>
<clustering>
<clus scale="   29.385">  1  9  2 -1</clus>
<clus scale="   79.164">  5  6 -1 -1</clus>
<clus scale="   92.614">  7  8 -1 -1</clus>
<clus scale="   95.624">  1  5  2 -1</clus>
<clus scale="   29.385">  1  5  2 -1</clus>
</clustering>
</event>
<event>
 9    1  0.5981539E-005  0.1950578E+03  0.7546771E-02  0.1154566E+00
         -4   -1    0    0    0  501 -0.00000000000E+00  0.00000000000E+00  0.20966672868E+03  0.20966672868E+03  0.00000000000E+00 0.  1.
         21   -1    0    0  501  502  0.00000000000E+00 -0.00000000000E+00 -0.46602346873E+03  0.46602346873E+03  0.00000000000E+00 0. -1.
        -24    2    1    2    0    0 -0.84651446528E+02  0.13589076938E+03 -0.16973989685E+03  0.24836303645E+03  0.85090520571E+02 0.  0.
         23    2    1    2    0    0  0.13465127557E+03 -0.13412325740E+03 -0.20797271696E+03  0.29606271376E+03  0.90997061976E+02 0.  0.
         11    1    3    3    0    0 -0.20894813934E+02  0.11086256611E+03 -0.10541004583E+03  0.15439682502E+03  0.00000000000E+00 0. -1.
        -12    1    3    3    0    0 -0.63756632594E+02  0.25028203268E+02 -0.64329851015E+02  0.93966211429E+02  0.00000000000E+00 0.  1.
        -11    1    4    4    0    0  0.34175776786E+02  0.24809871818E+01 -0.68134301661E+02  0.76265471080E+02  0.00000000000E+00 0.  1.
         11    1    4    4    0    0  0.10047549878E+03 -0.13660424459E+03 -0.13983841530E+03  0.21979724267E+03  0.00000000000E+00 0. -1.
         -3    1    1    2    0  502 -0.49999829043E+02 -0.17675119783E+01  0.12135587375E+03  0.13126444720E+03  0.00000000000E+00 0.  1.
<scales pt_clust_5="13000.00000" pt_clust_6="13000.00000" pt_clust_7="13000.00000" pt_clust_8="13000.00000" pt_clust_9="50.03109"></scales>
<clustering>
<clus scale="   50.031">  2  9  1 -1</clus>
<clus scale="   85.091">  5  6 -1 -1</clus>
<clus scale="   90.997">  7  8 -1 -1</clus>
<clus scale="  192.373">  1  5  2 -1</clus>
<clus scale="   50.031">  2  5  1 -1</clus>
</clustering>
</event>
<event>
 9    1  0.5981539E-005  0.9866162E+02  0.7546771E-02  0.1287691E+00
         -4   -1    0    0    0  501 -0.00000000000E+00  0.00000000000E+00  0.14381387586E+03  0.14381387586E+03  0.00000000000E+00 0.  1.
         21   -1    0    0  501  502  0.00000000000E+00 -0.00000000000E+00 -0.17480442646E+03  0.17480442646E+03  0.00000000000E+00 0. -1.
         23    2    1    2    0    0  0.10509477982E+02  0.57823538431E+02  0.85813177954E+02  0.12405348571E+03  0.67611796908E+02 0.  0.
        -24    2    1    2    0    0 -0.35313644891E+02 -0.59395281907E+02 -0.36535616860E+02  0.11053692345E+03  0.78158218496E+02 0.  0.
         13    1    4    4    0    0 -0.96821572059E+01 -0.32888986922E+02 -0.58363307837E+02  0.67688295373E+02  0.00000000000E+00 0. -1.
        -14    1    4    4    0    0 -0.25631487685E+02 -0.26506294985E+02  0.21827690977E+02  0.42848628078E+02  0.00000000000E+00 0.  1.
        -13    1    3    3    0    0  0.34552924477E+02  0.38666315429E+02  0.75568316369E+02  0.91649107893E+02  0.00000000000E+00 0.  1.
         13    1    3    3    0    0 -0.24043446496E+02  0.19157223002E+02  0.10244861585E+02  0.32404377813E+02  0.00000000000E+00 0. -1.
         -3    1    1    2    0  502  0.24804166909E+02  0.15717434765E+01 -0.80268111693E+02  0.84027893157E+02  0.00000000000E+00 0.  1.
<scales pt_clust_5="13000.00000" pt_clust_6="13000.00000" pt_clust_7="13000.00000" pt_clust_8="13000.00000" pt_clust_9="24.85391"></scales>
<clustering>
<clus scale="   24.854">  2  9  1 -1</clus>
<clus scale="   67.612">  7  8 -1 -1</clus>
<clus scale="   78.158">  5  6 -1 -1</clus>
<clus scale="   90.536">  1  7  2 -1</clus>
<clus scale="   24.854">  2  5  1 -1</clus>
</clustering>
</event>
<event>
 9    1  0.5981539E-005  0.9601704E+02  0.7546771E-02  0.1293440E+00
          1   -1    0    0  502    0 -0.00000000000E+00  0.00000000000E+00  0.29647607328E+03  0.29647607328E+03  0.00000000000E+00 0. -1.
         21   -1    0    0  501  502  0.00000000000E+00 -0.00000000000E+00 -0.69708580121E+02  0.69708580121E+02  0.00000000000E+00 0. -1.
         23    2    1    2    0    0 -0.45397467879E+02  0.18786978608E+02  0.52709376346E+02  0.11583526279E+03  0.90695364243E+02 0.  0.
        -24    2    1    2    0    0  0.15344421578E+02  0.11690513626E+02  0.15376960536E+02  0.85996804743E+02  0.82382523197E+02 0.  0.
         11    1    4    4    0    0  0.42578575132E+02 -0.59862611764E+01 -0.10751438058E+02  0.44321143977E+02  0.00000000000E+00 0. -1.
        -12    1    4    4    0    0 -0.27234153554E+02  0.17676774802E+02  0.26128398594E+02  0.41675660766E+02  0.00000000000E+00 0.  1.
        -13    1    3    3    0    0 -0.58194308086E+02  0.44335822916E+02  0.28970042250E+02  0.78686123523E+02  0.00000000000E+00 0. -1.
         13    1    3    3    0    0  0.12796840207E+02 -0.25548844307E+02  0.23739334096E+02  0.37149139264E+02  0.00000000000E+00 0.  1.
          2    1    1    2  501    0  0.30053046301E+02 -0.30477492234E+02  0.15868115628E+03  0.16435258587E+03  0.00000000000E+00 0. -1.
<scales pt_clust_5="13000.00000" pt_clust_6="13000.00000" pt_clust_7="13000.00000" pt_clust_8="13000.00000" pt_clust_9="42.80263"></scales>
<clustering>
<clus scale="   42.803">  2  9  1 -1</clus>
<clus scale="   82.383">  5  6 -1 -1</clus>
<clus scale="   88.207">  2  5  1 -1</clus>
<clus scale="   90.695">  7  8 -1 -1</clus>
<clus scale="   42.803">  2  5  1 -1</clus>
</clustering>
</event>
<event>
 9    1  0.5981539E-005  0.1106646E+03  0.7546771E-02  0.1263684E+00
         21   -1    0    0  501  502  0.00000000000E+00  0.00000000000E+00  0.19596593405E+03  0.19596593405E+03  0.00000000000E+00 0.  1.
          1   -1    0    0  502    0 -0.00000000000E+00 -0.00000000000E+00 -0.98969766985E+02  0.98969766985E+02  0.00000000000E+00 0. -1.
        -24    2    1    2    0    0 -0.16216846366E+02 -0.55157799003E+02 -0.29842285662E+02  0.10401364660E+03  0.81381249490E+02 0.  0.
         23    2    1    2    0    0  0.37443273295E+02  0.64928376359E+02  0.11076301491E+03  0.16255931333E+03  0.92408831322E+02 0.  0.
         13    1    3    3    0    0  0.32890144759E+02 -0.25541839362E+02 -0.67225032835E+01  0.42182214625E+02  0.00000000000E+00 0. -1.
        -14    1    3    3    0    0 -0.49106991125E+02 -0.29615959640E+02 -0.23119782378E+02  0.61831431974E+02  0.00000000000E+00 0.  1.
        -13    1    4    4    0    0  0.54349375048E+02  0.91924994723E+01  0.29323109644E+02  0.62435577788E+02  0.00000000000E+00 0. -1.
         13    1    4    4    0    0 -0.16906101753E+02  0.55735876887E+02  0.81439905266E+02  0.10012373554E+03  0.00000000000E+00 0.  1.
          2    1    1    2  501    0 -0.21226426929E+02 -0.97705773562E+01  0.16075437819E+02  0.28362741107E+02  0.00000000000E+00 0. -1.
<scales pt_clust_5="13000.00000" pt_clust_6="13000.00000" pt_clust_7="13000.00000" pt_clust_8="13000.00000" pt_clust_9="23.36719"></scales>
<clustering>
<clus scale="   23.367">  1  9  2 -1</clus>
<clus scale="   81.381">  5  6 -1 -1</clus>
<clus scale="   92.409">  7  8 -1 -1</clus>
<clus scale="  101.637">  2  5  1 -1</clus>
<clus scale="   23.367">  1  5  2 -1</clus>
</clustering>
</event>
<event>
 9    1  0.5981539E-005  0.9521846E+02  0.7546771E-02  0.1293550E+00
         21   -1    0    0  501  502  0.00000000000E+00  0.00000000000E+00  0.10962637846E+03  0.10962637846E+03  0.00000000000E+00 0.  1.
         -2   -1    0    0    0  501 -0.00000000000E+00 -0.00000000000E+00 -0.20724524474E+03  0.20724524474E+03  0.00000000000E+00 0.  1.
         23    2    1    2    0    0  0.55982868670E+01  0.49092798830E+02 -0.42628974207E+02  0.10793882874E+03  0.85977424916E+02 0.  0.
        -24    2    1    2    0    0 -0.44721909396E+02 -0.10320543986E+02  0.38594440674E+02  0.10034194346E+03  0.80451301777E+02 0.  0.
         11    1    4    4    0    0  0.67281431565E+01  0.26500553039E+02  0.21563162076E+02  0.34821217389E+02  0.00000000000E+00 0. -1.
        -12    1    4    4    0    0 -0.51450052553E+02 -0.36821097025E+02  0.17031278597E+02  0.65520726068E+02  0.00000000000E+00 0.  1.
        -13    1    3    3    0    0  0.37396501793E+02  0.19731824095E+02  0.61491004696E+01  0.42727680315E+02  0.00000000000E+00 0.  1.
         13    1    3    3    0    0 -0.31798214926E+02  0.29360974735E+02 -0.48778074676E+02  0.65211148426E+02  0.00000000000E+00 0. -1.
         -1    1    1    2    0  502  0.39123622530E+02 -0.38772254844E+02 -0.93584332748E+02  0.10859085100E+03  0.00000000000E+00 0.  1.
<scales pt_clust_5="13000.00000" pt_clust_6="13000.00000" pt_clust_7="13000.00000" pt_clust_8="13000.00000" pt_clust_9="55.08129"></scales>
<clustering>
<clus scale="   55.081">  1  9  2 -1</clus>
<clus scale="   80.451">  5  6 -1 -1</clus>
<clus scale="   85.977">  7  8 -1 -1</clus>
<clus scale="   90.260">  1  5  2 -1</clus>
<clus scale="   55.081">  1  5  2 -1</clus>
</clustering>
</event>
<event>
 9    1  0.5981539E-005  0.9951154E+02  0.7546771E-02  0.1285905E+00
         21   -1    0    0  501  502  0.00000000000E+00  0.00000000000E+00  0.53042415384E+02  0.53042415384E+02  0.00000000000E+00 0.  1.
         -2   -1    0    0    0  501 -0.00000000000E+00 -0.00000000000E+00 -0.28867646536E+03  0.28867646536E+03  0.00000000000E+00 0.  1.
         23    2    1    2    0    0  0.19809350236E+02 -0.45081521286E+02 -0.18204460383E+03  0.20865623549E+03  0.89288481369E+02 0.  0.
        -24    2    1    2    0    0  0.36675764433E+01  0.33201318240E+02 -0.17542617088E+02  0.88434412087E+02  0.79982017836E+02 0.  0.
         11    1    4    4    0    0 -0.31867455163E+02  0.22357365618E+02 -0.30109824040E+02  0.49213697276E+02  0.00000000000E+00 0. -1.
        -12    1    4    4    0    0  0.35535031606E+02  0.10843952622E+02  0.12567206952E+02  0.39220714811E+02  0.00000000000E+00 0.  1.
        -11    1    3    3    0    0  0.76382535991E+00 -0.64089481390E+02 -0.16446989455E+03  0.17651739650E+03  0.00000000000E+00 0.  1.
         11    1    3    3    0    0  0.19045524877E+02  0.19007960104E+02 -0.17574709285E+02  0.32138838989E+02  0.00000000000E+00 0. -1.
         -1    1    1    2    0  502 -0.23476926680E+02  0.11880203047E+02 -0.36046829050E+02  0.44628233164E+02  0.00000000000E+00 0.  1.
<scales pt_clust_5="13000.00000" pt_clust_6="13000.00000" pt_clust_7="13000.00000" pt_clust_8="13000.00000" pt_clust_9="26.31171"></scales>
<clustering>
<clus scale="   26.312">  1  9  2 -1</clus>
<clus scale="   79.982">  5  6 -1 -1</clus>
<clus scale="   89.288">  7  8 -1 -1</clus>
<clus scale="   91.254">  1  5  2 -1</clus>
<clus scale="   26.312">  1  5  2 -1</clus>
</clustering>
</event>
<event>
 9    1  0.5981539E-005  0.9075175E+02  0.7546771E-02  0.1307834E+00
          1   -1    0    0  502    0 -0.00000000000E+00  0.00000000000E+00  0.75392931824E+03  0.75392931824E+03  0.00000000000E+00 0. -1.
         21   -1    0    0  501  502  0.00000000000E+00 -0.00000000000E+00 -0.42539958025E+02  0.42539958025E+02  0.00000000000E+00 0.  1.
        -24    2    1    2    0    0 -0.45028232178E+01 -0.33245899819E+01  0.56247717938E+03  0.56809461668E+03  0.79495835534E+02 0.  0.
         23    2    1    2    0    0  0.61052134339E+02  0.13016561393E+02  0.67535657522E+02  0.12880610308E+03  0.90183996223E+02 0.  0.
         11    1    3    3    0    0 -0.12890364161E+02 -0.28806815548E+02  0.10048977104E+03  0.10532895230E+03  0.00000000000E+00 0. -1.
        -12    1    3    3    0    0  0.83875409430E+01  0.25482225566E+02  0.46198740834E+03  0.46276566438E+03  0.00000000000E+00 0.  1.
        -11    1    4    4    0    0 -0.87910513130E+01  0.35287980022E+02  0.21738625603E+02  0.42368525585E+02  0.00000000000E+00 0. -1.
         11    1    4    4    0    0  0.69843185652E+02 -0.22271418629E+02  0.45797031919E+02  0.86437577491E+02  0.00000000000E+00 0.  1.
          2    1    1    2  501    0 -0.56549311122E+02 -0.96919714108E+01  0.81376523320E+02  0.99568556512E+02  0.00000000000E+00 0. -1.
<scales pt_clust_5="13000.00000" pt_clust_6="13000.00000" pt_clust_7="13000.00000" pt_clust_8="13000.00000" pt_clust_9="57.37385"></scales>
<clustering>
<clus scale="   57.374">  2  9  1 -1</clus>
<clus scale="   79.496">  5  6 -1 -1</clus>
<clus scale="   80.139">  1  5  2 -1</clus>
<clus scale="   90.184">  7  8 -1 -1</clus>
<clus scale="   57.374">  2  5  1 -1</clus>
</clustering>
</event>
<event>
 9    1  0.5981539E-005  0.1274481E+03  0.7546771E-02  0.1256413E+00
         -2   -1    0    0    0  501 -0.00000000000E+00  0.00000000000E+00  0.11304903907E+03  0.11304903907E+03  0.00000000000E+00 0.  1.
         21   -1    0    0  501  502  0.00000000000E+00 -0.00000000000E+00 -0.32271401208E+03  0.32271401208E+03  0.00000000000E+00 0.  1.
        -24    2    1    2    0    0 -0.20198133295E+02  0.22128653015E+02  0.50988797592E+02  0.92152491648E+02  0.70672359266E+02 0.  0.
         23    2    1    2    0    0  0.86789270248E+02 -0.68054861143E+02 -0.15248865517E+03  0.20854284200E+03  0.89852576146E+02 0.  0.
         13    1    3    3    0    0  0.12239227039E+02  0.34049746500E+02  0.81092013397E+01  0.37080224670E+02  0.00000000000E+00 0. -1.
        -14    1    3    3    0    0 -0.32437360334E+02 -0.11921093485E+02  0.42879596252E+02  0.55072266977E+02  0.00000000000E+00 0.  1.
        -13    1    4    4    0    0  0.50813006259E+02  0.73011110512E+00 -0.19252006461E+02  0.54342749471E+02  0.00000000000E+00 0.  1.
         13    1    4    4    0    0  0.35976263990E+02 -0.68784972248E+02 -0.13323664871E+03  0.15420009253E+03  0.00000000000E+00 0. -1.
         -1    1    1    2    0  502 -0.66591136953E+02  0.45926208128E+02 -0.10816511543E+03  0.13506771749E+03  0.00000000000E+00 0.  1.
<scales pt_clust_5="13000.00000" pt_clust_6="13000.00000" pt_clust_7="13000.00000" pt_clust_8="13000.00000" pt_clust_9="90.38542"></scales>
<clustering>
<clus scale="   70.672">  5  6 -1 -1</clus>
<clus scale="   76.761">  1  5  2 -1</clus>
<clus scale="   89.853">  7  8 -1 -1</clus>
<clus scale="   90.385">  2  9  1 -1</clus>
<clus scale="   90.385">  2  5  1 -1</clus>
</clustering>
</event>
<event>
 9    1  0.5981539E-005  0.1475929E+03  0.7546771E-02  0.1223312E+00
          1   -1    0    0  502    0 -0.00000000000E+00  0.00000000000E+00  0.25693251104E+03  0.25693251104E+03  0.00000000000E+00 0. -1.
         21   -1    0    0  501  502  0.00000000000E+00 -0.00000000000E+00 -0.28304693709E+03  0.28304693709E+03  0.00000000000E+00 0.  1.
         23    2    1    2    0    0 -0.27258168861E+02  0.40372471212E+02 -0.15529063750E+03  0.18300775989E+03  0.83688194401E+02 0.  0.
        -24    2    1    2    0    0 -0.80450610430E+02  0.33215355432E+02  0.18049094813E+03  0.21679483007E+03  0.82749353055E+02 0.  0.
         11    1    4    4    0    0 -0.41972700798E+02 -0.15995037847E+02  0.12646683527E+03  0.13420659176E+03  0.00000000000E+00 0. -1.
        -12    1    4    4    0    0 -0.38477909633E+02  0.49210393280E+02  0.54024112860E+02  0.82588238308E+02  0.00000000000E+00 0.  1.
        -11    1    3    3    0    0  0.27347138946E+01 -0.21179557540E+02 -0.12742926993E+02  0.24868343451E+02  0.00000000000E+00 0. -1.
         11    1    3    3    0    0 -0.29992882756E+02  0.61552028752E+02 -0.14254771051E+03  0.15813941644E+03  0.00000000000E+00 0.  1.
          2    1    1    2  501    0  0.10770877929E+03 -0.73587826645E+02 -0.51314736685E+02  0.14017685817E+03  0.00000000000E+00 0. -1.
<scales pt_clust_5="13000.00000" pt_clust_6="13000.00000" pt_clust_7="13000.00000" pt_clust_8="13000.00000" pt_clust_9="122.21384"></scales>
<clustering>
<clus scale="   82.749">  5  6 -1 -1</clus>
<clus scale="   83.688">  7  8 -1 -1</clus>
<clus scale="   96.833">  1  7  2 -1</clus>
<clus scale="  122.214">  2  9  1 -1</clus>
<clus scale="  122.214">  2  5  1 -1</clus>
</clustering>
</event>
<event>
 9    1  0.5981539E-005  0.9209525E+02  0.7546771E-02  0.1304559E+00
          1   -1    0    0  502    0 -0.00000000000E+00  0.00000000000E+00  0.37698516015E+02  0.37698516015E+02  0.00000000000E+00 0. -1.
         21   -1    0    0  501  502  0.00000000000E+00 -0.00000000000E+00 -0.53709739248E+03  0.53709739248E+03  0.00000000000E+00 0.  1.
         23    2    1    2    0    0 -0.25759067555E+01 -0.16529650593E+02 -0.36350254937E+02  0.98782482681E+02  0.90314855956E+02 0.  0.
        -24    2    1    2    0    0 -0.19546802493E+02  0.25319616063E+02 -0.33431704886E+03  0.34509934881E+03  0.79388355209E+02 0.  0.
         11    1    4    4    0    0 -0.36530422813E+02  0.28391535017E+02 -0.10040990543E+03  0.11055632121E+03  0.00000000000E+00 0. -1.
        -12    1    4    4    0    0  0.16983620320E+02 -0.30719189537E+01 -0.23390714344E+03  0.23454302760E+03  0.00000000000E+00 0.  1.
        -13    1    3    3    0    0 -0.34222174812E+02 -0.39467563861E+02 -0.25995971450E+02  0.58349262014E+02  0.00000000000E+00 0. -1.
         13    1    3    3    0    0  0.31646268057E+02  0.22937913267E+02 -0.10354283487E+02  0.40433220667E+02  0.00000000000E+00 0.  1.
          2    1    1    2  501    0  0.22122709248E+02 -0.87899654697E+01 -0.12873157266E+03  0.13091407700E+03  0.00000000000E+00 0. -1.
<scales pt_clust_5="13000.00000" pt_clust_6="13000.00000" pt_clust_7="13000.00000" pt_clust_8="13000.00000" pt_clust_9="23.80499"></scales>
<clustering>
<clus scale="   23.805">  2  9  1 -1</clus>
<clus scale="   79.388">  5  6 -1 -1</clus>
<clus scale="   81.408">  2  5  1 -1</clus>
<clus scale="   90.315">  7  8 -1 -1</clus>
<clus scale="   23.805">  2  5  1 -1</clus>
</clustering>
</event>
<event>
 9    1  0.5981539E-005  0.1114326E+03  0.7546771E-02  0.1261809E+00
         -4   -1    0    0    0  501 -0.00000000000E+00  0.00000000000E+00  0.62634409870E+03  0.62634409870E+03  0.00000000000E+00 0.  1.
         21   -1    0    0  501  502  0.00000000000E+00 -0.00000000000E+00 -0.61511235442E+02  0.61511235442E+02  0.00000000000E+00 0.  1.
         23    2    1    2    0    0  0.44975977625E+02  0.48791158231E+02  0.43781839099E+03  0.45227026371E+03  0.91978433676E+02 0.  0.
        -24    2    1    2    0    0 -0.70582891321E+02  0.13982653516E+02  0.22987862198E+02  0.11141663212E+03  0.81900946015E+02 0.  0.
         13    1    4    4    0    0  0.49273630184E+01 -0.23305679963E+02 -0.10307810874E+01  0.23843156974E+02  0.00000000000E+00 0. -1.
        -14    1    4    4    0    0 -0.75510254339E+02  0.37288333479E+02  0.24018643285E+02  0.87573475147E+02  0.00000000000E+00 0.  1.
        -11    1    3    3    0    0  0.62875471728E+02  0.64068422354E+02  0.35497468116E+03  0.36614902970E+03  0.00000000000E+00 0.  1.
         11    1    3    3    0    0 -0.17899494104E+02 -0.15277264124E+02  0.82843709828E+02  0.86121234004E+02  0.00000000000E+00 0. -1.
         -3    1    1    2    0  502  0.25606913696E+02 -0.62773811747E+02  0.10402661007E+03  0.12416843831E+03  0.00000000000E+00 0.  1.
<scales pt_clust_5="13000.00000" pt_clust_6="13000.00000" pt_clust_7="13000.00000" pt_clust_8="13000.00000" pt_clust_9="67.79580"></scales>
<clustering>
<clus scale="   67.796">  2  9  1 -1</clus>
<clus scale="   81.901">  5  6 -1 -1</clus>
<clus scale="   91.978">  7  8 -1 -1</clus>
<clus scale="  103.271">  2  5  1 -1</clus>
<clus scale="   67.796">  2  5  1 -1</clus>
</clustering>
</event>
<event>
 9    1  0.5981539E-005  0.9801396E+02  0.7546771E-02  0.1290618E+00
         21   -1    0    0  501  502  0.00000000000E+00  0.00000000000E+00  0.17158949765E+03  0.17158949765E+03  0.00000000000E+00 0.  1.
         -4   -1    0    0    0  501 -0.00000000000E+00 -0.00000000000E+00 -0.37969028515E+03  0.37969028515E+03  0.00000000000E+00 0.  1.
        -24    2    1    2    0    0 -0.15941113750E+02  0.30547235574E+02 -0.27757138457E+03  0.29160816204E+03  0.82475414061E+02 0.  0.
         23    2    1    2    0    0 -0.43805647288E+01 -0.13372668879E+02 -0.69955630412E+02  0.11772934633E+03  0.93639687855E+02 0.  0.
         11    1    3    3    0    0  0.10616985013E+02  0.43403985845E+02 -0.23848504817E+03  0.24263500275E+03  0.00000000000E+00 0. -1.
        -12    1    3    3    0    0 -0.26558098763E+02 -0.12856750271E+02 -0.39086336406E+02  0.48973159292E+02  0.00000000000E+00 0.  1.
        -13    1    4    4    0    0  0.17059649488E+02 -0.49133219573E+02 -0.47167280285E+02  0.70212942081E+02  0.00000000000E+00 0. -1.
         13    1    4    4    0    0 -0.21440214217E+02  0.35760550693E+02 -0.22788350127E+02  0.47516404252E+02  0.00000000000E+00 0.  1.
         -3    1    1    2    0  502  0.20321678479E+02 -0.17174566694E+02  0.13942622749E+03  0.14194227443E+03  0.00000000000E+00 0.  1.
<scales pt_clust_5="13000.00000" pt_clust_6="13000.00000" pt_clust_7="13000.00000" pt_clust_8="13000.00000" pt_clust_9="26.60707"></scales>
<clustering>
<clus scale="   26.607">  1  9  2 -1</clus>
<clus scale="   82.475">  5  6 -1 -1</clus>
<clus scale="   87.410">  2  5  1 -1</clus>
<clus scale="   93.640">  7  8 -1 -1</clus>
<clus scale="   26.607">  1  5  2 -1</clus>
</clustering>
</event>
<event>
 9    1  0.5981539E-005  0.1560055E+03  0.7546771E-02  0.1206875E+00
         21   -1    0    0  501  502  0.00000000000E+00  0.00000000000E+00  0.14255292556E+03  0.14255292556E+03  0.00000000000E+00 0. -1.
          1   -1    0    0  502    0 -0.00000000000E+00 -0.00000000000E+00 -0.51332938674E+03  0.51332938674E+03  0.00000000000E+00 0. -1.
         23    2    1    2    0    0  0.51984380096E+02  0.46329918369E+02 -0.17826422551E+03  0.21275284110E+03  0.92934386462E+02 0.  0.
        -24    2    1    2    0    0  0.82950256342E+02  0.87887948656E+02  0.32075439401E+02  0.14874636072E+03  0.80570524819E+02 0.  0.
         11    1    4    4    0    0  0.10542580929E+02  0.54629622524E+02  0.40217063271E+02  0.68650956642E+02  0.00000000000E+00 0. -1.
        -12    1    4    4    0    0  0.72407675413E+02  0.33258326132E+02 -0.81416238693E+01  0.80095404082E+02  0.00000000000E+00 0.  1.
        -11    1    3    3    0    0 -0.79515596436E+01 -0.21185748006E+02 -0.58857474657E+02  0.63057636670E+02  0.00000000000E+00 0.  1.
         11    1    3    3    0    0  0.59935939740E+02  0.67515666375E+02 -0.11940675086E+03  0.14969520443E+03  0.00000000000E+00 0. -1.
          2    1    1    2  501    0 -0.13493463644E+03 -0.13421786703E+03 -0.22458767508E+03  0.29438311048E+03  0.00000000000E+00 0. -1.
<scales pt_clust_5="13000.00000" pt_clust_6="13000.00000" pt_clust_7="13000.00000" pt_clust_8="13000.00000" pt_clust_9="133.58942"></scales>
<clustering>
<clus scale="   80.571">  5  6 -1 -1</clus>
<clus scale="   92.934">  7  8 -1 -1</clus>
<clus scale="  116.128">  2  7  1 -1</clus>
<clus scale="  133.589">  1  9  2 -1</clus>
<clus scale="  133.589">  1  5  2 -1</clus>
</clustering>
</event>
<event>
 9    1  0.5981539E-005  0.1688172E+03  0.7546771E-02  0.1179733E+00
          1   -1    0    0  502    0 -0.00000000000E+00  0.00000000000E+00  0.14572732080E+03  0.14572732080E+03  0.00000000000E+00 0. -1.
         21   -1    0    0  501  502  0.00000000000E+00 -0.00000000000E+00 -0.22239086068E+03  0.22239086068E+03  0.00000000000E+00 0. -1.
         23    2    1    2    0    0 -0.37640745692E+02  0.13338941259E+03 -0.18278091282E+02  0.16329868349E+03  0.84396743305E+02 0.  0.
        -24    2    1    2    0    0  0.52938357575E+02 -0.14661906981E+03 -0.45245324677E+02  0.18070096535E+03  0.79410818779E+02 0.  0.
         13    1    4    4    0    0  0.43120645462E+02 -0.13912740583E+03 -0.13075613728E+02  0.14624225379E+03  0.00000000000E+00 0. -1.
        -14    1    4    4    0    0  0.98177121122E+01 -0.74916639821E+01 -0.32169710948E+02  0.34458711567E+02  0.00000000000E+00 0.  1.
        -11    1    3    3    0    0 -0.46665499848E+02  0.28233158947E+02 -0.18991646666E+02  0.57753465552E+02  0.00000000000E+00 0.  1.
         11    1    3    3    0    0  0.90247541561E+01  0.10515625364E+03  0.71355538365E+00  0.10554521793E+03  0.00000000000E+00 0. -1.
          2    1    1    2  501    0 -0.15297611883E+02  0.13229657225E+02 -0.13140123923E+02  0.24118532632E+02  0.00000000000E+00 0. -1.
<scales pt_clust_5="13000.00000" pt_clust_6="13000.00000" pt_clust_7="13000.00000" pt_clust_8="13000.00000" pt_clust_9="20.22476"></scales>
<clustering>
<clus scale="   20.225">  2  9  1 -1</clus>
<clus scale="   79.411">  5  6 -1 -1</clus>
<clus scale="   84.397">  7  8 -1 -1</clus>
<clus scale="  166.381">  2  5  1 -1</clus>
<clus scale="   20.225">  2  5  1 -1</clus>
</clustering>
</event>
<event>
 9    1  0.5981539E-005  0.1001610E+03  0.7546771E-02  0.1284872E+00
         21   -1    0    0  501  502  0.00000000000E+00  0.00000000000E+00  0.36347653875E+02  0.36347653875E+02  0.00000000000E+00 0.  1.
          1   -1    0    0  502    0 -0.00000000000E+00 -0.00000000000E+00 -0.53439779944E+03  0.53439779944E+03  0.00000000000E+00 0. -1.
        -24    2    1    2    0    0 -0.32061135364E+01  0.46842023198E+02 -0.34943593626E+03  0.36183226810E+03  0.81318278316E+02 0.  0.
         23    2    1    2    0    0  0.17141403030E+02 -0.27100633885E+02 -0.15610278526E+03  0.18361509210E+03  0.91203894800E+02 0.  0.
         11    1    3    3    0    0 -0.26484165042E+02 -0.12559613794E+02 -0.89325927835E+02  0.94012107094E+02  0.00000000000E+00 0. -1.
        -12    1    3    3    0    0  0.23278051505E+02  0.59401636993E+02 -0.26011000842E+03  0.26782016100E+03  0.00000000000E+00 0.  1.
        -13    1    4    4    0    0  0.47462330147E+01 -0.56258844462E+02 -0.13274408014E+03  0.14425177684E+03  0.00000000000E+00 0. -1.
         13    1    4    4    0    0  0.12395170016E+02  0.29158210576E+02 -0.23358705115E+02  0.39363315262E+02  0.00000000000E+00 0.  1.
          2    1    1    2  501    0 -0.13935289494E+02 -0.19741389313E+02  0.74885759548E+01  0.25298093112E+02  0.00000000000E+00 0. -1.
<scales pt_clust_5="13000.00000" pt_clust_6="13000.00000" pt_clust_7="13000.00000" pt_clust_8="13000.00000" pt_clust_9="24.16433"></scales>
<clustering>
<clus scale="   24.164">  1  9  2 -1</clus>
<clus scale="   81.318">  5  6 -1 -1</clus>
<clus scale="   91.204">  7  8 -1 -1</clus>
<clus scale="   91.251">  2  5  1 -1</clus>
<clus scale="   24.164">  1  5  2 -1</clus>
</clustering>
</event>
<event>
 9    1  0.5981539E-005  0.1028372E+03  0.7546771E-02  0.1279772E+00
         21   -1    0    0  501  502  0.00000000000E+00  0.00000000000E+00  0.38159152092E+02  0.38159152092E+02  0.00000000000E+00 0. -1.
          1   -1    0    0  502    0 -0.00000000000E+00 -0.00000000000E+00 -0.69638543735E+03  0.69638543735E+03  0.00000000000E+00 0. -1.
         23    2    1    2    0    0  0.98428821380E+01 -0.65020071549E+02 -0.49988319570E+03  0.51244489278E+03  0.91608224325E+02 0.  0.
        -24    2    1    2    0    0 -0.98873307680E+00 -0.86769286824E+01 -0.71349599563E+02  0.10774275065E+03  0.80258758248E+02 0.  0.
         13    1    4    4    0    0 -0.20742753412E+02 -0.39166896242E+02 -0.36785052995E+02  0.57597289035E+02  0.00000000000E+00 0. -1.
        -14    1    4    4    0    0  0.19754020335E+02  0.30489967560E+02 -0.34564546568E+02  0.50145461616E+02  0.00000000000E+00 0.  1.
        -11    1    3    3    0    0  0.46900431210E+02 -0.12811859459E+02 -0.22782015077E+03  0.23295024208E+03  0.00000000000E+00 0.  1.
         11    1    3    3    0    0 -0.37057549072E+02 -0.52208212090E+02 -0.27206304493E+03  0.27949465070E+03  0.00000000000E+00 0. -1.
          2    1    1    2  501    0 -0.88541490612E+01  0.73697000232E+02 -0.86993489996E+02  0.11435694601E+03  0.00000000000E+00 0. -1.
<scales pt_clust_5="13000.00000" pt_clust_6="13000.00000" pt_clust_7="13000.00000" pt_clust_8="13000.00000" pt_clust_9="74.22697"></scales>
<clustering>
<clus scale="   74.227">  1  9  2 -1</clus>
<clus scale="   80.259">  5  6 -1 -1</clus>
<clus scale="   91.608">  7  8 -1 -1</clus>
<clus scale="   92.870">  1  5  2 -1</clus>
<clus scale="   74.227">  1  5  2 -1</clus>
</clustering>
</event>
<event>
 9    1  0.5981539E-005  0.2615993E+03  0.7546771E-02  0.1117080E+00
         21   -1    0    0  501  502  0.00000000000E+00  0.00000000000E+00  0.18476243265E+03  0.18476243265E+03  0.00000000000E+00 0. -1.
          1   -1    0    0  502    0 -0.00000000000E+00 -0.00000000000E+00 -0.73352621903E+03  0.73352621903E+03  0.00000000000E+00 0. -1.
         23    2    1    2    0    0  0.16885041723E+03 -0.16032654680E+02 -0.15252882841E+03  0.25023632701E+03  0.10288666797E+03 0.  0.
        -24    2    1    2    0    0 -0.46379296036E+02 -0.23770403775E+03 -0.20492256708E+03  0.32749114732E+03  0.81258503618E+02 0.  0.
         11    1    4    4    0    0 -0.48099536623E+02 -0.14292960741E+03 -0.80106692238E+02  0.17076158889E+03  0.00000000000E+00 0. -1.
        -12    1    4    4    0    0  0.17202405874E+01 -0.94774430341E+02 -0.12481587484E+03  0.15672955843E+03  0.00000000000E+00 0.  1.
        -11    1    3    3    0    0  0.70274061666E+02 -0.48928114720E+02 -0.32796175428E+02  0.91695110425E+02  0.00000000000E+00 0. -1.
         11    1    3    3    0    0  0.98576355559E+02  0.32895460040E+02 -0.11973265298E+03  0.15854121659E+03  0.00000000000E+00 0.  1.
          2    1    1    2  501    0 -0.12247112119E+03  0.25373669243E+03 -0.19131239089E+03  0.34056117735E+03  0.00000000000E+00 0. -1.
<scales pt_clust_5="13000.00000" pt_clust_6="13000.00000" pt_clust_7="13000.00000" pt_clust_8="13000.00000" pt_clust_9="248.65903"></scales>
<clustering>
<clus scale="   81.259">  5  6 -1 -1</clus>
<clus scale="  102.887">  7  8 -1 -1</clus>
<clus scale="  198.376">  2  7  1 -1</clus>
<clus scale="  248.659">  1  9  2 -1</clus>
<clus scale="  248.659">  1  5  2 -1</clus>
</clustering>
</event>
<event>
 9    1  0.5981539E-005  0.1562947E+03  0.7546771E-02  0.1211990E+00
         21   -1    0    0  501  502  0.00000000000E+00  0.00000000000E+00  0.25787224009E+03  0.25787224009E+03  0.00000000000E+00 0. -1.
          3   -1    0    0  502    0 -0.00000000000E+00 -0.00000000000E+00 -0.17014962647E+03  0.17014962647E+03  0.00000000000E+00 0. -1.
        -24    2    1    2    0    0 -0.67745065180E+02  0.82686064374E+01  0.96576633506E+02  0.14157712290E+03  0.77841325020E+02 0.  0.
         23    2    1    2    0    0  0.15457628926E+02  0.90843810936E+02 -0.63377770074E+02  0.16182497556E+03  0.11695744823E+03 0.  0.
         11    1    3    3    0    0 -0.60415841760E+02 -0.57948919427E+01  0.20799332026E+02  0.64158139943E+02  0.00000000000E+00 0. -1.
        -12    1    3    3    0    0 -0.73292234195E+01  0.14063498380E+02  0.75777301480E+02  0.77418982958E+02  0.00000000000E+00 0.  1.
        -11    1    4    4    0    0 -0.41843762247E+01  0.82217069364E+02 -0.93670669357E+02  0.12470505121E+03  0.00000000000E+00 0.  1.
         11    1    4    4    0    0  0.19642005150E+02  0.86267415717E+01  0.30292899283E+02  0.37119924346E+02  0.00000000000E+00 0. -1.
          4    1    1    2  501    0  0.52287436254E+02 -0.99112417373E+02  0.54523750190E+02  0.12461976810E+03  0.00000000000E+00 0. -1.
<scales pt_clust_5="13000.00000" pt_clust_6="13000.00000" pt_clust_7="13000.00000" pt_clust_8="13000.00000" pt_clust_9="103.67726"></scales>
<clustering>
<clus scale="   77.841">  5  6 -1 -1</clus>
<clus scale="  103.523">  2  5  1 -1</clus>
<clus scale="  103.677">  1  9  2 -1</clus>
<clus scale="  116.957">  7  8 -1 -1</clus>
<clus scale="  103.677">  1  5  2 -1</clus>
</clustering>
</event>
<event>
 9    1  0.5981539E-005  0.1808840E+03  0.7546771E-02  0.1184752E+00
          1   -1    0    0  502    0 -0.00000000000E+00  0.00000000000E+00  0.73580832756E+02  0.73580832756E+02  0.00000000000E+00 0. -1.
         21   -1    0    0  501  502  0.00000000000E+00 -0.00000000000E+00 -0.82472159510E+03  0.82472159510E+03  0.00000000000E+00 0. -1.
         23    2    1    2    0    0 -0.22005389730E+02  0.43994486987E+02 -0.27165853570E+03  0.29733787458E+03  0.11041602952E+03 0.  0.
        -24    2    1    2    0    0  0.10579612152E+03  0.10469037990E+03 -0.13424372367E+03  0.21584418209E+03  0.80090190554E+02 0.  0.
         13    1    4    4    0    0  0.11001781231E+03  0.11411067268E+03 -0.12834353285E+03  0.20395398272E+03  0.00000000000E+00 0. -1.
        -14    1    4    4    0    0 -0.42216907836E+01 -0.94202927820E+01 -0.59001908222E+01  0.11890199364E+02  0.00000000000E+00 0.  1.
        -13    1    3    3    0    0 -0.55316727433E+02  0.52722211406E+02 -0.12350097992E+03  0.14523107089E+03  0.00000000000E+00 0.  1.
         13    1    3    3    0    0  0.33311337703E+02 -0.87277244198E+01 -0.14815755578E+03  0.15210680369E+03  0.00000000000E+00 0. -1.
          2    1    1    2  501    0 -0.83790731792E+02 -0.14868486689E+03 -0.34523850297E+03  0.38512037119E+03  0.00000000000E+00 0. -1.
<scales pt_clust_5="13000.00000" pt_clust_6="13000.00000" pt_clust_7="13000.00000" pt_clust_8="13000.00000" pt_clust_9="162.18685"></scales>
<clustering>
<clus scale="   80.090">  5  6 -1 -1</clus>
<clus scale="  110.416">  7  8 -1 -1</clus>
<clus scale="  120.878">  1  7  2 -1</clus>
<clus scale="  162.187">  2  9  1 -1</clus>
<clus scale="  162.187">  2  5  1 -1</clus>
</clustering>
</event>
<event>
 9    1  0.5981539E-005  0.1350602E+03  0.7546771E-02  0.1222630E+00
         21   -1    0    0  501  502  0.00000000000E+00  0.00000000000E+00  0.73674194370E+03  0.73674194370E+03  0.00000000000E+00 0.  1.
          1   -1    0    0  502    0 -0.00000000000E+00 -0.00000000000E+00 -0.31831229704E+02  0.31831229704E+02  0.00000000000E+00 0. -1.
         23    2    1    2    0    0 -0.67845982807E+02  0.89662687888E+02  0.27898491763E+03  0.31432879820E+03  0.91255323857E+02 0.  0.
        -24    2    1    2    0    0  0.31554761698E+02 -0.79713154399E+02  0.35395405456E+03  0.37302875130E+03  0.80728474478E+02 0.  0.
         11    1    4    4    0    0 -0.25450279207E+02 -0.10901262723E+02  0.67378930309E+02  0.72845552303E+02  0.00000000000E+00 0. -1.
        -12    1    4    4    0    0  0.57005040905E+02 -0.68811891676E+02  0.28657512425E+03  0.30018319900E+03  0.00000000000E+00 0.  1.
        -11    1    3    3    0    0 -0.88959365729E+01  0.84612243314E+02  0.15070223992E+03  0.17305933815E+03  0.00000000000E+00 0.  1.
         11    1    3    3    0    0 -0.58950046234E+02  0.50504445744E+01  0.12828267772E+03  0.14126946005E+03  0.00000000000E+00 0. -1.
          2    1    1    2  501    0  0.36291221108E+02 -0.99495334888E+01  0.71971741810E+02  0.81215623899E+02  0.00000000000E+00 0. -1.
<scales pt_clust_5="13000.00000" pt_clust_6="13000.00000" pt_clust_7="13000.00000" pt_clust_8="13000.00000" pt_clust_9="37.63040"></scales>
<clustering>
<clus scale="   37.630">  1  9  2 -1</clus>
<clus scale="   80.728">  5  6 -1 -1</clus>
<clus scale="   91.255">  7  8 -1 -1</clus>
<clus scale="  128.183">  1  5  2 -1</clus>
<clus scale="   37.630">  1  5  2 -1</clus>
</clustering>
</event>
<event>
 9    1  0.5981539E-005  0.9346203E+02  0.7546771E-02  0.1299920E+00
         21   -1    0    0  501  502  0.00000000000E+00  0.00000000000E+00  0.21258839457E+03  0.21258839457E+03  0.00000000000E+00 0.  1.
          3   -1    0    0  502    0 -0.00000000000E+00 -0.00000000000E+00 -0.27260372330E+03  0.27260372330E+03  0.00000000000E+00 0. -1.
         23    2    1    2    0    0  0.14639376977E+01 -0.27710909465E+02 -0.22583169731E+03  0.24436488017E+03  0.89130250394E+02 0.  0.
        -24    2    1    2    0    0  0.61063152399E+02  0.33438706528E+02  0.13257365852E+03  0.16978131996E+03  0.80019160195E+02 0.  0.
         13    1    4    4    0    0 -0.12160785037E+02  0.22756272608E+02  0.12340548313E+02  0.28601079846E+02  0.00000000000E+00 0. -1.
        -14    1    4    4    0    0  0.73223937436E+02  0.10682433920E+02  0.12023311021E+03  0.14118024011E+03  0.00000000000E+00 0.  1.
        -11    1    3    3    0    0  0.42745875186E+02 -0.12915306178E+02 -0.74994926923E+02  0.87282610200E+02  0.00000000000E+00 0.  1.
         11    1    3    3    0    0 -0.41281937488E+02 -0.14795603287E+02 -0.15083677038E+03  0.15708226997E+03  0.00000000000E+00 0. -1.
          4    1    1    2  501    0 -0.62527090097E+02 -0.57277970636E+01  0.33242710063E+02  0.71045917740E+02  0.00000000000E+00 0. -1.
<scales pt_clust_5="13000.00000" pt_clust_6="13000.00000" pt_clust_7="13000.00000" pt_clust_8="13000.00000" pt_clust_9="62.78889"></scales>
<clustering>
<clus scale="   62.789">  1  9  2 -1</clus>
<clus scale="   80.019">  5  6 -1 -1</clus>
<clus scale="   84.818">  1  5  2 -1</clus>
<clus scale="   89.130">  7  8 -1 -1</clus>
<clus scale="   62.789">  1  5  2 -1</clus>
</clustering>
</event>
<event>
 9    1  0.5981539E-005  0.1212639E+03  0.7546771E-02  0.1251433E+00
          1   -1    0    0  502    0 -0.00000000000E+00  0.00000000000E+00  0.70387703392E+03  0.70387703392E+03  0.00000000000E+00 0. -1.
         21   -1    0    0  501  502  0.00000000000E+00 -0.00000000000E+00 -0.11223681842E+03  0.11223681842E+03  0.00000000000E+00 0.  1.
         23    2    1    2    0    0  0.16313853548E+01  0.35798321784E+02  0.14668754983E+03  0.17661980854E+03  0.91614072256E+02 0.  0.
        -24    2    1    2    0    0 -0.86814464548E+02  0.28141565622E+02 -0.51869536583E+02  0.13138306493E+03  0.79008619500E+02 0.  0.
         11    1    4    4    0    0 -0.43145786409E+02  0.43952227970E+02  0.22700855120E+00  0.61590654820E+02  0.00000000000E+00 0. -1.
        -12    1    4    4    0    0 -0.43668678139E+02 -0.15810662348E+02 -0.52096545135E+02  0.69792410112E+02  0.00000000000E+00 0.  1.
        -13    1    3    3    0    0  0.35441471179E+02  0.46822773349E+02  0.65410953503E+02  0.87903713355E+02  0.00000000000E+00 0. -1.
         13    1    3    3    0    0 -0.33810085824E+02 -0.11024451565E+02  0.81276596323E+02  0.88716095189E+02  0.00000000000E+00 0.  1.
          2    1    1    2  501    0  0.85183079193E+02 -0.63939887406E+02  0.49682220226E+03  0.50811097887E+03  0.00000000000E+00 0. -1.
<scales pt_clust_5="13000.00000" pt_clust_6="13000.00000" pt_clust_7="13000.00000" pt_clust_8="13000.00000" pt_clust_9="91.99225"></scales>
<clustering>
<clus scale="   79.009">  5  6 -1 -1</clus>
<clus scale="   91.614">  7  8 -1 -1</clus>
<clus scale="   98.373">  1  7  2 -1</clus>
<clus scale="   91.992">  2  9  1 -1</clus>
<clus scale="   91.992">  2  5  1 -1</clus>
</clustering>
</event>
<event>
 9    1  0.5981539E-005  0.9319710E+02  0.7546771E-02  0.1303589E+00
          1   -1    0    0  502    0 -0.00000000000E+00  0.00000000000E+00  0.39436275249E+03  0.39436275249E+03  0.00000000000E+00 0. -1.
         21   -1    0    0  501  502  0.00000000000E+00 -0.00000000000E+00 -0.12939325681E+03  0.12939325681E+03  0.00000000000E+00 0. -1.
         23    2    1    2    0    0 -0.26633091349E+02  0.27709937744E+02  0.77685140966E+01  0.10038659387E+03  0.92411883505E+02 0.  0.
        -24    2    1    2    0    0 -0.27840483697E+02  0.19725187735E+02 -0.55500010629E+02  0.10243426304E+03  0.79046514790E+02 0.  0.
         11    1    4    4    0    0 -0.45439942219E+02  0.30953779139E+02 -0.59677674151E+02  0.81144005225E+02  0.00000000000E+00 0. -1.
        -12    1    4    4    0    0  0.17599458522E+02 -0.11228591404E+02  0.41776635221E+01  0.21290257812E+02  0.00000000000E+00 0.  1.
        -11    1    3    3    0    0 -0.39838238565E+02 -0.23804519913E+02 -0.13622865251E+01  0.46428399120E+02  0.00000000000E+00 0.  1.
         11    1    3    3    0    0  0.13205147216E+02  0.51514457657E+02  0.91308006216E+01  0.53958194750E+02  0.00000000000E+00 0. -1.
          2    1    1    2  501    0  0.54473575046E+02 -0.47435125479E+02  0.31270099222E+03  0.32093515239E+03  0.00000000000E+00 0. -1.
<scales pt_clust_5="13000.00000" pt_clust_6="13000.00000" pt_clust_7="13000.00000" pt_clust_8="13000.00000" pt_clust_9="72.23203"></scales>
<clustering>
<clus scale="   72.232">  2  9  1 -1</clus>
<clus scale="   79.047">  5  6 -1 -1</clus>
<clus scale="   79.963">  2  5  1 -1</clus>
<clus scale="   92.412">  7  8 -1 -1</clus>
<clus scale="   72.232">  2  5  1 -1</clus>
</clustering>
</event>
<event>
 9    1  0.5981539E-005  0.9898415E+02  0.7546771E-02  0.1286721E+00
         21   -1    0    0  501  502  0.00000000000E+00  0.00000000000E+00  0.81127224461E+02  0.81127224461E+02  0.00000000000E+00 0.  1.
          1   -1    0    0  502    0 -0.00000000000E+00 -0.00000000000E+00 -0.23016985236E+03  0.23016985236E+03  0.00000000000E+00 0. -1.
         23    2    1    2    0    0  0.49500837358E+01  0.49413354217E+02 -0.16948040600E+03  0.19757111080E+03  0.88569480640E+02 0.  0.
        -24    2    1    2    0    0  0.56441286867E+00 -0.22907982967E+02  0.23766378258E+02  0.86449163474E+02  0.79896951659E+02 0.  0.
         11    1    4    4    0    0  0.21216234951E+02  0.18089987264E+02  0.29020447125E+02  0.40243789782E+02  0.00000000000E+00 0. -1.
        -12    1    4    4    0    0 -0.20651822082E+02 -0.40997970231E+02 -0.52540688669E+01  0.46205373692E+02  0.00000000000E+00 0.  1.
        -13    1    3    3    0    0  0.44560983015E+02  0.32831375163E+02 -0.11937250471E+03  0.13158029975E+03  0.00000000000E+00 0. -1.
         13    1    3    3    0    0 -0.39610899279E+02  0.16581979054E+02 -0.50107901296E+02  0.65990811052E+02  0.00000000000E+00 0.  1.
          2    1    1    2  501    0 -0.55144966045E+01 -0.26505371250E+02 -0.33286001508E+01  0.27276802541E+02  0.00000000000E+00 0. -1.
<scales pt_clust_5="13000.00000" pt_clust_6="13000.00000" pt_clust_7="13000.00000" pt_clust_8="13000.00000" pt_clust_9="27.07295"></scales>
<clustering>
<clus scale="   27.073">  1  9  2 -1</clus>
<clus scale="   79.897">  5  6 -1 -1</clus>
<clus scale="   88.569">  7  8 -1 -1</clus>
<clus scale="   91.306">  1  5  2 -1</clus>
<clus scale="   27.073">  1  5  2 -1</clus>
</clustering>
</event>
<event>
 9    1  0.5981539E-005  0.1344092E+03  0.7546771E-02  0.1233218E+00
          1   -1    0    0  502    0 -0.00000000000E+00  0.00000000000E+00  0.38051991248E+03  0.38051991248E+03  0.00000000000E+00 0. -1.
         21   -1    0    0  501  502  0.00000000000E+00 -0.00000000000E+00 -0.17344440829E+03  0.17344440829E+03  0.00000000000E+00 0. -1.
         23    2    1    2    0    0  0.18644136701E+02  0.46755587205E+02  0.13353020110E+03  0.16951900631E+03  0.91502405042E+02 0.  0.
        -24    2    1    2    0    0  0.89363191954E+02 -0.69105292140E+02  0.18321420314E+03  0.22890638045E+03  0.77906131329E+02 0.  0.
         13    1    4    4    0    0  0.91640667592E+02 -0.75314008672E+02  0.18687881419E+03  0.22134566418E+03  0.00000000000E+00 0. -1.
        -14    1    4    4    0    0 -0.22774756378E+01  0.62087165325E+01 -0.36646110507E+01  0.75607162634E+01  0.00000000000E+00 0.  1.
        -13    1    3    3    0    0  0.17022380983E+02 -0.12453562570E+02 -0.24162228963E+01  0.21229479694E+02  0.00000000000E+00 0.  1.
         13    1    3    3    0    0  0.16217557178E+01  0.59209149774E+02  0.13594642399E+03  0.14828952662E+03  0.00000000000E+00 0. -1.
          2    1    1    2  501    0 -0.10800732865E+03  0.22349704935E+02 -0.10966890005E+03  0.15553893401E+03  0.00000000000E+00 0. -1.
<scales pt_clust_5="13000.00000" pt_clust_6="13000.00000" pt_clust_7="13000.00000" pt_clust_8="13000.00000" pt_clust_9="109.52836"></scales>
<clustering>
<clus scale="   77.906">  5  6 -1 -1</clus>
<clus scale="   91.502">  7  8 -1 -1</clus>
<clus scale="  104.434">  1  7  2 -1</clus>
<clus scale="  109.528">  2  9  1 -1</clus>
<clus scale="  109.528">  2  5  1 -1</clus>
</clustering>
</event>
<event>
 9    1  0.5981539E-005  0.1099671E+03  0.7546771E-02  0.1267383E+00
         21   -1    0    0  501  502  0.00000000000E+00  0.00000000000E+00  0.66292433250E+03  0.66292433250E+03  0.00000000000E+00 0. -1.
         -2   -1    0    0    0  501 -0.00000000000E+00 -0.00000000000E+00 -0.67370402373E+02  0.67370402373E+02  0.00000000000E+00 0.  1.
         23    2    1    2    0    0 -0.32963317725E+02 -0.35712041418E+02  0.39731342863E+01  0.10773012491E+03  0.96062811736E+02 0.  0.
        -24    2    1    2    0    0  0.90433029635E+02  0.45646760749E+02  0.47439397986E+03  0.49166687784E+03  0.80155542703E+02 0.  0.
         13    1    4    4    0    0  0.67111719436E+02 -0.10323547272E+02  0.27489785629E+03  0.28315965444E+03  0.00000000000E+00 0. -1.
        -14    1    4    4    0    0  0.23321310199E+02  0.55970308020E+02  0.19949612357E+03  0.20850722340E+03  0.00000000000E+00 0.  1.
        -13    1    3    3    0    0 -0.31608637221E+02 -0.66217911541E+02  0.15671434495E+02  0.75030071404E+02  0.00000000000E+00 0.  1.
         13    1    3    3    0    0 -0.13546805041E+01  0.30505870124E+02 -0.11698300208E+02  0.32700053502E+02  0.00000000000E+00 0. -1.
         -1    1    1    2    0  502 -0.57469711910E+02 -0.99347193310E+01  0.11718681598E+03  0.13089773212E+03  0.00000000000E+00 0.  1.
<scales pt_clust_5="13000.00000" pt_clust_6="13000.00000" pt_clust_7="13000.00000" pt_clust_8="13000.00000" pt_clust_9="58.32209"></scales>
<clustering>
<clus scale="   58.322">  1  9  2 -1</clus>
<clus scale="   80.156">  5  6 -1 -1</clus>
<clus scale="   96.063">  7  8 -1 -1</clus>
<clus scale="   96.383">  1  5  2 -1</clus>
<clus scale="   58.322">  1  5  2 -1</clus>
</clustering>
</event>
<event>
 9    1  0.5981539E-005  0.1543003E+03  0.7546771E-02  0.1218276E+00
          1   -1    0    0  502    0 -0.00000000000E+00  0.00000000000E+00  0.48622539897E+03  0.48622539897E+03  0.00000000000E+00 0. -1.
         21   -1    0    0  501  502  0.00000000000E+00 -0.00000000000E+00 -0.91426775354E+02  0.91426775354E+02  0.00000000000E+00 0. -1.
        -24    2    1    2    0    0 -0.37608871478E+02 -0.32915812562E+02  0.33385329740E+02  0.99926148817E+02  0.79829675215E+02 0.  0.
         23    2    1    2    0    0  0.14836382517E+03 -0.17918341265E+02  0.28692358298E+03  0.33489924933E+03  0.86599498632E+02 0.  0.
         13    1    3    3    0    0  0.82621596123E+01 -0.41689836044E+02 -0.29504310613E-01  0.42500665658E+02  0.00000000000E+00 0. -1.
        -14    1    3    3    0    0 -0.45871031090E+02  0.87740234826E+01  0.33414834051E+02  0.57425483159E+02  0.00000000000E+00 0.  1.
        -13    1    4    4    0    0  0.11155702220E+02  0.19831329319E+02  0.84157811918E+02  0.87179519507E+02  0.00000000000E+00 0.  1.
         13    1    4    4    0    0  0.13720812295E+03 -0.37749670584E+02  0.20276577106E+03  0.24771972983E+03  0.00000000000E+00 0. -1.
          2    1    1    2  501    0 -0.11075495369E+03  0.50834153827E+02  0.74489710896E+02  0.14282677617E+03  0.00000000000E+00 0. -1.
<scales pt_clust_5="13000.00000" pt_clust_6="13000.00000" pt_clust_7="13000.00000" pt_clust_8="13000.00000" pt_clust_9="127.70707"></scales>
<clustering>
<clus scale="   79.830">  5  6 -1 -1</clus>
<clus scale="   86.599">  7  8 -1 -1</clus>
<clus scale="   94.184">  1  5  2 -1</clus>
<clus scale="  127.707">  2  9  1 -1</clus>
<clus scale="  127.707">  2  5  1 -1</clus>
</clustering>
</event>
<event>
 9    1  0.5981539E-005  0.1201965E+03  0.7546771E-02  0.1248072E+00
          3   -1    0    0  502    0 -0.00000000000E+00  0.00000000000E+00  0.66346088837E+03  0.66346088837E+03  0.00000000000E+00 0. -1.
         21   -1    0    0  501  502  0.00000000000E+00 -0.00000000000E+00 -0.70360749577E+02  0.70360749577E+02  0.00000000000E+00 0. -1.
         23    2    1    2    0    0 -0.17664741081E+01  0.38908925730E+02  0.76150044545E+02  0.12824415486E+03  0.95554743677E+02 0.  0.
        -24    2    1    2    0    0  0.33016673302E+02 -0.12126680163E+03  0.99722470393E+02  0.17915247822E+03  0.79720144613E+02 0.  0.
         11    1    4    4    0    0  0.42933293466E+02 -0.12755543870E+03  0.81088820563E+02  0.15712751016E+03  0.00000000000E+00 0. -1.
        -12    1    4    4    0    0 -0.99166201643E+01  0.62886370741E+01  0.18633649830E+02  0.22024968052E+02  0.00000000000E+00 0.  1.
        -13    1    3    3    0    0 -0.26718905027E+02  0.59157727585E+02  0.28786843656E+02  0.71008583893E+02  0.00000000000E+00 0. -1.
         13    1    3    3    0    0  0.24952430919E+02 -0.20248801855E+02  0.47363200889E+02  0.57235570966E+02  0.00000000000E+00 0.  1.
          4    1    1    2  501    0 -0.31250199194E+02  0.82357875898E+02  0.41722762386E+03  0.42642500488E+03  0.00000000000E+00 0. -1.
<scales pt_clust_5="13000.00000" pt_clust_6="13000.00000" pt_clust_7="13000.00000" pt_clust_8="13000.00000" pt_clust_9="88.08747"></scales>
<clustering>
<clus scale="   79.720">  5  6 -1 -1</clus>
<clus scale="   88.087">  2  9  1 -1</clus>
<clus scale="   95.555">  7  8 -1 -1</clus>
<clus scale="  108.036">  2  5  1 -1</clus>
<clus scale="   88.087">  2  5  1 -1</clus>
</clustering>
</event>
<event>
 9    1  0.5981539E-005  0.9409802E+02  0.7546771E-02  0.1298156E+00
         21   -1    0    0  501  502  0.00000000000E+00  0.00000000000E+00  0.62436208210E+02  0.62436208210E+02  0.00000000000E+00 0.  1.
          1   -1    0    0  502    0 -0.00000000000E+00 -0.00000000000E+00 -0.37811266006E+03  0.37811266006E+03  0.00000000000E+00 0. -1.
        -24    2    1    2    0    0 -0.14846270057E+02  0.21374638334E+02 -0.26887536688E+03  0.28171174621E+03  0.79939090177E+02 0.  0.
         23    2    1    2    0    0  0.47290904024E+02 -0.46459923956E+02 -0.33130158309E+02  0.11560727052E+03  0.88726994037E+02 0.  0.
         11    1    3    3    0    0 -0.30425996575E+02  0.35823286249E+02 -0.24616224507E+03  0.25060905811E+03  0.00000000000E+00 0. -1.
        -12    1    3    3    0    0  0.15579726518E+02 -0.14448647916E+02 -0.22713121806E+02  0.31102688102E+02  0.00000000000E+00 0.  1.
        -13    1    4    4    0    0 -0.17519022648E+02  0.13239404469E+02 -0.15876777057E+01  0.22016328162E+02  0.00000000000E+00 0.  1.
         13    1    4    4    0    0  0.64809926672E+02 -0.59699328424E+02 -0.31542480603E+02  0.93590942361E+02  0.00000000000E+00 0. -1.
          2    1    1    2  501    0 -0.32444633966E+02  0.25085285622E+02 -0.13670926657E+02  0.43229851533E+02  0.00000000000E+00 0. -1.
<scales pt_clust_5="13000.00000" pt_clust_6="13000.00000" pt_clust_7="13000.00000" pt_clust_8="13000.00000" pt_clust_9="41.01129"></scales>
<clustering>
<clus scale="   41.011">  1  9  2 -1</clus>
<clus scale="   79.939">  5  6 -1 -1</clus>
<clus scale="   85.862">  2  5  1 -1</clus>
<clus scale="   88.727">  7  8 -1 -1</clus>
<clus scale="   41.011">  1  5  2 -1</clus>
</clustering>
</event>
<event>
 9    1  0.5981539E-005  0.2475148E+03  0.7546771E-02  0.1115378E+00
         21   -1    0    0  501  502  0.00000000000E+00  0.00000000000E+00  0.67587049932E+03  0.67587049932E+03  0.00000000000E+00 0. -1.
          1   -1    0    0  502    0 -0.00000000000E+00 -0.00000000000E+00 -0.50686490262E+03  0.50686490262E+03  0.00000000000E+00 0. -1.
        -24    2    1    2    0    0 -0.22603861654E+03 -0.47372966608E+02  0.46640186341E+03  0.52658481055E+03  0.80144933560E+02 0.  0.
         23    2    1    2    0    0  0.13078746991E+03 -0.20693136030E+03 -0.10857650449E+02  0.26137489529E+03  0.90956017690E+02 0.  0.
         11    1    3    3    0    0 -0.20210465628E+03 -0.14189237011E+02  0.36951073787E+03  0.42140931638E+03  0.00000000000E+00 0. -1.
        -12    1    3    3    0    0 -0.23933960264E+02 -0.33183729598E+02  0.96891125545E+02  0.10517549417E+03  0.00000000000E+00 0.  1.
        -13    1    4    4    0    0  0.29413264136E+02 -0.32619746173E+02 -0.37784782953E+02  0.57938568936E+02  0.00000000000E+00 0.  1.
         13    1    4    4    0    0  0.10137420577E+03 -0.17431161413E+03  0.26927132504E+02  0.20343632635E+03  0.00000000000E+00 0. -1.
          2    1    1    2  501    0  0.95251146633E+02  0.25430432691E+03 -0.28653861627E+03  0.39477569610E+03  0.00000000000E+00 0. -1.
<scales pt_clust_5="13000.00000" pt_clust_6="13000.00000" pt_clust_7="13000.00000" pt_clust_8="13000.00000" pt_clust_9="230.19691"></scales>
<clustering>
<clus scale="   80.145">  5  6 -1 -1</clus>
<clus scale="   90.956">  7  8 -1 -1</clus>
<clus scale="  244.460">  2  5  1 -1</clus>
<clus scale="  230.197">  1  9  2 -1</clus>
<clus scale="  230.197">  1  5  2 -1</clus>
</clustering>
</event>
<event>
 9    1  0.5981539E-005  0.2033886E+03  0.7546771E-02  0.1149049E+00
          1   -1    0    0  502    0 -0.00000000000E+00  0.00000000000E+00  0.10758925705E+03  0.10758925705E+03  0.00000000000E+00 0. -1.
         21   -1    0    0  501  502  0.00000000000E+00 -0.00000000000E+00 -0.87682059457E+03  0.87682059457E+03  0.00000000000E+00 0.  1.
        -24    2    1    2    0    0  0.14444477699E+03  0.92814919155E+02 -0.26834581135E+03  0.33072113122E+03  0.88814916262E+02 0.  0.
         23    2    1    2    0    0  0.49408970450E+02 -0.17812212876E+03 -0.23513883863E+03  0.31386833056E+03  0.95154171671E+02 0.  0.
         13    1    3    3    0    0  0.79293287761E+02  0.24135040576E+02 -0.61396573375E+02  0.10314778180E+03  0.00000000000E+00 0. -1.
        -14    1    3    3    0    0  0.65151489231E+02  0.68679878579E+02 -0.20694923797E+03  0.22757334942E+03  0.00000000000E+00 0.  1.
        -13    1    4    4    0    0  0.51191028048E+02 -0.68322445020E+02 -0.50927682313E+02  0.99408785688E+02  0.00000000000E+00 0. -1.
         13    1    4    4    0    0 -0.17820575978E+01 -0.10979968374E+03 -0.18421115631E+03  0.21445954488E+03  0.00000000000E+00 0.  1.
          2    1    1    2  501    0 -0.19385374744E+03  0.85307209604E+02 -0.26574668754E+03  0.33982038983E+03  0.00000000000E+00 0. -1.
<scales pt_clust_5="13000.00000" pt_clust_6="13000.00000" pt_clust_7="13000.00000" pt_clust_8="13000.00000" pt_clust_9="179.75717"></scales>
<clustering>
<clus scale="   88.815">  5  6 -1 -1</clus>
<clus scale="   95.154">  7  8 -1 -1</clus>
<clus scale="  193.306">  1  5  2 -1</clus>
<clus scale="  179.757">  2  9  1 -1</clus>
<clus scale="  179.757">  2  5  1 -1</clus>
</clustering>
</event>
<event>
 9    1  0.5981539E-005  0.1597518E+03  0.7546771E-02  0.1205450E+00
         21   -1    0    0  501  502  0.00000000000E+00  0.00000000000E+00  0.65490910885E+02  0.65490910885E+02  0.00000000000E+00 0.  1.
          1   -1    0    0  502    0 -0.00000000000E+00 -0.00000000000E+00 -0.10468881669E+04  0.10468881669E+04  0.00000000000E+00 0. -1.
         23    2    1    2    0    0 -0.23942768598E+02 -0.60157204475E+02 -0.91322451011E+02  0.14413365846E+03  0.90788633786E+02 0.  0.
        -24    2    1    2    0    0  0.14111723035E+03 -0.85135641770E+01 -0.17020040119E+03  0.23567140516E+03  0.81155906570E+02 0.  0.
         11    1    4    4    0    0  0.72639333696E+02  0.17366735883E+02 -0.13536141604E+03  0.15459880099E+03  0.00000000000E+00 0. -1.
        -12    1    4    4    0    0  0.68477896649E+02 -0.25880300060E+02 -0.34838985140E+02  0.81072604166E+02  0.00000000000E+00 0.  1.
        -11    1    3    3    0    0 -0.61628052141E+01 -0.82626999381E+02 -0.67570236227E+02  0.10691556490E+03  0.00000000000E+00 0. -1.
         11    1    3    3    0    0 -0.17779963384E+02  0.22469794906E+02 -0.23752214784E+02  0.37218093559E+02  0.00000000000E+00 0.  1.
          2    1    1    2  501    0 -0.11717446175E+03  0.68670768652E+02 -0.71987440384E+03  0.73257401419E+03  0.00000000000E+00 0. -1.
<scales pt_clust_5="13000.00000" pt_clust_6="13000.00000" pt_clust_7="13000.00000" pt_clust_8="13000.00000" pt_clust_9="137.60224"></scales>
<clustering>
<clus scale="   81.156">  5  6 -1 -1</clus>
<clus scale="   90.789">  7  8 -1 -1</clus>
<clus scale="  111.511">  2  7  1 -1</clus>
<clus scale="  137.602">  1  9  2 -1</clus>
<clus scale="  137.602">  1  5  2 -1</clus>
</clustering>
</event>
<event>
 9    1  0.5981539E-005  0.1141107E+03  0.7546771E-02  0.1259338E+00
         -2   -1    0    0    0  501 -0.00000000000E+00  0.00000000000E+00  0.27215679058E+03  0.27215679058E+03  0.00000000000E+00 0.  1.
         21   -1    0    0  501  502  0.00000000000E+00 -0.00000000000E+00 -0.11905941843E+03  0.11905941843E+03  0.00000000000E+00 0. -1.
        -24    2    1    2    0    0 -0.46219773948E+02  0.46389336586E+02  0.40448044319E+02  0.10753295636E+03  0.75093637289E+02 0.  0.
         23    2    1    2    0    0  0.25412192158E+02 -0.73459595614E+02 -0.40257053760E+02  0.12701125160E+03  0.92027908576E+02 0.  0.
         11    1    3    3    0    0  0.15921497893E+02  0.30561359545E+02  0.68324135595E+01  0.35130793721E+02  0.00000000000E+00 0. -1.
        -12    1    3    3    0    0 -0.62141271841E+02  0.15827977040E+02  0.33615630760E+02  0.72402162637E+02  0.00000000000E+00 0.  1.
        -13    1    4    4    0    0  0.13540674891E+02 -0.18916557268E+02  0.29564196695E+02  0.37619512777E+02  0.00000000000E+00 0.  1.
         13    1    4    4    0    0  0.11871517267E+02 -0.54543038345E+02 -0.69821250455E+02  0.89391738820E+02  0.00000000000E+00 0. -1.
         -1    1    1    2    0  502  0.20807581790E+02  0.27070259028E+02  0.15290638159E+03  0.15667200106E+03  0.00000000000E+00 0.  1.
<scales pt_clust_5="13000.00000" pt_clust_6="13000.00000" pt_clust_7="13000.00000" pt_clust_8="13000.00000" pt_clust_9="34.14316"></scales>
<clustering>
<clus scale="   34.143">  2  9  1 -1</clus>
<clus scale="   75.094">  5  6 -1 -1</clus>
<clus scale="   92.028">  7  8 -1 -1</clus>
<clus scale="  100.951">  1  5  2 -1</clus>
<clus scale="   34.143">  2  5  1 -1</clus>
</clustering>
</event>
<event>
 9    1  0.5981539E-005  0.1036289E+03  0.7546771E-02  0.1278075E+00
         21   -1    0    0  501  502  0.00000000000E+00  0.00000000000E+00  0.16409837658E+03  0.16409837658E+03  0.00000000000E+00 0.  1.
          3   -1    0    0  502    0 -0.00000000000E+00 -0.00000000000E+00 -0.17197507123E+03  0.17197507123E+03  0.00000000000E+00 0. -1.
         23    2    1    2    0    0 -0.25506371621E+02  0.31971154875E+02 -0.42932223442E+02  0.10970897936E+03  0.92304683555E+02 0.  0.
        -24    2    1    2    0    0  0.67118689578E+02  0.15541062998E+02 -0.52326577322E+02  0.11854689881E+03  0.81048463235E+02 0.  0.
         11    1    4    4    0    0  0.26001392022E+02  0.55708007812E+00 -0.67414005555E+02  0.72256701214E+02  0.00000000000E+00 0. -1.
        -12    1    4    4    0    0  0.41117297556E+02  0.14983982920E+02  0.15087428234E+02  0.46290197593E+02  0.00000000000E+00 0.  1.
        -11    1    3    3    0    0 -0.23108619840E+02 -0.70988229723E+01  0.22783402745E+02  0.33218745297E+02  0.00000000000E+00 0. -1.
         11    1    3    3    0    0 -0.23977517817E+01  0.39069977847E+02 -0.65715626187E+02  0.76490234067E+02  0.00000000000E+00 0.  1.
          4    1    1    2  501    0 -0.41612317957E+02 -0.47512217873E+02  0.87382106115E+02  0.10781756963E+03  0.00000000000E+00 0. -1.
<scales pt_clust_5="13000.00000" pt_clust_6="13000.00000" pt_clust_7="13000.00000" pt_clust_8="13000.00000" pt_clust_9="63.15850"></scales>
<clustering>
<clus scale="   63.158">  1  9  2 -1</clus>
<clus scale="   81.048">  5  6 -1 -1</clus>
<clus scale="   92.305">  7  8 -1 -1</clus>
<clus scale="   93.742">  1  5  2 -1</clus>
<clus scale="   63.158">  1  5  2 -1</clus>
</clustering>
</event>
<event>
 9    1  0.5981539E-005  0.2367190E+03  0.7546771E-02  0.1147423E+00
         21   -1    0    0  501  502  0.00000000000E+00  0.00000000000E+00  0.42555549022E+03  0.42555549022E+03  0.00000000000E+00 0.  1.
          3   -1    0    0  502    0 -0.00000000000E+00 -0.00000000000E+00 -0.22916350619E+03  0.22916350619E+03  0.00000000000E+00 0. -1.
        -24    2    1    2    0    0  0.92066440380E+02  0.38353346727E+02  0.11053543650E+03  0.16869920074E+03  0.79335546633E+02 0.  0.
         23    2    1    2    0    0 -0.17482665195E+03  0.15168236069E+03  0.11725560984E+03  0.27638028644E+03  0.95211805556E+02 0.  0.
         13    1    3    3    0    0  0.71554989013E+02  0.12512738713E+01  0.29825017114E+02  0.77532017805E+02  0.00000000000E+00 0. -1.
        -14    1    3    3    0    0  0.20511451367E+02  0.37102072856E+02  0.80710419388E+02  0.91167182939E+02  0.00000000000E+00 0.  1.
        -11    1    4    4    0    0 -0.10892473704E+03  0.12688802563E+03  0.40185291107E+02  0.17198845022E+03  0.00000000000E+00 0. -1.
         11    1    4    4    0    0 -0.65901914909E+02  0.24794335060E+02  0.77070318732E+02  0.10439183622E+03  0.00000000000E+00 0.  1.
          4    1    1    2  501    0  0.82760211569E+02 -0.19003570742E+03 -0.31399062312E+02  0.20963950922E+03  0.00000000000E+00 0. -1.
<scales pt_clust_5="13000.00000" pt_clust_6="13000.00000" pt_clust_7="13000.00000" pt_clust_8="13000.00000" pt_clust_9="216.72714"></scales>
<clustering>
<clus scale="   79.336">  5  6 -1 -1</clus>
<clus scale="   95.212">  7  8 -1 -1</clus>
<clus scale="  127.442">  2  5  1 -1</clus>
<clus scale="  216.727">  1  9  2 -1</clus>
<clus scale="  216.727">  1  5  2 -1</clus>
</clustering>
</event>
<event>
 9    1  0.5981539E-005  0.1285832E+03  0.7546771E-02  0.1235491E+00
          3   -1    0    0  502    0 -0.00000000000E+00  0.00000000000E+00  0.40978001062E+02  0.40978001062E+02  0.00000000000E+00 0. -1.
         21   -1    0    0  501  502  0.00000000000E+00 -0.00000000000E+00 -0.60492554479E+03  0.60492554479E+03  0.00000000000E+00 0.  1.
         23    2    1    2    0    0  0.93301332699E+02  0.22156394606E+02 -0.17248244614E+03  0.21777719479E+03  0.92090541533E+02 0.  0.
        -24    2    1    2    0    0 -0.64268958292E+02 -0.63096539233E+02 -0.20071590100E+03  0.23088479812E+03  0.70066003361E+02 0.  0.
         13    1    4    4    0    0  0.50385287050E+00 -0.25013021301E+02 -0.11973573063E+02  0.27735745063E+02  0.00000000000E+00 0. -1.
        -14    1    4    4    0    0 -0.64772811163E+02 -0.38083517932E+02 -0.18874232794E+03  0.20314905306E+03  0.00000000000E+00 0.  1.
        -11    1    3    3    0    0  0.45605501256E+02  0.40493803025E+02 -0.33248997135E+02  0.69462980348E+02  0.00000000000E+00 0. -1.
         11    1    3    3    0    0  0.47695831443E+02 -0.18337408419E+02 -0.13923344901E+03  0.14831421445E+03  0.00000000000E+00 0.  1.
          4    1    1    2  501    0 -0.29032374407E+02  0.40940144627E+02 -0.19074919659E+03  0.19724155294E+03  0.00000000000E+00 0. -1.
<scales pt_clust_5="13000.00000" pt_clust_6="13000.00000" pt_clust_7="13000.00000" pt_clust_8="13000.00000" pt_clust_9="50.18938"></scales>
<clustering>
<clus scale="   50.189">  2  9  1 -1</clus>
<clus scale="   70.066">  5  6 -1 -1</clus>
<clus scale="   92.091">  7  8 -1 -1</clus>
<clus scale="  113.852">  2  5  1 -1</clus>
<clus scale="   50.189">  2  5  1 -1</clus>
</clustering>
</event>
<event>
 9    1  0.5981539E-005  0.9319554E+02  0.7546771E-02  0.1302905E+00
          1   -1    0    0  502    0 -0.00000000000E+00  0.00000000000E+00  0.30677569773E+03  0.30677569773E+03  0.00000000000E+00 0. -1.
         21   -1    0    0  501  502  0.00000000000E+00 -0.00000000000E+00 -0.10537626710E+03  0.10537626710E+03  0.00000000000E+00 0.  1.
         23    2    1    2    0    0  0.14474933876E+02  0.14158729983E+02  0.25995244216E+03  0.27646298206E+03  0.91904923257E+02 0.  0.
        -24    2    1    2    0    0  0.15228814885E+02  0.12374909608E+02 -0.32458041889E+02  0.88072870353E+02  0.79487425536E+02 0.  0.
         11    1    4    4    0    0  0.12815181952E+02 -0.33061884328E+02 -0.20773478791E+02  0.41095675014E+02  0.00000000000E+00 0. -1.
        -12    1    4    4    0    0  0.24136329327E+01  0.45436793936E+02 -0.11684563098E+02  0.46977195339E+02  0.00000000000E+00 0.  1.
        -13    1    3    3    0    0  0.70944357283E+01 -0.38763762925E+02  0.13321546266E+03  0.13892199187E+03  0.00000000000E+00 0. -1.
         13    1    3    3    0    0  0.73804981475E+01  0.52922492908E+02  0.12673697950E+03  0.13754099019E+03  0.00000000000E+00 0.  1.
          2    1    1    2  501    0 -0.29703748761E+02 -0.26533639590E+02 -0.26094969650E+02  0.47616112413E+02  0.00000000000E+00 0. -1.
<scales pt_clust_5="13000.00000" pt_clust_6="13000.00000" pt_clust_7="13000.00000" pt_clust_8="13000.00000" pt_clust_9="39.82897"></scales>
<clustering>
<clus scale="   39.829">  2  9  1 -1</clus>
<clus scale="   79.487">  5  6 -1 -1</clus>
<clus scale="   80.976">  2  5  1 -1</clus>
<clus scale="   91.905">  7  8 -1 -1</clus>
<clus scale="   39.829">  2  5  1 -1</clus>
</clustering>
</event>
<event>
 9    1  0.5981539E-005  0.1923377E+03  0.7546771E-02  0.1180841E+00
         -2   -1    0    0    0  501 -0.00000000000E+00  0.00000000000E+00  0.62259233126E+03  0.62259233126E+03  0.00000000000E+00 0.  1.
         21   -1    0    0  501  502  0.00000000000E+00 -0.00000000000E+00 -0.36767628739E+03  0.36767628739E+03  0.00000000000E+00 0.  1.
        -24    2    1    2    0    0  0.42495747399E+02  0.60203195017E+02  0.27021484734E+03  0.29164706460E+03  0.81311950727E+02 0.  0.
         23    2    1    2    0    0 -0.14686523462E+03  0.75150425254E+02  0.29173129791E+03  0.34722281255E+03  0.90771955055E+02 0.  0.
         13    1    3    3    0    0  0.44588558582E+02 -0.11659419524E+00  0.74366696362E+02  0.86709622756E+02  0.00000000000E+00 0. -1.
        -14    1    3    3    0    0 -0.20928111832E+01  0.60319789212E+02  0.19584815097E+03  0.20493744184E+03  0.00000000000E+00 0.  1.
        -13    1    4    4    0    0 -0.78123250604E+02  0.68565201662E+02  0.10333656744E+03  0.14657037673E+03  0.00000000000E+00 0.  1.
         13    1    4    4    0    0 -0.68741984017E+02  0.65852235922E+01  0.18839473046E+03  0.20065243582E+03  0.00000000000E+00 0. -1.
         -1    1    1    2    0  502  0.10436948722E+03 -0.13535362027E+03 -0.30703010136E+03  0.35139874150E+03  0.00000000000E+00 0.  1.
<scales pt_clust_5="13000.00000" pt_clust_6="13000.00000" pt_clust_7="13000.00000" pt_clust_8="13000.00000" pt_clust_9="169.57079"></scales>
<clustering>
<clus scale="   81.312">  5  6 -1 -1</clus>
<clus scale="   90.772">  7  8 -1 -1</clus>
<clus scale="  109.736">  1  5  2 -1</clus>
<clus scale="  169.571">  2  9  1 -1</clus>
<clus scale="  169.571">  2  5  1 -1</clus>
</clustering>
</event>
<event>
 9    1  0.5981539E-005  0.1889395E+03  0.7546771E-02  0.1160443E+00
          1   -1    0    0  502    0 -0.00000000000E+00  0.00000000000E+00  0.75554624127E+03  0.75554624127E+03  0.00000000000E+00 0. -1.
         21   -1    0    0  501  502  0.00000000000E+00 -0.00000000000E+00 -0.65143953008E+02  0.65143953008E+02  0.00000000000E+00 0.  1.
         23    2    1    2    0    0  0.36906512137E+02 -0.13313178754E+03  0.24135654644E+03  0.29293013661E+03  0.92026729457E+02 0.  0.
        -24    2    1    2    0    0 -0.27000828123E+02  0.19561732574E+03  0.34626692204E+03  0.40707016225E+03  0.82523650236E+02 0.  0.
         11    1    4    4    0    0 -0.41605720669E+01  0.93483066367E+02  0.24145386975E+03  0.25895243824E+03  0.00000000000E+00 0. -1.
        -12    1    4    4    0    0 -0.22840256056E+02  0.10213425937E+03  0.10481305229E+03  0.14811772401E+03  0.00000000000E+00 0.  1.
        -11    1    3    3    0    0 -0.51204908022E+01 -0.10147430217E+03  0.10199229692E+03  0.14396416935E+03  0.00000000000E+00 0. -1.
         11    1    3    3    0    0  0.42027002939E+02 -0.31657485365E+02  0.13936424952E+03  0.14896596726E+03  0.00000000000E+00 0.  1.
          2    1    1    2  501    0 -0.99056840137E+01 -0.62485538200E+02  0.10277881978E+03  0.12068989542E+03  0.00000000000E+00 0. -1.
<scales pt_clust_5="13000.00000" pt_clust_6="13000.00000" pt_clust_7="13000.00000" pt_clust_8="13000.00000" pt_clust_9="63.26586"></scales>
<clustering>
<clus scale="   63.266">  2  9  1 -1</clus>
<clus scale="   82.524">  5  6 -1 -1</clus>
<clus scale="   92.027">  7  8 -1 -1</clus>
<clus scale="  184.498">  2  5  1 -1</clus>
<clus scale="   63.266">  2  5  1 -1</clus>
</clustering>
</event>
<event>
 9    1  0.5981539E-005  0.2268322E+03  0.7546771E-02  0.1130397E+00
         21   -1    0    0  501  502  0.00000000000E+00  0.00000000000E+00  0.41372328718E+03  0.41372328718E+03  0.00000000000E+00 0.  1.
         -4   -1    0    0    0  501 -0.00000000000E+00 -0.00000000000E+00 -0.23165046201E+03  0.23165046201E+03  0.00000000000E+00 0.  1.
         23    2    1    2    0    0 -0.73787334613E+02  0.19727202918E+03 -0.72114791015E+02  0.24435776101E+03  0.10074397270E+03 0.  0.
        -24    2    1    2    0    0  0.43044972271E+02 -0.17150339960E+03  0.28878229888E+03  0.34804517374E+03  0.80460804749E+02 0.  0.
         11    1    4    4    0    0  0.30006395291E+02 -0.14343603254E+02  0.28911314473E+02  0.44067979500E+02  0.00000000000E+00 0. -1.
        -12    1    4    4    0    0  0.13038576979E+02 -0.15715979635E+03  0.25987098441E+03  0.30397719424E+03  0.00000000000E+00 0.  1.
        -11    1    3    3    0    0 -0.35616214078E+02  0.11751416709E+02  0.85865474321E+01  0.38475177670E+02  0.00000000000E+00 0. -1.
         11    1    3    3    0    0 -0.38171120535E+02  0.18552061247E+03 -0.80701338447E+02  0.20588258334E+03  0.00000000000E+00 0.  1.
         -3    1    1    2    0  502  0.30742362342E+02 -0.25768629576E+02 -0.34594682700E+02  0.52970814453E+02  0.00000000000E+00 0.  1.
<scales pt_clust_5="13000.00000" pt_clust_6="13000.00000" pt_clust_7="13000.00000" pt_clust_8="13000.00000" pt_clust_9="40.11380"></scales>
<clustering>
<clus scale="   40.114">  1  9  2 -1</clus>
<clus scale="   80.461">  5  6 -1 -1</clus>
<clus scale="  100.744">  7  8 -1 -1</clus>
<clus scale="  218.580">  1  5  2 -1</clus>
<clus scale="   40.114">  1  5  2 -1</clus>
</clustering>
</event>
<event>
 9    1  0.5981539E-005  0.1013081E+03  0.7546771E-02  0.1283391E+00
         21   -1    0    0  501  502  0.00000000000E+00  0.00000000000E+00  0.28575749641E+03  0.28575749641E+03  0.00000000000E+00 0. -1.
          1   -1    0    0  502    0 -0.00000000000E+00 -0.00000000000E+00 -0.57795920802E+02  0.57795920802E+02  0.00000000000E+00 0. -1.
        -24    2    1    2    0    0  0.47643960227E+02  0.36919461070E+02  0.50467222089E+02  0.11219867102E+03  0.80053780185E+02 0.  0.
         23    2    1    2    0    0  0.39041549891E+01 -0.23366521708E+02  0.11908541218E+03  0.15228202791E+03  0.91908888947E+02 0.  0.
         13    1    3    3    0    0  0.48536617556E+02  0.50946767239E+02  0.62179768343E+02  0.93902608734E+02  0.00000000000E+00 0. -1.
        -14    1    3    3    0    0 -0.89265732932E+00 -0.14027306169E+02 -0.11712546254E+02  0.18296062287E+02  0.00000000000E+00 0.  1.
        -11    1    4    4    0    0  0.73567422008E+01  0.27190599636E+02  0.66324403986E+01  0.28938549204E+02  0.00000000000E+00 0.  1.
         11    1    4    4    0    0 -0.34525872117E+01 -0.50557121344E+02  0.11245297178E+03  0.12334347870E+03  0.00000000000E+00 0. -1.
          2    1    1    2  501    0 -0.51548115216E+02 -0.13552939363E+02  0.58408941340E+02  0.79072718279E+02  0.00000000000E+00 0. -1.
<scales pt_clust_5="13000.00000" pt_clust_6="13000.00000" pt_clust_7="13000.00000" pt_clust_8="13000.00000" pt_clust_9="53.30000"></scales>
<clustering>
<clus scale="   53.300">  1  9  2 -1</clus>
<clus scale="   80.054">  5  6 -1 -1</clus>
<clus scale="   90.690">  2  5  1 -1</clus>
<clus scale="   91.909">  7  8 -1 -1</clus>
<clus scale="   53.300">  1  5  2 -1</clus>
</clustering>
</event>
<event>
 9    1  0.5981539E-005  0.3065224E+03  0.7546771E-02  0.1120383E+00
         21   -1    0    0  501  502  0.00000000000E+00  0.00000000000E+00  0.28019193970E+03  0.28019193970E+03  0.00000000000E+00 0. -1.
          1   -1    0    0  502    0 -0.00000000000E+00 -0.00000000000E+00 -0.48735262297E+03  0.48735262297E+03  0.00000000000E+00 0. -1.
         23    2    1    2    0    0 -0.24748844363E+02  0.62746804894E+02 -0.49228113989E+02  0.12372797116E+03  0.91299161108E+02 0.  0.
        -24    2    1    2    0    0 -0.28252183296E+03  0.23015597536E+02 -0.16706051667E+02  0.29493926623E+03  0.79760734532E+02 0.  0.
         13    1    4    4    0    0 -0.26759734353E+03  0.36910067233E+02 -0.25979054706E+01  0.27014337016E+03  0.00000000000E+00 0. -1.
        -14    1    4    4    0    0 -0.14924489428E+02 -0.13894469697E+02 -0.14108146196E+02  0.24795896070E+02  0.00000000000E+00 0.  1.
        -11    1    3    3    0    0 -0.22366950439E+02  0.12709851478E+02  0.23882197050E+02  0.35102423456E+02  0.00000000000E+00 0.  1.
         11    1    3    3    0    0 -0.23818939236E+01  0.50036953416E+02 -0.73110311039E+02  0.88625547705E+02  0.00000000000E+00 0. -1.
          2    1    1    2  501    0  0.30727067732E+03 -0.85762402430E+02 -0.14122651762E+03  0.34887732528E+03  0.00000000000E+00 0. -1.
<scales pt_clust_5="13000.00000" pt_clust_6="13000.00000" pt_clust_7="13000.00000" pt_clust_8="13000.00000" pt_clust_9="295.96328"></scales>
<clustering>
<clus scale="   79.761">  5  6 -1 -1</clus>
<clus scale="   91.299">  7  8 -1 -1</clus>
<clus scale="  113.513">  2  7  1 -1</clus>
<clus scale="  295.963">  1  9  2 -1</clus>
<clus scale="  295.963">  1  5  2 -1</clus>
</clustering>
</event>
<event>
 9    1  0.5981539E-005  0.1322949E+03  0.7546771E-02  0.1224478E+00
         21   -1    0    0  501  502  0.00000000000E+00  0.00000000000E+00  0.19323023622E+03  0.19323023622E+03  0.00000000000E+00 0.  1.
          1   -1    0    0  502    0 -0.00000000000E+00 -0.00000000000E+00 -0.19337570451E+03  0.19337570451E+03  0.00000000000E+00 0. -1.
        -24    2    1    2    0    0  0.11121351424E+03  0.14486098129E+01 -0.59029320366E+02  0.15397995460E+03  0.88627431060E+02 0.  0.
         23    2    1    2    0    0 -0.56396185437E+02  0.35433375753E+02  0.10375149427E+03  0.15276156530E+03  0.90197945763E+02 0.  0.
         13    1    3    3    0    0  0.70889837310E+02  0.31498540741E+02 -0.67686145055E+02  0.10295115995E+03  0.00000000000E+00 0. -1.
        -14    1    3    3    0    0  0.40323676935E+02 -0.30049930928E+02  0.86568246890E+01  0.51028794656E+02  0.00000000000E+00 0.  1.
        -13    1    4    4    0    0  0.20250132831E+02  0.14057018964E+02  0.52811657169E+02  0.58281547635E+02  0.00000000000E+00 0.  1.
         13    1    4    4    0    0 -0.76646318268E+02  0.21376356789E+02  0.50939837102E+02  0.94480017663E+02  0.00000000000E+00 0. -1.
          2    1    1    2  501    0 -0.54817328807E+02 -0.36881985566E+02 -0.44867642198E+02  0.79864420822E+02  0.00000000000E+00 0. -1.
<scales pt_clust_5="13000.00000" pt_clust_6="13000.00000" pt_clust_7="13000.00000" pt_clust_8="13000.00000" pt_clust_9="66.06985"></scales>
<clustering>
<clus scale="   66.070">  1  9  2 -1</clus>
<clus scale="   88.627">  5  6 -1 -1</clus>
<clus scale="   90.198">  7  8 -1 -1</clus>
<clus scale="  131.229">  2  5  1 -1</clus>
<clus scale="   66.070">  1  5  2 -1</clus>
</clustering>
</event>
<event>
 9    1  0.5981539E-005  0.1377486E+03  0.7546771E-02  0.1218768E+00
          3   -1    0    0  502    0 -0.00000000000E+00  0.00000000000E+00  0.25037992658E+03  0.25037992658E+03  0.00000000000E+00 0. -1.
         21   -1    0    0  501  502  0.00000000000E+00 -0.00000000000E+00 -0.23193829595E+03  0.23193829595E+03  0.00000000000E+00 0.  1.
         23    2    1    2    0    0 -0.50906569466E+02  0.86735096411E+02  0.19595539623E+03  0.23881588387E+03  0.92304134853E+02 0.  0.
        -24    2    1    2    0    0  0.70800561676E+02 -0.94334514693E+02 -0.16524809708E+03  0.21892656383E+03  0.81915728440E+02 0.  0.
         11    1    4    4    0    0  0.85120847131E+02 -0.61038200730E+02 -0.10304322177E+03  0.14693238621E+03  0.00000000000E+00 0. -1.
        -12    1    4    4    0    0 -0.14320285454E+02 -0.33296313963E+02 -0.62204875302E+02  0.71994177615E+02  0.00000000000E+00 0.  1.
        -13    1    3    3    0    0 -0.39508662410E+01  0.89387446607E+02  0.12768811244E+03  0.15591657710E+03  0.00000000000E+00 0. -1.
         13    1    3    3    0    0 -0.46955703225E+02 -0.26523501959E+01  0.68267283791E+02  0.82899306771E+02  0.00000000000E+00 0.  1.
          4    1    1    2  501    0 -0.19893992210E+02  0.75994182820E+01 -0.12265668527E+02  0.24575774834E+02  0.00000000000E+00 0. -1.
<scales pt_clust_5="13000.00000" pt_clust_6="13000.00000" pt_clust_7="13000.00000" pt_clust_8="13000.00000" pt_clust_9="21.29606"></scales>
<clustering>
<clus scale="   21.296">  2  9  1 -1</clus>
<clus scale="   81.916">  5  6 -1 -1</clus>
<clus scale="   92.304">  7  8 -1 -1</clus>
<clus scale="  131.015">  2  5  1 -1</clus>
<clus scale="   21.296">  2  5  1 -1</clus>
</clustering>
</event>
<event>
 9    1  0.5981539E-005  0.1114966E+03  0.7546771E-02  0.1262012E+00
          1   -1    0    0  502    0 -0.00000000000E+00  0.00000000000E+00  0.83625092988E+03  0.83625092988E+03  0.00000000000E+00 0. -1.
         21   -1    0    0  501  502  0.00000000000E+00 -0.00000000000E+00 -0.23529282726E+02  0.23529282726E+02  0.00000000000E+00 0.  1.
         23    2    1    2    0    0 -0.66291475835E+02  0.56331641288E+01  0.55391432659E+03  0.56571391843E+03  0.93727605340E+02 0.  0.
        -24    2    1    2    0    0  0.41253859093E+02 -0.22434548266E+02  0.12694202416E+03  0.15879757954E+03  0.83049406532E+02 0.  0.
         13    1    4    4    0    0  0.41472618457E+02 -0.26499008484E+02  0.13826616960E+03  0.14676412773E+03  0.00000000000E+00 0. -1.
        -14    1    4    4    0    0 -0.21875936404E+00  0.40644602189E+01 -0.11324145442E+02  0.12033451813E+02  0.00000000000E+00 0.  1.
        -11    1    3    3    0    0 -0.70371841453E+02 -0.31410696676E+02  0.34508121383E+03  0.35358149283E+03  0.00000000000E+00 0.  1.
         11    1    3    3    0    0  0.40803656184E+01  0.37043860805E+02  0.20883311276E+03  0.21213242560E+03  0.00000000000E+00 0. -1.
          2    1    1    2  501    0  0.25037616742E+02  0.16801384137E+02  0.13186529640E+03  0.13526871462E+03  0.00000000000E+00 0. -1.
<scales pt_clust_5="13000.00000" pt_clust_6="13000.00000" pt_clust_7="13000.00000" pt_clust_8="13000.00000" pt_clust_9="30.15244"></scales>
<clustering>
<clus scale="   30.152">  2  9  1 -1</clus>
<clus scale="   83.049">  5  6 -1 -1</clus>
<clus scale="   93.728">  7  8 -1 -1</clus>
<clus scale="  102.683">  2  5  1 -1</clus>
<clus scale="   30.152">  2  5  1 -1</clus>
</clustering>
</event>
<event>
 9    1  0.5981539E-005  0.9640214E+02  0.7546771E-02  0.1301977E+00
         21   -1    0    0  501  502  0.00000000000E+00  0.00000000000E+00  0.48461896604E+02  0.48461896604E+02  0.00000000000E+00 0. -1.
          1   -1    0    0  502    0 -0.00000000000E+00 -0.00000000000E+00 -0.34086300698E+03  0.34086300698E+03  0.00000000000E+00 0. -1.
         23    2    1    2    0    0 -0.36365335753E+02  0.15541808112E+02 -0.23573320769E+03  0.25575481865E+03  0.90974703136E+02 0.  0.
        -24    2    1    2    0    0  0.22784578459E+01 -0.99309933356E+01 -0.95300144538E+00  0.68014408535E+02  0.67240133535E+02 0.  0.
         13    1    4    4    0    0 -0.13954385793E+02 -0.31176952839E+02 -0.15573991841E+02  0.37540331552E+02  0.00000000000E+00 0. -1.
        -14    1    4    4    0    0  0.16232843639E+02  0.21245959503E+02  0.14620990396E+02  0.30474076983E+02  0.00000000000E+00 0.  1.
        -13    1    3    3    0    0 -0.12198304158E+02  0.51409333526E+02 -0.16053303968E+03  0.16900465978E+03  0.00000000000E+00 0. -1.
         13    1    3    3    0    0 -0.24167031595E+02 -0.35867525414E+02 -0.75200168011E+02  0.86750158872E+02  0.00000000000E+00 0.  1.
          2    1    1    2  501    0  0.34086877907E+02 -0.56108147763E+01 -0.55714901245E+02  0.65555676403E+02  0.00000000000E+00 0. -1.
<scales pt_clust_5="13000.00000" pt_clust_6="13000.00000" pt_clust_7="13000.00000" pt_clust_8="13000.00000" pt_clust_9="34.54559"></scales>
<clustering>
<clus scale="   34.546">  1  9  2 -1</clus>
<clus scale="   67.240">  5  6 -1 -1</clus>
<clus scale="   74.419">  1  5  2 -1</clus>
<clus scale="   90.975">  7  8 -1 -1</clus>
<clus scale="   34.546">  1  5  2 -1</clus>
</clustering>
</event>
<event>
 9    1  0.5981539E-005  0.4037108E+03  0.7546771E-02  0.1079704E+00
          1   -1    0    0  502    0 -0.00000000000E+00  0.00000000000E+00  0.19211071058E+04  0.19211071058E+04  0.00000000000E+00 0. -1.
         21   -1    0    0  501  502  0.00000000000E+00 -0.00000000000E+00 -0.18892876932E+03  0.18892876932E+03  0.00000000000E+00 0.  1.
         23    2    1    2    0    0  0.10598294701E+03  0.28940681277E+02  0.47993900932E+03  0.50073436923E+03  0.91233260245E+02 0.  0.
        -24    2    1    2    0    0  0.16820915751E+03  0.34163823091E+03  0.15441876764E+03  0.41862101926E+03  0.79921214178E+02 0.  0.
         11    1    4    4    0    0  0.66539612912E+01  0.67498810915E+02  0.48011012894E+02  0.83098869035E+02  0.00000000000E+00 0. -1.
        -12    1    4    4    0    0  0.16155519622E+03  0.27413942000E+03  0.10640775475E+03  0.33552215023E+03  0.00000000000E+00 0.  1.
        -13    1    3    3    0    0  0.10799491917E+03 -0.53832948740E+01  0.37738173218E+03  0.39256700602E+03  0.00000000000E+00 0.  1.
         13    1    3    3    0    0 -0.20119721592E+01  0.34323976151E+02  0.10255727713E+03  0.10816736321E+03  0.00000000000E+00 0. -1.
          2    1    1    2  501    0 -0.27419210452E+03 -0.37057891219E+03  0.10978205595E+04  0.11906804866E+04  0.00000000000E+00 0. -1.
<scales pt_clust_5="13000.00000" pt_clust_6="13000.00000" pt_clust_7="13000.00000" pt_clust_8="13000.00000" pt_clust_9="395.72109"></scales>
<clustering>
<clus scale="   79.921">  5  6 -1 -1</clus>
<clus scale="   91.233">  7  8 -1 -1</clus>
<clus scale="  142.806">  1  7  2 -1</clus>
<clus scale="  395.721">  2  9  1 -1</clus>
<clus scale="  395.721">  2  5  1 -1</clus>
</clustering>
</event>
<event>
 9    1  0.5981539E-005  0.1175744E+03  0.7546771E-02  0.1251098E+00
         -4   -1    0    0    0  501 -0.00000000000E+00  0.00000000000E+00  0.49947281240E+03  0.49947281240E+03  0.00000000000E+00 0.  1.
         21   -1    0    0  501  502  0.00000000000E+00 -0.00000000000E+00 -0.73048782347E+02  0.73048782347E+02  0.00000000000E+00 0.  1.
         23    2    1    2    0    0  0.24292777424E+02  0.48737773831E+02  0.24683630817E+03  0.26883454037E+03  0.91533258615E+02 0.  0.
        -24    2    1    2    0    0 -0.41972428889E+02 -0.12981707688E+03  0.14250445027E+03  0.21279375159E+03  0.79746499180E+02 0.  0.
         13    1    4    4    0    0 -0.39257292184E+02 -0.55496811542E+02  0.22484723026E+02  0.71600236385E+02  0.00000000000E+00 0. -1.
        -14    1    4    4    0    0 -0.27151367051E+01 -0.74320265335E+02  0.12001972725E+03  0.14119351520E+03  0.00000000000E+00 0.  1.
        -11    1    3    3    0    0  0.48324053044E+02  0.62210768766E+02  0.17577173765E+03  0.19261645207E+03  0.00000000000E+00 0. -1.
         11    1    3    3    0    0 -0.24031275620E+02 -0.13472994936E+02  0.71064570525E+02  0.76218088302E+02  0.00000000000E+00 0.  1.
         -3    1    1    2    0  502  0.17679651465E+02  0.81079303046E+02  0.37083271609E+02  0.90893302787E+02  0.00000000000E+00 0.  1.
<scales pt_clust_5="13000.00000" pt_clust_6="13000.00000" pt_clust_7="13000.00000" pt_clust_8="13000.00000" pt_clust_9="82.98448"></scales>
<clustering>
<clus scale="   79.746">  5  6 -1 -1</clus>
<clus scale="   82.984">  2  9  1 -1</clus>
<clus scale="   91.533">  7  8 -1 -1</clus>
<clus scale="  108.650">  2  5  1 -1</clus>
<clus scale="   82.984">  2  5  1 -1</clus>
</clustering>
</event>
<event>
 9    1  0.5981539E-005  0.1308394E+03  0.7546771E-02  0.1228800E+00
          3   -1    0    0  502    0 -0.00000000000E+00  0.00000000000E+00  0.31137876630E+03  0.31137876630E+03  0.00000000000E+00 0. -1.
         21   -1    0    0  501  502  0.00000000000E+00 -0.00000000000E+00 -0.13305484038E+03  0.13305484038E+03  0.00000000000E+00 0.  1.
        -24    2    1    2    0    0 -0.53683168891E+02 -0.82116045648E+02  0.18648439728E+03  0.22566169059E+03  0.80757913528E+02 0.  0.
         23    2    1    2    0    0 -0.18251323871E+02  0.97367920192E+02 -0.37538061209E+02  0.13958710876E+03  0.90894621331E+02 0.  0.
         13    1    3    3    0    0 -0.62674037604E+02 -0.67350334412E+02  0.18695709751E+03  0.20836760507E+03  0.00000000000E+00 0. -1.
        -14    1    3    3    0    0  0.89908687136E+01 -0.14765711235E+02 -0.47270022731E+00  0.17294085521E+02  0.00000000000E+00 0.  1.
        -13    1    4    4    0    0  0.26067566590E+02  0.58185368562E+02 -0.47619618353E+02  0.79578157774E+02  0.00000000000E+00 0.  1.
         13    1    4    4    0    0 -0.44318890461E+02  0.39182551631E+02  0.10081557144E+02  0.60008950986E+02  0.00000000000E+00 0. -1.
          4    1    1    2  501    0  0.71934492762E+02 -0.15251874545E+02  0.29377589845E+02  0.79184807325E+02  0.00000000000E+00 0. -1.
<scales pt_clust_5="13000.00000" pt_clust_6="13000.00000" pt_clust_7="13000.00000" pt_clust_8="13000.00000" pt_clust_9="73.53360"></scales>
<clustering>
<clus scale="   73.534">  2  9  1 -1</clus>
<clus scale="   80.758">  5  6 -1 -1</clus>
<clus scale="   90.895">  7  8 -1 -1</clus>
<clus scale="  124.012">  1  5  2 -1</clus>
<clus scale="   73.534">  2  5  1 -1</clus>
</clustering>
</event>
<event>
 9    1  0.5981539E-005  0.9730387E+02  0.7546771E-02  0.1288403E+00
         21   -1    0    0  501  502  0.00000000000E+00  0.00000000000E+00  0.25778042947E+03  0.25778042947E+03  0.00000000000E+00 0. -1.
          1   -1    0    0  502    0 -0.00000000000E+00 -0.00000000000E+00 -0.24717679322E+03  0.24717679322E+03  0.00000000000E+00 0. -1.
        -24    2    1    2    0    0 -0.18376111928E+02 -0.30973856698E+02 -0.20112959518E+03  0.22198154876E+03  0.86750404274E+02 0.  0.
         23    2    1    2    0    0 -0.27035175475E+02  0.33404353865E+02  0.45485783766E+02  0.11062049937E+03  0.91220539276E+02 0.  0.
         13    1    3    3    0    0 -0.24900361361E+02 -0.57548962769E+02 -0.16602424056E+03  0.17747101049E+03  0.00000000000E+00 0. -1.
        -14    1    3    3    0    0  0.65242494332E+01  0.26575106071E+02 -0.35105354622E+02  0.44510538264E+02  0.00000000000E+00 0.  1.
        -13    1    4    4    0    0  0.18947827221E+02 -0.21704590760E+02  0.16606390713E+02  0.33254798586E+02  0.00000000000E+00 0.  1.
         13    1    4    4    0    0 -0.45983002697E+02  0.55108944625E+02  0.28879393054E+02  0.77365700784E+02  0.00000000000E+00 0. -1.
          2    1    1    2  501    0  0.45411287403E+02 -0.24304971666E+01  0.16624744768E+03  0.17235517456E+03  0.00000000000E+00 0. -1.
<scales pt_clust_5="13000.00000" pt_clust_6="13000.00000" pt_clust_7="13000.00000" pt_clust_8="13000.00000" pt_clust_9="45.47628"></scales>
<clustering>
<clus scale="   45.476">  1  9  2 -1</clus>
<clus scale="   86.750">  5  6 -1 -1</clus>
<clus scale="   91.221">  7  8 -1 -1</clus>
<clus scale="   93.126">  2  5  1 -1</clus>
<clus scale="   45.476">  1  5  2 -1</clus>
</clustering>
</event>
<event>
 9    1  0.5981539E-005  0.1573756E+03  0.7546771E-02  0.1205796E+00
          1   -1    0    0  502    0 -0.00000000000E+00  0.00000000000E+00  0.82842785983E+03  0.82842785983E+03  0.00000000000E+00 0. -1.
         21   -1    0    0  501  502  0.00000000000E+00 -0.00000000000E+00 -0.76145120755E+02  0.76145120755E+02  0.00000000000E+00 0.  1.
        -24    2    1    2    0    0 -0.77420950549E+02 -0.32554588812E+02  0.24981101388E+02  0.11843832899E+03  0.79685491214E+02 0.  0.
         23    2    1    2    0    0 -0.84211348063E+02  0.47361046527E+02  0.38852900148E+03  0.41048703722E+03  0.90610169760E+02 0.  0.
         11    1    3    3    0    0  0.56007425484E+01 -0.20836397166E+02  0.27009361069E+02  0.34569196539E+02  0.00000000000E+00 0. -1.
        -12    1    3    3    0    0 -0.83021693098E+02 -0.11718191646E+02 -0.20282596818E+01  0.83869132448E+02  0.00000000000E+00 0.  1.
        -11    1    4    4    0    0 -0.83711067457E+02  0.23649008044E+01  0.29564410331E+03  0.30727605080E+03  0.00000000000E+00 0. -1.
         11    1    4    4    0    0 -0.50028060584E+00  0.44996145723E+02  0.92884898166E+02  0.10321098642E+03  0.00000000000E+00 0.  1.
          2    1    1    2  501    0  0.16163229861E+03 -0.14806457716E+02  0.33877263622E+03  0.37564761438E+03  0.00000000000E+00 0. -1.
<scales pt_clust_5="13000.00000" pt_clust_6="13000.00000" pt_clust_7="13000.00000" pt_clust_8="13000.00000" pt_clust_9="128.67358"></scales>
<clustering>
<clus scale="   79.685">  5  6 -1 -1</clus>
<clus scale="   90.610">  7  8 -1 -1</clus>
<clus scale="  115.774">  1  5  2 -1</clus>
<clus scale="  128.674">  2  9  1 -1</clus>
<clus scale="  128.674">  2  5  1 -1</clus>
</clustering>
</event>
<event>
 9    1  0.5981539E-005  0.1339232E+03  0.7546771E-02  0.1223328E+00
          1   -1    0    0  502    0 -0.00000000000E+00  0.00000000000E+00  0.57812929339E+02  0.57812929339E+02  0.00000000000E+00 0. -1.
         21   -1    0    0  501  502  0.00000000000E+00 -0.00000000000E+00 -0.70377198808E+03  0.70377198808E+03  0.00000000000E+00 0.  1.
         23    2    1    2    0    0 -0.10616524117E+03 -0.17114421747E+02 -0.10527109890E+03  0.17487720523E+03  0.89084627079E+02 0.  0.
        -24    2    1    2    0    0  0.72709791984E+02 -0.73013315875E+01 -0.53340383960E+03  0.54465471588E+03  0.82395874487E+02 0.  0.
         13    1    4    4    0    0  0.67586033072E+01  0.27792925284E+02 -0.76277761670E+02  0.81464239639E+02  0.00000000000E+00 0. -1.
        -14    1    4    4    0    0  0.65951188677E+02 -0.35094256872E+02 -0.45712607793E+03  0.46319047624E+03  0.00000000000E+00 0.  1.
        -11    1    3    3    0    0 -0.30708177129E+02 -0.48873567824E+02 -0.45933731438E+02  0.73766696132E+02  0.00000000000E+00 0. -1.
         11    1    3    3    0    0 -0.75457064037E+02  0.31759146077E+02 -0.59337367467E+02  0.10111050910E+03  0.00000000000E+00 0.  1.
          2    1    1    2  501    0  0.33455449182E+02  0.24415753334E+02 -0.72841202335E+01  0.42052996308E+02  0.00000000000E+00 0. -1.
<scales pt_clust_5="13000.00000" pt_clust_6="13000.00000" pt_clust_7="13000.00000" pt_clust_8="13000.00000" pt_clust_9="41.41736"></scales>
<clustering>
<clus scale="   41.417">  2  9  1 -1</clus>
<clus scale="   82.396">  5  6 -1 -1</clus>
<clus scale="   89.085">  7  8 -1 -1</clus>
<clus scale="  129.570">  2  5  1 -1</clus>
<clus scale="   41.417">  2  5  1 -1</clus>
</clustering>
</event>
<event>
 9    1  0.5981539E-005  0.1100502E+03  0.7546771E-02  0.1274167E+00
          1   -1    0    0  502    0 -0.00000000000E+00  0.00000000000E+00  0.26487033863E+03  0.26487033863E+03  0.00000000000E+00 0. -1.
         21   -1    0    0  501  502  0.00000000000E+00 -0.00000000000E+00 -0.72142613369E+02  0.72142613369E+02  0.00000000000E+00 0.  1.
        -24    2    1    2    0    0  0.28648674208E+02 -0.18190701196E+02  0.10477899309E+03  0.13663490281E+03  0.80862915653E+02 0.  0.
         23    2    1    2    0    0 -0.14290041510E+02 -0.42310435159E+02  0.69599882648E+02  0.13554566445E+03  0.10739695189E+03 0.  0.
         11    1    3    3    0    0 -0.22302024595E+02  0.14961417923E+02  0.34317418314E+02  0.43576479057E+02  0.00000000000E+00 0. -1.
        -12    1    3    3    0    0  0.50950698803E+02 -0.33152119119E+02  0.70461574776E+02  0.93058423749E+02  0.00000000000E+00 0.  1.
        -13    1    4    4    0    0 -0.36051576826E+02 -0.10799693845E+02  0.86009737519E+02  0.93883036417E+02  0.00000000000E+00 0. -1.
         13    1    4    4    0    0  0.21761535316E+02 -0.31510741314E+02 -0.16409854871E+02  0.41662628030E+02  0.00000000000E+00 0.  1.
          2    1    1    2  501    0 -0.14358632698E+02  0.60501136355E+02  0.18348849524E+02  0.64832384747E+02  0.00000000000E+00 0. -1.
<scales pt_clust_5="13000.00000" pt_clust_6="13000.00000" pt_clust_7="13000.00000" pt_clust_8="13000.00000" pt_clust_9="62.18165"></scales>
<clustering>
<clus scale="   62.182">  2  9  1 -1</clus>
<clus scale="   80.863">  5  6 -1 -1</clus>
<clus scale="   84.355">  1  5  2 -1</clus>
<clus scale="  107.397">  7  8 -1 -1</clus>
<clus scale="   62.182">  2  5  1 -1</clus>
</clustering>
</event>
<event>
 9    1  0.5981539E-005  0.1243406E+03  0.7546771E-02  0.1240080E+00
          1   -1    0    0  502    0 -0.00000000000E+00  0.00000000000E+00  0.52091364972E+03  0.52091364972E+03  0.00000000000E+00 0. -1.
         21   -1    0    0  501  502  0.00000000000E+00 -0.00000000000E+00 -0.52310476405E+02  0.52310476405E+02  0.00000000000E+00 0. -1.
         23    2    1    2    0    0  0.23237144930E+01  0.96337723292E+02  0.25072682570E+03  0.28373533330E+03  0.91408104999E+02 0.  0.
        -24    2    1    2    0    0  0.57880279393E+02 -0.58348506360E+02  0.96110985374E+02  0.14844091115E+03  0.77734854840E+02 0.  0.
         11    1    4    4    0    0  0.43323268846E+02 -0.74530360830E+02  0.92383242131E+02  0.12635799830E+03  0.00000000000E+00 0. -1.
        -12    1    4    4    0    0  0.14557010547E+02  0.16181854470E+02  0.37277432435E+01  0.22082912848E+02  0.00000000000E+00 0.  1.
        -11    1    3    3    0    0 -0.39327759324E+02  0.52588089408E+02  0.17469006499E+03  0.18662475346E+03  0.00000000000E+00 0.  1.
         11    1    3    3    0    0  0.41651473817E+02  0.43749633884E+02  0.76036760714E+02  0.97110579836E+02  0.00000000000E+00 0. -1.
          2    1    1    2  501    0 -0.60203993886E+02 -0.37989216932E+02  0.12176536224E+03  0.14104788167E+03  0.00000000000E+00 0. -1.
<scales pt_clust_5="13000.00000" pt_clust_6="13000.00000" pt_clust_7="13000.00000" pt_clust_8="13000.00000" pt_clust_9="71.18783"></scales>
<clustering>
<clus scale="   71.188">  2  9  1 -1</clus>
<clus scale="   77.735">  5  6 -1 -1</clus>
<clus scale="   91.408">  7  8 -1 -1</clus>
<clus scale="  114.664">  2  5  1 -1</clus>
<clus scale="   71.188">  2  5  1 -1</clus>
</clustering>
</event>
<event>
 9    1  0.5981539E-005  0.1489086E+03  0.7546771E-02  0.1223004E+00
         -2   -1    0    0    0  501 -0.00000000000E+00  0.00000000000E+00  0.33258070491E+03  0.33258070491E+03  0.00000000000E+00 0.  1.
         21   -1    0    0  501  502  0.00000000000E+00 -0.00000000000E+00 -0.16888998765E+03  0.16888998765E+03  0.00000000000E+00 0.  1.
         23    2    1    2    0    0 -0.72701662599E+01 -0.51337962754E+01  0.20039433201E+03  0.22172814498E+03  0.94478943649E+02 0.  0.
        -24    2    1    2    0    0 -0.76131836088E+02  0.93187161468E+02  0.12233655195E+02  0.14895972949E+03  0.86945012280E+02 0.  0.
         11    1    4    4    0    0 -0.52729643281E+01  0.46755331629E+02 -0.28446285291E+02  0.54982327483E+02  0.00000000000E+00 0. -1.
        -12    1    4    4    0    0 -0.70858871760E+02  0.46431829839E+02  0.40679940486E+02  0.93977402003E+02  0.00000000000E+00 0.  1.
        -13    1    3    3    0    0 -0.25831366323E+02 -0.23619551724E+02  0.19055823668E+03  0.19374618519E+03  0.00000000000E+00 0.  1.
         13    1    3    3    0    0  0.18561200063E+02  0.18485755448E+02  0.98360953299E+01  0.27981959789E+02  0.00000000000E+00 0. -1.
         -1    1    1    2    0  502  0.83402002348E+02 -0.88053365193E+02 -0.48937269948E+02  0.13078281809E+03  0.00000000000E+00 0.  1.
<scales pt_clust_5="13000.00000" pt_clust_6="13000.00000" pt_clust_7="13000.00000" pt_clust_8="13000.00000" pt_clust_9="120.88982"></scales>
<clustering>
<clus scale="   86.945">  5  6 -1 -1</clus>
<clus scale="   94.479">  7  8 -1 -1</clus>
<clus scale="   94.897">  1  7  2 -1</clus>
<clus scale="  120.890">  2  9  1 -1</clus>
<clus scale="  120.890">  2  5  1 -1</clus>
</clustering>
</event>
<event>
 9    1  0.5981539E-005  0.9710290E+02  0.7546771E-02  0.1288129E+00
         21   -1    0    0  501  502  0.00000000000E+00  0.00000000000E+00  0.21375249075E+03  0.21375249075E+03  0.00000000000E+00 0.  1.
          1   -1    0    0  502    0 -0.00000000000E+00 -0.00000000000E+00 -0.84389455074E+02  0.84389455074E+02  0.00000000000E+00 0. -1.
        -24    2    1    2    0    0  0.58856572603E+02 -0.13242340560E+02  0.64933265359E+02  0.11979104234E+03  0.80586035720E+02 0.  0.
         23    2    1    2    0    0 -0.17838663876E+02  0.46071423505E+02  0.77172285100E+02  0.12428992674E+03  0.83973985901E+02 0.  0.
         11    1    3    3    0    0  0.30697478298E+02  0.16616655341E+02 -0.82651246017E+01  0.35871446768E+02  0.00000000000E+00 0. -1.
        -12    1    3    3    0    0  0.28159094305E+02 -0.29858995901E+02  0.73198389961E+02  0.83919595573E+02  0.00000000000E+00 0.  1.
        -13    1    4    4    0    0  0.29942884477E+02  0.38925805903E+02  0.38203728980E+02  0.62219929315E+02  0.00000000000E+00 0.  1.
         13    1    4    4    0    0 -0.47781548353E+02  0.71456176023E+01  0.38968556120E+02  0.62069997422E+02  0.00000000000E+00 0. -1.
          2    1    1    2  501    0 -0.41017908727E+02 -0.32829082945E+02 -0.12742514786E+02  0.54060976743E+02  0.00000000000E+00 0. -1.
<scales pt_clust_5="13000.00000" pt_clust_6="13000.00000" pt_clust_7="13000.00000" pt_clust_8="13000.00000" pt_clust_9="52.53780"></scales>
<clustering>
<clus scale="   52.538">  1  9  2 -1</clus>
<clus scale="   80.586">  5  6 -1 -1</clus>
<clus scale="   83.974">  7  8 -1 -1</clus>
<clus scale="   94.188">  2  5  1 -1</clus>
<clus scale="   52.538">  1  5  2 -1</clus>
</clustering>
</event>
<event>
 9    1  0.5981539E-005  0.1584824E+03  0.7546771E-02  0.1191698E+00
         21   -1    0    0  501  502  0.00000000000E+00  0.00000000000E+00  0.10830080957E+04  0.10830080957E+04  0.00000000000E+00 0. -1.
          1   -1    0    0  502    0 -0.00000000000E+00 -0.00000000000E+00 -0.57445418165E+02  0.57445418165E+02  0.00000000000E+00 0. -1.
         23    2    1    2    0    0  0.49872914531E+02 -0.12544308349E+03  0.10340543885E+03  0.19253605816E+03  0.90300465726E+02 0.  0.
        -24    2    1    2    0    0  0.19258434281E+02  0.12356697044E+03  0.59723977311E+03  0.61572169621E+03  0.82329685564E+02 0.  0.
         13    1    4    4    0    0  0.34106070643E+02  0.12899792268E+03  0.51711435028E+03  0.53405143889E+03  0.00000000000E+00 0. -1.
        -14    1    4    4    0    0 -0.14847636362E+02 -0.54309522406E+01  0.80125422830E+02  0.81670257325E+02  0.00000000000E+00 0.  1.
        -11    1    3    3    0    0 -0.22478335968E+02 -0.56875022075E+02  0.52548253236E+02  0.80631027788E+02  0.00000000000E+00 0.  1.
         11    1    3    3    0    0  0.72351250498E+02 -0.68568061412E+02  0.50857185609E+02  0.11190503037E+03  0.00000000000E+00 0. -1.
          2    1    1    2  501    0 -0.69131348812E+02  0.18761130476E+01  0.32491746559E+03  0.33219575951E+03  0.00000000000E+00 0. -1.
<scales pt_clust_5="13000.00000" pt_clust_6="13000.00000" pt_clust_7="13000.00000" pt_clust_8="13000.00000" pt_clust_9="69.15680"></scales>
<clustering>
<clus scale="   69.157">  1  9  2 -1</clus>
<clus scale="   82.330">  5  6 -1 -1</clus>
<clus scale="   90.300">  7  8 -1 -1</clus>
<clus scale="  154.080">  1  5  2 -1</clus>
<clus scale="   69.157">  1  5  2 -1</clus>
</clustering>
</event>
<event>
 9    1  0.5981539E-005  0.1078215E+03  0.7546771E-02  0.1269549E+00
          1   -1    0    0  502    0 -0.00000000000E+00  0.00000000000E+00  0.23205776553E+03  0.23205776553E+03  0.00000000000E+00 0. -1.
         21   -1    0    0  501  502  0.00000000000E+00 -0.00000000000E+00 -0.99460641993E+02  0.99460641993E+02  0.00000000000E+00 0.  1.
        -24    2    1    2    0    0  0.31564713343E+02 -0.64016602629E+02  0.13933555936E+03  0.17556115976E+03  0.79453547266E+02 0.  0.
         23    2    1    2    0    0  0.52049860823E+01  0.17148281835E+02 -0.19563591526E+02  0.95021749832E+02  0.91242771646E+02 0.  0.
         13    1    3    3    0    0  0.13266840636E+02  0.15246898176E+02  0.94665825983E+01  0.22318000595E+02  0.00000000000E+00 0. -1.
        -14    1    3    3    0    0  0.18297872707E+02 -0.79263500805E+02  0.12986897676E+03  0.15324315916E+03  0.00000000000E+00 0.  1.
        -13    1    4    4    0    0  0.19612971428E+02 -0.11112363858E+02 -0.47611684581E+02  0.52678513527E+02  0.00000000000E+00 0.  1.
         13    1    4    4    0    0 -0.14407985345E+02  0.28260645694E+02  0.28048093055E+02  0.42343236305E+02  0.00000000000E+00 0. -1.
          2    1    1    2  501    0 -0.36769699425E+02  0.46868320794E+02  0.12825155708E+02  0.60935497936E+02  0.00000000000E+00 0. -1.
<scales pt_clust_5="13000.00000" pt_clust_6="13000.00000" pt_clust_7="13000.00000" pt_clust_8="13000.00000" pt_clust_9="59.57055"></scales>
<clustering>
<clus scale="   59.571">  2  9  1 -1</clus>
<clus scale="   79.454">  5  6 -1 -1</clus>
<clus scale="   91.243">  7  8 -1 -1</clus>
<clus scale="   98.046">  1  5  2 -1</clus>
<clus scale="   59.571">  2  5  1 -1</clus>
</clustering>
</event>
<event>
 9    1  0.5981539E-005  0.1312827E+03  0.7546771E-02  0.1228619E+00
         21   -1    0    0  501  502  0.00000000000E+00  0.00000000000E+00  0.10904543108E+03  0.10904543108E+03  0.00000000000E+00 0. -1.
          1   -1    0    0  502    0 -0.00000000000E+00 -0.00000000000E+00 -0.35571412805E+03  0.35571412805E+03  0.00000000000E+00 0. -1.
         23    2    1    2    0    0 -0.79812037253E+02 -0.13414900084E+01 -0.11907019777E+03  0.17040606991E+03  0.92134444039E+02 0.  0.
        -24    2    1    2    0    0  0.11276071130E+03  0.89104089649E+02 -0.48208543010E+02  0.17150946551E+03  0.80230395344E+02 0.  0.
         11    1    4    4    0    0  0.12428854665E+03  0.80804801894E+02 -0.51484243881E+02  0.15693210699E+03  0.00000000000E+00 0. -1.
        -12    1    4    4    0    0 -0.11527835354E+02  0.82992877547E+01  0.32757008717E+01  0.14577358519E+02  0.00000000000E+00 0.  1.
        -11    1    3    3    0    0 -0.53437416723E+02  0.23624867757E+02 -0.15202470477E+02  0.60372236924E+02  0.00000000000E+00 0. -1.
         11    1    3    3    0    0 -0.26374620530E+02 -0.24966357766E+02 -0.10386772729E+03  0.11003383298E+03  0.00000000000E+00 0.  1.
          2    1    1    2  501    0 -0.32948674042E+02 -0.87762599640E+02 -0.79389956190E+02  0.12284402371E+03  0.00000000000E+00 0. -1.
<scales pt_clust_5="13000.00000" pt_clust_6="13000.00000" pt_clust_7="13000.00000" pt_clust_8="13000.00000" pt_clust_9="93.74379"></scales>
<clustering>
<clus scale="   80.230">  5  6 -1 -1</clus>
<clus scale="   92.134">  7  8 -1 -1</clus>
<clus scale="   93.744">  1  9  2 -1</clus>
<clus scale="  123.221">  1  5  2 -1</clus>
<clus scale="   93.744">  1  5  2 -1</clus>
</clustering>
</event>
<event>
 9    1  0.5981539E-005  0.9104113E+02  0.7546771E-02  0.1306404E+00
         -4   -1    0    0    0  501 -0.00000000000E+00  0.00000000000E+00  0.41513573073E+03  0.41513573073E+03  0.00000000000E+00 0.  1.
         21   -1    0    0  501  502  0.00000000000E+00 -0.00000000000E+00 -0.82921723578E+02  0.82921723578E+02  0.00000000000E+00 0.  1.
        -24    2    1    2    0    0 -0.66205988951E+01  0.81534039260E+01  0.32266817939E+03  0.33288740510E+03  0.81172410086E+02 0.  0.
         23    2    1    2    0    0 -0.68338588413E+01  0.69501794530E+01  0.61057603127E+02  0.10982925353E+03  0.90771291772E+02 0.  0.
         13    1    3    3    0    0  0.93042403849E+01 -0.27596993944E+02  0.53719017775E+02  0.61105612137E+02  0.00000000000E+00 0. -1.
        -14    1    3    3    0    0 -0.15924839280E+02  0.35750397870E+02  0.26894916162E+03  0.27178179297E+03  0.00000000000E+00 0.  1.
        -11    1    4    4    0    0  0.93812751732E+01  0.43013438856E+02  0.53985858681E+02  0.69660872688E+02  0.00000000000E+00 0.  1.
         11    1    4    4    0    0 -0.16215134014E+02 -0.36063259403E+02  0.70717444464E+01  0.40168380841E+02  0.00000000000E+00 0. -1.
         -3    1    1    2    0  502  0.13454457736E+02 -0.15103583379E+02 -0.51511775371E+02  0.55340795673E+02  0.00000000000E+00 0.  1.
<scales pt_clust_5="13000.00000" pt_clust_6="13000.00000" pt_clust_7="13000.00000" pt_clust_8="13000.00000" pt_clust_9="20.22723"></scales>
<clustering>
<clus scale="   20.227">  2  9  1 -1</clus>
<clus scale="   81.172">  5  6 -1 -1</clus>
<clus scale="   81.474">  1  5  2 -1</clus>
<clus scale="   90.771">  7  8 -1 -1</clus>
<clus scale="   20.227">  2  5  1 -1</clus>
</clustering>
</event>
<event>
 9    1  0.5981539E-005  0.1032201E+03  0.7546771E-02  0.1283843E+00
         21   -1    0    0  501  502  0.00000000000E+00  0.00000000000E+00  0.25846911488E+02  0.25846911488E+02  0.00000000000E+00 0. -1.
          1   -1    0    0  502    0 -0.00000000000E+00 -0.00000000000E+00 -0.69275013295E+03  0.69275013295E+03  0.00000000000E+00 0. -1.
         23    2    1    2    0    0  0.52044714772E+02  0.18348720748E+02 -0.51345179216E+03  0.52470501753E+03  0.92936992977E+02 0.  0.
        -24    2    1    2    0    0 -0.19086829162E+02  0.44274470639E+01 -0.75648737428E+02  0.10638068532E+03  0.72181780241E+02 0.  0.
         13    1    4    4    0    0 -0.24285683045E+02  0.31809278790E+02 -0.21379563659E+02  0.45373013569E+02  0.00000000000E+00 0. -1.
        -14    1    4    4    0    0  0.51988538832E+01 -0.27381831726E+02 -0.54269173769E+02  0.61007671746E+02  0.00000000000E+00 0.  1.
        -11    1    3    3    0    0 -0.25599282376E+02 -0.63198943960E+01 -0.14148545804E+03  0.14392150347E+03  0.00000000000E+00 0.  1.
         11    1    3    3    0    0  0.77643997148E+02  0.24668615144E+02 -0.37196633412E+03  0.38078351406E+03  0.00000000000E+00 0. -1.
          2    1    1    2  501    0 -0.32957885610E+02 -0.22776167812E+02 -0.77802691877E+02  0.87511341593E+02  0.00000000000E+00 0. -1.
<scales pt_clust_5="13000.00000" pt_clust_6="13000.00000" pt_clust_7="13000.00000" pt_clust_8="13000.00000" pt_clust_9="40.06215"></scales>
<clustering>
<clus scale="   40.062">  1  9  2 -1</clus>
<clus scale="   72.182">  5  6 -1 -1</clus>
<clus scale="   85.014">  1  5  2 -1</clus>
<clus scale="   92.937">  7  8 -1 -1</clus>
<clus scale="   40.062">  1  5  2 -1</clus>
</clustering>
</event>
<event>
 9    1  0.5981539E-005  0.1544258E+03  0.7546771E-02  0.1197344E+00
         21   -1    0    0  501  502  0.00000000000E+00  0.00000000000E+00  0.69448109259E+03  0.69448109259E+03  0.00000000000E+00 0. -1.
         -4   -1    0    0    0  501 -0.00000000000E+00 -0.00000000000E+00 -0.12043287974E+03  0.12043287974E+03  0.00000000000E+00 0.  1.
         23    2    1    2    0    0 -0.32510270311E+02  0.14016718213E+03  0.29171745913E+03  0.33842613730E+03  0.93431353546E+02 0.  0.
        -24    2    1    2    0    0 -0.97515968801E+02 -0.96952425825E+02  0.29856829264E+03  0.33850959149E+03  0.80849125632E+02 0.  0.
         11    1    4    4    0    0 -0.75623441739E+02 -0.23525843870E+02  0.18786888651E+03  0.20388008433E+03  0.00000000000E+00 0. -1.
        -12    1    4    4    0    0 -0.21892527062E+02 -0.73426581955E+02  0.11069940613E+03  0.13462950715E+03  0.00000000000E+00 0.  1.
        -11    1    3    3    0    0  0.25274890299E+02  0.94044025696E+02  0.15682281403E+03  0.18459819568E+03  0.00000000000E+00 0. -1.
         11    1    3    3    0    0 -0.57785160611E+02  0.46123156436E+02  0.13489464510E+03  0.15382794162E+03  0.00000000000E+00 0.  1.
         -3    1    1    2    0  502  0.13002623911E+03 -0.43214756306E+02 -0.16237538926E+02  0.13797824354E+03  0.00000000000E+00 0.  1.
<scales pt_clust_5="13000.00000" pt_clust_6="13000.00000" pt_clust_7="13000.00000" pt_clust_8="13000.00000" pt_clust_9="137.01955"></scales>
<clustering>
<clus scale="   80.849">  5  6 -1 -1</clus>
<clus scale="   93.431">  7  8 -1 -1</clus>
<clus scale="  137.020">  1  9  2 -1</clus>
<clus scale="  147.155">  1  5  2 -1</clus>
<clus scale="  137.020">  1  5  2 -1</clus>
</clustering>
</event>
<event>
 9    1  0.5981539E-005  0.2005896E+03  0.7546771E-02  0.1173312E+00
         21   -1    0    0  501  502  0.00000000000E+00  0.00000000000E+00  0.41522793609E+02  0.41522793609E+02  0.00000000000E+00 0. -1.
          1   -1    0    0  502    0 -0.00000000000E+00 -0.00000000000E+00 -0.15577841691E+04  0.15577841691E+04  0.00000000000E+00 0. -1.
         23    2    1    2    0    0  0.48163335012E+02 -0.58158458391E+02 -0.36498376837E+03  0.38257640488E+03  0.86310145841E+02 0.  0.
        -24    2    1    2    0    0 -0.14531812862E+03  0.16021016773E+03 -0.51283898512E+03  0.56292823345E+03  0.84259806571E+02 0.  0.
         11    1    4    4    0    0 -0.14013707168E+03  0.14432200591E+03 -0.50661948972E+03  0.54509682407E+03  0.00000000000E+00 0. -1.
        -12    1    4    4    0    0 -0.51810569450E+01  0.15888161828E+02 -0.62194953971E+01  0.17831409376E+02  0.00000000000E+00 0.  1.
        -11    1    3    3    0    0 -0.16701518630E+02 -0.41188863093E+02 -0.10362594596E+03  0.11275548698E+03  0.00000000000E+00 0.  1.
         11    1    3    3    0    0  0.64864853642E+02 -0.16969595298E+02 -0.26135782241E+03  0.26982091790E+03  0.00000000000E+00 0. -1.
          2    1    1    2  501    0  0.97154793611E+02 -0.10205170934E+03 -0.63843862199E+03  0.65380232437E+03  0.00000000000E+00 0. -1.
<scales pt_clust_5="13000.00000" pt_clust_6="13000.00000" pt_clust_7="13000.00000" pt_clust_8="13000.00000" pt_clust_9="182.03437"></scales>
<clustering>
<clus scale="   84.260">  5  6 -1 -1</clus>
<clus scale="   86.310">  7  8 -1 -1</clus>
<clus scale="  114.680">  2  7  1 -1</clus>
<clus scale="  182.034">  1  9  2 -1</clus>
<clus scale="  182.034">  1  5  2 -1</clus>
</clustering>
</event>
<event>
 9    1  0.5981539E-005  0.1083545E+03  0.7546771E-02  0.1267713E+00
         21   -1    0    0  501  502  0.00000000000E+00  0.00000000000E+00  0.64633585168E+02  0.64633585168E+02  0.00000000000E+00 0. -1.
         -2   -1    0    0    0  501 -0.00000000000E+00 -0.00000000000E+00 -0.62003035481E+03  0.62003035481E+03  0.00000000000E+00 0.  1.
        -24    2    1    2    0    0  0.48916248589E+02 -0.28907934050E+02 -0.50712941102E+03  0.51671113745E+03  0.81127627946E+02 0.  0.
         23    2    1    2    0    0 -0.79788642426E+02  0.89724730031E+01 -0.49600659047E+02  0.13117910272E+03  0.91109817690E+02 0.  0.
         13    1    3    3    0    0  0.44166256040E+02  0.19541210490E+02 -0.20007255397E+03  0.20581920205E+03  0.00000000000E+00 0. -1.
        -14    1    3    3    0    0  0.47499925494E+01 -0.48449144540E+02 -0.30705685705E+03  0.31089193540E+03  0.00000000000E+00 0.  1.
        -13    1    4    4    0    0 -0.81007953147E+02 -0.19520848977E+02 -0.57910143497E+02  0.10147382292E+03  0.00000000000E+00 0.  1.
         13    1    4    4    0    0  0.12193107211E+01  0.28493321980E+02  0.83094844492E+01  0.29705279798E+02  0.00000000000E+00 0. -1.
         -1    1    1    2    0  502  0.30872393837E+02  0.19935461047E+02  0.13333004194E+01  0.36773699819E+02  0.00000000000E+00 0.  1.
<scales pt_clust_5="13000.00000" pt_clust_6="13000.00000" pt_clust_7="13000.00000" pt_clust_8="13000.00000" pt_clust_9="36.74952"></scales>
<clustering>
<clus scale="   36.750">  1  9  2 -1</clus>
<clus scale="   81.128">  5  6 -1 -1</clus>
<clus scale="   91.110">  7  8 -1 -1</clus>
<clus scale="  100.107">  2  5  1 -1</clus>
<clus scale="   36.750">  1  5  2 -1</clus>
</clustering>
</event>
<event>
 9    1  0.5981539E-005  0.9557760E+02  0.7546771E-02  0.1294973E+00
         -4   -1    0    0    0  501 -0.00000000000E+00  0.00000000000E+00  0.40440422946E+03  0.40440422946E+03  0.00000000000E+00 0.  1.
         21   -1    0    0  501  502  0.00000000000E+00 -0.00000000000E+00 -0.83623557064E+02  0.83623557064E+02  0.00000000000E+00 0.  1.
        -24    2    1    2    0    0 -0.19501686834E+02 -0.29561835976E+02  0.33054759545E+03  0.34199887911E+03  0.80295096492E+02 0.  0.
         23    2    1    2    0    0 -0.20495198996E+02  0.32072538072E+02  0.15610358581E+02  0.98594100314E+02  0.89601408702E+02 0.  0.
         11    1    3    3    0    0  0.30680479500E+02 -0.43708166967E+01  0.98817987413E+02  0.10356346121E+03  0.00000000000E+00 0. -1.
        -12    1    3    3    0    0 -0.50182166335E+02 -0.25191019279E+02  0.23172960803E+03  0.23843541790E+03  0.00000000000E+00 0.  1.
        -13    1    4    4    0    0 -0.17027004661E+00 -0.29182291073E+02  0.17499872862E+02  0.34027645442E+02  0.00000000000E+00 0.  1.
         13    1    4    4    0    0 -0.20324928950E+02  0.61254829145E+02 -0.18895142807E+01  0.64566454871E+02  0.00000000000E+00 0. -1.
         -3    1    1    2    0  502  0.39996885830E+02 -0.25107020968E+01 -0.25377281635E+02  0.47434807097E+02  0.00000000000E+00 0.  1.
<scales pt_clust_5="13000.00000" pt_clust_6="13000.00000" pt_clust_7="13000.00000" pt_clust_8="13000.00000" pt_clust_9="40.07561"></scales>
<clustering>
<clus scale="   40.076">  2  9  1 -1</clus>
<clus scale="   80.295">  5  6 -1 -1</clus>
<clus scale="   86.914">  1  5  2 -1</clus>
<clus scale="   89.601">  7  8 -1 -1</clus>
<clus scale="   40.076">  2  5  1 -1</clus>
</clustering>
</event>
<event>
 9    1  0.5981539E-005  0.2307172E+03  0.7546771E-02  0.1150357E+00
         21   -1    0    0  501  502  0.00000000000E+00  0.00000000000E+00  0.23747411965E+03  0.23747411965E+03  0.00000000000E+00 0.  1.
          1   -1    0    0  502    0 -0.00000000000E+00 -0.00000000000E+00 -0.89118684664E+03  0.89118684664E+03  0.00000000000E+00 0. -1.
         23    2    1    2    0    0  0.32798139568E+01  0.90660459407E+02 -0.58970924334E+03  0.60352327525E+03  0.90847542638E+02 0.  0.
        -24    2    1    2    0    0  0.21604215404E+03 -0.35503060879E+02  0.92535252503E+02  0.25009434869E+03  0.77780014380E+02 0.  0.
         11    1    4    4    0    0  0.59231799331E+02 -0.46211546895E+02  0.27657692541E+02  0.80055362563E+02  0.00000000000E+00 0. -1.
        -12    1    4    4    0    0  0.15681035471E+03  0.10708486016E+02  0.64877559962E+02  0.17003898612E+03  0.00000000000E+00 0.  1.
        -13    1    3    3    0    0  0.16380285829E+02 -0.14824149124E+02 -0.10190599348E+03  0.10427320207E+03  0.00000000000E+00 0.  1.
         13    1    3    3    0    0 -0.13100471873E+02  0.10548460853E+03 -0.48780324986E+03  0.49925007318E+03  0.00000000000E+00 0. -1.
          2    1    1    2  501    0 -0.21932196799E+03 -0.55157398528E+02 -0.15653873615E+03  0.27504334235E+03  0.00000000000E+00 0. -1.
<scales pt_clust_5="13000.00000" pt_clust_6="13000.00000" pt_clust_7="13000.00000" pt_clust_8="13000.00000" pt_clust_9="217.21130"></scales>
<clustering>
<clus scale="   77.780">  5  6 -1 -1</clus>
<clus scale="   90.848">  7  8 -1 -1</clus>
<clus scale="  128.388">  2  7  1 -1</clus>
<clus scale="  217.211">  1  9  2 -1</clus>
<clus scale="  217.211">  1  5  2 -1</clus>
</clustering>
</event>
<event>
 9    1  0.5981539E-005  0.2835834E+03  0.7546771E-02  0.1095176E+00
         21   -1    0    0  501  502  0.00000000000E+00  0.00000000000E+00  0.14334205917E+04  0.14334205917E+04  0.00000000000E+00 0. -1.
          1   -1    0    0  502    0 -0.00000000000E+00 -0.00000000000E+00 -0.10444110966E+03  0.10444110966E+03  0.00000000000E+00 0. -1.
        -24    2    1    2    0    0  0.85648303541E+02 -0.14899983656E+03  0.54635143072E+03  0.57819465893E+03  0.79199713220E+02 0.  0.
         23    2    1    2    0    0 -0.15703637671E+03  0.31834670772E+03  0.52685839925E+03  0.64471826139E+03  0.10989455753E+03 0.  0.
         11    1    3    3    0    0  0.64039282631E+02 -0.79240767733E+02  0.42071031273E+03  0.43287099259E+03  0.00000000000E+00 0. -1.
        -12    1    3    3    0    0  0.21609020910E+02 -0.69759068831E+02  0.12564111798E+03  0.14532366634E+03  0.00000000000E+00 0.  1.
        -11    1    4    4    0    0 -0.13890425294E+03  0.22886190671E+03  0.31108007929E+03  0.41041805462E+03  0.00000000000E+00 0. -1.
         11    1    4    4    0    0 -0.18132123768E+02  0.89484801011E+02  0.21577831996E+03  0.23430020677E+03  0.00000000000E+00 0.  1.
          2    1    1    2  501    0  0.71388073168E+02 -0.16934687116E+03  0.25576965203E+03  0.31494878101E+03  0.00000000000E+00 0. -1.
<scales pt_clust_5="13000.00000" pt_clust_6="13000.00000" pt_clust_7="13000.00000" pt_clust_8="13000.00000" pt_clust_9="183.77882"></scales>
<clustering>
<clus scale="   79.200">  5  6 -1 -1</clus>
<clus scale="  109.895">  7  8 -1 -1</clus>
<clus scale="  183.779">  1  9  2 -1</clus>
<clus scale="  273.158">  2  5  1 -1</clus>
<clus scale="  183.779">  1  5  2 -1</clus>
</clustering>
</event>
<event>
 9    1  0.5981539E-005  0.1831215E+03  0.7546771E-02  0.1166195E+00
         21   -1    0    0  501  502  0.00000000000E+00  0.00000000000E+00  0.97632652511E+03  0.97632652511E+03  0.00000000000E+00 0. -1.
          3   -1    0    0  502    0 -0.00000000000E+00 -0.00000000000E+00 -0.21723761632E+03  0.21723761632E+03  0.00000000000E+00 0. -1.
         23    2    1    2    0    0 -0.13048700499E+03  0.15657996111E+02 -0.54946691852E+02  0.16987388108E+03  0.92552499777E+02 0.  0.
        -24    2    1    2    0    0  0.22692195755E+03  0.23027088881E+02  0.43027187574E+02  0.24571197729E+03  0.80617710654E+02 0.  0.
         13    1    4    4    0    0  0.82286782110E+02  0.32446953570E+02 -0.14758882068E+02  0.89675771009E+02  0.00000000000E+00 0. -1.
        -14    1    4    4    0    0  0.14463517544E+03 -0.94198646892E+01  0.57786069641E+02  0.15603620628E+03  0.00000000000E+00 0.  1.
        -11    1    3    3    0    0 -0.26801249425E+02  0.40691296713E+02 -0.38175000851E+02  0.61898459503E+02  0.00000000000E+00 0.  1.
         11    1    3    3    0    0 -0.10368575557E+03 -0.25033300601E+02 -0.16771691001E+02  0.10797542158E+03  0.00000000000E+00 0. -1.
          4    1    1    2  501    0 -0.96434952559E+02 -0.38685084993E+02  0.77100841307E+03  0.77797828305E+03  0.00000000000E+00 0. -1.
<scales pt_clust_5="13000.00000" pt_clust_6="13000.00000" pt_clust_7="13000.00000" pt_clust_8="13000.00000" pt_clust_9="103.90494"></scales>
<clustering>
<clus scale="   80.618">  5  6 -1 -1</clus>
<clus scale="   92.552">  7  8 -1 -1</clus>
<clus scale="  103.905">  1  9  2 -1</clus>
<clus scale="  177.389">  1  5  2 -1</clus>
<clus scale="  103.905">  1  5  2 -1</clus>
</clustering>
</event>
<event>
 9    1  0.5981539E-005  0.1553036E+03  0.7546771E-02  0.1195743E+00
          1   -1    0    0  502    0 -0.00000000000E+00  0.00000000000E+00  0.17830512458E+03  0.17830512458E+03  0.00000000000E+00 0. -1.
         21   -1    0    0  501  502  0.00000000000E+00 -0.00000000000E+00 -0.18452213080E+03  0.18452213080E+03  0.00000000000E+00 0.  1.
         23    2    1    2    0    0 -0.12137376687E+03 -0.66904069157E+02  0.31672610572E+02  0.16829120205E+03  0.90061249572E+02 0.  0.
        -24    2    1    2    0    0  0.84839124941E+02  0.67981648854E+02 -0.64103863467E+02  0.14955685850E+03  0.80241927388E+02 0.  0.
         13    1    4    4    0    0 -0.52623529275E+01  0.26421959774E+02  0.65770190839E+01  0.27732102276E+02  0.00000000000E+00 0. -1.
        -14    1    4    4    0    0  0.90101477868E+02  0.41559689080E+02 -0.70680882551E+02  0.12182475622E+03  0.00000000000E+00 0.  1.
        -13    1    3    3    0    0 -0.72953184936E+02 -0.83848381989E+02  0.69900556679E+01  0.11136237799E+03  0.00000000000E+00 0. -1.
         13    1    3    3    0    0 -0.48420581934E+02  0.16944312832E+02  0.24682554904E+02  0.56928824059E+02  0.00000000000E+00 0.  1.
          2    1    1    2  501    0  0.36534641929E+02 -0.10775796975E+01  0.26214246678E+02  0.44979194833E+02  0.00000000000E+00 0. -1.
<scales pt_clust_5="13000.00000" pt_clust_6="13000.00000" pt_clust_7="13000.00000" pt_clust_8="13000.00000" pt_clust_9="36.55055"></scales>
<clustering>
<clus scale="   36.551">  2  9  1 -1</clus>
<clus scale="   80.242">  5  6 -1 -1</clus>
<clus scale="   90.061">  7  8 -1 -1</clus>
<clus scale="  149.823">  2  5  1 -1</clus>
<clus scale="   36.551">  2  5  1 -1</clus>
</clustering>
</event>
<event>
 9    1  0.5981539E-005  0.2990424E+03  0.7546771E-02  0.1086142E+00
         21   -1    0    0  501  502  0.00000000000E+00  0.00000000000E+00  0.22395357940E+03  0.22395357940E+03  0.00000000000E+00 0. -1.
          1   -1    0    0  502    0 -0.00000000000E+00 -0.00000000000E+00 -0.11736921092E+04  0.11736921092E+04  0.00000000000E+00 0. -1.
        -24    2    1    2    0    0 -0.48702552858E+02  0.27553647749E+03 -0.89822967680E+03  0.94430657794E+03  0.81277744650E+02 0.  0.
         23    2    1    2    0    0  0.88983242423E+02 -0.31135352493E+03  0.47944433887E+02  0.34021815279E+03  0.92685963505E+02 0.  0.
         11    1    3    3    0    0 -0.20335718721E+02  0.24983011428E+03 -0.81543239860E+03  0.85308770014E+03  0.00000000000E+00 0. -1.
        -12    1    3    3    0    0 -0.28366834137E+02  0.25706363214E+02 -0.82797278200E+02  0.91218877794E+02  0.00000000000E+00 0.  1.
        -13    1    4    4    0    0  0.18204814526E+02 -0.28266261446E+02 -0.21963588100E+02  0.40159631600E+02  0.00000000000E+00 0.  1.
         13    1    4    4    0    0  0.70778427897E+02 -0.28308726348E+03  0.69908021987E+02  0.30005852119E+03  0.00000000000E+00 0. -1.
          2    1    1    2  501    0 -0.40280689564E+02  0.35817047436E+02 -0.99453286895E+02  0.11312095789E+03  0.00000000000E+00 0. -1.
<scales pt_clust_5="13000.00000" pt_clust_6="13000.00000" pt_clust_7="13000.00000" pt_clust_8="13000.00000" pt_clust_9="53.90174"></scales>
<clustering>
<clus scale="   53.902">  1  9  2 -1</clus>
<clus scale="   81.278">  5  6 -1 -1</clus>
<clus scale="   92.686">  7  8 -1 -1</clus>
<clus scale="  295.706">  2  5  1 -1</clus>
<clus scale="   53.902">  1  5  2 -1</clus>
</clustering>
</event>
<event>
 9    1  0.5981539E-005  0.1303459E+03  0.7546771E-02  0.1240507E+00
         21   -1    0    0  501  502  0.00000000000E+00  0.00000000000E+00  0.20866048402E+03  0.20866048402E+03  0.00000000000E+00 0. -1.
          1   -1    0    0  502    0 -0.00000000000E+00 -0.00000000000E+00 -0.22512930024E+03  0.22512930024E+03  0.00000000000E+00 0. -1.
        -24    2    1    2    0    0  0.47972834632E+02 -0.34563548380E+02  0.98226658978E+02  0.13923078068E+03  0.78998114002E+02 0.  0.
         23    2    1    2    0    0 -0.54575672573E+01 -0.58302305582E+02 -0.15130915379E+03  0.18605934343E+03  0.91075108445E+02 0.  0.
         11    1    3    3    0    0  0.45181311526E+02 -0.56936755839E+02  0.88898324653E+02  0.11483055866E+03  0.00000000000E+00 0. -1.
        -12    1    3    3    0    0  0.27915231068E+01  0.22373207459E+02  0.93283343253E+01  0.24400222019E+02  0.00000000000E+00 0.  1.
        -11    1    4    4    0    0 -0.14272838829E+02 -0.81802123548E+02 -0.12006546140E+03  0.14598293177E+03  0.00000000000E+00 0. -1.
         11    1    4    4    0    0  0.88152715721E+01  0.23499817967E+02 -0.31243692391E+02  0.40076411660E+02  0.00000000000E+00 0.  1.
          2    1    1    2  501    0 -0.42515267375E+02  0.92865853961E+02  0.36613678595E+02  0.10849966015E+03  0.00000000000E+00 0. -1.
<scales pt_clust_5="13000.00000" pt_clust_6="13000.00000" pt_clust_7="13000.00000" pt_clust_8="13000.00000" pt_clust_9="93.24897"></scales>
<clustering>
<clus scale="   78.998">  5  6 -1 -1</clus>
<clus scale="   91.075">  7  8 -1 -1</clus>
<clus scale="   98.675">  2  5  1 -1</clus>
<clus scale="   93.249">  1  9  2 -1</clus>
<clus scale="   93.249">  1  5  2 -1</clus>
</clustering>
</event>
<event>
 9    1  0.5981539E-005  0.2105992E+03  0.7546771E-02  0.1141861E+00
          1   -1    0    0  502    0 -0.00000000000E+00  0.00000000000E+00  0.36835803008E+03  0.36835803008E+03  0.00000000000E+00 0. -1.
         21   -1    0    0  501  502  0.00000000000E+00 -0.00000000000E+00 -0.31405757078E+03  0.31405757078E+03  0.00000000000E+00 0.  1.
        -24    2    1    2    0    0 -0.16542036247E+03 -0.29414809879E+01  0.14230302261E+03  0.23311005499E+03  0.81960959385E+02 0.  0.
         23    2    1    2    0    0  0.25284629554E+03 -0.72876728175E+02  0.34669345069E+02  0.28066364205E+03  0.91257053433E+02 0.  0.
         11    1    3    3    0    0 -0.11414359430E+03  0.33270742333E+02  0.72603488595E+02  0.13930889767E+03  0.00000000000E+00 0. -1.
        -12    1    3    3    0    0 -0.51276768172E+02 -0.36212223321E+02  0.69699534019E+02  0.93801157319E+02  0.00000000000E+00 0.  1.
        -13    1    4    4    0    0  0.18371142125E+03 -0.29085178224E+02  0.59260147668E+02  0.19521167740E+03  0.00000000000E+00 0.  1.
         13    1    4    4    0    0  0.69134874295E+02 -0.43791549951E+02 -0.24590802599E+02  0.85451964655E+02  0.00000000000E+00 0. -1.
          2    1    1    2  501    0 -0.87425933077E+02  0.75818209163E+02 -0.12267190839E+03  0.16864190382E+03  0.00000000000E+00 0. -1.
<scales pt_clust_5="13000.00000" pt_clust_6="13000.00000" pt_clust_7="13000.00000" pt_clust_8="13000.00000" pt_clust_9="115.72249"></scales>
<clustering>
<clus scale="   81.961">  5  6 -1 -1</clus>
<clus scale="   91.257">  7  8 -1 -1</clus>
<clus scale="  115.722">  2  9  1 -1</clus>
<clus scale="  206.741">  1  5  2 -1</clus>
<clus scale="  115.722">  2  5  1 -1</clus>
</clustering>
</event>
<event>
 9    1  0.5981539E-005  0.1224407E+03  0.7546771E-02  0.1242581E+00
         21   -1    0    0  501  502  0.00000000000E+00  0.00000000000E+00  0.60336617013E+02  0.60336617013E+02  0.00000000000E+00 0. -1.
          1   -1    0    0  502    0 -0.00000000000E+00 -0.00000000000E+00 -0.69892023250E+03  0.69892023250E+03  0.00000000000E+00 0. -1.
        -24    2    1    2    0    0  0.37794617547E+02 -0.80079107510E+02 -0.43938855683E+03  0.45545820833E+03  0.80862717511E+02 0.  0.
         23    2    1    2    0    0 -0.53807186713E+02  0.46259135950E+02 -0.22840514272E+03  0.25632842042E+03  0.92196685927E+02 0.  0.
         11    1    3    3    0    0  0.14193455104E+02 -0.82633684580E+02 -0.40553033503E+03  0.41410703039E+03  0.00000000000E+00 0. -1.
        -12    1    3    3    0    0  0.23601162444E+02  0.25545770700E+01 -0.33858221807E+02  0.41351177935E+02  0.00000000000E+00 0.  1.
        -11    1    4    4    0    0  0.19678755629E+02 -0.11557951116E+02 -0.43162038738E+02  0.48824187091E+02  0.00000000000E+00 0. -1.
         11    1    4    4    0    0 -0.73485942341E+02  0.57817087066E+02 -0.18524310398E+03  0.20750423333E+03  0.00000000000E+00 0.  1.
          2    1    1    2  501    0  0.16012569165E+02  0.33819971560E+02  0.29210084067E+02  0.47470220758E+02  0.00000000000E+00 0. -1.
<scales pt_clust_5="13000.00000" pt_clust_6="13000.00000" pt_clust_7="13000.00000" pt_clust_8="13000.00000" pt_clust_9="37.41915"></scales>
<clustering>
<clus scale="   37.419">  1  9  2 -1</clus>
<clus scale="   80.863">  5  6 -1 -1</clus>
<clus scale="   92.197">  7  8 -1 -1</clus>
<clus scale="  114.150">  2  5  1 -1</clus>
<clus scale="   37.419">  1  5  2 -1</clus>
</clustering>
</event>
<event>
 9    1  0.5981539E-005  0.2055653E+03  0.7546771E-02  0.1166524E+00
          3   -1    0    0  502    0 -0.00000000000E+00  0.00000000000E+00  0.69896429866E+03  0.69896429866E+03  0.00000000000E+00 0. -1.
         21   -1    0    0  501  502  0.00000000000E+00 -0.00000000000E+00 -0.11620050993E+03  0.11620050993E+03  0.00000000000E+00 0. -1.
         23    2    1    2    0    0 -0.39975168640E+02 -0.84502824954E+02  0.28931655847E+03  0.31494964473E+03  0.82161220661E+02 0.  0.
        -24    2    1    2    0    0  0.20878626064E+03  0.58197397506E+02  0.14072253120E+03  0.27105584373E+03  0.81791197113E+02 0.  0.
         13    1    4    4    0    0  0.17756073663E+03  0.32305459973E+02  0.14324454959E+03  0.23041366913E+03  0.00000000000E+00 0. -1.
        -14    1    4    4    0    0  0.31225524011E+02  0.25891937533E+02 -0.25220183966E+01  0.40642174594E+02  0.00000000000E+00 0.  1.
        -13    1    3    3    0    0 -0.62961355995E+02 -0.56199192021E+02  0.16406442870E+03  0.18449828806E+03  0.00000000000E+00 0. -1.
         13    1    3    3    0    0  0.22986187355E+02 -0.28303632933E+02  0.12525212977E+03  0.13045135667E+03  0.00000000000E+00 0.  1.
          4    1    1    2  501    0 -0.16881109200E+03  0.26305427448E+02  0.15272469908E+03  0.22915932013E+03  0.00000000000E+00 0. -1.
<scales pt_clust_5="13000.00000" pt_clust_6="13000.00000" pt_clust_7="13000.00000" pt_clust_8="13000.00000" pt_clust_9="188.59299"></scales>
<clustering>
<clus scale="   81.791">  5  6 -1 -1</clus>
<clus scale="   82.161">  7  8 -1 -1</clus>
<clus scale="  124.456">  1  7  2 -1</clus>
<clus scale="  188.593">  2  9  1 -1</clus>
<clus scale="  188.593">  2  5  1 -1</clus>
</clustering>
</event>
<event>
 9    1  0.5981539E-005  0.9140731E+02  0.7546771E-02  0.1306391E+00
         21   -1    0    0  501  502  0.00000000000E+00  0.00000000000E+00  0.49316174215E+02  0.49316174215E+02  0.00000000000E+00 0. -1.
          1   -1    0    0  502    0 -0.00000000000E+00 -0.00000000000E+00 -0.59432026404E+03  0.59432026404E+03  0.00000000000E+00 0. -1.
        -24    2    1    2    0    0 -0.10271084673E+02  0.10516832763E+02 -0.42930485166E+03  0.43694706654E+03  0.80024898329E+02 0.  0.
         23    2    1    2    0    0 -0.43297292427E+02 -0.26920805745E+00 -0.11397598436E+03  0.15212239964E+03  0.90972366452E+02 0.  0.
         13    1    3    3    0    0  0.15842767852E+01 -0.32094245889E+02 -0.11012648554E+03  0.11471875770E+03  0.00000000000E+00 0. -1.
        -14    1    3    3    0    0 -0.11855361458E+02  0.42611078652E+02 -0.31917836612E+03  0.32222830884E+03  0.00000000000E+00 0.  1.
        -13    1    4    4    0    0  0.24614931338E+02 -0.17086644679E+02 -0.25642939093E+02  0.39438668797E+02  0.00000000000E+00 0.  1.
         13    1    4    4    0    0 -0.67912223765E+02  0.16817436621E+02 -0.88333045268E+02  0.11268373085E+03  0.00000000000E+00 0. -1.
          2    1    1    2  501    0  0.53568377100E+02 -0.10247624705E+02 -0.17232538094E+01  0.54566972070E+02  0.00000000000E+00 0. -1.
<scales pt_clust_5="13000.00000" pt_clust_6="13000.00000" pt_clust_7="13000.00000" pt_clust_8="13000.00000" pt_clust_9="54.53975"></scales>
<clustering>
<clus scale="   54.540">  1  9  2 -1</clus>
<clus scale="   80.025">  5  6 -1 -1</clus>
<clus scale="   80.519">  2  5  1 -1</clus>
<clus scale="   90.972">  7  8 -1 -1</clus>
<clus scale="   54.540">  1  5  2 -1</clus>
</clustering>
</event>
<event>
 9    1  0.5981539E-005  0.1025656E+03  0.7546771E-02  0.1277457E+00
         21   -1    0    0  501  502  0.00000000000E+00  0.00000000000E+00  0.28527693090E+03  0.28527693090E+03  0.00000000000E+00 0. -1.
          1   -1    0    0  502    0 -0.00000000000E+00 -0.00000000000E+00 -0.29578169752E+03  0.29578169752E+03  0.00000000000E+00 0. -1.
        -24    2    1    2    0    0 -0.43579087906E+02  0.15456351554E+02 -0.26260560545E+03  0.28040314384E+03  0.86753578351E+02 0.  0.
         23    2    1    2    0    0  0.40471877848E+02  0.22740223099E+02  0.99371314704E+02  0.14319139150E+03  0.92054471752E+02 0.  0.
         11    1    3    3    0    0  0.22313529889E+02  0.12169498532E+02 -0.12799763979E+03  0.13049669001E+03  0.00000000000E+00 0. -1.
        -12    1    3    3    0    0 -0.65892617795E+02  0.32868530222E+01 -0.13460796566E+03  0.14990645383E+03  0.00000000000E+00 0.  1.
        -13    1    4    4    0    0 -0.14721704009E+02  0.15346728467E+02 -0.76082209128E+01  0.22586183144E+02  0.00000000000E+00 0. -1.
         13    1    4    4    0    0  0.55193581856E+02  0.73934946326E+01  0.10697953562E+03  0.12060520835E+03  0.00000000000E+00 0.  1.
          2    1    1    2  501    0  0.31072100585E+01 -0.38196574654E+02  0.15272952413E+03  0.15746409308E+03  0.00000000000E+00 0. -1.
<scales pt_clust_5="13000.00000" pt_clust_6="13000.00000" pt_clust_7="13000.00000" pt_clust_8="13000.00000" pt_clust_9="38.32275"></scales>
<clustering>
<clus scale="   38.323">  1  9  2 -1</clus>
<clus scale="   86.754">  5  6 -1 -1</clus>
<clus scale="   92.054">  7  8 -1 -1</clus>
<clus scale="   97.836">  2  5  1 -1</clus>
<clus scale="   38.323">  1  5  2 -1</clus>
</clustering>
</event>
<event>
 9    1  0.5981539E-005  0.1626958E+03  0.7546771E-02  0.1207438E+00
         21   -1    0    0  501  502  0.00000000000E+00  0.00000000000E+00  0.22967072036E+03  0.22967072036E+03  0.00000000000E+00 0.  1.
         -4   -1    0    0    0  501 -0.00000000000E+00 -0.00000000000E+00 -0.22618360849E+03  0.22618360849E+03  0.00000000000E+00 0.  1.
        -24    2    1    2    0    0  0.61018051935E+02  0.88430131397E+01  0.31725920403E+02  0.10601165895E+03  0.80190624542E+02 0.  0.
         23    2    1    2    0    0 -0.14466968315E+03  0.87606261053E+02 -0.85561441442E+02  0.20989288555E+03  0.90167005844E+02 0.  0.
         11    1    3    3    0    0  0.25561671900E+02  0.27892320580E+02  0.49256996598E+02  0.62109840858E+02  0.00000000000E+00 0. -1.
        -12    1    3    3    0    0  0.35456380035E+02 -0.19049307440E+02 -0.17531076194E+02  0.43901818091E+02  0.00000000000E+00 0.  1.
        -11    1    4    4    0    0 -0.89412937867E+01  0.49491431598E+02 -0.28480608125E+02  0.57797003170E+02  0.00000000000E+00 0. -1.
         11    1    4    4    0    0 -0.13572838937E+03  0.38114829455E+02 -0.57080833316E+02  0.15209588238E+03  0.00000000000E+00 0.  1.
         -3    1    1    2    0  502  0.83651631220E+02 -0.96449274192E+02  0.57322632910E+02  0.13994978436E+03  0.00000000000E+00 0.  1.
<scales pt_clust_5="13000.00000" pt_clust_6="13000.00000" pt_clust_7="13000.00000" pt_clust_8="13000.00000" pt_clust_9="135.42462"></scales>
<clustering>
<clus scale="   80.191">  5  6 -1 -1</clus>
<clus scale="   90.167">  7  8 -1 -1</clus>
<clus scale="  101.153">  2  5  1 -1</clus>
<clus scale="  135.425">  1  9  2 -1</clus>
<clus scale="  135.425">  1  5  2 -1</clus>
</clustering>
</event>
<event>
 9    1  0.5981539E-005  0.9198013E+02  0.7546771E-02  0.1304308E+00
         21   -1    0    0  501  502  0.00000000000E+00  0.00000000000E+00  0.43357508092E+03  0.43357508092E+03  0.00000000000E+00 0.  1.
         -2   -1    0    0    0  501 -0.00000000000E+00 -0.00000000000E+00 -0.58755389930E+02  0.58755389930E+02  0.00000000000E+00 0.  1.
        -24    2    1    2    0    0 -0.13023377100E+02 -0.10627119067E+02  0.59971328855E-01  0.81376535683E+02  0.79621560852E+02 0.  0.
         23    2    1    2    0    0  0.40363103419E+02 -0.99862244108E+01  0.12776828518E+03  0.16160049270E+03  0.89783516006E+02 0.  0.
         11    1    3    3    0    0 -0.14942410415E+02 -0.30048202240E+02  0.30414109236E+02  0.45290044463E+02  0.00000000000E+00 0. -1.
        -12    1    3    3    0    0  0.19190333144E+01  0.19421083173E+02 -0.30354137907E+02  0.36086491220E+02  0.00000000000E+00 0.  1.
        -11    1    4    4    0    0 -0.28453963623E+02  0.29549807617E+01  0.43070249193E+02  0.51704993209E+02  0.00000000000E+00 0. -1.
         11    1    4    4    0    0  0.68817067043E+02 -0.12941205172E+02  0.84698035986E+02  0.10989549949E+03  0.00000000000E+00 0.  1.
         -1    1    1    2    0  502 -0.27339726319E+02  0.20613343478E+02  0.24699143448E+03  0.24935344247E+03  0.00000000000E+00 0.  1.
<scales pt_clust_5="13000.00000" pt_clust_6="13000.00000" pt_clust_7="13000.00000" pt_clust_8="13000.00000" pt_clust_9="34.23990"></scales>
<clustering>
<clus scale="   34.240">  1  9  2 -1</clus>
<clus scale="   79.622">  5  6 -1 -1</clus>
<clus scale="   82.091">  2  5  1 -1</clus>
<clus scale="   89.784">  7  8 -1 -1</clus>
<clus scale="   34.240">  1  5  2 -1</clus>
</clustering>
</event>
<event>
 9    1  0.5981539E-005  0.2693959E+03  0.7546771E-02  0.1146002E+00
          1   -1    0    0  502    0 -0.00000000000E+00  0.00000000000E+00  0.20350175221E+04  0.20350175221E+04  0.00000000000E+00 0. -1.
         21   -1    0    0  501  502  0.00000000000E+00 -0.00000000000E+00 -0.48686697083E+02  0.48686697083E+02  0.00000000000E+00 0. -1.
        -24    2    1    2    0    0 -0.16766810358E+02 -0.25339778734E+02  0.26403973137E+03  0.27877753781E+03  0.84123156905E+02 0.  0.
         23    2    1    2    0    0  0.10846109865E+03  0.24993542535E+03  0.11030359279E+04  0.11398492368E+04  0.91304422803E+02 0.  0.
         13    1    3    3    0    0 -0.98320419879E+01 -0.43275840634E+02  0.64378815814E+02  0.78192706552E+02  0.00000000000E+00 0. -1.
        -14    1    3    3    0    0 -0.69347683701E+01  0.17936061900E+02  0.19966091555E+03  0.20058483125E+03  0.00000000000E+00 0.  1.
        -13    1    4    4    0    0  0.92672389818E+02  0.20568454871E+03  0.10179952209E+04  0.10426929439E+04  0.00000000000E+00 0. -1.
         13    1    4    4    0    0  0.15788708829E+02  0.44250876635E+02  0.85040707038E+02  0.97156292967E+02  0.00000000000E+00 0.  1.
          2    1    1    2  501    0 -0.91694288289E+02 -0.22459564662E+03  0.61925516570E+03  0.66507744454E+03  0.00000000000E+00 0. -1.
<scales pt_clust_5="13000.00000" pt_clust_6="13000.00000" pt_clust_7="13000.00000" pt_clust_8="13000.00000" pt_clust_9="253.45144"></scales>
<clustering>
<clus scale="   84.123">  5  6 -1 -1</clus>
<clus scale="   89.442">  1  5  2 -1</clus>
<clus scale="   91.304">  7  8 -1 -1</clus>
<clus scale="  253.451">  2  9  1 -1</clus>
<clus scale="  253.451">  2  5  1 -1</clus>
</clustering>
</event>
<event>
 9    1  0.5981539E-005  0.1170576E+03  0.7546771E-02  0.1251235E+00
         -2   -1    0    0    0  501 -0.00000000000E+00  0.00000000000E+00  0.29844654913E+03  0.29844654913E+03  0.00000000000E+00 0.  1.
         21   -1    0    0  501  502  0.00000000000E+00 -0.00000000000E+00 -0.17235803762E+03  0.17235803762E+03  0.00000000000E+00 0.  1.
        -24    2    1    2    0    0  0.73926869985E+02 -0.71297233323E+01  0.16235320530E+03  0.19639873796E+03  0.81840613038E+02 0.  0.
         23    2    1    2    0    0 -0.70759398170E+02 -0.34378439045E+02  0.84135377436E+02  0.14701221640E+03  0.91351302859E+02 0.  0.
         11    1    3    3    0    0  0.17847286666E+02 -0.27054388380E+02  0.11746494886E+03  0.12185433839E+03  0.00000000000E+00 0. -1.
        -12    1    3    3    0    0  0.56079583319E+02  0.19924665048E+02  0.44888256432E+02  0.74544399575E+02  0.00000000000E+00 0.  1.
        -13    1    4    4    0    0 -0.90456915309E+02 -0.41616176635E+02  0.69613292224E+02  0.12149226370E+03  0.00000000000E+00 0.  1.
         13    1    4    4    0    0  0.19697517139E+02  0.72377375893E+01  0.14522085212E+02  0.25519952699E+02  0.00000000000E+00 0. -1.
         -1    1    1    2    0  502 -0.31674718148E+01  0.41508162378E+02 -0.12040007123E+03  0.12739363239E+03  0.00000000000E+00 0.  1.
<scales pt_clust_5="13000.00000" pt_clust_6="13000.00000" pt_clust_7="13000.00000" pt_clust_8="13000.00000" pt_clust_9="41.62884"></scales>
<clustering>
<clus scale="   41.629">  2  9  1 -1</clus>
<clus scale="   81.841">  5  6 -1 -1</clus>
<clus scale="   91.351">  7  8 -1 -1</clus>
<clus scale="  109.797">  1  5  2 -1</clus>
<clus scale="   41.629">  2  5  1 -1</clus>
</clustering>
</event>
<event>
 9    1  0.5981539E-005  0.1975316E+03  0.7546771E-02  0.1184899E+00
         21   -1    0    0  501  502  0.00000000000E+00  0.00000000000E+00  0.47705498478E+03  0.47705498478E+03  0.00000000000E+00 0. -1.
         -2   -1    0    0    0  501 -0.00000000000E+00 -0.00000000000E+00 -0.14071072947E+03  0.14071072947E+03  0.00000000000E+00 0.  1.
         23    2    1    2    0    0 -0.32952314410E+01  0.45697552359E+01  0.13566167126E+02  0.93504106293E+02  0.92343033251E+02 0.  0.
        -24    2    1    2    0    0  0.11520290794E+03  0.13828769460E+03  0.27182393187E+03  0.33577313330E+03  0.80375062239E+02 0.  0.
         11    1    4    4    0    0  0.89318726170E+02  0.14342901621E+03  0.21787767546E+03  0.27571797004E+03  0.00000000000E+00 0. -1.
        -12    1    4    4    0    0  0.25884181768E+02 -0.51413216082E+01  0.53946256412E+02  0.60055163263E+02  0.00000000000E+00 0.  1.
        -13    1    3    3    0    0 -0.26097463927E+02 -0.10280925496E+01  0.46336737226E+02  0.53190486127E+02  0.00000000000E+00 0.  1.
         13    1    3    3    0    0  0.22802232486E+02  0.55978477855E+01 -0.32770570100E+02  0.40313620166E+02  0.00000000000E+00 0. -1.
         -1    1    1    2    0  502 -0.11190767650E+03 -0.14285744984E+03  0.50954156314E+02  0.18848847466E+03  0.00000000000E+00 0.  1.
<scales pt_clust_5="13000.00000" pt_clust_6="13000.00000" pt_clust_7="13000.00000" pt_clust_8="13000.00000" pt_clust_9="180.44001"></scales>
<clustering>
<clus scale="   80.375">  5  6 -1 -1</clus>
<clus scale="   92.343">  7  8 -1 -1</clus>
<clus scale="   92.515">  2  7  1 -1</clus>
<clus scale="  180.440">  1  9  2 -1</clus>
<clus scale="  180.440">  1  5  2 -1</clus>
</clustering>
</event>
<event>
 9    1  0.5981539E-005  0.1447674E+03  0.7546771E-02  0.1208977E+00
         -2   -1    0    0    0  501 -0.00000000000E+00  0.00000000000E+00  0.50955876189E+03  0.50955876189E+03  0.00000000000E+00 0.  1.
         21   -1    0    0  501  502  0.00000000000E+00 -0.00000000000E+00 -0.53019037367E+02  0.53019037367E+02  0.00000000000E+00 0.  1.
        -24    2    1    2    0    0  0.81614560024E+02  0.64477597050E+02  0.14693079300E+03  0.19716606232E+03  0.80420776363E+02 0.  0.
         23    2    1    2    0    0 -0.10696697645E+03 -0.62051300867E+02  0.19430538787E+03  0.24732897312E+03  0.90137335213E+02 0.  0.
         11    1    3    3    0    0 -0.15537397304E+02  0.15947417518E+02  0.32612584906E+02  0.39488118906E+02  0.00000000000E+00 0. -1.
        -12    1    3    3    0    0  0.97151957329E+02  0.48530179533E+02  0.11431820809E+03  0.15767794341E+03  0.00000000000E+00 0.  1.
        -11    1    4    4    0    0 -0.10903242103E+03 -0.39713622460E+02  0.19256893426E+03  0.22482890181E+03  0.00000000000E+00 0.  1.
         11    1    4    4    0    0  0.20654445861E+01 -0.22337678407E+02  0.17364536103E+01  0.22500071313E+02  0.00000000000E+00 0. -1.
         -1    1    1    2    0  502  0.25352416422E+02 -0.24262961832E+01  0.11530354365E+03  0.11808276382E+03  0.00000000000E+00 0.  1.
<scales pt_clust_5="13000.00000" pt_clust_6="13000.00000" pt_clust_7="13000.00000" pt_clust_8="13000.00000" pt_clust_9="25.46827"></scales>
<clustering>
<clus scale="   25.468">  2  9  1 -1</clus>
<clus scale="   80.421">  5  6 -1 -1</clus>
<clus scale="   90.137">  7  8 -1 -1</clus>
<clus scale="  138.926">  1  5  2 -1</clus>
<clus scale="   25.468">  2  5  1 -1</clus>
</clustering>
</event>
<event>
 9    1  0.5981539E-005  0.1017879E+03  0.7546771E-02  0.1283855E+00
          3   -1    0    0  502    0 -0.00000000000E+00  0.00000000000E+00  0.59728117678E+02  0.59728117678E+02  0.00000000000E+00 0. -1.
         21   -1    0    0  501  502  0.00000000000E+00 -0.00000000000E+00 -0.24867955115E+03  0.24867955115E+03  0.00000000000E+00 0.  1.
        -24    2    1    2    0    0  0.31500554161E+02 -0.40517536034E+02 -0.57044354590E+02  0.10982012655E+03  0.78564916894E+02 0.  0.
         23    2    1    2    0    0 -0.14746092559E+02  0.16489983519E+02 -0.13868263099E+03  0.16852189128E+03  0.93152503455E+02 0.  0.
         13    1    3    3    0    0 -0.21648755924E+02 -0.97110456474E+01 -0.39247530329E+02  0.45862203147E+02  0.00000000000E+00 0. -1.
        -14    1    3    3    0    0  0.53149310085E+02 -0.30806490387E+02 -0.17796824261E+02  0.63957923405E+02  0.00000000000E+00 0.  1.
        -11    1    4    4    0    0  0.75127783845E+01  0.40963272375E+02 -0.12664709837E+03  0.13331886231E+03  0.00000000000E+00 0.  1.
         11    1    4    4    0    0 -0.22258870944E+02 -0.24473288856E+02 -0.12035532623E+02  0.35203028970E+02  0.00000000000E+00 0. -1.
          4    1    1    2  501    0 -0.16754461602E+02  0.24027552515E+02  0.67755521098E+01  0.30065650996E+02  0.00000000000E+00 0. -1.
<scales pt_clust_5="13000.00000" pt_clust_6="13000.00000" pt_clust_7="13000.00000" pt_clust_8="13000.00000" pt_clust_9="29.29225"></scales>
<clustering>
<clus scale="   29.292">  2  9  1 -1</clus>
<clus scale="   78.565">  5  6 -1 -1</clus>
<clus scale="   88.633">  1  5  2 -1</clus>
<clus scale="   93.153">  7  8 -1 -1</clus>
<clus scale="   29.292">  2  5  1 -1</clus>
</clustering>
</event>
<event>
 9    1  0.5981539E-005  0.2223942E+03  0.7546771E-02  0.1157457E+00
         21   -1    0    0  501  502  0.00000000000E+00  0.00000000000E+00  0.15535470010E+03  0.15535470010E+03  0.00000000000E+00 0.  1.
          1   -1    0    0  502    0 -0.00000000000E+00 -0.00000000000E+00 -0.61104672751E+03  0.61104672751E+03  0.00000000000E+00 0. -1.
        -24    2    1    2    0    0 -0.17277401290E+02 -0.92462883149E+02 -0.26570470624E+03  0.29208062194E+03  0.76578100255E+02 0.  0.
         23    2    1    2    0    0  0.21011244520E+03  0.44328261193E+02 -0.84055321368E+02  0.24910116937E+03  0.94201173900E+02 0.  0.
         13    1    3    3    0    0 -0.12247920394E+02 -0.76306413060E+02 -0.26399343248E+03  0.27507310414E+03  0.00000000000E+00 0. -1.
        -14    1    3    3    0    0 -0.50294808955E+01 -0.16156470089E+02 -0.17112737591E+01  0.17007517799E+02  0.00000000000E+00 0.  1.
        -11    1    4    4    0    0  0.12685508108E+03 -0.18076575524E+02 -0.28971003864E+02  0.13137082341E+03  0.00000000000E+00 0.  1.
         11    1    4    4    0    0  0.83257364123E+02  0.62404836716E+02 -0.55084317503E+02  0.11773034597E+03  0.00000000000E+00 0. -1.
          2    1    1    2  501    0 -0.19283504391E+03  0.48134621956E+02 -0.10593199980E+03  0.22521963630E+03  0.00000000000E+00 0. -1.
<scales pt_clust_5="13000.00000" pt_clust_6="13000.00000" pt_clust_7="13000.00000" pt_clust_8="13000.00000" pt_clust_9="201.45813"></scales>
<clustering>
<clus scale="   76.578">  5  6 -1 -1</clus>
<clus scale="   94.201">  7  8 -1 -1</clus>
<clus scale="  121.293">  2  5  1 -1</clus>
<clus scale="  201.458">  1  9  2 -1</clus>
<clus scale="  201.458">  1  5  2 -1</clus>
</clustering>
</event>
<event>
 9    1  0.5981539E-005  0.1105442E+03  0.7546771E-02  0.1264795E+00
          1   -1    0    0  502    0 -0.00000000000E+00  0.00000000000E+00  0.15245802012E+03  0.15245802012E+03  0.00000000000E+00 0. -1.
         21   -1    0    0  501  502  0.00000000000E+00 -0.00000000000E+00 -0.13550561424E+03  0.13550561424E+03  0.00000000000E+00 0. -1.
         23    2    1    2    0    0  0.11376210730E+02 -0.68441577056E+02  0.84423439222E+02  0.14226287763E+03  0.91091940484E+02 0.  0.
        -24    2    1    2    0    0 -0.18411853326E+02  0.38094177745E+02 -0.72212495085E+02  0.11418970515E+03  0.77681925793E+02 0.  0.
         11    1    4    4    0    0 -0.44850984394E+02  0.24993328919E+02 -0.66698055332E+02  0.84171894814E+02  0.00000000000E+00 0. -1.
        -12    1    4    4    0    0  0.26439131068E+02  0.13100848826E+02 -0.55144397529E+01  0.30017810336E+02  0.00000000000E+00 0.  1.
        -11    1    3    3    0    0  0.12358653099E+02 -0.90676234095E+02  0.73983800854E+02  0.11767972861E+03  0.00000000000E+00 0. -1.
         11    1    3    3    0    0 -0.98244236913E+00  0.22234657039E+02  0.10439638368E+02  0.24583149024E+02  0.00000000000E+00 0.  1.
          2    1    1    2  501    0  0.70356425967E+01  0.30347399311E+02  0.47414617423E+01  0.31511051571E+02  0.00000000000E+00 0. -1.
<scales pt_clust_5="13000.00000" pt_clust_6="13000.00000" pt_clust_7="13000.00000" pt_clust_8="13000.00000" pt_clust_9="31.15230"></scales>
<clustering>
<clus scale="   31.152">  2  9  1 -1</clus>
<clus scale="   77.682">  5  6 -1 -1</clus>
<clus scale="   91.092">  7  8 -1 -1</clus>
<clus scale="   99.784">  2  5  1 -1</clus>
<clus scale="   31.152">  2  5  1 -1</clus>
</clustering>
</event>
<event>
 9    1  0.5981539E-005  0.1270756E+03  0.7546771E-02  0.1252695E+00
         21   -1    0    0  501  502  0.00000000000E+00  0.00000000000E+00  0.13092883489E+03  0.13092883489E+03  0.00000000000E+00 0. -1.
          1   -1    0    0  502    0 -0.00000000000E+00 -0.00000000000E+00 -0.18889618298E+03  0.18889618298E+03  0.00000000000E+00 0. -1.
        -24    2    1    2    0    0 -0.89122681547E+01  0.18315131681E+02 -0.42932144454E+02  0.93768683808E+02  0.80836405557E+02 0.  0.
         23    2    1    2    0    0 -0.79256769823E+02 -0.29347850548E+02  0.24910367348E+02  0.12863380697E+03  0.93718717449E+02 0.  0.
         13    1    3    3    0    0 -0.40282534525E+02 -0.55558710940E+01 -0.34793236582E+02  0.53517470075E+02  0.00000000000E+00 0. -1.
        -14    1    3    3    0    0  0.31370266370E+02  0.23871002775E+02 -0.81389078728E+01  0.40251213733E+02  0.00000000000E+00 0.  1.
        -11    1    4    4    0    0 -0.15313543096E+02 -0.20700392074E+02 -0.33051774151E+02  0.41897859238E+02  0.00000000000E+00 0.  1.
         11    1    4    4    0    0 -0.63943226726E+02 -0.86474584743E+01  0.57962141499E+02  0.86735947735E+02  0.00000000000E+00 0. -1.
          2    1    1    2  501    0  0.88169037978E+02  0.11032718867E+02 -0.39945570982E+02  0.97422527090E+02  0.00000000000E+00 0. -1.
<scales pt_clust_5="13000.00000" pt_clust_6="13000.00000" pt_clust_7="13000.00000" pt_clust_8="13000.00000" pt_clust_9="85.81966"></scales>
<clustering>
<clus scale="   80.836">  5  6 -1 -1</clus>
<clus scale="   83.363">  2  5  1 -1</clus>
<clus scale="   85.820">  1  9  2 -1</clus>
<clus scale="   93.719">  7  8 -1 -1</clus>
<clus scale="   85.820">  1  5  2 -1</clus>
</clustering>
</event>
<event>
 9    1  0.5981539E-005  0.1705716E+03  0.7546771E-02  0.1183288E+00
         21   -1    0    0  501  502  0.00000000000E+00  0.00000000000E+00  0.35515619581E+03  0.35515619581E+03  0.00000000000E+00 0. -1.
          1   -1    0    0  502    0 -0.00000000000E+00 -0.00000000000E+00 -0.20416267683E+03  0.20416267683E+03  0.00000000000E+00 0. -1.
         23    2    1    2    0    0  0.20306499731E+02  0.11439319716E+03  0.10339497279E+03  0.18131287574E+03  0.93197001152E+02 0.  0.
        -24    2    1    2    0    0  0.11626052976E+03  0.37905354404E+02  0.74265524987E+02  0.17171365553E+03  0.94957277868E+02 0.  0.
         13    1    4    4    0    0  0.90360258859E+02 -0.64438633591E+01  0.12599534060E+02  0.91461729782E+02  0.00000000000E+00 0. -1.
        -14    1    4    4    0    0  0.25900270904E+02  0.44349217763E+02  0.61665990927E+02  0.80251925747E+02  0.00000000000E+00 0.  1.
        -11    1    3    3    0    0  0.11128454177E+02  0.78089164724E+02  0.85461574261E+01  0.79339756405E+02  0.00000000000E+00 0.  1.
         11    1    3    3    0    0  0.91780455545E+01  0.36304032433E+02  0.94848815362E+02  0.10197311933E+03  0.00000000000E+00 0. -1.
          2    1    1    2  501    0 -0.13656702949E+03 -0.15229855156E+03 -0.26666978794E+02  0.20629234138E+03  0.00000000000E+00 0. -1.
<scales pt_clust_5="13000.00000" pt_clust_6="13000.00000" pt_clust_7="13000.00000" pt_clust_8="13000.00000" pt_clust_9="141.69617"></scales>
<clustering>
<clus scale="   93.197">  7  8 -1 -1</clus>
<clus scale="   94.957">  5  6 -1 -1</clus>
<clus scale="  148.942">  2  7  1 -1</clus>
<clus scale="  141.696">  1  9  2 -1</clus>
<clus scale="  141.696">  1  5  2 -1</clus>
</clustering>
</event>
<event>
 9    1  0.5981539E-005  0.9952966E+02  0.7546771E-02  0.1289330E+00
         21   -1    0    0  501  502  0.00000000000E+00  0.00000000000E+00  0.34327483015E+02  0.34327483015E+02  0.00000000000E+00 0. -1.
          1   -1    0    0  502    0 -0.00000000000E+00 -0.00000000000E+00 -0.46980410835E+03  0.46980410835E+03  0.00000000000E+00 0. -1.
         23    2    1    2    0    0 -0.88240517934E+01 -0.45063572397E+02 -0.32117499943E+03  0.33762283840E+03  0.93419544549E+02 0.  0.
        -24    2    1    2    0    0 -0.14747107215E+02  0.12442795295E+02 -0.80392454295E+02  0.11388227147E+03  0.78319376409E+02 0.  0.
         13    1    4    4    0    0 -0.11585541353E+02 -0.32533744083E+02 -0.25975363185E+02  0.43213293847E+02  0.00000000000E+00 0. -1.
        -14    1    4    4    0    0 -0.31615658618E+01  0.44976539378E+02 -0.54417091110E+02  0.70668977621E+02  0.00000000000E+00 0.  1.
        -11    1    3    3    0    0 -0.35259644022E+02 -0.61009868889E+02 -0.18435988522E+03  0.19736771234E+03  0.00000000000E+00 0. -1.
         11    1    3    3    0    0  0.26435592228E+02  0.15946296492E+02 -0.13681511421E+03  0.14025512605E+03  0.00000000000E+00 0.  1.
          2    1    1    2  501    0  0.23571159008E+02  0.32620777102E+02 -0.33909171617E+02  0.52626481504E+02  0.00000000000E+00 0. -1.
<scales pt_clust_5="13000.00000" pt_clust_6="13000.00000" pt_clust_7="13000.00000" pt_clust_8="13000.00000" pt_clust_9="40.24568"></scales>
<clustering>
<clus scale="   40.246">  1  9  2 -1</clus>
<clus scale="   78.319">  5  6 -1 -1</clus>
<clus scale="   85.515">  1  5  2 -1</clus>
<clus scale="   93.420">  7  8 -1 -1</clus>
<clus scale="   40.246">  1  5  2 -1</clus>
</clustering>
</event>
<event>
 9    1  0.5981539E-005  0.1402489E+03  0.7546771E-02  0.1217298E+00
          3   -1    0    0  502    0 -0.00000000000E+00  0.00000000000E+00  0.67660791262E+02  0.67660791262E+02  0.00000000000E+00 0. -1.
         21   -1    0    0  501  502  0.00000000000E+00 -0.00000000000E+00 -0.40069697962E+03  0.40069697962E+03  0.00000000000E+00 0. -1.
         23    2    1    2    0    0 -0.11702412369E+03  0.38674830289E+02 -0.99616078777E+02  0.18342166854E+03  0.92356685287E+02 0.  0.
        -24    2    1    2    0    0  0.69975147313E+02 -0.38182656631E+02 -0.20016683103E+03  0.22731988112E+03  0.72478490592E+02 0.  0.
         11    1    4    4    0    0  0.56532519695E+02 -0.54388581418E+02 -0.18620660555E+03  0.20205678291E+03  0.00000000000E+00 0. -1.
        -12    1    4    4    0    0  0.13442627617E+02  0.16205924787E+02 -0.13960225485E+02  0.25263098208E+02  0.00000000000E+00 0.  1.
        -11    1    3    3    0    0 -0.30505689771E+01  0.33494913077E+02 -0.27321071792E+01  0.33744326675E+02  0.00000000000E+00 0.  1.
         11    1    3    3    0    0 -0.11397355471E+03  0.51799172115E+01 -0.96883971598E+02  0.14967734187E+03  0.00000000000E+00 0. -1.
          4    1    1    2  501    0  0.47048976378E+02 -0.49217365766E+00 -0.33253278550E+02  0.57616221218E+02  0.00000000000E+00 0. -1.
<scales pt_clust_5="13000.00000" pt_clust_6="13000.00000" pt_clust_7="13000.00000" pt_clust_8="13000.00000" pt_clust_9="47.05157"></scales>
<clustering>
<clus scale="   47.052">  2  9  1 -1</clus>
<clus scale="   72.478">  5  6 -1 -1</clus>
<clus scale="   92.357">  7  8 -1 -1</clus>
<clus scale="  128.036">  2  5  1 -1</clus>
<clus scale="   47.052">  2  5  1 -1</clus>
</clustering>
</event>
<event>
 9    1  0.5981539E-005  0.1723367E+03  0.7546771E-02  0.1184253E+00
          3   -1    0    0  502    0 -0.00000000000E+00  0.00000000000E+00  0.28968850025E+03  0.28968850025E+03  0.00000000000E+00 0. -1.
         21   -1    0    0  501  502  0.00000000000E+00 -0.00000000000E+00 -0.25362268844E+03  0.25362268844E+03  0.00000000000E+00 0. -1.
        -24    2    1    2    0    0 -0.51631952289E+02 -0.10439587797E+03 -0.68947830760E+02  0.15725450243E+03  0.80067579804E+02 0.  0.
         23    2    1    2    0    0 -0.10276991184E+03  0.10932874782E+03  0.14264621065E+03  0.22705832453E+03  0.93236856695E+02 0.  0.
         11    1    3    3    0    0 -0.46950999157E+02 -0.38678277282E+02 -0.68171173354E+02  0.91365826937E+02  0.00000000000E+00 0. -1.
        -12    1    3    3    0    0 -0.46809531313E+01 -0.65717600686E+02 -0.77665740595E+00  0.65888675498E+02  0.00000000000E+00 0.  1.
        -13    1    4    4    0    0 -0.51956723807E+02  0.78869076042E+02  0.13854404159E+03  0.16767314563E+03  0.00000000000E+00 0. -1.
         13    1    4    4    0    0 -0.50813188028E+02  0.30459671781E+02  0.41021690636E+01  0.59385178905E+02  0.00000000000E+00 0.  1.
          4    1    1    2  501    0  0.15440186412E+03 -0.49328698553E+01 -0.37632568086E+02  0.15899836172E+03  0.00000000000E+00 0. -1.
<scales pt_clust_5="13000.00000" pt_clust_6="13000.00000" pt_clust_7="13000.00000" pt_clust_8="13000.00000" pt_clust_9="144.93728"></scales>
<clustering>
<clus scale="   80.068">  5  6 -1 -1</clus>
<clus scale="   93.237">  7  8 -1 -1</clus>
<clus scale="  141.334">  1  5  2 -1</clus>
<clus scale="  144.937">  2  9  1 -1</clus>
<clus scale="  144.937">  2  5  1 -1</clus>
</clustering>
</event>
<event>
 9    1  0.5981539E-005  0.9827488E+02  0.7546771E-02  0.1290256E+00
         21   -1    0    0  501  502  0.00000000000E+00  0.00000000000E+00  0.74987697038E+02  0.74987697038E+02  0.00000000000E+00 0. -1.
          1   -1    0    0  502    0 -0.00000000000E+00 -0.00000000000E+00 -0.26292759968E+03  0.26292759968E+03  0.00000000000E+00 0. -1.
        -24    2    1    2    0    0 -0.28708536092E+02 -0.21527651659E+02 -0.18992607299E+03  0.20901658981E+03  0.79551252565E+02 0.  0.
         23    2    1    2    0    0  0.44025865032E+02 -0.40823129933E+00  0.67422441207E+01  0.10172475311E+03  0.91455038651E+02 0.  0.
         13    1    3    3    0    0 -0.48429093089E+01 -0.48932481840E+02 -0.87998444637E+02  0.10080460212E+03  0.00000000000E+00 0. -1.
        -14    1    3    3    0    0 -0.23865626783E+02  0.27404830181E+02 -0.10192762835E+03  0.10821198769E+03  0.00000000000E+00 0.  1.
        -11    1    4    4    0    0 -0.55553417885E+01 -0.24277774713E+02 -0.27351192612E+02  0.36991349052E+02  0.00000000000E+00 0.  1.
         11    1    4    4    0    0  0.49581206821E+02  0.23869543414E+02  0.34093436732E+02  0.64733404057E+02  0.00000000000E+00 0. -1.
          2    1    1    2  501    0 -0.15317328940E+02  0.21935882959E+02 -0.47560737679E+01  0.27173953793E+02  0.00000000000E+00 0. -1.
<scales pt_clust_5="13000.00000" pt_clust_6="13000.00000" pt_clust_7="13000.00000" pt_clust_8="13000.00000" pt_clust_9="26.75450"></scales>
<clustering>
<clus scale="   26.755">  1  9  2 -1</clus>
<clus scale="   79.551">  5  6 -1 -1</clus>
<clus scale="   87.306">  2  5  1 -1</clus>
<clus scale="   91.455">  7  8 -1 -1</clus>
<clus scale="   26.755">  1  5  2 -1</clus>
</clustering>
</event>
<event>
 9    1  0.5981539E-005  0.1327100E+03  0.7546771E-02  0.1224929E+00
         -4   -1    0    0    0  501 -0.00000000000E+00  0.00000000000E+00  0.53327585500E+02  0.53327585500E+02  0.00000000000E+00 0.  1.
         21   -1    0    0  501  502  0.00000000000E+00 -0.00000000000E+00 -0.51620805682E+03  0.51620805682E+03  0.00000000000E+00 0.  1.
         23    2    1    2    0    0 -0.88156994236E+02 -0.40063488224E+02 -0.15603709041E+03  0.20476797450E+03  0.90584828075E+02 0.  0.
        -24    2    1    2    0    0  0.59884076046E+02  0.87837142021E+02 -0.25417123511E+03  0.28824293427E+03  0.84731967524E+02 0.  0.
         11    1    4    4    0    0  0.65673195214E+02  0.23980049697E+02 -0.10836589451E+03  0.12896192634E+03  0.00000000000E+00 0. -1.
        -12    1    4    4    0    0 -0.57891191675E+01  0.63857092324E+02 -0.14580534060E+03  0.15928100794E+03  0.00000000000E+00 0.  1.
        -13    1    3    3    0    0 -0.68605390815E+02 -0.68234110100E+02 -0.10058960801E+03  0.13957386098E+03  0.00000000000E+00 0.  1.
         13    1    3    3    0    0 -0.19551603421E+02  0.28170621877E+02 -0.55447482403E+02  0.65194113523E+02  0.00000000000E+00 0. -1.
         -3    1    1    2    0  502  0.28272918190E+02 -0.47773653798E+02 -0.52672145800E+02  0.76524733539E+02  0.00000000000E+00 0.  1.
<scales pt_clust_5="13000.00000" pt_clust_6="13000.00000" pt_clust_7="13000.00000" pt_clust_8="13000.00000" pt_clust_9="55.51291"></scales>
<clustering>
<clus scale="   55.513">  2  9  1 -1</clus>
<clus scale="   84.732">  5  6 -1 -1</clus>
<clus scale="   90.585">  7  8 -1 -1</clus>
<clus scale="  128.786">  2  5  1 -1</clus>
<clus scale="   55.513">  2  5  1 -1</clus>
</clustering>
</event>
<event>
 9    1  0.5981539E-005  0.1172619E+03  0.7546771E-02  0.1250721E+00
         -2   -1    0    0    0  501 -0.00000000000E+00  0.00000000000E+00  0.46216165893E+03  0.46216165893E+03  0.00000000000E+00 0.  1.
         21   -1    0    0  501  502  0.00000000000E+00 -0.00000000000E+00 -0.57879052030E+02  0.57879052030E+02  0.00000000000E+00 0.  1.
         23    2    1    2    0    0 -0.63886018821E+02  0.25682079906E+02  0.11950312322E+03  0.16441823117E+03  0.89506232486E+02 0.  0.
        -24    2    1    2    0    0  0.51065114544E+02 -0.79521308772E+02  0.90171612638E+02  0.15329783566E+03  0.80237286960E+02 0.  0.
         13    1    4    4    0    0  0.15479708846E+01 -0.71068113881E+02  0.68058482483E+02  0.98412550330E+02  0.00000000000E+00 0. -1.
        -14    1    4    4    0    0  0.49517143659E+02 -0.84531948902E+01  0.22113130155E+02  0.54885285325E+02  0.00000000000E+00 0.  1.
        -13    1    3    3    0    0 -0.79895308316E+02  0.17048922394E-01  0.69084016034E+02  0.10562131344E+03  0.00000000000E+00 0.  1.
         13    1    3    3    0    0  0.16009289495E+02  0.25665030983E+02  0.50419107184E+02  0.58796917731E+02  0.00000000000E+00 0. -1.
         -1    1    1    2    0  502  0.12820904278E+02  0.53839228866E+02  0.19460787105E+03  0.20232464414E+03  0.00000000000E+00 0.  1.
<scales pt_clust_5="13000.00000" pt_clust_6="13000.00000" pt_clust_7="13000.00000" pt_clust_8="13000.00000" pt_clust_9="55.34475"></scales>
<clustering>
<clus scale="   55.345">  2  9  1 -1</clus>
<clus scale="   80.237">  5  6 -1 -1</clus>
<clus scale="   89.506">  7  8 -1 -1</clus>
<clus scale="  110.349">  2  5  1 -1</clus>
<clus scale="   55.345">  2  5  1 -1</clus>
</clustering>
</event>
<event>
 9    1  0.5981539E-005  0.3732590E+03  0.7546771E-02  0.1053644E+00
         21   -1    0    0  501  502  0.00000000000E+00  0.00000000000E+00  0.77922752842E+03  0.77922752842E+03  0.00000000000E+00 0.  1.
          3   -1    0    0  502    0 -0.00000000000E+00 -0.00000000000E+00 -0.22133847833E+03  0.22133847833E+03  0.00000000000E+00 0. -1.
         23    2    1    2    0    0  0.11328807378E+02  0.35843495595E+03  0.14798992655E+03  0.39863753286E+03  0.91689174505E+02 0.  0.
        -24    2    1    2    0    0 -0.45180890127E+02 -0.36435830469E+03  0.28436545820E+03  0.47177567636E+03  0.83128141821E+02 0.  0.
         13    1    4    4    0    0  0.11526880632E+02 -0.20240014642E+02  0.26372587552E+01  0.23441038875E+02  0.00000000000E+00 0. -1.
        -14    1    4    4    0    0 -0.56707770759E+02 -0.34411829005E+03  0.28172819944E+03  0.44833463749E+03  0.00000000000E+00 0.  1.
        -11    1    3    3    0    0 -0.32139333179E+02  0.72656950700E+02  0.16844058429E+02  0.81213862896E+02  0.00000000000E+00 0.  1.
         11    1    3    3    0    0  0.43468140557E+02  0.28577800525E+03  0.13114586812E+03  0.31742366997E+03  0.00000000000E+00 0. -1.
          4    1    1    2  501    0  0.33852082749E+02  0.59233487390E+01  0.12553366535E+03  0.13015279752E+03  0.00000000000E+00 0. -1.
<scales pt_clust_5="13000.00000" pt_clust_6="13000.00000" pt_clust_7="13000.00000" pt_clust_8="13000.00000" pt_clust_9="34.36640"></scales>
<clustering>
<clus scale="   34.366">  1  9  2 -1</clus>
<clus scale="   83.128">  5  6 -1 -1</clus>
<clus scale="   91.689">  7  8 -1 -1</clus>
<clus scale="  371.249">  1  5  2 -1</clus>
<clus scale="   34.366">  1  5  2 -1</clus>
</clustering>
</event>
<event>
 9    1  0.5981539E-005  0.9842847E+02  0.7546771E-02  0.1290018E+00
         21   -1    0    0  501  502  0.00000000000E+00  0.00000000000E+00  0.37836302292E+02  0.37836302292E+02  0.00000000000E+00 0. -1.
          1   -1    0    0  502    0 -0.00000000000E+00 -0.00000000000E+00 -0.76250049671E+03  0.76250049671E+03  0.00000000000E+00 0. -1.
        -24    2    1    2    0    0  0.19593589352E+02 -0.18352589810E+02 -0.43401477854E+03  0.44230738110E+03  0.80908992642E+02 0.  0.
         23    2    1    2    0    0 -0.87431355578E+02 -0.25212810393E+01 -0.12860792388E+03  0.18112513265E+03  0.92820885564E+02 0.  0.
         11    1    3    3    0    0  0.48673878090E+02  0.34802297595E+01 -0.25837300328E+03  0.26294080556E+03  0.00000000000E+00 0. -1.
        -12    1    3    3    0    0 -0.29080288738E+02 -0.21832819569E+02 -0.17564177526E+03  0.17936657554E+03  0.00000000000E+00 0.  1.
        -11    1    4    4    0    0 -0.64771377683E+02  0.35979690996E+02 -0.46001871147E+02  0.87212623399E+02  0.00000000000E+00 0. -1.
         11    1    4    4    0    0 -0.22659977895E+02 -0.38500972035E+02 -0.82606052736E+02  0.93912509254E+02  0.00000000000E+00 0.  1.
          2    1    1    2  501    0  0.67837766226E+02  0.20873870849E+02 -0.16204149199E+03  0.17690428524E+03  0.00000000000E+00 0. -1.
<scales pt_clust_5="13000.00000" pt_clust_6="13000.00000" pt_clust_7="13000.00000" pt_clust_8="13000.00000" pt_clust_9="70.97666"></scales>
<clustering>
<clus scale="   70.977">  1  9  2 -1</clus>
<clus scale="   80.909">  5  6 -1 -1</clus>
<clus scale="   87.285">  2  5  1 -1</clus>
<clus scale="   92.821">  7  8 -1 -1</clus>
<clus scale="   70.977">  1  5  2 -1</clus>
</clustering>
</event>
<event>
 9    1  0.5981539E-005  0.1519110E+03  0.7546771E-02  0.1199718E+00
          1   -1    0    0  502    0 -0.00000000000E+00  0.00000000000E+00  0.56915551215E+03  0.56915551215E+03  0.00000000000E+00 0. -1.
         21   -1    0    0  501  502  0.00000000000E+00 -0.00000000000E+00 -0.50098172175E+02  0.50098172175E+02  0.00000000000E+00 0.  1.
         23    2    1    2    0    0  0.10773882080E+03  0.62836562434E+02  0.29934736763E+03  0.33661760618E+03  0.90257848390E+02 0.  0.
        -24    2    1    2    0    0 -0.11489853056E+03 -0.35468376348E+02  0.15699930318E+03  0.21383995121E+03  0.81357639417E+02 0.  0.
         11    1    4    4    0    0 -0.83378709161E+02  0.15859113034E+02  0.95283758343E+02  0.12760295926E+03  0.00000000000E+00 0. -1.
        -12    1    4    4    0    0 -0.31519821397E+02 -0.51327489382E+02  0.61715544832E+02  0.86236991953E+02  0.00000000000E+00 0.  1.
        -13    1    3    3    0    0  0.11148000545E+03  0.24725697080E+02  0.20254180926E+03  0.23251308825E+03  0.00000000000E+00 0. -1.
         13    1    3    3    0    0 -0.37411846510E+01  0.38110865355E+02  0.96805558374E+02  0.10410451793E+03  0.00000000000E+00 0.  1.
          2    1    1    2  501    0  0.71597097589E+01 -0.27368186086E+02  0.62710669169E+02  0.68796126934E+02  0.00000000000E+00 0. -1.
<scales pt_clust_5="13000.00000" pt_clust_6="13000.00000" pt_clust_7="13000.00000" pt_clust_8="13000.00000" pt_clust_9="28.28922"></scales>
<clustering>
<clus scale="   28.289">  2  9  1 -1</clus>
<clus scale="   81.358">  5  6 -1 -1</clus>
<clus scale="   90.258">  7  8 -1 -1</clus>
<clus scale="  146.798">  2  5  1 -1</clus>
<clus scale="   28.289">  2  5  1 -1</clus>
</clustering>
</event>
<event>
 9    1  0.5981539E-005  0.1399029E+03  0.7546771E-02  0.1237060E+00
         21   -1    0    0  501  502  0.00000000000E+00  0.00000000000E+00  0.19224469345E+03  0.19224469345E+03  0.00000000000E+00 0. -1.
          1   -1    0    0  502    0 -0.00000000000E+00 -0.00000000000E+00 -0.17530236734E+03  0.17530236734E+03  0.00000000000E+00 0. -1.
        -24    2    1    2    0    0 -0.15421302740E+02  0.12258082116E+02  0.37932038310E+02  0.93630403008E+02  0.83305075966E+02 0.  0.
         23    2    1    2    0    0  0.10079546358E+03  0.48718939854E+02 -0.67347088401E+02  0.15921726426E+03  0.91001353527E+02 0.  0.
         11    1    3    3    0    0  0.50570240597E+01 -0.21942069798E+02  0.47560556529E+02  0.52621615870E+02  0.00000000000E+00 0. -1.
        -12    1    3    3    0    0 -0.20478326799E+02  0.34200151914E+02 -0.96285182189E+01  0.41008787138E+02  0.00000000000E+00 0.  1.
        -13    1    4    4    0    0  0.73038926340E+02  0.27288810378E+02 -0.88749763120E+02  0.11813502608E+03  0.00000000000E+00 0. -1.
         13    1    4    4    0    0  0.27756537236E+02  0.21430129477E+02  0.21402674719E+02  0.41082238180E+02  0.00000000000E+00 0.  1.
          2    1    1    2  501    0 -0.85374160836E+02 -0.60977021970E+02  0.46357376207E+02  0.11469939353E+03  0.00000000000E+00 0. -1.
<scales pt_clust_5="13000.00000" pt_clust_6="13000.00000" pt_clust_7="13000.00000" pt_clust_8="13000.00000" pt_clust_9="106.26177"></scales>
<clustering>
<clus scale="   83.305">  5  6 -1 -1</clus>
<clus scale="   85.603">  2  5  1 -1</clus>
<clus scale="   91.001">  7  8 -1 -1</clus>
<clus scale="  106.262">  1  9  2 -1</clus>
<clus scale="  106.262">  1  5  2 -1</clus>
</clustering>
</event>
<event>
 9    1  0.5981539E-005  0.1402845E+03  0.7546771E-02  0.1226741E+00
         -4   -1    0    0    0  501 -0.00000000000E+00  0.00000000000E+00  0.21353534460E+03  0.21353534460E+03  0.00000000000E+00 0.  1.
         21   -1    0    0  501  502  0.00000000000E+00 -0.00000000000E+00 -0.17165946687E+03  0.17165946687E+03  0.00000000000E+00 0.  1.
         23    2    1    2    0    0  0.16110235756E+02 -0.38195390906E+02  0.69998298778E+02  0.12619298449E+03  0.96470098575E+02 0.  0.
        -24    2    1    2    0    0 -0.16666456791E+02 -0.92925513821E+02 -0.13231401005E+01  0.12516908623E+03  0.82174372814E+02 0.  0.
         11    1    4    4    0    0  0.21992717743E+02 -0.30918467394E+02 -0.28239570572E+02  0.47298040190E+02  0.00000000000E+00 0. -1.
        -12    1    4    4    0    0 -0.38659174533E+02 -0.62007046427E+02  0.26916430472E+02  0.77871046041E+02  0.00000000000E+00 0.  1.
        -13    1    3    3    0    0 -0.21867512737E+02 -0.37820895095E+02  0.76078316900E+02  0.87729804066E+02  0.00000000000E+00 0. -1.
         13    1    3    3    0    0  0.37977748493E+02 -0.37449581165E+00 -0.60800181219E+01  0.38463180421E+02  0.00000000000E+00 0.  1.
         -3    1    1    2    0  502  0.55622103460E+00  0.13112090473E+03 -0.26799280953E+02  0.13383274075E+03  0.00000000000E+00 0.  1.
<scales pt_clust_5="13000.00000" pt_clust_6="13000.00000" pt_clust_7="13000.00000" pt_clust_8="13000.00000" pt_clust_9="113.69750"></scales>
<clustering>
<clus scale="   82.174">  5  6 -1 -1</clus>
<clus scale="   96.470">  7  8 -1 -1</clus>
<clus scale="  105.000">  1  7  2 -1</clus>
<clus scale="  113.697">  2  9  1 -1</clus>
<clus scale="  113.697">  2  5  1 -1</clus>
</clustering>
</event>
<event>
 9    1  0.5981539E-005  0.1250562E+03  0.7546771E-02  0.1238734E+00
         21   -1    0    0  501  502  0.00000000000E+00  0.00000000000E+00  0.65831745031E+02  0.65831745031E+02  0.00000000000E+00 0.  1.
          1   -1    0    0  502    0 -0.00000000000E+00 -0.00000000000E+00 -0.44809287961E+03  0.44809287961E+03  0.00000000000E+00 0. -1.
        -24    2    1    2    0    0 -0.30114715495E+02  0.81996039369E+02 -0.25993015447E+03  0.28591031501E+03  0.80936867168E+02 0.  0.
         23    2    1    2    0    0  0.10697505142E+02 -0.65258470715E+02 -0.12616638606E+02  0.11534483287E+03  0.93659736723E+02 0.  0.
         11    1    3    3    0    0 -0.27347735891E+02 -0.78967794236E+01 -0.76364151554E+02  0.81496879856E+02  0.00000000000E+00 0. -1.
        -12    1    3    3    0    0 -0.27669796033E+01  0.89892818793E+02 -0.18356600291E+03  0.20441343516E+03  0.00000000000E+00 0.  1.
        -13    1    4    4    0    0  0.49059383266E+02 -0.15470653898E+02 -0.11436119372E+01  0.51453591388E+02  0.00000000000E+00 0.  1.
         13    1    4    4    0    0 -0.38361878124E+02 -0.49787816818E+02 -0.11473026669E+02  0.63891241478E+02  0.00000000000E+00 0. -1.
          2    1    1    2  501    0  0.19417210352E+02 -0.16737568654E+02 -0.10971434151E+03  0.11266947677E+03  0.00000000000E+00 0. -1.
<scales pt_clust_5="13000.00000" pt_clust_6="13000.00000" pt_clust_7="13000.00000" pt_clust_8="13000.00000" pt_clust_9="25.63542"></scales>
<clustering>
<clus scale="   25.635">  1  9  2 -1</clus>
<clus scale="   80.937">  5  6 -1 -1</clus>
<clus scale="   93.660">  7  8 -1 -1</clus>
<clus scale="  115.835">  2  5  1 -1</clus>
<clus scale="   25.635">  1  5  2 -1</clus>
</clustering>
</event>
<event>
 9    1  0.5981539E-005  0.1307882E+03  0.7546771E-02  0.1242352E+00
         21   -1    0    0  501  502  0.00000000000E+00  0.00000000000E+00  0.46035344426E+02  0.46035344426E+02  0.00000000000E+00 0. -1.
          1   -1    0    0  502    0 -0.00000000000E+00 -0.00000000000E+00 -0.61835989661E+03  0.61835989661E+03  0.00000000000E+00 0. -1.
        -24    2    1    2    0    0 -0.13092770889E+02  0.46552938600E+02 -0.91536159236E+02  0.13127249730E+03  0.80715570728E+02 0.  0.
         23    2    1    2    0    0 -0.41487048801E+02  0.49968992231E+02 -0.30823631831E+03  0.32801384995E+03  0.91462464595E+02 0.  0.
         13    1    3    3    0    0 -0.38495600499E+02  0.22853070864E+02 -0.14989588463E+02  0.47210823631E+02  0.00000000000E+00 0. -1.
        -14    1    3    3    0    0  0.25402829609E+02  0.23699867736E+02 -0.76546570773E+02  0.84061673669E+02  0.00000000000E+00 0.  1.
        -11    1    4    4    0    0  0.97331570150E+01  0.23776570691E+02 -0.16216879558E+02  0.30381685962E+02  0.00000000000E+00 0.  1.
         11    1    4    4    0    0 -0.51220205816E+02  0.26192421540E+02 -0.29201943875E+03  0.29763216398E+03  0.00000000000E+00 0. -1.
          2    1    1    2  501    0  0.54579819691E+02 -0.96521930832E+02 -0.17255207464E+03  0.20510889379E+03  0.00000000000E+00 0. -1.
<scales pt_clust_5="13000.00000" pt_clust_6="13000.00000" pt_clust_7="13000.00000" pt_clust_8="13000.00000" pt_clust_9="93.48887"></scales>
<clustering>
<clus scale="   80.716">  5  6 -1 -1</clus>
<clus scale="   91.462">  7  8 -1 -1</clus>
<clus scale="   94.094">  2  5  1 -1</clus>
<clus scale="   93.489">  1  9  2 -1</clus>
<clus scale="   93.489">  1  5  2 -1</clus>
</clustering>
</event>
<event>
 9    1  0.5981539E-005  0.1076276E+03  0.7546771E-02  0.1268306E+00
         21   -1    0    0  501  502  0.00000000000E+00  0.00000000000E+00  0.89273366362E+02  0.89273366362E+02  0.00000000000E+00 0. -1.
          1   -1    0    0  502    0 -0.00000000000E+00 -0.00000000000E+00 -0.47858355887E+03  0.47858355887E+03  0.00000000000E+00 0. -1.
        -24    2    1    2    0    0  0.16523800682E+02 -0.70941681072E+02 -0.35018127791E+03  0.36673141974E+03  0.80989188905E+02 0.  0.
         23    2    1    2    0    0  0.33770377452E+02  0.28361071963E+02 -0.76406389782E+02  0.12541406130E+03  0.89140123263E+02 0.  0.
         13    1    3    3    0    0  0.44076799006E+02 -0.64447532488E+02 -0.28824569811E+03  0.29863327198E+03  0.00000000000E+00 0. -1.
        -14    1    3    3    0    0 -0.27552998324E+02 -0.64941485840E+01 -0.61935579806E+02  0.68098147760E+02  0.00000000000E+00 0.  1.
        -13    1    4    4    0    0 -0.25105590618E+02 -0.11956538351E+02 -0.25805232269E+02  0.37936255773E+02  0.00000000000E+00 0.  1.
         13    1    4    4    0    0  0.58875968070E+02  0.40317610314E+02 -0.50601157513E+02  0.87477805524E+02  0.00000000000E+00 0. -1.
          2    1    1    2  501    0 -0.50294178134E+02  0.42580609109E+02  0.37277475187E+02  0.75711444199E+02  0.00000000000E+00 0. -1.
<scales pt_clust_5="13000.00000" pt_clust_6="13000.00000" pt_clust_7="13000.00000" pt_clust_8="13000.00000" pt_clust_9="65.89850"></scales>
<clustering>
<clus scale="   65.899">  1  9  2 -1</clus>
<clus scale="   80.989">  5  6 -1 -1</clus>
<clus scale="   89.140">  7  8 -1 -1</clus>
<clus scale="  100.980">  2  5  1 -1</clus>
<clus scale="   65.899">  1  5  2 -1</clus>
</clustering>
</event>
<event>
 9    1  0.5981539E-005  0.9942173E+02  0.7546771E-02  0.1284047E+00
         21   -1    0    0  501  502  0.00000000000E+00  0.00000000000E+00  0.42497805036E+03  0.42497805036E+03  0.00000000000E+00 0.  1.
          1   -1    0    0  502    0 -0.00000000000E+00 -0.00000000000E+00 -0.39880781377E+02  0.39880781377E+02  0.00000000000E+00 0. -1.
         23    2    1    2    0    0  0.52636664656E+02 -0.11120721913E+02  0.56073348520E+02  0.11562741697E+03  0.85622369849E+02 0.  0.
        -24    2    1    2    0    0 -0.33937232487E+02  0.27848295127E+02  0.27152639129E+03  0.28649827895E+03  0.80171187978E+02 0.  0.
         13    1    4    4    0    0 -0.28808643004E+02 -0.24291402305E+02  0.90207311974E+02  0.97761798630E+02  0.00000000000E+00 0. -1.
        -14    1    4    4    0    0 -0.51285894834E+01  0.52139697432E+02  0.18131907932E+03  0.18873648032E+03  0.00000000000E+00 0.  1.
        -11    1    3    3    0    0  0.10640753103E+02  0.35556904234E+02  0.29654120058E+02  0.47506693231E+02  0.00000000000E+00 0.  1.
         11    1    3    3    0    0  0.41995911553E+02 -0.46677626147E+02  0.26419228462E+02  0.68120723737E+02  0.00000000000E+00 0. -1.
          2    1    1    2  501    0 -0.18699432169E+02 -0.16727573214E+02  0.57497529168E+02  0.62733135817E+02  0.00000000000E+00 0. -1.
<scales pt_clust_5="13000.00000" pt_clust_6="13000.00000" pt_clust_7="13000.00000" pt_clust_8="13000.00000" pt_clust_9="25.08945"></scales>
<clustering>
<clus scale="   25.089">  1  9  2 -1</clus>
<clus scale="   80.171">  5  6 -1 -1</clus>
<clus scale="   85.622">  7  8 -1 -1</clus>
<clus scale="   94.768">  1  5  2 -1</clus>
<clus scale="   25.089">  1  5  2 -1</clus>
</clustering>
</event>
<event>
 9    1  0.5981539E-005  0.9446939E+02  0.7546771E-02  0.1298735E+00
          1   -1    0    0  502    0 -0.00000000000E+00  0.00000000000E+00  0.47546302395E+03  0.47546302395E+03  0.00000000000E+00 0. -1.
         21   -1    0    0  501  502  0.00000000000E+00 -0.00000000000E+00 -0.50932942942E+02  0.50932942942E+02  0.00000000000E+00 0.  1.
         23    2    1    2    0    0  0.15232874647E+02 -0.12913301568E+02  0.36631792721E+03  0.37795933531E+03  0.90915573599E+02 0.  0.
        -24    2    1    2    0    0 -0.39196385995E+02  0.28609731157E+02  0.70659785367E+02  0.11720249466E+03  0.79929632137E+02 0.  0.
         13    1    4    4    0    0  0.14735863215E+02  0.34498849522E+02  0.18051741895E+02  0.41631498514E+02  0.00000000000E+00 0. -1.
        -14    1    4    4    0    0 -0.53932249211E+02 -0.58891183648E+01  0.52608043472E+02  0.75570996143E+02  0.00000000000E+00 0.  1.
        -13    1    3    3    0    0 -0.10069674040E+02  0.32858913797E+02  0.82652170250E+02  0.89512500793E+02  0.00000000000E+00 0.  1.
         13    1    3    3    0    0  0.25302548687E+02 -0.45772215365E+02  0.28366575696E+03  0.28844683451E+03  0.00000000000E+00 0. -1.
          2    1    1    2  501    0  0.23963511349E+02 -0.15696429589E+02 -0.12447631569E+02  0.31234136929E+02  0.00000000000E+00 0. -1.
<scales pt_clust_5="13000.00000" pt_clust_6="13000.00000" pt_clust_7="13000.00000" pt_clust_8="13000.00000" pt_clust_9="28.64660"></scales>
<clustering>
<clus scale="   28.647">  2  9  1 -1</clus>
<clus scale="   79.930">  5  6 -1 -1</clus>
<clus scale="   83.950">  2  5  1 -1</clus>
<clus scale="   90.916">  7  8 -1 -1</clus>
<clus scale="   28.647">  2  5  1 -1</clus>
</clustering>
</event>
<event>
 9    1  0.5981539E-005  0.1284489E+03  0.7546771E-02  0.1232947E+00
         21   -1    0    0  501  502  0.00000000000E+00  0.00000000000E+00  0.16719609575E+03  0.16719609575E+03  0.00000000000E+00 0.  1.
         -4   -1    0    0    0  501 -0.00000000000E+00 -0.00000000000E+00 -0.23315459640E+03  0.23315459640E+03  0.00000000000E+00 0.  1.
        -24    2    1    2    0    0  0.99017500446E+02  0.17339069129E+02 -0.12360130447E+03  0.17846399684E+03  0.80417703208E+02 0.  0.
         23    2    1    2    0    0 -0.33466347829E+02 -0.75094438405E+02  0.53070802924E+02  0.13440218536E+03  0.92131787073E+02 0.  0.
         11    1    3    3    0    0  0.30306329940E+02  0.38957263876E+02 -0.22293338926E+02  0.54158425047E+02  0.00000000000E+00 0. -1.
        -12    1    3    3    0    0  0.68711170506E+02 -0.21618194747E+02 -0.10130796555E+03  0.12430557180E+03  0.00000000000E+00 0.  1.
        -11    1    4    4    0    0 -0.62965679351E+01 -0.87690173075E+02  0.56118524962E+02  0.10430005784E+03  0.00000000000E+00 0.  1.
         11    1    4    4    0    0 -0.27169779894E+02  0.12595734670E+02 -0.30477220378E+01  0.30102127516E+02  0.00000000000E+00 0. -1.
         -3    1    1    2    0  502 -0.65551152617E+02  0.57755369276E+02  0.45720009002E+01  0.87484509954E+02  0.00000000000E+00 0.  1.
<scales pt_clust_5="13000.00000" pt_clust_6="13000.00000" pt_clust_7="13000.00000" pt_clust_8="13000.00000" pt_clust_9="87.36496"></scales>
<clustering>
<clus scale="   80.418">  5  6 -1 -1</clus>
<clus scale="   87.365">  1  9  2 -1</clus>
<clus scale="   92.132">  7  8 -1 -1</clus>
<clus scale="  120.324">  2  5  1 -1</clus>
<clus scale="   87.365">  1  5  2 -1</clus>
</clustering>
</event>
<event>
 9    1  0.5981539E-005  0.2481162E+03  0.7546771E-02  0.1115018E+00
         21   -1    0    0  501  502  0.00000000000E+00  0.00000000000E+00  0.67076054670E+02  0.67076054670E+02  0.00000000000E+00 0.  1.
          1   -1    0    0  502    0 -0.00000000000E+00 -0.00000000000E+00 -0.14543629521E+04  0.14543629521E+04  0.00000000000E+00 0. -1.
         23    2    1    2    0    0  0.95057234116E+02 -0.20124235150E+03 -0.92663306788E+03  0.95719513546E+03  0.89662272268E+02 0.  0.
        -24    2    1    2    0    0 -0.89666782728E+02  0.24385896898E+03 -0.33524549802E+03  0.43168263011E+03  0.80330694738E+02 0.  0.
         13    1    4    4    0    0 -0.34282244457E+02  0.19409351873E+02 -0.34620329182E+02  0.52445804578E+02  0.00000000000E+00 0. -1.
        -14    1    4    4    0    0 -0.55384538271E+02  0.22444961711E+03 -0.30062516884E+03  0.37923682553E+03  0.00000000000E+00 0.  1.
        -13    1    3    3    0    0  0.62215748683E+02 -0.19720070233E+03 -0.79042252906E+03  0.81702306628E+03  0.00000000000E+00 0.  1.
         13    1    3    3    0    0  0.32841485434E+02 -0.40416491634E+01 -0.13621053882E+03  0.14017206918E+03  0.00000000000E+00 0. -1.
          2    1    1    2  501    0 -0.53904513883E+01 -0.42616617484E+02 -0.12540833152E+03  0.13256124120E+03  0.00000000000E+00 0. -1.
<scales pt_clust_5="13000.00000" pt_clust_6="13000.00000" pt_clust_7="13000.00000" pt_clust_8="13000.00000" pt_clust_9="42.95620"></scales>
<clustering>
<clus scale="   42.956">  1  9  2 -1</clus>
<clus scale="   80.331">  5  6 -1 -1</clus>
<clus scale="   89.662">  7  8 -1 -1</clus>
<clus scale="  244.899">  1  5  2 -1</clus>
<clus scale="   42.956">  1  5  2 -1</clus>
</clustering>
</event>
<event>
 9    1  0.5981539E-005  0.1257099E+03  0.7546771E-02  0.1235946E+00
         21   -1    0    0  501  502  0.00000000000E+00  0.00000000000E+00  0.20517273239E+03  0.20517273239E+03  0.00000000000E+00 0.  1.
          1   -1    0    0  502    0 -0.00000000000E+00 -0.00000000000E+00 -0.12031156261E+03  0.12031156261E+03  0.00000000000E+00 0. -1.
         23    2    1    2    0    0 -0.47984712829E+02  0.66286247597E+02 -0.14014583551E+02  0.12113597126E+03  0.88210632556E+02 0.  0.
        -24    2    1    2    0    0  0.77216987059E+02 -0.68973316427E+02  0.38047796729E+02  0.13680732507E+03  0.80924828625E+02 0.  0.
         11    1    4    4    0    0  0.15988335163E+02  0.12510681426E+02 -0.11656007428E+02  0.23409539085E+02  0.00000000000E+00 0. -1.
        -12    1    4    4    0    0  0.61228651896E+02 -0.81483997853E+02  0.49703804156E+02  0.11339778599E+03  0.00000000000E+00 0.  1.
        -13    1    3    3    0    0 -0.57685581880E+02  0.48310166963E+01 -0.31066075772E+01  0.57970821020E+02  0.00000000000E+00 0.  1.
         13    1    3    3    0    0  0.97008690505E+01  0.61455230900E+02 -0.10907975973E+02  0.63165150243E+02  0.00000000000E+00 0. -1.
          2    1    1    2  501    0 -0.29232274230E+02  0.26870688305E+01  0.60827956604E+02  0.67540998661E+02  0.00000000000E+00 0. -1.
<scales pt_clust_5="13000.00000" pt_clust_6="13000.00000" pt_clust_7="13000.00000" pt_clust_8="13000.00000" pt_clust_9="29.35551"></scales>
<clustering>
<clus scale="   29.356">  1  9  2 -1</clus>
<clus scale="   80.925">  5  6 -1 -1</clus>
<clus scale="   88.211">  7  8 -1 -1</clus>
<clus scale="  120.709">  1  5  2 -1</clus>
<clus scale="   29.356">  1  5  2 -1</clus>
</clustering>
</event>
<event>
 9    1  0.6707080E-005  0.2568789E+03  0.7546771E-02  0.1109571E+00
          1   -1    0    0  502    0 -0.00000000000E+00  0.00000000000E+00  0.11660585430E+04  0.11660585430E+04  0.00000000000E+00 0. -1.
         21   -1    0    0  501  502  0.00000000000E+00 -0.00000000000E+00 -0.91885239945E+02  0.91885239945E+02  0.00000000000E+00 0. -1.
        -24    2    1    2    0    0 -0.24236938559E+03 -0.74447686525E+02  0.66295367000E+03  0.71409827909E+03  0.78379885982E+02 0.  0.
         23    2    1    2    0    0  0.20199929167E+03  0.54701571702E+02  0.13602746020E+03  0.26500794266E+03  0.89049222145E+02 0.  0.
         13    1    3    3    0    0 -0.21871427416E+03 -0.46072988292E+02  0.51147976641E+03  0.55818474130E+03  0.00000000000E+00 0. -1.
        -14    1    3    3    0    0 -0.23655111430E+02 -0.28374698233E+02  0.15147390359E+03  0.15591353778E+03  0.00000000000E+00 0.  1.
        -13    1    4    4    0    0  0.17439829600E+03  0.60994975428E+02  0.78204191867E+02  0.20062663906E+03  0.00000000000E+00 0. -1.
         13    1    4    4    0    0  0.27600995664E+02 -0.62934037260E+01  0.57823268337E+02  0.64381303600E+02  0.00000000000E+00 0.  1.
          2    1    1    2  501    0  0.40370093928E+02  0.19746114823E+02  0.27519217289E+03  0.27883756124E+03  0.00000000000E+00 0. -1.
<scales pt_clust_5="13000.00000" pt_clust_6="13000.00000" pt_clust_7="13000.00000" pt_clust_8="13000.00000" pt_clust_9="44.94058"></scales>
<clustering>
<clus scale="   44.941">  2  9  1 -1</clus>
<clus scale="   78.380">  5  6 -1 -1</clus>
<clus scale="   89.049">  7  8 -1 -1</clus>
<clus scale="  253.378">  1  5  2 -1</clus>
<clus scale="   44.941">  2  5  1 -1</clus>
</clustering>
</event>
<event>
 9    1  0.5981539E-005  0.9860872E+02  0.7546771E-02  0.1289052E+00
         21   -1    0    0  501  502  0.00000000000E+00  0.00000000000E+00  0.29020492537E+03  0.29020492537E+03  0.00000000000E+00 0. -1.
          1   -1    0    0  502    0 -0.00000000000E+00 -0.00000000000E+00 -0.42959406715E+02  0.42959406715E+02  0.00000000000E+00 0. -1.
         23    2    1    2    0    0 -0.34439540830E+02  0.21695841920E+02  0.10121061242E+03  0.14274013632E+03  0.92056324724E+02 0.  0.
        -24    2    1    2    0    0  0.33591515179E+02  0.54080021177E+01  0.13514588226E+03  0.16120248547E+03  0.81019722613E+02 0.  0.
         13    1    4    4    0    0  0.27671427826E+02 -0.28952123893E+02  0.11302528724E+03  0.11991100430E+03  0.00000000000E+00 0. -1.
        -14    1    4    4    0    0  0.59200873537E+01  0.34360126010E+02  0.22120595019E+02  0.41291481176E+02  0.00000000000E+00 0.  1.
        -11    1    3    3    0    0 -0.16862771597E+02 -0.31890016079E+02  0.68829700691E+02  0.77710062982E+02  0.00000000000E+00 0.  1.
         11    1    3    3    0    0 -0.17576769233E+02  0.53585857999E+02  0.32380911725E+02  0.65030073338E+02  0.00000000000E+00 0. -1.
          2    1    1    2  501    0  0.84802565099E+00 -0.27103844037E+02  0.10889023979E+02  0.29221710291E+02  0.00000000000E+00 0. -1.
<scales pt_clust_5="13000.00000" pt_clust_6="13000.00000" pt_clust_7="13000.00000" pt_clust_8="13000.00000" pt_clust_9="27.11712"></scales>
<clustering>
<clus scale="   27.117">  1  9  2 -1</clus>
<clus scale="   81.020">  5  6 -1 -1</clus>
<clus scale="   88.394">  1  5  2 -1</clus>
<clus scale="   92.056">  7  8 -1 -1</clus>
<clus scale="   27.117">  1  5  2 -1</clus>
</clustering>
</event>
<event>
 9    1  0.5981539E-005  0.1159868E+03  0.7546771E-02  0.1253927E+00
          1   -1    0    0  502    0 -0.00000000000E+00  0.00000000000E+00  0.35361158101E+03  0.35361158101E+03  0.00000000000E+00 0. -1.
         21   -1    0    0  501  502  0.00000000000E+00 -0.00000000000E+00 -0.69260545616E+02  0.69260545616E+02  0.00000000000E+00 0. -1.
         23    2    1    2    0    0  0.71331608359E+02  0.30286057178E+02  0.10783478698E+03  0.16130465747E+03  0.91571871390E+02 0.  0.
        -24    2    1    2    0    0 -0.69948171176E+02  0.23533911529E+02  0.41804865259E+02  0.11649624636E+03  0.79856978493E+02 0.  0.
         11    1    4    4    0    0 -0.87906425343E+02  0.21084307187E+02  0.32047209258E+02  0.95911997411E+02  0.00000000000E+00 0. -1.
        -12    1    4    4    0    0  0.17958254167E+02  0.24496043424E+01  0.97576560009E+01  0.20584248949E+02  0.00000000000E+00 0.  1.
        -13    1    3    3    0    0  0.90309073818E+02  0.39690079612E+02  0.85761980165E+02  0.13071399495E+03  0.00000000000E+00 0. -1.
         13    1    3    3    0    0 -0.18977465459E+02 -0.94040224337E+01  0.22072806814E+02  0.30590662527E+02  0.00000000000E+00 0.  1.
          2    1    1    2  501    0 -0.13834371833E+01 -0.53819968708E+02  0.13471138315E+03  0.14507122279E+03  0.00000000000E+00 0. -1.
<scales pt_clust_5="13000.00000" pt_clust_6="13000.00000" pt_clust_7="13000.00000" pt_clust_8="13000.00000" pt_clust_9="53.83777"></scales>
<clustering>
<clus scale="   53.838">  2  9  1 -1</clus>
<clus scale="   79.857">  5  6 -1 -1</clus>
<clus scale="   91.572">  7  8 -1 -1</clus>
<clus scale="  106.980">  2  5  1 -1</clus>
<clus scale="   53.838">  2  5  1 -1</clus>
</clustering>
</event>
<event>
 9    1  0.5981539E-005  0.1823861E+03  0.7546771E-02  0.1166884E+00
          1   -1    0    0  502    0 -0.00000000000E+00  0.00000000000E+00  0.75384732318E+03  0.75384732318E+03  0.00000000000E+00 0. -1.
         21   -1    0    0  501  502  0.00000000000E+00 -0.00000000000E+00 -0.62954669010E+02  0.62954669010E+02  0.00000000000E+00 0.  1.
         23    2    1    2    0    0 -0.13441042324E+03  0.73625306863E+02  0.48223444558E+03  0.51414928396E+03  0.91173340463E+02 0.  0.
        -24    2    1    2    0    0  0.16095352766E+03 -0.58736026292E+02  0.17809563420E+03  0.25952153596E+03  0.79230132219E+02 0.  0.
         11    1    4    4    0    0  0.58513142658E+02 -0.40929944423E+02  0.12204364879E+03  0.14139908212E+03  0.00000000000E+00 0. -1.
        -12    1    4    4    0    0  0.10244038500E+03 -0.17806081869E+02  0.56051985408E+02  0.11812245383E+03  0.00000000000E+00 0.  1.
        -11    1    3    3    0    0 -0.70297875984E+02  0.77115491574E+02  0.37418193588E+03  0.38845940785E+03  0.00000000000E+00 0. -1.
         11    1    3    3    0    0 -0.64112547258E+02 -0.34901847110E+01  0.10805250970E+03  0.12568987611E+03  0.00000000000E+00 0.  1.
          2    1    1    2  501    0 -0.26543104420E+02 -0.14889280571E+02  0.30562574394E+02  0.43131172274E+02  0.00000000000E+00 0. -1.
<scales pt_clust_5="13000.00000" pt_clust_6="13000.00000" pt_clust_7="13000.00000" pt_clust_8="13000.00000" pt_clust_9="30.43398"></scales>
<clustering>
<clus scale="   30.434">  2  9  1 -1</clus>
<clus scale="   79.230">  5  6 -1 -1</clus>
<clus scale="   91.173">  7  8 -1 -1</clus>
<clus scale="  176.719">  2  5  1 -1</clus>
<clus scale="   30.434">  2  5  1 -1</clus>
</clustering>
</event>
<event>
 9    1  0.5981539E-005  0.9778580E+02  0.7546771E-02  0.1301821E+00
         -2   -1    0    0    0  501 -0.00000000000E+00  0.00000000000E+00  0.72841106806E+02  0.72841106806E+02  0.00000000000E+00 0.  1.
         21   -1    0    0  501  502  0.00000000000E+00 -0.00000000000E+00 -0.21891207373E+03  0.21891207373E+03  0.00000000000E+00 0. -1.
         23    2    1    2    0    0 -0.76641606408E+00  0.27902032736E+02  0.10758507602E+02  0.96717729928E+02  0.91975338935E+02 0.  0.
        -24    2    1    2    0    0  0.25624194114E+02 -0.41590677817E+02 -0.79967584140E+02  0.11310231734E+03  0.63331949826E+02 0.  0.
         11    1    4    4    0    0  0.46356505729E+02 -0.23264882516E+02 -0.57694395266E+02  0.77581077763E+02  0.00000000000E+00 0. -1.
        -12    1    4    4    0    0 -0.20732311615E+02 -0.18325795301E+02 -0.22273188874E+02  0.35521239575E+02  0.00000000000E+00 0.  1.
        -11    1    3    3    0    0 -0.23466053800E+02 -0.27510198859E+02  0.21756283691E+01  0.36224302354E+02  0.00000000000E+00 0. -1.
         11    1    3    3    0    0  0.22699637736E+02  0.55412231595E+02  0.85828792333E+01  0.60493427574E+02  0.00000000000E+00 0.  1.
         -1    1    1    2    0  502 -0.24857778050E+02  0.13688645082E+02 -0.76861890383E+02  0.81933133267E+02  0.00000000000E+00 0.  1.
<scales pt_clust_5="13000.00000" pt_clust_6="13000.00000" pt_clust_7="13000.00000" pt_clust_8="13000.00000" pt_clust_9="28.37760"></scales>
<clustering>
<clus scale="   28.378">  2  9  1 -1</clus>
<clus scale="   63.332">  5  6 -1 -1</clus>
<clus scale="   71.509">  2  5  1 -1</clus>
<clus scale="   91.975">  7  8 -1 -1</clus>
<clus scale="   28.378">  2  5  1 -1</clus>
</clustering>
</event>
<event>
 9    1  0.5981539E-005  0.1033825E+03  0.7546771E-02  0.1277396E+00
          1   -1    0    0  502    0 -0.00000000000E+00  0.00000000000E+00  0.10385874331E+03  0.10385874331E+03  0.00000000000E+00 0. -1.
         21   -1    0    0  501  502  0.00000000000E+00 -0.00000000000E+00 -0.19398764115E+03  0.19398764115E+03  0.00000000000E+00 0. -1.
         23    2    1    2    0    0 -0.40807228456E+02  0.20853943671E+02  0.17298207660E+02  0.10291858201E+03  0.90514582658E+02 0.  0.
        -24    2    1    2    0    0  0.20837126420E+02 -0.68284190964E+02 -0.55347282365E+02  0.12171071899E+03  0.81567523430E+02 0.  0.
         13    1    4    4    0    0  0.48457056721E+02 -0.36910745022E+02 -0.51442661838E+02  0.79729774245E+02  0.00000000000E+00 0. -1.
        -14    1    4    4    0    0 -0.27619930301E+02 -0.31373445942E+02 -0.39046205273E+01  0.41980944744E+02  0.00000000000E+00 0.  1.
        -11    1    3    3    0    0  0.18647838509E+02  0.30357439752E+02  0.23051514346E+02  0.42434518296E+02  0.00000000000E+00 0.  1.
         11    1    3    3    0    0 -0.59455066965E+02 -0.95034960812E+01 -0.57533066856E+01  0.60484063714E+02  0.00000000000E+00 0. -1.
          2    1    1    2  501    0  0.19970102037E+02  0.47430247293E+02 -0.52079823134E+02  0.73217083467E+02  0.00000000000E+00 0. -1.
<scales pt_clust_5="13000.00000" pt_clust_6="13000.00000" pt_clust_7="13000.00000" pt_clust_8="13000.00000" pt_clust_9="51.46293"></scales>
<clustering>
<clus scale="   51.463">  2  9  1 -1</clus>
<clus scale="   81.568">  5  6 -1 -1</clus>
<clus scale="   90.515">  7  8 -1 -1</clus>
<clus scale="   95.647">  2  5  1 -1</clus>
<clus scale="   51.463">  2  5  1 -1</clus>
</clustering>
</event>
<event>
 9    1  0.5981539E-005  0.1429120E+03  0.7546771E-02  0.1212394E+00
          1   -1    0    0  502    0 -0.00000000000E+00  0.00000000000E+00  0.16556673138E+03  0.16556673138E+03  0.00000000000E+00 0. -1.
         21   -1    0    0  501  502  0.00000000000E+00 -0.00000000000E+00 -0.43668425575E+03  0.43668425575E+03  0.00000000000E+00 0.  1.
         23    2    1    2    0    0 -0.77328307124E+02  0.75512146877E+02  0.56974405924E+02  0.15393536394E+03  0.93638997924E+02 0.  0.
        -24    2    1    2    0    0  0.47056015057E+02 -0.10369934539E+03 -0.36642339428E+03  0.39192208670E+03  0.79805985845E+02 0.  0.
         13    1    4    4    0    0  0.66930131582E+02 -0.55686760960E+02 -0.23315976516E+03  0.24888578495E+03  0.00000000000E+00 0. -1.
        -14    1    4    4    0    0 -0.19874116526E+02 -0.48012584428E+02 -0.13326362912E+03  0.14303630174E+03  0.00000000000E+00 0.  1.
        -11    1    3    3    0    0 -0.19772523863E+02  0.63360113567E+01 -0.24798250356E+02  0.32342711089E+02  0.00000000000E+00 0.  1.
         11    1    3    3    0    0 -0.57555783261E+02  0.69176135520E+02  0.81772656280E+02  0.12159265285E+03  0.00000000000E+00 0. -1.
          2    1    1    2  501    0  0.30272292067E+02  0.28187198512E+02  0.38331463990E+02  0.56393536496E+02  0.00000000000E+00 0. -1.
<scales pt_clust_5="13000.00000" pt_clust_6="13000.00000" pt_clust_7="13000.00000" pt_clust_8="13000.00000" pt_clust_9="41.36341"></scales>
<clustering>
<clus scale="   41.363">  2  9  1 -1</clus>
<clus scale="   79.806">  5  6 -1 -1</clus>
<clus scale="   93.639">  7  8 -1 -1</clus>
<clus scale="  134.256">  2  5  1 -1</clus>
<clus scale="   41.363">  2  5  1 -1</clus>
</clustering>
</event>
<event>
 9    1  0.5981539E-005  0.1506344E+03  0.7546771E-02  0.1214586E+00
          1   -1    0    0  502    0 -0.00000000000E+00  0.00000000000E+00  0.62393813606E+03  0.62393813606E+03  0.00000000000E+00 0. -1.
         21   -1    0    0  501  502  0.00000000000E+00 -0.00000000000E+00 -0.63394309295E+02  0.63394309295E+02  0.00000000000E+00 0. -1.
         23    2    1    2    0    0  0.58848082547E+02 -0.21847727989E+01  0.12332642171E+03  0.16488056450E+03  0.92240577870E+02 0.  0.
        -24    2    1    2    0    0  0.59547966712E+02  0.93238598466E+02  0.23502885938E+03  0.27107839050E+03  0.77495370663E+02 0.  0.
         13    1    4    4    0    0  0.70511054669E+02  0.82780248952E+02  0.23113220290E+03  0.25543389295E+03  0.00000000000E+00 0. -1.
        -14    1    4    4    0    0 -0.10963087956E+02  0.10458349514E+02  0.38966564726E+01  0.15644497555E+02  0.00000000000E+00 0.  1.
        -11    1    3    3    0    0 -0.22371849147E+02  0.88560592499E+01  0.47372733370E+02  0.53132902110E+02  0.00000000000E+00 0.  1.
         11    1    3    3    0    0  0.81219931694E+02 -0.11040832049E+02  0.75953688339E+02  0.11174766239E+03  0.00000000000E+00 0. -1.
          2    1    1    2  501    0 -0.11839604926E+03 -0.91053825668E+02  0.20218854568E+03  0.25137349036E+03  0.00000000000E+00 0. -1.
<scales pt_clust_5="13000.00000" pt_clust_6="13000.00000" pt_clust_7="13000.00000" pt_clust_8="13000.00000" pt_clust_9="129.17126"></scales>
<clustering>
<clus scale="   77.495">  5  6 -1 -1</clus>
<clus scale="   92.241">  7  8 -1 -1</clus>
<clus scale="  109.436">  1  7  2 -1</clus>
<clus scale="  129.171">  2  9  1 -1</clus>
<clus scale="  129.171">  2  5  1 -1</clus>
</clustering>
</event>
<event>
 9    1  0.5981539E-005  0.1085246E+03  0.7546771E-02  0.1266417E+00
          1   -1    0    0  502    0 -0.00000000000E+00  0.00000000000E+00  0.52231281647E+03  0.52231281647E+03  0.00000000000E+00 0. -1.
         21   -1    0    0  501  502  0.00000000000E+00 -0.00000000000E+00 -0.32602454638E+02  0.32602454638E+02  0.00000000000E+00 0. -1.
         23    2    1    2    0    0 -0.58419342902E+02 -0.46469472909E+02  0.27021948249E+03  0.29542428654E+03  0.93191785162E+02 0.  0.
        -24    2    1    2    0    0  0.15335097797E+02  0.34634639265E+02  0.14634652961E+03  0.17377977549E+03  0.85716860536E+02 0.  0.
         13    1    4    4    0    0 -0.13576641149E+01  0.30623109671E+02  0.15249398885E+03  0.15554431758E+03  0.00000000000E+00 0. -1.
        -14    1    4    4    0    0  0.16692761912E+02  0.40115295940E+01 -0.61474592414E+01  0.18235457906E+02  0.00000000000E+00 0.  1.
        -13    1    3    3    0    0 -0.25236961488E+02  0.27553245475E+02  0.68966133597E+02  0.78437319846E+02  0.00000000000E+00 0.  1.
         13    1    3    3    0    0 -0.33182381414E+02 -0.74022718384E+02  0.20125334890E+03  0.21698696669E+03  0.00000000000E+00 0. -1.
          2    1    1    2  501    0  0.43084245105E+02  0.11834833644E+02  0.73144349730E+02  0.85711209075E+02  0.00000000000E+00 0. -1.
<scales pt_clust_5="13000.00000" pt_clust_6="13000.00000" pt_clust_7="13000.00000" pt_clust_8="13000.00000" pt_clust_9="44.68015"></scales>
<clustering>
<clus scale="   44.680">  2  9  1 -1</clus>
<clus scale="   85.717">  5  6 -1 -1</clus>
<clus scale="   93.192">  7  8 -1 -1</clus>
<clus scale="  102.178">  2  5  1 -1</clus>
<clus scale="   44.680">  2  5  1 -1</clus>
</clustering>
</event>
<event>
 9    1  0.5981539E-005  0.1245573E+03  0.7546771E-02  0.1238446E+00
         21   -1    0    0  501  502  0.00000000000E+00  0.00000000000E+00  0.10629915535E+03  0.10629915535E+03  0.00000000000E+00 0.  1.
          3   -1    0    0  502    0 -0.00000000000E+00 -0.00000000000E+00 -0.23291618494E+03  0.23291618494E+03  0.00000000000E+00 0. -1.
         23    2    1    2    0    0  0.15436931627E+02 -0.79698352398E+02 -0.11600514397E+03  0.16772621612E+03  0.89915315233E+02 0.  0.
        -24    2    1    2    0    0 -0.13328404847E+02  0.10047430335E+03  0.23462514965E+02  0.13152475505E+03  0.80470737378E+02 0.  0.
         11    1    4    4    0    0 -0.38770220290E+01  0.61475733458E+02 -0.26828300853E+02  0.67186716177E+02  0.00000000000E+00 0. -1.
        -12    1    4    4    0    0 -0.94513828179E+01  0.38998569889E+02  0.50290815818E+02  0.64338038875E+02  0.00000000000E+00 0.  1.
        -11    1    3    3    0    0  0.36932502512E+02 -0.56358087973E+00 -0.51588138030E+02  0.63448115422E+02  0.00000000000E+00 0.  1.
         11    1    3    3    0    0 -0.21495570885E+02 -0.79134771519E+02 -0.64417005942E+02  0.10427810070E+03  0.00000000000E+00 0. -1.
          4    1    1    2  501    0 -0.21085267798E+01 -0.20775950949E+02 -0.34074400583E+02  0.39964369107E+02  0.00000000000E+00 0. -1.
<scales pt_clust_5="13000.00000" pt_clust_6="13000.00000" pt_clust_7="13000.00000" pt_clust_8="13000.00000" pt_clust_9="20.88268"></scales>
<clustering>
<clus scale="   20.883">  1  9  2 -1</clus>
<clus scale="   80.471">  5  6 -1 -1</clus>
<clus scale="   89.915">  7  8 -1 -1</clus>
<clus scale="  117.921">  1  5  2 -1</clus>
<clus scale="   20.883">  1  5  2 -1</clus>
</clustering>
</event>
<event>
 9    1  0.5981539E-005  0.1894167E+03  0.7546771E-02  0.1181006E+00
         21   -1    0    0  501  502  0.00000000000E+00  0.00000000000E+00  0.42140261198E+03  0.42140261198E+03  0.00000000000E+00 0.  1.
          1   -1    0    0  502    0 -0.00000000000E+00 -0.00000000000E+00 -0.48645102955E+03  0.48645102955E+03  0.00000000000E+00 0. -1.
        -24    2    1    2    0    0 -0.53082011662E+02  0.65628665443E+02 -0.39665376764E+03  0.41283977236E+03  0.77315228620E+02 0.  0.
         23    2    1    2    0    0 -0.13218191025E+03 -0.55402242303E+02  0.99266904646E+02  0.19767827810E+03  0.93173587581E+02 0.  0.
         11    1    3    3    0    0 -0.73302346896E+02  0.52657259824E+02 -0.32252371313E+03  0.33491426754E+03  0.00000000000E+00 0. -1.
        -12    1    3    3    0    0  0.20220335234E+02  0.12971405620E+02 -0.74130054508E+02  0.77925504824E+02  0.00000000000E+00 0.  1.
        -13    1    4    4    0    0  0.41020780395E+01 -0.32458857168E+02  0.20417655173E+02  0.38565335415E+02  0.00000000000E+00 0. -1.
         13    1    4    4    0    0 -0.13628398829E+03 -0.22943385135E+02  0.78849249473E+02  0.15911294268E+03  0.00000000000E+00 0.  1.
          2    1    1    2  501    0  0.18526392191E+03 -0.10226423141E+02  0.23233844543E+03  0.29733559107E+03  0.00000000000E+00 0. -1.
<scales pt_clust_5="13000.00000" pt_clust_6="13000.00000" pt_clust_7="13000.00000" pt_clust_8="13000.00000" pt_clust_9="164.91623"></scales>
<clustering>
<clus scale="   77.315">  5  6 -1 -1</clus>
<clus scale="   93.174">  7  8 -1 -1</clus>
<clus scale="  114.466">  2  5  1 -1</clus>
<clus scale="  164.916">  1  9  2 -1</clus>
<clus scale="  164.916">  1  5  2 -1</clus>
</clustering>
</event>
<event>
 9    1  0.5981539E-005  0.1161278E+03  0.7546771E-02  0.1253422E+00
         -2   -1    0    0    0  501 -0.00000000000E+00  0.00000000000E+00  0.15406278417E+03  0.15406278417E+03  0.00000000000E+00 0.  1.
         21   -1    0    0  501  502  0.00000000000E+00 -0.00000000000E+00 -0.11114899315E+03  0.11114899315E+03  0.00000000000E+00 0.  1.
         23    2    1    2    0    0  0.67835699399E+02 -0.34614553177E+02  0.67256791595E+02  0.13851789974E+03  0.94148197688E+02 0.  0.
        -24    2    1    2    0    0 -0.52290411515E+02  0.15594935276E+02 -0.20682113796E+02  0.10185833988E+03  0.83485821732E+02 0.  0.
         11    1    4    4    0    0 -0.35274221407E+02 -0.15708096826E+02  0.23421136223E+02  0.45161539210E+02  0.00000000000E+00 0. -1.
        -12    1    4    4    0    0 -0.17016190107E+02  0.31303032102E+02 -0.44103250019E+02  0.56696800675E+02  0.00000000000E+00 0.  1.
        -13    1    3    3    0    0  0.71509794377E+02 -0.59957178757E+02  0.62909718305E+02  0.11254397644E+03  0.00000000000E+00 0.  1.
         13    1    3    3    0    0 -0.36740949782E+01  0.25342625581E+02  0.43470732903E+01  0.25973923297E+02  0.00000000000E+00 0. -1.
         -1    1    1    2    0  502 -0.15545287884E+02  0.19019617901E+02 -0.36608867736E+01  0.24835537693E+02  0.00000000000E+00 0.  1.
<scales pt_clust_5="13000.00000" pt_clust_6="13000.00000" pt_clust_7="13000.00000" pt_clust_8="13000.00000" pt_clust_9="24.56424"></scales>
<clustering>
<clus scale="   24.564">  2  9  1 -1</clus>
<clus scale="   83.486">  5  6 -1 -1</clus>
<clus scale="   94.148">  7  8 -1 -1</clus>
<clus scale="  107.665">  2  5  1 -1</clus>
<clus scale="   24.564">  2  5  1 -1</clus>
</clustering>
</event>
<event>
 9    1  0.5981539E-005  0.1554734E+03  0.7546771E-02  0.1221379E+00
          1   -1    0    0  502    0 -0.00000000000E+00  0.00000000000E+00  0.16002704858E+03  0.16002704858E+03  0.00000000000E+00 0. -1.
         21   -1    0    0  501  502  0.00000000000E+00 -0.00000000000E+00 -0.31102744644E+03  0.31102744644E+03  0.00000000000E+00 0. -1.
        -24    2    1    2    0    0 -0.22857236245E+02 -0.15987389044E+02  0.71023358069E+02  0.11173664554E+03  0.81625429290E+02 0.  0.
         23    2    1    2    0    0 -0.46937468435E+02 -0.10177055524E+03 -0.99635240523E+02  0.17569545721E+03  0.91549662339E+02 0.  0.
         13    1    3    3    0    0 -0.16583339625E+02 -0.45828341221E+02  0.64001544949E+02  0.80445271882E+02  0.00000000000E+00 0. -1.
        -14    1    3    3    0    0 -0.62738966194E+01  0.29840952177E+02  0.70218131198E+01  0.31291373654E+02  0.00000000000E+00 0.  1.
        -13    1    4    4    0    0 -0.35305752504E+02 -0.96424460501E+01 -0.68661148118E+02  0.77806337702E+02  0.00000000000E+00 0.  1.
         13    1    4    4    0    0 -0.11631715931E+02 -0.92128109190E+02 -0.30974092405E+02  0.97889119511E+02  0.00000000000E+00 0. -1.
          2    1    1    2  501    0  0.69794704680E+02  0.11775794428E+03 -0.12238851540E+03  0.18362239228E+03  0.00000000000E+00 0. -1.
<scales pt_clust_5="13000.00000" pt_clust_6="13000.00000" pt_clust_7="13000.00000" pt_clust_8="13000.00000" pt_clust_9="125.66078"></scales>
<clustering>
<clus scale="   81.625">  5  6 -1 -1</clus>
<clus scale="   86.260">  1  5  2 -1</clus>
<clus scale="   91.550">  7  8 -1 -1</clus>
<clus scale="  125.661">  2  9  1 -1</clus>
<clus scale="  125.661">  2  5  1 -1</clus>
</clustering>
</event>
<event>
 9    1  0.5981539E-005  0.9281202E+02  0.7546771E-02  0.1302746E+00
         21   -1    0    0  501  502  0.00000000000E+00  0.00000000000E+00  0.14025379702E+03  0.14025379702E+03  0.00000000000E+00 0.  1.
          1   -1    0    0  502    0 -0.00000000000E+00 -0.00000000000E+00 -0.11603115369E+03  0.11603115369E+03  0.00000000000E+00 0. -1.
        -24    2    1    2    0    0 -0.19211282715E+02  0.80768653099E+01 -0.41609207704E+02  0.93115671157E+02  0.80652916330E+02 0.  0.
         23    2    1    2    0    0 -0.15847137150E+02 -0.19736450417E+02  0.79505276256E+02  0.12377383203E+03  0.91423264605E+02 0.  0.
         13    1    3    3    0    0 -0.33320656966E+02  0.46561441646E+01 -0.60538886738E+02  0.69259675617E+02  0.00000000000E+00 0. -1.
        -14    1    3    3    0    0  0.14109374251E+02  0.34207211452E+01  0.18929679034E+02  0.23855995540E+02  0.00000000000E+00 0.  1.
        -11    1    4    4    0    0  0.25343861031E+02 -0.40720383581E+02  0.47822921714E+02  0.67731032564E+02  0.00000000000E+00 0.  1.
         11    1    4    4    0    0 -0.41190998181E+02  0.20983933164E+02  0.31682354542E+02  0.56042799462E+02  0.00000000000E+00 0. -1.
          2    1    1    2  501    0  0.35058419865E+02  0.11659585107E+02 -0.13673425231E+02  0.39395447527E+02  0.00000000000E+00 0. -1.
<scales pt_clust_5="13000.00000" pt_clust_6="13000.00000" pt_clust_7="13000.00000" pt_clust_8="13000.00000" pt_clust_9="36.94645"></scales>
<clustering>
<clus scale="   36.946">  1  9  2 -1</clus>
<clus scale="   80.653">  5  6 -1 -1</clus>
<clus scale="   82.224">  2  5  1 -1</clus>
<clus scale="   91.423">  7  8 -1 -1</clus>
<clus scale="   36.946">  1  5  2 -1</clus>
</clustering>
</event>
<event>
 9    1  0.5981539E-005  0.9470968E+02  0.7546771E-02  0.1298728E+00
         21   -1    0    0  501  502  0.00000000000E+00  0.00000000000E+00  0.81513615868E+02  0.81513615868E+02  0.00000000000E+00 0.  1.
          1   -1    0    0  502    0 -0.00000000000E+00 -0.00000000000E+00 -0.20737218752E+03  0.20737218752E+03  0.00000000000E+00 0. -1.
        -24    2    1    2    0    0 -0.21340685974E+02  0.19070089033E+02 -0.12036684692E+03  0.14740461187E+03  0.80130197739E+02 0.  0.
         23    2    1    2    0    0  0.19434748482E+02  0.25037776488E+02 -0.36886011199E+01  0.97295360608E+02  0.91913990870E+02 0.  0.
         13    1    3    3    0    0 -0.39207818257E+02  0.41039216833E+02 -0.79110108949E+02  0.97364673618E+02  0.00000000000E+00 0. -1.
        -14    1    3    3    0    0  0.17867132283E+02 -0.21969127800E+02 -0.41256737973E+02  0.50039938254E+02  0.00000000000E+00 0.  1.
        -13    1    4    4    0    0  0.24980345006E+02  0.52821632964E+02 -0.23228753094E+02  0.62878593463E+02  0.00000000000E+00 0. -1.
         13    1    4    4    0    0 -0.55455965244E+01 -0.27783856476E+02  0.19540151974E+02  0.34416767144E+02  0.00000000000E+00 0.  1.
          2    1    1    2  501    0  0.19059374922E+01 -0.44107865520E+02 -0.18031236123E+01  0.44185830910E+02  0.00000000000E+00 0. -1.
<scales pt_clust_5="13000.00000" pt_clust_6="13000.00000" pt_clust_7="13000.00000" pt_clust_8="13000.00000" pt_clust_9="44.14902"></scales>
<clustering>
<clus scale="   44.149">  1  9  2 -1</clus>
<clus scale="   80.130">  5  6 -1 -1</clus>
<clus scale="   83.322">  2  5  1 -1</clus>
<clus scale="   91.914">  7  8 -1 -1</clus>
<clus scale="   44.149">  1  5  2 -1</clus>
</clustering>
</event>
<event>
 9    1  0.5981539E-005  0.2778527E+03  0.7546771E-02  0.1096868E+00
          1   -1    0    0  502    0 -0.00000000000E+00  0.00000000000E+00  0.16117478583E+04  0.16117478583E+04  0.00000000000E+00 0. -1.
         21   -1    0    0  501  502  0.00000000000E+00 -0.00000000000E+00 -0.36401949935E+02  0.36401949935E+02  0.00000000000E+00 0. -1.
        -24    2    1    2    0    0  0.39426836928E+02 -0.13587966878E+03  0.44709787497E+03  0.47607776932E+03  0.82071753830E+02 0.  0.
         23    2    1    2    0    0  0.12834716879E+02 -0.62728897491E+02  0.40037076504E+03  0.41577715569E+03  0.92055685106E+02 0.  0.
         13    1    3    3    0    0  0.12258113461E+02 -0.12821106969E+03  0.30294888808E+03  0.32919047453E+03  0.00000000000E+00 0. -1.
        -14    1    3    3    0    0  0.27168723467E+02 -0.76685990948E+01  0.14414898689E+03  0.14688729478E+03  0.00000000000E+00 0.  1.
        -11    1    4    4    0    0  0.29022872386E+02 -0.80986302101E+02  0.33869150184E+03  0.34944676514E+03  0.00000000000E+00 0. -1.
         11    1    4    4    0    0 -0.16188155507E+02  0.18257404611E+02  0.61679263199E+02  0.66330390550E+02  0.00000000000E+00 0.  1.
          2    1    1    2  501    0 -0.52261553807E+02  0.19860856627E+03  0.72787726831E+03  0.75629488318E+03  0.00000000000E+00 0. -1.
<scales pt_clust_5="13000.00000" pt_clust_6="13000.00000" pt_clust_7="13000.00000" pt_clust_8="13000.00000" pt_clust_9="205.36961"></scales>
<clustering>
<clus scale="   82.072">  5  6 -1 -1</clus>
<clus scale="   92.056">  7  8 -1 -1</clus>
<clus scale="   94.860">  5  7 -1 -1</clus>
<clus scale="  205.370">  2  9  1 -1</clus>
<clus scale="  205.370">  2  5  1 -1</clus>
</clustering>
</event>
<event>
 9    1  0.5981539E-005  0.1484086E+03  0.7546771E-02  0.1217931E+00
          3   -1    0    0  502    0 -0.00000000000E+00  0.00000000000E+00  0.82475032458E+03  0.82475032458E+03  0.00000000000E+00 0. -1.
         21   -1    0    0  501  502  0.00000000000E+00 -0.00000000000E+00 -0.46163977979E+02  0.46163977979E+02  0.00000000000E+00 0. -1.
        -24    2    1    2    0    0 -0.14174151367E+02 -0.68011999516E+02  0.14641099311E+03  0.18112188769E+03  0.80885231365E+02 0.  0.
         23    2    1    2    0    0 -0.11076440795E+03  0.31146619992E+02  0.34392939226E+03  0.37347859289E+03  0.89218644216E+02 0.  0.
         11    1    3    3    0    0 -0.22858997627E+02 -0.67723308869E+02  0.15387555509E+03  0.16966633959E+03  0.00000000000E+00 0. -1.
        -12    1    3    3    0    0  0.86848462598E+01 -0.28869064726E+00 -0.74645619765E+01  0.11455548103E+02  0.00000000000E+00 0.  1.
        -11    1    4    4    0    0 -0.11011076359E+03  0.32912647762E+01  0.21506609222E+03  0.24163740750E+03  0.00000000000E+00 0. -1.
         11    1    4    4    0    0 -0.65364436176E+00  0.27855355216E+02  0.12886330004E+03  0.13184118538E+03  0.00000000000E+00 0.  1.
          4    1    1    2  501    0  0.12493855932E+03  0.36865379524E+02  0.28824596123E+03  0.31631382198E+03  0.00000000000E+00 0. -1.
<scales pt_clust_5="13000.00000" pt_clust_6="13000.00000" pt_clust_7="13000.00000" pt_clust_8="13000.00000" pt_clust_9="118.59659"></scales>
<clustering>
<clus scale="   80.885">  5  6 -1 -1</clus>
<clus scale="   89.219">  7  8 -1 -1</clus>
<clus scale="  106.625">  1  5  2 -1</clus>
<clus scale="  118.597">  2  9  1 -1</clus>
<clus scale="  118.597">  2  5  1 -1</clus>
</clustering>
</event>
<event>
 9    1  0.5981539E-005  0.1091945E+03  0.7546771E-02  0.1266076E+00
         21   -1    0    0  501  502  0.00000000000E+00  0.00000000000E+00  0.28468773960E+03  0.28468773960E+03  0.00000000000E+00 0.  1.
          3   -1    0    0  502    0 -0.00000000000E+00 -0.00000000000E+00 -0.10962619324E+03  0.10962619324E+03  0.00000000000E+00 0. -1.
        -24    2    1    2    0    0  0.50334878064E+02 -0.17597576139E+01  0.11111165118E+02  0.98662708955E+02  0.84108117631E+02 0.  0.
         23    2    1    2    0    0 -0.71381916016E+02 -0.59569336449E+02  0.18515080844E+03  0.22743323727E+03  0.93814560528E+02 0.  0.
         13    1    3    3    0    0  0.11512173231E+02  0.29931869011E+02  0.31132969894E+02  0.44695735024E+02  0.00000000000E+00 0. -1.
        -14    1    3    3    0    0  0.38822704834E+02 -0.31691626625E+02 -0.20021804775E+02  0.53966973930E+02  0.00000000000E+00 0.  1.
        -11    1    4    4    0    0 -0.22747331416E+02 -0.75938082558E+02  0.12860992959E+03  0.15107795159E+03  0.00000000000E+00 0.  1.
         11    1    4    4    0    0 -0.48634584600E+02  0.16368746109E+02  0.56540878854E+02  0.76355285671E+02  0.00000000000E+00 0. -1.
          4    1    1    2  501    0  0.21047037951E+02  0.61329094063E+02 -0.21200427205E+02  0.68217986622E+02  0.00000000000E+00 0. -1.
<scales pt_clust_5="13000.00000" pt_clust_6="13000.00000" pt_clust_7="13000.00000" pt_clust_8="13000.00000" pt_clust_9="64.84011"></scales>
<clustering>
<clus scale="   64.840">  1  9  2 -1</clus>
<clus scale="   84.108">  5  6 -1 -1</clus>
<clus scale="   93.815">  7  8 -1 -1</clus>
<clus scale="  100.977">  2  5  1 -1</clus>
<clus scale="   64.840">  1  5  2 -1</clus>
</clustering>
</event>
<event>
 9    1  0.6617748E-005  0.9344499E+02  0.7546771E-02  0.1300845E+00
         21   -1    0    0  501  502  0.00000000000E+00  0.00000000000E+00  0.10417564921E+03  0.10417564921E+03  0.00000000000E+00 0.  1.
          3   -1    0    0  502    0 -0.00000000000E+00 -0.00000000000E+00 -0.62738025347E+03  0.62738025347E+03  0.00000000000E+00 0. -1.
        -24    2    1    2    0    0  0.23159918610E+02  0.41485928145E+01 -0.57834796239E+03  0.58438891983E+03  0.80439115912E+02 0.  0.
         23    2    1    2    0    0  0.12373727890E+00  0.22198755312E+02  0.16470703805E+02  0.94899540038E+02  0.90784572297E+02 0.  0.
         11    1    3    3    0    0  0.41140597296E+02 -0.18843732906E+02 -0.20663290241E+03  0.21152964656E+03  0.00000000000E+00 0. -1.
        -12    1    3    3    0    0 -0.17980678686E+02  0.22992325720E+02 -0.37171505998E+03  0.37285927327E+03  0.00000000000E+00 0.  1.
        -11    1    4    4    0    0  0.55322356226E+01  0.57057898943E+02  0.16392695234E+02  0.59623233054E+02  0.00000000000E+00 0. -1.
         11    1    4    4    0    0 -0.54084983437E+01 -0.34859143632E+02  0.78008571131E-01  0.35276306984E+02  0.00000000000E+00 0.  1.
          4    1    1    2  501    0 -0.23283655889E+02 -0.26347348126E+02  0.38672654333E+02  0.52267442810E+02  0.00000000000E+00 0. -1.
<scales pt_clust_5="13000.00000" pt_clust_6="13000.00000" pt_clust_7="13000.00000" pt_clust_8="13000.00000" pt_clust_9="35.16122"></scales>
<clustering>
<clus scale="   35.161">  1  9  2 -1</clus>
<clus scale="   80.439">  5  6 -1 -1</clus>
<clus scale="   83.430">  2  5  1 -1</clus>
<clus scale="   90.785">  7  8 -1 -1</clus>
<clus scale="   35.161">  1  5  2 -1</clus>
</clustering>
</event>
<event>
 9    1  0.5981539E-005  0.1197155E+03  0.7546771E-02  0.1256931E+00
          1   -1    0    0  502    0 -0.00000000000E+00  0.00000000000E+00  0.49534191499E+02  0.49534191499E+02  0.00000000000E+00 0. -1.
         21   -1    0    0  501  502  0.00000000000E+00 -0.00000000000E+00 -0.63879669432E+03  0.63879669432E+03  0.00000000000E+00 0.  1.
        -24    2    1    2    0    0  0.15643262121E+02  0.38676489744E+02 -0.65139611666E+02  0.11245939049E+03  0.81629424795E+02 0.  0.
         23    2    1    2    0    0 -0.40877352653E+02  0.56809800013E+02 -0.40574227948E+03  0.42170158881E+03  0.91143410660E+02 0.  0.
         13    1    3    3    0    0  0.44089483913E+02  0.29833092627E+01 -0.20854243773E+02  0.48863915205E+02  0.00000000000E+00 0. -1.
        -14    1    3    3    0    0 -0.28446221792E+02  0.35693180481E+02 -0.44285367893E+02  0.63595475283E+02  0.00000000000E+00 0.  1.
        -13    1    4    4    0    0 -0.40434398899E+02 -0.14592158698E+02 -0.13343289338E+03  0.14018633580E+03  0.00000000000E+00 0. -1.
         13    1    4    4    0    0 -0.44295375396E+00  0.71401958712E+02 -0.27230938611E+03  0.28151525301E+03  0.00000000000E+00 0.  1.
          2    1    1    2  501    0  0.25234090532E+02 -0.95486289757E+02 -0.11838061167E+03  0.15416990652E+03  0.00000000000E+00 0. -1.
<scales pt_clust_5="13000.00000" pt_clust_6="13000.00000" pt_clust_7="13000.00000" pt_clust_8="13000.00000" pt_clust_9="77.61886"></scales>
<clustering>
<clus scale="   81.629">  5  6 -1 -1</clus>
<clus scale="   91.143">  7  8 -1 -1</clus>
<clus scale="   91.673">  1  5  2 -1</clus>
<clus scale="   77.619">  2  9  1 -1</clus>
<clus scale="   77.619">  2  5  1 -1</clus>
</clustering>
</event>
<event>
 9    1  0.5981539E-005  0.9643212E+02  0.7546771E-02  0.1293258E+00
         21   -1    0    0  501  502  0.00000000000E+00  0.00000000000E+00  0.11010692969E+03  0.11010692969E+03  0.00000000000E+00 0. -1.
          1   -1    0    0  502    0 -0.00000000000E+00 -0.00000000000E+00 -0.18908633469E+03  0.18908633469E+03  0.00000000000E+00 0. -1.
         23    2    1    2    0    0 -0.11791260252E+02 -0.13568458865E+02 -0.75622139475E+02  0.11933362693E+03  0.90546505411E+02 0.  0.
        -24    2    1    2    0    0  0.19842836277E+02  0.77341907220E+02  0.10515775127E+02  0.11409990929E+03  0.80825113726E+02 0.  0.
         11    1    4    4    0    0  0.68486183809E+01  0.52541982166E+02 -0.32950921160E+02  0.62396527700E+02  0.00000000000E+00 0. -1.
        -12    1    4    4    0    0  0.12994217896E+02  0.24799925053E+02  0.43466696287E+02  0.51703381587E+02  0.00000000000E+00 0.  1.
        -13    1    3    3    0    0  0.20603492244E+02  0.14130485200E+02 -0.72400486808E+02  0.76589849162E+02  0.00000000000E+00 0. -1.
         13    1    3    3    0    0 -0.32394752496E+02 -0.27698944064E+02 -0.32216526664E+01  0.42743777763E+02  0.00000000000E+00 0.  1.
          2    1    1    2  501    0 -0.80515760242E+01 -0.63773448355E+02 -0.13873040660E+02  0.65759728168E+02  0.00000000000E+00 0. -1.
<scales pt_clust_5="13000.00000" pt_clust_6="13000.00000" pt_clust_7="13000.00000" pt_clust_8="13000.00000" pt_clust_9="64.27971"></scales>
<clustering>
<clus scale="   64.280">  1  9  2 -1</clus>
<clus scale="   80.825">  5  6 -1 -1</clus>
<clus scale="   87.368">  1  5  2 -1</clus>
<clus scale="   90.547">  7  8 -1 -1</clus>
<clus scale="   64.280">  1  5  2 -1</clus>
</clustering>
</event>
<event>
 9    1  0.5981539E-005  0.1049573E+03  0.7546771E-02  0.1276238E+00
         -2   -1    0    0    0  501 -0.00000000000E+00  0.00000000000E+00  0.15463262778E+03  0.15463262778E+03  0.00000000000E+00 0.  1.
         21   -1    0    0  501  502  0.00000000000E+00 -0.00000000000E+00 -0.14186835206E+03  0.14186835206E+03  0.00000000000E+00 0.  1.
         23    2    1    2    0    0 -0.21610712997E+02  0.47649816595E+02  0.77164125673E+02  0.13340876215E+03  0.95425717661E+02 0.  0.
        -24    2    1    2    0    0 -0.87491972064E+00 -0.33103839475E+02  0.45622338809E+01  0.89112773674E+02  0.82605343540E+02 0.  0.
         13    1    4    4    0    0  0.27317710085E+02 -0.39606710733E+02 -0.19069796035E+02  0.51755250363E+02  0.00000000000E+00 0. -1.
        -14    1    4    4    0    0 -0.28192629806E+02  0.65028712572E+01  0.23632029916E+02  0.37357523311E+02  0.00000000000E+00 0.  1.
        -11    1    3    3    0    0 -0.23503808643E+01 -0.24867520214E+02 -0.10813664890E+01  0.25001744045E+02  0.00000000000E+00 0. -1.
         11    1    3    3    0    0 -0.19260332133E+02  0.72517336810E+02  0.78245492162E+02  0.10840701811E+03  0.00000000000E+00 0.  1.
         -1    1    1    2    0  502  0.22485632718E+02 -0.14545977120E+02 -0.68962083833E+02  0.73979444008E+02  0.00000000000E+00 0.  1.
<scales pt_clust_5="13000.00000" pt_clust_6="13000.00000" pt_clust_7="13000.00000" pt_clust_8="13000.00000" pt_clust_9="26.78039"></scales>
<clustering>
<clus scale="   26.780">  2  9  1 -1</clus>
<clus scale="   82.605">  5  6 -1 -1</clus>
<clus scale="   93.454">  2  5  1 -1</clus>
<clus scale="   95.426">  7  8 -1 -1</clus>
<clus scale="   26.780">  2  5  1 -1</clus>
</clustering>
</event>
<event>
 9    1  0.5981539E-005  0.9041789E+02  0.7546771E-02  0.1306484E+00
          3   -1    0    0  502    0 -0.00000000000E+00  0.00000000000E+00  0.19486330327E+03  0.19486330327E+03  0.00000000000E+00 0. -1.
         21   -1    0    0  501  502  0.00000000000E+00 -0.00000000000E+00 -0.86787739604E+02  0.86787739604E+02  0.00000000000E+00 0. -1.
         23    2    1    2    0    0  0.17979699365E+02  0.13427029148E+02  0.81401669248E+02  0.12157305207E+03  0.87465539118E+02 0.  0.
        -24    2    1    2    0    0  0.19245230871E+02 -0.43738113566E+02 -0.17702249686E+02  0.94704453072E+02  0.79825824756E+02 0.  0.
         11    1    4    4    0    0  0.26955178085E+02 -0.12442070471E+02 -0.44018220980E+02  0.53094166548E+02  0.00000000000E+00 0. -1.
        -12    1    4    4    0    0 -0.77099472140E+01 -0.31296043095E+02  0.26315971294E+02  0.41610286523E+02  0.00000000000E+00 0.  1.
        -13    1    3    3    0    0  0.32189119441E+02  0.38426810309E+02  0.20373557533E+02  0.54109527881E+02  0.00000000000E+00 0.  1.
         13    1    3    3    0    0 -0.14209420077E+02 -0.24999781161E+02  0.61028111715E+02  0.67463524192E+02  0.00000000000E+00 0. -1.
          4    1    1    2  501    0 -0.37224930236E+02  0.30311084417E+02  0.44376144106E+02  0.65373537730E+02  0.00000000000E+00 0. -1.
<scales pt_clust_5="13000.00000" pt_clust_6="13000.00000" pt_clust_7="13000.00000" pt_clust_8="13000.00000" pt_clust_9="48.00479"></scales>
<clustering>
<clus scale="   48.005">  2  9  1 -1</clus>
<clus scale="   79.826">  5  6 -1 -1</clus>
<clus scale="   83.050">  2  5  1 -1</clus>
<clus scale="   87.466">  7  8 -1 -1</clus>
<clus scale="   48.005">  2  5  1 -1</clus>
</clustering>
</event>
<event>
 9    1  0.5981539E-005  0.9623019E+02  0.7546771E-02  0.1294394E+00
         21   -1    0    0  501  502  0.00000000000E+00  0.00000000000E+00  0.23868986163E+02  0.23868986163E+02  0.00000000000E+00 0. -1.
         -2   -1    0    0    0  501 -0.00000000000E+00 -0.00000000000E+00 -0.76474109926E+03  0.76474109926E+03  0.00000000000E+00 0.  1.
        -24    2    1    2    0    0  0.43386767146E+01 -0.27809065679E+02 -0.56394351723E+03  0.57033823089E+03  0.80381830885E+02 0.  0.
         23    2    1    2    0    0 -0.16490160686E+02  0.44223072057E+02 -0.12073018275E+03  0.15847770929E+03  0.91169083657E+02 0.  0.
         13    1    3    3    0    0 -0.29402170773E+02  0.12769694873E+02 -0.18904459029E+03  0.19174308298E+03  0.00000000000E+00 0. -1.
        -14    1    3    3    0    0  0.33740847488E+02 -0.40578760552E+02 -0.37489892694E+03  0.37859514791E+03  0.00000000000E+00 0.  1.
        -11    1    4    4    0    0 -0.40133493090E+02  0.49414988214E+02 -0.11805323147E+03  0.13412346472E+03  0.00000000000E+00 0.  1.
         11    1    4    4    0    0  0.23643332404E+02 -0.51919161572E+01 -0.26769512765E+01  0.24354244573E+02  0.00000000000E+00 0. -1.
         -1    1    1    2    0  502  0.12151483971E+02 -0.16414006378E+02 -0.56198413118E+02  0.59794145241E+02  0.00000000000E+00 0.  1.
<scales pt_clust_5="13000.00000" pt_clust_6="13000.00000" pt_clust_7="13000.00000" pt_clust_8="13000.00000" pt_clust_9="20.42250"></scales>
<clustering>
<clus scale="   20.423">  1  9  2 -1</clus>
<clus scale="   80.382">  5  6 -1 -1</clus>
<clus scale="   86.080">  2  5  1 -1</clus>
<clus scale="   91.169">  7  8 -1 -1</clus>
<clus scale="   20.423">  1  5  2 -1</clus>
</clustering>
</event>
<event>
 9    1  0.5981539E-005  0.1820858E+03  0.7546771E-02  0.1166814E+00
          1   -1    0    0  502    0 -0.00000000000E+00  0.00000000000E+00  0.18876921415E+04  0.18876921415E+04  0.00000000000E+00 0. -1.
         21   -1    0    0  501  502  0.00000000000E+00 -0.00000000000E+00 -0.58093892471E+02  0.58093892471E+02  0.00000000000E+00 0. -1.
         23    2    1    2    0    0  0.13149742733E+03  0.98131505510E+02  0.63213982704E+03  0.65923775282E+03  0.89845912744E+02 0.  0.
        -24    2    1    2    0    0 -0.18214384216E+03  0.31713361425E+02  0.21750260593E+03  0.29673105044E+03  0.80992692111E+02 0.  0.
         11    1    4    4    0    0 -0.12869012926E+03  0.37792826790E+02  0.99368462959E+02  0.16692375073E+03  0.00000000000E+00 0. -1.
        -12    1    4    4    0    0 -0.53453712904E+02 -0.60794653646E+01  0.11813414297E+03  0.12980729971E+03  0.00000000000E+00 0.  1.
        -13    1    3    3    0    0  0.12438715423E+03  0.77753366828E+02  0.61326867713E+03  0.63056817279E+03  0.00000000000E+00 0. -1.
         13    1    3    3    0    0  0.71102731010E+01  0.20378138682E+02  0.18871149912E+02  0.28669580023E+02  0.00000000000E+00 0.  1.
          2    1    1    2  501    0  0.50646414832E+02 -0.12984486694E+03  0.97995581608E+03  0.98981723074E+03  0.00000000000E+00 0. -1.
<scales pt_clust_5="13000.00000" pt_clust_6="13000.00000" pt_clust_7="13000.00000" pt_clust_8="13000.00000" pt_clust_9="139.37277"></scales>
<clustering>
<clus scale="   80.993">  5  6 -1 -1</clus>
<clus scale="   89.846">  7  8 -1 -1</clus>
<clus scale="  139.373">  2  9  1 -1</clus>
<clus scale="  177.884">  2  5  1 -1</clus>
<clus scale="  139.373">  2  5  1 -1</clus>
</clustering>
</event>
<event>
 9    1  0.5981539E-005  0.1585821E+03  0.7546771E-02  0.1191761E+00
         21   -1    0    0  501  502  0.00000000000E+00  0.00000000000E+00  0.60284121926E+03  0.60284121926E+03  0.00000000000E+00 0.  1.
          1   -1    0    0  502    0 -0.00000000000E+00 -0.00000000000E+00 -0.73091455477E+02  0.73091455477E+02  0.00000000000E+00 0. -1.
         23    2    1    2    0    0 -0.38042764231E+02 -0.12372039773E+03  0.53520827111E+02  0.16666361848E+03  0.90323275333E+02 0.  0.
        -24    2    1    2    0    0  0.60480800921E+02  0.12109490517E+03  0.41721376120E+03  0.44607768313E+03  0.81216214583E+02 0.  0.
         11    1    4    4    0    0  0.41124420225E+02  0.63292451540E+02  0.11349476307E+03  0.13630192076E+03  0.00000000000E+00 0. -1.
        -12    1    4    4    0    0  0.19356380696E+02  0.57802453629E+02  0.30371899814E+03  0.30977576237E+03  0.00000000000E+00 0.  1.
        -13    1    3    3    0    0  0.73062318950E+01 -0.85361117482E+02  0.63228523245E+02  0.10647885966E+03  0.00000000000E+00 0.  1.
         13    1    3    3    0    0 -0.45348996126E+02 -0.38359280246E+02 -0.97076961336E+01  0.60184758826E+02  0.00000000000E+00 0. -1.
          2    1    1    2  501    0 -0.22438036690E+02  0.26254925597E+01  0.59015175466E+02  0.63191373121E+02  0.00000000000E+00 0. -1.
<scales pt_clust_5="13000.00000" pt_clust_6="13000.00000" pt_clust_7="13000.00000" pt_clust_8="13000.00000" pt_clust_9="22.59112"></scales>
<clustering>
<clus scale="   22.591">  1  9  2 -1</clus>
<clus scale="   81.216">  5  6 -1 -1</clus>
<clus scale="   90.323">  7  8 -1 -1</clus>
<clus scale="  153.578">  1  5  2 -1</clus>
<clus scale="   22.591">  1  5  2 -1</clus>
</clustering>
</event>
<event>
 9    1  0.5981539E-005  0.1198380E+03  0.7546771E-02  0.1245605E+00
         -2   -1    0    0    0  501 -0.00000000000E+00  0.00000000000E+00  0.19527620207E+03  0.19527620207E+03  0.00000000000E+00 0.  1.
         21   -1    0    0  501  502  0.00000000000E+00 -0.00000000000E+00 -0.49674863810E+03  0.49674863810E+03  0.00000000000E+00 0. -1.
         23    2    1    2    0    0 -0.63785157676E+02  0.33362292954E+02  0.13390098983E+03  0.17718509963E+03  0.91013710632E+02 0.  0.
        -24    2    1    2    0    0  0.12981353514E+03 -0.16945653563E+02 -0.13213403862E+03  0.20406107547E+03  0.83921447088E+02 0.  0.
         13    1    4    4    0    0  0.11808629154E+03 -0.38677622095E+02 -0.12909409539E+03  0.17918040118E+03  0.00000000000E+00 0. -1.
        -14    1    4    4    0    0  0.11727243599E+02  0.21731968533E+02 -0.30399432313E+01  0.24880674299E+02  0.00000000000E+00 0.  1.
        -11    1    3    3    0    0  0.13670619929E+02  0.22142339172E+02  0.51715971364E+01  0.26531386134E+02  0.00000000000E+00 0. -1.
         11    1    3    3    0    0 -0.77455777605E+02  0.11219953783E+02  0.12872939270E+03  0.15065371350E+03  0.00000000000E+00 0.  1.
         -1    1    1    2    0  502 -0.66028377466E+02 -0.16416639392E+02 -0.30323938725E+03  0.31077866506E+03  0.00000000000E+00 0.  1.
<scales pt_clust_5="13000.00000" pt_clust_6="13000.00000" pt_clust_7="13000.00000" pt_clust_8="13000.00000" pt_clust_9="68.03861"></scales>
<clustering>
<clus scale="   68.039">  2  9  1 -1</clus>
<clus scale="   83.921">  5  6 -1 -1</clus>
<clus scale="   91.014">  7  8 -1 -1</clus>
<clus scale="  114.545">  2  5  1 -1</clus>
<clus scale="   68.039">  2  5  1 -1</clus>
</clustering>
</event>
<event>
 9    1  0.5981539E-005  0.1677069E+03  0.7546771E-02  0.1181193E+00
          1   -1    0    0  502    0 -0.00000000000E+00  0.00000000000E+00  0.99055726070E+03  0.99055726070E+03  0.00000000000E+00 0. -1.
         21   -1    0    0  501  502  0.00000000000E+00 -0.00000000000E+00 -0.57998058051E+02  0.57998058051E+02  0.00000000000E+00 0. -1.
        -24    2    1    2    0    0 -0.94906102004E+02  0.10555402675E+03  0.58042052618E+03  0.60356281581E+03  0.85154357825E+02 0.  0.
         23    2    1    2    0    0  0.40096832425E+02 -0.14113399241E+03  0.13859328915E+03  0.22167295066E+03  0.91674628277E+02 0.  0.
         11    1    3    3    0    0 -0.11065464402E+03  0.89678903176E+02  0.51935918841E+03  0.53853572073E+03  0.00000000000E+00 0. -1.
        -12    1    3    3    0    0  0.15748542015E+02  0.15875123574E+02  0.61061337776E+02  0.65027095084E+02  0.00000000000E+00 0.  1.
        -11    1    4    4    0    0  0.48106094209E+02 -0.12022704243E+03  0.14863787310E+03  0.19713435863E+03  0.00000000000E+00 0. -1.
         11    1    4    4    0    0 -0.80092617844E+01 -0.20906949979E+02 -0.10044583952E+02  0.24538592024E+02  0.00000000000E+00 0.  1.
          2    1    1    2  501    0  0.54809269580E+02  0.35579965663E+02  0.21354538731E+03  0.22331955228E+03  0.00000000000E+00 0. -1.
<scales pt_clust_5="13000.00000" pt_clust_6="13000.00000" pt_clust_7="13000.00000" pt_clust_8="13000.00000" pt_clust_9="65.34519"></scales>
<clustering>
<clus scale="   65.345">  2  9  1 -1</clus>
<clus scale="   85.154">  5  6 -1 -1</clus>
<clus scale="   91.675">  7  8 -1 -1</clus>
<clus scale="  164.233">  1  5  2 -1</clus>
<clus scale="   65.345">  2  5  1 -1</clus>
</clustering>
</event>
<event>
 9    1  0.5981539E-005  0.1042624E+03  0.7546771E-02  0.1274525E+00
         21   -1    0    0  501  502  0.00000000000E+00  0.00000000000E+00  0.18452582025E+03  0.18452582025E+03  0.00000000000E+00 0.  1.
          1   -1    0    0  502    0 -0.00000000000E+00 -0.00000000000E+00 -0.27812816127E+03  0.27812816127E+03  0.00000000000E+00 0. -1.
        -24    2    1    2    0    0  0.47029813691E+02  0.26754969631E+02 -0.24119490009E+03  0.26061373917E+03  0.82564577411E+02 0.  0.
         23    2    1    2    0    0 -0.55723941745E+02 -0.10611325317E+01  0.90561581902E+02  0.13888730508E+03  0.89342037757E+02 0.  0.
         11    1    3    3    0    0  0.19833776092E+02  0.55622795307E+02 -0.14471035306E+03  0.15629574631E+03  0.00000000000E+00 0. -1.
        -12    1    3    3    0    0  0.27196037598E+02 -0.28867825677E+02 -0.96484547029E+02  0.10431799287E+03  0.00000000000E+00 0.  1.
        -11    1    4    4    0    0  0.12904210252E+02 -0.25693421630E+02  0.43364593632E+02  0.52030361695E+02  0.00000000000E+00 0. -1.
         11    1    4    4    0    0 -0.68628151997E+02  0.24632289098E+02  0.47196988270E+02  0.86856943387E+02  0.00000000000E+00 0.  1.
          2    1    1    2  501    0  0.86941280544E+01 -0.25693837099E+02  0.57030977167E+02  0.63152937256E+02  0.00000000000E+00 0. -1.
<scales pt_clust_5="13000.00000" pt_clust_6="13000.00000" pt_clust_7="13000.00000" pt_clust_8="13000.00000" pt_clust_9="27.12492"></scales>
<clustering>
<clus scale="   27.125">  1  9  2 -1</clus>
<clus scale="   82.565">  5  6 -1 -1</clus>
<clus scale="   89.342">  7  8 -1 -1</clus>
<clus scale="   98.517">  2  5  1 -1</clus>
<clus scale="   27.125">  1  5  2 -1</clus>
</clustering>
</event>
<event>
 9    1  0.5981539E-005  0.1045470E+03  0.7546771E-02  0.1278763E+00
         21   -1    0    0  501  502  0.00000000000E+00  0.00000000000E+00  0.10315615448E+04  0.10315615448E+04  0.00000000000E+00 0.  1.
          1   -1    0    0  502    0 -0.00000000000E+00 -0.00000000000E+00 -0.28577623540E+02  0.28577623540E+02  0.00000000000E+00 0. -1.
         23    2    1    2    0    0 -0.38721728334E+02  0.19115997665E+02  0.83478767128E+02  0.13401289533E+03  0.95529879836E+02 0.  0.
        -24    2    1    2    0    0  0.41762532622E+02  0.12437166167E+01  0.76764621006E+03  0.77287842359E+03  0.79465073294E+02 0.  0.
         13    1    4    4    0    0  0.15322732865E+02 -0.20313364980E+02  0.71423058925E+02  0.75819999244E+02  0.00000000000E+00 0. -1.
        -14    1    4    4    0    0  0.26439799757E+02  0.21557081597E+02  0.69622315113E+03  0.69705842435E+03  0.00000000000E+00 0.  1.
        -13    1    3    3    0    0 -0.58720204365E+02 -0.91721370233E+01  0.79328111046E+02  0.99121842700E+02  0.00000000000E+00 0. -1.
         13    1    3    3    0    0  0.19998476030E+02  0.28288134688E+02  0.41506560824E+01  0.34891052630E+02  0.00000000000E+00 0.  1.
          2    1    1    2  501    0 -0.30408042879E+01 -0.20359714282E+02  0.15185894411E+03  0.15324784945E+03  0.00000000000E+00 0. -1.
<scales pt_clust_5="13000.00000" pt_clust_6="13000.00000" pt_clust_7="13000.00000" pt_clust_8="13000.00000" pt_clust_9="20.58554"></scales>
<clustering>
<clus scale="   20.586">  1  9  2 -1</clus>
<clus scale="   79.465">  5  6 -1 -1</clus>
<clus scale="   90.104">  1  5  2 -1</clus>
<clus scale="   95.530">  7  8 -1 -1</clus>
<clus scale="   20.586">  1  5  2 -1</clus>
</clustering>
</event>
<event>
 9    1  0.5981539E-005  0.1126039E+03  0.7546771E-02  0.1259694E+00
          1   -1    0    0  502    0 -0.00000000000E+00  0.00000000000E+00  0.20170188983E+03  0.20170188983E+03  0.00000000000E+00 0. -1.
         21   -1    0    0  501  502  0.00000000000E+00 -0.00000000000E+00 -0.10449633540E+03  0.10449633540E+03  0.00000000000E+00 0.  1.
         23    2    1    2    0    0  0.73443927406E+01  0.72872894630E+02  0.13545587776E+03  0.17906943553E+03  0.91395673013E+02 0.  0.
        -24    2    1    2    0    0 -0.63005578984E+01 -0.44231223546E+02 -0.27063337430E+02  0.96362191453E+02  0.80976228255E+02 0.  0.
         11    1    4    4    0    0 -0.55341974093E+01 -0.42027523730E+02  0.21645896852E+02  0.47597110651E+02  0.00000000000E+00 0. -1.
        -12    1    4    4    0    0 -0.76636048906E+00 -0.22036998163E+01 -0.48709234281E+02  0.48765080801E+02  0.00000000000E+00 0.  1.
        -13    1    3    3    0    0 -0.25425583020E+02  0.26251046751E+01  0.79389835881E+02  0.83403222286E+02  0.00000000000E+00 0.  1.
         13    1    3    3    0    0  0.32769975761E+02  0.70247789954E+02  0.56066041881E+02  0.95666213247E+02  0.00000000000E+00 0. -1.
          2    1    1    2  501    0 -0.10438348422E+01 -0.28641671083E+02 -0.11186985906E+02  0.30766598240E+02  0.00000000000E+00 0. -1.
<scales pt_clust_5="13000.00000" pt_clust_6="13000.00000" pt_clust_7="13000.00000" pt_clust_8="13000.00000" pt_clust_9="28.66069"></scales>
<clustering>
<clus scale="   28.661">  2  9  1 -1</clus>
<clus scale="   80.976">  5  6 -1 -1</clus>
<clus scale="   91.396">  7  8 -1 -1</clus>
<clus scale="  104.325">  2  5  1 -1</clus>
<clus scale="   28.661">  2  5  1 -1</clus>
</clustering>
</event>
<event>
 9    1  0.5981539E-005  0.1947627E+03  0.7546771E-02  0.1155396E+00
         21   -1    0    0  501  502  0.00000000000E+00  0.00000000000E+00  0.47901569703E+02  0.47901569703E+02  0.00000000000E+00 0. -1.
          1   -1    0    0  502    0 -0.00000000000E+00 -0.00000000000E+00 -0.12337063465E+04  0.12337063465E+04  0.00000000000E+00 0. -1.
        -24    2    1    2    0    0  0.10755342725E+03  0.15765069605E+03 -0.47293311419E+03  0.51627859052E+03  0.80351545427E+02 0.  0.
         23    2    1    2    0    0 -0.35938600461E+02 -0.15325973689E+03 -0.34195526604E+03  0.38753713786E+03  0.92040748011E+02 0.  0.
         11    1    3    3    0    0  0.97164007802E+02  0.15939087518E+03 -0.46941905628E+03  0.50517377792E+03  0.00000000000E+00 0. -1.
        -12    1    3    3    0    0  0.10389419443E+02 -0.17401791320E+01 -0.35140579125E+01  0.11104812596E+02  0.00000000000E+00 0.  1.
        -13    1    4    4    0    0 -0.11999951896E+02 -0.27991520326E+02 -0.10209041821E+02  0.32120843553E+02  0.00000000000E+00 0.  1.
         13    1    4    4    0    0 -0.23938648565E+02 -0.12526821657E+03 -0.33174622422E+03  0.35541629431E+03  0.00000000000E+00 0. -1.
          2    1    1    2  501    0 -0.71614826784E+02 -0.43909591594E+01 -0.37091639655E+03  0.37779218780E+03  0.00000000000E+00 0. -1.
<scales pt_clust_5="13000.00000" pt_clust_6="13000.00000" pt_clust_7="13000.00000" pt_clust_8="13000.00000" pt_clust_9="71.74935"></scales>
<clustering>
<clus scale="   71.749">  1  9  2 -1</clus>
<clus scale="   80.352">  5  6 -1 -1</clus>
<clus scale="   92.041">  7  8 -1 -1</clus>
<clus scale="  189.519">  2  5  1 -1</clus>
<clus scale="   71.749">  1  5  2 -1</clus>
</clustering>
</event>
<event>
 9    1  0.5981539E-005  0.1301344E+03  0.7546771E-02  0.1230655E+00
         21   -1    0    0  501  502  0.00000000000E+00  0.00000000000E+00  0.10086962849E+03  0.10086962849E+03  0.00000000000E+00 0. -1.
          1   -1    0    0  502    0 -0.00000000000E+00 -0.00000000000E+00 -0.42576487630E+03  0.42576487630E+03  0.00000000000E+00 0. -1.
         23    2    1    2    0    0  0.50658865419E+02 -0.80606252802E+02 -0.27977885284E+03  0.30995639296E+03  0.93450898352E+02 0.  0.
        -24    2    1    2    0    0 -0.24689636356E+02  0.61135917016E+02  0.50430454889E+02  0.11576876959E+03  0.80696956202E+02 0.  0.
         13    1    4    4    0    0 -0.12642862961E+02  0.74001408929E+02  0.59642331126E+02  0.95881479804E+02  0.00000000000E+00 0. -1.
        -14    1    4    4    0    0 -0.12046773395E+02 -0.12865491912E+02 -0.92118762376E+01  0.19887289790E+02  0.00000000000E+00 0.  1.
        -13    1    3    3    0    0  0.17911820467E+02  0.12753454769E+02 -0.12021335781E+03  0.12220775474E+03  0.00000000000E+00 0.  1.
         13    1    3    3    0    0  0.32747044951E+02 -0.93359707571E+02 -0.15956549502E+03  0.18774863822E+03  0.00000000000E+00 0. -1.
          2    1    1    2  501    0 -0.25969229062E+02  0.19470335786E+02 -0.95546849859E+02  0.10090934224E+03  0.00000000000E+00 0. -1.
<scales pt_clust_5="13000.00000" pt_clust_6="13000.00000" pt_clust_7="13000.00000" pt_clust_8="13000.00000" pt_clust_9="32.45760"></scales>
<clustering>
<clus scale="   32.458">  1  9  2 -1</clus>
<clus scale="   80.697">  5  6 -1 -1</clus>
<clus scale="   93.451">  7  8 -1 -1</clus>
<clus scale="  121.301">  1  5  2 -1</clus>
<clus scale="   32.458">  1  5  2 -1</clus>
</clustering>
</event>
<event>
 9    1  0.5981539E-005  0.2224022E+03  0.7546771E-02  0.1166556E+00
          1   -1    0    0  502    0 -0.00000000000E+00  0.00000000000E+00  0.81662213270E+03  0.81662213270E+03  0.00000000000E+00 0. -1.
         21   -1    0    0  501  502  0.00000000000E+00 -0.00000000000E+00 -0.10301870293E+03  0.10301870293E+03  0.00000000000E+00 0. -1.
         23    2    1    2    0    0 -0.28923316814E+02 -0.25967315195E+02  0.31158785438E+02  0.10302615363E+03  0.90181254749E+02 0.  0.
        -24    2    1    2    0    0  0.17115505971E+03  0.14318880909E+03  0.23782937076E+03  0.33531073561E+03  0.77931959474E+02 0.  0.
         13    1    4    4    0    0  0.13164608325E+03  0.13440858622E+03  0.22402901906E+03  0.29254975759E+03  0.00000000000E+00 0. -1.
        -14    1    4    4    0    0  0.39508976458E+02  0.87802228694E+01  0.13800351704E+02  0.42760978024E+02  0.00000000000E+00 0.  1.
        -13    1    3    3    0    0 -0.45420237129E+02  0.88883938227E+01  0.42495168237E+02  0.62831845501E+02  0.00000000000E+00 0.  1.
         13    1    3    3    0    0  0.16496920316E+02 -0.34855709018E+02 -0.11336382799E+02  0.40194308130E+02  0.00000000000E+00 0. -1.
          2    1    1    2  501    0 -0.14223174289E+03 -0.11722149389E+03  0.44461527356E+03  0.48130394638E+03  0.00000000000E+00 0. -1.
<scales pt_clust_5="13000.00000" pt_clust_6="13000.00000" pt_clust_7="13000.00000" pt_clust_8="13000.00000" pt_clust_9="208.30123"></scales>
<clustering>
<clus scale="   77.932">  5  6 -1 -1</clus>
<clus scale="   90.181">  7  8 -1 -1</clus>
<clus scale="   98.201">  1  7  2 -1</clus>
<clus scale="  208.301">  2  9  1 -1</clus>
<clus scale="  208.301">  2  5  1 -1</clus>
</clustering>
</event>
<event>
 9    1  0.5981539E-005  0.9871981E+02  0.7546771E-02  0.1289987E+00
         21   -1    0    0  501  502  0.00000000000E+00  0.00000000000E+00  0.84038588205E+03  0.84038588205E+03  0.00000000000E+00 0. -1.
          3   -1    0    0  502    0 -0.00000000000E+00 -0.00000000000E+00 -0.58695725677E+02  0.58695725677E+02  0.00000000000E+00 0. -1.
        -24    2    1    2    0    0  0.65380687223E+02 -0.33791646146E+02  0.40555745734E+02  0.11429720852E+03  0.77476278642E+02 0.  0.
         23    2    1    2    0    0  0.66410739060E+01 -0.20503186919E+02  0.98025475200E+02  0.13538146896E+03  0.90855180441E+02 0.  0.
         13    1    3    3    0    0  0.63602028644E+02 -0.55819483335E+02  0.34479057888E+02  0.91377449079E+02  0.00000000000E+00 0. -1.
        -14    1    3    3    0    0  0.17786585784E+01  0.22027837189E+02  0.60766878457E+01  0.22919759439E+02  0.00000000000E+00 0.  1.
        -11    1    4    4    0    0 -0.18193686353E+01 -0.51947014161E+02  0.30126579236E+02  0.60078391780E+02  0.00000000000E+00 0.  1.
         11    1    4    4    0    0  0.84604425412E+01  0.31443827241E+02  0.67898895964E+02  0.75303077180E+02  0.00000000000E+00 0. -1.
          4    1    1    2  501    0 -0.72021761129E+02  0.54294833065E+02  0.64310893544E+03  0.64940293025E+03  0.00000000000E+00 0. -1.
<scales pt_clust_5="13000.00000" pt_clust_6="13000.00000" pt_clust_7="13000.00000" pt_clust_8="13000.00000" pt_clust_9="90.19458"></scales>
<clustering>
<clus scale="   77.476">  5  6 -1 -1</clus>
<clus scale="   90.195">  1  9  2 -1</clus>
<clus scale="   86.565">  2  5  1 -1</clus>
<clus scale="   90.855">  7  8 -1 -1</clus>
<clus scale="   90.195">  1  5  2 -1</clus>
</clustering>
</event>
<event>
 9    1  0.5981539E-005  0.1072837E+03  0.7546771E-02  0.1269877E+00
         21   -1    0    0  501  502  0.00000000000E+00  0.00000000000E+00  0.51911974161E+03  0.51911974161E+03  0.00000000000E+00 0.  1.
          1   -1    0    0  502    0 -0.00000000000E+00 -0.00000000000E+00 -0.11052151740E+03  0.11052151740E+03  0.00000000000E+00 0. -1.
        -24    2    1    2    0    0  0.19773279714E+02 -0.47732087446E+02 -0.34658611569E+01  0.96236303997E+02  0.81117687657E+02 0.  0.
         23    2    1    2    0    0 -0.66678756123E+02  0.84985432220E+02  0.44369728951E+03  0.46566578600E+03  0.91152396164E+02 0.  0.
         11    1    3    3    0    0  0.26549681519E+02 -0.68957876330E+02 -0.25587209618E+01  0.73936603585E+02  0.00000000000E+00 0. -1.
        -12    1    3    3    0    0 -0.67764018053E+01  0.21225788883E+02 -0.90714019513E+00  0.22299700412E+02  0.00000000000E+00 0.  1.
        -13    1    4    4    0    0 -0.60767663109E+02  0.34814076453E+02  0.36836046073E+03  0.37495887485E+03  0.00000000000E+00 0.  1.
         13    1    4    4    0    0 -0.59110930144E+01  0.50171355767E+02  0.75336828775E+02  0.90706911148E+02  0.00000000000E+00 0. -1.
          2    1    1    2  501    0  0.46905476410E+02 -0.37253344773E+02 -0.31633204136E+02  0.67739169008E+02  0.00000000000E+00 0. -1.
<scales pt_clust_5="13000.00000" pt_clust_6="13000.00000" pt_clust_7="13000.00000" pt_clust_8="13000.00000" pt_clust_9="59.89941"></scales>
<clustering>
<clus scale="   59.899">  1  9  2 -1</clus>
<clus scale="   81.118">  5  6 -1 -1</clus>
<clus scale="   91.152">  7  8 -1 -1</clus>
<clus scale="   98.899">  2  5  1 -1</clus>
<clus scale="   59.899">  1  5  2 -1</clus>
</clustering>
</event>
<event>
 9    1  0.5981539E-005  0.1508258E+03  0.7546771E-02  0.1217110E+00
         21   -1    0    0  501  502  0.00000000000E+00  0.00000000000E+00  0.41614041735E+03  0.41614041735E+03  0.00000000000E+00 0.  1.
          1   -1    0    0  502    0 -0.00000000000E+00 -0.00000000000E+00 -0.17723400088E+03  0.17723400088E+03  0.00000000000E+00 0. -1.
         23    2    1    2    0    0  0.37162081834E+02  0.30496454900E+02 -0.93589296968E+02  0.13943187491E+03  0.91494465111E+02 0.  0.
        -24    2    1    2    0    0 -0.38493307807E+02  0.11182033137E+03  0.25024084991E+03  0.28955975106E+03  0.85081403502E+02 0.  0.
         13    1    4    4    0    0  0.21519144184E+02  0.17388611771E+02  0.21920257679E+02  0.35297805633E+02  0.00000000000E+00 0. -1.
        -14    1    4    4    0    0 -0.60012451991E+02  0.94431719595E+02  0.22832059223E+03  0.25426194543E+03  0.00000000000E+00 0.  1.
        -11    1    3    3    0    0  0.56052267180E+02  0.50669905033E+02 -0.65042198311E+02  0.99698462843E+02  0.00000000000E+00 0. -1.
         11    1    3    3    0    0 -0.18890185347E+02 -0.20173450132E+02 -0.28547098656E+02  0.39733412065E+02  0.00000000000E+00 0.  1.
          2    1    1    2  501    0  0.13312259732E+01 -0.14231678627E+03  0.82254863528E+02  0.16438279226E+03  0.00000000000E+00 0. -1.
<scales pt_clust_5="13000.00000" pt_clust_6="13000.00000" pt_clust_7="13000.00000" pt_clust_8="13000.00000" pt_clust_9="124.53755"></scales>
<clustering>
<clus scale="   85.081">  5  6 -1 -1</clus>
<clus scale="   91.494">  7  8 -1 -1</clus>
<clus scale="  103.355">  2  7  1 -1</clus>
<clus scale="  124.538">  1  9  2 -1</clus>
<clus scale="  124.538">  1  5  2 -1</clus>
</clustering>
</event>
<event>
 9    1  0.5981539E-005  0.1278585E+03  0.7546771E-02  0.1251270E+00
         -2   -1    0    0    0  501 -0.00000000000E+00  0.00000000000E+00  0.62836725596E+02  0.62836725596E+02  0.00000000000E+00 0.  1.
         21   -1    0    0  501  502  0.00000000000E+00 -0.00000000000E+00 -0.78450828368E+03  0.78450828368E+03  0.00000000000E+00 0. -1.
        -24    2    1    2    0    0  0.16920499793E+02 -0.18469011825E+02 -0.71364270895E+01  0.84499413914E+02  0.80385413161E+02 0.  0.
         23    2    1    2    0    0  0.10039219746E+02  0.10115005741E+03 -0.20915273677E+03  0.25003535154E+03  0.91873226104E+02 0.  0.
         11    1    3    3    0    0  0.48055872867E+02 -0.29331812516E+01 -0.11304061177E+02  0.49454547499E+02  0.00000000000E+00 0. -1.
        -12    1    3    3    0    0 -0.31135373075E+02 -0.15535830573E+02  0.41676340878E+01  0.35044866414E+02  0.00000000000E+00 0.  1.
        -13    1    4    4    0    0 -0.27806350472E+02  0.84774352032E+02 -0.10364739375E+03  0.13675769127E+03  0.00000000000E+00 0.  1.
         13    1    4    4    0    0  0.37845570219E+02  0.16375705375E+02 -0.10550534301E+03  0.11327766027E+03  0.00000000000E+00 0. -1.
         -1    1    1    2    0  502 -0.26959719539E+02 -0.82681045582E+02 -0.50538239423E+03  0.51281024383E+03  0.00000000000E+00 0.  1.
<scales pt_clust_5="13000.00000" pt_clust_6="13000.00000" pt_clust_7="13000.00000" pt_clust_8="13000.00000" pt_clust_9="88.92193"></scales>
<clustering>
<clus scale="   80.385">  5  6 -1 -1</clus>
<clus scale="   84.198">  1  5  2 -1</clus>
<clus scale="   88.922">  2  9  1 -1</clus>
<clus scale="   91.873">  7  8 -1 -1</clus>
<clus scale="   88.922">  2  5  1 -1</clus>
</clustering>
</event>
<event>
 9    1  0.5981539E-005  0.8474546E+02  0.7546771E-02  0.1316393E+00
          1   -1    0    0  502    0 -0.00000000000E+00  0.00000000000E+00  0.31326635264E+03  0.31326635264E+03  0.00000000000E+00 0. -1.
         21   -1    0    0  501  502  0.00000000000E+00 -0.00000000000E+00 -0.57534871487E+02  0.57534871487E+02  0.00000000000E+00 0. -1.
        -24    2    1    2    0    0 -0.24354118006E+02  0.16984291924E+02  0.19847740012E+03  0.21644219712E+03  0.81070075242E+02 0.  0.
         23    2    1    2    0    0 -0.60256674860E+01  0.61509796267E+01 -0.41039408143E+01  0.82088846425E+02  0.81532773521E+02 0.  0.
         13    1    3    3    0    0 -0.41939037200E+02  0.24798241122E+02  0.18864036525E+03  0.19483075478E+03  0.00000000000E+00 0. -1.
        -14    1    3    3    0    0  0.17584919193E+02 -0.78139491979E+01  0.98370348625E+01  0.21611442339E+02  0.00000000000E+00 0.  1.
        -11    1    4    4    0    0  0.83223442732E+01  0.29287109072E+02  0.27042136633E+02  0.40721902284E+02  0.00000000000E+00 0.  1.
         11    1    4    4    0    0 -0.14348011759E+02 -0.23136129445E+02 -0.31146077447E+02  0.41366944140E+02  0.00000000000E+00 0. -1.
          2    1    1    2  501    0  0.30379785492E+02 -0.23135271551E+02  0.61358021848E+02  0.72270180582E+02  0.00000000000E+00 0. -1.
<scales pt_clust_5="13000.00000" pt_clust_6="13000.00000" pt_clust_7="13000.00000" pt_clust_8="13000.00000" pt_clust_9="38.18604"></scales>
<clustering>
<clus scale="   38.186">  2  9  1 -1</clus>
<clus scale="   81.070">  5  6 -1 -1</clus>
<clus scale="   81.533">  7  8 -1 -1</clus>
<clus scale="   84.300">  1  5  2 -1</clus>
<clus scale="   38.186">  2  5  1 -1</clus>
</clustering>
</event>
<event>
 9    1  0.5981539E-005  0.1374048E+03  0.7546771E-02  0.1221329E+00
         21   -1    0    0  501  502  0.00000000000E+00  0.00000000000E+00  0.47038324403E+03  0.47038324403E+03  0.00000000000E+00 0.  1.
         -4   -1    0    0    0  501 -0.00000000000E+00 -0.00000000000E+00 -0.88832610343E+02  0.88832610343E+02  0.00000000000E+00 0.  1.
         23    2    1    2    0    0 -0.31912665002E+02  0.82438677173E+02  0.18399161090E+03  0.22248808407E+03  0.88506954471E+02 0.  0.
        -24    2    1    2    0    0  0.10398062901E+03  0.25048152860E+02  0.49781412023E+02  0.14029602056E+03  0.75930252406E+02 0.  0.
         11    1    4    4    0    0  0.70055343922E+02 -0.21572342656E+02  0.23934983355E+02  0.77110314537E+02  0.00000000000E+00 0. -1.
        -12    1    4    4    0    0  0.33925285084E+02  0.46620495516E+02  0.25846428668E+02  0.63185706019E+02  0.00000000000E+00 0.  1.
        -13    1    3    3    0    0 -0.66790015752E+01  0.41536595000E+02  0.11768666328E+02  0.43685229694E+02  0.00000000000E+00 0. -1.
         13    1    3    3    0    0 -0.25233663427E+02  0.40902082173E+02  0.17222294457E+03  0.17880285438E+03  0.00000000000E+00 0.  1.
         -3    1    1    2    0  502 -0.72067964004E+02 -0.10748683003E+03  0.14777761077E+03  0.19643174975E+03  0.00000000000E+00 0.  1.
<scales pt_clust_5="13000.00000" pt_clust_6="13000.00000" pt_clust_7="13000.00000" pt_clust_8="13000.00000" pt_clust_9="114.51934"></scales>
<clustering>
<clus scale="   75.930">  5  6 -1 -1</clus>
<clus scale="   88.507">  7  8 -1 -1</clus>
<clus scale="  125.092">  2  7  1 -1</clus>
<clus scale="  114.519">  1  9  2 -1</clus>
<clus scale="  114.519">  1  5  2 -1</clus>
</clustering>
</event>
<event>
 9    1  0.5981539E-005  0.1699071E+03  0.7546771E-02  0.1185555E+00
         21   -1    0    0  501  502  0.00000000000E+00  0.00000000000E+00  0.23075106114E+03  0.23075106114E+03  0.00000000000E+00 0.  1.
          1   -1    0    0  502    0 -0.00000000000E+00 -0.00000000000E+00 -0.25223132197E+03  0.25223132197E+03  0.00000000000E+00 0. -1.
        -24    2    1    2    0    0 -0.44406882492E+01  0.11850736394E+03 -0.18829361803E+02  0.14449839633E+03  0.80383621827E+02 0.  0.
         23    2    1    2    0    0  0.11047525551E+03  0.38316657480E+02 -0.76677184272E+01  0.14911062111E+03  0.92207565307E+02 0.  0.
         13    1    3    3    0    0 -0.95059690931E+01  0.83730496678E+02  0.25393852766E+02  0.88011404265E+02  0.00000000000E+00 0. -1.
        -14    1    3    3    0    0  0.50652808438E+01  0.34776867258E+02 -0.44223214568E+02  0.56486992069E+02  0.00000000000E+00 0.  1.
        -11    1    4    4    0    0  0.56483115366E+02  0.61328165560E+02  0.17597069283E+02  0.85212341006E+02  0.00000000000E+00 0.  1.
         11    1    4    4    0    0  0.53992140148E+02 -0.23011508080E+02 -0.25264787710E+02  0.63898280101E+02  0.00000000000E+00 0. -1.
          2    1    1    2  501    0 -0.10603456726E+03 -0.15682402142E+03  0.50168194077E+01  0.18937336567E+03  0.00000000000E+00 0. -1.
<scales pt_clust_5="13000.00000" pt_clust_6="13000.00000" pt_clust_7="13000.00000" pt_clust_8="13000.00000" pt_clust_9="142.71017"></scales>
<clustering>
<clus scale="   80.384">  5  6 -1 -1</clus>
<clus scale="   92.208">  7  8 -1 -1</clus>
<clus scale="  143.266">  2  5  1 -1</clus>
<clus scale="  142.710">  1  9  2 -1</clus>
<clus scale="  142.710">  1  5  2 -1</clus>
</clustering>
</event>
<event>
 9    1  0.5981539E-005  0.1012891E+03  0.7546771E-02  0.1283017E+00
         21   -1    0    0  501  502  0.00000000000E+00  0.00000000000E+00  0.34191994886E+03  0.34191994886E+03  0.00000000000E+00 0. -1.
         -4   -1    0    0    0  501 -0.00000000000E+00 -0.00000000000E+00 -0.38472256338E+02  0.38472256338E+02  0.00000000000E+00 0.  1.
        -24    2    1    2    0    0  0.30128473199E+02 -0.33727745914E+02  0.83371438757E+02  0.12466079130E+03  0.80896417385E+02 0.  0.
         23    2    1    2    0    0 -0.96259445398E+01  0.38915318438E+02  0.20908801521E+03  0.23189853793E+03  0.91935156347E+02 0.  0.
         13    1    3    3    0    0  0.39213146555E+02  0.15524434008E+02  0.32223423184E+02  0.53075681020E+02  0.00000000000E+00 0. -1.
        -14    1    3    3    0    0 -0.90846733555E+01 -0.49252179922E+02  0.51148015573E+02  0.71585110282E+02  0.00000000000E+00 0.  1.
        -13    1    4    4    0    0 -0.18297491112E+02 -0.25332064606E+02  0.10235699194E+03  0.10702086468E+03  0.00000000000E+00 0.  1.
         13    1    4    4    0    0  0.86715465719E+01  0.64247383044E+02  0.10673102327E+03  0.12487767325E+03  0.00000000000E+00 0. -1.
         -3    1    1    2    0  502 -0.20502528659E+02 -0.51875725241E+01  0.10988238550E+02  0.23832875961E+02  0.00000000000E+00 0.  1.
<scales pt_clust_5="13000.00000" pt_clust_6="13000.00000" pt_clust_7="13000.00000" pt_clust_8="13000.00000" pt_clust_9="21.14864"></scales>
<clustering>
<clus scale="   21.149">  1  9  2 -1</clus>
<clus scale="   80.896">  5  6 -1 -1</clus>
<clus scale="   91.387">  2  5  1 -1</clus>
<clus scale="   91.935">  7  8 -1 -1</clus>
<clus scale="   21.149">  1  5  2 -1</clus>
</clustering>
</event>
<event>
 9    1  0.5981539E-005  0.1385570E+03  0.7546771E-02  0.1217489E+00
          1   -1    0    0  502    0 -0.00000000000E+00  0.00000000000E+00  0.90380388685E+03  0.90380388685E+03  0.00000000000E+00 0. -1.
         21   -1    0    0  501  502  0.00000000000E+00 -0.00000000000E+00 -0.26124362571E+02  0.26124362571E+02  0.00000000000E+00 0. -1.
        -24    2    1    2    0    0  0.54687636463E+02  0.87192340491E+02  0.51269663426E+03  0.52866771763E+03  0.77707625477E+02 0.  0.
         23    2    1    2    0    0 -0.75487674800E+02 -0.88205565427E+02  0.31226832398E+03  0.34458166719E+03  0.88013682947E+02 0.  0.
         11    1    3    3    0    0  0.15081707433E+02  0.28008650201E+02  0.42382129633E+02  0.52992332440E+02  0.00000000000E+00 0. -1.
        -12    1    3    3    0    0  0.39605929030E+02  0.59183690291E+02  0.47031450463E+03  0.47567538519E+03  0.00000000000E+00 0.  1.
        -11    1    4    4    0    0  0.15971029211E+02 -0.36016081996E+02  0.68119407937E+02  0.78692348256E+02  0.00000000000E+00 0.  1.
         11    1    4    4    0    0 -0.91458704011E+02 -0.52189483432E+02  0.24414891604E+03  0.26588931894E+03  0.00000000000E+00 0. -1.
          2    1    1    2  501    0  0.20800038337E+02  0.10132249362E+01  0.52714566042E+02  0.56678864603E+02  0.00000000000E+00 0. -1.
<scales pt_clust_5="13000.00000" pt_clust_6="13000.00000" pt_clust_7="13000.00000" pt_clust_8="13000.00000" pt_clust_9="20.82470"></scales>
<clustering>
<clus scale="   20.825">  2  9  1 -1</clus>
<clus scale="   77.708">  5  6 -1 -1</clus>
<clus scale="   88.014">  7  8 -1 -1</clus>
<clus scale="  132.250">  1  5  2 -1</clus>
<clus scale="   20.825">  2  5  1 -1</clus>
</clustering>
</event>
<event>
 9    1  0.5981539E-005  0.1047998E+03  0.7546771E-02  0.1272537E+00
         21   -1    0    0  501  502  0.00000000000E+00  0.00000000000E+00  0.48109533001E+02  0.48109533001E+02  0.00000000000E+00 0.  1.
         -2   -1    0    0    0  501 -0.00000000000E+00 -0.00000000000E+00 -0.50730264090E+03  0.50730264090E+03  0.00000000000E+00 0.  1.
        -24    2    1    2    0    0 -0.13731036734E+02  0.46153872257E+02 -0.12433083291E+03  0.15774717977E+03  0.84304776972E+02 0.  0.
         23    2    1    2    0    0  0.81498703369E+02 -0.24407736344E+02 -0.12257557937E+03  0.17376548049E+03  0.89061177340E+02 0.  0.
         11    1    3    3    0    0  0.15639637949E+02  0.54217455449E+02 -0.43133932990E+02  0.71025818727E+02  0.00000000000E+00 0. -1.
        -12    1    3    3    0    0 -0.29370674683E+02 -0.80635831919E+01 -0.81196899921E+02  0.86721361048E+02  0.00000000000E+00 0.  1.
        -13    1    4    4    0    0  0.10434926122E+02 -0.46682985015E+02 -0.58114425297E+02  0.75269351004E+02  0.00000000000E+00 0. -1.
         13    1    4    4    0    0  0.71063777248E+02  0.22275248670E+02 -0.64461154071E+02  0.98496129488E+02  0.00000000000E+00 0.  1.
         -1    1    1    2    0  502 -0.67767666635E+02 -0.21746135913E+02 -0.21228669562E+03  0.22389951364E+03  0.00000000000E+00 0.  1.
<scales pt_clust_5="13000.00000" pt_clust_6="13000.00000" pt_clust_7="13000.00000" pt_clust_8="13000.00000" pt_clust_9="71.17132"></scales>
<clustering>
<clus scale="   71.171">  1  9  2 -1</clus>
<clus scale="   84.305">  5  6 -1 -1</clus>
<clus scale="   89.061">  7  8 -1 -1</clus>
<clus scale="  100.789">  2  5  1 -1</clus>
<clus scale="   71.171">  1  5  2 -1</clus>
</clustering>
</event>
<event>
 9    1  0.5981539E-005  0.2788762E+03  0.7546771E-02  0.1096695E+00
         21   -1    0    0  501  502  0.00000000000E+00  0.00000000000E+00  0.34913148995E+03  0.34913148995E+03  0.00000000000E+00 0.  1.
          1   -1    0    0  502    0 -0.00000000000E+00 -0.00000000000E+00 -0.55223564067E+03  0.55223564067E+03  0.00000000000E+00 0. -1.
         23    2    1    2    0    0  0.31539923841E+02  0.27853926027E+03 -0.32165674183E+03  0.43664385350E+03  0.92821920517E+02 0.  0.
        -24    2    1    2    0    0  0.38809725629E+02 -0.23630978429E+03 -0.66470622847E+02  0.26232270516E+03  0.83942533838E+02 0.  0.
         11    1    4    4    0    0 -0.23223780525E+02 -0.27872924217E+02 -0.87182720740E+01  0.37312895281E+02  0.00000000000E+00 0. -1.
        -12    1    4    4    0    0  0.62033506154E+02 -0.20843686008E+03 -0.57752350773E+02  0.22500980988E+03  0.00000000000E+00 0.  1.
        -13    1    3    3    0    0  0.63807804739E+02  0.21098046729E+03 -0.24029959007E+03  0.32607987750E+03  0.00000000000E+00 0. -1.
         13    1    3    3    0    0 -0.32267880898E+02  0.67558792987E+02 -0.81357151754E+02  0.11056397600E+03  0.00000000000E+00 0.  1.
          2    1    1    2  501    0 -0.70349649470E+02 -0.42229475981E+02  0.18502321396E+03  0.20240057195E+03  0.00000000000E+00 0. -1.
<scales pt_clust_5="13000.00000" pt_clust_6="13000.00000" pt_clust_7="13000.00000" pt_clust_8="13000.00000" pt_clust_9="82.05121"></scales>
<clustering>
<clus scale="   82.051">  1  9  2 -1</clus>
<clus scale="   83.943">  5  6 -1 -1</clus>
<clus scale="   92.822">  7  8 -1 -1</clus>
<clus scale="  276.048">  1  5  2 -1</clus>
<clus scale="   82.051">  1  5  2 -1</clus>
</clustering>
</event>
<event>
 9    1  0.5981539E-005  0.1225202E+03  0.7546771E-02  0.1241769E+00
         21   -1    0    0  501  502  0.00000000000E+00  0.00000000000E+00  0.52514620287E+02  0.52514620287E+02  0.00000000000E+00 0.  1.
          1   -1    0    0  502    0 -0.00000000000E+00 -0.00000000000E+00 -0.63275838254E+03  0.63275838254E+03  0.00000000000E+00 0. -1.
         23    2    1    2    0    0 -0.32285682022E+02 -0.95163360364E+02 -0.28983258954E+03  0.31985973146E+03  0.90602910719E+02 0.  0.
        -24    2    1    2    0    0  0.34939154126E+02  0.31572982205E+02 -0.31969694766E+02  0.99250211135E+02  0.81307719993E+02 0.  0.
         11    1    4    4    0    0 -0.19914824741E+02  0.31640866589E+02 -0.37809338439E+01  0.37577122611E+02  0.00000000000E+00 0. -1.
        -12    1    4    4    0    0  0.54853978867E+02 -0.67884384053E-01 -0.28188760922E+02  0.61673088524E+02  0.00000000000E+00 0.  1.
        -11    1    3    3    0    0 -0.57226047124E+02 -0.66988674925E+02 -0.14033197876E+03  0.16569661222E+03  0.00000000000E+00 0. -1.
         11    1    3    3    0    0  0.24940365103E+02 -0.28174685439E+02 -0.14950061077E+03  0.15416311924E+03  0.00000000000E+00 0.  1.
          2    1    1    2  501    0 -0.26534721042E+01  0.63590378159E+02 -0.25844147795E+03  0.26616306023E+03  0.00000000000E+00 0. -1.
<scales pt_clust_5="13000.00000" pt_clust_6="13000.00000" pt_clust_7="13000.00000" pt_clust_8="13000.00000" pt_clust_9="63.64575"></scales>
<clustering>
<clus scale="   63.646">  1  9  2 -1</clus>
<clus scale="   81.308">  5  6 -1 -1</clus>
<clus scale="   90.603">  7  8 -1 -1</clus>
<clus scale="  115.816">  1  5  2 -1</clus>
<clus scale="   63.646">  1  5  2 -1</clus>
</clustering>
</event>
<event>
 9    1  0.5981539E-005  0.1710699E+03  0.7546771E-02  0.1178310E+00
          1   -1    0    0  502    0 -0.00000000000E+00  0.00000000000E+00  0.32586372429E+03  0.32586372429E+03  0.00000000000E+00 0. -1.
         21   -1    0    0  501  502  0.00000000000E+00 -0.00000000000E+00 -0.14283939811E+03  0.14283939811E+03  0.00000000000E+00 0.  1.
         23    2    1    2    0    0 -0.77204208821E+02 -0.12633469907E+03  0.21108141514E+03  0.27354253205E+03  0.91373995082E+02 0.  0.
        -24    2    1    2    0    0  0.48922005856E+02  0.12830631056E+03 -0.53391547510E+01  0.15883050926E+03  0.79641396975E+02 0.  0.
         13    1    4    4    0    0  0.27304753421E+02 -0.12404520839E+01 -0.27006613698E+01  0.27466012681E+02  0.00000000000E+00 0. -1.
        -14    1    4    4    0    0  0.21617252436E+02  0.12954676265E+03 -0.26384933812E+01  0.13136449658E+03  0.00000000000E+00 0.  1.
        -11    1    3    3    0    0 -0.97661580255E+02 -0.10123350675E+03  0.15976511811E+03  0.21286357159E+03  0.00000000000E+00 0. -1.
         11    1    3    3    0    0  0.20457371434E+02 -0.25101192317E+02  0.51316297032E+02  0.60678960463E+02  0.00000000000E+00 0.  1.
          2    1    1    2  501    0  0.28282202965E+02 -0.19716114938E+01 -0.22717934210E+02  0.36330081079E+02  0.00000000000E+00 0. -1.
<scales pt_clust_5="13000.00000" pt_clust_6="13000.00000" pt_clust_7="13000.00000" pt_clust_8="13000.00000" pt_clust_9="28.35084"></scales>
<clustering>
<clus scale="   28.351">  2  9  1 -1</clus>
<clus scale="   79.641">  5  6 -1 -1</clus>
<clus scale="   91.374">  7  8 -1 -1</clus>
<clus scale="  165.101">  2  5  1 -1</clus>
<clus scale="   28.351">  2  5  1 -1</clus>
</clustering>
</event>
<event>
 9    1  0.5981539E-005  0.1165903E+03  0.7546771E-02  0.1252144E+00
          1   -1    0    0  502    0 -0.00000000000E+00  0.00000000000E+00  0.11271468411E+03  0.11271468411E+03  0.00000000000E+00 0. -1.
         21   -1    0    0  501  502  0.00000000000E+00 -0.00000000000E+00 -0.15906783062E+03  0.15906783062E+03  0.00000000000E+00 0. -1.
        -24    2    1    2    0    0  0.24685011035E+02  0.76500879155E+02  0.17912781229E+02  0.11519903845E+03  0.80549465844E+02 0.  0.
         23    2    1    2    0    0 -0.34377419094E+01 -0.61110095147E+02 -0.70054606577E+02  0.12971655460E+03  0.90401741330E+02 0.  0.
         11    1    3    3    0    0  0.37075675773E+02  0.84089901708E+02  0.29602257387E+02  0.96550561602E+02  0.00000000000E+00 0. -1.
        -12    1    3    3    0    0 -0.12390664738E+02 -0.75890225536E+01 -0.11689476158E+02  0.18648476850E+02  0.00000000000E+00 0.  1.
        -11    1    4    4    0    0  0.23467113153E+02  0.12078220756E+02 -0.35973533948E+02  0.44617081494E+02  0.00000000000E+00 0.  1.
         11    1    4    4    0    0 -0.26904855062E+02 -0.73188315904E+02 -0.34081072629E+02  0.85099473102E+02  0.00000000000E+00 0. -1.
          2    1    1    2  501    0 -0.21247269125E+02 -0.15390784007E+02  0.57886788386E+01  0.26866921676E+02  0.00000000000E+00 0. -1.
<scales pt_clust_5="13000.00000" pt_clust_6="13000.00000" pt_clust_7="13000.00000" pt_clust_8="13000.00000" pt_clust_9="26.23592"></scales>
<clustering>
<clus scale="   26.236">  2  9  1 -1</clus>
<clus scale="   80.549">  5  6 -1 -1</clus>
<clus scale="   90.402">  7  8 -1 -1</clus>
<clus scale="  109.129">  1  5  2 -1</clus>
<clus scale="   26.236">  2  5  1 -1</clus>
</clustering>
</event>
<event>
 9    1  0.5981539E-005  0.1007738E+03  0.7546771E-02  0.1284488E+00
         21   -1    0    0  501  502  0.00000000000E+00  0.00000000000E+00  0.11924758654E+03  0.11924758654E+03  0.00000000000E+00 0.  1.
         -4   -1    0    0    0  501 -0.00000000000E+00 -0.00000000000E+00 -0.40350495288E+03  0.40350495288E+03  0.00000000000E+00 0.  1.
        -24    2    1    2    0    0 -0.16013111340E+02 -0.35275878000E+02 -0.24139923595E+03  0.25755645064E+03  0.80999548415E+02 0.  0.
         23    2    1    2    0    0 -0.12930341981E+02  0.47915487680E+02 -0.13311672790E+03  0.16957131349E+03  0.92581204398E+02 0.  0.
         13    1    3    3    0    0  0.17850921444E+01  0.25933472336E+02 -0.73793591668E+02  0.78238262459E+02  0.00000000000E+00 0. -1.
        -14    1    3    3    0    0 -0.17798203485E+02 -0.61209350336E+02 -0.16760564428E+03  0.17931818818E+03  0.00000000000E+00 0.  1.
        -13    1    4    4    0    0 -0.21343065158E+02 -0.23575831022E+02 -0.53491564002E+02  0.62230970248E+02  0.00000000000E+00 0.  1.
         13    1    4    4    0    0  0.84127231769E+01  0.71491318702E+02 -0.79625163901E+02  0.10734034324E+03  0.00000000000E+00 0. -1.
         -3    1    1    2    0  502  0.28943453322E+02 -0.12639609680E+02  0.90258597514E+02  0.95624775284E+02  0.00000000000E+00 0.  1.
<scales pt_clust_5="13000.00000" pt_clust_6="13000.00000" pt_clust_7="13000.00000" pt_clust_8="13000.00000" pt_clust_9="31.58296"></scales>
<clustering>
<clus scale="   31.583">  1  9  2 -1</clus>
<clus scale="   81.000">  5  6 -1 -1</clus>
<clus scale="   90.250">  2  5  1 -1</clus>
<clus scale="   92.581">  7  8 -1 -1</clus>
<clus scale="   31.583">  1  5  2 -1</clus>
</clustering>
</event>
<event>
 9    1  0.5981539E-005  0.1111000E+03  0.7546771E-02  0.1263428E+00
          1   -1    0    0  502    0 -0.00000000000E+00  0.00000000000E+00  0.28332045993E+03  0.28332045993E+03  0.00000000000E+00 0. -1.
         21   -1    0    0  501  502  0.00000000000E+00 -0.00000000000E+00 -0.42554342696E+03  0.42554342696E+03  0.00000000000E+00 0. -1.
        -24    2    1    2    0    0 -0.57308441950E+02 -0.33083227353E+02  0.25072595758E+03  0.27149068733E+03  0.80404788725E+02 0.  0.
         23    2    1    2    0    0 -0.20971304719E+02 -0.16712023570E+02 -0.16408983046E+03  0.19042427624E+03  0.92826963576E+02 0.  0.
         13    1    3    3    0    0 -0.45452164277E+02  0.65290499413E+01  0.20396698011E+03  0.20907189363E+03  0.00000000000E+00 0. -1.
        -14    1    3    3    0    0 -0.11856277673E+02 -0.39612277294E+02  0.46758977474E+02  0.62418793701E+02  0.00000000000E+00 0.  1.
        -11    1    4    4    0    0 -0.57762313943E+02 -0.59304642576E+01 -0.10502219996E+03  0.12000549072E+03  0.00000000000E+00 0. -1.
         11    1    4    4    0    0  0.36791009224E+02 -0.10781559312E+02 -0.59067630498E+02  0.70418785516E+02  0.00000000000E+00 0.  1.
          2    1    1    2  501    0  0.78279746669E+02  0.49795250923E+02 -0.22885909415E+03  0.24694892332E+03  0.00000000000E+00 0. -1.
<scales pt_clust_5="13000.00000" pt_clust_6="13000.00000" pt_clust_7="13000.00000" pt_clust_8="13000.00000" pt_clust_9="92.77546"></scales>
<clustering>
<clus scale="   80.405">  5  6 -1 -1</clus>
<clus scale="   92.775">  2  9  1 -1</clus>
<clus scale="   92.827">  7  8 -1 -1</clus>
<clus scale="  100.952">  1  5  2 -1</clus>
<clus scale="   92.775">  2  5  1 -1</clus>
</clustering>
</event>
<event>
 9    1  0.5981539E-005  0.1085464E+03  0.7546771E-02  0.1265549E+00
         -2   -1    0    0    0  501 -0.00000000000E+00  0.00000000000E+00  0.51456766313E+02  0.51456766313E+02  0.00000000000E+00 0.  1.
         21   -1    0    0  501  502  0.00000000000E+00 -0.00000000000E+00 -0.80786351835E+03  0.80786351835E+03  0.00000000000E+00 0.  1.
         23    2    1    2    0    0 -0.31470057241E+02 -0.55275448860E+02 -0.84399795955E+02  0.13627464859E+03  0.86033217671E+02 0.  0.
        -24    2    1    2    0    0  0.91412952991E+02  0.69948188339E+01 -0.14000958787E+03  0.18550924681E+03  0.80035870041E+02 0.  0.
         13    1    4    4    0    0  0.20477132923E+02  0.23369629572E+02 -0.41156175936E+01  0.31343115149E+02  0.00000000000E+00 0. -1.
        -14    1    4    4    0    0  0.70935820069E+02 -0.16374810738E+02 -0.13589397027E+03  0.15416613166E+03  0.00000000000E+00 0.  1.
        -11    1    3    3    0    0  0.97230669810E+01 -0.64126465937E+02 -0.51249496213E+02  0.82663489686E+02  0.00000000000E+00 0.  1.
         11    1    3    3    0    0 -0.41193124222E+02  0.88510170771E+01 -0.33150299742E+02  0.53611158908E+02  0.00000000000E+00 0. -1.
         -1    1    1    2    0  502 -0.59942895750E+02  0.48280630026E+02 -0.53199736821E+03  0.53753638926E+03  0.00000000000E+00 0.  1.
<scales pt_clust_5="13000.00000" pt_clust_6="13000.00000" pt_clust_7="13000.00000" pt_clust_8="13000.00000" pt_clust_9="76.96863"></scales>
<clustering>
<clus scale="   76.969">  2  9  1 -1</clus>
<clus scale="   80.036">  5  6 -1 -1</clus>
<clus scale="   86.033">  7  8 -1 -1</clus>
<clus scale="  103.857">  2  5  1 -1</clus>
<clus scale="   76.969">  2  5  1 -1</clus>
</clustering>
</event>
<event>
 9    1  0.5981539E-005  0.1522273E+03  0.7546771E-02  0.1199913E+00
         21   -1    0    0  501  502  0.00000000000E+00  0.00000000000E+00  0.91743600289E+02  0.91743600289E+02  0.00000000000E+00 0.  1.
         -4   -1    0    0    0  501 -0.00000000000E+00 -0.00000000000E+00 -0.46829128888E+03  0.46829128888E+03  0.00000000000E+00 0.  1.
        -24    2    1    2    0    0 -0.19400339823E+02  0.10414226113E+03 -0.11972019319E+03  0.17820417539E+03  0.78751633196E+02 0.  0.
         23    2    1    2    0    0 -0.53894188664E+02 -0.15172039144E+03 -0.12332484032E+03  0.22227280798E+03  0.90953417616E+02 0.  0.
         13    1    3    3    0    0  0.20906726451E+01  0.65294512963E+02 -0.11665594353E+03  0.13370248126E+03  0.00000000000E+00 0. -1.
        -14    1    3    3    0    0 -0.21491012469E+02  0.38847748164E+02 -0.30642496623E+01  0.44501694129E+02  0.00000000000E+00 0.  1.
        -11    1    4    4    0    0 -0.32981272321E+02 -0.15921615206E+03 -0.11094114234E+03  0.19683872704E+03  0.00000000000E+00 0.  1.
         11    1    4    4    0    0 -0.20912916343E+02  0.74957606207E+01 -0.12383697977E+02  0.25434080931E+02  0.00000000000E+00 0. -1.
         -3    1    1    2    0  502  0.73294528488E+02  0.47578130311E+02 -0.13350265508E+03  0.15955790580E+03  0.00000000000E+00 0.  1.
<scales pt_clust_5="13000.00000" pt_clust_6="13000.00000" pt_clust_7="13000.00000" pt_clust_8="13000.00000" pt_clust_9="87.38292"></scales>
<clustering>
<clus scale="   78.752">  5  6 -1 -1</clus>
<clus scale="   87.383">  1  9  2 -1</clus>
<clus scale="   90.953">  7  8 -1 -1</clus>
<clus scale="  145.267">  2  5  1 -1</clus>
<clus scale="   87.383">  1  5  2 -1</clus>
</clustering>
</event>
<event>
 9    1  0.5981539E-005  0.2300882E+03  0.7546771E-02  0.1167583E+00
          1   -1    0    0  502    0 -0.00000000000E+00  0.00000000000E+00  0.38994563313E+03  0.38994563313E+03  0.00000000000E+00 0. -1.
         21   -1    0    0  501  502  0.00000000000E+00 -0.00000000000E+00 -0.23159860147E+03  0.23159860147E+03  0.00000000000E+00 0.  1.
        -24    2    1    2    0    0 -0.65523592966E+00 -0.17633307447E+02  0.14614998120E+03  0.16988946173E+03  0.84801234287E+02 0.  0.
         23    2    1    2    0    0  0.43612142496E+02 -0.19884276779E+03 -0.33963010267E+02  0.22618207346E+03  0.92543930179E+02 0.  0.
         11    1    3    3    0    0 -0.14098248623E+01  0.34466774942E+02  0.56598967959E+02  0.66282647466E+02  0.00000000000E+00 0. -1.
        -12    1    3    3    0    0  0.75458893263E+00 -0.52100082390E+02  0.89551013241E+02  0.10360681426E+03  0.00000000000E+00 0.  1.
        -13    1    4    4    0    0  0.12600109996E+02 -0.15313983357E+03 -0.60208232614E+02  0.16503212618E+03  0.00000000000E+00 0.  1.
         13    1    4    4    0    0  0.31012032500E+02 -0.45702934225E+02  0.26245222348E+02  0.61149947283E+02  0.00000000000E+00 0. -1.
          2    1    1    2  501    0 -0.42956906566E+02  0.21647607524E+03  0.46160060724E+02  0.22547269941E+03  0.00000000000E+00 0. -1.
<scales pt_clust_5="13000.00000" pt_clust_6="13000.00000" pt_clust_7="13000.00000" pt_clust_8="13000.00000" pt_clust_9="210.65674"></scales>
<clustering>
<clus scale="   84.801">  5  6 -1 -1</clus>
<clus scale="   86.618">  1  5  2 -1</clus>
<clus scale="   92.544">  7  8 -1 -1</clus>
<clus scale="  210.657">  2  9  1 -1</clus>
<clus scale="  210.657">  2  5  1 -1</clus>
</clustering>
</event>
<event>
 9    1  0.5981539E-005  0.1793169E+03  0.7546771E-02  0.1195716E+00
          1   -1    0    0  502    0 -0.00000000000E+00  0.00000000000E+00  0.73417955393E+03  0.73417955393E+03  0.00000000000E+00 0. -1.
         21   -1    0    0  501  502  0.00000000000E+00 -0.00000000000E+00 -0.73615103629E+02  0.73615103629E+02  0.00000000000E+00 0. -1.
        -24    2    1    2    0    0 -0.50191924599E+02  0.19828337619E+02  0.19849765011E+03  0.22110265508E+03  0.81072034122E+02 0.  0.
         23    2    1    2    0    0  0.15540734047E+03  0.61180164998E+02  0.13525742647E+03  0.23393567300E+03  0.92395203475E+02 0.  0.
         11    1    3    3    0    0 -0.49242597672E+02  0.31445804752E+02  0.66212527152E+02  0.88304987481E+02  0.00000000000E+00 0. -1.
        -12    1    3    3    0    0 -0.94932692668E+00 -0.11617467133E+02  0.13228512295E+03  0.13279766760E+03  0.00000000000E+00 0.  1.
        -11    1    4    4    0    0  0.11174011067E+03  0.51847369495E+02  0.41325090043E+02  0.12992984693E+03  0.00000000000E+00 0. -1.
         11    1    4    4    0    0  0.43667229806E+02  0.93327955023E+01  0.93932336425E+02  0.10400582607E+03  0.00000000000E+00 0.  1.
          2    1    1    2  501    0 -0.10521541587E+03 -0.81008502617E+02  0.32680937372E+03  0.35275632948E+03  0.00000000000E+00 0. -1.
<scales pt_clust_5="13000.00000" pt_clust_6="13000.00000" pt_clust_7="13000.00000" pt_clust_8="13000.00000" pt_clust_9="153.68052"></scales>
<clustering>
<clus scale="   81.072">  5  6 -1 -1</clus>
<clus scale="   92.395">  7  8 -1 -1</clus>
<clus scale="   97.391">  1  5  2 -1</clus>
<clus scale="  153.681">  2  9  1 -1</clus>
<clus scale="  153.681">  2  5  1 -1</clus>
</clustering>
</event>
<event>
 9    1  0.5981539E-005  0.9926054E+02  0.7546771E-02  0.1286780E+00
         21   -1    0    0  501  502  0.00000000000E+00  0.00000000000E+00  0.68656549722E+02  0.68656549722E+02  0.00000000000E+00 0.  1.
         -2   -1    0    0    0  501 -0.00000000000E+00 -0.00000000000E+00 -0.10815534688E+04  0.10815534688E+04  0.00000000000E+00 0.  1.
        -24    2    1    2    0    0  0.13444550076E+02  0.32896845198E+02 -0.87310604743E+03  0.87762962564E+03  0.81588181788E+02 0.  0.
         23    2    1    2    0    0 -0.26822319573E+02 -0.56341930786E+02 -0.18755570970E+03  0.21771586418E+03  0.91264468909E+02 0.  0.
         11    1    3    3    0    0 -0.26944006323E+02  0.94852040811E+01 -0.13203147045E+03  0.13508611240E+03  0.00000000000E+00 0. -1.
        -12    1    3    3    0    0  0.40388556399E+02  0.23411641117E+02 -0.74107457697E+03  0.74254351324E+03  0.00000000000E+00 0.  1.
        -11    1    4    4    0    0 -0.47933586753E+02 -0.57717335901E+02 -0.18040518157E+03  0.19538410667E+03  0.00000000000E+00 0.  1.
         11    1    4    4    0    0  0.21111267179E+02  0.13754051155E+01 -0.71505281298E+01  0.22331757515E+02  0.00000000000E+00 0. -1.
         -1    1    1    2    0  502  0.13377769497E+02  0.23445085587E+02  0.47764838047E+02  0.54864528692E+02  0.00000000000E+00 0.  1.
<scales pt_clust_5="13000.00000" pt_clust_6="13000.00000" pt_clust_7="13000.00000" pt_clust_8="13000.00000" pt_clust_9="26.99327"></scales>
<clustering>
<clus scale="   26.993">  1  9  2 -1</clus>
<clus scale="   81.588">  5  6 -1 -1</clus>
<clus scale="   90.444">  2  5  1 -1</clus>
<clus scale="   91.264">  7  8 -1 -1</clus>
<clus scale="   26.993">  1  5  2 -1</clus>
</clustering>
</event>
<event>
 9    1  0.5981539E-005  0.1540583E+03  0.7546771E-02  0.1216536E+00
         21   -1    0    0  501  502  0.00000000000E+00  0.00000000000E+00  0.75121324222E+03  0.75121324222E+03  0.00000000000E+00 0.  1.
         -2   -1    0    0    0  501 -0.00000000000E+00 -0.00000000000E+00 -0.57544334137E+02  0.57544334137E+02  0.00000000000E+00 0.  1.
        -24    2    1    2    0    0 -0.40645767273E+02 -0.39465141938E+02  0.81784644589E+02  0.12777001604E+03  0.80167780822E+02 0.  0.
         23    2    1    2    0    0 -0.90228128361E+02  0.13481587942E+00  0.14535497295E+03  0.19485544861E+03  0.93270811978E+02 0.  0.
         13    1    3    3    0    0 -0.38967885249E+02 -0.32475755965E+02  0.53608259805E+01  0.51008913549E+02  0.00000000000E+00 0. -1.
        -14    1    3    3    0    0 -0.16778820243E+01 -0.69893859730E+01  0.76423818608E+02  0.76761102487E+02  0.00000000000E+00 0.  1.
        -13    1    4    4    0    0 -0.65072346897E+02  0.99642067716E+01  0.23275879033E+02  0.69824510682E+02  0.00000000000E+00 0.  1.
         13    1    4    4    0    0 -0.25155781464E+02 -0.98293908922E+01  0.12207909392E+03  0.12503093792E+03  0.00000000000E+00 0. -1.
         -1    1    1    2    0  502  0.13087389563E+03  0.39330326059E+02  0.46652929055E+03  0.48613211172E+03  0.00000000000E+00 0.  1.
<scales pt_clust_5="13000.00000" pt_clust_6="13000.00000" pt_clust_7="13000.00000" pt_clust_8="13000.00000" pt_clust_9="122.61530"></scales>
<clustering>
<clus scale="   80.168">  5  6 -1 -1</clus>
<clus scale="   93.271">  7  8 -1 -1</clus>
<clus scale="   98.165">  2  5  1 -1</clus>
<clus scale="  122.615">  1  9  2 -1</clus>
<clus scale="  122.615">  1  5  2 -1</clus>
</clustering>
</event>
<event>
 9    1  0.5981539E-005  0.1188435E+03  0.7546771E-02  0.1254040E+00
          1   -1    0    0  502    0 -0.00000000000E+00  0.00000000000E+00  0.38487307122E+03  0.38487307122E+03  0.00000000000E+00 0. -1.
         21   -1    0    0  501  502  0.00000000000E+00 -0.00000000000E+00 -0.17857752534E+03  0.17857752534E+03  0.00000000000E+00 0.  1.
         23    2    1    2    0    0 -0.37717249226E+02  0.16879689132E+02 -0.13133138231E+03  0.16460154228E+03  0.90212088694E+02 0.  0.
        -24    2    1    2    0    0 -0.34301930921E+02  0.56635047881E+02  0.21655847253E+03  0.23995050229E+03  0.79338013657E+02 0.  0.
         11    1    4    4    0    0  0.20488276472E+02  0.21538386334E+02  0.11919793300E+03  0.12284876389E+03  0.00000000000E+00 0. -1.
        -12    1    4    4    0    0 -0.54790207393E+02  0.35096661547E+02  0.97360539534E+02  0.11710173840E+03  0.00000000000E+00 0.  1.
        -13    1    3    3    0    0 -0.30859059544E+02  0.39166350878E+02 -0.13217575740E+03  0.14126823933E+03  0.00000000000E+00 0.  1.
         13    1    3    3    0    0 -0.68581896819E+01 -0.22286661746E+02  0.84437509045E+00  0.23333302955E+02  0.00000000000E+00 0. -1.
          2    1    1    2  501    0  0.72019180147E+02 -0.73514737013E+02  0.12106845567E+03  0.15889855199E+03  0.00000000000E+00 0. -1.
<scales pt_clust_5="13000.00000" pt_clust_6="13000.00000" pt_clust_7="13000.00000" pt_clust_8="13000.00000" pt_clust_9="88.48313"></scales>
<clustering>
<clus scale="   79.338">  5  6 -1 -1</clus>
<clus scale="   90.212">  7  8 -1 -1</clus>
<clus scale="   99.226">  1  7  2 -1</clus>
<clus scale="   88.483">  2  9  1 -1</clus>
<clus scale="   88.483">  2  5  1 -1</clus>
</clustering>
</event>
<event>
 9    1  0.5981539E-005  0.1367358E+03  0.7546771E-02  0.1220394E+00
         21   -1    0    0  501  502  0.00000000000E+00  0.00000000000E+00  0.30291582970E+03  0.30291582970E+03  0.00000000000E+00 0. -1.
          3   -1    0    0  502    0 -0.00000000000E+00 -0.00000000000E+00 -0.12059763482E+03  0.12059763482E+03  0.00000000000E+00 0. -1.
         23    2    1    2    0    0 -0.10293617492E+03  0.55722709805E+01 -0.14248022941E+02  0.13867589714E+03  0.91657470937E+02 0.  0.
        -24    2    1    2    0    0  0.93384298070E+02 -0.45586450668E+02  0.64199311618E+02  0.14622526351E+03  0.80383608194E+02 0.  0.
         11    1    4    4    0    0 -0.90215326590E+01 -0.24219655105E+02  0.60698593566E+01  0.26548501606E+02  0.00000000000E+00 0. -1.
        -12    1    4    4    0    0  0.10240583073E+03 -0.21366795563E+02  0.58129452262E+02  0.11967676191E+03  0.00000000000E+00 0.  1.
        -13    1    3    3    0    0 -0.17634842759E+02  0.14345632349E+02  0.33532129440E+02  0.40511585397E+02  0.00000000000E+00 0.  1.
         13    1    3    3    0    0 -0.85301332161E+02 -0.87733613686E+01 -0.47780152381E+02  0.98164311741E+02  0.00000000000E+00 0. -1.
          4    1    1    2  501    0  0.95518768499E+01  0.40014179687E+02  0.13236690620E+03  0.13861230387E+03  0.00000000000E+00 0. -1.
<scales pt_clust_5="13000.00000" pt_clust_6="13000.00000" pt_clust_7="13000.00000" pt_clust_8="13000.00000" pt_clust_9="41.13846"></scales>
<clustering>
<clus scale="   41.138">  1  9  2 -1</clus>
<clus scale="   80.384">  5  6 -1 -1</clus>
<clus scale="   91.657">  7  8 -1 -1</clus>
<clus scale="  129.449">  1  5  2 -1</clus>
<clus scale="   41.138">  1  5  2 -1</clus>
</clustering>
</event>
<event>
 9    1  0.5981539E-005  0.3132611E+03  0.7546771E-02  0.1079115E+00
         21   -1    0    0  501  502  0.00000000000E+00  0.00000000000E+00  0.23545945088E+03  0.23545945088E+03  0.00000000000E+00 0. -1.
          1   -1    0    0  502    0 -0.00000000000E+00 -0.00000000000E+00 -0.10344563169E+04  0.10344563169E+04  0.00000000000E+00 0. -1.
        -24    2    1    2    0    0 -0.32121846215E+02 -0.28512987924E+03 -0.54350007595E+03  0.61984290496E+03  0.80511075195E+02 0.  0.
         23    2    1    2    0    0 -0.15288201716E+02  0.36733295526E+03 -0.11546227849E+01  0.37860463925E+03  0.90404151303E+02 0.  0.
         13    1    3    3    0    0  0.18126345941E+02 -0.17240868269E+03 -0.34497216814E+03  0.38608174662E+03  0.00000000000E+00 0. -1.
        -14    1    3    3    0    0 -0.50248192157E+02 -0.11272119655E+03 -0.19852790781E+03  0.23376115834E+03  0.00000000000E+00 0.  1.
        -13    1    4    4    0    0 -0.38547126616E+02  0.30842586502E+03 -0.22837256255E+02  0.31166317629E+03  0.00000000000E+00 0. -1.
         13    1    4    4    0    0  0.23258924900E+02  0.58907090242E+02  0.21682633471E+02  0.66941462954E+02  0.00000000000E+00 0.  1.
          2    1    1    2  501    0  0.47410047931E+02 -0.82203076025E+02 -0.25434216725E+03  0.27146822354E+03  0.00000000000E+00 0. -1.
<scales pt_clust_5="13000.00000" pt_clust_6="13000.00000" pt_clust_7="13000.00000" pt_clust_8="13000.00000" pt_clust_9="94.89503"></scales>
<clustering>
<clus scale="   80.511">  5  6 -1 -1</clus>
<clus scale="   90.404">  7  8 -1 -1</clus>
<clus scale="   94.895">  1  9  2 -1</clus>
<clus scale="  310.551">  2  5  1 -1</clus>
<clus scale="   94.895">  1  5  2 -1</clus>
</clustering>
</event>
<event>
 9    1  0.5981539E-005  0.1499566E+03  0.7546771E-02  0.1202492E+00
         21   -1    0    0  501  502  0.00000000000E+00  0.00000000000E+00  0.23851239566E+03  0.23851239566E+03  0.00000000000E+00 0.  1.
          1   -1    0    0  502    0 -0.00000000000E+00 -0.00000000000E+00 -0.25529106328E+03  0.25529106328E+03  0.00000000000E+00 0. -1.
        -24    2    1    2    0    0  0.11586568323E+03  0.27763296545E+02 -0.18977654548E+03  0.23826673302E+03  0.80995318789E+02 0.  0.
         23    2    1    2    0    0 -0.11807265115E+03 -0.41219808249E+01  0.10283306135E+03  0.18146322194E+03  0.91630348327E+02 0.  0.
         11    1    3    3    0    0  0.86016738801E+02  0.83167031624E+01 -0.18247139692E+03  0.20190061317E+03  0.00000000000E+00 0. -1.
        -12    1    3    3    0    0  0.29848944427E+02  0.19446593382E+02 -0.73051485627E+01  0.36366119852E+02  0.00000000000E+00 0.  1.
        -13    1    4    4    0    0 -0.70252527284E+02 -0.16913219592E+02  0.57496740401E+01  0.72488159988E+02  0.00000000000E+00 0. -1.
         13    1    4    4    0    0 -0.47820123865E+02  0.12791238767E+02  0.97083387312E+02  0.10897506195E+03  0.00000000000E+00 0.  1.
          2    1    1    2  501    0  0.22069679211E+01 -0.23641315720E+02  0.70164816504E+02  0.74073503977E+02  0.00000000000E+00 0. -1.
<scales pt_clust_5="13000.00000" pt_clust_6="13000.00000" pt_clust_7="13000.00000" pt_clust_8="13000.00000" pt_clust_9="23.74410"></scales>
<clustering>
<clus scale="   23.744">  1  9  2 -1</clus>
<clus scale="   80.995">  5  6 -1 -1</clus>
<clus scale="   91.630">  7  8 -1 -1</clus>
<clus scale="  143.705">  2  5  1 -1</clus>
<clus scale="   23.744">  1  5  2 -1</clus>
</clustering>
</event>
<event>
 9    1  0.5981539E-005  0.9752756E+02  0.7546771E-02  0.1292503E+00
         21   -1    0    0  501  502  0.00000000000E+00  0.00000000000E+00  0.28086248738E+02  0.28086248738E+02  0.00000000000E+00 0.  1.
         -4   -1    0    0    0  501 -0.00000000000E+00 -0.00000000000E+00 -0.66816526000E+03  0.66816526000E+03  0.00000000000E+00 0.  1.
        -24    2    1    2    0    0 -0.94390993747E+01 -0.39155945941E+02 -0.42300761085E+03  0.43254730859E+03  0.80866869817E+02 0.  0.
         23    2    1    2    0    0  0.18457768655E+02 -0.12083145985E+02 -0.15937706130E+03  0.18601624933E+03  0.93350445654E+02 0.  0.
         11    1    3    3    0    0  0.83039824842E+00 -0.29958223322E+02 -0.43700795145E+02  0.52990038707E+02  0.00000000000E+00 0. -1.
        -12    1    3    3    0    0 -0.10269497623E+02 -0.91977226192E+01 -0.37930681570E+03  0.37955726988E+03  0.00000000000E+00 0.  1.
        -11    1    4    4    0    0 -0.90546247854E+01 -0.19546566394E+02  0.24652621035E+01  0.21682527644E+02  0.00000000000E+00 0.  1.
         11    1    4    4    0    0  0.27512393440E+02  0.74634204088E+01 -0.16184232340E+03  0.16433372168E+03  0.00000000000E+00 0. -1.
         -3    1    1    2    0  502 -0.90186692799E+01  0.51239091926E+02 -0.57694339111E+02  0.77687950819E+02  0.00000000000E+00 0.  1.
<scales pt_clust_5="13000.00000" pt_clust_6="13000.00000" pt_clust_7="13000.00000" pt_clust_8="13000.00000" pt_clust_9="52.02673"></scales>
<clustering>
<clus scale="   52.027">  1  9  2 -1</clus>
<clus scale="   80.867">  5  6 -1 -1</clus>
<clus scale="   85.655">  2  5  1 -1</clus>
<clus scale="   93.350">  7  8 -1 -1</clus>
<clus scale="   52.027">  1  5  2 -1</clus>
</clustering>
</event>
<event>
 9    1  0.5981539E-005  0.1399302E+03  0.7546771E-02  0.1215866E+00
         21   -1    0    0  501  502  0.00000000000E+00  0.00000000000E+00  0.65961538938E+02  0.65961538938E+02  0.00000000000E+00 0. -1.
          1   -1    0    0  502    0 -0.00000000000E+00 -0.00000000000E+00 -0.38760289568E+03  0.38760289568E+03  0.00000000000E+00 0. -1.
         23    2    1    2    0    0 -0.45398497570E+02  0.86337695992E+02 -0.10688753425E+03  0.17099272286E+03  0.91095252126E+02 0.  0.
        -24    2    1    2    0    0  0.74138077093E+02 -0.89131531190E+02 -0.12487146755E+03  0.18816510883E+03  0.79826940618E+02 0.  0.
         11    1    4    4    0    0  0.84255952849E+02 -0.72672072029E+02 -0.73683908178E+02  0.13345266565E+03  0.00000000000E+00 0. -1.
        -12    1    4    4    0    0 -0.10117875756E+02 -0.16459459161E+02 -0.51187559367E+02  0.54712443188E+02  0.00000000000E+00 0.  1.
        -13    1    3    3    0    0 -0.37493166603E+02  0.39497501099E+02 -0.47744674910E+00  0.54461161302E+02  0.00000000000E+00 0.  1.
         13    1    3    3    0    0 -0.79053309668E+01  0.46840194893E+02 -0.10641008751E+03  0.11653156155E+03  0.00000000000E+00 0. -1.
          2    1    1    2  501    0 -0.28739579523E+02  0.27938351973E+01 -0.89882354943E+02  0.94406602928E+02  0.00000000000E+00 0. -1.
<scales pt_clust_5="13000.00000" pt_clust_6="13000.00000" pt_clust_7="13000.00000" pt_clust_8="13000.00000" pt_clust_9="28.87507"></scales>
<clustering>
<clus scale="   28.875">  1  9  2 -1</clus>
<clus scale="   79.827">  5  6 -1 -1</clus>
<clus scale="   91.095">  7  8 -1 -1</clus>
<clus scale="  132.870">  1  5  2 -1</clus>
<clus scale="   28.875">  1  5  2 -1</clus>
</clustering>
</event>
<event>
 9    1  0.5981539E-005  0.3080990E+03  0.7546771E-02  0.1088146E+00
          1   -1    0    0  502    0 -0.00000000000E+00  0.00000000000E+00  0.19960641397E+04  0.19960641397E+04  0.00000000000E+00 0. -1.
         21   -1    0    0  501  502  0.00000000000E+00 -0.00000000000E+00 -0.10696698675E+03  0.10696698675E+03  0.00000000000E+00 0. -1.
        -24    2    1    2    0    0 -0.14394752659E+03  0.19667887276E+03  0.41245559668E+03  0.48563247442E+03  0.79472080475E+02 0.  0.
         23    2    1    2    0    0 -0.11949024193E+03 -0.31016247418E+03  0.58127760109E+03  0.67721005503E+03  0.10124786814E+03 0.  0.
         13    1    3    3    0    0  0.72155290336E+01  0.31804566132E+02  0.48982853325E+02  0.58846530959E+02  0.00000000000E+00 0. -1.
        -14    1    3    3    0    0 -0.15116305563E+03  0.16487430662E+03  0.36347274335E+03  0.42678594346E+03  0.00000000000E+00 0.  1.
        -11    1    4    4    0    0 -0.67746314996E+02 -0.55688558329E+02  0.15326521512E+03  0.17658143982E+03  0.00000000000E+00 0.  1.
         11    1    4    4    0    0 -0.51743926930E+02 -0.25447391585E+03  0.42801238597E+03  0.50062861521E+03  0.00000000000E+00 0. -1.
          2    1    1    2  501    0  0.26343776852E+03  0.11348360143E+03  0.89536395516E+03  0.94018859697E+03  0.00000000000E+00 0. -1.
<scales pt_clust_5="13000.00000" pt_clust_6="13000.00000" pt_clust_7="13000.00000" pt_clust_8="13000.00000" pt_clust_9="290.98793"></scales>
<clustering>
<clus scale="   79.472">  5  6 -1 -1</clus>
<clus scale="  101.248">  7  8 -1 -1</clus>
<clus scale="  256.358">  1  5  2 -1</clus>
<clus scale="  290.988">  2  9  1 -1</clus>
<clus scale="  290.988">  2  5  1 -1</clus>
</clustering>
</event>
<event>
 9    1  0.5981539E-005  0.3665750E+03  0.7546771E-02  0.1080235E+00
         -4   -1    0    0    0  501 -0.00000000000E+00  0.00000000000E+00  0.62081996852E+03  0.62081996852E+03  0.00000000000E+00 0.  1.
         21   -1    0    0  501  502  0.00000000000E+00 -0.00000000000E+00 -0.38743545634E+03  0.38743545634E+03  0.00000000000E+00 0.  1.
        -24    2    1    2    0    0  0.11074185077E+03 -0.13079899523E+03  0.12995830732E+03  0.22857931233E+03  0.77377036111E+02 0.  0.
         23    2    1    2    0    0 -0.37081737311E+03 -0.10677545117E+03  0.15088282561E+03  0.42424253821E+03  0.91156914079E+02 0.  0.
         13    1    3    3    0    0 -0.94651123148E+01 -0.28364289788E+02  0.16861807023E+02  0.34328440430E+02  0.00000000000E+00 0. -1.
        -14    1    3    3    0    0  0.12020696308E+03 -0.10243470544E+03  0.11309650030E+03  0.19425087190E+03  0.00000000000E+00 0.  1.
        -13    1    4    4    0    0 -0.47897868144E+02  0.93634545922E+01 -0.13488066353E+01  0.48823143425E+02  0.00000000000E+00 0. -1.
         13    1    4    4    0    0 -0.32291950497E+03 -0.11613890576E+03  0.15223163224E+03  0.37541939478E+03  0.00000000000E+00 0.  1.
         -3    1    1    2    0  502  0.26007552234E+03  0.23757444640E+03 -0.47456620755E+02  0.35543357432E+03  0.00000000000E+00 0.  1.
<scales pt_clust_5="13000.00000" pt_clust_6="13000.00000" pt_clust_7="13000.00000" pt_clust_8="13000.00000" pt_clust_9="355.06005"></scales>
<clustering>
<clus scale="   77.377">  5  6 -1 -1</clus>
<clus scale="   91.157">  7  8 -1 -1</clus>
<clus scale="  188.041">  1  5  2 -1</clus>
<clus scale="  355.060">  2  9  1 -1</clus>
<clus scale="  355.060">  2  5  1 -1</clus>
</clustering>
</event>
<event>
 9    1  0.5981539E-005  0.1321016E+03  0.7546771E-02  0.1224852E+00
          1   -1    0    0  502    0 -0.00000000000E+00  0.00000000000E+00  0.18243835439E+03  0.18243835439E+03  0.00000000000E+00 0. -1.
         21   -1    0    0  501  502  0.00000000000E+00 -0.00000000000E+00 -0.35723694184E+03  0.35723694184E+03  0.00000000000E+00 0.  1.
        -24    2    1    2    0    0 -0.53346302036E+02 -0.71134777042E+02  0.64202176138E+02  0.14132541529E+03  0.89134556381E+02 0.  0.
         23    2    1    2    0    0  0.70338328985E+02  0.13247729800E+03 -0.27425689245E+03  0.32558568315E+03  0.91057558735E+02 0.  0.
         11    1    3    3    0    0 -0.61419613781E+02 -0.33272974796E+02  0.42780417056E+01  0.69984008528E+02  0.00000000000E+00 0. -1.
        -12    1    3    3    0    0  0.80733117453E+01 -0.37861802246E+02  0.59924134432E+02  0.71341406766E+02  0.00000000000E+00 0.  1.
        -11    1    4    4    0    0  0.70185647196E+02  0.57199349089E+02 -0.20143844037E+03  0.22085116225E+03  0.00000000000E+00 0.  1.
         11    1    4    4    0    0  0.15268178925E+00  0.75277948907E+02 -0.72818452081E+02  0.10473452089E+03  0.00000000000E+00 0. -1.
          2    1    1    2  501    0 -0.16992026950E+02 -0.61342520955E+02  0.35256128863E+02  0.72764197785E+02  0.00000000000E+00 0. -1.
<scales pt_clust_5="13000.00000" pt_clust_6="13000.00000" pt_clust_7="13000.00000" pt_clust_8="13000.00000" pt_clust_9="63.65248"></scales>
<clustering>
<clus scale="   63.652">  2  9  1 -1</clus>
<clus scale="   89.135">  5  6 -1 -1</clus>
<clus scale="   91.058">  7  8 -1 -1</clus>
<clus scale="  130.783">  1  5  2 -1</clus>
<clus scale="   63.652">  2  5  1 -1</clus>
</clustering>
</event>
<event>
 9    1  0.5981539E-005  0.9018867E+02  0.7546771E-02  0.1307990E+00
         21   -1    0    0  501  502  0.00000000000E+00  0.00000000000E+00  0.61375488679E+02  0.61375488679E+02  0.00000000000E+00 0. -1.
          1   -1    0    0  502    0 -0.00000000000E+00 -0.00000000000E+00 -0.51065869327E+03  0.51065869327E+03  0.00000000000E+00 0. -1.
        -24    2    1    2    0    0 -0.76831730403E+01  0.24203232076E+02 -0.31966928903E+03  0.33067059814E+03  0.80683099433E+02 0.  0.
         23    2    1    2    0    0  0.11573241846E+02  0.52809699277E+02 -0.12657680512E+03  0.16419268080E+03  0.89525105804E+02 0.  0.
         13    1    3    3    0    0 -0.21993826853E+02  0.36460109870E+02 -0.83303759835E+02  0.93555248030E+02  0.00000000000E+00 0. -1.
        -14    1    3    3    0    0  0.14310653813E+02 -0.12256877794E+02 -0.23636552920E+03  0.23711535011E+03  0.00000000000E+00 0.  1.
        -11    1    4    4    0    0 -0.39189883127E+02  0.26999641380E+02 -0.55237263228E+02  0.72910786740E+02  0.00000000000E+00 0.  1.
         11    1    4    4    0    0  0.50763124973E+02  0.25810057897E+02 -0.71339541891E+02  0.91281894058E+02  0.00000000000E+00 0. -1.
          2    1    1    2  501    0 -0.38900688058E+01 -0.77012931353E+02 -0.30371104376E+01  0.77170903006E+02  0.00000000000E+00 0. -1.
<scales pt_clust_5="13000.00000" pt_clust_6="13000.00000" pt_clust_7="13000.00000" pt_clust_8="13000.00000" pt_clust_9="77.11112"></scales>
<clustering>
<clus scale="   77.111">  1  9  2 -1</clus>
<clus scale="   80.683">  5  6 -1 -1</clus>
<clus scale="   81.419">  2  5  1 -1</clus>
<clus scale="   89.525">  7  8 -1 -1</clus>
<clus scale="   77.111">  1  5  2 -1</clus>
</clustering>
</event>
<event>
 9    1  0.5981539E-005  0.1166246E+03  0.7546771E-02  0.1253457E+00
          3   -1    0    0  502    0 -0.00000000000E+00  0.00000000000E+00  0.22489243965E+03  0.22489243965E+03  0.00000000000E+00 0. -1.
         21   -1    0    0  501  502  0.00000000000E+00 -0.00000000000E+00 -0.35633312779E+03  0.35633312779E+03  0.00000000000E+00 0. -1.
        -24    2    1    2    0    0  0.15348318128E+02 -0.67049251995E+02  0.14037132261E+03  0.17538307924E+03  0.79523224338E+02 0.  0.
         23    2    1    2    0    0  0.47041022200E+02  0.11066291034E+03 -0.29014395551E+03  0.32754407710E+03  0.92964886024E+02 0.  0.
         11    1    3    3    0    0  0.10668138682E+02 -0.68098528552E+02  0.14974822196E+03  0.16485068624E+03  0.00000000000E+00 0. -1.
        -12    1    3    3    0    0  0.46801794460E+01  0.10492765565E+01 -0.93768993467E+01  0.10532393000E+02  0.00000000000E+00 0.  1.
        -13    1    4    4    0    0  0.13024226181E+02  0.27723994017E+02 -0.82250434547E+01  0.31715952637E+02  0.00000000000E+00 0.  1.
         13    1    4    4    0    0  0.34016796018E+02  0.82938916327E+02 -0.28191891205E+03  0.29582812447E+03  0.00000000000E+00 0. -1.
          4    1    1    2  501    0 -0.62389340327E+02 -0.43613658349E+02  0.18331944759E+02  0.78298411093E+02  0.00000000000E+00 0. -1.
<scales pt_clust_5="13000.00000" pt_clust_6="13000.00000" pt_clust_7="13000.00000" pt_clust_8="13000.00000" pt_clust_9="76.12218"></scales>
<clustering>
<clus scale="   76.122">  2  9  1 -1</clus>
<clus scale="   79.523">  5  6 -1 -1</clus>
<clus scale="   92.965">  7  8 -1 -1</clus>
<clus scale="  106.220">  1  5  2 -1</clus>
<clus scale="   76.122">  2  5  1 -1</clus>
</clustering>
</event>
<event>
 9    1  0.5981539E-005  0.1172176E+03  0.7546771E-02  0.1251325E+00
          1   -1    0    0  502    0 -0.00000000000E+00  0.00000000000E+00  0.38311899551E+03  0.38311899551E+03  0.00000000000E+00 0. -1.
         21   -1    0    0  501  502  0.00000000000E+00 -0.00000000000E+00 -0.96510786084E+02  0.96510786084E+02  0.00000000000E+00 0. -1.
         23    2    1    2    0    0 -0.49486843600E+02 -0.56309134308E+02  0.10796637819E+03  0.16190978088E+03  0.94542963939E+02 0.  0.
        -24    2    1    2    0    0  0.96246245496E+02 -0.42318901959E+02  0.33534993535E+02  0.13614377553E+03  0.79726423404E+02 0.  0.
         13    1    4    4    0    0  0.70360830985E+02 -0.45133828199E+02  0.56931801349E+02  0.10113821726E+03  0.00000000000E+00 0. -1.
        -14    1    4    4    0    0  0.25885414512E+02  0.28149262397E+01 -0.23396807814E+02  0.35005558274E+02  0.00000000000E+00 0.  1.
        -11    1    3    3    0    0 -0.16679215587E+02 -0.68184981906E+02  0.10577802929E+03  0.12695030315E+03  0.00000000000E+00 0.  1.
         11    1    3    3    0    0 -0.32807628013E+02  0.11875847598E+02  0.21883488941E+01  0.34959477727E+02  0.00000000000E+00 0. -1.
          2    1    1    2  501    0 -0.46759401896E+02  0.98628036267E+02  0.14510683771E+03  0.18157622519E+03  0.00000000000E+00 0. -1.
<scales pt_clust_5="13000.00000" pt_clust_6="13000.00000" pt_clust_7="13000.00000" pt_clust_8="13000.00000" pt_clust_9="109.15101"></scales>
<clustering>
<clus scale="   79.726">  5  6 -1 -1</clus>
<clus scale="   94.543">  7  8 -1 -1</clus>
<clus scale="  109.151">  2  9  1 -1</clus>
<clus scale="  109.151">  2  5  1 -1</clus>
<clus scale="  109.151">  2  5  1 -1</clus>
</clustering>
</event>
<event>
 9    1  0.7197479E-005  0.2673900E+03  0.7546771E-02  0.1103222E+00
          1   -1    0    0  502    0 -0.00000000000E+00  0.00000000000E+00  0.15457343926E+04  0.15457343926E+04  0.00000000000E+00 0. -1.
         21   -1    0    0  501  502  0.00000000000E+00 -0.00000000000E+00 -0.17926302519E+03  0.17926302519E+03  0.00000000000E+00 0. -1.
         23    2    1    2    0    0 -0.23814637242E+03 -0.11163436311E+03  0.11804673251E+04  0.12127675469E+04  0.90144836496E+02 0.  0.
        -24    2    1    2    0    0  0.11512233754E+03  0.99380501649E+02 -0.10106612370E+03  0.19966891602E+03  0.80769288446E+02 0.  0.
         13    1    4    4    0    0  0.75951972644E+02  0.37918316769E+02 -0.93665964625E+02  0.12641128836E+03  0.00000000000E+00 0. -1.
        -14    1    4    4    0    0  0.39170364899E+02  0.61462184880E+02 -0.74001590738E+01  0.73257627663E+02  0.00000000000E+00 0.  1.
        -11    1    3    3    0    0 -0.21296706278E+02  0.12651339538E+02  0.63122728423E+02  0.67809180307E+02  0.00000000000E+00 0.  1.
         11    1    3    3    0    0 -0.21684966615E+03 -0.12428570264E+03  0.11173445967E+04  0.11449583666E+04  0.00000000000E+00 0. -1.
          2    1    1    2  501    0  0.12302403488E+03  0.12253861457E+02  0.28707016600E+03  0.31256095484E+03  0.00000000000E+00 0. -1.
<scales pt_clust_5="13000.00000" pt_clust_6="13000.00000" pt_clust_7="13000.00000" pt_clust_8="13000.00000" pt_clust_9="123.63287"></scales>
<clustering>
<clus scale="   80.769">  5  6 -1 -1</clus>
<clus scale="   90.145">  7  8 -1 -1</clus>
<clus scale="  123.633">  2  9  1 -1</clus>
<clus scale="  264.377">  2  5  1 -1</clus>
<clus scale="  123.633">  2  5  1 -1</clus>
</clustering>
</event>
<event>
 9    1  0.5981539E-005  0.3482392E+03  0.7546771E-02  0.1063340E+00
         21   -1    0    0  501  502  0.00000000000E+00  0.00000000000E+00  0.76087242049E+03  0.76087242049E+03  0.00000000000E+00 0.  1.
         -4   -1    0    0    0  501 -0.00000000000E+00 -0.00000000000E+00 -0.18119860556E+03  0.18119860556E+03  0.00000000000E+00 0.  1.
        -24    2    1    2    0    0  0.78684157317E+02 -0.13521638363E+03 -0.87209222785E+00  0.17566941447E+03  0.79901912499E+02 0.  0.
         23    2    1    2    0    0  0.11464717186E+03 -0.77525832221E+02  0.68344510991E+02  0.17904607744E+03  0.90732006417E+02 0.  0.
         13    1    3    3    0    0  0.43723444752E+02 -0.22181908875E+02  0.24275324404E+02  0.54708939646E+02  0.00000000000E+00 0. -1.
        -14    1    3    3    0    0  0.34960712565E+02 -0.11303447476E+03 -0.25147416632E+02  0.12096047483E+03  0.00000000000E+00 0.  1.
        -11    1    4    4    0    0  0.87699131270E+02 -0.31549615046E+02  0.10521191493E+01  0.93207418105E+02  0.00000000000E+00 0. -1.
         11    1    4    4    0    0  0.26948040591E+02 -0.45976217176E+02  0.67292391842E+02  0.85838659340E+02  0.00000000000E+00 0.  1.
         -3    1    1    2    0  502 -0.19333132918E+03  0.21274221585E+03  0.51220139616E+03  0.58735553414E+03  0.00000000000E+00 0.  1.
<scales pt_clust_5="13000.00000" pt_clust_6="13000.00000" pt_clust_7="13000.00000" pt_clust_8="13000.00000" pt_clust_9="287.46522"></scales>
<clustering>
<clus scale="   79.902">  5  6 -1 -1</clus>
<clus scale="   90.732">  7  8 -1 -1</clus>
<clus scale="  124.481">  5  7 -1 -1</clus>
<clus scale="  287.465">  1  9  2 -1</clus>
<clus scale="  287.465">  1  5  2 -1</clus>
</clustering>
</event>
<event>
 9    1  0.5981539E-005  0.1585878E+03  0.7546771E-02  0.1196504E+00
         -2   -1    0    0    0  501 -0.00000000000E+00  0.00000000000E+00  0.37631529857E+03  0.37631529857E+03  0.00000000000E+00 0.  1.
         21   -1    0    0  501  502  0.00000000000E+00 -0.00000000000E+00 -0.17397119088E+03  0.17397119088E+03  0.00000000000E+00 0.  1.
        -24    2    1    2    0    0 -0.10879278213E+03  0.27152401253E+02 -0.35911496563E+01  0.13843266038E+03  0.81102298165E+02 0.  0.
         23    2    1    2    0    0  0.11535172810E+02  0.12200317284E+03  0.17887906145E+02  0.15287847474E+03  0.89632675170E+02 0.  0.
         13    1    3    3    0    0 -0.17975504245E+02 -0.16283295187E+02 -0.25727431167E+02  0.35357674831E+02  0.00000000000E+00 0. -1.
        -14    1    3    3    0    0 -0.90817277881E+02  0.43435696440E+02  0.22136281510E+02  0.10307498555E+03  0.00000000000E+00 0.  1.
        -11    1    4    4    0    0 -0.26641846756E+02  0.84873572687E+02  0.36934986254E+02  0.96319803513E+02  0.00000000000E+00 0. -1.
         11    1    4    4    0    0  0.38177019566E+02  0.37129600157E+02 -0.19047080109E+02  0.56558671231E+02  0.00000000000E+00 0.  1.
         -1    1    1    2    0  502  0.97257609316E+02 -0.14915557410E+03  0.18804735120E+03  0.25897535433E+03  0.00000000000E+00 0.  1.
<scales pt_clust_5="13000.00000" pt_clust_6="13000.00000" pt_clust_7="13000.00000" pt_clust_8="13000.00000" pt_clust_9="130.82846"></scales>
<clustering>
<clus scale="   81.102">  5  6 -1 -1</clus>
<clus scale="   89.633">  7  8 -1 -1</clus>
<clus scale="  138.386">  1  5  2 -1</clus>
<clus scale="  130.828">  2  9  1 -1</clus>
<clus scale="  130.828">  2  5  1 -1</clus>
</clustering>
</event>
<event>
 9    1  0.5981539E-005  0.4462721E+03  0.7546771E-02  0.1068751E+00
         21   -1    0    0  501  502  0.00000000000E+00  0.00000000000E+00  0.54293768825E+03  0.54293768825E+03  0.00000000000E+00 0.  1.
          1   -1    0    0  502    0 -0.00000000000E+00 -0.00000000000E+00 -0.54079835131E+03  0.54079835131E+03  0.00000000000E+00 0. -1.
         23    2    1    2    0    0 -0.10166329563E+03 -0.41922534152E+02  0.86535855910E+02  0.16668600665E+03  0.90569563918E+02 0.  0.
        -24    2    1    2    0    0 -0.36925495669E+03 -0.54524200905E+02 -0.18739511344E+03  0.42544583894E+03  0.81025439237E+02 0.  0.
         13    1    4    4    0    0 -0.88698291906E+02  0.17937816834E+02 -0.27955090877E+02  0.94713459263E+02  0.00000000000E+00 0. -1.
        -14    1    4    4    0    0 -0.28055666478E+03 -0.72462017739E+02 -0.15944002257E+03  0.33073237967E+03  0.00000000000E+00 0.  1.
        -11    1    3    3    0    0 -0.19522616026E+02 -0.44565770465E+01 -0.19136820837E+02  0.27698583487E+02  0.00000000000E+00 0. -1.
         11    1    3    3    0    0 -0.82140679600E+02 -0.37465957105E+02  0.10567267675E+03  0.13898742316E+03  0.00000000000E+00 0.  1.
          2    1    1    2  501    0  0.47091825231E+03  0.96446735057E+02  0.10299859448E+03  0.49160419397E+03  0.00000000000E+00 0. -1.
<scales pt_clust_5="13000.00000" pt_clust_6="13000.00000" pt_clust_7="13000.00000" pt_clust_8="13000.00000" pt_clust_9="438.85491"></scales>
<clustering>
<clus scale="   81.025">  5  6 -1 -1</clus>
<clus scale="   90.570">  7  8 -1 -1</clus>
<clus scale="  142.463">  2  7  1 -1</clus>
<clus scale="  438.855">  1  9  2 -1</clus>
<clus scale="  438.855">  1  5  2 -1</clus>
</clustering>
</event>
<event>
 9    1  0.5981539E-005  0.1049928E+03  0.7546771E-02  0.1273914E+00
          1   -1    0    0  502    0 -0.00000000000E+00  0.00000000000E+00  0.34872684563E+03  0.34872684563E+03  0.00000000000E+00 0. -1.
         21   -1    0    0  501  502  0.00000000000E+00 -0.00000000000E+00 -0.12842390190E+03  0.12842390190E+03  0.00000000000E+00 0.  1.
        -24    2    1    2    0    0 -0.31765776879E+02  0.40482053152E+02  0.27738424414E+03  0.29376889768E+03  0.81916330109E+02 0.  0.
         23    2    1    2    0    0  0.16604603289E+02 -0.66928333639E+02  0.52822555593E+01  0.11396657739E+03  0.90583463418E+02 0.  0.
         11    1    3    3    0    0 -0.33932808661E+02 -0.16760378489E+02  0.85164377093E+02  0.93195047703E+02  0.00000000000E+00 0. -1.
        -12    1    3    3    0    0  0.21670317813E+01  0.57242431641E+02  0.19221986705E+03  0.20057384998E+03  0.00000000000E+00 0.  1.
        -13    1    4    4    0    0  0.16019200956E+02 -0.35061536773E+02 -0.41959756276E+02  0.56978481086E+02  0.00000000000E+00 0.  1.
         13    1    4    4    0    0  0.58540233313E+00 -0.31866796866E+02  0.47242011836E+02  0.56988096307E+02  0.00000000000E+00 0. -1.
          2    1    1    2  501    0  0.15161173590E+02  0.26446280487E+02 -0.62363555973E+02  0.69415272454E+02  0.00000000000E+00 0. -1.
<scales pt_clust_5="13000.00000" pt_clust_6="13000.00000" pt_clust_7="13000.00000" pt_clust_8="13000.00000" pt_clust_9="30.48388"></scales>
<clustering>
<clus scale="   30.484">  2  9  1 -1</clus>
<clus scale="   81.916">  5  6 -1 -1</clus>
<clus scale="   90.583">  7  8 -1 -1</clus>
<clus scale="   97.614">  1  5  2 -1</clus>
<clus scale="   30.484">  2  5  1 -1</clus>
</clustering>
</event>
<event>
 9    1  0.5981539E-005  0.1425343E+03  0.7546771E-02  0.1212701E+00
         21   -1    0    0  501  502  0.00000000000E+00  0.00000000000E+00  0.41064458274E+02  0.41064458274E+02  0.00000000000E+00 0.  1.
          1   -1    0    0  502    0 -0.00000000000E+00 -0.00000000000E+00 -0.73250022020E+03  0.73250022020E+03  0.00000000000E+00 0. -1.
        -24    2    1    2    0    0  0.11021203556E+03 -0.17518195142E+02 -0.47794847915E+03  0.49666361945E+03  0.76068536305E+02 0.  0.
         23    2    1    2    0    0 -0.11131540364E+03 -0.15119836771E+02 -0.17401471947E+03  0.22567077695E+03  0.89590448288E+02 0.  0.
         11    1    3    3    0    0  0.11280976470E+03 -0.86916453732E+01 -0.47273908716E+03  0.48609035399E+03  0.00000000000E+00 0. -1.
        -12    1    3    3    0    0 -0.25977291450E+01 -0.88265497691E+01 -0.52093919925E+01  0.10573265459E+02  0.00000000000E+00 0.  1.
        -11    1    4    4    0    0 -0.71683808505E+02 -0.40489579132E+02 -0.15381523053E+03  0.17446231560E+03  0.00000000000E+00 0. -1.
         11    1    4    4    0    0 -0.39631595132E+02  0.25369742361E+02 -0.20199488934E+02  0.51208461346E+02  0.00000000000E+00 0.  1.
          2    1    1    2  501    0  0.11033680799E+01  0.32638031913E+02 -0.39472563300E+02  0.51230282077E+02  0.00000000000E+00 0. -1.
<scales pt_clust_5="13000.00000" pt_clust_6="13000.00000" pt_clust_7="13000.00000" pt_clust_8="13000.00000" pt_clust_9="32.65668"></scales>
<clustering>
<clus scale="   32.657">  1  9  2 -1</clus>
<clus scale="   76.069">  5  6 -1 -1</clus>
<clus scale="   89.590">  7  8 -1 -1</clus>
<clus scale="  134.447">  2  5  1 -1</clus>
<clus scale="   32.657">  1  5  2 -1</clus>
</clustering>
</event>
<event>
 9    1  0.5981539E-005  0.9346173E+02  0.7546771E-02  0.1301882E+00
         21   -1    0    0  501  502  0.00000000000E+00  0.00000000000E+00  0.58640157945E+02  0.58640157945E+02  0.00000000000E+00 0.  1.
         -2   -1    0    0    0  501 -0.00000000000E+00 -0.00000000000E+00 -0.39284251611E+03  0.39284251611E+03  0.00000000000E+00 0.  1.
         23    2    1    2    0    0  0.20734068076E+02  0.63358999675E+01 -0.26854067766E+03  0.28463355851E+03  0.91826585805E+02 0.  0.
        -24    2    1    2    0    0 -0.16390065430E+01  0.47131294955E+02 -0.58292457155E+02  0.10959819626E+03  0.79935653839E+02 0.  0.
         11    1    4    4    0    0 -0.22737970064E+02 -0.71575113331E+01  0.41626988495E+01  0.24198622126E+02  0.00000000000E+00 0. -1.
        -12    1    4    4    0    0  0.21098963521E+02  0.54288806288E+02 -0.62455156005E+02  0.85399574129E+02  0.00000000000E+00 0.  1.
        -13    1    3    3    0    0 -0.33397829739E+02  0.87818921356E+01 -0.60602731365E+02  0.69751184289E+02  0.00000000000E+00 0. -1.
         13    1    3    3    0    0  0.54131897815E+02 -0.24459921681E+01 -0.20793794630E+03  0.21488237422E+03  0.00000000000E+00 0.  1.
         -1    1    1    2    0  502 -0.19095061533E+02 -0.53467194922E+02 -0.73692233517E+01  0.57250919299E+02  0.00000000000E+00 0.  1.
<scales pt_clust_5="13000.00000" pt_clust_6="13000.00000" pt_clust_7="13000.00000" pt_clust_8="13000.00000" pt_clust_9="56.77466"></scales>
<clustering>
<clus scale="   56.775">  1  9  2 -1</clus>
<clus scale="   79.936">  5  6 -1 -1</clus>
<clus scale="   81.809">  1  5  2 -1</clus>
<clus scale="   91.827">  7  8 -1 -1</clus>
<clus scale="   56.775">  1  5  2 -1</clus>
</clustering>
</event>
<event>
 9    1  0.5981539E-005  0.1485711E+03  0.7546771E-02  0.1204284E+00
          3   -1    0    0  502    0 -0.00000000000E+00  0.00000000000E+00  0.34808236153E+03  0.34808236153E+03  0.00000000000E+00 0. -1.
         21   -1    0    0  501  502  0.00000000000E+00 -0.00000000000E+00 -0.16002333703E+03  0.16002333703E+03  0.00000000000E+00 0. -1.
        -24    2    1    2    0    0  0.24781800930E+02 -0.12790842854E+03  0.25096490789E+03  0.29416969689E+03  0.81103155472E+02 0.  0.
         23    2    1    2    0    0  0.29954515547E+02  0.78380581987E+02 -0.13622581271E+02  0.12517837781E+03  0.91887229338E+02 0.  0.
         11    1    3    3    0    0  0.16518939689E+02 -0.96508337044E+02  0.24111921623E+03  0.26024067884E+03  0.00000000000E+00 0. -1.
        -12    1    3    3    0    0  0.82628612414E+01 -0.31400091495E+02  0.98456916647E+01  0.33929018055E+02  0.00000000000E+00 0.  1.
        -11    1    4    4    0    0  0.49526290375E+02  0.12153574742E+02 -0.22144226801E+02  0.55596129343E+02  0.00000000000E+00 0. -1.
         11    1    4    4    0    0 -0.19571774828E+02  0.66227007245E+02  0.85216455305E+01  0.69582248463E+02  0.00000000000E+00 0.  1.
          4    1    1    2  501    0 -0.54736316478E+02  0.49527846552E+02 -0.49283302118E+02  0.88757623860E+02  0.00000000000E+00 0. -1.
<scales pt_clust_5="13000.00000" pt_clust_6="13000.00000" pt_clust_7="13000.00000" pt_clust_8="13000.00000" pt_clust_9="73.81783"></scales>
<clustering>
<clus scale="   73.818">  2  9  1 -1</clus>
<clus scale="   81.103">  5  6 -1 -1</clus>
<clus scale="   91.887">  7  8 -1 -1</clus>
<clus scale="  142.154">  1  5  2 -1</clus>
<clus scale="   73.818">  2  5  1 -1</clus>
</clustering>
</event>
<event>
 9    1  0.5981539E-005  0.1142916E+03  0.7546771E-02  0.1255646E+00
         21   -1    0    0  501  502  0.00000000000E+00  0.00000000000E+00  0.79510149859E+02  0.79510149859E+02  0.00000000000E+00 0.  1.
          1   -1    0    0  502    0 -0.00000000000E+00 -0.00000000000E+00 -0.35889549513E+03  0.35889549513E+03  0.00000000000E+00 0. -1.
        -24    2    1    2    0    0 -0.33246149652E+02 -0.58118862581E+02 -0.26709167985E+03  0.28746256727E+03  0.82544857380E+02 0.  0.
         23    2    1    2    0    0  0.54607631550E+02  0.68148591248E+02 -0.37694930529E+01  0.12585184657E+03  0.90544211826E+02 0.  0.
         11    1    3    3    0    0  0.95732406527E+01 -0.48849664096E+02 -0.20816360975E+03  0.21403276628E+03  0.00000000000E+00 0. -1.
        -12    1    3    3    0    0 -0.42819390305E+02 -0.92691984848E+01 -0.58928070100E+02  0.73429800983E+02  0.00000000000E+00 0.  1.
        -11    1    4    4    0    0  0.35097480399E+02 -0.13567745683E+02 -0.16119222681E+02  0.40935879044E+02  0.00000000000E+00 0. -1.
         11    1    4    4    0    0  0.19510151152E+02  0.81716336931E+02  0.12349729628E+02  0.84915967528E+02  0.00000000000E+00 0.  1.
          2    1    1    2  501    0 -0.21361481898E+02 -0.10029728667E+02 -0.85241723648E+01  0.25091231148E+02  0.00000000000E+00 0. -1.
<scales pt_clust_5="13000.00000" pt_clust_6="13000.00000" pt_clust_7="13000.00000" pt_clust_8="13000.00000" pt_clust_9="23.59891"></scales>
<clustering>
<clus scale="   23.599">  1  9  2 -1</clus>
<clus scale="   82.545">  5  6 -1 -1</clus>
<clus scale="   90.544">  7  8 -1 -1</clus>
<clus scale="  108.065">  2  5  1 -1</clus>
<clus scale="   23.599">  1  5  2 -1</clus>
</clustering>
</event>
<event>
 9    1  0.5981539E-005  0.1113396E+03  0.7546771E-02  0.1262272E+00
          3   -1    0    0  502    0 -0.00000000000E+00  0.00000000000E+00  0.34773098322E+03  0.34773098322E+03  0.00000000000E+00 0. -1.
         21   -1    0    0  501  502  0.00000000000E+00 -0.00000000000E+00 -0.11390643081E+03  0.11390643081E+03  0.00000000000E+00 0.  1.
        -24    2    1    2    0    0 -0.37994753548E+02  0.45047537223E+02  0.21726198653E+03  0.23928506716E+03  0.81127619630E+02 0.  0.
         23    2    1    2    0    0  0.62785401688E+02 -0.74211532641E+02 -0.52227159895E+02  0.14363042339E+03  0.91938370932E+02 0.  0.
         11    1    3    3    0    0 -0.58636420676E+02  0.40957180733E+02  0.11937825632E+03  0.13916496889E+03  0.00000000000E+00 0. -1.
        -12    1    3    3    0    0  0.20641667128E+02  0.40903564899E+01  0.97883730212E+02  0.10012009827E+03  0.00000000000E+00 0.  1.
        -13    1    4    4    0    0  0.69301215673E+02 -0.10954131807E+02 -0.29249986953E+02  0.76014559357E+02  0.00000000000E+00 0.  1.
         13    1    4    4    0    0 -0.65158139850E+01 -0.63257400834E+02 -0.22977172942E+02  0.67615864030E+02  0.00000000000E+00 0. -1.
          4    1    1    2  501    0 -0.24790648141E+02  0.29163995417E+02  0.68789725769E+02  0.78721923473E+02  0.00000000000E+00 0. -1.
<scales pt_clust_5="13000.00000" pt_clust_6="13000.00000" pt_clust_7="13000.00000" pt_clust_8="13000.00000" pt_clust_9="38.27684"></scales>
<clustering>
<clus scale="   38.277">  2  9  1 -1</clus>
<clus scale="   81.128">  5  6 -1 -1</clus>
<clus scale="   91.938">  7  8 -1 -1</clus>
<clus scale="  102.594">  1  5  2 -1</clus>
<clus scale="   38.277">  2  5  1 -1</clus>
</clustering>
</event>
<event>
 9    1  0.5981539E-005  0.1749619E+03  0.7546771E-02  0.1174360E+00
         21   -1    0    0  501  502  0.00000000000E+00  0.00000000000E+00  0.68798322629E+02  0.68798322629E+02  0.00000000000E+00 0. -1.
          1   -1    0    0  502    0 -0.00000000000E+00 -0.00000000000E+00 -0.55831528467E+03  0.55831528467E+03  0.00000000000E+00 0. -1.
         23    2    1    2    0    0 -0.68244273415E+02  0.13832261342E+03 -0.32957777760E+03  0.37503042700E+03  0.90751768275E+02 0.  0.
        -24    2    1    2    0    0  0.77627607581E+02 -0.12041102462E+03 -0.16412234368E+03  0.23143443229E+03  0.78108209850E+02 0.  0.
         11    1    4    4    0    0  0.21882243738E+02 -0.18000533413E+01 -0.72073533049E+00  0.21967982212E+02  0.00000000000E+00 0. -1.
        -12    1    4    4    0    0  0.55745363843E+02 -0.11861097128E+03 -0.16340160835E+03  0.20946645008E+03  0.00000000000E+00 0.  1.
        -11    1    3    3    0    0 -0.82590197593E+02  0.10140176863E+03 -0.19538911085E+03  0.23511776636E+03  0.00000000000E+00 0. -1.
         11    1    3    3    0    0  0.14345924178E+02  0.36920844783E+02 -0.13418866675E+03  0.13991266063E+03  0.00000000000E+00 0.  1.
          2    1    1    2  501    0 -0.93833341658E+01 -0.17911588797E+02  0.41831592418E+01  0.20648748014E+02  0.00000000000E+00 0. -1.
<scales pt_clust_5="13000.00000" pt_clust_6="13000.00000" pt_clust_7="13000.00000" pt_clust_8="13000.00000" pt_clust_9="20.22058"></scales>
<clustering>
<clus scale="   20.221">  1  9  2 -1</clus>
<clus scale="   78.108">  5  6 -1 -1</clus>
<clus scale="   90.752">  7  8 -1 -1</clus>
<clus scale="  168.750">  1  5  2 -1</clus>
<clus scale="   20.221">  1  5  2 -1</clus>
</clustering>
</event>
<event>
 9    1  0.5981539E-005  0.1317005E+03  0.7546771E-02  0.1237044E+00
         21   -1    0    0  501  502  0.00000000000E+00  0.00000000000E+00  0.23973229249E+03  0.23973229249E+03  0.00000000000E+00 0. -1.
          3   -1    0    0  502    0 -0.00000000000E+00 -0.00000000000E+00 -0.19189880216E+03  0.19189880216E+03  0.00000000000E+00 0. -1.
        -24    2    1    2    0    0  0.38271135632E+02  0.52717192237E+02 -0.99455210638E+02  0.14292634427E+03  0.79327289029E+02 0.  0.
         23    2    1    2    0    0  0.59203644343E+02 -0.14770082290E+02  0.57341773913E+01  0.11269623061E+03  0.94574482653E+02 0.  0.
         13    1    3    3    0    0  0.14952545592E+02  0.37763069954E+02 -0.10680439953E+03  0.11426638977E+03  0.00000000000E+00 0. -1.
        -14    1    3    3    0    0  0.23318590040E+02  0.14954122283E+02  0.73491888937E+01  0.28659954503E+02  0.00000000000E+00 0.  1.
        -11    1    4    4    0    0 -0.25205115787E+02  0.52286309885E+01 -0.27015960550E+00  0.25743143361E+02  0.00000000000E+00 0.  1.
         11    1    4    4    0    0  0.84408760130E+02 -0.19998713279E+02  0.60043369968E+01  0.86953087250E+02  0.00000000000E+00 0. -1.
          4    1    1    2  501    0 -0.97474779975E+02 -0.37947109947E+02  0.14155452358E+03  0.17600851977E+03  0.00000000000E+00 0. -1.
<scales pt_clust_5="13000.00000" pt_clust_6="13000.00000" pt_clust_7="13000.00000" pt_clust_8="13000.00000" pt_clust_9="91.65533"></scales>
<clustering>
<clus scale="   79.327">  5  6 -1 -1</clus>
<clus scale="   94.574">  7  8 -1 -1</clus>
<clus scale="  102.648">  2  5  1 -1</clus>
<clus scale="   91.655">  1  9  2 -1</clus>
<clus scale="   91.655">  1  5  2 -1</clus>
</clustering>
</event>
<event>
 9    1  0.5981539E-005  0.1136711E+03  0.7546771E-02  0.1258422E+00
          1   -1    0    0  502    0 -0.00000000000E+00  0.00000000000E+00  0.55619552234E+03  0.55619552234E+03  0.00000000000E+00 0. -1.
         21   -1    0    0  501  502  0.00000000000E+00 -0.00000000000E+00 -0.47092135782E+02  0.47092135782E+02  0.00000000000E+00 0. -1.
        -24    2    1    2    0    0 -0.19607594811E+02  0.68324430699E+02  0.42428885753E+03  0.43743730362E+03  0.79231776262E+02 0.  0.
         23    2    1    2    0    0 -0.11837554780E+02 -0.55402853460E+02  0.71914257902E+02  0.12948853955E+03  0.91575201399E+02 0.  0.
         13    1    3    3    0    0  0.61334147667E+01  0.75379262671E+02  0.25234772776E+03  0.26343695208E+03  0.00000000000E+00 0. -1.
        -14    1    3    3    0    0 -0.25741009577E+02 -0.70548319717E+01  0.17194112977E+03  0.17400035154E+03  0.00000000000E+00 0.  1.
        -13    1    4    4    0    0 -0.40253332987E+02 -0.30210570400E+02  0.25308340807E+01  0.50392603640E+02  0.00000000000E+00 0. -1.
         13    1    4    4    0    0  0.28415778207E+02 -0.25192283060E+02  0.69383423821E+02  0.79095935914E+02  0.00000000000E+00 0.  1.
          2    1    1    2  501    0  0.31445149591E+02 -0.12921577239E+02  0.12900271123E+02  0.36361814946E+02  0.00000000000E+00 0. -1.
<scales pt_clust_5="13000.00000" pt_clust_6="13000.00000" pt_clust_7="13000.00000" pt_clust_8="13000.00000" pt_clust_9="33.99654"></scales>
<clustering>
<clus scale="   33.997">  2  9  1 -1</clus>
<clus scale="   79.232">  5  6 -1 -1</clus>
<clus scale="   91.575">  7  8 -1 -1</clus>
<clus scale="  103.985">  1  5  2 -1</clus>
<clus scale="   33.997">  2  5  1 -1</clus>
</clustering>
</event>
<event>
 9    1  0.5981539E-005  0.1139028E+03  0.7546771E-02  0.1258502E+00
         21   -1    0    0  501  502  0.00000000000E+00  0.00000000000E+00  0.60430291858E+02  0.60430291858E+02  0.00000000000E+00 0. -1.
          3   -1    0    0  502    0 -0.00000000000E+00 -0.00000000000E+00 -0.25667493143E+03  0.25667493143E+03  0.00000000000E+00 0. -1.
         23    2    1    2    0    0 -0.70081453243E+02  0.29038390926E+02 -0.14526917308E+03  0.18712657548E+03  0.90324882312E+02 0.  0.
        -24    2    1    2    0    0  0.59979032186E+02 -0.98155565593E+01 -0.44857395721E+02  0.10741746295E+03  0.76370779385E+02 0.  0.
         13    1    4    4    0    0  0.63941088851E+02 -0.27093549710E+02 -0.12554028462E+02  0.70570014241E+02  0.00000000000E+00 0. -1.
        -14    1    4    4    0    0 -0.39620566646E+01  0.17277993151E+02 -0.32303367258E+02  0.36847448712E+02  0.00000000000E+00 0.  1.
        -13    1    3    3    0    0 -0.15891026017E+02 -0.25331289909E+02 -0.83193376967E+02  0.88404394278E+02  0.00000000000E+00 0.  1.
         13    1    3    3    0    0 -0.54190427226E+02  0.54369680835E+02 -0.62075796117E+02  0.98722181199E+02  0.00000000000E+00 0. -1.
          4    1    1    2  501    0  0.10102421056E+02 -0.19222834366E+02 -0.61180707658E+01  0.22561184858E+02  0.00000000000E+00 0. -1.
<scales pt_clust_5="13000.00000" pt_clust_6="13000.00000" pt_clust_7="13000.00000" pt_clust_8="13000.00000" pt_clust_9="21.71581"></scales>
<clustering>
<clus scale="   21.716">  1  9  2 -1</clus>
<clus scale="   76.371">  5  6 -1 -1</clus>
<clus scale="   90.325">  7  8 -1 -1</clus>
<clus scale="  103.188">  1  5  2 -1</clus>
<clus scale="   21.716">  1  5  2 -1</clus>
</clustering>
</event>
<event>
 9    1  0.5981539E-005  0.1267070E+03  0.7546771E-02  0.1235480E+00
          3   -1    0    0  502    0 -0.00000000000E+00  0.00000000000E+00  0.11827244903E+03  0.11827244903E+03  0.00000000000E+00 0. -1.
         21   -1    0    0  501  502  0.00000000000E+00 -0.00000000000E+00 -0.35103725481E+03  0.35103725481E+03  0.00000000000E+00 0. -1.
        -24    2    1    2    0    0 -0.47515035838E+02  0.13376838345E+02 -0.42781651802E+02  0.10249727557E+03  0.78986095824E+02 0.  0.
         23    2    1    2    0    0  0.13002437055E+03 -0.31953854354E+02 -0.28416916225E+01  0.16144733199E+03  0.90165292934E+02 0.  0.
         11    1    3    3    0    0 -0.22675726850E+02 -0.53446739117E+01 -0.61795819213E+02  0.66041482416E+02  0.00000000000E+00 0. -1.
        -12    1    3    3    0    0 -0.24839308988E+02  0.18721512257E+02  0.19014167411E+02  0.36455793155E+02  0.00000000000E+00 0.  1.
        -13    1    4    4    0    0  0.10501538562E+03 -0.52921546222E+02  0.22993644860E+02  0.11982332400E+03  0.00000000000E+00 0. -1.
         13    1    4    4    0    0  0.25008984930E+02  0.20967691868E+02 -0.25835336483E+02  0.41624007985E+02  0.00000000000E+00 0.  1.
          4    1    1    2  501    0 -0.82509334710E+02  0.18577016009E+02 -0.18714146235E+03  0.20536509628E+03  0.00000000000E+00 0. -1.
<scales pt_clust_5="13000.00000" pt_clust_6="13000.00000" pt_clust_7="13000.00000" pt_clust_8="13000.00000" pt_clust_9="84.57479"></scales>
<clustering>
<clus scale="   78.986">  5  6 -1 -1</clus>
<clus scale="   84.575">  2  9  1 -1</clus>
<clus scale="   90.165">  7  8 -1 -1</clus>
<clus scale="  119.011">  1  5  2 -1</clus>
<clus scale="   84.575">  2  5  1 -1</clus>
</clustering>
</event>
<event>
 9    1  0.5981539E-005  0.1547197E+03  0.7546771E-02  0.1196895E+00
          1   -1    0    0  502    0 -0.00000000000E+00  0.00000000000E+00  0.84221997499E+03  0.84221997499E+03  0.00000000000E+00 0. -1.
         21   -1    0    0  501  502  0.00000000000E+00 -0.00000000000E+00 -0.57053859950E+02  0.57053859950E+02  0.00000000000E+00 0. -1.
         23    2    1    2    0    0  0.12516360592E+03 -0.41060746567E+02  0.63166829572E+03  0.65179431855E+03  0.92081945677E+02 0.  0.
        -24    2    1    2    0    0 -0.83310177681E+02  0.42839165310E+02  0.44787805012E+02  0.13097741581E+03  0.79833302479E+02 0.  0.
         13    1    4    4    0    0 -0.57931867465E+02  0.52161755455E+02  0.61411894996E+02  0.99238958314E+02  0.00000000000E+00 0. -1.
        -14    1    4    4    0    0 -0.25378310216E+02 -0.93225901453E+01 -0.16624089984E+02  0.31738457496E+02  0.00000000000E+00 0.  1.
        -11    1    3    3    0    0  0.27720917391E+02 -0.40083559218E+02  0.99696684604E+02  0.11097103181E+03  0.00000000000E+00 0.  1.
         11    1    3    3    0    0  0.97442688532E+02 -0.97718734853E+00  0.53197161111E+03  0.54082328673E+03  0.00000000000E+00 0. -1.
          2    1    1    2  501    0 -0.41853428243E+02 -0.17784187428E+01  0.10871001431E+03  0.11650210059E+03  0.00000000000E+00 0. -1.
<scales pt_clust_5="13000.00000" pt_clust_6="13000.00000" pt_clust_7="13000.00000" pt_clust_8="13000.00000" pt_clust_9="41.89122"></scales>
<clustering>
<clus scale="   41.891">  2  9  1 -1</clus>
<clus scale="   79.833">  5  6 -1 -1</clus>
<clus scale="   92.082">  7  8 -1 -1</clus>
<clus scale="  147.758">  2  5  1 -1</clus>
<clus scale="   41.891">  2  5  1 -1</clus>
</clustering>
</event>
<event>
 9    1  0.5981539E-005  0.1481965E+03  0.7546771E-02  0.1229118E+00
          3   -1    0    0  502    0 -0.00000000000E+00  0.00000000000E+00  0.13108129655E+04  0.13108129655E+04  0.00000000000E+00 0. -1.
         21   -1    0    0  501  502  0.00000000000E+00 -0.00000000000E+00 -0.24889698457E+02  0.24889698457E+02  0.00000000000E+00 0. -1.
        -24    2    1    2    0    0 -0.22435477425E+02  0.36179725272E+02  0.23603990141E+03  0.25080489894E+03  0.73320795871E+02 0.  0.
         23    2    1    2    0    0  0.12755541448E+03 -0.17236572692E+02  0.48274092282E+03  0.50778460918E+03  0.90768538364E+02 0.  0.
         13    1    3    3    0    0  0.29455923295E+01  0.50511742743E+02  0.18730258214E+03  0.19401641669E+03  0.00000000000E+00 0. -1.
        -14    1    3    3    0    0 -0.25381069755E+02 -0.14332017471E+02  0.48737319272E+02  0.56788482253E+02  0.00000000000E+00 0.  1.
        -13    1    4    4    0    0  0.50798644499E+02 -0.77095839802E+01  0.64556071344E+02  0.82507128877E+02  0.00000000000E+00 0. -1.
         13    1    4    4    0    0  0.76756769981E+02 -0.95269887114E+01  0.41818485148E+03  0.42527748031E+03  0.00000000000E+00 0.  1.
          4    1    1    2  501    0 -0.10511993705E+03 -0.18943152581E+02  0.56714244283E+03  0.57711315585E+03  0.00000000000E+00 0. -1.
<scales pt_clust_5="13000.00000" pt_clust_6="13000.00000" pt_clust_7="13000.00000" pt_clust_8="13000.00000" pt_clust_9="117.14641"></scales>
<clustering>
<clus scale="   73.321">  5  6 -1 -1</clus>
<clus scale="   84.784">  1  5  2 -1</clus>
<clus scale="   90.769">  7  8 -1 -1</clus>
<clus scale="  117.146">  2  9  1 -1</clus>
<clus scale="  117.146">  2  5  1 -1</clus>
</clustering>
</event>
<event>
 9    1  0.5981539E-005  0.1342670E+03  0.7546771E-02  0.1223648E+00
          1   -1    0    0  502    0 -0.00000000000E+00  0.00000000000E+00  0.16685731730E+03  0.16685731730E+03  0.00000000000E+00 0. -1.
         21   -1    0    0  501  502  0.00000000000E+00 -0.00000000000E+00 -0.13952009557E+03  0.13952009557E+03  0.00000000000E+00 0.  1.
        -24    2    1    2    0    0 -0.94133361937E+01  0.11087998719E+03  0.60274742294E+02  0.14947548577E+03  0.79541774122E+02 0.  0.
         23    2    1    2    0    0 -0.32755193868E+01 -0.81735752703E+02 -0.22511148415E+02  0.12344893477E+03  0.89673995090E+02 0.  0.
         11    1    3    3    0    0 -0.42858669884E+02  0.41536200196E+02  0.29334666724E+02  0.66502963714E+02  0.00000000000E+00 0. -1.
        -12    1    3    3    0    0  0.33445333690E+02  0.69343786991E+02  0.30940075570E+02  0.82972522055E+02  0.00000000000E+00 0.  1.
        -13    1    4    4    0    0 -0.21412751275E+02 -0.52223305801E+02  0.27362587111E+02  0.62725519203E+02  0.00000000000E+00 0. -1.
         13    1    4    4    0    0  0.18137231888E+02 -0.29512446902E+02 -0.49873735526E+02  0.60723415566E+02  0.00000000000E+00 0.  1.
          2    1    1    2  501    0  0.12688855581E+02 -0.29144234484E+02 -0.10426372153E+02  0.33452992330E+02  0.00000000000E+00 0. -1.
<scales pt_clust_5="13000.00000" pt_clust_6="13000.00000" pt_clust_7="13000.00000" pt_clust_8="13000.00000" pt_clust_9="31.78669"></scales>
<clustering>
<clus scale="   31.787">  2  9  1 -1</clus>
<clus scale="   79.542">  5  6 -1 -1</clus>
<clus scale="   89.674">  7  8 -1 -1</clus>
<clus scale="  127.723">  1  5  2 -1</clus>
<clus scale="   31.787">  2  5  1 -1</clus>
</clustering>
</event>
<event>
 9    1  0.5981539E-005  0.1249075E+03  0.7546771E-02  0.1252551E+00
         21   -1    0    0  501  502  0.00000000000E+00  0.00000000000E+00  0.22481793668E+03  0.22481793668E+03  0.00000000000E+00 0.  1.
          3   -1    0    0  502    0 -0.00000000000E+00 -0.00000000000E+00 -0.17972062914E+03  0.17972062914E+03  0.00000000000E+00 0. -1.
        -24    2    1    2    0    0 -0.27044575035E+02  0.17696928177E+02 -0.15758418999E+02  0.89430629384E+02  0.81883572204E+02 0.  0.
         23    2    1    2    0    0  0.99516034545E+01  0.81811753921E+02  0.14031999740E+03  0.18662168101E+03  0.91355091051E+02 0.  0.
         13    1    3    3    0    0 -0.14585175548E+01 -0.30316301930E+02 -0.17429418902E+02  0.34999858277E+02  0.00000000000E+00 0. -1.
        -14    1    3    3    0    0 -0.25586057480E+02  0.48013230106E+02  0.16709999030E+01  0.54430771107E+02  0.00000000000E+00 0.  1.
        -11    1    4    4    0    0  0.29895223853E+02  0.63507158956E+02  0.14312103616E+03  0.15940675845E+03  0.00000000000E+00 0.  1.
         11    1    4    4    0    0 -0.19943620399E+02  0.18304594965E+02 -0.28010387655E+01  0.27214922554E+02  0.00000000000E+00 0. -1.
          4    1    1    2  501    0  0.17092971581E+02 -0.99508682097E+02 -0.79464270855E+02  0.12848625542E+03  0.00000000000E+00 0. -1.
<scales pt_clust_5="13000.00000" pt_clust_6="13000.00000" pt_clust_7="13000.00000" pt_clust_8="13000.00000" pt_clust_9="85.18301"></scales>
<clustering>
<clus scale="   81.884">  5  6 -1 -1</clus>
<clus scale="   88.031">  2  5  1 -1</clus>
<clus scale="   85.183">  1  9  2 -1</clus>
<clus scale="   91.355">  7  8 -1 -1</clus>
<clus scale="   85.183">  1  5  2 -1</clus>
</clustering>
</event>
<event>
 9    1  0.5981539E-005  0.2296714E+03  0.7546771E-02  0.1168397E+00
         21   -1    0    0  501  502  0.00000000000E+00  0.00000000000E+00  0.90521999428E+03  0.90521999428E+03  0.00000000000E+00 0.  1.
         -4   -1    0    0    0  501 -0.00000000000E+00 -0.00000000000E+00 -0.11619726191E+03  0.11619726191E+03  0.00000000000E+00 0.  1.
        -24    2    1    2    0    0 -0.11677778790E+02 -0.37426935304E+02  0.94214865113E+02  0.12721150410E+03  0.75955118086E+02 0.  0.
         23    2    1    2    0    0  0.16062077380E+03  0.17852976220E+03  0.11862767521E+03  0.28258688611E+03  0.90060612440E+02 0.  0.
         13    1    3    3    0    0 -0.18039396144E+00 -0.22625453388E+02  0.10374621726E+03  0.10618484487E+03  0.00000000000E+00 0. -1.
        -14    1    3    3    0    0 -0.11497384828E+02 -0.14801481916E+02 -0.95313521485E+01  0.21026659235E+02  0.00000000000E+00 0.  1.
        -11    1    4    4    0    0  0.99335896762E+02  0.16100323191E+03  0.10837806000E+03  0.21802629419E+03  0.00000000000E+00 0.  1.
         11    1    4    4    0    0  0.61284877036E+02  0.17526530289E+02  0.10249615207E+02  0.64560591921E+02  0.00000000000E+00 0. -1.
         -3    1    1    2    0  502 -0.14894299501E+03 -0.14110282689E+03  0.57618019204E+03  0.61161886598E+03  0.00000000000E+00 0.  1.
<scales pt_clust_5="13000.00000" pt_clust_6="13000.00000" pt_clust_7="13000.00000" pt_clust_8="13000.00000" pt_clust_9="211.27711"></scales>
<clustering>
<clus scale="   75.955">  5  6 -1 -1</clus>
<clus scale="   85.477">  2  5  1 -1</clus>
<clus scale="   90.061">  7  8 -1 -1</clus>
<clus scale="  211.277">  1  9  2 -1</clus>
<clus scale="  211.277">  1  5  2 -1</clus>
</clustering>
</event>
<event>
 9    1  0.5981539E-005  0.1141805E+03  0.7546771E-02  0.1263704E+00
          1   -1    0    0  502    0 -0.00000000000E+00  0.00000000000E+00  0.13162750039E+03  0.13162750039E+03  0.00000000000E+00 0. -1.
         21   -1    0    0  501  502  0.00000000000E+00 -0.00000000000E+00 -0.17037617372E+03  0.17037617372E+03  0.00000000000E+00 0.  1.
        -24    2    1    2    0    0 -0.21852660473E+02 -0.43342627969E+02  0.12901675193E+02  0.93393863987E+02  0.78739052819E+02 0.  0.
         23    2    1    2    0    0 -0.42745920195E+02 -0.25445129546E+02 -0.46603646393E+02  0.11411006720E+03  0.91512508814E+02 0.  0.
         11    1    3    3    0    0 -0.10490972061E+02 -0.34888541180E+02  0.45242940302E+02  0.58087816689E+02  0.00000000000E+00 0. -1.
        -12    1    3    3    0    0 -0.11361688411E+02 -0.84540867886E+01 -0.32341265110E+02  0.35306047299E+02  0.00000000000E+00 0.  1.
        -13    1    4    4    0    0 -0.10225259160E+02  0.34456674400E+02 -0.17899245706E+02  0.40152226992E+02  0.00000000000E+00 0. -1.
         13    1    4    4    0    0 -0.32520661035E+02 -0.59901803946E+02 -0.28704400687E+02  0.73957840213E+02  0.00000000000E+00 0.  1.
          2    1    1    2  501    0  0.64598580668E+02  0.68787757515E+02 -0.50467021257E+01  0.94499742912E+02  0.00000000000E+00 0. -1.
<scales pt_clust_5="13000.00000" pt_clust_6="13000.00000" pt_clust_7="13000.00000" pt_clust_8="13000.00000" pt_clust_9="68.28362"></scales>
<clustering>
<clus scale="   78.739">  5  6 -1 -1</clus>
<clus scale="   91.513">  7  8 -1 -1</clus>
<clus scale="   92.498">  1  5  2 -1</clus>
<clus scale="   68.284">  2  9  1 -1</clus>
<clus scale="   68.284">  2  5  1 -1</clus>
</clustering>
</event>
<event>
 9    1  0.5981539E-005  0.1224143E+03  0.7546771E-02  0.1242537E+00
          1   -1    0    0  502    0 -0.00000000000E+00  0.00000000000E+00  0.46012601263E+02  0.46012601263E+02  0.00000000000E+00 0. -1.
         21   -1    0    0  501  502  0.00000000000E+00 -0.00000000000E+00 -0.52631125781E+03  0.52631125781E+03  0.00000000000E+00 0.  1.
        -24    2    1    2    0    0 -0.90107018680E+02 -0.14241145245E+02 -0.79027721854E+02  0.14494271125E+03  0.80255365490E+02 0.  0.
         23    2    1    2    0    0  0.52381700419E+02  0.23514834304E+02 -0.28272410256E+03  0.30263118848E+03  0.91410765794E+02 0.  0.
         13    1    3    3    0    0 -0.34928044096E+02  0.27657434847E+02 -0.71723845010E+01  0.45125880226E+02  0.00000000000E+00 0. -1.
        -14    1    3    3    0    0 -0.55178974583E+02 -0.41898580092E+02 -0.71855337353E+02  0.99816831025E+02  0.00000000000E+00 0.  1.
        -13    1    4    4    0    0  0.57641684416E+02  0.52028367246E+02 -0.18338408713E+03  0.19914627336E+03  0.00000000000E+00 0.  1.
         13    1    4    4    0    0 -0.52599839965E+01 -0.28513532941E+02 -0.99340015427E+02  0.10348491512E+03  0.00000000000E+00 0. -1.
          2    1    1    2  501    0  0.37725318260E+02 -0.92736890595E+01 -0.11854683214E+03  0.12474995934E+03  0.00000000000E+00 0. -1.
<scales pt_clust_5="13000.00000" pt_clust_6="13000.00000" pt_clust_7="13000.00000" pt_clust_8="13000.00000" pt_clust_9="38.84844"></scales>
<clustering>
<clus scale="   38.848">  2  9  1 -1</clus>
<clus scale="   80.255">  5  6 -1 -1</clus>
<clus scale="   91.411">  7  8 -1 -1</clus>
<clus scale="  114.325">  1  5  2 -1</clus>
<clus scale="   38.848">  2  5  1 -1</clus>
</clustering>
</event>
<event>
 9    1  0.5981539E-005  0.9492927E+02  0.7546771E-02  0.1298249E+00
         21   -1    0    0  501  502  0.00000000000E+00  0.00000000000E+00  0.18185271500E+03  0.18185271500E+03  0.00000000000E+00 0. -1.
         -4   -1    0    0    0  501 -0.00000000000E+00 -0.00000000000E+00 -0.21557830116E+03  0.21557830116E+03  0.00000000000E+00 0.  1.
         23    2    1    2    0    0 -0.14866729890E+02  0.17682780269E+02 -0.18067221439E+03  0.20415860069E+03  0.92220305829E+02 0.  0.
        -24    2    1    2    0    0  0.27497549927E+02  0.79042863512E+00  0.61349764245E+02  0.10479857648E+03  0.80387859968E+02 0.  0.
         11    1    4    4    0    0  0.39278606213E+02 -0.28114146390E+02  0.54533057167E+02  0.72849629081E+02  0.00000000000E+00 0. -1.
        -12    1    4    4    0    0 -0.11781056286E+02  0.28904575025E+02  0.68167070785E+01  0.31948947401E+02  0.00000000000E+00 0.  1.
        -11    1    3    3    0    0 -0.41836891756E+02  0.18085248084E+02 -0.16851902564E+03  0.17457394912E+03  0.00000000000E+00 0.  1.
         11    1    3    3    0    0  0.26970161866E+02 -0.40246781515E+00 -0.12153188749E+02  0.29584651565E+02  0.00000000000E+00 0. -1.
         -3    1    1    2    0  502 -0.12630820037E+02 -0.18473208904E+02  0.85596863981E+02  0.88473838989E+02  0.00000000000E+00 0.  1.
<scales pt_clust_5="13000.00000" pt_clust_6="13000.00000" pt_clust_7="13000.00000" pt_clust_8="13000.00000" pt_clust_9="22.37850"></scales>
<clustering>
<clus scale="   22.378">  1  9  2 -1</clus>
<clus scale="   80.388">  5  6 -1 -1</clus>
<clus scale="   83.482">  1  5  2 -1</clus>
<clus scale="   92.220">  7  8 -1 -1</clus>
<clus scale="   22.378">  1  5  2 -1</clus>
</clustering>
</event>
<event>
 9    1  0.5981539E-005  0.1654091E+03  0.7546771E-02  0.1195123E+00
         21   -1    0    0  501  502  0.00000000000E+00  0.00000000000E+00  0.72600858889E+02  0.72600858889E+02  0.00000000000E+00 0.  1.
          1   -1    0    0  502    0 -0.00000000000E+00 -0.00000000000E+00 -0.83162185126E+03  0.83162185126E+03  0.00000000000E+00 0. -1.
         23    2    1    2    0    0 -0.74907641059E+02  0.42346009681E+02 -0.23224363080E+03  0.26407991315E+03  0.91633821575E+02 0.  0.
        -24    2    1    2    0    0  0.46501208970E+02  0.12972206474E+03 -0.12808620678E+03  0.20497732901E+03  0.81360017997E+02 0.  0.
         11    1    4    4    0    0 -0.16431742782E+02  0.17055238418E+02 -0.46822048054E+02  0.52470825344E+02  0.00000000000E+00 0. -1.
        -12    1    4    4    0    0  0.62932951752E+02  0.11266682632E+03 -0.81264158723E+02  0.15250650367E+03  0.00000000000E+00 0.  1.
        -11    1    3    3    0    0  0.19337744596E+02  0.12794376392E+02 -0.73942554560E+02  0.77492875855E+02  0.00000000000E+00 0. -1.
         11    1    3    3    0    0 -0.94245385656E+02  0.29551633289E+02 -0.15830107624E+03  0.18658703730E+03  0.00000000000E+00 0.  1.
          2    1    1    2  501    0  0.28406432089E+02 -0.17206807442E+03 -0.39869115479E+03  0.43516546798E+03  0.00000000000E+00 0. -1.
<scales pt_clust_5="13000.00000" pt_clust_6="13000.00000" pt_clust_7="13000.00000" pt_clust_8="13000.00000" pt_clust_9="144.01645"></scales>
<clustering>
<clus scale="   81.360">  5  6 -1 -1</clus>
<clus scale="   91.634">  7  8 -1 -1</clus>
<clus scale="  125.702">  2  7  1 -1</clus>
<clus scale="  144.016">  1  9  2 -1</clus>
<clus scale="  144.016">  1  5  2 -1</clus>
</clustering>
</event>
<event>
 9    1  0.5981539E-005  0.1714044E+03  0.7546771E-02  0.1177800E+00
         -4   -1    0    0    0  501 -0.00000000000E+00  0.00000000000E+00  0.69189458678E+02  0.69189458678E+02  0.00000000000E+00 0.  1.
         21   -1    0    0  501  502  0.00000000000E+00 -0.00000000000E+00 -0.67190265021E+03  0.67190265021E+03  0.00000000000E+00 0.  1.
        -24    2    1    2    0    0 -0.14288435017E+03 -0.67558650505E+02 -0.20736880571E+03  0.27297031793E+03  0.80813761883E+02 0.  0.
         23    2    1    2    0    0  0.93760183283E+02  0.86134324196E+02 -0.38351107054E+03  0.41428623787E+03  0.91335928782E+02 0.  0.
         11    1    3    3    0    0 -0.46434752557E+02  0.15293034677E+02 -0.74116557367E+02  0.88788102979E+02  0.00000000000E+00 0. -1.
        -12    1    3    3    0    0 -0.96449597611E+02 -0.82851685182E+02 -0.13325224834E+03  0.18418221495E+03  0.00000000000E+00 0.  1.
        -13    1    4    4    0    0  0.95239489330E+02  0.39873608762E+02 -0.20062561306E+03  0.22563488565E+03  0.00000000000E+00 0.  1.
         13    1    4    4    0    0 -0.14793060469E+01  0.46260715433E+02 -0.18288545748E+03  0.18865135222E+03  0.00000000000E+00 0. -1.
         -3    1    1    2    0  502  0.49124166885E+02 -0.18575673691E+02 -0.11833315278E+02  0.53835553083E+02  0.00000000000E+00 0.  1.
<scales pt_clust_5="13000.00000" pt_clust_6="13000.00000" pt_clust_7="13000.00000" pt_clust_8="13000.00000" pt_clust_9="52.51897"></scales>
<clustering>
<clus scale="   52.519">  2  9  1 -1</clus>
<clus scale="   80.814">  5  6 -1 -1</clus>
<clus scale="   91.336">  7  8 -1 -1</clus>
<clus scale="  166.036">  1  5  2 -1</clus>
<clus scale="   52.519">  2  5  1 -1</clus>
</clustering>
</event>
<event>
 9    1  0.5981539E-005  0.1504537E+03  0.7546771E-02  0.1200047E+00
         21   -1    0    0  501  502  0.00000000000E+00  0.00000000000E+00  0.60326106603E+02  0.60326106603E+02  0.00000000000E+00 0. -1.
          3   -1    0    0  502    0 -0.00000000000E+00 -0.00000000000E+00 -0.94570368657E+03  0.94570368657E+03  0.00000000000E+00 0. -1.
        -24    2    1    2    0    0  0.12822532680E+03  0.27795989444E+02 -0.77114355897E+03  0.78615811449E+03  0.78535603214E+02 0.  0.
         23    2    1    2    0    0 -0.10784641971E+03 -0.40359758187E+02 -0.13022172125E+03  0.19108357874E+03  0.79344042329E+02 0.  0.
         11    1    3    3    0    0  0.13809483990E+03  0.32241164490E+02 -0.70299220890E+03  0.71715251046E+03  0.00000000000E+00 0. -1.
        -12    1    3    3    0    0 -0.98695130987E+01 -0.44451750461E+01 -0.68151350069E+02  0.69005604020E+02  0.00000000000E+00 0.  1.
        -13    1    4    4    0    0 -0.42869993272E+02  0.22599134492E+02 -0.35336369303E+02  0.59976797168E+02  0.00000000000E+00 0.  1.
         13    1    4    4    0    0 -0.64976426442E+02 -0.62958892679E+02 -0.94885351951E+02  0.13110678158E+03  0.00000000000E+00 0. -1.
          4    1    1    2  501    0 -0.20378907088E+02  0.12563768744E+02  0.15987700252E+02  0.28788099946E+02  0.00000000000E+00 0. -1.
<scales pt_clust_5="13000.00000" pt_clust_6="13000.00000" pt_clust_7="13000.00000" pt_clust_8="13000.00000" pt_clust_9="23.94051"></scales>
<clustering>
<clus scale="   23.941">  1  9  2 -1</clus>
<clus scale="   78.536">  5  6 -1 -1</clus>
<clus scale="   79.344">  7  8 -1 -1</clus>
<clus scale="  150.029">  2  5  1 -1</clus>
<clus scale="   23.941">  1  5  2 -1</clus>
</clustering>
</event>
<event>
 9    1  0.5981539E-005  0.2208658E+03  0.7546771E-02  0.1133240E+00
          1   -1    0    0  502    0 -0.00000000000E+00  0.00000000000E+00  0.11521896261E+04  0.11521896261E+04  0.00000000000E+00 0. -1.
         21   -1    0    0  501  502  0.00000000000E+00 -0.00000000000E+00 -0.22971685671E+03  0.22971685671E+03  0.00000000000E+00 0. -1.
         23    2    1    2    0    0 -0.89711633141E+02 -0.19178544053E+03  0.99494430774E+03  0.10201999750E+04  0.77871568216E+02 0.  0.
        -24    2    1    2    0    0  0.13920537020E+03  0.12657388697E+03  0.54350263701E+02  0.21075636315E+03  0.77879454861E+02 0.  0.
         13    1    4    4    0    0  0.58424362133E+02  0.10467775561E+03  0.34378467390E+02  0.12471053536E+03  0.00000000000E+00 0. -1.
        -14    1    4    4    0    0  0.80781008065E+02  0.21896131367E+02  0.19971796311E+02  0.86045827794E+02  0.00000000000E+00 0.  1.
        -11    1    3    3    0    0 -0.75346535316E+02 -0.10093752290E+03  0.43955583748E+03  0.45724699909E+03  0.00000000000E+00 0.  1.
         11    1    3    3    0    0 -0.14365097825E+02 -0.90847917633E+02  0.55538847026E+03  0.56295297589E+03  0.00000000000E+00 0. -1.
          2    1    1    2  501    0 -0.49493737057E+02  0.65211553557E+02 -0.12682180200E+03  0.15095014471E+03  0.00000000000E+00 0. -1.
<scales pt_clust_5="13000.00000" pt_clust_6="13000.00000" pt_clust_7="13000.00000" pt_clust_8="13000.00000" pt_clust_9="81.86682"></scales>
<clustering>
<clus scale="   77.872">  7  8 -1 -1</clus>
<clus scale="   77.879">  5  6 -1 -1</clus>
<clus scale="   81.867">  2  9  1 -1</clus>
<clus scale="  220.863">  1  7  2 -1</clus>
<clus scale="   81.867">  2  5  1 -1</clus>
</clustering>
</event>
<event>
 9    1  0.5981539E-005  0.1226953E+03  0.7546771E-02  0.1242416E+00
         -4   -1    0    0    0  501 -0.00000000000E+00  0.00000000000E+00  0.67351434622E+03  0.67351434622E+03  0.00000000000E+00 0.  1.
         21   -1    0    0  501  502  0.00000000000E+00 -0.00000000000E+00 -0.94739803277E+02  0.94739803277E+02  0.00000000000E+00 0.  1.
        -24    2    1    2    0    0 -0.23932350064E+02 -0.72982115228E+02  0.41818872295E+03  0.43276146183E+03  0.80632055157E+02 0.  0.
         23    2    1    2    0    0  0.98652766732E+02  0.55179992374E+02  0.20111314593E+03  0.24864500265E+03  0.92739635185E+02 0.  0.
         11    1    3    3    0    0 -0.29250869514E+02  0.75286158051E+01  0.13236610750E+03  0.13576847881E+03  0.00000000000E+00 0. -1.
        -12    1    3    3    0    0  0.53185194500E+01 -0.80510731033E+02  0.28582261545E+03  0.29699298302E+03  0.00000000000E+00 0.  1.
        -11    1    4    4    0    0  0.58417992275E+02  0.15755152253E+01  0.31761955420E+02  0.66512900115E+02  0.00000000000E+00 0.  1.
         11    1    4    4    0    0  0.40234774458E+02  0.53604477149E+02  0.16935119051E+03  0.18213210254E+03  0.00000000000E+00 0. -1.
         -3    1    1    2    0  502 -0.74720416668E+02  0.17802122854E+02 -0.40527325939E+02  0.86847685018E+02  0.00000000000E+00 0.  1.
<scales pt_clust_5="13000.00000" pt_clust_6="13000.00000" pt_clust_7="13000.00000" pt_clust_8="13000.00000" pt_clust_9="76.81182"></scales>
<clustering>
<clus scale="   76.812">  2  9  1 -1</clus>
<clus scale="   80.632">  5  6 -1 -1</clus>
<clus scale="   92.740">  7  8 -1 -1</clus>
<clus scale="  113.820">  1  5  2 -1</clus>
<clus scale="   76.812">  2  5  1 -1</clus>
</clustering>
</event>
<event>
 9    1  0.5981539E-005  0.1226013E+03  0.7546771E-02  0.1240004E+00
         -2   -1    0    0    0  501 -0.00000000000E+00  0.00000000000E+00  0.52397328220E+03  0.52397328220E+03  0.00000000000E+00 0.  1.
         21   -1    0    0  501  502  0.00000000000E+00 -0.00000000000E+00 -0.13009960766E+03  0.13009960766E+03  0.00000000000E+00 0.  1.
        -24    2    1    2    0    0 -0.68829315903E+02  0.31954329525E+02  0.14454329326E+03  0.18326385102E+03  0.83272573871E+02 0.  0.
         23    2    1    2    0    0  0.14802620027E+03 -0.11751832977E+02 -0.34319955213E+02  0.17561791304E+03  0.87257839249E+02 0.  0.
         11    1    3    3    0    0 -0.10074240758E+02  0.48218326298E+02  0.46066276072E+02  0.67443302921E+02  0.00000000000E+00 0. -1.
        -12    1    3    3    0    0 -0.58755075146E+02 -0.16263996772E+02  0.98477017192E+02  0.11582054810E+03  0.00000000000E+00 0.  1.
        -13    1    4    4    0    0  0.56480654216E+02  0.15568885570E+02 -0.52147361906E+02  0.78433423057E+02  0.00000000000E+00 0.  1.
         13    1    4    4    0    0  0.91545546049E+02 -0.27320718547E+02  0.17827406693E+02  0.97184489980E+02  0.00000000000E+00 0. -1.
         -1    1    1    2    0  502 -0.79196884362E+02 -0.20202496548E+02  0.28365033650E+03  0.29519112580E+03  0.00000000000E+00 0.  1.
<scales pt_clust_5="13000.00000" pt_clust_6="13000.00000" pt_clust_7="13000.00000" pt_clust_8="13000.00000" pt_clust_9="81.73307"></scales>
<clustering>
<clus scale="   81.733">  2  9  1 -1</clus>
<clus scale="   83.273">  5  6 -1 -1</clus>
<clus scale="   87.258">  7  8 -1 -1</clus>
<clus scale="  119.798">  1  5  2 -1</clus>
<clus scale="   81.733">  2  5  1 -1</clus>
</clustering>
</event>
<event>
 9    1  0.5981539E-005  0.1232341E+03  0.7546771E-02  0.1241002E+00
         21   -1    0    0  501  502  0.00000000000E+00  0.00000000000E+00  0.12471709998E+03  0.12471709998E+03  0.00000000000E+00 0. -1.
          1   -1    0    0  502    0 -0.00000000000E+00 -0.00000000000E+00 -0.31560177387E+03  0.31560177387E+03  0.00000000000E+00 0. -1.
        -24    2    1    2    0    0 -0.36344026655E+02 -0.71824888588E+02 -0.15316547733E+03  0.19119872704E+03  0.81348551811E+02 0.  0.
         23    2    1    2    0    0  0.56559419903E+02  0.64865236212E+02 -0.11403951030E+03  0.16986177706E+03  0.91877889329E+02 0.  0.
         13    1    3    3    0    0 -0.57037689280E+02 -0.47255532844E+02 -0.13578897032E+03  0.15467717299E+03  0.00000000000E+00 0. -1.
        -14    1    3    3    0    0  0.20693662624E+02 -0.24569355744E+02 -0.17376507009E+02  0.36521554052E+02  0.00000000000E+00 0.  1.
        -11    1    4    4    0    0  0.81474241651E+02  0.56645482882E+02 -0.84307881790E+02  0.13020976045E+03  0.00000000000E+00 0.  1.
         11    1    4    4    0    0 -0.24914821748E+02  0.82197533302E+01 -0.29731628515E+02  0.39652016616E+02  0.00000000000E+00 0. -1.
          2    1    1    2  501    0 -0.20215393248E+02  0.69596523761E+01  0.76320313746E+02  0.79258369752E+02  0.00000000000E+00 0. -1.
<scales pt_clust_5="13000.00000" pt_clust_6="13000.00000" pt_clust_7="13000.00000" pt_clust_8="13000.00000" pt_clust_9="21.37987"></scales>
<clustering>
<clus scale="   21.380">  1  9  2 -1</clus>
<clus scale="   81.349">  5  6 -1 -1</clus>
<clus scale="   91.878">  7  8 -1 -1</clus>
<clus scale="  115.597">  2  5  1 -1</clus>
<clus scale="   21.380">  1  5  2 -1</clus>
</clustering>
</event>
<event>
 9    1  0.5981539E-005  0.1625232E+03  0.7546771E-02  0.1213042E+00
         21   -1    0    0  501  502  0.00000000000E+00  0.00000000000E+00  0.50104517684E+02  0.50104517684E+02  0.00000000000E+00 0.  1.
          1   -1    0    0  502    0 -0.00000000000E+00 -0.00000000000E+00 -0.98393356730E+03  0.98393356730E+03  0.00000000000E+00 0. -1.
        -24    2    1    2    0    0  0.66992450519E+01 -0.38420139226E+02 -0.23979194033E+03  0.25613771717E+03  0.81150283590E+02 0.  0.
         23    2    1    2    0    0  0.10687165505E+03  0.10486290210E+03 -0.57267066707E+03  0.59889533050E+03  0.91138055098E+02 0.  0.
         13    1    3    3    0    0  0.18492078947E+02 -0.57256144390E+02 -0.21296630762E+03  0.22130266884E+03  0.00000000000E+00 0. -1.
        -14    1    3    3    0    0 -0.11792833895E+02  0.18836005164E+02 -0.26825632709E+02  0.34835048328E+02  0.00000000000E+00 0.  1.
        -13    1    4    4    0    0  0.11324512275E+03  0.58518145296E+02 -0.38858878630E+03  0.40896219385E+03  0.00000000000E+00 0.  1.
         13    1    4    4    0    0 -0.63734677014E+01  0.46344756801E+02 -0.18408188077E+03  0.18993313666E+03  0.00000000000E+00 0. -1.
          2    1    1    2  501    0 -0.11357090010E+03 -0.66442762871E+02 -0.12136644221E+03  0.17900503731E+03  0.00000000000E+00 0. -1.
<scales pt_clust_5="13000.00000" pt_clust_6="13000.00000" pt_clust_7="13000.00000" pt_clust_8="13000.00000" pt_clust_9="134.56470"></scales>
<clustering>
<clus scale="   81.150">  5  6 -1 -1</clus>
<clus scale="   90.035">  2  5  1 -1</clus>
<clus scale="   91.138">  7  8 -1 -1</clus>
<clus scale="  134.565">  1  9  2 -1</clus>
<clus scale="  134.565">  1  5  2 -1</clus>
</clustering>
</event>
<event>
 9    1  0.5981539E-005  0.1091362E+03  0.7546771E-02  0.1267044E+00
         21   -1    0    0  501  502  0.00000000000E+00  0.00000000000E+00  0.84788847435E+02  0.84788847435E+02  0.00000000000E+00 0. -1.
          1   -1    0    0  502    0 -0.00000000000E+00 -0.00000000000E+00 -0.22859307480E+03  0.22859307480E+03  0.00000000000E+00 0. -1.
        -24    2    1    2    0    0 -0.27091735722E+02 -0.57352851394E+02 -0.50081994622E+02  0.11421030766E+03  0.80699916245E+02 0.  0.
         23    2    1    2    0    0 -0.33920139382E+02  0.58194463434E+02 -0.56265924212E+02  0.12757460163E+03  0.92586464038E+02 0.  0.
         11    1    3    3    0    0 -0.22891311686E+02 -0.54304833016E+02 -0.71222096152E+02  0.92442490338E+02  0.00000000000E+00 0. -1.
        -12    1    3    3    0    0 -0.42004240360E+01 -0.30480183779E+01  0.21140101529E+02  0.21767817318E+02  0.00000000000E+00 0.  1.
        -13    1    4    4    0    0 -0.24164213922E+02  0.76505987485E+02 -0.15332860738E+02  0.81683364120E+02  0.00000000000E+00 0. -1.
         13    1    4    4    0    0 -0.97559254599E+01 -0.18311524051E+02 -0.40933063474E+02  0.45891237508E+02  0.00000000000E+00 0.  1.
          2    1    1    2  501    0  0.61011875104E+02 -0.84161204041E+00 -0.37456308529E+02  0.71597012948E+02  0.00000000000E+00 0. -1.
<scales pt_clust_5="13000.00000" pt_clust_6="13000.00000" pt_clust_7="13000.00000" pt_clust_8="13000.00000" pt_clust_9="61.01771"></scales>
<clustering>
<clus scale="   61.018">  1  9  2 -1</clus>
<clus scale="   80.700">  5  6 -1 -1</clus>
<clus scale="   92.586">  7  8 -1 -1</clus>
<clus scale="   99.252">  2  5  1 -1</clus>
<clus scale="   61.018">  1  5  2 -1</clus>
</clustering>
</event>
<event>
 9    1  0.5981539E-005  0.1541142E+03  0.7546771E-02  0.1196686E+00
          1   -1    0    0  502    0 -0.00000000000E+00  0.00000000000E+00  0.60856446606E+03  0.60856446606E+03  0.00000000000E+00 0. -1.
         21   -1    0    0  501  502  0.00000000000E+00 -0.00000000000E+00 -0.48344649576E+02  0.48344649576E+02  0.00000000000E+00 0.  1.
        -24    2    1    2    0    0  0.38880516953E+02  0.11284464014E+03  0.31140356673E+03  0.34310368227E+03  0.80637137898E+02 0.  0.
         23    2    1    2    0    0 -0.54425676940E+02 -0.12756298601E+03  0.23979900692E+03  0.29057630569E+03  0.87730017678E+02 0.  0.
         13    1    3    3    0    0  0.36231902649E+02  0.89088747956E+02  0.30278845887E+03  0.31769546205E+03  0.00000000000E+00 0. -1.
        -14    1    3    3    0    0  0.26486143034E+01  0.23755892188E+02  0.86151078593E+01  0.25408220221E+02  0.00000000000E+00 0.  1.
        -13    1    4    4    0    0 -0.68124440034E+01 -0.10733024005E+03  0.19237051976E+03  0.22039193882E+03  0.00000000000E+00 0. -1.
         13    1    4    4    0    0 -0.47613232936E+02 -0.20232745954E+02  0.47428487157E+02  0.70184366874E+02  0.00000000000E+00 0.  1.
          2    1    1    2  501    0  0.15545159987E+02  0.14718345862E+02  0.90172428299E+01  0.23229127667E+02  0.00000000000E+00 0. -1.
<scales pt_clust_5="13000.00000" pt_clust_6="13000.00000" pt_clust_7="13000.00000" pt_clust_8="13000.00000" pt_clust_9="21.40752"></scales>
<clustering>
<clus scale="   21.408">  2  9  1 -1</clus>
<clus scale="   80.637">  5  6 -1 -1</clus>
<clus scale="   87.730">  7  8 -1 -1</clus>
<clus scale="  150.190">  1  5  2 -1</clus>
<clus scale="   21.408">  2  5  1 -1</clus>
</clustering>
</event>
<event>
 9    1  0.5981539E-005  0.9872691E+02  0.7546771E-02  0.1286971E+00
          1   -1    0    0  502    0 -0.00000000000E+00  0.00000000000E+00  0.56521126995E+03  0.56521126995E+03  0.00000000000E+00 0. -1.
         21   -1    0    0  501  502  0.00000000000E+00 -0.00000000000E+00 -0.37437449608E+02  0.37437449608E+02  0.00000000000E+00 0. -1.
         23    2    1    2    0    0 -0.14618523537E+02  0.45670543588E+02  0.23345719874E+03  0.25441985433E+03  0.89037626020E+02 0.  0.
        -24    2    1    2    0    0 -0.55185881878E+02 -0.33895649269E+02  0.11208760848E+03  0.15273278759E+03  0.81051069288E+02 0.  0.
         13    1    4    4    0    0 -0.48855108530E+02 -0.88391868242E+00  0.16767985407E+02  0.51660122690E+02  0.00000000000E+00 0. -1.
        -14    1    4    4    0    0 -0.63307733482E+01 -0.33011730586E+02  0.95319623075E+02  0.10107266490E+03  0.00000000000E+00 0.  1.
        -11    1    3    3    0    0  0.19165651563E+02  0.56180344918E+02  0.18588619654E+03  0.19513388076E+03  0.00000000000E+00 0.  1.
         11    1    3    3    0    0 -0.33784175100E+02 -0.10509801331E+02  0.47571002203E+02  0.59285973567E+02  0.00000000000E+00 0. -1.
          2    1    1    2  501    0  0.69804405415E+02 -0.11774894319E+02  0.18222901311E+03  0.19549607764E+03  0.00000000000E+00 0. -1.
<scales pt_clust_5="13000.00000" pt_clust_6="13000.00000" pt_clust_7="13000.00000" pt_clust_8="13000.00000" pt_clust_9="70.79059"></scales>
<clustering>
<clus scale="   70.791">  2  9  1 -1</clus>
<clus scale="   81.051">  5  6 -1 -1</clus>
<clus scale="   89.038">  7  8 -1 -1</clus>
<clus scale="   91.589">  2  5  1 -1</clus>
<clus scale="   70.791">  2  5  1 -1</clus>
</clustering>
</event>
<event>
 9    1  0.5981539E-005  0.1284700E+03  0.7546771E-02  0.1250295E+00
          1   -1    0    0  502    0 -0.00000000000E+00  0.00000000000E+00  0.37456215951E+03  0.37456215951E+03  0.00000000000E+00 0. -1.
         21   -1    0    0  501  502  0.00000000000E+00 -0.00000000000E+00 -0.28304133543E+03  0.28304133543E+03  0.00000000000E+00 0. -1.
        -24    2    1    2    0    0  0.27456948793E+02 -0.25534543324E+01  0.30221132726E+03  0.31383780659E+03  0.80012988639E+02 0.  0.
         23    2    1    2    0    0 -0.11533929219E+03 -0.14833401356E+02 -0.21513006803E+03  0.25406998740E+03  0.68901598005E+02 0.  0.
         11    1    3    3    0    0  0.27503930437E+02 -0.32267826503E+02  0.25160697673E+03  0.25515436417E+03  0.00000000000E+00 0. -1.
        -12    1    3    3    0    0 -0.46981643907E-01  0.29714372171E+02  0.50604350532E+02  0.58683442414E+02  0.00000000000E+00 0.  1.
        -13    1    4    4    0    0 -0.49853057153E+02 -0.28708985671E+02 -0.51252009181E+02  0.77047398468E+02  0.00000000000E+00 0. -1.
         13    1    4    4    0    0 -0.65486235041E+02  0.13875584315E+02 -0.16387805885E+03  0.17702258893E+03  0.00000000000E+00 0.  1.
          2    1    1    2  501    0  0.87882343401E+02  0.17386855688E+02  0.44395648524E+01  0.89695700948E+02  0.00000000000E+00 0. -1.
<scales pt_clust_5="13000.00000" pt_clust_6="13000.00000" pt_clust_7="13000.00000" pt_clust_8="13000.00000" pt_clust_9="108.43025"></scales>
<clustering>
<clus scale="   68.902">  7  8 -1 -1</clus>
<clus scale="   80.013">  5  6 -1 -1</clus>
<clus scale="   84.631">  1  5  2 -1</clus>
<clus scale="  108.430">  2  9  1 -1</clus>
<clus scale="  108.430">  2  5  1 -1</clus>
</clustering>
</event>
<event>
 9    1  0.5981539E-005  0.2295908E+03  0.7546771E-02  0.1127707E+00
         -2   -1    0    0    0  501 -0.00000000000E+00  0.00000000000E+00  0.65116322386E+03  0.65116322386E+03  0.00000000000E+00 0.  1.
         21   -1    0    0  501  502  0.00000000000E+00 -0.00000000000E+00 -0.11899198871E+03  0.11899198871E+03  0.00000000000E+00 0.  1.
         23    2    1    2    0    0 -0.75496178776E+00  0.23655694060E+03  0.28264178790E+03  0.37953855515E+03  0.90572503904E+02 0.  0.
        -24    2    1    2    0    0  0.80483375140E+01 -0.17637287838E+03  0.77666379884E+02  0.20837443236E+03  0.78839517564E+02 0.  0.
         11    1    4    4    0    0  0.40708101244E+02 -0.13273993399E+03  0.54589547007E+02  0.14918799625E+03  0.00000000000E+00 0. -1.
        -12    1    4    4    0    0 -0.32659763730E+02 -0.43632944388E+02  0.23076832878E+02  0.59186436103E+02  0.00000000000E+00 0.  1.
        -13    1    3    3    0    0 -0.66180597167E+01  0.62244460960E+02  0.14304455822E+03  0.15614069703E+03  0.00000000000E+00 0. -1.
         13    1    3    3    0    0  0.58630979290E+01  0.17431247964E+03  0.13959722969E+03  0.22339785812E+03  0.00000000000E+00 0.  1.
         -1    1    1    2    0  502 -0.72933757263E+01 -0.60184062216E+02  0.17186306736E+03  0.18224222507E+03  0.00000000000E+00 0.  1.
<scales pt_clust_5="13000.00000" pt_clust_6="13000.00000" pt_clust_7="13000.00000" pt_clust_8="13000.00000" pt_clust_9="60.62440"></scales>
<clustering>
<clus scale="   60.624">  2  9  1 -1</clus>
<clus scale="   78.840">  5  6 -1 -1</clus>
<clus scale="   90.573">  7  8 -1 -1</clus>
<clus scale="  225.220">  2  5  1 -1</clus>
<clus scale="   60.624">  2  5  1 -1</clus>
</clustering>
</event>
<event>
 9    1  0.5981539E-005  0.1187634E+03  0.7546771E-02  0.1248153E+00
         21   -1    0    0  501  502  0.00000000000E+00  0.00000000000E+00  0.84333984896E+02  0.84333984896E+02  0.00000000000E+00 0.  1.
          1   -1    0    0  502    0 -0.00000000000E+00 -0.00000000000E+00 -0.30509741882E+03  0.30509741882E+03  0.00000000000E+00 0. -1.
        -24    2    1    2    0    0  0.81167411711E+02  0.42275140211E+02 -0.19678977211E+03  0.23176084312E+03  0.81311363266E+02 0.  0.
         23    2    1    2    0    0 -0.26291414455E+02 -0.32960590264E+02 -0.11403422482E+02  0.10060790352E+03  0.90632627794E+02 0.  0.
         11    1    3    3    0    0  0.92971690662E+02  0.23330410958E+02 -0.17963339392E+03  0.20360795552E+03  0.00000000000E+00 0. -1.
        -12    1    3    3    0    0 -0.11804278951E+02  0.18944729253E+02 -0.17156378190E+02  0.28152887607E+02  0.00000000000E+00 0.  1.
        -13    1    4    4    0    0 -0.19016568893E+01  0.30529164018E+02  0.40664449679E+01  0.30857448521E+02  0.00000000000E+00 0.  1.
         13    1    4    4    0    0 -0.24389757566E+02 -0.63489754282E+02 -0.15469867450E+02  0.69750454994E+02  0.00000000000E+00 0. -1.
          2    1    1    2  501    0 -0.54875997256E+02 -0.93145499467E+01 -0.12570239334E+02  0.57062657075E+02  0.00000000000E+00 0. -1.
<scales pt_clust_5="13000.00000" pt_clust_6="13000.00000" pt_clust_7="13000.00000" pt_clust_8="13000.00000" pt_clust_9="55.66090"></scales>
<clustering>
<clus scale="   55.661">  1  9  2 -1</clus>
<clus scale="   81.311">  5  6 -1 -1</clus>
<clus scale="   90.633">  7  8 -1 -1</clus>
<clus scale="  111.812">  2  5  1 -1</clus>
<clus scale="   55.661">  1  5  2 -1</clus>
</clustering>
</event>
<event>
 9    1  0.5981539E-005  0.1558027E+03  0.7546771E-02  0.1195347E+00
          1   -1    0    0  502    0 -0.00000000000E+00  0.00000000000E+00  0.24661615631E+03  0.24661615631E+03  0.00000000000E+00 0. -1.
         21   -1    0    0  501  502  0.00000000000E+00 -0.00000000000E+00 -0.14274463824E+03  0.14274463824E+03  0.00000000000E+00 0. -1.
        -24    2    1    2    0    0  0.13236524736E+03 -0.21574499643E+02  0.11522581071E+03  0.19425596406E+03  0.80451068216E+02 0.  0.
         23    2    1    2    0    0 -0.10992406634E+03 -0.10648847594E+02 -0.37238033800E+02  0.14807379001E+03  0.91337165538E+02 0.  0.
         11    1    3    3    0    0  0.12262551161E+03 -0.16959986082E+01  0.12003302150E+03  0.17160366768E+03  0.00000000000E+00 0. -1.
        -12    1    3    3    0    0  0.97397357509E+01 -0.19878501035E+02 -0.48072107970E+01  0.22652296385E+02  0.00000000000E+00 0.  1.
        -13    1    4    4    0    0 -0.31388610781E+01 -0.28185785826E+02  0.98985616138E+01  0.30037851014E+02  0.00000000000E+00 0.  1.
         13    1    4    4    0    0 -0.10678520527E+03  0.17536938232E+02 -0.47136595413E+02  0.11803593899E+03  0.00000000000E+00 0. -1.
          2    1    1    2  501    0 -0.22441181018E+02  0.32223347237E+02  0.25883741157E+02  0.47031040483E+02  0.00000000000E+00 0. -1.
<scales pt_clust_5="13000.00000" pt_clust_6="13000.00000" pt_clust_7="13000.00000" pt_clust_8="13000.00000" pt_clust_9="39.26770"></scales>
<clustering>
<clus scale="   39.268">  2  9  1 -1</clus>
<clus scale="   80.451">  5  6 -1 -1</clus>
<clus scale="   91.337">  7  8 -1 -1</clus>
<clus scale="  149.681">  1  5  2 -1</clus>
<clus scale="   39.268">  2  5  1 -1</clus>
</clustering>
</event>
<event>
 9    1  0.5981539E-005  0.3935217E+03  0.7546771E-02  0.1093161E+00
          1   -1    0    0  502    0 -0.00000000000E+00  0.00000000000E+00  0.62614961328E+03  0.62614961328E+03  0.00000000000E+00 0. -1.
         21   -1    0    0  501  502  0.00000000000E+00 -0.00000000000E+00 -0.64982315463E+03  0.64982315463E+03  0.00000000000E+00 0. -1.
        -24    2    1    2    0    0 -0.16924484278E+02  0.69294702557E+02  0.97161827988E+02  0.14510531000E+03  0.80789456000E+02 0.  0.
         23    2    1    2    0    0  0.21404007891E+03  0.26695905959E+03  0.36467146821E+03  0.50826161187E+03  0.90908148723E+02 0.  0.
         13    1    3    3    0    0  0.21842070713E+02 -0.38860623839E+01  0.35475437209E+02  0.41841178032E+02  0.00000000000E+00 0. -1.
        -14    1    3    3    0    0 -0.38766554991E+02  0.73180764941E+02  0.61686390779E+02  0.10326413197E+03  0.00000000000E+00 0.  1.
        -11    1    4    4    0    0 -0.50667618751E+01  0.19508824674E+02  0.71854947833E+01  0.21398543206E+02  0.00000000000E+00 0.  1.
         11    1    4    4    0    0  0.21910684078E+03  0.24745023492E+03  0.35748597342E+03  0.48686306867E+03  0.00000000000E+00 0. -1.
          2    1    1    2  501    0 -0.19711559463E+03 -0.33625376215E+03 -0.48550683755E+03  0.62260584603E+03  0.00000000000E+00 0. -1.
<scales pt_clust_5="13000.00000" pt_clust_6="13000.00000" pt_clust_7="13000.00000" pt_clust_8="13000.00000" pt_clust_9="382.87731"></scales>
<clustering>
<clus scale="   80.789">  5  6 -1 -1</clus>
<clus scale="   90.908">  7  8 -1 -1</clus>
<clus scale="  107.774">  1  5  2 -1</clus>
<clus scale="  382.877">  2  9  1 -1</clus>
<clus scale="  382.877">  2  5  1 -1</clus>
</clustering>
</event>
<event>
 9    1  0.5981539E-005  0.1156983E+03  0.7546771E-02  0.1251158E+00
         21   -1    0    0  501  502  0.00000000000E+00  0.00000000000E+00  0.28806314890E+03  0.28806314890E+03  0.00000000000E+00 0.  1.
          3   -1    0    0  502    0 -0.00000000000E+00 -0.00000000000E+00 -0.13980782001E+03  0.13980782001E+03  0.00000000000E+00 0. -1.
         23    2    1    2    0    0 -0.77316956958E+02 -0.10682458026E+02 -0.90974387309E+02  0.14702864824E+03  0.85141397177E+02 0.  0.
        -24    2    1    2    0    0  0.82248228863E+02 -0.12895492521E+02  0.16253658493E+03  0.20045529698E+03  0.82662686677E+02 0.  0.
         11    1    4    4    0    0  0.29892823861E+02  0.34840825650E+02  0.54490652397E+02  0.71250931566E+02  0.00000000000E+00 0. -1.
        -12    1    4    4    0    0  0.52355405002E+02 -0.47736318171E+02  0.10804593253E+03  0.12920436541E+03  0.00000000000E+00 0.  1.
        -13    1    3    3    0    0 -0.41223402791E+02  0.75686311921E+01 -0.97437959801E+02  0.10606983137E+03  0.00000000000E+00 0. -1.
         13    1    3    3    0    0 -0.36093554168E+02 -0.18251089218E+02  0.64635724921E+01  0.40958816871E+02  0.00000000000E+00 0.  1.
          4    1    1    2  501    0 -0.49312719051E+01  0.23577950546E+02  0.76693131270E+02  0.80387023695E+02  0.00000000000E+00 0. -1.
<scales pt_clust_5="13000.00000" pt_clust_6="13000.00000" pt_clust_7="13000.00000" pt_clust_8="13000.00000" pt_clust_9="24.08811"></scales>
<clustering>
<clus scale="   24.088">  1  9  2 -1</clus>
<clus scale="   82.663">  5  6 -1 -1</clus>
<clus scale="   85.141">  7  8 -1 -1</clus>
<clus scale="  113.887">  1  5  2 -1</clus>
<clus scale="   24.088">  1  5  2 -1</clus>
</clustering>
</event>
<event>
 9    1  0.5981539E-005  0.1650853E+03  0.7546771E-02  0.1184503E+00
          1   -1    0    0  502    0 -0.00000000000E+00  0.00000000000E+00  0.47772908058E+03  0.47772908058E+03  0.00000000000E+00 0. -1.
         21   -1    0    0  501  502  0.00000000000E+00 -0.00000000000E+00 -0.79450547363E+02  0.79450547363E+02  0.00000000000E+00 0.  1.
         23    2    1    2    0    0  0.13645899950E+03 -0.47065748830E+02  0.14803243420E+03  0.22631448187E+03  0.92023909250E+02 0.  0.
        -24    2    1    2    0    0 -0.12857786975E+03  0.22894896482E+02  0.11311108243E+03  0.19139344613E+03  0.82346155828E+02 0.  0.
         13    1    4    4    0    0 -0.11236163733E+03  0.19866975325E+02  0.12634575496E+03  0.17024418947E+03  0.00000000000E+00 0. -1.
        -14    1    4    4    0    0 -0.16216232414E+02  0.30279211575E+01 -0.13234672530E+02  0.21149256659E+02  0.00000000000E+00 0.  1.
        -13    1    3    3    0    0  0.60232477425E+02  0.20680842031E+02  0.30207353819E+02  0.70484982717E+02  0.00000000000E+00 0.  1.
         13    1    3    3    0    0  0.76226522072E+02 -0.67746590861E+02  0.11782508038E+03  0.15582949916E+03  0.00000000000E+00 0. -1.
          2    1    1    2  501    0 -0.78811297505E+01  0.24170852347E+02  0.13713501660E+03  0.13947169995E+03  0.00000000000E+00 0. -1.
<scales pt_clust_5="13000.00000" pt_clust_6="13000.00000" pt_clust_7="13000.00000" pt_clust_8="13000.00000" pt_clust_9="25.42328"></scales>
<clustering>
<clus scale="   25.423">  2  9  1 -1</clus>
<clus scale="   82.346">  5  6 -1 -1</clus>
<clus scale="   92.024">  7  8 -1 -1</clus>
<clus scale="  159.893">  2  5  1 -1</clus>
<clus scale="   25.423">  2  5  1 -1</clus>
</clustering>
</event>
<event>
 9    1  0.5981539E-005  0.1028714E+03  0.7546771E-02  0.1278570E+00
          1   -1    0    0  502    0 -0.00000000000E+00  0.00000000000E+00  0.21110929203E+03  0.21110929203E+03  0.00000000000E+00 0. -1.
         21   -1    0    0  501  502  0.00000000000E+00 -0.00000000000E+00 -0.16267764751E+03  0.16267764751E+03  0.00000000000E+00 0. -1.
        -24    2    1    2    0    0 -0.46429749235E+02  0.43418969776E+02  0.10908252036E+03  0.15038163291E+03  0.81698902789E+02 0.  0.
         23    2    1    2    0    0  0.78786819979E+01  0.47139593384E+02 -0.70485757650E+02  0.12449240026E+03  0.90806942441E+02 0.  0.
         11    1    3    3    0    0 -0.68554796127E+02  0.21652184721E+02  0.68602886697E+02  0.99372698657E+02  0.00000000000E+00 0. -1.
        -12    1    3    3    0    0  0.22125046893E+02  0.21766785055E+02  0.40479633667E+02  0.51008934251E+02  0.00000000000E+00 0.  1.
        -11    1    4    4    0    0  0.21874906087E+02  0.66504121511E+02 -0.72160403210E+02  0.10054070562E+03  0.00000000000E+00 0. -1.
         11    1    4    4    0    0 -0.13996224090E+02 -0.19364528128E+02  0.16746455598E+01  0.23951694640E+02  0.00000000000E+00 0.  1.
          2    1    1    2  501    0  0.38551067237E+02 -0.90558563160E+02  0.98348818117E+01  0.98912906372E+02  0.00000000000E+00 0. -1.
<scales pt_clust_5="13000.00000" pt_clust_6="13000.00000" pt_clust_7="13000.00000" pt_clust_8="13000.00000" pt_clust_9="98.42275"></scales>
<clustering>
<clus scale="   81.699">  5  6 -1 -1</clus>
<clus scale="   90.807">  7  8 -1 -1</clus>
<clus scale="   98.423">  2  9  1 -1</clus>
<clus scale="   94.928">  1  5  2 -1</clus>
<clus scale="   98.423">  2  5  1 -1</clus>
</clustering>
</event>
<event>
 9    1  0.5981539E-005  0.1276570E+03  0.7546771E-02  0.1234049E+00
         -2   -1    0    0    0  501 -0.00000000000E+00  0.00000000000E+00  0.29288061015E+03  0.29288061015E+03  0.00000000000E+00 0.  1.
         21   -1    0    0  501  502  0.00000000000E+00 -0.00000000000E+00 -0.12646104337E+03  0.12646104337E+03  0.00000000000E+00 0.  1.
         23    2    1    2    0    0  0.54680104433E+02 -0.83871822334E+02  0.21557770640E+03  0.25509429790E+03  0.92601063293E+02 0.  0.
        -24    2    1    2    0    0 -0.70680775018E+01  0.55646323993E+02 -0.17421384881E+02  0.10044449153E+03  0.81480796103E+02 0.  0.
         11    1    4    4    0    0 -0.44124588754E+02  0.25552963941E+02 -0.58393284401E+01  0.51322812233E+02  0.00000000000E+00 0. -1.
        -12    1    4    4    0    0  0.37056511252E+02  0.30093360052E+02 -0.11582056441E+02  0.49121679295E+02  0.00000000000E+00 0.  1.
        -13    1    3    3    0    0 -0.23195079547E+02 -0.31673383475E+02  0.39951499526E+02  0.56011938462E+02  0.00000000000E+00 0. -1.
         13    1    3    3    0    0  0.77875183980E+02 -0.52198438859E+02  0.17562620687E+03  0.19908235944E+03  0.00000000000E+00 0.  1.
         -1    1    1    2    0  502 -0.47612026931E+02  0.28225498341E+02 -0.31736754742E+02  0.63802864095E+02  0.00000000000E+00 0.  1.
<scales pt_clust_5="13000.00000" pt_clust_6="13000.00000" pt_clust_7="13000.00000" pt_clust_8="13000.00000" pt_clust_9="55.34965"></scales>
<clustering>
<clus scale="   55.350">  2  9  1 -1</clus>
<clus scale="   81.481">  5  6 -1 -1</clus>
<clus scale="   92.601">  7  8 -1 -1</clus>
<clus scale="  119.835">  2  5  1 -1</clus>
<clus scale="   55.350">  2  5  1 -1</clus>
</clustering>
</event>
<event>
 9    1  0.5981539E-005  0.3956014E+03  0.7546771E-02  0.1071272E+00
         21   -1    0    0  501  502  0.00000000000E+00  0.00000000000E+00  0.54300464283E+03  0.54300464283E+03  0.00000000000E+00 0.  1.
          1   -1    0    0  502    0 -0.00000000000E+00 -0.00000000000E+00 -0.69624102434E+03  0.69624102434E+03  0.00000000000E+00 0. -1.
         23    2    1    2    0    0  0.16634099150E+03  0.48123241437E+01  0.26982414853E+03  0.33049463613E+03  0.93429917388E+02 0.  0.
        -24    2    1    2    0    0 -0.40931477771E+03  0.19218616468E+03 -0.12474866541E+03  0.47650731049E+03  0.83802614984E+02 0.  0.
         11    1    4    4    0    0 -0.32018624855E+03  0.10973009110E+03 -0.91458372984E+02  0.35060599060E+03  0.00000000000E+00 0. -1.
        -12    1    4    4    0    0 -0.89128529166E+02  0.82456073576E+02 -0.33290292429E+02  0.12590131989E+03  0.00000000000E+00 0.  1.
        -13    1    3    3    0    0  0.10589705132E+03  0.40383600916E+02  0.11996043275E+03  0.16503189427E+03  0.00000000000E+00 0. -1.
         13    1    3    3    0    0  0.60443940178E+02 -0.35571276772E+02  0.14986371578E+03  0.16546274185E+03  0.00000000000E+00 0.  1.
          2    1    1    2  501    0  0.24297378622E+03 -0.19699848882E+03 -0.29831186462E+03  0.43224372056E+03  0.00000000000E+00 0. -1.
<scales pt_clust_5="13000.00000" pt_clust_6="13000.00000" pt_clust_7="13000.00000" pt_clust_8="13000.00000" pt_clust_9="386.62353"></scales>
<clustering>
<clus scale="   83.803">  5  6 -1 -1</clus>
<clus scale="   93.430">  7  8 -1 -1</clus>
<clus scale="  190.845">  2  7  1 -1</clus>
<clus scale="  386.624">  1  9  2 -1</clus>
<clus scale="  386.624">  1  5  2 -1</clus>
</clustering>
</event>
<event>
 9    1  0.5981539E-005  0.1016480E+03  0.7546771E-02  0.1281484E+00
          1   -1    0    0  502    0 -0.00000000000E+00  0.00000000000E+00  0.36738762489E+03  0.36738762489E+03  0.00000000000E+00 0. -1.
         21   -1    0    0  501  502  0.00000000000E+00 -0.00000000000E+00 -0.12436259417E+03  0.12436259417E+03  0.00000000000E+00 0. -1.
        -24    2    1    2    0    0  0.49444221511E+02  0.50932029125E+01  0.29891430180E+03  0.31339965486E+03  0.79993200256E+02 0.  0.
         23    2    1    2    0    0 -0.15443971900E+02 -0.55140315913E+02 -0.49682174035E+02  0.11752903392E+03  0.89809713783E+02 0.  0.
         11    1    3    3    0    0  0.17413502866E+02 -0.34279502236E+02  0.18077605778E+03  0.18481963484E+03  0.00000000000E+00 0. -1.
        -12    1    3    3    0    0  0.32030718645E+02  0.39372705148E+02  0.11813824402E+03  0.12858002002E+03  0.00000000000E+00 0.  1.
        -11    1    4    4    0    0 -0.47620531670E+02 -0.11571207395E+02 -0.38265907584E+02  0.62176262033E+02  0.00000000000E+00 0.  1.
         11    1    4    4    0    0  0.32176559770E+02 -0.43569108518E+02 -0.11416266451E+02  0.55352771885E+02  0.00000000000E+00 0. -1.
          2    1    1    2  501    0 -0.34000249610E+02  0.50047113000E+02 -0.62070970420E+01  0.60821530291E+02  0.00000000000E+00 0. -1.
<scales pt_clust_5="13000.00000" pt_clust_6="13000.00000" pt_clust_7="13000.00000" pt_clust_8="13000.00000" pt_clust_9="60.50397"></scales>
<clustering>
<clus scale="   60.504">  2  9  1 -1</clus>
<clus scale="   79.993">  5  6 -1 -1</clus>
<clus scale="   89.810">  7  8 -1 -1</clus>
<clus scale="   93.088">  1  5  2 -1</clus>
<clus scale="   60.504">  2  5  1 -1</clus>
</clustering>
</event>
<event>
 9    1  0.5981539E-005  0.1791109E+03  0.7546771E-02  0.1194683E+00
          3   -1    0    0  502    0 -0.00000000000E+00  0.00000000000E+00  0.41050331395E+03  0.41050331395E+03  0.00000000000E+00 0. -1.
         21   -1    0    0  501  502  0.00000000000E+00 -0.00000000000E+00 -0.17540599623E+03  0.17540599623E+03  0.00000000000E+00 0.  1.
        -24    2    1    2    0    0 -0.53807372044E+02  0.31521271139E+02 -0.52648604725E+02  0.11297989639E+03  0.78126548546E+02 0.  0.
         23    2    1    2    0    0  0.85914060064E+02 -0.15845059377E+03  0.49559803155E+02  0.20113073871E+03  0.74226569254E+02 0.  0.
         11    1    3    3    0    0  0.99324011088E+01  0.32725026113E+02 -0.79243266839E+01  0.35105197326E+02  0.00000000000E+00 0. -1.
        -12    1    3    3    0    0 -0.63739773153E+02 -0.12037549742E+01 -0.44724278041E+02  0.77874699062E+02  0.00000000000E+00 0.  1.
        -13    1    4    4    0    0  0.37810365954E+02 -0.37095465904E+02 -0.15616991104E+02  0.55223072853E+02  0.00000000000E+00 0.  1.
         13    1    4    4    0    0  0.48103694110E+02 -0.12135512786E+03  0.65176794259E+02  0.14590766586E+03  0.00000000000E+00 0. -1.
          4    1    1    2  501    0 -0.32106688020E+02  0.12692932263E+03  0.23818611928E+03  0.27179867509E+03  0.00000000000E+00 0. -1.
<scales pt_clust_5="13000.00000" pt_clust_6="13000.00000" pt_clust_7="13000.00000" pt_clust_8="13000.00000" pt_clust_9="163.00660"></scales>
<clustering>
<clus scale="   74.227">  7  8 -1 -1</clus>
<clus scale="   78.127">  5  6 -1 -1</clus>
<clus scale="   99.963">  1  5  2 -1</clus>
<clus scale="  163.007">  2  9  1 -1</clus>
<clus scale="  163.007">  2  5  1 -1</clus>
</clustering>
</event>
<event>
 9    1  0.5981539E-005  0.9554889E+02  0.7546771E-02  0.1295385E+00
         -2   -1    0    0    0  501 -0.00000000000E+00  0.00000000000E+00  0.73755354881E+03  0.73755354881E+03  0.00000000000E+00 0.  1.
         21   -1    0    0  501  502  0.00000000000E+00 -0.00000000000E+00 -0.12998182025E+03  0.12998182025E+03  0.00000000000E+00 0.  1.
        -24    2    1    2    0    0  0.48567635627E+01 -0.36454472202E+02  0.61869088566E+03  0.62443778474E+03  0.76102682704E+02 0.  0.
         23    2    1    2    0    0 -0.30010105642E+02  0.99973007350E+02  0.56642617490E+02  0.14687413072E+03  0.86419994910E+02 0.  0.
         11    1    3    3    0    0  0.24948816825E+02 -0.21936572627E+02  0.10458365715E+03  0.10973330407E+03  0.00000000000E+00 0. -1.
        -12    1    3    3    0    0 -0.20092053263E+02 -0.14517899575E+02  0.51410722852E+03  0.51470448067E+03  0.00000000000E+00 0.  1.
        -13    1    4    4    0    0  0.13256033247E+01  0.26625231852E+02  0.61434703582E+02  0.66969269068E+02  0.00000000000E+00 0. -1.
         13    1    4    4    0    0 -0.31335708967E+02  0.73347775498E+02 -0.47920860920E+01  0.79904861654E+02  0.00000000000E+00 0.  1.
         -1    1    1    2    0  502  0.25153342079E+02 -0.63518535148E+02 -0.67761774600E+02  0.96223453597E+02  0.00000000000E+00 0.  1.
<scales pt_clust_5="13000.00000" pt_clust_6="13000.00000" pt_clust_7="13000.00000" pt_clust_8="13000.00000" pt_clust_9="68.31760"></scales>
<clustering>
<clus scale="   68.318">  2  9  1 -1</clus>
<clus scale="   76.103">  5  6 -1 -1</clus>
<clus scale="   86.330">  1  5  2 -1</clus>
<clus scale="   86.420">  7  8 -1 -1</clus>
<clus scale="   68.318">  2  5  1 -1</clus>
</clustering>
</event>
<event>
 9    1  0.5981539E-005  0.9316189E+02  0.7546771E-02  0.1298646E+00
         21   -1    0    0  501  502  0.00000000000E+00  0.00000000000E+00  0.25138255780E+03  0.25138255780E+03  0.00000000000E+00 0. -1.
          1   -1    0    0  502    0 -0.00000000000E+00 -0.00000000000E+00 -0.87516304390E+02  0.87516304390E+02  0.00000000000E+00 0. -1.
         23    2    1    2    0    0  0.40895546525E+02 -0.16346334420E+02  0.27178134552E+02  0.10568551152E+03  0.92147316692E+02 0.  0.
        -24    2    1    2    0    0  0.44029178410E+02 -0.54497959289E+01  0.10178663101E+03  0.13884495523E+03  0.83361468993E+02 0.  0.
         13    1    4    4    0    0  0.64486295060E+02 -0.15139603071E+02  0.52199169671E+02  0.84335301897E+02  0.00000000000E+00 0. -1.
        -14    1    4    4    0    0 -0.20457116650E+02  0.96898071422E+01  0.49587461343E+02  0.54509653333E+02  0.00000000000E+00 0.  1.
        -11    1    3    3    0    0  0.69411759314E+02 -0.87552783161E+01  0.78293297954E+01  0.70398477501E+02  0.00000000000E+00 0. -1.
         11    1    3    3    0    0 -0.28516212788E+02 -0.75910561037E+01  0.19348804757E+02  0.35287034022E+02  0.00000000000E+00 0.  1.
          2    1    1    2  501    0 -0.84924724935E+02  0.21796130349E+02  0.34901487846E+02  0.94368395437E+02  0.00000000000E+00 0. -1.
<scales pt_clust_5="13000.00000" pt_clust_6="13000.00000" pt_clust_7="13000.00000" pt_clust_8="13000.00000" pt_clust_9="87.67718"></scales>
<clustering>
<clus scale="   83.361">  5  6 -1 -1</clus>
<clus scale="   87.677">  1  9  2 -1</clus>
<clus scale="   87.677">  1  5  2 -1</clus>
<clus scale="   92.147">  7  8 -1 -1</clus>
<clus scale="   87.677">  1  5  2 -1</clus>
</clustering>
</event>
<event>
 9    1  0.5981539E-005  0.9793824E+02  0.7546771E-02  0.1289393E+00
         -2   -1    0    0    0  501 -0.00000000000E+00  0.00000000000E+00  0.12774731190E+03  0.12774731190E+03  0.00000000000E+00 0.  1.
         21   -1    0    0  501  502  0.00000000000E+00 -0.00000000000E+00 -0.14116839905E+03  0.14116839905E+03  0.00000000000E+00 0.  1.
        -24    2    1    2    0    0  0.18968880873E+02  0.38835354445E+02  0.70189250165E+02  0.11596641396E+03  0.81570062722E+02 0.  0.
         23    2    1    2    0    0 -0.14011831029E+02 -0.14374320614E+02 -0.36664728854E+02  0.99781593701E+02  0.90604147795E+02 0.  0.
         13    1    3    3    0    0  0.31145568556E+02 -0.45909389202E+01 -0.12214059923E+01  0.31505793014E+02  0.00000000000E+00 0. -1.
        -14    1    3    3    0    0 -0.12176687683E+02  0.43426293365E+02  0.71410656158E+02  0.84460620950E+02  0.00000000000E+00 0.  1.
        -11    1    4    4    0    0 -0.13157288752E+02 -0.51562563402E+02 -0.10337730137E+02  0.54209601144E+02  0.00000000000E+00 0. -1.
         11    1    4    4    0    0 -0.85454227684E+00  0.37188242787E+02 -0.26326998717E+02  0.45571992556E+02  0.00000000000E+00 0.  1.
         -1    1    1    2    0  502 -0.49570498447E+01 -0.24461033831E+02 -0.46945608455E+02  0.53167703283E+02  0.00000000000E+00 0.  1.
<scales pt_clust_5="13000.00000" pt_clust_6="13000.00000" pt_clust_7="13000.00000" pt_clust_8="13000.00000" pt_clust_9="24.95826"></scales>
<clustering>
<clus scale="   24.958">  2  9  1 -1</clus>
<clus scale="   81.570">  5  6 -1 -1</clus>
<clus scale="   89.646">  1  5  2 -1</clus>
<clus scale="   90.604">  7  8 -1 -1</clus>
<clus scale="   24.958">  2  5  1 -1</clus>
</clustering>
</event>
<event>
 9    1  0.5981539E-005  0.1109859E+03  0.7546771E-02  0.1263298E+00
         21   -1    0    0  501  502  0.00000000000E+00  0.00000000000E+00  0.40476724325E+02  0.40476724325E+02  0.00000000000E+00 0.  1.
          1   -1    0    0  502    0 -0.00000000000E+00 -0.00000000000E+00 -0.36259845151E+03  0.36259845151E+03  0.00000000000E+00 0. -1.
         23    2    1    2    0    0 -0.84865376377E+01 -0.48486384554E+02 -0.14480538339E+03  0.17880778374E+03  0.92631925713E+02 0.  0.
        -24    2    1    2    0    0  0.21658127757E+02  0.69886000659E+02 -0.16016540387E+03  0.19384389630E+03  0.81051662233E+02 0.  0.
         11    1    4    4    0    0 -0.29716657671E+02  0.19976473663E+02 -0.70593097417E+02  0.79155067090E+02  0.00000000000E+00 0. -1.
        -12    1    4    4    0    0  0.51374785428E+02  0.49909526996E+02 -0.89572306450E+02  0.11468882921E+03  0.00000000000E+00 0.  1.
        -11    1    3    3    0    0 -0.31220862933E+02 -0.34818013872E+02 -0.14492193645E+03  0.15228067519E+03  0.00000000000E+00 0. -1.
         11    1    3    3    0    0  0.22734325295E+02 -0.13668370682E+02  0.11655305945E+00  0.26527108556E+02  0.00000000000E+00 0.  1.
          2    1    1    2  501    0 -0.13171590119E+02 -0.21399616105E+02 -0.17150939932E+02  0.30423495793E+02  0.00000000000E+00 0. -1.
<scales pt_clust_5="13000.00000" pt_clust_6="13000.00000" pt_clust_7="13000.00000" pt_clust_8="13000.00000" pt_clust_9="25.12836"></scales>
<clustering>
<clus scale="   25.128">  1  9  2 -1</clus>
<clus scale="   81.052">  5  6 -1 -1</clus>
<clus scale="   92.632">  7  8 -1 -1</clus>
<clus scale="  101.521">  1  5  2 -1</clus>
<clus scale="   25.128">  1  5  2 -1</clus>
</clustering>
</event>
<event>
 9    1  0.5981539E-005  0.1142581E+03  0.7546771E-02  0.1255980E+00
          1   -1    0    0  502    0 -0.00000000000E+00  0.00000000000E+00  0.65822258188E+03  0.65822258188E+03  0.00000000000E+00 0. -1.
         21   -1    0    0  501  502  0.00000000000E+00 -0.00000000000E+00 -0.29978313975E+02  0.29978313975E+02  0.00000000000E+00 0. -1.
        -24    2    1    2    0    0 -0.75553549455E+02  0.10764602808E+02  0.23987622867E+03  0.26489015201E+03  0.82474068888E+02 0.  0.
         23    2    1    2    0    0  0.60120665045E+02  0.23750132932E+02  0.18251178833E+03  0.21401134839E+03  0.91168751117E+02 0.  0.
         11    1    3    3    0    0 -0.82343937787E+02  0.11870338257E+02  0.24335345102E+03  0.25718151400E+03  0.00000000000E+00 0. -1.
        -12    1    3    3    0    0  0.67903883318E+01 -0.11057354490E+01 -0.34772223505E+01  0.77086380025E+01  0.00000000000E+00 0.  1.
        -11    1    4    4    0    0 -0.17946893359E+02 -0.12824841481E+02  0.18780441391E+02  0.28970200536E+02  0.00000000000E+00 0.  1.
         11    1    4    4    0    0  0.78067558404E+02  0.36574974412E+02  0.16373134694E+03  0.18504114786E+03  0.00000000000E+00 0. -1.
          2    1    1    2  501    0  0.15432884411E+02 -0.34514735740E+02  0.20585625090E+03  0.20929939546E+03  0.00000000000E+00 0. -1.
<scales pt_clust_5="13000.00000" pt_clust_6="13000.00000" pt_clust_7="13000.00000" pt_clust_8="13000.00000" pt_clust_9="37.80797"></scales>
<clustering>
<clus scale="   37.808">  2  9  1 -1</clus>
<clus scale="   82.474">  5  6 -1 -1</clus>
<clus scale="   91.169">  7  8 -1 -1</clus>
<clus scale="  107.448">  1  5  2 -1</clus>
<clus scale="   37.808">  2  5  1 -1</clus>
</clustering>
</event>
<event>
 9    1  0.5981539E-005  0.1083923E+03  0.7546771E-02  0.1266734E+00
          3   -1    0    0  502    0 -0.00000000000E+00  0.00000000000E+00  0.10987034895E+04  0.10987034895E+04  0.00000000000E+00 0. -1.
         21   -1    0    0  501  502  0.00000000000E+00 -0.00000000000E+00 -0.32000959125E+02  0.32000959125E+02  0.00000000000E+00 0.  1.
        -24    2    1    2    0    0  0.76370492099E+02 -0.77268421164E+01  0.62463911172E+03  0.63460856776E+03  0.81620207222E+02 0.  0.
         23    2    1    2    0    0  0.10633374035E+02  0.60345269936E+02  0.13847424032E+03  0.17593223385E+03  0.89567937501E+02 0.  0.
         13    1    3    3    0    0 -0.20141501042E+01 -0.27986845079E+02  0.10428536717E+03  0.10799425033E+03  0.00000000000E+00 0. -1.
        -14    1    3    3    0    0  0.78384642203E+02  0.20260002963E+02  0.52035374455E+03  0.52661431743E+03  0.00000000000E+00 0.  1.
        -13    1    4    4    0    0  0.29653308989E+02  0.42144006465E+02  0.21169615758E+02  0.55709861302E+02  0.00000000000E+00 0.  1.
         13    1    4    4    0    0 -0.19019934954E+02  0.18201263471E+02  0.11730462456E+03  0.12022237255E+03  0.00000000000E+00 0. -1.
          4    1    1    2  501    0 -0.87003866134E+02 -0.52618427819E+02  0.30358917830E+03  0.32016364698E+03  0.00000000000E+00 0. -1.
<scales pt_clust_5="13000.00000" pt_clust_6="13000.00000" pt_clust_7="13000.00000" pt_clust_8="13000.00000" pt_clust_9="101.67783"></scales>
<clustering>
<clus scale="   81.620">  5  6 -1 -1</clus>
<clus scale="   89.568">  7  8 -1 -1</clus>
<clus scale="  101.678">  2  9  1 -1</clus>
<clus scale="  101.923">  1  5  2 -1</clus>
<clus scale="  101.678">  2  5  1 -1</clus>
</clustering>
</event>
<event>
 9    1  0.5981539E-005  0.1103919E+03  0.7546771E-02  0.1264076E+00
          1   -1    0    0  502    0 -0.00000000000E+00  0.00000000000E+00  0.30602003093E+03  0.30602003093E+03  0.00000000000E+00 0. -1.
         21   -1    0    0  501  502  0.00000000000E+00 -0.00000000000E+00 -0.71990972323E+02  0.71990972323E+02  0.00000000000E+00 0. -1.
        -24    2    1    2    0    0 -0.11882818794E+02 -0.68484946904E+02  0.16097723122E+03  0.19378203423E+03  0.82501021113E+02 0.  0.
         23    2    1    2    0    0  0.17892055951E+02  0.25386586216E+02 -0.12138894101E+01  0.98153558383E+02  0.93102325802E+02 0.  0.
         11    1    3    3    0    0  0.16262331354E+02 -0.68065024529E+02  0.14598132740E+03  0.16188841508E+03  0.00000000000E+00 0. -1.
        -12    1    3    3    0    0 -0.28145150148E+02 -0.41992237518E+00  0.14995903819E+02  0.31893619158E+02  0.00000000000E+00 0.  1.
        -13    1    4    4    0    0  0.38084549187E+02  0.44098320046E+01 -0.36136692673E+02  0.52685292657E+02  0.00000000000E+00 0. -1.
         13    1    4    4    0    0 -0.20192493236E+02  0.20976754211E+02  0.34922803263E+02  0.45468265725E+02  0.00000000000E+00 0.  1.
          2    1    1    2  501    0 -0.60092371564E+01  0.43098360688E+02  0.74265716794E+02  0.86075410636E+02  0.00000000000E+00 0. -1.
<scales pt_clust_5="13000.00000" pt_clust_6="13000.00000" pt_clust_7="13000.00000" pt_clust_8="13000.00000" pt_clust_9="43.51530"></scales>
<clustering>
<clus scale="   43.515">  2  9  1 -1</clus>
<clus scale="   82.501">  5  6 -1 -1</clus>
<clus scale="   93.102">  7  8 -1 -1</clus>
<clus scale="  101.611">  1  5  2 -1</clus>
<clus scale="   43.515">  2  5  1 -1</clus>
</clustering>
</event>
<event>
 9    1  0.5981539E-005  0.1241792E+03  0.7546771E-02  0.1240037E+00
         21   -1    0    0  501  502  0.00000000000E+00  0.00000000000E+00  0.19223185892E+02  0.19223185892E+02  0.00000000000E+00 0. -1.
          3   -1    0    0  502    0 -0.00000000000E+00 -0.00000000000E+00 -0.13190976680E+04  0.13190976680E+04  0.00000000000E+00 0. -1.
         23    2    1    2    0    0  0.44103367682E+02  0.85841897043E+02 -0.57264447604E+03  0.58808562712E+03  0.92785077240E+02 0.  0.
        -24    2    1    2    0    0 -0.74080087846E+02 -0.27863768582E+02 -0.36040924996E+03  0.37765297512E+03  0.80390877263E+02 0.  0.
         13    1    4    4    0    0 -0.86338906552E+02 -0.40361594960E+02 -0.30468667265E+03  0.31924509961E+03  0.00000000000E+00 0. -1.
        -14    1    4    4    0    0  0.12258818705E+02  0.12497826377E+02 -0.55722577302E+02  0.58407875508E+02  0.00000000000E+00 0.  1.
        -13    1    3    3    0    0 -0.29086060216E+02  0.29716277801E+02 -0.18637859464E+03  0.19096082479E+03  0.00000000000E+00 0. -1.
         13    1    3    3    0    0  0.73189427898E+02  0.56125619242E+02 -0.38626588140E+03  0.39712480233E+03  0.00000000000E+00 0.  1.
          4    1    1    2  501    0  0.29976720164E+02 -0.57978128460E+02 -0.36682075607E+03  0.37258225161E+03  0.00000000000E+00 0. -1.
<scales pt_clust_5="13000.00000" pt_clust_6="13000.00000" pt_clust_7="13000.00000" pt_clust_8="13000.00000" pt_clust_9="65.26922"></scales>
<clustering>
<clus scale="   65.269">  1  9  2 -1</clus>
<clus scale="   80.391">  5  6 -1 -1</clus>
<clus scale="   92.785">  7  8 -1 -1</clus>
<clus scale="  115.213">  1  5  2 -1</clus>
<clus scale="   65.269">  1  5  2 -1</clus>
</clustering>
</event>
<event>
 9    1  0.5981539E-005  0.1090481E+03  0.7546771E-02  0.1264408E+00
         21   -1    0    0  501  502  0.00000000000E+00  0.00000000000E+00  0.46498671287E+02  0.46498671287E+02  0.00000000000E+00 0. -1.
          1   -1    0    0  502    0 -0.00000000000E+00 -0.00000000000E+00 -0.65391369759E+03  0.65391369759E+03  0.00000000000E+00 0. -1.
         23    2    1    2    0    0 -0.48967533863E+01 -0.69155718631E+02 -0.18830906238E+03  0.21908280495E+03  0.87923153008E+02 0.  0.
        -24    2    1    2    0    0 -0.61528246552E+02  0.48275236752E+02 -0.90166873646E+02  0.14510166466E+03  0.82511843848E+02 0.  0.
         11    1    4    4    0    0 -0.46752591103E+02 -0.13897417353E+02 -0.48685778494E+02  0.68914788046E+02  0.00000000000E+00 0. -1.
        -12    1    4    4    0    0 -0.14775655449E+02  0.62172654105E+02 -0.41481095153E+02  0.76186876609E+02  0.00000000000E+00 0.  1.
        -11    1    3    3    0    0  0.23596767179E+02 -0.11452894008E+02 -0.76777320357E+01  0.27329906177E+02  0.00000000000E+00 0.  1.
         11    1    3    3    0    0 -0.28493520565E+02 -0.57702824624E+02 -0.18063133035E+03  0.19175289877E+03  0.00000000000E+00 0. -1.
          2    1    1    2  501    0  0.66424999938E+02  0.20880481879E+02 -0.32893909028E+03  0.33622789928E+03  0.00000000000E+00 0. -1.
<scales pt_clust_5="13000.00000" pt_clust_6="13000.00000" pt_clust_7="13000.00000" pt_clust_8="13000.00000" pt_clust_9="69.62959"></scales>
<clustering>
<clus scale="   69.630">  1  9  2 -1</clus>
<clus scale="   82.512">  5  6 -1 -1</clus>
<clus scale="   87.923">  7  8 -1 -1</clus>
<clus scale="  104.734">  1  5  2 -1</clus>
<clus scale="   69.630">  1  5  2 -1</clus>
</clustering>
</event>
<event>
 9    1  0.5981539E-005  0.3071134E+03  0.7546771E-02  0.1082118E+00
         21   -1    0    0  501  502  0.00000000000E+00  0.00000000000E+00  0.63777587196E+03  0.63777587196E+03  0.00000000000E+00 0. -1.
          1   -1    0    0  502    0 -0.00000000000E+00 -0.00000000000E+00 -0.49928890960E+03  0.49928890960E+03  0.00000000000E+00 0. -1.
        -24    2    1    2    0    0  0.29401874585E+03 -0.34599971490E+02 -0.35348047209E+03  0.46827001272E+03  0.81756832896E+02 0.  0.
         23    2    1    2    0    0 -0.24659799029E+03  0.15705740507E+03  0.41679604870E+03  0.51748287792E+03  0.92692963167E+02 0.  0.
         13    1    3    3    0    0  0.18127051941E+03 -0.53648899302E+02 -0.25453683247E+03  0.31705867704E+03  0.00000000000E+00 0. -1.
        -14    1    3    3    0    0  0.11274822645E+03  0.19048927811E+02 -0.98943639624E+02  0.15121133569E+03  0.00000000000E+00 0.  1.
        -13    1    4    4    0    0 -0.20002666723E+03  0.11197372423E+03  0.25341244391E+03  0.34171135370E+03  0.00000000000E+00 0. -1.
         13    1    4    4    0    0 -0.46571323062E+02  0.45083680836E+02  0.16338360479E+03  0.17577152421E+03  0.00000000000E+00 0.  1.
          2    1    1    2  501    0 -0.47420755562E+02 -0.12245743358E+03  0.75171385752E+02  0.15131189092E+03  0.00000000000E+00 0. -1.
<scales pt_clust_5="13000.00000" pt_clust_6="13000.00000" pt_clust_7="13000.00000" pt_clust_8="13000.00000" pt_clust_9="131.31851"></scales>
<clustering>
<clus scale="   81.757">  5  6 -1 -1</clus>
<clus scale="   92.693">  7  8 -1 -1</clus>
<clus scale="  131.319">  1  9  2 -1</clus>
<clus scale="  303.992">  2  5  1 -1</clus>
<clus scale="  131.319">  1  5  2 -1</clus>
</clustering>
</event>
<event>
 9    1  0.5981539E-005  0.1061538E+03  0.7546771E-02  0.1268972E+00
          1   -1    0    0  502    0 -0.00000000000E+00  0.00000000000E+00  0.64856367816E+03  0.64856367816E+03  0.00000000000E+00 0. -1.
         21   -1    0    0  501  502  0.00000000000E+00 -0.00000000000E+00 -0.36313136734E+02  0.36313136734E+02  0.00000000000E+00 0.  1.
        -24    2    1    2    0    0  0.26048056042E+02 -0.69619680013E+02  0.37280687766E+03  0.38855001916E+03  0.80378780115E+02 0.  0.
         23    2    1    2    0    0 -0.12694708139E+02  0.34835842627E+02  0.51448676819E+02  0.10467517857E+03  0.83278059030E+02 0.  0.
         13    1    3    3    0    0  0.48279641594E+02 -0.72449165641E+02  0.29454290919E+03  0.30714057164E+03  0.00000000000E+00 0. -1.
        -14    1    3    3    0    0 -0.22231585552E+02  0.28294856280E+01  0.78263968470E+02  0.81409447522E+02  0.00000000000E+00 0.  1.
        -11    1    4    4    0    0 -0.19529171391E+02  0.60857119985E+02  0.40263173768E+02  0.75538736751E+02  0.00000000000E+00 0.  1.
         11    1    4    4    0    0  0.68344632521E+01 -0.26021277358E+02  0.11185503051E+02  0.29136441817E+02  0.00000000000E+00 0. -1.
          2    1    1    2  501    0 -0.13353347902E+02  0.34783837385E+02  0.18799498695E+03  0.19165161716E+03  0.00000000000E+00 0. -1.
<scales pt_clust_5="13000.00000" pt_clust_6="13000.00000" pt_clust_7="13000.00000" pt_clust_8="13000.00000" pt_clust_9="37.25894"></scales>
<clustering>
<clus scale="   37.259">  2  9  1 -1</clus>
<clus scale="   80.379">  5  6 -1 -1</clus>
<clus scale="   83.278">  7  8 -1 -1</clus>
<clus scale="  103.895">  1  5  2 -1</clus>
<clus scale="   37.259">  2  5  1 -1</clus>
</clustering>
</event>
<event>
 9    1  0.5981539E-005  0.9392905E+02  0.7546771E-02  0.1299978E+00
         21   -1    0    0  501  502  0.00000000000E+00  0.00000000000E+00  0.58123698791E+02  0.58123698791E+02  0.00000000000E+00 0. -1.
         -2   -1    0    0    0  501 -0.00000000000E+00 -0.00000000000E+00 -0.33110409588E+03  0.33110409588E+03  0.00000000000E+00 0.  1.
        -24    2    1    2    0    0  0.33685478774E+02 -0.99604568077E+01 -0.15771229196E+03  0.18020318288E+03  0.79787830546E+02 0.  0.
         23    2    1    2    0    0  0.14131805426E+02 -0.33348319206E+01 -0.96597236292E+01  0.92335333738E+02  0.90673450179E+02 0.  0.
         13    1    3    3    0    0 -0.24996213152E+02  0.43439446710E+01 -0.32917297979E+02  0.41559945062E+02  0.00000000000E+00 0. -1.
        -14    1    3    3    0    0  0.58681691926E+02 -0.14304401479E+02 -0.12479499398E+03  0.13864323781E+03  0.00000000000E+00 0.  1.
        -13    1    4    4    0    0 -0.85963701055E+01 -0.32632080191E+02 -0.34061134639E+02  0.47946961629E+02  0.00000000000E+00 0.  1.
         13    1    4    4    0    0  0.22728175532E+02  0.29297248270E+02  0.24401411010E+02  0.44388372109E+02  0.00000000000E+00 0. -1.
         -1    1    1    2    0  502 -0.47817284200E+02  0.13295288728E+02 -0.10560838150E+03  0.11668927806E+03  0.00000000000E+00 0.  1.
<scales pt_clust_5="13000.00000" pt_clust_6="13000.00000" pt_clust_7="13000.00000" pt_clust_8="13000.00000" pt_clust_9="49.63124"></scales>
<clustering>
<clus scale="   49.631">  1  9  2 -1</clus>
<clus scale="   79.788">  5  6 -1 -1</clus>
<clus scale="   83.469">  2  5  1 -1</clus>
<clus scale="   90.673">  7  8 -1 -1</clus>
<clus scale="   49.631">  1  5  2 -1</clus>
</clustering>
</event>
<event>
 9    1  0.5981539E-005  0.3552938E+03  0.7546771E-02  0.1060463E+00
         21   -1    0    0  501  502  0.00000000000E+00  0.00000000000E+00  0.28786087885E+03  0.28786087885E+03  0.00000000000E+00 0.  1.
         -4   -1    0    0    0  501 -0.00000000000E+00 -0.00000000000E+00 -0.36139299692E+03  0.36139299692E+03  0.00000000000E+00 0.  1.
        -24    2    1    2    0    0  0.61533217695E+02  0.50995679687E+02 -0.17474065662E+02  0.11528627644E+03  0.81232298617E+02 0.  0.
         23    2    1    2    0    0  0.43175983127E+02  0.21917604632E+03 -0.26126194011E+02  0.24267274112E+03  0.91132740955E+02 0.  0.
         13    1    3    3    0    0  0.91038106956E+01  0.19965049637E+02  0.30617418843E+02  0.37668407357E+02  0.00000000000E+00 0. -1.
        -14    1    3    3    0    0  0.52429407000E+02  0.31030630050E+02 -0.48091484504E+02  0.77617869086E+02  0.00000000000E+00 0.  1.
        -11    1    4    4    0    0  0.15595127789E+02  0.13525452470E+03 -0.59042886792E+02  0.14840167433E+03  0.00000000000E+00 0. -1.
         11    1    4    4    0    0  0.27580855338E+02  0.83921521618E+02  0.32916692780E+02  0.94271066799E+02  0.00000000000E+00 0.  1.
         -3    1    1    2    0  502 -0.10470920082E+03 -0.27017172600E+03 -0.29931858394E+02  0.29129485820E+03  0.00000000000E+00 0.  1.
<scales pt_clust_5="13000.00000" pt_clust_6="13000.00000" pt_clust_7="13000.00000" pt_clust_8="13000.00000" pt_clust_9="289.75296"></scales>
<clustering>
<clus scale="   81.232">  5  6 -1 -1</clus>
<clus scale="   91.133">  7  8 -1 -1</clus>
<clus scale="  105.854">  5  7 -1 -1</clus>
<clus scale="  289.753">  1  9  2 -1</clus>
<clus scale="  289.753">  1  5  2 -1</clus>
</clustering>
</event>
<event>
 9    1  0.5981539E-005  0.1843582E+03  0.7546771E-02  0.1165066E+00
         21   -1    0    0  501  502  0.00000000000E+00  0.00000000000E+00  0.17319078343E+03  0.17319078343E+03  0.00000000000E+00 0.  1.
          1   -1    0    0  502    0 -0.00000000000E+00 -0.00000000000E+00 -0.42234573119E+03  0.42234573119E+03  0.00000000000E+00 0. -1.
         23    2    1    2    0    0  0.17705492766E+03  0.57441708088E+01 -0.16728448033E+03  0.26087182912E+03  0.93212504315E+02 0.  0.
        -24    2    1    2    0    0 -0.11476655895E+03  0.11858639469E+03 -0.29780910636E+02  0.18616804473E+03  0.80855068990E+02 0.  0.
         13    1    4    4    0    0  0.10752529161E+02  0.23896419753E+02 -0.34452668100E+00  0.26206382028E+02  0.00000000000E+00 0. -1.
        -14    1    4    4    0    0 -0.12551908811E+03  0.94689974939E+02 -0.29436383955E+02  0.15996166270E+03  0.00000000000E+00 0.  1.
        -13    1    3    3    0    0  0.17045691344E+03 -0.14645607766E+02 -0.12004851897E+03  0.20900167481E+03  0.00000000000E+00 0.  1.
         13    1    3    3    0    0  0.65980142142E+01  0.20389778574E+02 -0.47235961358E+02  0.51870154302E+02  0.00000000000E+00 0. -1.
          2    1    1    2  501    0 -0.62288368711E+02 -0.12433056550E+03 -0.52089556799E+02  0.14849664078E+03  0.00000000000E+00 0. -1.
<scales pt_clust_5="13000.00000" pt_clust_6="13000.00000" pt_clust_7="13000.00000" pt_clust_8="13000.00000" pt_clust_9="139.06089"></scales>
<clustering>
<clus scale="   80.855">  5  6 -1 -1</clus>
<clus scale="   93.213">  7  8 -1 -1</clus>
<clus scale="  139.061">  1  9  2 -1</clus>
<clus scale="  178.429">  1  5  2 -1</clus>
<clus scale="  139.061">  1  5  2 -1</clus>
</clustering>
</event>
<event>
 9    1  0.5981539E-005  0.1678351E+03  0.7546771E-02  0.1182961E+00
         21   -1    0    0  501  502  0.00000000000E+00  0.00000000000E+00  0.78731530501E+02  0.78731530501E+02  0.00000000000E+00 0.  1.
         -2   -1    0    0    0  501 -0.00000000000E+00 -0.00000000000E+00 -0.78506523144E+03  0.78506523144E+03  0.00000000000E+00 0.  1.
        -24    2    1    2    0    0  0.12863250570E+01  0.13557810109E+03 -0.61920266296E+03  0.63871846247E+03  0.78525539503E+02 0.  0.
         23    2    1    2    0    0  0.21562556565E+02 -0.14275497171E+03 -0.50750472990E+02  0.18152230824E+03  0.97625878167E+02 0.  0.
         11    1    3    3    0    0 -0.38229824789E+02  0.61497257747E+02 -0.30683120354E+03  0.31525992400E+03  0.00000000000E+00 0. -1.
        -12    1    3    3    0    0  0.39516149846E+02  0.74080843341E+02 -0.31237145942E+03  0.32345853847E+03  0.00000000000E+00 0.  1.
        -11    1    4    4    0    0 -0.31184212467E+02 -0.12582913314E+02 -0.63748228551E+01  0.34226059971E+02  0.00000000000E+00 0. -1.
         11    1    4    4    0    0  0.52746769033E+02 -0.13017205839E+03 -0.44375650135E+02  0.14729624827E+03  0.00000000000E+00 0.  1.
         -1    1    1    2    0  502 -0.22848881622E+02  0.71768706199E+01 -0.36380564992E+02  0.43555991235E+02  0.00000000000E+00 0.  1.
<scales pt_clust_5="13000.00000" pt_clust_6="13000.00000" pt_clust_7="13000.00000" pt_clust_8="13000.00000" pt_clust_9="23.94952"></scales>
<clustering>
<clus scale="   23.950">  1  9  2 -1</clus>
<clus scale="   78.526">  5  6 -1 -1</clus>
<clus scale="   97.626">  7  8 -1 -1</clus>
<clus scale="  157.493">  2  5  1 -1</clus>
<clus scale="   23.950">  1  5  2 -1</clus>
</clustering>
</event>
<event>
 9    1  0.5981539E-005  0.9953900E+02  0.7546771E-02  0.1289459E+00
         21   -1    0    0  501  502  0.00000000000E+00  0.00000000000E+00  0.64881729430E+03  0.64881729430E+03  0.00000000000E+00 0. -1.
         -4   -1    0    0    0  501 -0.00000000000E+00 -0.00000000000E+00 -0.25739236761E+02  0.25739236761E+02  0.00000000000E+00 0.  1.
        -24    2    1    2    0    0  0.33120904819E+00 -0.39716105634E+02  0.79750066974E+02  0.11799248198E+03  0.77360673951E+02 0.  0.
         23    2    1    2    0    0 -0.12049988099E+02  0.20043796190E+02  0.39249609368E+03  0.40400392763E+03  0.92838752714E+02 0.  0.
         11    1    3    3    0    0  0.32966079641E+02 -0.35736582790E+02  0.66883574100E+02  0.82687836111E+02  0.00000000000E+00 0. -1.
        -12    1    3    3    0    0 -0.32634870593E+02 -0.39795228440E+01  0.12866492874E+02  0.35304645864E+02  0.00000000000E+00 0.  1.
        -13    1    4    4    0    0 -0.52578477982E+02  0.16077365616E+02  0.23090124444E+03  0.23735703637E+03  0.00000000000E+00 0. -1.
         13    1    4    4    0    0  0.40528489883E+02  0.39664305739E+01  0.16159484925E+03  0.16664689126E+03  0.00000000000E+00 0.  1.
         -3    1    1    2    0  502  0.11718779051E+02  0.19672309444E+02  0.15083189688E+03  0.15256012145E+03  0.00000000000E+00 0.  1.
<scales pt_clust_5="13000.00000" pt_clust_6="13000.00000" pt_clust_7="13000.00000" pt_clust_8="13000.00000" pt_clust_9="22.89824"></scales>
<clustering>
<clus scale="   22.898">  1  9  2 -1</clus>
<clus scale="   77.361">  5  6 -1 -1</clus>
<clus scale="   85.286">  2  5  1 -1</clus>
<clus scale="   92.839">  7  8 -1 -1</clus>
<clus scale="   22.898">  1  5  2 -1</clus>
</clustering>
</event>
<event>
 9    1  0.5981539E-005  0.1314947E+03  0.7546771E-02  0.1228070E+00
          1   -1    0    0  502    0 -0.00000000000E+00  0.00000000000E+00  0.13631280540E+03  0.13631280540E+03  0.00000000000E+00 0. -1.
         21   -1    0    0  501  502  0.00000000000E+00 -0.00000000000E+00 -0.18260124323E+03  0.18260124323E+03  0.00000000000E+00 0.  1.
         23    2    1    2    0    0 -0.81848121755E+02 -0.64512603244E+02  0.39791400893E+02  0.14399025016E+03  0.91043097178E+02 0.  0.
        -24    2    1    2    0    0  0.66506117143E+02  0.46361957837E+02 -0.35802882923E+02  0.11931269059E+03  0.79882269364E+02 0.  0.
         13    1    4    4    0    0 -0.12970120499E+02  0.15904427557E+02 -0.26756665738E+02  0.33720824472E+02  0.00000000000E+00 0. -1.
        -14    1    4    4    0    0  0.79476237642E+02  0.30457530280E+02 -0.90462171851E+01  0.85591866119E+02  0.00000000000E+00 0.  1.
        -11    1    3    3    0    0 -0.70454769404E+02 -0.27985170639E+01  0.16053131382E+01  0.70528598879E+02  0.00000000000E+00 0.  1.
         11    1    3    3    0    0 -0.11393352351E+02 -0.61714086180E+02  0.38186087755E+02  0.73461651280E+02  0.00000000000E+00 0. -1.
          2    1    1    2  501    0  0.15342004612E+02  0.18150645407E+02 -0.50276955807E+02  0.55611107878E+02  0.00000000000E+00 0. -1.
<scales pt_clust_5="13000.00000" pt_clust_6="13000.00000" pt_clust_7="13000.00000" pt_clust_8="13000.00000" pt_clust_9="23.76601"></scales>
<clustering>
<clus scale="   23.766">  2  9  1 -1</clus>
<clus scale="   79.882">  5  6 -1 -1</clus>
<clus scale="   91.043">  7  8 -1 -1</clus>
<clus scale="  124.029">  2  5  1 -1</clus>
<clus scale="   23.766">  2  5  1 -1</clus>
</clustering>
</event>
<event>
 9    1  0.5981539E-005  0.2941275E+03  0.7546771E-02  0.1088214E+00
         -4   -1    0    0    0  501 -0.00000000000E+00  0.00000000000E+00  0.70436477183E+02  0.70436477183E+02  0.00000000000E+00 0.  1.
         21   -1    0    0  501  502  0.00000000000E+00 -0.00000000000E+00 -0.10799897323E+04  0.10799897323E+04  0.00000000000E+00 0. -1.
        -24    2    1    2    0    0  0.11671255204E+03  0.12038049461E+03 -0.64504314463E+03  0.67075008437E+03  0.75576014416E+02 0.  0.
         23    2    1    2    0    0  0.20247954310E+02  0.24717653042E+02 -0.19007231426E+03  0.21464745213E+03  0.94472758165E+02 0.  0.
         11    1    3    3    0    0  0.11730608993E+03  0.11000698947E+03 -0.63856855473E+03  0.65850744533E+03  0.00000000000E+00 0. -1.
        -12    1    3    3    0    0 -0.59353789660E+00  0.10373505138E+02 -0.64745898992E+01  0.12242639031E+02  0.00000000000E+00 0.  1.
        -13    1    4    4    0    0  0.28834831392E+02  0.56754534184E+02 -0.98773064950E+02  0.11751018259E+03  0.00000000000E+00 0.  1.
         13    1    4    4    0    0 -0.85868770817E+01 -0.32036881142E+02 -0.91299249305E+02  0.97137269547E+02  0.00000000000E+00 0. -1.
         -3    1    1    2    0  502 -0.13696050635E+03 -0.14509814765E+03 -0.17443779623E+03  0.26502867298E+03  0.00000000000E+00 0.  1.
<scales pt_clust_5="13000.00000" pt_clust_6="13000.00000" pt_clust_7="13000.00000" pt_clust_8="13000.00000" pt_clust_9="199.52868"></scales>
<clustering>
<clus scale="   75.576">  5  6 -1 -1</clus>
<clus scale="   94.473">  7  8 -1 -1</clus>
<clus scale="   96.128">  5  7 -1 -1</clus>
<clus scale="  199.529">  2  9  1 -1</clus>
<clus scale="  199.529">  2  5  1 -1</clus>
</clustering>
</event>
<event>
 9    1  0.5981539E-005  0.8938339E+02  0.7546771E-02  0.1308207E+00
         -2   -1    0    0    0  501 -0.00000000000E+00  0.00000000000E+00  0.14118819228E+03  0.14118819228E+03  0.00000000000E+00 0.  1.
         21   -1    0    0  501  502  0.00000000000E+00 -0.00000000000E+00 -0.20035518482E+03  0.20035518482E+03  0.00000000000E+00 0.  1.
        -24    2    1    2    0    0  0.10440480058E+02  0.45887310736E+01  0.53580228586E+02  0.99220461615E+02  0.82727256881E+02 0.  0.
         23    2    1    2    0    0  0.24171513119E+02 -0.29252476210E+02 -0.15484022005E+03  0.18250560233E+03  0.88841610326E+02 0.  0.
         13    1    3    3    0    0  0.86216252001E+01 -0.38961317690E+02  0.26631077116E+02  0.47974273998E+02  0.00000000000E+00 0. -1.
        -14    1    3    3    0    0  0.18188548582E+01  0.43550048764E+02  0.26949151469E+02  0.51246187617E+02  0.00000000000E+00 0.  1.
        -13    1    4    4    0    0 -0.22131267442E+02 -0.24426952870E+02 -0.17145848168E+02  0.37154395897E+02  0.00000000000E+00 0. -1.
         13    1    4    4    0    0  0.46302780561E+02 -0.48255233403E+01 -0.13769437188E+03  0.14535120643E+03  0.00000000000E+00 0.  1.
         -1    1    1    2    0  502 -0.34611993178E+02  0.24663745137E+02  0.42092998914E+02  0.59817313158E+02  0.00000000000E+00 0.  1.
<scales pt_clust_5="13000.00000" pt_clust_6="13000.00000" pt_clust_7="13000.00000" pt_clust_8="13000.00000" pt_clust_9="42.50050"></scales>
<clustering>
<clus scale="   42.500">  2  9  1 -1</clus>
<clus scale="   82.727">  5  6 -1 -1</clus>
<clus scale="   83.309">  1  5  2 -1</clus>
<clus scale="   88.842">  7  8 -1 -1</clus>
<clus scale="   42.500">  2  5  1 -1</clus>
</clustering>
</event>
<event>
 9    1  0.5981539E-005  0.2000832E+03  0.7546771E-02  0.1150929E+00
         21   -1    0    0  501  502  0.00000000000E+00  0.00000000000E+00  0.61096965496E+02  0.61096965496E+02  0.00000000000E+00 0.  1.
         -4   -1    0    0    0  501 -0.00000000000E+00 -0.00000000000E+00 -0.10331524151E+04  0.10331524151E+04  0.00000000000E+00 0.  1.
        -24    2    1    2    0    0  0.51969809528E+02 -0.19702344637E+03 -0.51801358913E+03  0.56247279093E+03  0.80736995824E+02 0.  0.
         23    2    1    2    0    0 -0.64585509320E+02  0.12180088404E+03 -0.17216398856E+03  0.23976165094E+03  0.94013121088E+02 0.  0.
         13    1    3    3    0    0  0.63562755486E+02 -0.97666915565E+02 -0.23508037256E+03  0.26237727006E+03  0.00000000000E+00 0. -1.
        -14    1    3    3    0    0 -0.11592945957E+02 -0.99356530800E+02 -0.28293321657E+03  0.30009552087E+03  0.00000000000E+00 0.  1.
        -13    1    4    4    0    0  0.45902199855E+01  0.86311467340E+02 -0.69091744042E+02  0.11065445589E+03  0.00000000000E+00 0.  1.
         13    1    4    4    0    0 -0.69175729305E+02  0.35489416698E+02 -0.10307224452E+03  0.12910719505E+03  0.00000000000E+00 0. -1.
         -3    1    1    2    0  502  0.12615699791E+02  0.75222562328E+02 -0.28187787186E+03  0.29201493868E+03  0.00000000000E+00 0.  1.
<scales pt_clust_5="13000.00000" pt_clust_6="13000.00000" pt_clust_7="13000.00000" pt_clust_8="13000.00000" pt_clust_9="76.27316"></scales>
<clustering>
<clus scale="   76.273">  1  9  2 -1</clus>
<clus scale="   80.737">  5  6 -1 -1</clus>
<clus scale="   94.013">  7  8 -1 -1</clus>
<clus scale="  194.199">  2  5  1 -1</clus>
<clus scale="   76.273">  1  5  2 -1</clus>
</clustering>
</event>
<event>
 9    1  0.5981539E-005  0.1012073E+03  0.7546771E-02  0.1284802E+00
         -4   -1    0    0    0  501 -0.00000000000E+00  0.00000000000E+00  0.22092458811E+03  0.22092458811E+03  0.00000000000E+00 0.  1.
         21   -1    0    0  501  502  0.00000000000E+00 -0.00000000000E+00 -0.33601760060E+03  0.33601760060E+03  0.00000000000E+00 0. -1.
         23    2    1    2    0    0  0.36347590220E+02 -0.16845288983E+02  0.18563998154E+03  0.21085891536E+03  0.91620785670E+02 0.  0.
        -24    2    1    2    0    0 -0.69562902103E+02  0.51247958197E+02 -0.16140898849E+03  0.19878093423E+03  0.77431567722E+02 0.  0.
         13    1    4    4    0    0 -0.66824339548E+02  0.12200343025E+02 -0.13626347208E+03  0.15225660757E+03  0.00000000000E+00 0. -1.
        -14    1    4    4    0    0 -0.27385625549E+01  0.39047615173E+02 -0.25145516409E+02  0.46524326658E+02  0.00000000000E+00 0.  1.
        -11    1    3    3    0    0  0.66660925358E+02 -0.35771867391E+01  0.11859443024E+03  0.13609229999E+03  0.00000000000E+00 0.  1.
         11    1    3    3    0    0 -0.30313335138E+02 -0.13268102244E+02  0.67045551302E+02  0.74766615369E+02  0.00000000000E+00 0. -1.
         -3    1    1    2    0  502  0.33215311883E+02 -0.34402669214E+02 -0.13932400554E+03  0.14730233913E+03  0.00000000000E+00 0.  1.
<scales pt_clust_5="13000.00000" pt_clust_6="13000.00000" pt_clust_7="13000.00000" pt_clust_8="13000.00000" pt_clust_9="47.82050"></scales>
<clustering>
<clus scale="   47.821">  2  9  1 -1</clus>
<clus scale="   77.432">  5  6 -1 -1</clus>
<clus scale="   88.567">  2  5  1 -1</clus>
<clus scale="   91.621">  7  8 -1 -1</clus>
<clus scale="   47.821">  2  5  1 -1</clus>
</clustering>
</event>
<event>
 9    1  0.5981539E-005  0.1198441E+03  0.7546771E-02  0.1247721E+00
         21   -1    0    0  501  502  0.00000000000E+00  0.00000000000E+00  0.22608978981E+03  0.22608978981E+03  0.00000000000E+00 0. -1.
          1   -1    0    0  502    0 -0.00000000000E+00 -0.00000000000E+00 -0.94207275417E+02  0.94207275417E+02  0.00000000000E+00 0. -1.
         23    2    1    2    0    0  0.34790657300E+02 -0.80434883903E+02  0.62181763920E+02  0.14223784011E+03  0.93192655357E+02 0.  0.
        -24    2    1    2    0    0 -0.57190794348E+01  0.63237032685E+02  0.92189907362E+02  0.13747985962E+03  0.79812922568E+02 0.  0.
         11    1    4    4    0    0 -0.24657508496E+02  0.68534530929E+02  0.43182616743E+02  0.84674158063E+02  0.00000000000E+00 0. -1.
        -12    1    4    4    0    0  0.18938429061E+02 -0.52974982438E+01  0.49007290619E+02  0.52805701555E+02  0.00000000000E+00 0.  1.
        -13    1    3    3    0    0  0.10487323168E+02 -0.18600072310E+02  0.71979459746E+02  0.75079885872E+02  0.00000000000E+00 0.  1.
         13    1    3    3    0    0  0.24303334132E+02 -0.61834811593E+02 -0.97976958259E+01  0.67157954243E+02  0.00000000000E+00 0. -1.
          2    1    1    2  501    0 -0.29071577865E+02  0.17197851218E+02 -0.22489156891E+02  0.40579365492E+02  0.00000000000E+00 0. -1.
<scales pt_clust_5="13000.00000" pt_clust_6="13000.00000" pt_clust_7="13000.00000" pt_clust_8="13000.00000" pt_clust_9="33.77756"></scales>
<clustering>
<clus scale="   33.778">  1  9  2 -1</clus>
<clus scale="   79.813">  5  6 -1 -1</clus>
<clus scale="   93.193">  7  8 -1 -1</clus>
<clus scale="  109.763">  1  5  2 -1</clus>
<clus scale="   33.778">  1  5  2 -1</clus>
</clustering>
</event>
<event>
 9    1  0.5981539E-005  0.1075389E+03  0.7546771E-02  0.1270172E+00
         -4   -1    0    0    0  501 -0.00000000000E+00  0.00000000000E+00  0.55231845765E+02  0.55231845765E+02  0.00000000000E+00 0.  1.
         21   -1    0    0  501  502  0.00000000000E+00 -0.00000000000E+00 -0.38146018830E+03  0.38146018830E+03  0.00000000000E+00 0. -1.
         23    2    1    2    0    0  0.58353342491E+02  0.10262692400E+02 -0.20532017595E+02  0.11130184363E+03  0.91957061799E+02 0.  0.
        -24    2    1    2    0    0 -0.43326599507E+02  0.32784763008E+01 -0.24524126432E+03  0.26164083272E+03  0.80154257453E+02 0.  0.
         13    1    4    4    0    0 -0.75886199452E+01  0.35571815603E+02 -0.15649057953E+03  0.16066188938E+03  0.00000000000E+00 0. -1.
        -14    1    4    4    0    0 -0.35737979562E+02 -0.32293339302E+02 -0.88750684787E+02  0.10097894333E+03  0.00000000000E+00 0.  1.
        -13    1    3    3    0    0  0.39138885152E+02  0.44904446136E+02  0.11119410951E+02  0.60596228543E+02  0.00000000000E+00 0. -1.
         13    1    3    3    0    0  0.19214457338E+02 -0.34641753736E+02 -0.31651428546E+02  0.50705615091E+02  0.00000000000E+00 0.  1.
         -3    1    1    2    0  502 -0.15026742983E+02 -0.13541168700E+02 -0.60455060619E+02  0.63749357714E+02  0.00000000000E+00 0.  1.
<scales pt_clust_5="13000.00000" pt_clust_6="13000.00000" pt_clust_7="13000.00000" pt_clust_8="13000.00000" pt_clust_9="20.22786"></scales>
<clustering>
<clus scale="   20.228">  2  9  1 -1</clus>
<clus scale="   80.154">  5  6 -1 -1</clus>
<clus scale="   91.957">  7  8 -1 -1</clus>
<clus scale="   97.638">  2  5  1 -1</clus>
<clus scale="   20.228">  2  5  1 -1</clus>
</clustering>
</event>
<event>
 9    1  0.5981539E-005  0.1108821E+03  0.7546771E-02  0.1264547E+00
          1   -1    0    0  502    0 -0.00000000000E+00  0.00000000000E+00  0.70167100786E+03  0.70167100786E+03  0.00000000000E+00 0. -1.
         21   -1    0    0  501  502  0.00000000000E+00 -0.00000000000E+00 -0.38607371107E+02  0.38607371107E+02  0.00000000000E+00 0. -1.
        -24    2    1    2    0    0  0.50188173613E+02 -0.32492956607E+02  0.36676596415E+03  0.37990578373E+03  0.78971431852E+02 0.  0.
         23    2    1    2    0    0 -0.74448280773E+02 -0.19468026397E+02  0.27292710457E+03  0.29844780211E+03  0.93060924210E+02 0.  0.
         11    1    3    3    0    0  0.60848273583E+02 -0.23461583083E+02  0.35688201937E+03  0.36279158484E+03  0.00000000000E+00 0. -1.
        -12    1    3    3    0    0 -0.10660099970E+02 -0.90313735243E+01  0.98839447771E+01  0.17114198885E+02  0.00000000000E+00 0.  1.
        -11    1    4    4    0    0 -0.42818880627E+02  0.17242405190E+02  0.22713152093E+03  0.23177464243E+03  0.00000000000E+00 0.  1.
         11    1    4    4    0    0 -0.31629400146E+02 -0.36710431587E+02  0.45795583644E+02  0.66673159683E+02  0.00000000000E+00 0. -1.
          2    1    1    2  501    0  0.24260107161E+02  0.51960983004E+02  0.23370568035E+02  0.61924793132E+02  0.00000000000E+00 0. -1.
<scales pt_clust_5="13000.00000" pt_clust_6="13000.00000" pt_clust_7="13000.00000" pt_clust_8="13000.00000" pt_clust_9="57.34541"></scales>
<clustering>
<clus scale="   57.345">  2  9  1 -1</clus>
<clus scale="   78.971">  5  6 -1 -1</clus>
<clus scale="   93.061">  7  8 -1 -1</clus>
<clus scale="   99.353">  1  5  2 -1</clus>
<clus scale="   57.345">  2  5  1 -1</clus>
</clustering>
</event>
<event>
 9    1  0.5981539E-005  0.1227755E+03  0.7546771E-02  0.1241375E+00
          1   -1    0    0  502    0 -0.00000000000E+00  0.00000000000E+00  0.79130678142E+03  0.79130678142E+03  0.00000000000E+00 0. -1.
         21   -1    0    0  501  502  0.00000000000E+00 -0.00000000000E+00 -0.39295251130E+02  0.39295251130E+02  0.00000000000E+00 0.  1.
        -24    2    1    2    0    0  0.24273022022E+02 -0.78351075633E+02  0.61782466824E+03  0.62846835513E+03  0.80852223570E+02 0.  0.
         23    2    1    2    0    0 -0.59953725736E+01  0.91424029192E+02  0.11636250824E+03  0.17345124076E+03  0.90281792143E+02 0.  0.
         11    1    3    3    0    0  0.17426111950E+01 -0.77914021886E+02  0.30382337772E+03  0.31365949109E+03  0.00000000000E+00 0. -1.
        -12    1    3    3    0    0  0.22530410827E+02 -0.43705374724E+00  0.31400129052E+03  0.31480886404E+03  0.00000000000E+00 0.  1.
        -13    1    4    4    0    0  0.12713530481E+02  0.47362353954E+02  0.11560507514E+03  0.12557611169E+03  0.00000000000E+00 0. -1.
         13    1    4    4    0    0 -0.18708903055E+02  0.44061675238E+02  0.75743309345E+00  0.47875129067E+02  0.00000000000E+00 0.  1.
          2    1    1    2  501    0 -0.18277649449E+02 -0.13072953559E+02  0.17824353813E+02  0.28682436664E+02  0.00000000000E+00 0. -1.
<scales pt_clust_5="13000.00000" pt_clust_6="13000.00000" pt_clust_7="13000.00000" pt_clust_8="13000.00000" pt_clust_9="22.47164"></scales>
<clustering>
<clus scale="   22.472">  2  9  1 -1</clus>
<clus scale="   80.852">  5  6 -1 -1</clus>
<clus scale="   90.282">  7  8 -1 -1</clus>
<clus scale="  116.018">  1  5  2 -1</clus>
<clus scale="   22.472">  2  5  1 -1</clus>
</clustering>
</event>
<event>
 9    1  0.5981539E-005  0.1074617E+03  0.7546771E-02  0.1271155E+00
         -4   -1    0    0    0  501 -0.00000000000E+00  0.00000000000E+00  0.45732456370E+02  0.45732456370E+02  0.00000000000E+00 0.  1.
         21   -1    0    0  501  502  0.00000000000E+00 -0.00000000000E+00 -0.37342902361E+03  0.37342902361E+03  0.00000000000E+00 0. -1.
        -24    2    1    2    0    0 -0.12777075487E+02 -0.64810478702E+02 -0.67057753027E+02  0.12297689539E+03  0.79138629958E+02 0.  0.
         23    2    1    2    0    0 -0.12789428565E+02  0.33872759921E+02 -0.16869131413E+03  0.19585945640E+03  0.92699697160E+02 0.  0.
         11    1    3    3    0    0 -0.57646763247E+01 -0.28903908327E+02 -0.79138789922E+02  0.84448892710E+02  0.00000000000E+00 0. -1.
        -12    1    3    3    0    0 -0.70123991621E+01 -0.35906570376E+02  0.12081036896E+02  0.38528002681E+02  0.00000000000E+00 0.  1.
        -11    1    4    4    0    0 -0.34584657139E+02  0.57640145431E+02 -0.11100040014E+03  0.12976738306E+03  0.00000000000E+00 0. -1.
         11    1    4    4    0    0  0.21795228573E+02 -0.23767385509E+02 -0.57690913985E+02  0.66092073344E+02  0.00000000000E+00 0.  1.
         -3    1    1    2    0  502  0.25566504052E+02  0.30937718781E+02 -0.91947500082E+02  0.10032512818E+03  0.00000000000E+00 0.  1.
<scales pt_clust_5="13000.00000" pt_clust_6="13000.00000" pt_clust_7="13000.00000" pt_clust_8="13000.00000" pt_clust_9="40.13463"></scales>
<clustering>
<clus scale="   40.135">  2  9  1 -1</clus>
<clus scale="   79.139">  5  6 -1 -1</clus>
<clus scale="   92.700">  7  8 -1 -1</clus>
<clus scale="   96.009">  1  5  2 -1</clus>
<clus scale="   40.135">  2  5  1 -1</clus>
</clustering>
</event>
<event>
 9    1  0.5981539E-005  0.1863320E+03  0.7546771E-02  0.1162577E+00
          1   -1    0    0  502    0 -0.00000000000E+00  0.00000000000E+00  0.12067465447E+04  0.12067465447E+04  0.00000000000E+00 0. -1.
         21   -1    0    0  501  502  0.00000000000E+00 -0.00000000000E+00 -0.60846701030E+02  0.60846701030E+02  0.00000000000E+00 0.  1.
         23    2    1    2    0    0 -0.59538702008E+02  0.16810896345E+03  0.84020918874E+03  0.86355186408E+03  0.89246067070E+02 0.  0.
        -24    2    1    2    0    0  0.11477831246E+03 -0.87131292618E+02  0.20113216343E+03  0.26071910186E+03  0.82185033589E+02 0.  0.
         11    1    4    4    0    0  0.44068214410E+02 -0.43068684546E+02  0.15195409265E+03  0.16397245313E+03  0.00000000000E+00 0. -1.
        -12    1    4    4    0    0  0.70710098053E+02 -0.44062608072E+02  0.49178070772E+02  0.96746648736E+02  0.00000000000E+00 0.  1.
        -13    1    3    3    0    0 -0.42201503360E+02  0.58709757664E+02  0.17768932915E+03  0.19183664985E+03  0.00000000000E+00 0.  1.
         13    1    3    3    0    0 -0.17337198648E+02  0.10939920578E+03  0.66251985958E+03  0.67171521423E+03  0.00000000000E+00 0. -1.
          2    1    1    2  501    0 -0.55239610455E+02 -0.80977670831E+02  0.10455849149E+03  0.14332227977E+03  0.00000000000E+00 0. -1.
<scales pt_clust_5="13000.00000" pt_clust_6="13000.00000" pt_clust_7="13000.00000" pt_clust_8="13000.00000" pt_clust_9="98.02448"></scales>
<clustering>
<clus scale="   82.185">  5  6 -1 -1</clus>
<clus scale="   89.246">  7  8 -1 -1</clus>
<clus scale="   98.024">  2  9  1 -1</clus>
<clus scale="  183.055">  2  5  1 -1</clus>
<clus scale="   98.024">  2  5  1 -1</clus>
</clustering>
</event>
<event>
 9    1  0.5981539E-005  0.2293341E+03  0.7546771E-02  0.1168050E+00
         21   -1    0    0  501  502  0.00000000000E+00  0.00000000000E+00  0.80452109854E+02  0.80452109854E+02  0.00000000000E+00 0.  1.
          1   -1    0    0  502    0 -0.00000000000E+00 -0.00000000000E+00 -0.10016351451E+04  0.10016351451E+04  0.00000000000E+00 0. -1.
        -24    2    1    2    0    0  0.29984563705E+02 -0.52262687377E+01 -0.34439486710E+03  0.35510145548E+03  0.81011303215E+02 0.  0.
         23    2    1    2    0    0  0.11013091372E+03 -0.16722858290E+03 -0.27270351686E+03  0.35036862248E+03  0.91086477659E+02 0.  0.
         13    1    3    3    0    0  0.50804624272E+02 -0.25987438011E+02 -0.23408007466E+03  0.24093554768E+03  0.00000000000E+00 0. -1.
        -14    1    3    3    0    0 -0.20820060568E+02  0.20761169274E+02 -0.11031479244E+03  0.11416590780E+03  0.00000000000E+00 0.  1.
        -13    1    4    4    0    0  0.32814676797E+02 -0.12171918598E+03 -0.12485612260E+03  0.17743002734E+03  0.00000000000E+00 0.  1.
         13    1    4    4    0    0  0.77316236920E+02 -0.45509396920E+02 -0.14784739426E+03  0.17293859514E+03  0.00000000000E+00 0. -1.
          2    1    1    2  501    0 -0.14011547742E+03  0.17245485164E+03 -0.30408465129E+03  0.37661717701E+03  0.00000000000E+00 0. -1.
<scales pt_clust_5="13000.00000" pt_clust_6="13000.00000" pt_clust_7="13000.00000" pt_clust_8="13000.00000" pt_clust_9="210.46959"></scales>
<clustering>
<clus scale="   81.011">  5  6 -1 -1</clus>
<clus scale="   86.540">  2  5  1 -1</clus>
<clus scale="   91.086">  7  8 -1 -1</clus>
<clus scale="  210.470">  1  9  2 -1</clus>
<clus scale="  210.470">  1  5  2 -1</clus>
</clustering>
</event>
<event>
 9    1  0.5981539E-005  0.9694260E+02  0.7546771E-02  0.1291482E+00
         -2   -1    0    0    0  501 -0.00000000000E+00  0.00000000000E+00  0.41350305914E+03  0.41350305914E+03  0.00000000000E+00 0.  1.
         21   -1    0    0  501  502  0.00000000000E+00 -0.00000000000E+00 -0.64594376975E+02  0.64594376975E+02  0.00000000000E+00 0.  1.
        -24    2    1    2    0    0  0.44367384683E+02  0.21194494993E+02  0.25060638363E+03  0.26782375409E+03  0.80674235647E+02 0.  0.
         23    2    1    2    0    0 -0.83571827375E+01  0.52188285501E+02  0.49846309036E+02  0.11524868513E+03  0.89465888763E+02 0.  0.
         13    1    3    3    0    0 -0.91989279933E+00  0.33901921712E+02  0.17876831991E+03  0.18195685945E+03  0.00000000000E+00 0. -1.
        -14    1    3    3    0    0  0.45287277483E+02 -0.12707426719E+02  0.71838063720E+02  0.85866894638E+02  0.00000000000E+00 0.  1.
        -11    1    4    4    0    0  0.32006490159E+02 -0.38478557140E+01  0.43016717269E+01  0.32522696468E+02  0.00000000000E+00 0. -1.
         11    1    4    4    0    0 -0.40363672897E+02  0.56036141215E+02  0.45544637309E+02  0.82725988659E+02  0.00000000000E+00 0.  1.
         -1    1    1    2    0  502 -0.36010201946E+02 -0.73382780494E+02  0.48455989501E+02  0.95024996899E+02  0.00000000000E+00 0.  1.
<scales pt_clust_5="13000.00000" pt_clust_6="13000.00000" pt_clust_7="13000.00000" pt_clust_8="13000.00000" pt_clust_9="81.74208"></scales>
<clustering>
<clus scale="   80.674">  5  6 -1 -1</clus>
<clus scale="   81.742">  2  9  1 -1</clus>
<clus scale="   88.894">  1  5  2 -1</clus>
<clus scale="   89.466">  7  8 -1 -1</clus>
<clus scale="   81.742">  2  5  1 -1</clus>
</clustering>
</event>
<event>
 9    1  0.5981539E-005  0.2041362E+03  0.7546771E-02  0.1147062E+00
         21   -1    0    0  501  502  0.00000000000E+00  0.00000000000E+00  0.32590844566E+03  0.32590844566E+03  0.00000000000E+00 0. -1.
          1   -1    0    0  502    0 -0.00000000000E+00 -0.00000000000E+00 -0.26294228855E+03  0.26294228855E+03  0.00000000000E+00 0. -1.
         23    2    1    2    0    0 -0.15868917338E+03  0.11012422356E+03 -0.15784921546E+03  0.26517342528E+03  0.89949832081E+02 0.  0.
        -24    2    1    2    0    0  0.10025462563E+03 -0.10065493179E+03  0.20519091372E+03  0.26245323220E+03  0.81215655915E+02 0.  0.
         13    1    4    4    0    0  0.10568200128E+03 -0.61884834534E+02  0.13647441486E+03  0.18336761996E+03  0.00000000000E+00 0. -1.
        -14    1    4    4    0    0 -0.54273756456E+01 -0.38770097253E+02  0.68716498862E+02  0.79085612239E+02  0.00000000000E+00 0.  1.
        -13    1    3    3    0    0 -0.50293955330E+02 -0.99608937120E+01 -0.39962475695E+02  0.65005390623E+02  0.00000000000E+00 0.  1.
         13    1    3    3    0    0 -0.10839521804E+03  0.12008511728E+03 -0.11788673977E+03  0.20016803466E+03  0.00000000000E+00 0. -1.
          2    1    1    2  501    0  0.58434547741E+02 -0.94692917768E+01  0.15624458860E+02  0.61224076728E+02  0.00000000000E+00 0. -1.
<scales pt_clust_5="13000.00000" pt_clust_6="13000.00000" pt_clust_7="13000.00000" pt_clust_8="13000.00000" pt_clust_9="59.19682"></scales>
<clustering>
<clus scale="   59.197">  1  9  2 -1</clus>
<clus scale="   81.216">  5  6 -1 -1</clus>
<clus scale="   89.950">  7  8 -1 -1</clus>
<clus scale="  200.441">  1  5  2 -1</clus>
<clus scale="   59.197">  1  5  2 -1</clus>
</clustering>
</event>
<event>
 9    1  0.5981539E-005  0.1024038E+03  0.7546771E-02  0.1281710E+00
         21   -1    0    0  501  502  0.00000000000E+00  0.00000000000E+00  0.43620313335E+02  0.43620313335E+02  0.00000000000E+00 0.  1.
          1   -1    0    0  502    0 -0.00000000000E+00 -0.00000000000E+00 -0.48800093655E+03  0.48800093655E+03  0.00000000000E+00 0. -1.
        -24    2    1    2    0    0  0.24208488198E+02  0.37717408065E+02 -0.28177104960E+03  0.29635408594E+03  0.80138418308E+02 0.  0.
         23    2    1    2    0    0 -0.59489281173E+02  0.69495569122E+01 -0.12501084699E+03  0.16705033056E+03  0.93224622067E+02 0.  0.
         13    1    3    3    0    0  0.40088592708E+02  0.23326944237E+02 -0.26530371585E+03  0.26932750182E+03  0.00000000000E+00 0. -1.
        -14    1    3    3    0    0 -0.15880104510E+02  0.14390463827E+02 -0.16467333752E+02  0.27026584122E+02  0.00000000000E+00 0.  1.
        -11    1    4    4    0    0  0.22791939956E+02 -0.81394241158E+01 -0.46022507293E+02  0.51998018515E+02  0.00000000000E+00 0. -1.
         11    1    4    4    0    0 -0.82281221129E+02  0.15088981028E+02 -0.78988339696E+02  0.11505231205E+03  0.00000000000E+00 0.  1.
          2    1    1    2  501    0  0.35280792974E+02 -0.44666964977E+02 -0.37598726623E+02  0.68216833383E+02  0.00000000000E+00 0. -1.
<scales pt_clust_5="13000.00000" pt_clust_6="13000.00000" pt_clust_7="13000.00000" pt_clust_8="13000.00000" pt_clust_9="56.91987"></scales>
<clustering>
<clus scale="   56.920">  1  9  2 -1</clus>
<clus scale="   80.138">  5  6 -1 -1</clus>
<clus scale="   90.652">  2  5  1 -1</clus>
<clus scale="   93.225">  7  8 -1 -1</clus>
<clus scale="   56.920">  1  5  2 -1</clus>
</clustering>
</event>
<event>
 9    1  0.5981539E-005  0.1034359E+03  0.7546771E-02  0.1278860E+00
         21   -1    0    0  501  502  0.00000000000E+00  0.00000000000E+00  0.61174586749E+02  0.61174586749E+02  0.00000000000E+00 0. -1.
          3   -1    0    0  502    0 -0.00000000000E+00 -0.00000000000E+00 -0.33487924413E+03  0.33487924413E+03  0.00000000000E+00 0. -1.
         23    2    1    2    0    0 -0.63459742827E+01 -0.38775486213E+02 -0.12681242627E+03  0.16128878582E+03  0.91590781498E+02 0.  0.
        -24    2    1    2    0    0 -0.33752091109E+02  0.67590352307E+02 -0.39459892027E+02  0.11652859197E+03  0.79461753625E+02 0.  0.
         11    1    4    4    0    0  0.57886464138E+01  0.67754409501E+02 -0.13788737264E+02  0.69385140408E+02  0.00000000000E+00 0. -1.
        -12    1    4    4    0    0 -0.39540737523E+02 -0.16405719320E+00 -0.25671154762E+02  0.47143451565E+02  0.00000000000E+00 0.  1.
        -13    1    3    3    0    0  0.42397972220E+02 -0.21696037217E+02 -0.67946481329E+02  0.82976083327E+02  0.00000000000E+00 0.  1.
         13    1    3    3    0    0 -0.48743946502E+02 -0.17079448996E+02 -0.58865944938E+02  0.78312702495E+02  0.00000000000E+00 0. -1.
          4    1    1    2  501    0  0.40098065392E+02 -0.28814866095E+02 -0.10743233909E+03  0.11823645308E+03  0.00000000000E+00 0. -1.
<scales pt_clust_5="13000.00000" pt_clust_6="13000.00000" pt_clust_7="13000.00000" pt_clust_8="13000.00000" pt_clust_9="49.37766"></scales>
<clustering>
<clus scale="   49.378">  1  9  2 -1</clus>
<clus scale="   79.462">  5  6 -1 -1</clus>
<clus scale="   91.591">  7  8 -1 -1</clus>
<clus scale="   92.867">  1  5  2 -1</clus>
<clus scale="   49.378">  1  5  2 -1</clus>
</clustering>
</event>
<event>
 9    1  0.5981539E-005  0.1715242E+03  0.7546771E-02  0.1177572E+00
          1   -1    0    0  502    0 -0.00000000000E+00  0.00000000000E+00  0.34183965271E+03  0.34183965271E+03  0.00000000000E+00 0. -1.
         21   -1    0    0  501  502  0.00000000000E+00 -0.00000000000E+00 -0.18047764978E+03  0.18047764978E+03  0.00000000000E+00 0. -1.
         23    2    1    2    0    0  0.12416111859E+03 -0.54610255483E+02  0.10794556837E+02  0.16353375241E+03  0.90711092748E+02 0.  0.
        -24    2    1    2    0    0 -0.12550132632E+03  0.10204347070E+03 -0.19798343517E+02  0.18193274197E+03  0.80895583146E+02 0.  0.
         11    1    4    4    0    0 -0.72147542807E+02  0.91482051177E+02  0.14840737777E+02  0.11744990898E+03  0.00000000000E+00 0. -1.
        -12    1    4    4    0    0 -0.53353783517E+02  0.10561419523E+02 -0.34639081293E+02  0.64482832993E+02  0.00000000000E+00 0.  1.
        -11    1    3    3    0    0  0.54374689565E+02 -0.72763470062E+02  0.10350613779E+02  0.91423545361E+02  0.00000000000E+00 0. -1.
         11    1    3    3    0    0  0.69786429024E+02  0.18153214579E+02  0.44394305829E+00  0.72110207051E+02  0.00000000000E+00 0.  1.
          2    1    1    2  501    0  0.13402077364E+01 -0.47433215217E+02  0.17036578960E+03  0.17685080811E+03  0.00000000000E+00 0. -1.
<scales pt_clust_5="13000.00000" pt_clust_6="13000.00000" pt_clust_7="13000.00000" pt_clust_8="13000.00000" pt_clust_9="47.45217"></scales>
<clustering>
<clus scale="   47.452">  2  9  1 -1</clus>
<clus scale="   80.896">  5  6 -1 -1</clus>
<clus scale="   90.711">  7  8 -1 -1</clus>
<clus scale="  166.542">  2  5  1 -1</clus>
<clus scale="   47.452">  2  5  1 -1</clus>
</clustering>
</event>
<event>
 9    1  0.5981539E-005  0.1377862E+03  0.7546771E-02  0.1218783E+00
          1   -1    0    0  502    0 -0.00000000000E+00  0.00000000000E+00  0.35695622434E+03  0.35695622434E+03  0.00000000000E+00 0. -1.
         21   -1    0    0  501  502  0.00000000000E+00 -0.00000000000E+00 -0.88716809253E+02  0.88716809253E+02  0.00000000000E+00 0. -1.
         23    2    1    2    0    0 -0.11524466857E+03 -0.21730042381E+02  0.18135261619E+03  0.23422563072E+03  0.90660610572E+02 0.  0.
        -24    2    1    2    0    0  0.71302173126E+02  0.22989866030E+02 -0.50532664563E+01  0.10953810164E+03  0.79752908261E+02 0.  0.
         11    1    4    4    0    0  0.28526409146E+02  0.50065395453E+02 -0.10674302358E+02  0.58602393906E+02  0.00000000000E+00 0. -1.
        -12    1    4    4    0    0  0.42775763980E+02 -0.27075529423E+02  0.56210359018E+01  0.50935707733E+02  0.00000000000E+00 0.  1.
        -11    1    3    3    0    0 -0.57152371297E+02 -0.50765049533E+02  0.62312440457E+02  0.98622127511E+02  0.00000000000E+00 0.  1.
         11    1    3    3    0    0 -0.58092297275E+02  0.29035007152E+02  0.11904017574E+03  0.13560350321E+03  0.00000000000E+00 0. -1.
          2    1    1    2  501    0  0.43942495447E+02 -0.12598236493E+01  0.91940065352E+02  0.10190930124E+03  0.00000000000E+00 0. -1.
<scales pt_clust_5="13000.00000" pt_clust_6="13000.00000" pt_clust_7="13000.00000" pt_clust_8="13000.00000" pt_clust_9="43.96057"></scales>
<clustering>
<clus scale="   43.961">  2  9  1 -1</clus>
<clus scale="   79.753">  5  6 -1 -1</clus>
<clus scale="   90.661">  7  8 -1 -1</clus>
<clus scale="  130.867">  2  5  1 -1</clus>
<clus scale="   43.961">  2  5  1 -1</clus>
</clustering>
</event>
<event>
 9    1  0.5981539E-005  0.1063583E+03  0.7546771E-02  0.1280455E+00
          1   -1    0    0  502    0 -0.00000000000E+00  0.00000000000E+00  0.14891027471E+03  0.14891027471E+03  0.00000000000E+00 0. -1.
         21   -1    0    0  501  502  0.00000000000E+00 -0.00000000000E+00 -0.19884588137E+03  0.19884588137E+03  0.00000000000E+00 0.  1.
         23    2    1    2    0    0  0.23685243847E+02 -0.12592799515E+02  0.10890621092E+03  0.15168193854E+03  0.10211404570E+03 0.  0.
        -24    2    1    2    0    0 -0.42704680772E+02  0.25342551105E+02 -0.13097798479E+03  0.16000916071E+03  0.77341866758E+02 0.  0.
         13    1    4    4    0    0  0.20156599747E+02  0.34894703706E+01 -0.56703172289E+02  0.60280300799E+02  0.00000000000E+00 0. -1.
        -14    1    4    4    0    0 -0.62861280519E+02  0.21853080734E+02 -0.74274812504E+02  0.99728859909E+02  0.00000000000E+00 0.  1.
        -13    1    3    3    0    0 -0.16589569129E+02  0.32954342961E+02  0.71055323736E+02  0.80062860023E+02  0.00000000000E+00 0.  1.
         13    1    3    3    0    0  0.40274812976E+02 -0.45547142476E+02  0.37850887179E+02  0.71619078522E+02  0.00000000000E+00 0. -1.
          2    1    1    2  501    0  0.19019436925E+02 -0.12749751589E+02 -0.27863832782E+02  0.36065056826E+02  0.00000000000E+00 0. -1.
<scales pt_clust_5="13000.00000" pt_clust_6="13000.00000" pt_clust_7="13000.00000" pt_clust_8="13000.00000" pt_clust_9="22.89749"></scales>
<clustering>
<clus scale="   22.897">  2  9  1 -1</clus>
<clus scale="   77.342">  5  6 -1 -1</clus>
<clus scale="   82.865">  2  5  1 -1</clus>
<clus scale="  102.114">  7  8 -1 -1</clus>
<clus scale="   22.897">  2  5  1 -1</clus>
</clustering>
</event>
<event>
 9    1  0.5981539E-005  0.1574145E+03  0.7546771E-02  0.1195115E+00
          1   -1    0    0  502    0 -0.00000000000E+00  0.00000000000E+00  0.14233970784E+03  0.14233970784E+03  0.00000000000E+00 0. -1.
         21   -1    0    0  501  502  0.00000000000E+00 -0.00000000000E+00 -0.21984245668E+03  0.21984245668E+03  0.00000000000E+00 0. -1.
         23    2    1    2    0    0 -0.10798684285E+03 -0.45116163895E+02 -0.28848841687E+02  0.15260175066E+03  0.93586388777E+02 0.  0.
        -24    2    1    2    0    0  0.12305813072E+03  0.66604369555E+02 -0.73089599128E+02  0.17371971471E+03  0.72505201181E+02 0.  0.
         13    1    4    4    0    0  0.11083335630E+03  0.79904381224E+02 -0.74455798686E+02  0.15560337068E+03  0.00000000000E+00 0. -1.
        -14    1    4    4    0    0  0.12224774418E+02 -0.13300011668E+02  0.13661995573E+01  0.18116344035E+02  0.00000000000E+00 0.  1.
        -11    1    3    3    0    0 -0.11909515729E+02 -0.34410637231E+02  0.22835136312E+02  0.42981065249E+02  0.00000000000E+00 0.  1.
         11    1    3    3    0    0 -0.96077327125E+02 -0.10705526664E+02 -0.51683977999E+02  0.10962068541E+03  0.00000000000E+00 0. -1.
          2    1    1    2  501    0 -0.15071287868E+02 -0.21488205660E+02  0.24435691981E+02  0.35860699144E+02  0.00000000000E+00 0. -1.
<scales pt_clust_5="13000.00000" pt_clust_6="13000.00000" pt_clust_7="13000.00000" pt_clust_8="13000.00000" pt_clust_9="26.24666"></scales>
<clustering>
<clus scale="   26.247">  2  9  1 -1</clus>
<clus scale="   72.505">  5  6 -1 -1</clus>
<clus scale="   93.586">  7  8 -1 -1</clus>
<clus scale="  145.870">  2  5  1 -1</clus>
<clus scale="   26.247">  2  5  1 -1</clus>
</clustering>
</event>
<event>
 9    1  0.5981539E-005  0.1117725E+03  0.7546771E-02  0.1261885E+00
          3   -1    0    0  502    0 -0.00000000000E+00  0.00000000000E+00  0.33263069584E+03  0.33263069584E+03  0.00000000000E+00 0. -1.
         21   -1    0    0  501  502  0.00000000000E+00 -0.00000000000E+00 -0.23893416739E+03  0.23893416739E+03  0.00000000000E+00 0. -1.
        -24    2    1    2    0    0 -0.13072423991E+02  0.69133175777E+02  0.27250077256E+03  0.29270858183E+03  0.80444754748E+02 0.  0.
         23    2    1    2    0    0  0.34696253678E+01 -0.27239387881E+02 -0.14132982926E+01  0.96332718902E+02  0.92325363615E+02 0.  0.
         13    1    3    3    0    0 -0.31334992707E+02  0.79733522259E+02  0.22316673983E+03  0.23904541432E+03  0.00000000000E+00 0. -1.
        -14    1    3    3    0    0  0.18262568715E+02 -0.10600346482E+02  0.49334032734E+02  0.53663167512E+02  0.00000000000E+00 0.  1.
        -11    1    4    4    0    0 -0.16390046028E+02 -0.48063681142E+02  0.25595418542E+02  0.56867183015E+02  0.00000000000E+00 0.  1.
         11    1    4    4    0    0  0.19859671396E+02  0.20824293261E+02 -0.27008716835E+02  0.39465535887E+02  0.00000000000E+00 0. -1.
          4    1    1    2  501    0  0.96027986233E+01 -0.41893787896E+02 -0.17739094582E+03  0.18252356250E+03  0.00000000000E+00 0. -1.
<scales pt_clust_5="13000.00000" pt_clust_6="13000.00000" pt_clust_7="13000.00000" pt_clust_8="13000.00000" pt_clust_9="42.98027"></scales>
<clustering>
<clus scale="   42.980">  2  9  1 -1</clus>
<clus scale="   80.445">  5  6 -1 -1</clus>
<clus scale="   92.325">  7  8 -1 -1</clus>
<clus scale="  102.179">  1  5  2 -1</clus>
<clus scale="   42.980">  2  5  1 -1</clus>
</clustering>
</event>
<event>
 9    1  0.5981539E-005  0.2127119E+03  0.7546771E-02  0.1173901E+00
         21   -1    0    0  501  502  0.00000000000E+00  0.00000000000E+00  0.90457229074E+02  0.90457229074E+02  0.00000000000E+00 0. -1.
          1   -1    0    0  502    0 -0.00000000000E+00 -0.00000000000E+00 -0.86676133773E+03  0.86676133773E+03  0.00000000000E+00 0. -1.
        -24    2    1    2    0    0 -0.24466483900E+02 -0.45178744672E+02 -0.50488164804E+02  0.10748721065E+03  0.79779181892E+02 0.  0.
         23    2    1    2    0    0 -0.31012665322E+02  0.21871433217E+03 -0.53571702301E+03  0.58642519247E+03  0.90022403394E+02 0.  0.
         13    1    3    3    0    0 -0.25394255972E+02 -0.15708224874E+02  0.16629703196E+02  0.34178408293E+02  0.00000000000E+00 0. -1.
        -14    1    3    3    0    0  0.92777207124E+00 -0.29470519797E+02 -0.67117867999E+02  0.73308802356E+02  0.00000000000E+00 0.  1.
        -11    1    4    4    0    0 -0.58021346491E+01  0.19496759259E+03 -0.38273709071E+03  0.42957386737E+03  0.00000000000E+00 0. -1.
         11    1    4    4    0    0 -0.25210530673E+02  0.23746739587E+02 -0.15297993231E+03  0.15685132510E+03  0.00000000000E+00 0.  1.
          2    1    1    2  501    0  0.55479149223E+02 -0.17353558750E+03 -0.19009892084E+03  0.26330616368E+03  0.00000000000E+00 0. -1.
<scales pt_clust_5="13000.00000" pt_clust_6="13000.00000" pt_clust_7="13000.00000" pt_clust_8="13000.00000" pt_clust_9="192.72338"></scales>
<clustering>
<clus scale="   79.779">  5  6 -1 -1</clus>
<clus scale="   90.022">  7  8 -1 -1</clus>
<clus scale="   94.892">  2  5  1 -1</clus>
<clus scale="  192.723">  1  9  2 -1</clus>
<clus scale="  192.723">  1  5  2 -1</clus>
</clustering>
</event>
<event>
 9    1  0.5981539E-005  0.1251736E+03  0.7546771E-02  0.1236663E+00
         21   -1    0    0  501  502  0.00000000000E+00  0.00000000000E+00  0.88785620077E+02  0.88785620077E+02  0.00000000000E+00 0. -1.
          1   -1    0    0  502    0 -0.00000000000E+00 -0.00000000000E+00 -0.27462900105E+03  0.27462900105E+03  0.00000000000E+00 0. -1.
         23    2    1    2    0    0  0.22569130942E+02 -0.70079635452E+02 -0.10295223033E+03  0.15550394084E+03  0.90342641697E+02 0.  0.
        -24    2    1    2    0    0 -0.50563640164E+02  0.10220991579E+03 -0.39034448026E+02  0.14675957380E+03  0.83732525195E+02 0.  0.
         11    1    4    4    0    0 -0.72377733728E+02  0.78635566005E+02 -0.41264311022E+02  0.11456365892E+03  0.00000000000E+00 0. -1.
        -12    1    4    4    0    0  0.21814093564E+02  0.23574349786E+02  0.22298629964E+01  0.32195914878E+02  0.00000000000E+00 0.  1.
        -13    1    3    3    0    0  0.29086466842E+02 -0.23343844163E+02  0.50568081058E+01  0.37636802758E+02  0.00000000000E+00 0. -1.
         13    1    3    3    0    0 -0.65173358996E+01 -0.46735791290E+02 -0.10800903844E+03  0.11786713808E+03  0.00000000000E+00 0.  1.
          2    1    1    2  501    0  0.27994509222E+02 -0.32130280338E+02 -0.43856702616E+02  0.61151106495E+02  0.00000000000E+00 0. -1.
<scales pt_clust_5="13000.00000" pt_clust_6="13000.00000" pt_clust_7="13000.00000" pt_clust_8="13000.00000" pt_clust_9="42.61513"></scales>
<clustering>
<clus scale="   42.615">  1  9  2 -1</clus>
<clus scale="   83.733">  5  6 -1 -1</clus>
<clus scale="   90.343">  7  8 -1 -1</clus>
<clus scale="  120.490">  1  5  2 -1</clus>
<clus scale="   42.615">  1  5  2 -1</clus>
</clustering>
</event>
<event>
 9    1  0.5981539E-005  0.1191643E+03  0.7546771E-02  0.1248476E+00
          1   -1    0    0  502    0 -0.00000000000E+00  0.00000000000E+00  0.52380920838E+03  0.52380920838E+03  0.00000000000E+00 0. -1.
         21   -1    0    0  501  502  0.00000000000E+00 -0.00000000000E+00 -0.14198901017E+03  0.14198901017E+03  0.00000000000E+00 0. -1.
         23    2    1    2    0    0  0.82619401904E+01  0.57113399753E+02  0.22590411592E+03  0.25107201843E+03  0.93135861847E+02 0.  0.
        -24    2    1    2    0    0 -0.92764013528E+01 -0.91441195430E+02  0.26950692153E+03  0.29605731016E+03  0.81045705037E+02 0.  0.
         11    1    4    4    0    0 -0.40380644360E+02 -0.49757036284E+02  0.19448635610E+03  0.20477134029E+03  0.00000000000E+00 0. -1.
        -12    1    4    4    0    0  0.31104243008E+02 -0.41684159146E+02  0.75020565432E+02  0.91285969867E+02  0.00000000000E+00 0.  1.
        -13    1    3    3    0    0 -0.60244525432E+01 -0.22382231662E+02  0.22869564827E+02  0.32561869080E+02  0.00000000000E+00 0.  1.
         13    1    3    3    0    0  0.14286392734E+02  0.79495631415E+02  0.20303455109E+03  0.21851014935E+03  0.00000000000E+00 0. -1.
          2    1    1    2  501    0  0.10144611624E+01  0.34327795676E+02 -0.11359083924E+03  0.11866888997E+03  0.00000000000E+00 0. -1.
<scales pt_clust_5="13000.00000" pt_clust_6="13000.00000" pt_clust_7="13000.00000" pt_clust_8="13000.00000" pt_clust_9="34.34278"></scales>
<clustering>
<clus scale="   34.343">  2  9  1 -1</clus>
<clus scale="   81.046">  5  6 -1 -1</clus>
<clus scale="   93.136">  7  8 -1 -1</clus>
<clus scale="  109.974">  2  5  1 -1</clus>
<clus scale="   34.343">  2  5  1 -1</clus>
</clustering>
</event>
<event>
 9    1  0.5981539E-005  0.1497535E+03  0.7546771E-02  0.1213913E+00
         -4   -1    0    0    0  501 -0.00000000000E+00  0.00000000000E+00  0.17613797125E+03  0.17613797125E+03  0.00000000000E+00 0.  1.
         21   -1    0    0  501  502  0.00000000000E+00 -0.00000000000E+00 -0.77923485034E+03  0.77923485034E+03  0.00000000000E+00 0.  1.
        -24    2    1    2    0    0  0.75881318856E+02 -0.24062456285E+02  0.85127711545E+02  0.14146043714E+03  0.80170765545E+02 0.  0.
         23    2    1    2    0    0  0.53150085378E+01  0.11493449404E+03 -0.36682656501E+02  0.15107193400E+03  0.90768522730E+02 0.  0.
         13    1    3    3    0    0  0.27387201038E+02 -0.71215419191E+01 -0.12660758599E+02  0.31001128178E+02  0.00000000000E+00 0. -1.
        -14    1    3    3    0    0  0.48494117818E+02 -0.16940914366E+02  0.97788470144E+02  0.11045930896E+03  0.00000000000E+00 0.  1.
        -13    1    4    4    0    0 -0.23427040441E+02  0.84888042703E+02  0.99176453401E+01  0.88618089050E+02  0.00000000000E+00 0. -1.
         13    1    4    4    0    0  0.28742048979E+02  0.30046451340E+02 -0.46600301842E+02  0.62453844952E+02  0.00000000000E+00 0.  1.
         -3    1    1    2    0  502 -0.81196327394E+02 -0.90872037758E+02 -0.65154193413E+03  0.66284045045E+03  0.00000000000E+00 0.  1.
<scales pt_clust_5="13000.00000" pt_clust_6="13000.00000" pt_clust_7="13000.00000" pt_clust_8="13000.00000" pt_clust_9="119.10996"></scales>
<clustering>
<clus scale="   80.171">  5  6 -1 -1</clus>
<clus scale="   90.769">  7  8 -1 -1</clus>
<clus scale="  112.979">  1  5  2 -1</clus>
<clus scale="  119.110">  2  9  1 -1</clus>
<clus scale="  119.110">  2  5  1 -1</clus>
</clustering>
</event>
<event>
 9    1  0.5981539E-005  0.9260770E+02  0.7546771E-02  0.1304149E+00
         21   -1    0    0  501  502  0.00000000000E+00  0.00000000000E+00  0.30530279005E+03  0.30530279005E+03  0.00000000000E+00 0.  1.
          3   -1    0    0  502    0 -0.00000000000E+00 -0.00000000000E+00 -0.78269774505E+02  0.78269774505E+02  0.00000000000E+00 0. -1.
         23    2    1    2    0    0  0.20393276296E+01 -0.17121512555E+02  0.30572857841E+02  0.98584076860E+02  0.92123913966E+02 0.  0.
        -24    2    1    2    0    0 -0.22877458258E+01 -0.19149465586E+02  0.22449855515E+03  0.23914312482E+03  0.80111778603E+02 0.  0.
         11    1    4    4    0    0 -0.33337891269E+02  0.12988227546E+02  0.12600589547E+03  0.13098700219E+03  0.00000000000E+00 0. -1.
        -12    1    4    4    0    0  0.31050145443E+02 -0.32137693132E+02  0.98492659672E+02  0.10815612262E+03  0.00000000000E+00 0.  1.
        -11    1    3    3    0    0  0.43090093715E+02  0.82570564169E+01  0.55591386983E+01  0.44224870606E+02  0.00000000000E+00 0.  1.
         11    1    3    3    0    0 -0.41050766085E+02 -0.25378568971E+02  0.25013719142E+02  0.54359206254E+02  0.00000000000E+00 0. -1.
          4    1    1    2  501    0  0.24841819618E+00  0.36270978140E+02 -0.28038397438E+02  0.45845362882E+02  0.00000000000E+00 0. -1.
<scales pt_clust_5="13000.00000" pt_clust_6="13000.00000" pt_clust_7="13000.00000" pt_clust_8="13000.00000" pt_clust_9="36.27185"></scales>
<clustering>
<clus scale="   36.272">  1  9  2 -1</clus>
<clus scale="   80.112">  5  6 -1 -1</clus>
<clus scale="   80.668">  1  5  2 -1</clus>
<clus scale="   92.124">  7  8 -1 -1</clus>
<clus scale="   36.272">  1  5  2 -1</clus>
</clustering>
</event>
<event>
 9    1  0.5981539E-005  0.9644279E+02  0.7546771E-02  0.1292919E+00
         21   -1    0    0  501  502  0.00000000000E+00  0.00000000000E+00  0.10900523127E+03  0.10900523127E+03  0.00000000000E+00 0.  1.
          1   -1    0    0  502    0 -0.00000000000E+00 -0.00000000000E+00 -0.15385788361E+03  0.15385788361E+03  0.00000000000E+00 0. -1.
        -24    2    1    2    0    0 -0.27319033550E+02 -0.17365806527E+02 -0.57333718690E+02  0.10377604604E+03  0.80214784189E+02 0.  0.
         23    2    1    2    0    0  0.56867429087E+02 -0.12401880932E+02  0.33868507600E+02  0.11200580357E+03  0.89501469738E+02 0.  0.
         13    1    3    3    0    0  0.11801044134E+02  0.17552168748E+02  0.55808023473E+01  0.21874382854E+02  0.00000000000E+00 0. -1.
        -14    1    3    3    0    0 -0.39120077684E+02 -0.34917975275E+02 -0.62914521037E+02  0.81901663186E+02  0.00000000000E+00 0.  1.
        -13    1    4    4    0    0  0.27401467727E+02 -0.34829402449E+02  0.54000492711E+02  0.69856860232E+02  0.00000000000E+00 0.  1.
         13    1    4    4    0    0  0.29465961360E+02  0.22427521517E+02 -0.20131985110E+02  0.42148943341E+02  0.00000000000E+00 0. -1.
          2    1    1    2  501    0 -0.29548395537E+02  0.29767687459E+02 -0.21387441256E+02  0.47081265264E+02  0.00000000000E+00 0. -1.
<scales pt_clust_5="13000.00000" pt_clust_6="13000.00000" pt_clust_7="13000.00000" pt_clust_8="13000.00000" pt_clust_9="41.94311"></scales>
<clustering>
<clus scale="   41.943">  1  9  2 -1</clus>
<clus scale="   80.215">  5  6 -1 -1</clus>
<clus scale="   87.893">  2  5  1 -1</clus>
<clus scale="   89.501">  7  8 -1 -1</clus>
<clus scale="   41.943">  1  5  2 -1</clus>
</clustering>
</event>
<event>
 9    1  0.5981539E-005  0.1422961E+03  0.7546771E-02  0.1234795E+00
         21   -1    0    0  501  502  0.00000000000E+00  0.00000000000E+00  0.85733711292E+02  0.85733711292E+02  0.00000000000E+00 0. -1.
          3   -1    0    0  502    0 -0.00000000000E+00 -0.00000000000E+00 -0.42692579756E+03  0.42692579756E+03  0.00000000000E+00 0. -1.
        -24    2    1    2    0    0 -0.29021430388E+02 -0.13723130247E+02 -0.20113511442E+03  0.21844111747E+03  0.78934275338E+02 0.  0.
         23    2    1    2    0    0 -0.17709136012E+02  0.11186147489E+03 -0.50550451230E+02  0.15341250458E+03  0.90296430610E+02 0.  0.
         13    1    3    3    0    0 -0.49381785350E+02 -0.22736749338E+01 -0.72800333686E+02  0.87997834672E+02  0.00000000000E+00 0. -1.
        -14    1    3    3    0    0  0.20360354963E+02 -0.11449455313E+02 -0.12833478073E+03  0.13044328280E+03  0.00000000000E+00 0.  1.
        -11    1    4    4    0    0  0.23082396399E+02  0.59996859886E+02  0.85257322065E+01  0.64846806625E+02  0.00000000000E+00 0. -1.
         11    1    4    4    0    0 -0.40791532411E+02  0.51864615000E+02 -0.59076183436E+02  0.88565697959E+02  0.00000000000E+00 0.  1.
          4    1    1    2  501    0  0.46730566399E+02 -0.98138344639E+02 -0.89506520624E+02  0.14080588680E+03  0.00000000000E+00 0. -1.
<scales pt_clust_5="13000.00000" pt_clust_6="13000.00000" pt_clust_7="13000.00000" pt_clust_8="13000.00000" pt_clust_9="109.97615"></scales>
<clustering>
<clus scale="   78.934">  5  6 -1 -1</clus>
<clus scale="   85.213">  2  5  1 -1</clus>
<clus scale="   90.296">  7  8 -1 -1</clus>
<clus scale="  109.976">  1  9  2 -1</clus>
<clus scale="  109.976">  1  5  2 -1</clus>
</clustering>
</event>
<event>
 9    1  0.5981539E-005  0.1794919E+03  0.7546771E-02  0.1188489E+00
         21   -1    0    0  501  502  0.00000000000E+00  0.00000000000E+00  0.17839787231E+03  0.17839787231E+03  0.00000000000E+00 0. -1.
          1   -1    0    0  502    0 -0.00000000000E+00 -0.00000000000E+00 -0.36261143271E+03  0.36261143271E+03  0.00000000000E+00 0. -1.
        -24    2    1    2    0    0  0.71394754350E+02 -0.35588825831E+02  0.28690533316E+02  0.11741166564E+03  0.81231625952E+02 0.  0.
         23    2    1    2    0    0  0.11150306419E+03  0.81855763554E+02 -0.49847573068E+02  0.17423912141E+03  0.93494339596E+02 0.  0.
         13    1    3    3    0    0  0.59918705620E+02  0.83452751902E+00  0.45940322521E+02  0.75508019129E+02  0.00000000000E+00 0. -1.
        -14    1    3    3    0    0  0.11476048729E+02 -0.36423353350E+02 -0.17249789205E+02  0.41903646516E+02  0.00000000000E+00 0.  1.
        -13    1    4    4    0    0  0.87238237826E+02  0.14554205007E+02 -0.25593525937E+01  0.88480988399E+02  0.00000000000E+00 0. -1.
         13    1    4    4    0    0  0.24264826369E+02  0.67301558547E+02 -0.47288220475E+02  0.85758133009E+02  0.00000000000E+00 0.  1.
          2    1    1    2  501    0 -0.18289781854E+03 -0.46266937723E+02 -0.16305652065E+03  0.24935851797E+03  0.00000000000E+00 0. -1.
<scales pt_clust_5="13000.00000" pt_clust_6="13000.00000" pt_clust_7="13000.00000" pt_clust_8="13000.00000" pt_clust_9="153.21942"></scales>
<clustering>
<clus scale="   81.232">  5  6 -1 -1</clus>
<clus scale="   93.494">  7  8 -1 -1</clus>
<clus scale="  113.852">  2  5  1 -1</clus>
<clus scale="  153.219">  1  9  2 -1</clus>
<clus scale="  153.219">  1  5  2 -1</clus>
</clustering>
</event>
<event>
 9    1  0.5981539E-005  0.1477552E+03  0.7546771E-02  0.1205058E+00
         21   -1    0    0  501  502  0.00000000000E+00  0.00000000000E+00  0.29192025993E+03  0.29192025993E+03  0.00000000000E+00 0. -1.
         -2   -1    0    0    0  501 -0.00000000000E+00 -0.00000000000E+00 -0.26367890943E+03  0.26367890943E+03  0.00000000000E+00 0.  1.
         23    2    1    2    0    0 -0.11183116413E+03  0.40294958906E+02 -0.21128007289E+03  0.25864729612E+03  0.90162417921E+02 0.  0.
        -24    2    1    2    0    0  0.86432940433E+02 -0.47722871563E+02  0.23855386887E+03  0.27047207311E+03  0.80616799245E+02 0.  0.
         11    1    4    4    0    0  0.56372042599E+02 -0.62125473640E+02  0.21154150635E+03  0.22756799109E+03  0.00000000000E+00 0. -1.
        -12    1    4    4    0    0  0.30060897834E+02  0.14402602077E+02  0.27012362519E+02  0.42904082021E+02  0.00000000000E+00 0.  1.
        -11    1    3    3    0    0  0.97485217278E+01  0.18054433531E+02 -0.10949529895E+02  0.23257008641E+02  0.00000000000E+00 0. -1.
         11    1    3    3    0    0 -0.12157968586E+03  0.22240525375E+02 -0.20033054300E+03  0.23539028748E+03  0.00000000000E+00 0.  1.
         -1    1    1    2    0  502  0.25398223695E+02  0.74279126568E+01  0.96755452320E+00  0.26479800132E+02  0.00000000000E+00 0.  1.
<scales pt_clust_5="13000.00000" pt_clust_6="13000.00000" pt_clust_7="13000.00000" pt_clust_8="13000.00000" pt_clust_9="26.46213"></scales>
<clustering>
<clus scale="   26.462">  1  9  2 -1</clus>
<clus scale="   80.617">  5  6 -1 -1</clus>
<clus scale="   90.162">  7  8 -1 -1</clus>
<clus scale="  142.132">  1  5  2 -1</clus>
<clus scale="   26.462">  1  5  2 -1</clus>
</clustering>
</event>
<event>
 9    1  0.5981539E-005  0.2320040E+03  0.7546771E-02  0.1125916E+00
          3   -1    0    0  502    0 -0.00000000000E+00  0.00000000000E+00  0.66048149105E+03  0.66048149105E+03  0.00000000000E+00 0. -1.
         21   -1    0    0  501  502  0.00000000000E+00 -0.00000000000E+00 -0.25383321350E+03  0.25383321350E+03  0.00000000000E+00 0.  1.
        -24    2    1    2    0    0  0.16182350636E+03 -0.99219007325E+02  0.43119761260E+02  0.21071909614E+03  0.80696747407E+02 0.  0.
         23    2    1    2    0    0 -0.16079794604E+03  0.21715423535E+03 -0.35653503504E+02  0.28735522749E+03  0.91048959746E+02 0.  0.
         11    1    3    3    0    0  0.39029164911E+02 -0.24308985885E+01  0.37629433633E+02  0.54269321510E+02  0.00000000000E+00 0. -1.
        -12    1    3    3    0    0  0.12279434144E+03 -0.96788108737E+02  0.54903276272E+01  0.15644977463E+03  0.00000000000E+00 0.  1.
        -13    1    4    4    0    0 -0.14631258243E+02  0.82765150763E+02 -0.28216384404E+02  0.88658379454E+02  0.00000000000E+00 0.  1.
         13    1    4    4    0    0 -0.14616668780E+03  0.13438908459E+03 -0.74371191000E+01  0.19869684803E+03  0.00000000000E+00 0. -1.
          4    1    1    2  501    0 -0.10255603163E+01 -0.11793522802E+03  0.39918201980E+03  0.41624038093E+03  0.00000000000E+00 0. -1.
<scales pt_clust_5="13000.00000" pt_clust_6="13000.00000" pt_clust_7="13000.00000" pt_clust_8="13000.00000" pt_clust_9="117.93975"></scales>
<clustering>
<clus scale="   80.697">  5  6 -1 -1</clus>
<clus scale="   91.049">  7  8 -1 -1</clus>
<clus scale="  117.940">  2  9  1 -1</clus>
<clus scale="  228.140">  1  5  2 -1</clus>
<clus scale="  117.940">  2  5  1 -1</clus>
</clustering>
</event>
<event>
 9    1  0.5981539E-005  0.1043256E+03  0.7546771E-02  0.1274311E+00
         -2   -1    0    0    0  501 -0.00000000000E+00  0.00000000000E+00  0.27366582670E+02  0.27366582670E+02  0.00000000000E+00 0.  1.
         21   -1    0    0  501  502  0.00000000000E+00 -0.00000000000E+00 -0.91882420544E+03  0.91882420544E+03  0.00000000000E+00 0.  1.
        -24    2    1    2    0    0  0.15750141534E+02 -0.85449314524E+02 -0.21144502444E+03  0.24222561222E+03  0.80091176450E+02 0.  0.
         23    2    1    2    0    0 -0.25944770641E+01 -0.42903149141E+00 -0.44496083612E+03  0.45337089674E+03  0.86879853553E+02 0.  0.
         11    1    3    3    0    0  0.39384397039E+02 -0.22933127294E+02 -0.50884232351E+02  0.68310058992E+02  0.00000000000E+00 0. -1.
        -12    1    3    3    0    0 -0.23634255505E+02 -0.62516187230E+02 -0.16056079209E+03  0.17391555323E+03  0.00000000000E+00 0.  1.
        -13    1    4    4    0    0  0.38213978435E+02 -0.17949746229E+02 -0.19841687805E+03  0.20285896340E+03  0.00000000000E+00 0.  1.
         13    1    4    4    0    0 -0.40808455499E+02  0.17520714738E+02 -0.24654395806E+03  0.25051193334E+03  0.00000000000E+00 0. -1.
         -1    1    1    2    0  502 -0.13155664470E+02  0.85878346015E+02 -0.23505176222E+03  0.25059427915E+03  0.00000000000E+00 0.  1.
<scales pt_clust_5="13000.00000" pt_clust_6="13000.00000" pt_clust_7="13000.00000" pt_clust_8="13000.00000" pt_clust_9="86.88020"></scales>
<clustering>
<clus scale="   80.091">  5  6 -1 -1</clus>
<clus scale="   86.880">  7  8 -1 -1</clus>
<clus scale="   86.880">  2  9  1 -1</clus>
<clus scale="   98.744">  1  5  2 -1</clus>
<clus scale="   86.880">  2  5  1 -1</clus>
</clustering>
</event>
<event>
 9    1  0.5981539E-005  0.3072197E+03  0.7546771E-02  0.1082009E+00
          1   -1    0    0  502    0 -0.00000000000E+00  0.00000000000E+00  0.78157599734E+03  0.78157599734E+03  0.00000000000E+00 0. -1.
         21   -1    0    0  501  502  0.00000000000E+00 -0.00000000000E+00 -0.47029338411E+03  0.47029338411E+03  0.00000000000E+00 0. -1.
         23    2    1    2    0    0 -0.30539466891E+03  0.10379968014E+02  0.64490829155E+03  0.71947775501E+03  0.91476160394E+02 0.  0.
        -24    2    1    2    0    0  0.23581735161E+03  0.47881445158E+02 -0.85592991192E+02  0.26827875429E+03  0.82127180342E+02 0.  0.
         13    1    4    4    0    0  0.12330467638E+03  0.53089911025E+02 -0.78290553042E+02  0.15540911352E+03  0.00000000000E+00 0. -1.
        -14    1    4    4    0    0  0.11251267523E+03 -0.52084658673E+01 -0.73024381508E+01  0.11286964077E+03  0.00000000000E+00 0.  1.
        -13    1    3    3    0    0 -0.11702212082E+03 -0.58519411117E+01  0.15463956810E+03  0.19401499426E+03  0.00000000000E+00 0.  1.
         13    1    3    3    0    0 -0.18837254809E+03  0.16231909126E+02  0.49026872345E+03  0.52546276076E+03  0.00000000000E+00 0. -1.
          2    1    1    2  501    0  0.69577317292E+02 -0.58261413172E+02 -0.24803268713E+03  0.26411287214E+03  0.00000000000E+00 0. -1.
<scales pt_clust_5="13000.00000" pt_clust_6="13000.00000" pt_clust_7="13000.00000" pt_clust_8="13000.00000" pt_clust_9="90.74908"></scales>
<clustering>
<clus scale="   82.127">  5  6 -1 -1</clus>
<clus scale="   90.749">  2  9  1 -1</clus>
<clus scale="   91.476">  7  8 -1 -1</clus>
<clus scale="  304.567">  2  5  1 -1</clus>
<clus scale="   90.749">  2  5  1 -1</clus>
</clustering>
</event>
<event>
 9    1  0.5981539E-005  0.2244300E+03  0.7546771E-02  0.1148561E+00
         21   -1    0    0  501  502  0.00000000000E+00  0.00000000000E+00  0.22439674864E+03  0.22439674864E+03  0.00000000000E+00 0.  1.
          1   -1    0    0  502    0 -0.00000000000E+00 -0.00000000000E+00 -0.64090437535E+03  0.64090437535E+03  0.00000000000E+00 0. -1.
         23    2    1    2    0    0 -0.93406268923E+02 -0.64768695238E+02  0.40620793761E+02  0.15111403557E+03  0.90915828681E+02 0.  0.
        -24    2    1    2    0    0  0.17251514897E+03 -0.12890852862E+03 -0.22202869088E+02  0.23155957450E+03  0.82146112341E+02 0.  0.
         11    1    4    4    0    0  0.10240494319E+03 -0.93149477032E+02 -0.51325725756E+02  0.14764121236E+03  0.00000000000E+00 0. -1.
        -12    1    4    4    0    0  0.70110205779E+02 -0.35759051584E+02  0.29122856669E+02  0.83918362145E+02  0.00000000000E+00 0.  1.
        -11    1    3    3    0    0 -0.26306454238E+02  0.23007203253E+02  0.71693137767E+01  0.35675762026E+02  0.00000000000E+00 0. -1.
         11    1    3    3    0    0 -0.67099814685E+02 -0.87775898491E+02  0.33451479985E+02  0.11543827355E+03  0.00000000000E+00 0.  1.
          2    1    1    2  501    0 -0.79108880051E+02  0.19367722385E+03 -0.43492555138E+03  0.48262751392E+03  0.00000000000E+00 0. -1.
<scales pt_clust_5="13000.00000" pt_clust_6="13000.00000" pt_clust_7="13000.00000" pt_clust_8="13000.00000" pt_clust_9="208.85617"></scales>
<clustering>
<clus scale="   82.146">  5  6 -1 -1</clus>
<clus scale="   90.916">  7  8 -1 -1</clus>
<clus scale="  145.552">  2  7  1 -1</clus>
<clus scale="  208.856">  1  9  2 -1</clus>
<clus scale="  208.856">  1  5  2 -1</clus>
</clustering>
</event>
<event>
 9    1  0.5981539E-005  0.2589722E+03  0.7546771E-02  0.1108263E+00
         21   -1    0    0  501  502  0.00000000000E+00  0.00000000000E+00  0.19828497961E+03  0.19828497961E+03  0.00000000000E+00 0. -1.
          1   -1    0    0  502    0 -0.00000000000E+00 -0.00000000000E+00 -0.11286486006E+04  0.11286486006E+04  0.00000000000E+00 0. -1.
         23    2    1    2    0    0 -0.23600659701E+03  0.12768239054E+03 -0.98232385954E+03  0.10222651301E+04  0.89799357308E+02 0.  0.
        -24    2    1    2    0    0  0.12458444954E+03 -0.73597976978E+02 -0.11223971931E+02  0.16562794084E+03  0.79804072329E+02 0.  0.
         13    1    4    4    0    0  0.13486445294E+03 -0.60527719810E+02 -0.14977027280E+02  0.14858107847E+03  0.00000000000E+00 0. -1.
        -14    1    4    4    0    0 -0.10280003404E+02 -0.13070257168E+02  0.37530553487E+01  0.17046862376E+02  0.00000000000E+00 0.  1.
        -11    1    3    3    0    0 -0.14690945404E+03  0.10839191595E+03 -0.76718808648E+03  0.78861191670E+03  0.00000000000E+00 0. -1.
         11    1    3    3    0    0 -0.89097142963E+02  0.19290474590E+02 -0.21513577306E+03  0.23365321343E+03  0.00000000000E+00 0.  1.
          2    1    1    2  501    0  0.11142214747E+03 -0.54084413562E+02  0.63184210530E+02  0.13904050920E+03  0.00000000000E+00 0. -1.
<scales pt_clust_5="13000.00000" pt_clust_6="13000.00000" pt_clust_7="13000.00000" pt_clust_8="13000.00000" pt_clust_9="123.85483"></scales>
<clustering>
<clus scale="   79.804">  5  6 -1 -1</clus>
<clus scale="   89.799">  7  8 -1 -1</clus>
<clus scale="  123.855">  1  9  2 -1</clus>
<clus scale="  255.678">  1  5  2 -1</clus>
<clus scale="  123.855">  1  5  2 -1</clus>
</clustering>
</event>
<event>
 9    1  0.5981539E-005  0.9816578E+02  0.7546771E-02  0.1290470E+00
         -2   -1    0    0    0  501 -0.00000000000E+00  0.00000000000E+00  0.34792889269E+02  0.34792889269E+02  0.00000000000E+00 0.  1.
         21   -1    0    0  501  502  0.00000000000E+00 -0.00000000000E+00 -0.34543529268E+03  0.34543529268E+03  0.00000000000E+00 0. -1.
         23    2    1    2    0    0  0.29217335873E+02 -0.55934650200E+01 -0.10285156476E+03  0.14088263587E+03  0.91567096427E+02 0.  0.
        -24    2    1    2    0    0 -0.44132749031E+02 -0.15808607352E+02 -0.16748964297E+03  0.19133820681E+03  0.79749089506E+02 0.  0.
         11    1    4    4    0    0 -0.19400990621E+02  0.32623841865E+02 -0.63221978592E+02  0.73740979599E+02  0.00000000000E+00 0. -1.
        -12    1    4    4    0    0 -0.24731758410E+02 -0.48432449218E+02 -0.10426766438E+03  0.11759722721E+03  0.00000000000E+00 0.  1.
        -11    1    3    3    0    0 -0.14775715121E+01 -0.22518103770E+02 -0.10339273394E+03  0.10582677188E+03  0.00000000000E+00 0. -1.
         11    1    3    3    0    0  0.30694907385E+02  0.16924638750E+02  0.54116917038E+00  0.35055863993E+02  0.00000000000E+00 0.  1.
         -1    1    1    2    0  502  0.14915413158E+02  0.21402072372E+02 -0.40301195670E+02  0.48007339271E+02  0.00000000000E+00 0.  1.
<scales pt_clust_5="13000.00000" pt_clust_6="13000.00000" pt_clust_7="13000.00000" pt_clust_8="13000.00000" pt_clust_9="26.08674"></scales>
<clustering>
<clus scale="   26.087">  2  9  1 -1</clus>
<clus scale="   79.749">  5  6 -1 -1</clus>
<clus scale="   87.246">  2  5  1 -1</clus>
<clus scale="   91.567">  7  8 -1 -1</clus>
<clus scale="   26.087">  2  5  1 -1</clus>
</clustering>
</event>
<event>
 9    1  0.5981539E-005  0.9478858E+02  0.7546771E-02  0.1297738E+00
          1   -1    0    0  502    0 -0.00000000000E+00  0.00000000000E+00  0.32597802742E+03  0.32597802742E+03  0.00000000000E+00 0. -1.
         21   -1    0    0  501  502  0.00000000000E+00 -0.00000000000E+00 -0.86757623205E+02  0.86757623205E+02  0.00000000000E+00 0.  1.
        -24    2    1    2    0    0  0.16503916955E+02  0.89204591297E+01  0.24679658238E+03  0.26069519035E+03  0.81862539257E+02 0.  0.
         23    2    1    2    0    0 -0.48856332675E+02  0.14685416151E+02  0.14258289197E+02  0.10642620684E+03  0.92307291164E+02 0.  0.
         11    1    3    3    0    0  0.38616541094E+02  0.28668594204E+02  0.10037872909E+03  0.11130595130E+03  0.00000000000E+00 0. -1.
        -12    1    3    3    0    0 -0.22112624138E+02 -0.19748135075E+02  0.14641785328E+03  0.14938923906E+03  0.00000000000E+00 0.  1.
        -13    1    4    4    0    0 -0.50975590411E+01  0.24179586865E+02  0.45534629025E+02  0.51807721139E+02  0.00000000000E+00 0. -1.
         13    1    4    4    0    0 -0.43758773634E+02 -0.94941707141E+01 -0.31276339828E+02  0.54618485703E+02  0.00000000000E+00 0.  1.
          2    1    1    2  501    0  0.32352415720E+02 -0.23605875281E+02 -0.21834467363E+02  0.45614253427E+02  0.00000000000E+00 0. -1.
<scales pt_clust_5="13000.00000" pt_clust_6="13000.00000" pt_clust_7="13000.00000" pt_clust_8="13000.00000" pt_clust_9="40.04892"></scales>
<clustering>
<clus scale="   40.049">  2  9  1 -1</clus>
<clus scale="   81.863">  5  6 -1 -1</clus>
<clus scale="   84.651">  1  5  2 -1</clus>
<clus scale="   92.307">  7  8 -1 -1</clus>
<clus scale="   40.049">  2  5  1 -1</clus>
</clustering>
</event>
<event>
 9    1  0.5981539E-005  0.3501315E+03  0.7546771E-02  0.1099337E+00
         21   -1    0    0  501  502  0.00000000000E+00  0.00000000000E+00  0.24262677053E+03  0.24262677053E+03  0.00000000000E+00 0. -1.
          3   -1    0    0  502    0 -0.00000000000E+00 -0.00000000000E+00 -0.88313408810E+03  0.88313408810E+03  0.00000000000E+00 0. -1.
         23    2    1    2    0    0 -0.43713294614E+02  0.83807136541E+02 -0.24030367536E+03  0.27331312752E+03  0.89552895108E+02 0.  0.
        -24    2    1    2    0    0 -0.57714712800E+02 -0.35948047948E+03 -0.22132030484E+02  0.37367682945E+03  0.81162447551E+02 0.  0.
         11    1    4    4    0    0  0.40081006807E-01 -0.13565788848E+03  0.24536094119E+02  0.13785892872E+03  0.00000000000E+00 0. -1.
        -12    1    4    4    0    0 -0.57754793807E+02 -0.22382259100E+03 -0.46668124604E+02  0.23581790072E+03  0.00000000000E+00 0.  1.
        -13    1    3    3    0    0 -0.59790072455E+02  0.48560819445E+02 -0.21135169986E+03  0.22495009887E+03  0.00000000000E+00 0. -1.
         13    1    3    3    0    0  0.16076777841E+02  0.35246317096E+02 -0.28951975500E+02  0.48363028647E+02  0.00000000000E+00 0.  1.
          4    1    1    2  501    0  0.10142800741E+03  0.27567334294E+03 -0.37807161172E+03  0.47877090167E+03  0.00000000000E+00 0. -1.
<scales pt_clust_5="13000.00000" pt_clust_6="13000.00000" pt_clust_7="13000.00000" pt_clust_8="13000.00000" pt_clust_9="340.59480"></scales>
<clustering>
<clus scale="   81.162">  5  6 -1 -1</clus>
<clus scale="   89.553">  7  8 -1 -1</clus>
<clus scale="  130.208">  2  7  1 -1</clus>
<clus scale="  340.595">  1  9  2 -1</clus>
<clus scale="  340.595">  1  5  2 -1</clus>
</clustering>
</event>
<event>
 9    1  0.5981539E-005  0.1007682E+03  0.7546771E-02  0.1282311E+00
          1   -1    0    0  502    0 -0.00000000000E+00  0.00000000000E+00  0.27939605769E+03  0.27939605769E+03  0.00000000000E+00 0. -1.
         21   -1    0    0  501  502  0.00000000000E+00 -0.00000000000E+00 -0.68699095336E+02  0.68699095336E+02  0.00000000000E+00 0.  1.
        -24    2    1    2    0    0 -0.44869332489E+02 -0.25591483007E+02  0.20767628004E+03  0.22859748791E+03  0.80369105926E+02 0.  0.
         23    2    1    2    0    0  0.23048996511E+02  0.30645011306E+02 -0.35040443395E+01  0.96168771686E+02  0.88123670843E+02 0.  0.
         13    1    3    3    0    0 -0.51871753592E+02 -0.11364406430E+02  0.20590466164E+03  0.21264185440E+03  0.00000000000E+00 0. -1.
        -14    1    3    3    0    0  0.70024211032E+01 -0.14227076577E+02  0.17716184005E+01  0.15955633519E+02  0.00000000000E+00 0.  1.
        -13    1    4    4    0    0  0.41145124207E+02 -0.14238424769E+02  0.12327916485E+02  0.45250762544E+02  0.00000000000E+00 0.  1.
         13    1    4    4    0    0 -0.18096127696E+02  0.44883436075E+02 -0.15831960825E+02  0.50918009143E+02  0.00000000000E+00 0. -1.
          2    1    1    2  501    0  0.21820335978E+02 -0.50535282993E+01  0.65247266456E+01  0.23328893421E+02  0.00000000000E+00 0. -1.
<scales pt_clust_5="13000.00000" pt_clust_6="13000.00000" pt_clust_7="13000.00000" pt_clust_8="13000.00000" pt_clust_9="22.39788"></scales>
<clustering>
<clus scale="   22.398">  2  9  1 -1</clus>
<clus scale="   80.369">  5  6 -1 -1</clus>
<clus scale="   88.124">  7  8 -1 -1</clus>
<clus scale="   94.062">  1  5  2 -1</clus>
<clus scale="   22.398">  2  5  1 -1</clus>
</clustering>
</event>
<event>
 9    1  0.5981539E-005  0.1131492E+03  0.7546771E-02  0.1259043E+00
         21   -1    0    0  501  502  0.00000000000E+00  0.00000000000E+00  0.35050094021E+02  0.35050094021E+02  0.00000000000E+00 0.  1.
          1   -1    0    0  502    0 -0.00000000000E+00 -0.00000000000E+00 -0.55817214203E+03  0.55817214203E+03  0.00000000000E+00 0. -1.
         23    2    1    2    0    0  0.48510114796E+02  0.22516189900E+02 -0.20227276271E+03  0.22863722270E+03  0.92198150874E+02 0.  0.
        -24    2    1    2    0    0 -0.84157388670E+02  0.18910335309E+02 -0.22803981387E+03  0.25687947444E+03  0.80900190537E+02 0.  0.
         13    1    4    4    0    0 -0.61986927031E+01  0.35992589063E+02 -0.51475430903E+02  0.63115847814E+02  0.00000000000E+00 0. -1.
        -14    1    4    4    0    0 -0.77958695967E+02 -0.17082253754E+02 -0.17656438297E+03  0.19376362663E+03  0.00000000000E+00 0.  1.
        -11    1    3    3    0    0 -0.34643055433E+01 -0.31385517610E+02 -0.65303923249E+02  0.72537262978E+02  0.00000000000E+00 0. -1.
         11    1    3    3    0    0  0.51974420339E+02  0.53901707510E+02 -0.13696883946E+03  0.15609995972E+03  0.00000000000E+00 0.  1.
          2    1    1    2  501    0  0.35647273874E+02 -0.41426525208E+02 -0.92809471426E+02  0.10770553891E+03  0.00000000000E+00 0. -1.
<scales pt_clust_5="13000.00000" pt_clust_6="13000.00000" pt_clust_7="13000.00000" pt_clust_8="13000.00000" pt_clust_9="54.65240"></scales>
<clustering>
<clus scale="   54.652">  1  9  2 -1</clus>
<clus scale="   80.900">  5  6 -1 -1</clus>
<clus scale="   92.198">  7  8 -1 -1</clus>
<clus scale="  104.149">  1  5  2 -1</clus>
<clus scale="   54.652">  1  5  2 -1</clus>
</clustering>
</event>
<event>
 9    1  0.5981539E-005  0.1249665E+03  0.7546771E-02  0.1250787E+00
         21   -1    0    0  501  502  0.00000000000E+00  0.00000000000E+00  0.54728815198E+02  0.54728815198E+02  0.00000000000E+00 0.  1.
          1   -1    0    0  502    0 -0.00000000000E+00 -0.00000000000E+00 -0.51382076830E+03  0.51382076830E+03  0.00000000000E+00 0. -1.
        -24    2    1    2    0    0 -0.94430594457E+01 -0.31151160028E+02 -0.15680910807E+03  0.17947947919E+03  0.81019879886E+02 0.  0.
         23    2    1    2    0    0 -0.55500271836E+02  0.72259719038E+02 -0.12015516816E+03  0.19138843954E+03  0.11785806372E+03 0.  0.
         13    1    3    3    0    0  0.31530042813E+02 -0.92123812269E+01 -0.10432717043E+03  0.10937627740E+03  0.00000000000E+00 0. -1.
        -14    1    3    3    0    0 -0.40973102259E+02 -0.21938778801E+02 -0.52481937636E+02  0.70103201796E+02  0.00000000000E+00 0.  1.
        -13    1    4    4    0    0  0.12482302101E+02 -0.21249136472E+02  0.35798298499E-02  0.24644140873E+02  0.00000000000E+00 0.  1.
         13    1    4    4    0    0 -0.67982573937E+02  0.93508855510E+02 -0.12015874799E+03  0.16674429866E+03  0.00000000000E+00 0. -1.
          2    1    1    2  501    0  0.64943331282E+02 -0.41108559011E+02 -0.18212767687E+03  0.19768166477E+03  0.00000000000E+00 0. -1.
<scales pt_clust_5="13000.00000" pt_clust_6="13000.00000" pt_clust_7="13000.00000" pt_clust_8="13000.00000" pt_clust_9="76.86063"></scales>
<clustering>
<clus scale="   76.861">  1  9  2 -1</clus>
<clus scale="   81.020">  5  6 -1 -1</clus>
<clus scale="   91.051">  2  5  1 -1</clus>
<clus scale="  117.858">  7  8 -1 -1</clus>
<clus scale="   76.861">  1  5  2 -1</clus>
</clustering>
</event>
<event>
 9    1  0.5981539E-005  0.9767656E+02  0.7546771E-02  0.1288800E+00
          1   -1    0    0  502    0 -0.00000000000E+00  0.00000000000E+00  0.29343248018E+03  0.29343248018E+03  0.00000000000E+00 0. -1.
         21   -1    0    0  501  502  0.00000000000E+00 -0.00000000000E+00 -0.98915908753E+02  0.98915908753E+02  0.00000000000E+00 0. -1.
         23    2    1    2    0    0  0.12741439650E+02 -0.37558400574E+02  0.24279980118E+03  0.26143760430E+03  0.88458463438E+02 0.  0.
        -24    2    1    2    0    0 -0.19971368791E+01  0.56454508981E+02 -0.33535961504E+02  0.10464322144E+03  0.81452089844E+02 0.  0.
         13    1    4    4    0    0  0.53802812239E+01  0.73764380199E+02 -0.10191005999E+02  0.74659144218E+02  0.00000000000E+00 0. -1.
        -14    1    4    4    0    0 -0.73774181029E+01 -0.17309871218E+02 -0.23344955505E+02  0.29984077224E+02  0.00000000000E+00 0.  1.
        -11    1    3    3    0    0  0.29312194040E+02  0.14313655269E+02  0.15282355121E+03  0.15626619357E+03  0.00000000000E+00 0.  1.
         11    1    3    3    0    0 -0.16570754390E+02 -0.51872055843E+02  0.89976249960E+02  0.10517141073E+03  0.00000000000E+00 0. -1.
          2    1    1    2  501    0 -0.10744302771E+02 -0.18896108407E+02 -0.14747268247E+02  0.26267563186E+02  0.00000000000E+00 0. -1.
<scales pt_clust_5="13000.00000" pt_clust_6="13000.00000" pt_clust_7="13000.00000" pt_clust_8="13000.00000" pt_clust_9="21.73713"></scales>
<clustering>
<clus scale="   21.737">  2  9  1 -1</clus>
<clus scale="   81.452">  5  6 -1 -1</clus>
<clus scale="   88.458">  7  8 -1 -1</clus>
<clus scale="   91.380">  2  5  1 -1</clus>
<clus scale="   21.737">  2  5  1 -1</clus>
</clustering>
</event>
<event>
 9    1  0.5981539E-005  0.1540746E+03  0.7546771E-02  0.1197864E+00
         -2   -1    0    0    0  501 -0.00000000000E+00  0.00000000000E+00  0.45744414226E+02  0.45744414226E+02  0.00000000000E+00 0.  1.
         21   -1    0    0  501  502  0.00000000000E+00 -0.00000000000E+00 -0.63086275153E+03  0.63086275153E+03  0.00000000000E+00 0. -1.
         23    2    1    2    0    0 -0.81396095949E+01  0.13896146505E+03 -0.23901908003E+03  0.29065715634E+03  0.89302407031E+02 0.  0.
        -24    2    1    2    0    0 -0.11946171079E+02 -0.11181917056E+03 -0.25390401147E+03  0.28776596751E+03  0.75470306139E+02 0.  0.
         13    1    4    4    0    0 -0.39136644467E+02 -0.46872714616E+02 -0.15290842524E+03  0.16465028037E+03  0.00000000000E+00 0. -1.
        -14    1    4    4    0    0  0.27190473388E+02 -0.64946455947E+02 -0.10099558623E+03  0.12311568714E+03  0.00000000000E+00 0.  1.
        -13    1    3    3    0    0  0.15818594830E+02  0.79421509148E+02 -0.19944196293E+03  0.21525589570E+03  0.00000000000E+00 0. -1.
         13    1    3    3    0    0 -0.23958204425E+02  0.59539955903E+02 -0.39577117101E+02  0.75401260641E+02  0.00000000000E+00 0.  1.
         -1    1    1    2    0  502  0.20085780674E+02 -0.27142294488E+02 -0.92195245808E+02  0.98184041906E+02  0.00000000000E+00 0.  1.
<scales pt_clust_5="13000.00000" pt_clust_6="13000.00000" pt_clust_7="13000.00000" pt_clust_8="13000.00000" pt_clust_9="33.76600"></scales>
<clustering>
<clus scale="   33.766">  2  9  1 -1</clus>
<clus scale="   75.470">  5  6 -1 -1</clus>
<clus scale="   89.302">  7  8 -1 -1</clus>
<clus scale="  146.492">  2  5  1 -1</clus>
<clus scale="   33.766">  2  5  1 -1</clus>
</clustering>
</event>
<event>
 9    1  0.5981539E-005  0.9679124E+02  0.7546771E-02  0.1294475E+00
          3   -1    0    0  502    0 -0.00000000000E+00  0.00000000000E+00  0.14180514687E+03  0.14180514687E+03  0.00000000000E+00 0. -1.
         21   -1    0    0  501  502  0.00000000000E+00 -0.00000000000E+00 -0.10541925881E+03  0.10541925881E+03  0.00000000000E+00 0. -1.
         23    2    1    2    0    0 -0.18041172967E+01 -0.22121790149E+02  0.74125515770E+02  0.12125182787E+03  0.93353014072E+02 0.  0.
        -24    2    1    2    0    0  0.25467248239E+02  0.31310060925E+02 -0.43400774871E+02  0.99964566101E+02  0.80500848246E+02 0.  0.
         13    1    4    4    0    0  0.32122419586E+02  0.52176172533E+02 -0.47693866402E+02  0.77646041191E+02  0.00000000000E+00 0. -1.
        -14    1    4    4    0    0 -0.66551713469E+01 -0.20866111608E+02  0.42930915309E+01  0.22318524910E+02  0.00000000000E+00 0.  1.
        -13    1    3    3    0    0  0.29111085189E+02  0.21883120657E+02  0.51102681991E+02  0.62751974927E+02  0.00000000000E+00 0.  1.
         13    1    3    3    0    0 -0.30915202485E+02 -0.44004910806E+02  0.23022833779E+02  0.58499852948E+02  0.00000000000E+00 0. -1.
          4    1    1    2  501    0 -0.23663130942E+02 -0.91882707756E+01  0.56611471600E+01  0.26008011708E+02  0.00000000000E+00 0. -1.
<scales pt_clust_5="13000.00000" pt_clust_6="13000.00000" pt_clust_7="13000.00000" pt_clust_8="13000.00000" pt_clust_9="25.38442"></scales>
<clustering>
<clus scale="   25.384">  2  9  1 -1</clus>
<clus scale="   80.501">  5  6 -1 -1</clus>
<clus scale="   84.464">  2  5  1 -1</clus>
<clus scale="   93.353">  7  8 -1 -1</clus>
<clus scale="   25.384">  2  5  1 -1</clus>
</clustering>
</event>
<event>
 9    1  0.5981539E-005  0.1391582E+03  0.7546771E-02  0.1229445E+00
         21   -1    0    0  501  502  0.00000000000E+00  0.00000000000E+00  0.15715032009E+04  0.15715032009E+04  0.00000000000E+00 0. -1.
         -2   -1    0    0    0  501 -0.00000000000E+00 -0.00000000000E+00 -0.20106505658E+02  0.20106505658E+02  0.00000000000E+00 0.  1.
        -24    2    1    2    0    0 -0.50942110322E+01  0.62714137766E+02  0.41684162910E+03  0.42907061669E+03  0.79910176435E+02 0.  0.
         23    2    1    2    0    0 -0.51535517847E+02  0.56380429587E+02  0.54390074681E+03  0.55734245479E+03  0.94699139836E+02 0.  0.
         11    1    3    3    0    0  0.36457366662E+02  0.36851599866E+02  0.24319861739E+03  0.24866191404E+03  0.00000000000E+00 0. -1.
        -12    1    3    3    0    0 -0.41551577694E+02  0.25862537901E+02  0.17364301171E+03  0.18040870265E+03  0.00000000000E+00 0.  1.
        -13    1    4    4    0    0  0.26862146457E+02  0.34727980157E+01  0.12116425358E+03  0.12415478881E+03  0.00000000000E+00 0.  1.
         13    1    4    4    0    0 -0.78397664303E+02  0.52907631572E+02  0.42273649324E+03  0.43318766598E+03  0.00000000000E+00 0. -1.
         -1    1    1    2    0  502  0.56629728879E+02 -0.11909456735E+03  0.59065431935E+03  0.60519663510E+03  0.00000000000E+00 0.  1.
<scales pt_clust_5="13000.00000" pt_clust_6="13000.00000" pt_clust_7="13000.00000" pt_clust_8="13000.00000" pt_clust_9="101.96615"></scales>
<clustering>
<clus scale="   79.910">  5  6 -1 -1</clus>
<clus scale="   94.699">  7  8 -1 -1</clus>
<clus scale="  101.709">  2  5  1 -1</clus>
<clus scale="  101.966">  1  9  2 -1</clus>
<clus scale="  101.966">  1  5  2 -1</clus>
</clustering>
</event>
<event>
 9    1  0.5981539E-005  0.1870938E+03  0.7546771E-02  0.1167893E+00
          1   -1    0    0  502    0 -0.00000000000E+00  0.00000000000E+00  0.55345284084E+03  0.55345284084E+03  0.00000000000E+00 0. -1.
         21   -1    0    0  501  502  0.00000000000E+00 -0.00000000000E+00 -0.21925263550E+03  0.21925263550E+03  0.00000000000E+00 0. -1.
        -24    2    1    2    0    0 -0.99473699667E+02  0.96634760457E+02  0.33997680638E+03  0.37572830116E+03  0.79713446546E+02 0.  0.
         23    2    1    2    0    0  0.16859771857E+03  0.60392005844E+02 -0.71352586161E+02  0.21330424536E+03  0.91296902800E+02 0.  0.
         13    1    3    3    0    0 -0.11228726309E+03  0.82656078978E+02  0.27948107646E+03  0.31233016016E+03  0.00000000000E+00 0. -1.
        -14    1    3    3    0    0  0.12813563427E+02  0.13978681479E+02  0.60495729924E+02  0.63398141003E+02  0.00000000000E+00 0.  1.
        -13    1    4    4    0    0  0.14276920285E+03  0.30042923722E+02 -0.18430763939E+02  0.14705548479E+03  0.00000000000E+00 0.  1.
         13    1    4    4    0    0  0.25828515723E+02  0.30349082122E+02 -0.52921822222E+02  0.66248760572E+02  0.00000000000E+00 0. -1.
          2    1    1    2  501    0 -0.69124018904E+02 -0.15702676630E+03  0.65575985109E+02  0.18367292982E+03  0.00000000000E+00 0. -1.
<scales pt_clust_5="13000.00000" pt_clust_6="13000.00000" pt_clust_7="13000.00000" pt_clust_8="13000.00000" pt_clust_9="163.30645"></scales>
<clustering>
<clus scale="   79.713">  5  6 -1 -1</clus>
<clus scale="   91.297">  7  8 -1 -1</clus>
<clus scale="  159.961">  1  5  2 -1</clus>
<clus scale="  163.306">  2  9  1 -1</clus>
<clus scale="  163.306">  2  5  1 -1</clus>
</clustering>
</event>
<event>
 9    1  0.5981539E-005  0.1090833E+03  0.7546771E-02  0.1270566E+00
         -2   -1    0    0    0  501 -0.00000000000E+00  0.00000000000E+00  0.42969304529E+03  0.42969304529E+03  0.00000000000E+00 0.  1.
         21   -1    0    0  501  502  0.00000000000E+00 -0.00000000000E+00 -0.55681837188E+02  0.55681837188E+02  0.00000000000E+00 0. -1.
        -24    2    1    2    0    0 -0.36411543579E+02 -0.66513177976E+02  0.12302945121E+03  0.16520136198E+03  0.80033997676E+02 0.  0.
         23    2    1    2    0    0  0.18912195820E+02 -0.22097863442E+01  0.60888932636E+02  0.11728351377E+03  0.98414461227E+02 0.  0.
         11    1    3    3    0    0  0.10429691067E+02 -0.18818091905E+02 -0.37852624714E+01  0.21845531595E+02  0.00000000000E+00 0. -1.
        -12    1    3    3    0    0 -0.46841234646E+02 -0.47695086070E+02  0.12681471368E+03  0.14335583039E+03  0.00000000000E+00 0.  1.
        -13    1    4    4    0    0  0.21915729269E+02  0.45971182701E+02  0.22831099329E+02  0.55811360178E+02  0.00000000000E+00 0.  1.
         13    1    4    4    0    0 -0.30035334493E+01 -0.48180969046E+02  0.38057833307E+02  0.61472153593E+02  0.00000000000E+00 0. -1.
         -1    1    1    2    0  502  0.17499347759E+02  0.68722964320E+02  0.19009282425E+03  0.20289000672E+03  0.00000000000E+00 0.  1.
<scales pt_clust_5="13000.00000" pt_clust_6="13000.00000" pt_clust_7="13000.00000" pt_clust_8="13000.00000" pt_clust_9="70.91599"></scales>
<clustering>
<clus scale="   70.916">  2  9  1 -1</clus>
<clus scale="   80.034">  5  6 -1 -1</clus>
<clus scale="   92.840">  1  5  2 -1</clus>
<clus scale="   98.414">  7  8 -1 -1</clus>
<clus scale="   70.916">  2  5  1 -1</clus>
</clustering>
</event>
<event>
 9    1  0.5981539E-005  0.1358225E+03  0.7546771E-02  0.1221578E+00
         21   -1    0    0  501  502  0.00000000000E+00  0.00000000000E+00  0.21946584874E+03  0.21946584874E+03  0.00000000000E+00 0. -1.
          3   -1    0    0  502    0 -0.00000000000E+00 -0.00000000000E+00 -0.57707209414E+03  0.57707209414E+03  0.00000000000E+00 0. -1.
        -24    2    1    2    0    0  0.29957395248E+02  0.96671662206E+02 -0.53771188609E+03  0.55306502463E+03  0.80647338585E+02 0.  0.
         23    2    1    2    0    0  0.46037140382E+01 -0.90243684901E+02  0.13690775290E+03  0.18777869345E+03  0.91389211951E+02 0.  0.
         11    1    3    3    0    0  0.46987746243E+02  0.53530539512E+02 -0.42899584269E+03  0.43486871583E+03  0.00000000000E+00 0. -1.
        -12    1    3    3    0    0 -0.17030350995E+02  0.43141122693E+02 -0.10871604340E+03  0.11819630880E+03  0.00000000000E+00 0.  1.
        -11    1    4    4    0    0  0.44520149331E+02 -0.28818399624E+02  0.40672836299E+02  0.66834298574E+02  0.00000000000E+00 0. -1.
         11    1    4    4    0    0 -0.39916435293E+02 -0.61425285278E+02  0.96234916601E+02  0.12094439487E+03  0.00000000000E+00 0.  1.
          4    1    1    2  501    0 -0.34561109286E+02 -0.64279773044E+01  0.43197887791E+02  0.55694224808E+02  0.00000000000E+00 0. -1.
<scales pt_clust_5="13000.00000" pt_clust_6="13000.00000" pt_clust_7="13000.00000" pt_clust_8="13000.00000" pt_clust_9="35.15379"></scales>
<clustering>
<clus scale="   35.154">  1  9  2 -1</clus>
<clus scale="   80.647">  5  6 -1 -1</clus>
<clus scale="   91.389">  7  8 -1 -1</clus>
<clus scale="  128.840">  2  5  1 -1</clus>
<clus scale="   35.154">  1  5  2 -1</clus>
</clustering>
</event>
<event>
 9    1  0.5981539E-005  0.1057137E+03  0.7546771E-02  0.1272056E+00
         21   -1    0    0  501  502  0.00000000000E+00  0.00000000000E+00  0.46676067496E+03  0.46676067496E+03  0.00000000000E+00 0.  1.
         -2   -1    0    0    0  501 -0.00000000000E+00 -0.00000000000E+00 -0.66115659835E+02  0.66115659835E+02  0.00000000000E+00 0.  1.
        -24    2    1    2    0    0  0.21384208409E+02  0.70655259518E+02  0.34693291196E+02  0.11620314256E+03  0.82765305659E+02 0.  0.
         23    2    1    2    0    0 -0.37722722054E+02  0.22655706135E+02  0.22891091368E+03  0.25007767304E+03  0.90566833747E+02 0.  0.
         13    1    3    3    0    0  0.36448873997E+02  0.15602073036E+02  0.43040794612E+02  0.58518843969E+02  0.00000000000E+00 0. -1.
        -14    1    3    3    0    0 -0.15064665588E+02  0.55053186481E+02 -0.83475034157E+01  0.57684298594E+02  0.00000000000E+00 0.  1.
        -11    1    4    4    0    0  0.25100218575E+02  0.24034214577E+02  0.11308431270E+03  0.11830353427E+03  0.00000000000E+00 0. -1.
         11    1    4    4    0    0 -0.62822940628E+02 -0.13785084419E+01  0.11582660098E+03  0.13177413877E+03  0.00000000000E+00 0.  1.
         -1    1    1    2    0  502  0.16338513645E+02 -0.93310965653E+02  0.13704081025E+03  0.16659551919E+03  0.00000000000E+00 0.  1.
<scales pt_clust_5="13000.00000" pt_clust_6="13000.00000" pt_clust_7="13000.00000" pt_clust_8="13000.00000" pt_clust_9="94.73058"></scales>
<clustering>
<clus scale="   82.765">  5  6 -1 -1</clus>
<clus scale="   90.567">  7  8 -1 -1</clus>
<clus scale="   94.731">  1  9  2 -1</clus>
<clus scale="   99.112">  2  5  1 -1</clus>
<clus scale="   94.731">  1  5  2 -1</clus>
</clustering>
</event>
<event>
 9    1  0.5981539E-005  0.1013007E+03  0.7546771E-02  0.1281878E+00
          1   -1    0    0  502    0 -0.00000000000E+00  0.00000000000E+00  0.45190976524E+03  0.45190976524E+03  0.00000000000E+00 0. -1.
         21   -1    0    0  501  502  0.00000000000E+00 -0.00000000000E+00 -0.37242650202E+02  0.37242650202E+02  0.00000000000E+00 0. -1.
        -24    2    1    2    0    0  0.43767514356E+02 -0.20678874340E+02  0.21959913652E+03  0.23955534988E+03  0.82581921386E+02 0.  0.
         23    2    1    2    0    0 -0.41878437356E+02 -0.94263535361E+01  0.19478168471E+03  0.21943126835E+03  0.91474133917E+02 0.  0.
         11    1    3    3    0    0  0.49159574665E+02  0.42791676394E+01  0.20343746799E+03  0.20933651960E+03  0.00000000000E+00 0. -1.
        -12    1    3    3    0    0 -0.53920603087E+01 -0.24958041979E+02  0.16161668529E+02  0.30218830280E+02  0.00000000000E+00 0.  1.
        -13    1    4    4    0    0 -0.38439812535E+02  0.23571445384E+02  0.37377841039E+02  0.58569063728E+02  0.00000000000E+00 0.  1.
         13    1    4    4    0    0 -0.34386248212E+01 -0.32997798920E+02  0.15740384367E+03  0.16086220462E+03  0.00000000000E+00 0. -1.
          2    1    1    2  501    0 -0.18890770008E+01  0.30105227876E+02  0.28629381430E+00  0.30165797214E+02  0.00000000000E+00 0. -1.
<scales pt_clust_5="13000.00000" pt_clust_6="13000.00000" pt_clust_7="13000.00000" pt_clust_8="13000.00000" pt_clust_9="30.16444"></scales>
<clustering>
<clus scale="   30.164">  2  9  1 -1</clus>
<clus scale="   82.582">  5  6 -1 -1</clus>
<clus scale="   91.474">  7  8 -1 -1</clus>
<clus scale="   93.349">  1  5  2 -1</clus>
<clus scale="   30.164">  2  5  1 -1</clus>
</clustering>
</event>
<event>
 9    1  0.5981539E-005  0.9259336E+02  0.7546771E-02  0.1303648E+00
         -2   -1    0    0    0  501 -0.00000000000E+00  0.00000000000E+00  0.28926532196E+03  0.28926532196E+03  0.00000000000E+00 0.  1.
         21   -1    0    0  501  502  0.00000000000E+00 -0.00000000000E+00 -0.82843159762E+02  0.82843159762E+02  0.00000000000E+00 0.  1.
        -24    2    1    2    0    0 -0.18617123685E+02  0.40472499198E+01  0.17196167643E+03  0.19084230987E+03  0.80541862094E+02 0.  0.
         23    2    1    2    0    0 -0.32455837076E+02  0.12150183231E+02 -0.24971739162E+02  0.10124746453E+03  0.91795713429E+02 0.  0.
         11    1    3    3    0    0 -0.28781537678E+02 -0.33254464700E+02  0.96682954047E+02  0.10621595896E+03  0.00000000000E+00 0. -1.
        -12    1    3    3    0    0  0.10164413993E+02  0.37301714620E+02  0.75278722384E+02  0.84626350915E+02  0.00000000000E+00 0.  1.
        -11    1    4    4    0    0 -0.63007879115E+01  0.22761714493E+02 -0.55108907108E+02  0.59956544410E+02  0.00000000000E+00 0.  1.
         11    1    4    4    0    0 -0.26155049164E+02 -0.10611531263E+02  0.30137167945E+02  0.41290920119E+02  0.00000000000E+00 0. -1.
         -1    1    1    2    0  502  0.51072960761E+02 -0.16197433151E+02  0.59432224930E+02  0.80018707323E+02  0.00000000000E+00 0.  1.
<scales pt_clust_5="13000.00000" pt_clust_6="13000.00000" pt_clust_7="13000.00000" pt_clust_8="13000.00000" pt_clust_9="53.57991"></scales>
<clustering>
<clus scale="   53.580">  2  9  1 -1</clus>
<clus scale="   80.542">  5  6 -1 -1</clus>
<clus scale="   81.450">  1  5  2 -1</clus>
<clus scale="   91.796">  7  8 -1 -1</clus>
<clus scale="   53.580">  2  5  1 -1</clus>
</clustering>
</event>
<event>
 9    1  0.5981539E-005  0.1019075E+03  0.7546771E-02  0.1281958E+00
          1   -1    0    0  502    0 -0.00000000000E+00  0.00000000000E+00  0.27324775253E+03  0.27324775253E+03  0.00000000000E+00 0. -1.
         21   -1    0    0  501  502  0.00000000000E+00 -0.00000000000E+00 -0.16905427164E+03  0.16905427164E+03  0.00000000000E+00 0. -1.
        -24    2    1    2    0    0 -0.38113537862E+02 -0.21195048279E+02  0.21647323204E+03  0.23471428999E+03  0.79550398466E+02 0.  0.
         23    2    1    2    0    0  0.68178416924E+02 -0.36426511931E+01 -0.32090259306E+02  0.11841844087E+03  0.91277472322E+02 0.  0.
         11    1    3    3    0    0  0.91989909731E+01 -0.24147135174E+02  0.20202850809E+02  0.32800316352E+02  0.00000000000E+00 0. -1.
        -12    1    3    3    0    0 -0.47312528835E+02  0.29520868944E+01  0.19627038123E+03  0.20191397364E+03  0.00000000000E+00 0.  1.
        -13    1    4    4    0    0  0.49972909129E+02 -0.34795947287E+02 -0.49387487444E+02  0.78403912597E+02  0.00000000000E+00 0. -1.
         13    1    4    4    0    0  0.18205507795E+02  0.31153296094E+02  0.17297228138E+02  0.40014528272E+02  0.00000000000E+00 0.  1.
          2    1    1    2  501    0 -0.30064879062E+02  0.24837699472E+02 -0.80189491846E+02  0.89169293317E+02  0.00000000000E+00 0. -1.
<scales pt_clust_5="13000.00000" pt_clust_6="13000.00000" pt_clust_7="13000.00000" pt_clust_8="13000.00000" pt_clust_9="38.99754"></scales>
<clustering>
<clus scale="   38.998">  2  9  1 -1</clus>
<clus scale="   79.550">  5  6 -1 -1</clus>
<clus scale="   91.277">  7  8 -1 -1</clus>
<clus scale="   91.552">  1  5  2 -1</clus>
<clus scale="   38.998">  2  5  1 -1</clus>
</clustering>
</event>
<event>
 9    1  0.5981539E-005  0.1143935E+03  0.7546771E-02  0.1253627E+00
         21   -1    0    0  501  502  0.00000000000E+00  0.00000000000E+00  0.29941544826E+03  0.29941544826E+03  0.00000000000E+00 0. -1.
          3   -1    0    0  502    0 -0.00000000000E+00 -0.00000000000E+00 -0.22553105033E+03  0.22553105033E+03  0.00000000000E+00 0. -1.
         23    2    1    2    0    0 -0.37233576213E+02 -0.32623265671E+02 -0.17655134848E+03  0.20970457920E+03  0.10175959527E+03 0.  0.
        -24    2    1    2    0    0  0.54634511720E+02  0.46904431305E+02  0.87227697364E+02  0.15048873575E+03  0.99263451751E+02 0.  0.
         13    1    4    4    0    0  0.80129443850E+02  0.45847211981E+02  0.48970578478E+02  0.10450268980E+03  0.00000000000E+00 0. -1.
        -14    1    4    4    0    0 -0.25494932131E+02  0.10572193246E+01  0.38257118886E+02  0.45986045954E+02  0.00000000000E+00 0.  1.
        -11    1    3    3    0    0 -0.54348540169E+02 -0.12447149576E+01 -0.16240885018E+03  0.17126572264E+03  0.00000000000E+00 0. -1.
         11    1    3    3    0    0  0.17114963956E+02 -0.31378550713E+02 -0.14142498298E+02  0.38438856567E+02  0.00000000000E+00 0.  1.
          4    1    1    2  501    0 -0.17400935507E+02 -0.14281165635E+02  0.16320804904E+03  0.16475318364E+03  0.00000000000E+00 0. -1.
<scales pt_clust_5="13000.00000" pt_clust_6="13000.00000" pt_clust_7="13000.00000" pt_clust_8="13000.00000" pt_clust_9="22.51098"></scales>
<clustering>
<clus scale="   22.511">  1  9  2 -1</clus>
<clus scale="   99.263">  5  6 -1 -1</clus>
<clus scale="  101.760">  7  8 -1 -1</clus>
<clus scale="  112.179">  1  5  2 -1</clus>
<clus scale="   22.511">  1  5  2 -1</clus>
</clustering>
</event>
<event>
 9    1  0.5981539E-005  0.1634507E+03  0.7546771E-02  0.1186166E+00
         -4   -1    0    0    0  501 -0.00000000000E+00  0.00000000000E+00  0.56859616211E+03  0.56859616211E+03  0.00000000000E+00 0.  1.
         21   -1    0    0  501  502  0.00000000000E+00 -0.00000000000E+00 -0.19711457840E+03  0.19711457840E+03  0.00000000000E+00 0.  1.
        -24    2    1    2    0    0 -0.14394945195E+03 -0.22784931325E+02  0.46653720356E+03  0.49562798734E+03  0.82155594570E+02 0.  0.
         23    2    1    2    0    0  0.92692196270E+02  0.37683580125E+02  0.26101363916E+02  0.13768830195E+03  0.90911450511E+02 0.  0.
         13    1    3    3    0    0 -0.45838207953E+02 -0.15535294788E+02  0.58635293613E+02  0.76030154212E+02  0.00000000000E+00 0. -1.
        -14    1    3    3    0    0 -0.98111243994E+02 -0.72496365375E+01  0.40790190995E+03  0.41959783313E+03  0.00000000000E+00 0.  1.
        -11    1    4    4    0    0  0.58600461607E+02  0.55986899890E+02 -0.13679118614E+02  0.82192854591E+02  0.00000000000E+00 0.  1.
         11    1    4    4    0    0  0.34091734663E+02 -0.18303319765E+02  0.39780482530E+02  0.55495447354E+02  0.00000000000E+00 0. -1.
         -3    1    1    2    0  502  0.51257255677E+02 -0.14898648799E+02 -0.12115698377E+03  0.13239445121E+03  0.00000000000E+00 0.  1.
<scales pt_clust_5="13000.00000" pt_clust_6="13000.00000" pt_clust_7="13000.00000" pt_clust_8="13000.00000" pt_clust_9="53.37861"></scales>
<clustering>
<clus scale="   53.379">  2  9  1 -1</clus>
<clus scale="   82.156">  5  6 -1 -1</clus>
<clus scale="   90.911">  7  8 -1 -1</clus>
<clus scale="  158.748">  1  5  2 -1</clus>
<clus scale="   53.379">  2  5  1 -1</clus>
</clustering>
</event>
<event>
 9    1  0.5981539E-005  0.1141880E+03  0.7546771E-02  0.1256223E+00
         -2   -1    0    0    0  501 -0.00000000000E+00  0.00000000000E+00  0.58096023483E+02  0.58096023483E+02  0.00000000000E+00 0.  1.
         21   -1    0    0  501  502  0.00000000000E+00 -0.00000000000E+00 -0.32791663984E+03  0.32791663984E+03  0.00000000000E+00 0.  1.
         23    2    1    2    0    0 -0.58787800900E+02 -0.34473870482E+02 -0.11999237658E+03  0.16484612506E+03  0.90175502372E+02 0.  0.
        -24    2    1    2    0    0  0.74900256804E+02  0.97559833275E+01 -0.15568728018E+03  0.19108475748E+03  0.81053239611E+02 0.  0.
         13    1    4    4    0    0  0.53310184344E+02 -0.32249979108E+02 -0.74102105280E+02  0.96815075862E+02  0.00000000000E+00 0. -1.
        -14    1    4    4    0    0  0.21590072460E+02  0.42005962435E+02 -0.81585174896E+02  0.94269681615E+02  0.00000000000E+00 0.  1.
        -13    1    3    3    0    0 -0.20855816460E+02  0.30273509104E+02 -0.28494706325E+02  0.46512350212E+02  0.00000000000E+00 0. -1.
         13    1    3    3    0    0 -0.37931984439E+02 -0.64747379586E+02 -0.91497670256E+02  0.11833377485E+03  0.00000000000E+00 0.  1.
         -1    1    1    2    0  502 -0.16112455904E+02  0.24717887155E+02  0.58590404050E+01  0.30081780784E+02  0.00000000000E+00 0.  1.
<scales pt_clust_5="13000.00000" pt_clust_6="13000.00000" pt_clust_7="13000.00000" pt_clust_8="13000.00000" pt_clust_9="29.50570"></scales>
<clustering>
<clus scale="   29.506">  2  9  1 -1</clus>
<clus scale="   81.053">  5  6 -1 -1</clus>
<clus scale="   90.176">  7  8 -1 -1</clus>
<clus scale="  107.130">  2  5  1 -1</clus>
<clus scale="   29.506">  2  5  1 -1</clus>
</clustering>
</event>
<event>
 9    1  0.5981539E-005  0.1770153E+03  0.7546771E-02  0.1172432E+00
          3   -1    0    0  502    0 -0.00000000000E+00  0.00000000000E+00  0.97438642447E+03  0.97438642447E+03  0.00000000000E+00 0. -1.
         21   -1    0    0  501  502  0.00000000000E+00 -0.00000000000E+00 -0.39056640885E+02  0.39056640885E+02  0.00000000000E+00 0. -1.
        -24    2    1    2    0    0  0.14444975836E+03 -0.33810878055E+02  0.45036107987E+03  0.48129089380E+03  0.82504024331E+02 0.  0.
         23    2    1    2    0    0 -0.13495622661E+03  0.70787424953E+02  0.37989804857E+03  0.42036113998E+03  0.95691786859E+02 0.  0.
         13    1    3    3    0    0  0.63014667604E+02 -0.38409640788E+02  0.11889054093E+03  0.13993251789E+03  0.00000000000E+00 0. -1.
        -14    1    3    3    0    0  0.81435090758E+02  0.45987627335E+01  0.33147053894E+03  0.34135837592E+03  0.00000000000E+00 0.  1.
        -11    1    4    4    0    0 -0.10196967856E+03  0.93194116365E+02  0.26685016785E+03  0.30048622390E+03  0.00000000000E+00 0. -1.
         11    1    4    4    0    0 -0.32986548043E+02 -0.22406691412E+02  0.11304788071E+03  0.11987491608E+03  0.00000000000E+00 0.  1.
          4    1    1    2  501    0 -0.94935317559E+01 -0.36976546898E+02  0.10507065515E+03  0.11179103157E+03  0.00000000000E+00 0. -1.
<scales pt_clust_5="13000.00000" pt_clust_6="13000.00000" pt_clust_7="13000.00000" pt_clust_8="13000.00000" pt_clust_9="38.17583"></scales>
<clustering>
<clus scale="   38.176">  2  9  1 -1</clus>
<clus scale="   82.504">  5  6 -1 -1</clus>
<clus scale="   95.692">  7  8 -1 -1</clus>
<clus scale="  170.248">  1  5  2 -1</clus>
<clus scale="   38.176">  2  5  1 -1</clus>
</clustering>
</event>
<event>
 9    1  0.5981539E-005  0.1024442E+03  0.7546771E-02  0.1280119E+00
          1   -1    0    0  502    0 -0.00000000000E+00  0.00000000000E+00  0.10960004570E+04  0.10960004570E+04  0.00000000000E+00 0. -1.
         21   -1    0    0  501  502  0.00000000000E+00 -0.00000000000E+00 -0.29902872765E+02  0.29902872765E+02  0.00000000000E+00 0.  1.
         23    2    1    2    0    0 -0.76269129038E+01 -0.21564748997E+02  0.28362267691E+03  0.29861976686E+03  0.90602064560E+02 0.  0.
        -24    2    1    2    0    0  0.81358012752E+01  0.11128318466E+03  0.23263296809E+03  0.27016973718E+03  0.80146432228E+02 0.  0.
         11    1    4    4    0    0 -0.43795962797E+01  0.10092191766E+03  0.23295979549E+03  0.25391864965E+03  0.00000000000E+00 0. -1.
        -12    1    4    4    0    0  0.12515397555E+02  0.10361266998E+02 -0.32682740147E+00  0.16251087530E+02  0.00000000000E+00 0.  1.
        -13    1    3    3    0    0 -0.45960673221E+02  0.25844222482E+00  0.10477267302E+03  0.11441050339E+03  0.00000000000E+00 0.  1.
         13    1    3    3    0    0  0.38333760317E+02 -0.21823191222E+02  0.17885000389E+03  0.18420926347E+03  0.00000000000E+00 0. -1.
          2    1    1    2  501    0 -0.50888837140E+00 -0.89718435659E+02  0.54984193924E+03  0.55711382572E+03  0.00000000000E+00 0. -1.
<scales pt_clust_5="13000.00000" pt_clust_6="13000.00000" pt_clust_7="13000.00000" pt_clust_8="13000.00000" pt_clust_9="89.71992"></scales>
<clustering>
<clus scale="   80.146">  5  6 -1 -1</clus>
<clus scale="   89.720">  2  9  1 -1</clus>
<clus scale="   90.602">  7  8 -1 -1</clus>
<clus scale="   93.325">  2  5  1 -1</clus>
<clus scale="   89.720">  2  5  1 -1</clus>
</clustering>
</event>
<event>
 9    1  0.5981539E-005  0.1957392E+03  0.7546771E-02  0.1154536E+00
         21   -1    0    0  501  502  0.00000000000E+00  0.00000000000E+00  0.72948634724E+02  0.72948634724E+02  0.00000000000E+00 0. -1.
          1   -1    0    0  502    0 -0.00000000000E+00 -0.00000000000E+00 -0.72160177247E+03  0.72160177247E+03  0.00000000000E+00 0. -1.
        -24    2    1    2    0    0  0.16501979948E+03  0.83479006982E+02 -0.38341563818E+03  0.43307823105E+03  0.79680134197E+02 0.  0.
         23    2    1    2    0    0 -0.15946196190E+03 -0.25476079066E+02 -0.21914202140E+03  0.28717532350E+03  0.91483840026E+02 0.  0.
         13    1    3    3    0    0  0.13586903200E+03  0.32048332593E+02 -0.23520190663E+03  0.27350946302E+03  0.00000000000E+00 0. -1.
        -14    1    3    3    0    0  0.29150767482E+02  0.51430674389E+02 -0.14821373155E+03  0.15956876804E+03  0.00000000000E+00 0.  1.
        -13    1    4    4    0    0 -0.13589974447E+03  0.16374133306E+02 -0.15099255022E+03  0.20380285330E+03  0.00000000000E+00 0. -1.
         13    1    4    4    0    0 -0.23562217424E+02 -0.41850212372E+02 -0.68149471182E+02  0.83372470204E+02  0.00000000000E+00 0.  1.
          2    1    1    2  501    0 -0.55578375824E+01 -0.58002927916E+02 -0.46095478164E+02  0.74296852643E+02  0.00000000000E+00 0. -1.
<scales pt_clust_5="13000.00000" pt_clust_6="13000.00000" pt_clust_7="13000.00000" pt_clust_8="13000.00000" pt_clust_9="58.26860"></scales>
<clustering>
<clus scale="   58.269">  1  9  2 -1</clus>
<clus scale="   79.680">  5  6 -1 -1</clus>
<clus scale="   91.484">  7  8 -1 -1</clus>
<clus scale="  190.508">  2  5  1 -1</clus>
<clus scale="   58.269">  1  5  2 -1</clus>
</clustering>
</event>
<event>
 9    1  0.5981539E-005  0.1135453E+03  0.7546771E-02  0.1257171E+00
         -4   -1    0    0    0  501 -0.00000000000E+00  0.00000000000E+00  0.32605156479E+03  0.32605156479E+03  0.00000000000E+00 0.  1.
         21   -1    0    0  501  502  0.00000000000E+00 -0.00000000000E+00 -0.94469779192E+02  0.94469779192E+02  0.00000000000E+00 0.  1.
         23    2    1    2    0    0  0.76744746726E+02  0.20139212036E+01  0.24029650871E+03  0.26745288955E+03  0.88852822151E+02 0.  0.
        -24    2    1    2    0    0 -0.55029538742E+02 -0.83770809256E+01  0.35088092872E+02  0.10376605340E+03  0.80235864538E+02 0.  0.
         13    1    4    4    0    0 -0.71705907519E+02  0.95874642544E+01  0.31837296047E+02  0.79039673984E+02  0.00000000000E+00 0. -1.
        -14    1    4    4    0    0  0.16676368777E+02 -0.17964545180E+02  0.32507968245E+01  0.24726379417E+02  0.00000000000E+00 0.  1.
        -11    1    3    3    0    0  0.55551578185E+02 -0.25360704421E+02  0.21772076457E+03  0.22612269787E+03  0.00000000000E+00 0.  1.
         11    1    3    3    0    0  0.21193168542E+02  0.27374625624E+02  0.22575744132E+02  0.41330191677E+02  0.00000000000E+00 0. -1.
         -3    1    1    2    0  502 -0.21715207984E+02  0.63631597220E+01 -0.43802815980E+02  0.49302401029E+02  0.00000000000E+00 0.  1.
<scales pt_clust_5="13000.00000" pt_clust_6="13000.00000" pt_clust_7="13000.00000" pt_clust_8="13000.00000" pt_clust_9="22.62830"></scales>
<clustering>
<clus scale="   22.628">  2  9  1 -1</clus>
<clus scale="   80.236">  5  6 -1 -1</clus>
<clus scale="   88.853">  7  8 -1 -1</clus>
<clus scale="  106.937">  2  5  1 -1</clus>
<clus scale="   22.628">  2  5  1 -1</clus>
</clustering>
</event>
<event>
 9    1  0.5981539E-005  0.8900718E+02  0.7546771E-02  0.1310555E+00
         21   -1    0    0  501  502  0.00000000000E+00  0.00000000000E+00  0.54336520446E+02  0.54336520446E+02  0.00000000000E+00 0. -1.
          1   -1    0    0  502    0 -0.00000000000E+00 -0.00000000000E+00 -0.81938038256E+03  0.81938038256E+03  0.00000000000E+00 0. -1.
        -24    2    1    2    0    0  0.16783444816E+02 -0.23834091665E+02 -0.58555570272E+03  0.59222967800E+03  0.83730296669E+02 0.  0.
         23    2    1    2    0    0  0.21498549801E+01  0.55715064065E+02  0.47318569189E+01  0.93572668210E+02  0.74997756806E+02 0.  0.
         13    1    3    3    0    0  0.38049433180E+02 -0.11998833232E+02 -0.12906652865E+03  0.13509219142E+03  0.00000000000E+00 0. -1.
        -14    1    3    3    0    0 -0.21265988364E+02 -0.11835258434E+02 -0.45648917406E+03  0.45713748659E+03  0.00000000000E+00 0.  1.
        -11    1    4    4    0    0  0.15557454272E+02  0.19801021584E+02 -0.31837570381E+02  0.40592434356E+02  0.00000000000E+00 0.  1.
         11    1    4    4    0    0 -0.13407599292E+02  0.35914042481E+02  0.36569427300E+02  0.52980233854E+02  0.00000000000E+00 0. -1.
          2    1    1    2  501    0 -0.18933299797E+02 -0.31880972399E+02 -0.18422001631E+03  0.18791455679E+03  0.00000000000E+00 0. -1.
<scales pt_clust_5="13000.00000" pt_clust_6="13000.00000" pt_clust_7="13000.00000" pt_clust_8="13000.00000" pt_clust_9="37.07921"></scales>
<clustering>
<clus scale="   37.079">  1  9  2 -1</clus>
<clus scale="   74.998">  7  8 -1 -1</clus>
<clus scale="   80.847">  1  7  2 -1</clus>
<clus scale="   83.730">  5  6 -1 -1</clus>
<clus scale="   37.079">  1  5  2 -1</clus>
</clustering>
</event>
<event>
 9    1  0.5981539E-005  0.4324693E+03  0.7546771E-02  0.1033195E+00
          1   -1    0    0  502    0 -0.00000000000E+00  0.00000000000E+00  0.27373001237E+04  0.27373001237E+04  0.00000000000E+00 0. -1.
         21   -1    0    0  501  502  0.00000000000E+00 -0.00000000000E+00 -0.11784247120E+03  0.11784247120E+03  0.00000000000E+00 0.  1.
         23    2    1    2    0    0 -0.29958743339E+03 -0.23702728588E+03  0.11303796823E+04  0.11966442957E+04  0.90910834452E+02 0.  0.
        -24    2    1    2    0    0  0.36784786877E+03  0.28959791113E+03  0.14981782019E+04  0.15718612869E+04  0.83850914499E+02 0.  0.
         11    1    4    4    0    0  0.26563072556E+03  0.16772073892E+03  0.91758691413E+03  0.96987405038E+03  0.00000000000E+00 0. -1.
        -12    1    4    4    0    0  0.10221714321E+03  0.12187717221E+03  0.58059128782E+03  0.60198723654E+03  0.00000000000E+00 0.  1.
        -13    1    3    3    0    0 -0.90267437074E+02 -0.12811697114E+03  0.45227244182E+03  0.47865700676E+03  0.00000000000E+00 0. -1.
         13    1    3    3    0    0 -0.20931999632E+03 -0.10891031474E+03  0.67810724046E+03  0.71798728894E+03  0.00000000000E+00 0.  1.
          2    1    1    2  501    0 -0.68260435381E+02 -0.52570625257E+02 -0.91002317183E+01  0.86637012273E+02  0.00000000000E+00 0. -1.
<scales pt_clust_5="13000.00000" pt_clust_6="13000.00000" pt_clust_7="13000.00000" pt_clust_8="13000.00000" pt_clust_9="86.15775"></scales>
<clustering>
<clus scale="   83.851">  5  6 -1 -1</clus>
<clus scale="   86.158">  2  9  1 -1</clus>
<clus scale="   90.911">  7  8 -1 -1</clus>
<clus scale="  431.040">  2  5  1 -1</clus>
<clus scale="   86.158">  2  5  1 -1</clus>
</clustering>
</event>
<event>
 9    1  0.5981539E-005  0.2095696E+03  0.7546771E-02  0.1142403E+00
          1   -1    0    0  502    0 -0.00000000000E+00  0.00000000000E+00  0.68763729149E+03  0.68763729149E+03  0.00000000000E+00 0. -1.
         21   -1    0    0  501  502  0.00000000000E+00 -0.00000000000E+00 -0.10615734617E+03  0.10615734617E+03  0.00000000000E+00 0. -1.
         23    2    1    2    0    0 -0.14681434268E+03 -0.86586077576E+02  0.30031901641E+03  0.35610525229E+03  0.86993327579E+02 0.  0.
        -24    2    1    2    0    0  0.16717232585E+03  0.16866083944E+03  0.21258182388E+03  0.32881419234E+03  0.80837342526E+02 0.  0.
         13    1    4    4    0    0  0.13855666375E+03  0.89526847394E+02  0.12198820341E+03  0.20516853376E+03  0.00000000000E+00 0. -1.
        -14    1    4    4    0    0  0.28615662096E+02  0.79133992045E+02  0.90593620474E+02  0.12364565858E+03  0.00000000000E+00 0.  1.
        -13    1    3    3    0    0 -0.93453857357E+02 -0.56100273736E+02  0.26177952349E+03  0.28356548289E+03  0.00000000000E+00 0. -1.
         13    1    3    3    0    0 -0.53360485322E+02 -0.30485803840E+02  0.38539492917E+02  0.72539769395E+02  0.00000000000E+00 0.  1.
          2    1    1    2  501    0 -0.20357983169E+02 -0.82074761863E+02  0.68579105015E+02  0.10887519303E+03  0.00000000000E+00 0. -1.
<scales pt_clust_5="13000.00000" pt_clust_6="13000.00000" pt_clust_7="13000.00000" pt_clust_8="13000.00000" pt_clust_9="84.56189"></scales>
<clustering>
<clus scale="   80.837">  5  6 -1 -1</clus>
<clus scale="   84.562">  2  9  1 -1</clus>
<clus scale="   86.993">  7  8 -1 -1</clus>
<clus scale="  207.090">  2  5  1 -1</clus>
<clus scale="   84.562">  2  5  1 -1</clus>
</clustering>
</event>
<event>
 9    1  0.1003072E-004  0.1130370E+03  0.7546771E-02  0.1258977E+00
         21   -1    0    0  501  502  0.00000000000E+00  0.00000000000E+00  0.16069631805E+03  0.16069631805E+03  0.00000000000E+00 0.  1.
          1   -1    0    0  502    0 -0.00000000000E+00 -0.00000000000E+00 -0.34225685833E+03  0.34225685833E+03  0.00000000000E+00 0. -1.
        -24    2    1    2    0    0  0.36464111864E+01 -0.54265096209E+02 -0.62460909214E+02  0.11572320826E+03  0.80823874996E+02 0.  0.
         23    2    1    2    0    0 -0.24355027442E+02  0.12235661282E+03  0.81157948543E+02  0.17470138273E+03  0.91485804655E+02 0.  0.
         11    1    3    3    0    0 -0.22977907598E+02  0.47358641528E+01 -0.41520609737E+02  0.47690393999E+02  0.00000000000E+00 0. -1.
        -12    1    3    3    0    0  0.26624318784E+02 -0.59000960362E+02 -0.20940299477E+02  0.68032814263E+02  0.00000000000E+00 0.  1.
        -13    1    4    4    0    0  0.13091955515E+02  0.11121732240E+03  0.75894038840E+02  0.13527970000E+03  0.00000000000E+00 0.  1.
         13    1    4    4    0    0 -0.37446982957E+02  0.11139290417E+02  0.52639097033E+01  0.39421682726E+02  0.00000000000E+00 0. -1.
          2    1    1    2  501    0  0.20708616255E+02 -0.68091516607E+02 -0.20025757960E+03  0.21252858540E+03  0.00000000000E+00 0. -1.
<scales pt_clust_5="13000.00000" pt_clust_6="13000.00000" pt_clust_7="13000.00000" pt_clust_8="13000.00000" pt_clust_9="71.17097"></scales>
<clustering>
<clus scale="   71.171">  1  9  2 -1</clus>
<clus scale="   80.824">  5  6 -1 -1</clus>
<clus scale="   91.486">  7  8 -1 -1</clus>
<clus scale="  104.595">  2  5  1 -1</clus>
<clus scale="   71.171">  1  5  2 -1</clus>
</clustering>
</event>
<event>
 9    1  0.5981539E-005  0.2661886E+03  0.7546771E-02  0.1104055E+00
         21   -1    0    0  501  502  0.00000000000E+00  0.00000000000E+00  0.11400540645E+03  0.11400540645E+03  0.00000000000E+00 0.  1.
          1   -1    0    0  502    0 -0.00000000000E+00 -0.00000000000E+00 -0.94722996745E+03  0.94722996745E+03  0.00000000000E+00 0. -1.
        -24    2    1    2    0    0 -0.21373594685E+03  0.48698424105E+02 -0.25393916263E+03  0.34481172345E+03  0.79720981048E+02 0.  0.
         23    2    1    2    0    0  0.29172435703E+03  0.31160938185E+02 -0.38880342269E+03  0.49564527079E+03  0.91771610008E+02 0.  0.
         13    1    3    3    0    0 -0.17734794325E+03  0.69523288085E+02 -0.21885066704E+03  0.29014030231E+03  0.00000000000E+00 0. -1.
        -14    1    3    3    0    0 -0.36388003603E+02 -0.20824863980E+02 -0.35088495599E+02  0.54671421139E+02  0.00000000000E+00 0.  1.
        -11    1    4    4    0    0  0.24221218054E+03  0.38731248163E+02 -0.25999543658E+03  0.35744157149E+03  0.00000000000E+00 0.  1.
         11    1    4    4    0    0  0.49512176494E+02 -0.75703099783E+01 -0.12880798611E+03  0.13820369930E+03  0.00000000000E+00 0. -1.
          2    1    1    2  501    0 -0.77988410179E+02 -0.79859362290E+02 -0.19048197567E+03  0.22077837966E+03  0.00000000000E+00 0. -1.
<scales pt_clust_5="13000.00000" pt_clust_6="13000.00000" pt_clust_7="13000.00000" pt_clust_8="13000.00000" pt_clust_9="111.62313"></scales>
<clustering>
<clus scale="   79.721">  5  6 -1 -1</clus>
<clus scale="   91.772">  7  8 -1 -1</clus>
<clus scale="  111.623">  1  9  2 -1</clus>
<clus scale="  262.278">  2  5  1 -1</clus>
<clus scale="  111.623">  1  5  2 -1</clus>
</clustering>
</event>
<event>
 9    1  0.5981539E-005  0.1213140E+03  0.7546771E-02  0.1246362E+00
         21   -1    0    0  501  502  0.00000000000E+00  0.00000000000E+00  0.36124806712E+03  0.36124806712E+03  0.00000000000E+00 0.  1.
          1   -1    0    0  502    0 -0.00000000000E+00 -0.00000000000E+00 -0.15274288589E+03  0.15274288589E+03  0.00000000000E+00 0. -1.
         23    2    1    2    0    0 -0.37660055355E+02  0.48036331578E+02  0.41795594944E+02  0.12146543589E+03  0.96339044210E+02 0.  0.
        -24    2    1    2    0    0  0.10197938982E+02 -0.12686933346E+03  0.23884317222E+03  0.28219843866E+03  0.79937926754E+02 0.  0.
         11    1    4    4    0    0 -0.12563288944E+02 -0.87282444211E+02  0.87938543867E+02  0.12453613449E+03  0.00000000000E+00 0. -1.
        -12    1    4    4    0    0  0.22761227926E+02 -0.39586889245E+02  0.15090462835E+03  0.15766230417E+03  0.00000000000E+00 0.  1.
        -13    1    3    3    0    0  0.99514971167E+01  0.60588407298E+02  0.37714825938E+02  0.72058278423E+02  0.00000000000E+00 0.  1.
         13    1    3    3    0    0 -0.47611552472E+02 -0.12552075720E+02  0.40807690062E+01  0.49407157471E+02  0.00000000000E+00 0. -1.
          2    1    1    2  501    0  0.27462116373E+02  0.78833001878E+02 -0.72133585936E+02  0.11032707846E+03  0.00000000000E+00 0. -1.
<scales pt_clust_5="13000.00000" pt_clust_6="13000.00000" pt_clust_7="13000.00000" pt_clust_8="13000.00000" pt_clust_9="83.47944"></scales>
<clustering>
<clus scale="   79.938">  5  6 -1 -1</clus>
<clus scale="   83.479">  1  9  2 -1</clus>
<clus scale="   96.339">  7  8 -1 -1</clus>
<clus scale="  108.747">  1  5  2 -1</clus>
<clus scale="   83.479">  1  5  2 -1</clus>
</clustering>
</event>
<event>
 9    1  0.5981539E-005  0.1755070E+03  0.7546771E-02  0.1200895E+00
          1   -1    0    0  502    0 -0.00000000000E+00  0.00000000000E+00  0.51548011035E+03  0.51548011035E+03  0.00000000000E+00 0. -1.
         21   -1    0    0  501  502  0.00000000000E+00 -0.00000000000E+00 -0.91303866671E+02  0.91303866671E+02  0.00000000000E+00 0. -1.
         23    2    1    2    0    0 -0.17277122256E+01  0.26533188996E+02  0.10184394161E+03  0.13777670784E+03  0.88900155638E+02 0.  0.
        -24    2    1    2    0    0 -0.14581436972E+03  0.35311474659E+02  0.22341311949E+03  0.28091571422E+03  0.80569757826E+02 0.  0.
         11    1    4    4    0    0 -0.12295155219E+03  0.54305908617E+02  0.20742026871E+03  0.24716266661E+03  0.00000000000E+00 0. -1.
        -12    1    4    4    0    0 -0.22862817524E+02 -0.18994433958E+02  0.15992850788E+02  0.33753047608E+02  0.00000000000E+00 0.  1.
        -11    1    3    3    0    0 -0.15701356913E+02  0.55202623125E+02  0.46352198337E+02  0.73772545703E+02  0.00000000000E+00 0. -1.
         11    1    3    3    0    0  0.13973644687E+02 -0.28669434130E+02  0.55491743278E+02  0.64004162140E+02  0.00000000000E+00 0.  1.
          2    1    1    2  501    0  0.14754208194E+03 -0.61844663655E+02  0.98919182571E+02  0.18809155496E+03  0.00000000000E+00 0. -1.
<scales pt_clust_5="13000.00000" pt_clust_6="13000.00000" pt_clust_7="13000.00000" pt_clust_8="13000.00000" pt_clust_9="155.92056"></scales>
<clustering>
<clus scale="   80.570">  5  6 -1 -1</clus>
<clus scale="   88.900">  7  8 -1 -1</clus>
<clus scale="   92.791">  1  7  2 -1</clus>
<clus scale="  155.921">  2  9  1 -1</clus>
<clus scale="  155.921">  2  5  1 -1</clus>
</clustering>
</event>
<event>
 9    1  0.5981539E-005  0.1132160E+03  0.7546771E-02  0.1262210E+00
         -2   -1    0    0    0  501 -0.00000000000E+00  0.00000000000E+00  0.77070881285E+02  0.77070881285E+02  0.00000000000E+00 0.  1.
         21   -1    0    0  501  502  0.00000000000E+00 -0.00000000000E+00 -0.50584819503E+03  0.50584819503E+03  0.00000000000E+00 0.  1.
        -24    2    1    2    0    0  0.71355827191E+02  0.29180080155E+02  0.19067106332E+02  0.10625679594E+03  0.70596182528E+02 0.  0.
         23    2    1    2    0    0 -0.23263293283E+02 -0.13923189813E+02 -0.17355750106E+03  0.19777345223E+03  0.90868565546E+02 0.  0.
         11    1    3    3    0    0  0.54929240146E+01  0.23035231354E+02 -0.18620557391E+02  0.30125060254E+02  0.00000000000E+00 0. -1.
        -12    1    3    3    0    0  0.65862903176E+02  0.61448488005E+01  0.37687663722E+02  0.76131735685E+02  0.00000000000E+00 0.  1.
        -13    1    4    4    0    0 -0.32510358116E+02  0.31421849430E+02 -0.11183190278E+03  0.12062599424E+03  0.00000000000E+00 0.  1.
         13    1    4    4    0    0  0.92470648331E+01 -0.45345039242E+02 -0.61725598281E+02  0.77147457995E+02  0.00000000000E+00 0. -1.
         -1    1    1    2    0  502 -0.48092533907E+02 -0.15256890342E+02 -0.27428691901E+03  0.27888882814E+03  0.00000000000E+00 0.  1.
<scales pt_clust_5="13000.00000" pt_clust_6="13000.00000" pt_clust_7="13000.00000" pt_clust_8="13000.00000" pt_clust_9="50.45458"></scales>
<clustering>
<clus scale="   50.455">  2  9  1 -1</clus>
<clus scale="   70.596">  5  6 -1 -1</clus>
<clus scale="   90.869">  7  8 -1 -1</clus>
<clus scale="   97.696">  1  5  2 -1</clus>
<clus scale="   50.455">  2  5  1 -1</clus>
</clustering>
</event>
<event>
 9    1  0.5981539E-005  0.8563062E+02  0.7546771E-02  0.1318223E+00
         21   -1    0    0  501  502  0.00000000000E+00  0.00000000000E+00  0.75631439838E+03  0.75631439838E+03  0.00000000000E+00 0. -1.
         -2   -1    0    0    0  501 -0.00000000000E+00 -0.00000000000E+00 -0.14843963982E+02  0.14843963982E+02  0.00000000000E+00 0.  1.
         23    2    1    2    0    0  0.41981260037E+02 -0.79279103406E+01  0.33138938077E+03  0.34198606777E+03  0.72871605574E+02 0.  0.
        -24    2    1    2    0    0 -0.17547114216E+02 -0.33054653766E+01  0.38040586477E+03  0.38912441019E+03  0.79939710631E+02 0.  0.
         13    1    4    4    0    0 -0.49087022193E+02 -0.87638867351E+01  0.23739929148E+03  0.24257939949E+03  0.00000000000E+00 0. -1.
        -14    1    4    4    0    0  0.31539907977E+02  0.54584213586E+01  0.14300657329E+03  0.14654501070E+03  0.00000000000E+00 0.  1.
        -11    1    3    3    0    0  0.60573176925E+02 -0.17590542910E+02  0.26305535647E+03  0.27051184360E+03  0.00000000000E+00 0.  1.
         11    1    3    3    0    0 -0.18591916889E+02  0.96626325696E+01  0.68334024307E+02  0.71474224163E+02  0.00000000000E+00 0. -1.
         -1    1    1    2    0  502 -0.24434145820E+02  0.11233375717E+02  0.29675188854E+02  0.40047884407E+02  0.00000000000E+00 0.  1.
<scales pt_clust_5="13000.00000" pt_clust_6="13000.00000" pt_clust_7="13000.00000" pt_clust_8="13000.00000" pt_clust_9="26.89269"></scales>
<clustering>
<clus scale="   26.893">  1  9  2 -1</clus>
<clus scale="   72.872">  7  8 -1 -1</clus>
<clus scale="   79.073">  2  7  1 -1</clus>
<clus scale="   79.940">  5  6 -1 -1</clus>
<clus scale="   26.893">  1  5  2 -1</clus>
</clustering>
</event>
<event>
 9    1  0.5981539E-005  0.1506559E+03  0.7546771E-02  0.1201720E+00
         21   -1    0    0  501  502  0.00000000000E+00  0.00000000000E+00  0.10723531324E+03  0.10723531324E+03  0.00000000000E+00 0. -1.
          3   -1    0    0  502    0 -0.00000000000E+00 -0.00000000000E+00 -0.32499734606E+03  0.32499734606E+03  0.00000000000E+00 0. -1.
         23    2    1    2    0    0  0.32239729247E+01 -0.13041007794E+03 -0.95882152607E+02  0.18593817376E+03  0.91446349542E+02 0.  0.
        -24    2    1    2    0    0 -0.12832370971E+02  0.10484181725E+03 -0.12096575703E+02  0.13316433387E+03  0.80186883485E+02 0.  0.
         13    1    4    4    0    0  0.16806223937E+02  0.10086763416E+03 -0.13938878894E+02  0.10320378447E+03  0.00000000000E+00 0. -1.
        -14    1    4    4    0    0 -0.29638594908E+02  0.39741830874E+01  0.18423031915E+01  0.29960549401E+02  0.00000000000E+00 0.  1.
        -11    1    3    3    0    0  0.35762868967E+02 -0.11185436423E+03 -0.90147686768E+02  0.14804386858E+03  0.00000000000E+00 0.  1.
         11    1    3    3    0    0 -0.32538896043E+02 -0.18555713705E+02 -0.57344658391E+01  0.37894305182E+02  0.00000000000E+00 0. -1.
          4    1    1    2  501    0  0.96083980464E+01  0.25568260692E+02 -0.10978330451E+03  0.11313015167E+03  0.00000000000E+00 0. -1.
<scales pt_clust_5="13000.00000" pt_clust_6="13000.00000" pt_clust_7="13000.00000" pt_clust_8="13000.00000" pt_clust_9="27.31406"></scales>
<clustering>
<clus scale="   27.314">  1  9  2 -1</clus>
<clus scale="   80.187">  5  6 -1 -1</clus>
<clus scale="   91.446">  7  8 -1 -1</clus>
<clus scale="  144.100">  1  5  2 -1</clus>
<clus scale="   27.314">  1  5  2 -1</clus>
</clustering>
</event>
<event>
 9    1  0.5981539E-005  0.1252183E+03  0.7546771E-02  0.1239715E+00
         21   -1    0    0  501  502  0.00000000000E+00  0.00000000000E+00  0.86666312944E+02  0.86666312944E+02  0.00000000000E+00 0. -1.
          3   -1    0    0  502    0 -0.00000000000E+00 -0.00000000000E+00 -0.33406113314E+03  0.33406113314E+03  0.00000000000E+00 0. -1.
        -24    2    1    2    0    0 -0.77389008367E+02 -0.35221896935E+02 -0.22496765273E+03  0.25316896493E+03  0.79085013687E+02 0.  0.
         23    2    1    2    0    0  0.54047936545E+02  0.26921435326E+02  0.23389626870E+02  0.11547314790E+03  0.95608734517E+02 0.  0.
         11    1    3    3    0    0 -0.24267352625E+02  0.23510580701E+02 -0.42779516508E+02  0.54513657381E+02  0.00000000000E+00 0. -1.
        -12    1    3    3    0    0 -0.53121655742E+02 -0.58732477636E+02 -0.18218813622E+03  0.19865530755E+03  0.00000000000E+00 0.  1.
        -13    1    4    4    0    0  0.26929517564E+02  0.37974174552E+02  0.55217204843E+02  0.72223102674E+02  0.00000000000E+00 0. -1.
         13    1    4    4    0    0  0.27118418981E+02 -0.11052739227E+02 -0.31827577972E+02  0.43250045226E+02  0.00000000000E+00 0.  1.
          4    1    1    2  501    0  0.23341071822E+02  0.83004616092E+01 -0.45816794331E+02  0.52085333248E+02  0.00000000000E+00 0. -1.
<scales pt_clust_5="13000.00000" pt_clust_6="13000.00000" pt_clust_7="13000.00000" pt_clust_8="13000.00000" pt_clust_9="24.77305"></scales>
<clustering>
<clus scale="   24.773">  1  9  2 -1</clus>
<clus scale="   79.085">  5  6 -1 -1</clus>
<clus scale="   95.609">  7  8 -1 -1</clus>
<clus scale="  113.106">  2  5  1 -1</clus>
<clus scale="   24.773">  1  5  2 -1</clus>
</clustering>
</event>
<event>
 9    1  0.5981539E-005  0.2533502E+03  0.7546771E-02  0.1128722E+00
         -2   -1    0    0    0  501 -0.00000000000E+00  0.00000000000E+00  0.24659359957E+03  0.24659359957E+03  0.00000000000E+00 0.  1.
         21   -1    0    0  501  502  0.00000000000E+00 -0.00000000000E+00 -0.55009179072E+03  0.55009179072E+03  0.00000000000E+00 0. -1.
         23    2    1    2    0    0  0.11414551291E+03 -0.71427182925E+02 -0.22487948153E+03  0.27801734569E+03  0.92692085509E+02 0.  0.
        -24    2    1    2    0    0  0.13436098063E+03  0.16743887015E+03  0.22550982805E+02  0.23369606690E+03  0.89535783401E+02 0.  0.
         13    1    4    4    0    0 -0.52131343776E+01  0.32649651271E+02 -0.14590772148E+02  0.36139550773E+02  0.00000000000E+00 0. -1.
        -14    1    4    4    0    0  0.13957411501E+03  0.13478921887E+03  0.37141754953E+02  0.19755651613E+03  0.00000000000E+00 0.  1.
        -13    1    3    3    0    0  0.58355716762E+02 -0.72176740502E+02 -0.19199371935E+03  0.21325210390E+03  0.00000000000E+00 0.  1.
         13    1    3    3    0    0  0.55789796143E+02  0.74955757622E+00 -0.32885762178E+02  0.64765241791E+02  0.00000000000E+00 0. -1.
         -1    1    1    2    0  502 -0.24850649353E+03 -0.96011687220E+02 -0.10116969243E+03  0.28497197770E+03  0.00000000000E+00 0.  1.
<scales pt_clust_5="13000.00000" pt_clust_6="13000.00000" pt_clust_7="13000.00000" pt_clust_8="13000.00000" pt_clust_9="237.00142"></scales>
<clustering>
<clus scale="   89.536">  5  6 -1 -1</clus>
<clus scale="   92.692">  7  8 -1 -1</clus>
<clus scale="  163.471">  1  7  2 -1</clus>
<clus scale="  237.001">  2  9  1 -1</clus>
<clus scale="  237.001">  2  5  1 -1</clus>
</clustering>
</event>
<event>
 9    1  0.5981539E-005  0.1370952E+03  0.7546771E-02  0.1223829E+00
         21   -1    0    0  501  502  0.00000000000E+00  0.00000000000E+00  0.61745024448E+02  0.61745024448E+02  0.00000000000E+00 0. -1.
          1   -1    0    0  502    0 -0.00000000000E+00 -0.00000000000E+00 -0.54896931007E+03  0.54896931007E+03  0.00000000000E+00 0. -1.
        -24    2    1    2    0    0  0.67357376139E+02  0.10884994756E+02 -0.80030136112E+02  0.12200546809E+03  0.61846684032E+02 0.  0.
         23    2    1    2    0    0 -0.13264052392E+03 -0.74953967843E+02 -0.24677380303E+03  0.30404319485E+03  0.91287176494E+02 0.  0.
         13    1    3    3    0    0  0.16304626080E+02  0.24564139251E+02 -0.45075689319E+01  0.29825424497E+02  0.00000000000E+00 0. -1.
        -14    1    3    3    0    0  0.51052750059E+02 -0.13679144495E+02 -0.75522567181E+02  0.92180043590E+02  0.00000000000E+00 0.  1.
        -11    1    4    4    0    0 -0.46289799283E+01 -0.38349573070E+02 -0.92616359961E+02  0.10034892796E+03  0.00000000000E+00 0.  1.
         11    1    4    4    0    0 -0.12801154399E+03 -0.36604394773E+02 -0.15415744307E+03  0.20369426689E+03  0.00000000000E+00 0. -1.
          2    1    1    2  501    0  0.65283147778E+02  0.64068973087E+02 -0.16042034648E+03  0.18466567158E+03  0.00000000000E+00 0. -1.
<scales pt_clust_5="13000.00000" pt_clust_6="13000.00000" pt_clust_7="13000.00000" pt_clust_8="13000.00000" pt_clust_9="91.46984"></scales>
<clustering>
<clus scale="   61.847">  5  6 -1 -1</clus>
<clus scale="   91.287">  7  8 -1 -1</clus>
<clus scale="   91.470">  1  9  2 -1</clus>
<clus scale="  119.527">  2  5  1 -1</clus>
<clus scale="   91.470">  1  5  2 -1</clus>
</clustering>
</event>
<event>
 9    1  0.5981539E-005  0.9302015E+02  0.7546771E-02  0.1301051E+00
          3   -1    0    0  502    0 -0.00000000000E+00  0.00000000000E+00  0.94465267414E+02  0.94465267414E+02  0.00000000000E+00 0. -1.
         21   -1    0    0  501  502  0.00000000000E+00 -0.00000000000E+00 -0.20022262908E+03  0.20022262908E+03  0.00000000000E+00 0. -1.
         23    2    1    2    0    0  0.26891062693E+02 -0.25682773585E+02 -0.69614064874E+01  0.97683385118E+02  0.90060248923E+02 0.  0.
        -24    2    1    2    0    0 -0.17072896541E+02 -0.47336118548E+02 -0.43018562087E+02  0.10459632681E+03  0.80979028037E+02 0.  0.
         13    1    4    4    0    0 -0.12431112710E+02 -0.54265633201E+02  0.49659682404E+01  0.55892328190E+02  0.00000000000E+00 0. -1.
        -14    1    4    4    0    0 -0.46417838310E+01  0.69295146532E+01 -0.47984530328E+02  0.48703998616E+02  0.00000000000E+00 0.  1.
        -11    1    3    3    0    0  0.53470553444E+02 -0.32303992492E+02 -0.22248253208E+02  0.66314649870E+02  0.00000000000E+00 0. -1.
         11    1    3    3    0    0 -0.26579490752E+02  0.66212189069E+01  0.15286846720E+02  0.31368735248E+02  0.00000000000E+00 0.  1.
          4    1    1    2  501    0 -0.98181661520E+01  0.73018892133E+02 -0.55777393087E+02  0.92408184564E+02  0.00000000000E+00 0. -1.
<scales pt_clust_5="13000.00000" pt_clust_6="13000.00000" pt_clust_7="13000.00000" pt_clust_8="13000.00000" pt_clust_9="73.67601"></scales>
<clustering>
<clus scale="   73.676">  2  9  1 -1</clus>
<clus scale="   80.979">  5  6 -1 -1</clus>
<clus scale="   84.259">  2  5  1 -1</clus>
<clus scale="   90.060">  7  8 -1 -1</clus>
<clus scale="   73.676">  2  5  1 -1</clus>
</clustering>
</event>
<event>
 9    1  0.5981539E-005  0.1181363E+03  0.7546771E-02  0.1252296E+00
         -2   -1    0    0    0  501 -0.00000000000E+00  0.00000000000E+00  0.58989524976E+03  0.58989524976E+03  0.00000000000E+00 0.  1.
         21   -1    0    0  501  502  0.00000000000E+00 -0.00000000000E+00 -0.11543057083E+03  0.11543057083E+03  0.00000000000E+00 0.  1.
         23    2    1    2    0    0 -0.15781096477E+02 -0.71309581086E+02  0.41569488652E+03  0.43340616196E+03  0.98511741359E+02 0.  0.
        -24    2    1    2    0    0 -0.71239555850E+01  0.53945032210E+02  0.14830747281E+03  0.17788155370E+03  0.81767496073E+02 0.  0.
         11    1    4    4    0    0 -0.10053166163E+02  0.17474108481E+02 -0.45830212105E+01  0.20674010267E+02  0.00000000000E+00 0. -1.
        -12    1    4    4    0    0  0.29292105776E+01  0.36470923729E+02  0.15289049402E+03  0.15720754344E+03  0.00000000000E+00 0.  1.
        -13    1    3    3    0    0 -0.50293089509E+02 -0.45209829285E+02  0.33584594703E+03  0.34258695780E+03  0.00000000000E+00 0.  1.
         13    1    3    3    0    0  0.34511993031E+02 -0.26099751801E+02  0.79848939486E+02  0.90819204159E+02  0.00000000000E+00 0. -1.
         -1    1    1    2    0  502  0.22905052062E+02  0.17364548875E+02 -0.89537680396E+02  0.94038104927E+02  0.00000000000E+00 0.  1.
<scales pt_clust_5="13000.00000" pt_clust_6="13000.00000" pt_clust_7="13000.00000" pt_clust_8="13000.00000" pt_clust_9="28.74316"></scales>
<clustering>
<clus scale="   28.743">  2  9  1 -1</clus>
<clus scale="   81.767">  5  6 -1 -1</clus>
<clus scale="   98.512">  7  8 -1 -1</clus>
<clus scale="  104.583">  2  5  1 -1</clus>
<clus scale="   28.743">  2  5  1 -1</clus>
</clustering>
</event>
<event>
 9    1  0.5981539E-005  0.9961910E+02  0.7546771E-02  0.1285099E+00
          1   -1    0    0  502    0 -0.00000000000E+00  0.00000000000E+00  0.27441392178E+03  0.27441392178E+03  0.00000000000E+00 0. -1.
         21   -1    0    0  501  502  0.00000000000E+00 -0.00000000000E+00 -0.10158559913E+03  0.10158559913E+03  0.00000000000E+00 0. -1.
        -24    2    1    2    0    0 -0.27444871910E+02 -0.33481330341E+02  0.19284970779E+03  0.21450293483E+03  0.83344338626E+02 0.  0.
         23    2    1    2    0    0  0.15037185851E+02  0.33635365848E+01 -0.59674226763E+02  0.11018011676E+03  0.91330249388E+02 0.  0.
         13    1    3    3    0    0  0.11945250198E+02 -0.48411819182E+02  0.12575896586E+03  0.13528381549E+03  0.00000000000E+00 0. -1.
        -14    1    3    3    0    0 -0.39390122109E+02  0.14930488841E+02  0.67090741927E+02  0.79219119340E+02  0.00000000000E+00 0.  1.
        -13    1    4    4    0    0  0.15699174427E+02  0.40907016240E+02 -0.53496935341E+01  0.44141446242E+02  0.00000000000E+00 0.  1.
         13    1    4    4    0    0 -0.66198857619E+00 -0.37543479656E+02 -0.54324533229E+02  0.66038670520E+02  0.00000000000E+00 0. -1.
          2    1    1    2  501    0  0.12407686059E+02  0.30117793757E+02  0.39652841628E+02  0.51316469318E+02  0.00000000000E+00 0. -1.
<scales pt_clust_5="13000.00000" pt_clust_6="13000.00000" pt_clust_7="13000.00000" pt_clust_8="13000.00000" pt_clust_9="32.57351"></scales>
<clustering>
<clus scale="   32.574">  2  9  1 -1</clus>
<clus scale="   83.344">  5  6 -1 -1</clus>
<clus scale="   91.330">  7  8 -1 -1</clus>
<clus scale="   92.353">  1  5  2 -1</clus>
<clus scale="   32.574">  2  5  1 -1</clus>
</clustering>
</event>
<event>
 9    1  0.5981539E-005  0.1000482E+03  0.7546771E-02  0.1286175E+00
         21   -1    0    0  501  502  0.00000000000E+00  0.00000000000E+00  0.46682865488E+03  0.46682865488E+03  0.00000000000E+00 0. -1.
          3   -1    0    0  502    0 -0.00000000000E+00 -0.00000000000E+00 -0.44959688565E+02  0.44959688565E+02  0.00000000000E+00 0. -1.
        -24    2    1    2    0    0 -0.10573475746E+02 -0.20585747115E+02  0.96968432002E+02  0.12826609495E+03  0.80707762548E+02 0.  0.
         23    2    1    2    0    0 -0.38176489916E+02  0.76946490642E+02  0.23519205152E+03  0.26690019034E+03  0.92424042868E+02 0.  0.
         13    1    3    3    0    0 -0.45869717704E+02 -0.10707915250E+02  0.50061949745E+02  0.68737829930E+02  0.00000000000E+00 0. -1.
        -14    1    3    3    0    0  0.35296241958E+02 -0.98778318649E+01  0.46906482257E+02  0.59528265021E+02  0.00000000000E+00 0.  1.
        -13    1    4    4    0    0 -0.34883996302E+02  0.97353781525E+02  0.17517459898E+03  0.20342269319E+03  0.00000000000E+00 0. -1.
         13    1    4    4    0    0 -0.32924936134E+01 -0.20407290883E+02  0.60017452538E+02  0.63477497151E+02  0.00000000000E+00 0.  1.
          4    1    1    2  501    0  0.48749965661E+02 -0.56360743527E+02  0.89708482787E+02  0.11662205815E+03  0.00000000000E+00 0. -1.
<scales pt_clust_5="13000.00000" pt_clust_6="13000.00000" pt_clust_7="13000.00000" pt_clust_8="13000.00000" pt_clust_9="74.51911"></scales>
<clustering>
<clus scale="   74.519">  1  9  2 -1</clus>
<clus scale="   80.708">  5  6 -1 -1</clus>
<clus scale="   89.337">  2  5  1 -1</clus>
<clus scale="   92.424">  7  8 -1 -1</clus>
<clus scale="   74.519">  1  5  2 -1</clus>
</clustering>
</event>
<event>
 9    1  0.5981539E-005  0.1354813E+03  0.7546771E-02  0.1240402E+00
         21   -1    0    0  501  502  0.00000000000E+00  0.00000000000E+00  0.28300956635E+03  0.28300956635E+03  0.00000000000E+00 0. -1.
         -2   -1    0    0    0  501 -0.00000000000E+00 -0.00000000000E+00 -0.18823858390E+03  0.18823858390E+03  0.00000000000E+00 0.  1.
        -24    2    1    2    0    0 -0.28704832766E+02 -0.17271493768E+02 -0.44998749448E+02  0.98893454707E+02  0.81441733840E+02 0.  0.
         23    2    1    2    0    0  0.71017087213E+02 -0.63127018732E+02  0.21479689364E+03  0.25452718311E+03  0.98071067360E+02 0.  0.
         11    1    3    3    0    0  0.22739849348E+02 -0.26500033646E+02 -0.11284887780E+02  0.36697428028E+02  0.00000000000E+00 0. -1.
        -12    1    3    3    0    0 -0.51444682114E+02  0.92285398785E+01 -0.33713861668E+02  0.62196026679E+02  0.00000000000E+00 0.  1.
        -11    1    4    4    0    0  0.36871076467E+02 -0.49602810549E+02  0.20824174127E+03  0.21722002187E+03  0.00000000000E+00 0. -1.
         11    1    4    4    0    0  0.34146010746E+02 -0.13524208183E+02  0.65551523672E+01  0.37307161235E+02  0.00000000000E+00 0.  1.
         -1    1    1    2    0  502 -0.42312254447E+02  0.80398512500E+02 -0.75027161744E+02  0.11782751244E+03  0.00000000000E+00 0.  1.
<scales pt_clust_5="13000.00000" pt_clust_6="13000.00000" pt_clust_7="13000.00000" pt_clust_8="13000.00000" pt_clust_9="93.47324"></scales>
<clustering>
<clus scale="   81.442">  5  6 -1 -1</clus>
<clus scale="   88.063">  2  5  1 -1</clus>
<clus scale="   93.473">  1  9  2 -1</clus>
<clus scale="   98.071">  7  8 -1 -1</clus>
<clus scale="   93.473">  1  5  2 -1</clus>
</clustering>
</event>
<event>
 9    1  0.5981539E-005  0.8515984E+02  0.7546771E-02  0.1317096E+00
         21   -1    0    0  501  502  0.00000000000E+00  0.00000000000E+00  0.16318534485E+02  0.16318534485E+02  0.00000000000E+00 0. -1.
         -2   -1    0    0    0  501 -0.00000000000E+00 -0.00000000000E+00 -0.94490683208E+03  0.94490683208E+03  0.00000000000E+00 0.  1.
        -24    2    1    2    0    0 -0.18743939868E+02  0.66757059789E+01 -0.57663150478E+03  0.58270159318E+03  0.81494503260E+02 0.  0.
         23    2    1    2    0    0 -0.19646736203E+02  0.22766680444E+02 -0.20522666502E+03  0.22402319561E+03  0.84640960277E+02 0.  0.
         13    1    3    3    0    0 -0.46852942932E+02  0.16565231864E+02 -0.26270348909E+03  0.26736254104E+03  0.00000000000E+00 0. -1.
        -14    1    3    3    0    0  0.28109003064E+02 -0.98895258852E+01 -0.31392801569E+03  0.31533905215E+03  0.00000000000E+00 0.  1.
        -11    1    4    4    0    0  0.25674540557E+02  0.27619872892E+02 -0.13605472810E+03  0.14118402335E+03  0.00000000000E+00 0.  1.
         11    1    4    4    0    0 -0.45321276760E+02 -0.48531924472E+01 -0.69171936918E+02  0.82839172262E+02  0.00000000000E+00 0. -1.
         -1    1    1    2    0  502  0.38390676071E+02 -0.29442386423E+02 -0.14673012780E+03  0.15450057777E+03  0.00000000000E+00 0.  1.
<scales pt_clust_5="13000.00000" pt_clust_6="13000.00000" pt_clust_7="13000.00000" pt_clust_8="13000.00000" pt_clust_9="48.38076"></scales>
<clustering>
<clus scale="   48.381">  1  9  2 -1</clus>
<clus scale="   81.495">  5  6 -1 -1</clus>
<clus scale="   82.033">  2  5  1 -1</clus>
<clus scale="   84.641">  7  8 -1 -1</clus>
<clus scale="   48.381">  1  5  2 -1</clus>
</clustering>
</event>
<event>
 9    1  0.5981539E-005  0.1249584E+03  0.7546771E-02  0.1250276E+00
          1   -1    0    0  502    0 -0.00000000000E+00  0.00000000000E+00  0.12143156781E+03  0.12143156781E+03  0.00000000000E+00 0. -1.
         21   -1    0    0  501  502  0.00000000000E+00 -0.00000000000E+00 -0.24775645680E+03  0.24775645680E+03  0.00000000000E+00 0. -1.
        -24    2    1    2    0    0 -0.18985670724E+02 -0.38322459306E+02 -0.87485735813E+02  0.12695758137E+03  0.81458007081E+02 0.  0.
         23    2    1    2    0    0 -0.62046696766E+02 -0.45296182400E+02 -0.49885030445E+02  0.12526748659E+03  0.85451098383E+02 0.  0.
         13    1    3    3    0    0  0.13535702769E+01 -0.61275533808E+02 -0.56443167631E+02  0.83320791931E+02  0.00000000000E+00 0. -1.
        -14    1    3    3    0    0 -0.20339241001E+02  0.22953074501E+02 -0.31042568182E+02  0.43636789443E+02  0.00000000000E+00 0.  1.
        -13    1    4    4    0    0 -0.36400942396E+02 -0.16850513021E+02 -0.70989426857E+02  0.81538132931E+02  0.00000000000E+00 0. -1.
         13    1    4    4    0    0 -0.25645754370E+02 -0.28445669378E+02  0.21104396412E+02  0.43729353660E+02  0.00000000000E+00 0.  1.
          2    1    1    2  501    0  0.81032367490E+02  0.83618641706E+02  0.11045877274E+02  0.11696295664E+03  0.00000000000E+00 0. -1.
<scales pt_clust_5="13000.00000" pt_clust_6="13000.00000" pt_clust_7="13000.00000" pt_clust_8="13000.00000" pt_clust_9="91.17406"></scales>
<clustering>
<clus scale="   81.458">  5  6 -1 -1</clus>
<clus scale="   85.451">  7  8 -1 -1</clus>
<clus scale="   92.003">  1  5  2 -1</clus>
<clus scale="   91.174">  2  9  1 -1</clus>
<clus scale="   91.174">  2  5  1 -1</clus>
</clustering>
</event>
<event>
 9    1  0.5981539E-005  0.1307100E+03  0.7546771E-02  0.1248136E+00
         -2   -1    0    0    0  501 -0.00000000000E+00  0.00000000000E+00  0.16623873884E+03  0.16623873884E+03  0.00000000000E+00 0.  1.
         21   -1    0    0  501  502  0.00000000000E+00 -0.00000000000E+00 -0.14594183461E+03  0.14594183461E+03  0.00000000000E+00 0.  1.
        -24    2    1    2    0    0  0.20384193372E+02  0.12933185642E+02  0.13762680311E+02  0.85022177976E+02  0.80352826634E+02 0.  0.
         23    2    1    2    0    0  0.80362874619E+02  0.16873665428E+02  0.89033801598E+01  0.12206780131E+03  0.89879729282E+02 0.  0.
         13    1    3    3    0    0  0.30066514123E+02  0.14352591776E+02  0.42881504951E+02  0.54302998343E+02  0.00000000000E+00 0. -1.
        -14    1    3    3    0    0 -0.96823207512E+01 -0.14194061336E+01 -0.29118824640E+02  0.30719179633E+02  0.00000000000E+00 0.  1.
        -13    1    4    4    0    0  0.13810053460E+02 -0.29425073620E+02 -0.17355919885E+02  0.36848073073E+02  0.00000000000E+00 0. -1.
         13    1    4    4    0    0  0.66552821159E+02  0.46298739048E+02  0.26259300045E+02  0.85219728236E+02  0.00000000000E+00 0.  1.
         -1    1    1    2    0  502 -0.10074706799E+03 -0.29806851070E+02 -0.23691562372E+01  0.10509059416E+03  0.00000000000E+00 0.  1.
<scales pt_clust_5="13000.00000" pt_clust_6="13000.00000" pt_clust_7="13000.00000" pt_clust_8="13000.00000" pt_clust_9="94.90384"></scales>
<clustering>
<clus scale="   80.353">  5  6 -1 -1</clus>
<clus scale="   83.901">  1  5  2 -1</clus>
<clus scale="   89.880">  7  8 -1 -1</clus>
<clus scale="   94.904">  2  9  1 -1</clus>
<clus scale="   94.904">  2  5  1 -1</clus>
</clustering>
</event>
<event>
 9    1  0.5981539E-005  0.1012402E+03  0.7546771E-02  0.1279321E+00
         21   -1    0    0  501  502  0.00000000000E+00  0.00000000000E+00  0.44977934538E+03  0.44977934538E+03  0.00000000000E+00 0.  1.
         -2   -1    0    0    0  501 -0.00000000000E+00 -0.00000000000E+00 -0.85483362676E+02  0.85483362676E+02  0.00000000000E+00 0.  1.
        -24    2    1    2    0    0  0.25621579168E+02 -0.45641598541E+02 -0.21243819512E+02  0.10301395891E+03  0.86144965188E+02 0.  0.
         23    2    1    2    0    0  0.37579264564E+02  0.45304313990E+02  0.12755216292E+03  0.16663232939E+03  0.89621966851E+02 0.  0.
         11    1    3    3    0    0 -0.25375378106E+02 -0.57575115090E+01  0.13739984595E+02  0.29425260058E+02  0.00000000000E+00 0. -1.
        -12    1    3    3    0    0  0.50996957274E+02 -0.39884087032E+02 -0.34983804107E+02  0.73588698856E+02  0.00000000000E+00 0.  1.
        -13    1    4    4    0    0  0.27840330437E+01  0.64842837767E+02  0.61211313709E+02  0.89214176988E+02  0.00000000000E+00 0. -1.
         13    1    4    4    0    0  0.34795231521E+02 -0.19538523776E+02  0.66340849209E+02  0.77418152404E+02  0.00000000000E+00 0.  1.
         -1    1    1    2    0  502 -0.63200843733E+02  0.33728455010E+00  0.25798763930E+03  0.26561641975E+03  0.00000000000E+00 0.  1.
<scales pt_clust_5="13000.00000" pt_clust_6="13000.00000" pt_clust_7="13000.00000" pt_clust_8="13000.00000" pt_clust_9="63.20174"></scales>
<clustering>
<clus scale="   63.202">  1  9  2 -1</clus>
<clus scale="   86.145">  5  6 -1 -1</clus>
<clus scale="   89.622">  7  8 -1 -1</clus>
<clus scale="   98.176">  2  5  1 -1</clus>
<clus scale="   63.202">  1  5  2 -1</clus>
</clustering>
</event>
<event>
 9    1  0.5981539E-005  0.9641956E+02  0.7546771E-02  0.1293913E+00
          3   -1    0    0  502    0 -0.00000000000E+00  0.00000000000E+00  0.10666875352E+02  0.10666875352E+02  0.00000000000E+00 0. -1.
         21   -1    0    0  501  502  0.00000000000E+00 -0.00000000000E+00 -0.11341535221E+04  0.11341535221E+04  0.00000000000E+00 0.  1.
         23    2    1    2    0    0 -0.78055079864E+01 -0.35593284557E+02 -0.32485703382E+03  0.33885975715E+03  0.89252645518E+02 0.  0.
        -24    2    1    2    0    0  0.27189537268E+02  0.29545748935E+02 -0.66681622062E+03  0.67259241444E+03  0.78258939822E+02 0.  0.
         11    1    4    4    0    0  0.46111310313E+02  0.19636040777E+02 -0.23677822529E+03  0.24202428598E+03  0.00000000000E+00 0. -1.
        -12    1    4    4    0    0 -0.18921773045E+02  0.99097081582E+01 -0.43003799533E+03  0.43056812846E+03  0.00000000000E+00 0.  1.
        -11    1    3    3    0    0 -0.28158543750E+02 -0.45243209932E+02 -0.30237534378E+03  0.30703534024E+03  0.00000000000E+00 0.  1.
         11    1    3    3    0    0  0.20353035764E+02  0.96499253749E+01 -0.22481690046E+02  0.31824416913E+02  0.00000000000E+00 0. -1.
          4    1    1    2  501    0 -0.19384029282E+02  0.60475356221E+01 -0.13181339227E+03  0.13336822582E+03  0.00000000000E+00 0. -1.
<scales pt_clust_5="13000.00000" pt_clust_6="13000.00000" pt_clust_7="13000.00000" pt_clust_8="13000.00000" pt_clust_9="20.30550"></scales>
<clustering>
<clus scale="   20.305">  2  9  1 -1</clus>
<clus scale="   78.259">  5  6 -1 -1</clus>
<clus scale="   86.343">  2  5  1 -1</clus>
<clus scale="   89.253">  7  8 -1 -1</clus>
<clus scale="   20.305">  2  5  1 -1</clus>
</clustering>
</event>
<event>
 9    1  0.5981539E-005  0.1019324E+03  0.7546771E-02  0.1285640E+00
          1   -1    0    0  502    0 -0.00000000000E+00  0.00000000000E+00  0.17522712253E+03  0.17522712253E+03  0.00000000000E+00 0. -1.
         21   -1    0    0  501  502  0.00000000000E+00 -0.00000000000E+00 -0.42624545454E+03  0.42624545454E+03  0.00000000000E+00 0.  1.
        -24    2    1    2    0    0  0.26495690110E+02 -0.10309462440E+02  0.13730474386E+03  0.16145840049E+03  0.80049458403E+02 0.  0.
         23    2    1    2    0    0 -0.63893690055E+02 -0.46367185821E+02 -0.16952664174E+03  0.21092307582E+03  0.97554815893E+02 0.  0.
         13    1    3    3    0    0  0.52350666679E+02 -0.93093488854E+01  0.11717857299E+03  0.12867818093E+03  0.00000000000E+00 0. -1.
        -14    1    3    3    0    0 -0.25854976569E+02 -0.10001135547E+01  0.20126170872E+02  0.32780219562E+02  0.00000000000E+00 0.  1.
        -11    1    4    4    0    0 -0.86917646107E+02 -0.19402402086E+02 -0.13258943294E+03  0.15972190876E+03  0.00000000000E+00 0.  1.
         11    1    4    4    0    0  0.23023956052E+02 -0.26964783734E+02 -0.36937208803E+02  0.51201167059E+02  0.00000000000E+00 0. -1.
          2    1    1    2  501    0  0.37397999945E+02  0.56676648261E+02 -0.21879643413E+03  0.22909110076E+03  0.00000000000E+00 0. -1.
<scales pt_clust_5="13000.00000" pt_clust_6="13000.00000" pt_clust_7="13000.00000" pt_clust_8="13000.00000" pt_clust_9="67.90326"></scales>
<clustering>
<clus scale="   67.903">  2  9  1 -1</clus>
<clus scale="   80.049">  5  6 -1 -1</clus>
<clus scale="   85.330">  1  5  2 -1</clus>
<clus scale="   97.555">  7  8 -1 -1</clus>
<clus scale="   67.903">  2  5  1 -1</clus>
</clustering>
</event>
<event>
 9    1  0.5981539E-005  0.4189868E+03  0.7546771E-02  0.1064608E+00
         21   -1    0    0  501  502  0.00000000000E+00  0.00000000000E+00  0.93353093422E+03  0.93353093422E+03  0.00000000000E+00 0.  1.
         -2   -1    0    0    0  501 -0.00000000000E+00 -0.00000000000E+00 -0.39993432535E+03  0.39993432535E+03  0.00000000000E+00 0.  1.
         23    2    1    2    0    0  0.17151434824E+03 -0.47154186297E+01 -0.12142579297E+03  0.22804146459E+03  0.88426690251E+02 0.  0.
        -24    2    1    2    0    0 -0.11297848590E+03 -0.40843910797E+03  0.16426582235E+03  0.46124592332E+03  0.78599606819E+02 0.  0.
         13    1    4    4    0    0 -0.24796239230E+02 -0.12290490648E+03  0.12293237885E+02  0.12598251154E+03  0.00000000000E+00 0. -1.
        -14    1    4    4    0    0 -0.88182246666E+02 -0.28553420149E+03  0.15197258446E+03  0.33526341177E+03  0.00000000000E+00 0.  1.
        -13    1    3    3    0    0  0.29207272113E+02  0.20493190845E+02  0.49961165438E+01  0.36027722601E+02  0.00000000000E+00 0.  1.
         13    1    3    3    0    0  0.14230707613E+03 -0.25208609475E+02 -0.12642190951E+03  0.19201374199E+03  0.00000000000E+00 0. -1.
         -1    1    1    2    0  502 -0.58535862342E+02  0.41315452660E+03  0.49075657950E+03  0.64417787167E+03  0.00000000000E+00 0.  1.
<scales pt_clust_5="13000.00000" pt_clust_6="13000.00000" pt_clust_7="13000.00000" pt_clust_8="13000.00000" pt_clust_9="411.54832"></scales>
<clustering>
<clus scale="   78.600">  5  6 -1 -1</clus>
<clus scale="   88.427">  7  8 -1 -1</clus>
<clus scale="  193.025">  2  7  1 -1</clus>
<clus scale="  411.548">  1  9  2 -1</clus>
<clus scale="  411.548">  1  5  2 -1</clus>
</clustering>
</event>
<event>
 9    1  0.5981539E-005  0.1357683E+03  0.7546771E-02  0.1234807E+00
         21   -1    0    0  501  502  0.00000000000E+00  0.00000000000E+00  0.78287498783E+02  0.78287498783E+02  0.00000000000E+00 0. -1.
          1   -1    0    0  502    0 -0.00000000000E+00 -0.00000000000E+00 -0.58394945706E+03  0.58394945706E+03  0.00000000000E+00 0. -1.
        -24    2    1    2    0    0  0.22374258099E+02 -0.32617031648E+02 -0.78807560887E+02  0.12581833949E+03  0.89750458044E+02 0.  0.
         23    2    1    2    0    0  0.55325448131E+02  0.93717369433E+02 -0.41247626463E+03  0.43653254962E+03  0.92629085344E+02 0.  0.
         11    1    3    3    0    0 -0.30438701613E+02  0.74028388435E+01 -0.19565779044E+02  0.36934215687E+02  0.00000000000E+00 0. -1.
        -12    1    3    3    0    0  0.52812959712E+02 -0.40019870491E+02 -0.59241781843E+02  0.88884123799E+02  0.00000000000E+00 0.  1.
        -11    1    4    4    0    0  0.73441436620E+02  0.48268622699E+02 -0.32076943455E+03  0.33259064132E+03  0.00000000000E+00 0.  1.
         11    1    4    4    0    0 -0.18115988490E+02  0.45448746733E+02 -0.91706830078E+02  0.10394190830E+03  0.00000000000E+00 0. -1.
          2    1    1    2  501    0 -0.77699706230E+02 -0.61100337785E+02 -0.14378132756E+02  0.99886066732E+02  0.00000000000E+00 0. -1.
<scales pt_clust_5="13000.00000" pt_clust_6="13000.00000" pt_clust_7="13000.00000" pt_clust_8="13000.00000" pt_clust_9="99.26164"></scales>
<clustering>
<clus scale="   89.750">  5  6 -1 -1</clus>
<clus scale="   92.629">  7  8 -1 -1</clus>
<clus scale="   98.080">  2  5  1 -1</clus>
<clus scale="   99.262">  1  9  2 -1</clus>
<clus scale="   99.262">  1  5  2 -1</clus>
</clustering>
</event>
<event>
 9    1  0.5981539E-005  0.1020250E+03  0.7546771E-02  0.1282421E+00
         21   -1    0    0  501  502  0.00000000000E+00  0.00000000000E+00  0.28830657380E+03  0.28830657380E+03  0.00000000000E+00 0.  1.
          3   -1    0    0  502    0 -0.00000000000E+00 -0.00000000000E+00 -0.99837165266E+02  0.99837165266E+02  0.00000000000E+00 0. -1.
        -24    2    1    2    0    0  0.35908249130E+02 -0.64012831304E+01 -0.33293744251E+02  0.94062389899E+02  0.80055487044E+02 0.  0.
         23    2    1    2    0    0 -0.77263738103E+02  0.36063244892E+02  0.20463312519E+03  0.24038268728E+03  0.92945562346E+02 0.  0.
         11    1    3    3    0    0  0.27383243216E+02  0.35051505164E+02 -0.93978415261E+01  0.45461736094E+02  0.00000000000E+00 0. -1.
        -12    1    3    3    0    0  0.85250059140E+01 -0.41452788294E+02 -0.23895902725E+02  0.48600653805E+02  0.00000000000E+00 0.  1.
        -13    1    4    4    0    0 -0.46095239979E+01  0.44134393370E+02  0.12321991144E+03  0.13096655666E+03  0.00000000000E+00 0.  1.
         13    1    4    4    0    0 -0.72654214105E+02 -0.80711484787E+01  0.81413213753E+02  0.10941613061E+03  0.00000000000E+00 0. -1.
          4    1    1    2  501    0  0.41355488972E+02 -0.29661961761E+02  0.17130027599E+02  0.53698661894E+02  0.00000000000E+00 0. -1.
<scales pt_clust_5="13000.00000" pt_clust_6="13000.00000" pt_clust_7="13000.00000" pt_clust_8="13000.00000" pt_clust_9="50.89313"></scales>
<clustering>
<clus scale="   50.893">  1  9  2 -1</clus>
<clus scale="   80.055">  5  6 -1 -1</clus>
<clus scale="   90.438">  2  5  1 -1</clus>
<clus scale="   92.946">  7  8 -1 -1</clus>
<clus scale="   50.893">  1  5  2 -1</clus>
</clustering>
</event>
<event>
 9    1  0.5981539E-005  0.2633453E+03  0.7546771E-02  0.1106242E+00
         21   -1    0    0  501  502  0.00000000000E+00  0.00000000000E+00  0.23208482990E+03  0.23208482990E+03  0.00000000000E+00 0.  1.
          1   -1    0    0  502    0 -0.00000000000E+00 -0.00000000000E+00 -0.62422703153E+03  0.62422703153E+03  0.00000000000E+00 0. -1.
         23    2    1    2    0    0  0.85170452431E+02 -0.22118330091E+03 -0.33404484510E+03  0.42162438115E+03  0.10002550512E+03 0.  0.
        -24    2    1    2    0    0 -0.58275914096E+02  0.24951851767E+03 -0.16912260269E+03  0.31698953644E+03  0.78894477924E+02 0.  0.
         13    1    4    4    0    0  0.52647720981E+00  0.15175939537E+03 -0.11668879695E+03  0.19143528044E+03  0.00000000000E+00 0. -1.
        -14    1    4    4    0    0 -0.58802391306E+02  0.97759122301E+02 -0.52433805734E+02  0.12555425600E+03  0.00000000000E+00 0.  1.
        -13    1    3    3    0    0  0.18076590069E+02 -0.10111917664E+03 -0.71250997367E+02  0.12501422166E+03  0.00000000000E+00 0.  1.
         13    1    3    3    0    0  0.67093862362E+02 -0.12006412427E+03 -0.26279384773E+03  0.29661015948E+03  0.00000000000E+00 0. -1.
          2    1    1    2  501    0 -0.26894538335E+02 -0.28335216767E+02  0.11102524616E+03  0.11769794385E+03  0.00000000000E+00 0. -1.
<scales pt_clust_5="13000.00000" pt_clust_6="13000.00000" pt_clust_7="13000.00000" pt_clust_8="13000.00000" pt_clust_9="39.06662"></scales>
<clustering>
<clus scale="   39.067">  1  9  2 -1</clus>
<clus scale="   78.894">  5  6 -1 -1</clus>
<clus scale="  100.026">  7  8 -1 -1</clus>
<clus scale="  256.066">  1  5  2 -1</clus>
<clus scale="   39.067">  1  5  2 -1</clus>
</clustering>
</event>
<event>
 9    1  0.5981539E-005  0.9070176E+02  0.7546771E-02  0.1308099E+00
         -2   -1    0    0    0  501 -0.00000000000E+00  0.00000000000E+00  0.44574481923E+02  0.44574481923E+02  0.00000000000E+00 0.  1.
         21   -1    0    0  501  502  0.00000000000E+00 -0.00000000000E+00 -0.37040135219E+03  0.37040135219E+03  0.00000000000E+00 0. -1.
         23    2    1    2    0    0  0.14211541560E+02 -0.15432597115E+01 -0.37117885957E+02  0.98550841205E+02  0.90167517878E+02 0.  0.
        -24    2    1    2    0    0  0.19671569021E+02  0.27038999238E+02 -0.17357770906E+03  0.19373306792E+03  0.79279268512E+02 0.  0.
         11    1    4    4    0    0  0.24952598757E+02  0.29296256002E+02 -0.18060391162E+03  0.18465826733E+03  0.00000000000E+00 0. -1.
        -12    1    4    4    0    0 -0.52810297365E+01 -0.22572567634E+01  0.70262025660E+01  0.90748005858E+01  0.00000000000E+00 0.  1.
        -13    1    3    3    0    0 -0.23155894478E+02  0.58346701336E+01  0.19145685399E+02  0.30607124890E+02  0.00000000000E+00 0.  1.
         13    1    3    3    0    0  0.37367436038E+02 -0.73779298451E+01 -0.56263571357E+02  0.67943716315E+02  0.00000000000E+00 0. -1.
         -1    1    1    2    0  502 -0.33883110581E+02 -0.25495739527E+02 -0.11513127525E+03  0.12269192499E+03  0.00000000000E+00 0.  1.
<scales pt_clust_5="13000.00000" pt_clust_6="13000.00000" pt_clust_7="13000.00000" pt_clust_8="13000.00000" pt_clust_9="42.40398"></scales>
<clustering>
<clus scale="   42.404">  2  9  1 -1</clus>
<clus scale="   79.279">  5  6 -1 -1</clus>
<clus scale="   79.886">  2  5  1 -1</clus>
<clus scale="   90.168">  7  8 -1 -1</clus>
<clus scale="   42.404">  2  5  1 -1</clus>
</clustering>
</event>
<event>
 9    1  0.5981539E-005  0.1325909E+03  0.7546771E-02  0.1227113E+00
          1   -1    0    0  502    0 -0.00000000000E+00  0.00000000000E+00  0.37730903024E+03  0.37730903024E+03  0.00000000000E+00 0. -1.
         21   -1    0    0  501  502  0.00000000000E+00 -0.00000000000E+00 -0.60073553781E+02  0.60073553781E+02  0.00000000000E+00 0. -1.
        -24    2    1    2    0    0  0.25660074484E+02 -0.79644149502E+02  0.13821630244E+03  0.18071270976E+03  0.80942616937E+02 0.  0.
         23    2    1    2    0    0 -0.63638219578E+02  0.89320152951E+02  0.13805039150E+03  0.19997414525E+03  0.94360137022E+02 0.  0.
         11    1    3    3    0    0 -0.16215541773E+02 -0.43042948909E+02  0.20176764646E+02  0.50226895956E+02  0.00000000000E+00 0. -1.
        -12    1    3    3    0    0  0.41875616257E+02 -0.36601200593E+02  0.11803953780E+03  0.13048581381E+03  0.00000000000E+00 0.  1.
        -11    1    4    4    0    0  0.73787666896E+01  0.45626519745E+02  0.96093523953E+02  0.10663109700E+03  0.00000000000E+00 0. -1.
         11    1    4    4    0    0 -0.71016986267E+02  0.43693633206E+02  0.41956867550E+02  0.93343048246E+02  0.00000000000E+00 0.  1.
          2    1    1    2  501    0  0.37978145094E+02 -0.96760034485E+01  0.40968782517E+02  0.56695729014E+02  0.00000000000E+00 0. -1.
<scales pt_clust_5="13000.00000" pt_clust_6="13000.00000" pt_clust_7="13000.00000" pt_clust_8="13000.00000" pt_clust_9="39.19138"></scales>
<clustering>
<clus scale="   39.191">  2  9  1 -1</clus>
<clus scale="   80.943">  5  6 -1 -1</clus>
<clus scale="   94.360">  7  8 -1 -1</clus>
<clus scale="  123.403">  1  5  2 -1</clus>
<clus scale="   39.191">  2  5  1 -1</clus>
</clustering>
</event>
<event>
 9    1  0.5981539E-005  0.1738617E+03  0.7546771E-02  0.1175490E+00
          1   -1    0    0  502    0 -0.00000000000E+00  0.00000000000E+00  0.11128640726E+04  0.11128640726E+04  0.00000000000E+00 0. -1.
         21   -1    0    0  501  502  0.00000000000E+00 -0.00000000000E+00 -0.61904967184E+02  0.61904967184E+02  0.00000000000E+00 0. -1.
        -24    2    1    2    0    0  0.14643806116E+03 -0.53311971433E+02  0.37321286244E+03  0.41229062656E+03  0.80059028294E+02 0.  0.
         23    2    1    2    0    0 -0.14718166486E+03 -0.96693720358E+02  0.36710020188E+03  0.41750997500E+03  0.92411595476E+02 0.  0.
         11    1    3    3    0    0  0.95759834069E+02 -0.65862947649E+02  0.30497804391E+03  0.32637322342E+03  0.00000000000E+00 0. -1.
        -12    1    3    3    0    0  0.50678227090E+02  0.12550976216E+02  0.68234818523E+02  0.85917403149E+02  0.00000000000E+00 0.  1.
        -13    1    4    4    0    0 -0.23893140545E+02  0.13486218775E+02  0.97113805902E+02  0.10091507102E+03  0.00000000000E+00 0.  1.
         13    1    4    4    0    0 -0.12328852431E+03 -0.11017993913E+03  0.26998639597E+03  0.31659490398E+03  0.00000000000E+00 0. -1.
          2    1    1    2  501    0  0.74360369747E+00  0.15000569179E+03  0.31064604111E+03  0.34496843823E+03  0.00000000000E+00 0. -1.
<scales pt_clust_5="13000.00000" pt_clust_6="13000.00000" pt_clust_7="13000.00000" pt_clust_8="13000.00000" pt_clust_9="150.00761"></scales>
<clustering>
<clus scale="   80.059">  5  6 -1 -1</clus>
<clus scale="   92.412">  7  8 -1 -1</clus>
<clus scale="  150.008">  2  9  1 -1</clus>
<clus scale="  167.623">  1  5  2 -1</clus>
<clus scale="  150.008">  2  5  1 -1</clus>
</clustering>
</event>
<event>
 9    1  0.5981539E-005  0.1334971E+03  0.7546771E-02  0.1241645E+00
         -2   -1    0    0    0  501 -0.00000000000E+00  0.00000000000E+00  0.11937625306E+03  0.11937625306E+03  0.00000000000E+00 0.  1.
         21   -1    0    0  501  502  0.00000000000E+00 -0.00000000000E+00 -0.33743013140E+03  0.33743013140E+03  0.00000000000E+00 0. -1.
        -24    2    1    2    0    0 -0.42525340219E+02  0.11536829229E+02  0.35602854108E+02  0.96560108120E+02  0.78197111648E+02 0.  0.
         23    2    1    2    0    0 -0.68845760701E+02  0.42370388670E+02 -0.17450298253E+03  0.21336255911E+03  0.92397522238E+02 0.  0.
         13    1    3    3    0    0 -0.11348327688E+02 -0.31240753179E+02  0.87090284894E+00  0.33249476270E+02  0.00000000000E+00 0. -1.
        -14    1    3    3    0    0 -0.31177012531E+02  0.42777582407E+02  0.34731951259E+02  0.63310631850E+02  0.00000000000E+00 0.  1.
        -11    1    4    4    0    0 -0.28827838609E+02  0.68924612969E+02 -0.10859424990E+03  0.13181182672E+03  0.00000000000E+00 0. -1.
         11    1    4    4    0    0 -0.40017922092E+02 -0.26554224298E+02 -0.65908732637E+02  0.81550732397E+02  0.00000000000E+00 0.  1.
         -1    1    1    2    0  502  0.11137110092E+03 -0.53907217899E+02 -0.79153749909E+02  0.14688371723E+03  0.00000000000E+00 0.  1.
<scales pt_clust_5="13000.00000" pt_clust_6="13000.00000" pt_clust_7="13000.00000" pt_clust_8="13000.00000" pt_clust_9="96.35443"></scales>
<clustering>
<clus scale="   78.197">  5  6 -1 -1</clus>
<clus scale="   89.757">  1  5  2 -1</clus>
<clus scale="   92.398">  7  8 -1 -1</clus>
<clus scale="   96.354">  2  9  1 -1</clus>
<clus scale="   96.354">  2  5  1 -1</clus>
</clustering>
</event>
<event>
 9    1  0.5981539E-005  0.1047885E+03  0.7546771E-02  0.1276140E+00
         -2   -1    0    0    0  501 -0.00000000000E+00  0.00000000000E+00  0.34808051302E+03  0.34808051302E+03  0.00000000000E+00 0.  1.
         21   -1    0    0  501  502  0.00000000000E+00 -0.00000000000E+00 -0.79779066712E+02  0.79779066712E+02  0.00000000000E+00 0.  1.
         23    2    1    2    0    0  0.73825676314E+01  0.22369367442E+02  0.12845217915E+03  0.16061770717E+03  0.93505051325E+02 0.  0.
        -24    2    1    2    0    0 -0.46580567582E+02 -0.53960590416E+02  0.17508555742E+03  0.20579201723E+03  0.81325932792E+02 0.  0.
         11    1    4    4    0    0 -0.22216398928E+02 -0.17392614570E+02  0.32197395069E+01  0.28397854591E+02  0.00000000000E+00 0. -1.
        -12    1    4    4    0    0 -0.24364168654E+02 -0.36567975847E+02  0.17186581791E+03  0.17739416264E+03  0.00000000000E+00 0.  1.
        -13    1    3    3    0    0 -0.20419429302E+02 -0.23696406884E+02  0.87729191151E+02  0.93139056105E+02  0.00000000000E+00 0.  1.
         13    1    3    3    0    0  0.27801996933E+02  0.46065774326E+02  0.40722987996E+02  0.67478651061E+02  0.00000000000E+00 0. -1.
         -1    1    1    2    0  502  0.39197999950E+02  0.31591222974E+02 -0.35236290261E+02  0.61449855333E+02  0.00000000000E+00 0.  1.
<scales pt_clust_5="13000.00000" pt_clust_6="13000.00000" pt_clust_7="13000.00000" pt_clust_8="13000.00000" pt_clust_9="50.34370"></scales>
<clustering>
<clus scale="   50.344">  2  9  1 -1</clus>
<clus scale="   81.326">  5  6 -1 -1</clus>
<clus scale="   93.505">  7  8 -1 -1</clus>
<clus scale="   94.082">  2  5  1 -1</clus>
<clus scale="   50.344">  2  5  1 -1</clus>
</clustering>
</event>
<event>
 9    1  0.5981539E-005  0.2323383E+03  0.7546771E-02  0.1126142E+00
          1   -1    0    0  502    0 -0.00000000000E+00  0.00000000000E+00  0.11265630409E+04  0.11265630409E+04  0.00000000000E+00 0. -1.
         21   -1    0    0  501  502  0.00000000000E+00 -0.00000000000E+00 -0.11497377114E+03  0.11497377114E+03  0.00000000000E+00 0.  1.
        -24    2    1    2    0    0 -0.15600932627E+02  0.18179998721E+03  0.33265447408E+03  0.38757192961E+03  0.79109904889E+02 0.  0.
         23    2    1    2    0    0 -0.17054217123E+03 -0.25154106579E+03  0.43618374634E+03  0.54021156355E+03  0.95993400151E+02 0.  0.
         11    1    3    3    0    0 -0.86333457329E+01  0.11562494878E+03  0.27886595850E+03  0.30200974528E+03  0.00000000000E+00 0. -1.
        -12    1    3    3    0    0 -0.69675868944E+01  0.66175038433E+02  0.53788515581E+02  0.85562184328E+02  0.00000000000E+00 0.  1.
        -13    1    4    4    0    0 -0.49873688843E+02 -0.94928685445E+02  0.83562798045E+02  0.13594698002E+03  0.00000000000E+00 0. -1.
         13    1    4    4    0    0 -0.12066848238E+03 -0.15661238035E+03  0.35262094830E+03  0.40426458353E+03  0.00000000000E+00 0.  1.
          2    1    1    2  501    0  0.18614310385E+03  0.69741078582E+02  0.24275104936E+03  0.31375331890E+03  0.00000000000E+00 0. -1.
<scales pt_clust_5="13000.00000" pt_clust_6="13000.00000" pt_clust_7="13000.00000" pt_clust_8="13000.00000" pt_clust_9="198.77896"></scales>
<clustering>
<clus scale="   79.110">  5  6 -1 -1</clus>
<clus scale="   95.993">  7  8 -1 -1</clus>
<clus scale="  198.779">  2  9  1 -1</clus>
<clus scale="  225.886">  1  5  2 -1</clus>
<clus scale="  198.779">  2  5  1 -1</clus>
</clustering>
</event>
<event>
 9    1  0.5981539E-005  0.1146071E+03  0.7546771E-02  0.1256350E+00
         21   -1    0    0  501  502  0.00000000000E+00  0.00000000000E+00  0.11364233182E+03  0.11364233182E+03  0.00000000000E+00 0. -1.
         -4   -1    0    0    0  501 -0.00000000000E+00 -0.00000000000E+00 -0.31781075379E+03  0.31781075379E+03  0.00000000000E+00 0.  1.
        -24    2    1    2    0    0 -0.47627632360E+02 -0.47164204812E+02 -0.19779816895E+03  0.22345098134E+03  0.79456729363E+02 0.  0.
         23    2    1    2    0    0  0.69019583883E+02  0.38283802983E+02 -0.70678760074E+02  0.13964962659E+03  0.90979000599E+02 0.  0.
         13    1    3    3    0    0 -0.29023337664E+01 -0.45628486643E+02 -0.44680507070E+02  0.63927537467E+02  0.00000000000E+00 0. -1.
        -14    1    3    3    0    0 -0.44725298593E+02 -0.15357181688E+01 -0.15311766188E+03  0.15952344387E+03  0.00000000000E+00 0.  1.
        -13    1    4    4    0    0 -0.13151641975E+02 -0.16934752412E+02 -0.12476423944E+02  0.24807512578E+02  0.00000000000E+00 0.  1.
         13    1    4    4    0    0  0.82171225858E+02  0.55218555394E+02 -0.58202336130E+02  0.11484211401E+03  0.00000000000E+00 0. -1.
         -3    1    1    2    0  502 -0.21391951523E+02  0.88804018293E+01  0.64308507055E+02  0.68352477689E+02  0.00000000000E+00 0.  1.
<scales pt_clust_5="13000.00000" pt_clust_6="13000.00000" pt_clust_7="13000.00000" pt_clust_8="13000.00000" pt_clust_9="23.16198"></scales>
<clustering>
<clus scale="   23.162">  1  9  2 -1</clus>
<clus scale="   79.457">  5  6 -1 -1</clus>
<clus scale="   90.979">  7  8 -1 -1</clus>
<clus scale="  105.693">  2  5  1 -1</clus>
<clus scale="   23.162">  1  5  2 -1</clus>
</clustering>
</event>
<event>
 9    1  0.5981539E-005  0.2315591E+03  0.7546771E-02  0.1145872E+00
         21   -1    0    0  501  502  0.00000000000E+00  0.00000000000E+00  0.67075587079E+02  0.67075587079E+02  0.00000000000E+00 0. -1.
         -2   -1    0    0    0  501 -0.00000000000E+00 -0.00000000000E+00 -0.17838168962E+04  0.17838168962E+04  0.00000000000E+00 0.  1.
        -24    2    1    2    0    0 -0.99916513946E+01 -0.11726631526E+03 -0.24596433627E+03  0.28365178080E+03  0.78157893024E+02 0.  0.
         23    2    1    2    0    0  0.15384582242E+03  0.17847279689E+03 -0.32873606801E+03  0.41454920678E+03  0.90898658564E+02 0.  0.
         13    1    3    3    0    0 -0.39667516854E+01 -0.11063971188E+03 -0.14570922983E+03  0.18299743338E+03  0.00000000000E+00 0. -1.
        -14    1    3    3    0    0 -0.60248997092E+01 -0.66266033848E+01 -0.10025510644E+03  0.10065434743E+03  0.00000000000E+00 0.  1.
        -13    1    4    4    0    0  0.65112890624E+02  0.10193912556E+03 -0.23570586598E+03  0.26493117805E+03  0.00000000000E+00 0.  1.
         13    1    4    4    0    0  0.88732931791E+02  0.76533671335E+02 -0.93030202025E+02  0.14961802873E+03  0.00000000000E+00 0. -1.
         -1    1    1    2    0  502 -0.14385417102E+03 -0.61206481626E+02 -0.11420409048E+04  0.11526914957E+04  0.00000000000E+00 0.  1.
<scales pt_clust_5="13000.00000" pt_clust_6="13000.00000" pt_clust_7="13000.00000" pt_clust_8="13000.00000" pt_clust_9="212.97209"></scales>
<clustering>
<clus scale="   78.158">  5  6 -1 -1</clus>
<clus scale="   90.899">  7  8 -1 -1</clus>
<clus scale="  141.280">  2  5  1 -1</clus>
<clus scale="  212.972">  1  9  2 -1</clus>
<clus scale="  212.972">  1  5  2 -1</clus>
</clustering>
</event>
<event>
 9    1  0.5981539E-005  0.1177680E+03  0.7546771E-02  0.1254889E+00
          1   -1    0    0  502    0 -0.00000000000E+00  0.00000000000E+00  0.92117227502E+02  0.92117227502E+02  0.00000000000E+00 0. -1.
         21   -1    0    0  501  502  0.00000000000E+00 -0.00000000000E+00 -0.39114590269E+03  0.39114590269E+03  0.00000000000E+00 0.  1.
        -24    2    1    2    0    0  0.70170731004E+02  0.26864224585E+02  0.25692169259E+02  0.10398473886E+03  0.67135089953E+02 0.  0.
         23    2    1    2    0    0 -0.79057986561E+02  0.17370194229E+02 -0.30781594476E+03  0.33109703858E+03  0.91228856297E+02 0.  0.
         13    1    3    3    0    0  0.61420179997E+02 -0.67646528814E+01  0.30493096179E+02  0.68905935550E+02  0.00000000000E+00 0. -1.
        -14    1    3    3    0    0  0.87505510072E+01  0.33628877466E+02 -0.48009269204E+01  0.35078803313E+02  0.00000000000E+00 0.  1.
        -11    1    4    4    0    0 -0.96938155265E+01 -0.21332866137E+02 -0.15291673058E+02  0.27980287740E+02  0.00000000000E+00 0. -1.
         11    1    4    4    0    0 -0.69364171035E+02  0.38703060367E+02 -0.29252427171E+03  0.30311675084E+03  0.00000000000E+00 0.  1.
          2    1    1    2  501    0  0.88872555572E+01 -0.44234418814E+02 -0.16904899686E+02  0.48181352748E+02  0.00000000000E+00 0. -1.
<scales pt_clust_5="13000.00000" pt_clust_6="13000.00000" pt_clust_7="13000.00000" pt_clust_8="13000.00000" pt_clust_9="45.11839"></scales>
<clustering>
<clus scale="   45.118">  2  9  1 -1</clus>
<clus scale="   67.135">  5  6 -1 -1</clus>
<clus scale="   91.229">  7  8 -1 -1</clus>
<clus scale="  100.268">  1  5  2 -1</clus>
<clus scale="   45.118">  2  5  1 -1</clus>
</clustering>
</event>
<event>
 9    1  0.5981539E-005  0.1051095E+03  0.7546771E-02  0.1272828E+00
          3   -1    0    0  502    0 -0.00000000000E+00  0.00000000000E+00  0.22032659348E+03  0.22032659348E+03  0.00000000000E+00 0. -1.
         21   -1    0    0  501  502  0.00000000000E+00 -0.00000000000E+00 -0.13137263179E+03  0.13137263179E+03  0.00000000000E+00 0.  1.
         23    2    1    2    0    0  0.21580894280E+02 -0.49467894069E+02  0.15345288400E+03  0.18636894906E+03  0.90954879063E+02 0.  0.
        -24    2    1    2    0    0  0.21371378708E+01  0.48383784538E+02 -0.88606511534E+02  0.13149396139E+03  0.84225827580E+02 0.  0.
         13    1    4    4    0    0  0.24603182876E+02 -0.67760505640E+01 -0.60447105519E+02  0.65613139191E+02  0.00000000000E+00 0. -1.
        -14    1    4    4    0    0 -0.22466045005E+02  0.55159835102E+02 -0.28159406015E+02  0.65880822200E+02  0.00000000000E+00 0.  1.
        -13    1    3    3    0    0  0.20698007952E+02 -0.73384203349E+02  0.13863854973E+03  0.15822230028E+03  0.00000000000E+00 0. -1.
         13    1    3    3    0    0  0.88288632842E+00  0.23916309279E+02  0.14814334265E+02  0.28146648780E+02  0.00000000000E+00 0.  1.
          4    1    1    2  501    0 -0.23718032151E+02  0.10841095315E+01  0.24107589223E+02  0.33836314822E+02  0.00000000000E+00 0. -1.
<scales pt_clust_5="13000.00000" pt_clust_6="13000.00000" pt_clust_7="13000.00000" pt_clust_8="13000.00000" pt_clust_9="23.74281"></scales>
<clustering>
<clus scale="   23.743">  2  9  1 -1</clus>
<clus scale="   84.226">  5  6 -1 -1</clus>
<clus scale="   90.955">  7  8 -1 -1</clus>
<clus scale="   99.344">  2  5  1 -1</clus>
<clus scale="   23.743">  2  5  1 -1</clus>
</clustering>
</event>
<event>
 9    1  0.5981539E-005  0.1495455E+03  0.7546771E-02  0.1202942E+00
         21   -1    0    0  501  502  0.00000000000E+00  0.00000000000E+00  0.62928616854E+03  0.62928616854E+03  0.00000000000E+00 0.  1.
         -4   -1    0    0    0  501 -0.00000000000E+00 -0.00000000000E+00 -0.57532144072E+02  0.57532144072E+02  0.00000000000E+00 0.  1.
         23    2    1    2    0    0  0.44834319899E+02 -0.11567956761E+03  0.12894024936E+03  0.20023772976E+03  0.89875925087E+02 0.  0.
        -24    2    1    2    0    0 -0.10806747825E+02  0.10995343714E+03  0.42786615262E+03  0.44897611970E+03  0.79395008438E+02 0.  0.
         11    1    4    4    0    0 -0.25756391072E+02  0.31525484125E+01  0.11984778541E+03  0.12262471982E+03  0.00000000000E+00 0. -1.
        -12    1    4    4    0    0  0.14949643247E+02  0.10680088873E+03  0.30801836721E+03  0.32635139988E+03  0.00000000000E+00 0.  1.
        -11    1    3    3    0    0  0.29579612389E+02 -0.91424267374E+01  0.72232707899E+02  0.78588176758E+02  0.00000000000E+00 0. -1.
         11    1    3    3    0    0  0.15254707510E+02 -0.10653714087E+03  0.56707541459E+02  0.12164955300E+03  0.00000000000E+00 0.  1.
         -3    1    1    2    0  502 -0.34027572074E+02  0.57261304670E+01  0.14947622493E+02  0.37604463161E+02  0.00000000000E+00 0.  1.
<scales pt_clust_5="13000.00000" pt_clust_6="13000.00000" pt_clust_7="13000.00000" pt_clust_8="13000.00000" pt_clust_9="34.50602"></scales>
<clustering>
<clus scale="   34.506">  1  9  2 -1</clus>
<clus scale="   79.395">  5  6 -1 -1</clus>
<clus scale="   89.876">  7  8 -1 -1</clus>
<clus scale="  143.491">  1  5  2 -1</clus>
<clus scale="   34.506">  1  5  2 -1</clus>
</clustering>
</event>
<event>
 9    1  0.5981539E-005  0.1004055E+03  0.7546771E-02  0.1290228E+00
         21   -1    0    0  501  502  0.00000000000E+00  0.00000000000E+00  0.11769471415E+03  0.11769471415E+03  0.00000000000E+00 0. -1.
          1   -1    0    0  502    0 -0.00000000000E+00 -0.00000000000E+00 -0.24028886476E+03  0.24028886476E+03  0.00000000000E+00 0. -1.
        -24    2    1    2    0    0 -0.12897063753E+01  0.26055599068E+02 -0.16631498107E+03  0.18579192743E+03  0.78596499813E+02 0.  0.
         23    2    1    2    0    0 -0.44375681402E+02  0.47673468027E+01  0.46417337249E+02  0.11703140509E+03  0.97723343603E+02 0.  0.
         13    1    3    3    0    0 -0.26286700820E+02  0.26592898607E+02 -0.32138360240E+02  0.49305649729E+02  0.00000000000E+00 0. -1.
        -14    1    3    3    0    0  0.24996994444E+02 -0.53729953905E+00 -0.13417662083E+03  0.13648627770E+03  0.00000000000E+00 0.  1.
        -13    1    4    4    0    0 -0.31103668144E+02  0.50585604984E+02  0.21046518681E+02  0.63002361481E+02  0.00000000000E+00 0.  1.
         13    1    4    4    0    0 -0.13272013259E+02 -0.45818258181E+02  0.25370818568E+02  0.54029043611E+02  0.00000000000E+00 0. -1.
          2    1    1    2  501    0  0.45665387778E+02 -0.30822945871E+02 -0.26965067940E+01  0.55160246391E+02  0.00000000000E+00 0. -1.
<scales pt_clust_5="13000.00000" pt_clust_6="13000.00000" pt_clust_7="13000.00000" pt_clust_8="13000.00000" pt_clust_9="55.09430"></scales>
<clustering>
<clus scale="   55.094">  1  9  2 -1</clus>
<clus scale="   78.596">  5  6 -1 -1</clus>
<clus scale="   81.907">  2  5  1 -1</clus>
<clus scale="   97.723">  7  8 -1 -1</clus>
<clus scale="   55.094">  1  5  2 -1</clus>
</clustering>
</event>
<event>
 9    1  0.5981539E-005  0.3847506E+03  0.7546771E-02  0.1059150E+00
          1   -1    0    0  502    0 -0.00000000000E+00  0.00000000000E+00  0.44457124038E+03  0.44457124038E+03  0.00000000000E+00 0. -1.
         21   -1    0    0  501  502  0.00000000000E+00 -0.00000000000E+00 -0.69383191720E+03  0.69383191720E+03  0.00000000000E+00 0. -1.
         23    2    1    2    0    0  0.75244497736E+02 -0.26405607959E+03 -0.13924704149E+03  0.32192583290E+03  0.94123088108E+02 0.  0.
        -24    2    1    2    0    0  0.26789292024E+03 -0.85504774579E+02  0.58904268771E+02  0.29833705727E+03  0.80359216476E+02 0.  0.
         11    1    4    4    0    0  0.20282847689E+03 -0.98783719351E+02  0.52424979824E+02  0.23161604598E+03  0.00000000000E+00 0. -1.
        -12    1    4    4    0    0  0.65064443346E+02  0.13278944772E+02  0.64792889466E+01  0.66721011289E+02  0.00000000000E+00 0.  1.
        -13    1    3    3    0    0  0.14832743586E+02 -0.15556797276E+03 -0.35834464978E+02  0.16032939004E+03  0.00000000000E+00 0. -1.
         13    1    3    3    0    0  0.60411754150E+02 -0.10848810683E+03 -0.10341257651E+03  0.16159644286E+03  0.00000000000E+00 0.  1.
          2    1    1    2  501    0 -0.34313741798E+03  0.34956085417E+03 -0.16891790411E+03  0.51814026741E+03  0.00000000000E+00 0. -1.
<scales pt_clust_5="13000.00000" pt_clust_6="13000.00000" pt_clust_7="13000.00000" pt_clust_8="13000.00000" pt_clust_9="376.26508"></scales>
<clustering>
<clus scale="   80.359">  5  6 -1 -1</clus>
<clus scale="   94.123">  7  8 -1 -1</clus>
<clus scale="  290.253">  1  7  2 -1</clus>
<clus scale="  376.265">  2  9  1 -1</clus>
<clus scale="  376.265">  2  5  1 -1</clus>
</clustering>
</event>
<event>
 9    1  0.5981539E-005  0.1062503E+03  0.7546771E-02  0.1271987E+00
          1   -1    0    0  502    0 -0.00000000000E+00  0.00000000000E+00  0.82791607689E+03  0.82791607689E+03  0.00000000000E+00 0. -1.
         21   -1    0    0  501  502  0.00000000000E+00 -0.00000000000E+00 -0.43700808039E+02  0.43700808039E+02  0.00000000000E+00 0.  1.
         23    2    1    2    0    0 -0.51635791800E+02 -0.42138497731E+02  0.44791073572E+03  0.46189030161E+03  0.90976456051E+02 0.  0.
        -24    2    1    2    0    0 -0.33294734525E+02  0.38941970377E+02  0.44101857825E+02  0.10541454685E+03  0.80884092502E+02 0.  0.
         11    1    4    4    0    0 -0.24585200058E+02  0.50383887300E+02  0.61251299902E+02  0.83034269437E+02  0.00000000000E+00 0. -1.
        -12    1    4    4    0    0 -0.87095344673E+01 -0.11441916923E+02 -0.17149442077E+02  0.22380277412E+02  0.00000000000E+00 0.  1.
        -11    1    3    3    0    0 -0.64707186199E+02  0.32728181864E+01  0.23260273529E+03  0.24145758168E+03  0.00000000000E+00 0. -1.
         11    1    3    3    0    0  0.13071394399E+02 -0.45411315917E+02  0.21530800043E+03  0.22043271993E+03  0.00000000000E+00 0.  1.
          2    1    1    2  501    0  0.84930526325E+02  0.31965273538E+01  0.29220267530E+03  0.30431203647E+03  0.00000000000E+00 0. -1.
<scales pt_clust_5="13000.00000" pt_clust_6="13000.00000" pt_clust_7="13000.00000" pt_clust_8="13000.00000" pt_clust_9="84.99070"></scales>
<clustering>
<clus scale="   80.884">  5  6 -1 -1</clus>
<clus scale="   84.991">  2  9  1 -1</clus>
<clus scale="   90.976">  7  8 -1 -1</clus>
<clus scale="   97.748">  2  5  1 -1</clus>
<clus scale="   84.991">  2  5  1 -1</clus>
</clustering>
</event>
<event>
 9    1  0.5981539E-005  0.9895967E+02  0.7546771E-02  0.1291825E+00
         21   -1    0    0  501  502  0.00000000000E+00  0.00000000000E+00  0.59006186563E+02  0.59006186563E+02  0.00000000000E+00 0. -1.
         -2   -1    0    0    0  501 -0.00000000000E+00 -0.00000000000E+00 -0.40818808327E+03  0.40818808327E+03  0.00000000000E+00 0.  1.
         23    2    1    2    0    0 -0.73250399730E+01 -0.12356497836E+02 -0.33050494651E+03  0.34478366156E+03  0.97138634744E+02 0.  0.
        -24    2    1    2    0    0  0.28386513112E+02  0.30840238084E+02 -0.23306178916E+02  0.94008776236E+02  0.80855164474E+02 0.  0.
         13    1    4    4    0    0  0.41397038596E+02  0.50429282656E+02 -0.26214081569E+02  0.70313621911E+02  0.00000000000E+00 0. -1.
        -14    1    4    4    0    0 -0.13010525484E+02 -0.19589044572E+02  0.29079026535E+01  0.23695154325E+02  0.00000000000E+00 0.  1.
        -11    1    3    3    0    0  0.33132418739E+02 -0.37766154326E+02 -0.17982560936E+03  0.18671178154E+03  0.00000000000E+00 0.  1.
         11    1    3    3    0    0 -0.40457458712E+02  0.25409656490E+02 -0.15067933716E+03  0.15807188002E+03  0.00000000000E+00 0. -1.
         -1    1    1    2    0  502 -0.21061473139E+02 -0.18483740248E+02  0.46292287237E+01  0.28401832034E+02  0.00000000000E+00 0.  1.
<scales pt_clust_5="13000.00000" pt_clust_6="13000.00000" pt_clust_7="13000.00000" pt_clust_8="13000.00000" pt_clust_9="28.02203"></scales>
<clustering>
<clus scale="   28.022">  1  9  2 -1</clus>
<clus scale="   80.855">  5  6 -1 -1</clus>
<clus scale="   83.034">  1  5  2 -1</clus>
<clus scale="   97.139">  7  8 -1 -1</clus>
<clus scale="   28.022">  1  5  2 -1</clus>
</clustering>
</event>
<event>
 9    1  0.5981539E-005  0.2279514E+03  0.7546771E-02  0.1159790E+00
         21   -1    0    0  501  502  0.00000000000E+00  0.00000000000E+00  0.71276368505E+02  0.71276368505E+02  0.00000000000E+00 0.  1.
         -2   -1    0    0    0  501 -0.00000000000E+00 -0.00000000000E+00 -0.13246678181E+04  0.13246678181E+04  0.00000000000E+00 0.  1.
         23    2    1    2    0    0  0.48862915676E+01  0.15329270130E+02 -0.14218805004E+03  0.17775085666E+03  0.10544696818E+03 0.  0.
        -24    2    1    2    0    0 -0.12703030050E+03 -0.19329401085E+03 -0.83013597719E+03  0.86380723573E+03  0.59480484174E+02 0.  0.
         11    1    4    4    0    0 -0.18597791367E+02 -0.41868738194E+02 -0.95351225788E+02  0.10578622472E+03  0.00000000000E+00 0. -1.
        -12    1    4    4    0    0 -0.10843250913E+03 -0.15142527266E+03 -0.73478475140E+03  0.75802101101E+03  0.00000000000E+00 0.  1.
        -11    1    3    3    0    0 -0.20900734760E+02  0.20237428049E+02  0.38731979486E+01  0.29349546332E+02  0.00000000000E+00 0.  1.
         11    1    3    3    0    0  0.25787026327E+02 -0.49081579187E+01 -0.14606124799E+03  0.14840131033E+03  0.00000000000E+00 0. -1.
         -1    1    1    2    0  502  0.12214400893E+03  0.17796474072E+03 -0.28106742232E+03  0.35438609418E+03  0.00000000000E+00 0.  1.
<scales pt_clust_5="13000.00000" pt_clust_6="13000.00000" pt_clust_7="13000.00000" pt_clust_8="13000.00000" pt_clust_9="220.05436"></scales>
<clustering>
<clus scale="   59.480">  5  6 -1 -1</clus>
<clus scale="  105.447">  7  8 -1 -1</clus>
<clus scale="  106.667">  2  7  1 -1</clus>
<clus scale="  220.054">  1  9  2 -1</clus>
<clus scale="  220.054">  1  5  2 -1</clus>
</clustering>
</event>
<event>
 9    1  0.5981539E-005  0.1182214E+03  0.7546771E-02  0.1249949E+00
         21   -1    0    0  501  502  0.00000000000E+00  0.00000000000E+00  0.60466474482E+03  0.60466474482E+03  0.00000000000E+00 0.  1.
         -2   -1    0    0    0  501 -0.00000000000E+00 -0.00000000000E+00 -0.90345802017E+02  0.90345802017E+02  0.00000000000E+00 0.  1.
         23    2    1    2    0    0 -0.53708768254E+02 -0.46093671233E+02 -0.29307932072E+02  0.12068721091E+03  0.93258724412E+02 0.  0.
        -24    2    1    2    0    0  0.38402700449E+02  0.81224496181E+02  0.24717027681E+03  0.27540032727E+03  0.81731317976E+02 0.  0.
         11    1    4    4    0    0  0.30557645676E+02 -0.82411456841E+01  0.64164884358E+02  0.71545919353E+02  0.00000000000E+00 0. -1.
        -12    1    4    4    0    0  0.78450547730E+01  0.89465641865E+02  0.18300539246E+03  0.20385440792E+03  0.00000000000E+00 0.  1.
        -11    1    3    3    0    0  0.25581460273E+02 -0.23226813231E+02 -0.86137109138E+01  0.35610279110E+02  0.00000000000E+00 0. -1.
         11    1    3    3    0    0 -0.79290228526E+02 -0.22866858001E+02 -0.20694221158E+02  0.85076931797E+02  0.00000000000E+00 0.  1.
         -1    1    1    2    0  502  0.15306067804E+02 -0.35130824948E+02  0.29645659806E+03  0.29892300866E+03  0.00000000000E+00 0.  1.
<scales pt_clust_5="13000.00000" pt_clust_6="13000.00000" pt_clust_7="13000.00000" pt_clust_8="13000.00000" pt_clust_9="38.32037"></scales>
<clustering>
<clus scale="   38.320">  1  9  2 -1</clus>
<clus scale="   81.731">  5  6 -1 -1</clus>
<clus scale="   93.259">  7  8 -1 -1</clus>
<clus scale="  109.358">  1  5  2 -1</clus>
<clus scale="   38.320">  1  5  2 -1</clus>
</clustering>
</event>
<event>
 9    1  0.5981539E-005  0.9546008E+02  0.7546771E-02  0.1296615E+00
         -2   -1    0    0    0  501 -0.00000000000E+00  0.00000000000E+00  0.73196589040E+02  0.73196589040E+02  0.00000000000E+00 0.  1.
         21   -1    0    0  501  502  0.00000000000E+00 -0.00000000000E+00 -0.36132699558E+03  0.36132699558E+03  0.00000000000E+00 0.  1.
        -24    2    1    2    0    0  0.73398485217E+01 -0.37481520250E+02  0.15750807550E+02  0.89903902941E+02  0.79849145825E+02 0.  0.
         23    2    1    2    0    0  0.28502147190E+02 -0.12708531399E+02 -0.14458902061E+03  0.17380489062E+03  0.91259388326E+02 0.  0.
         11    1    3    3    0    0 -0.13767346054E+02  0.18041392358E+02 -0.10447337469E+02  0.24983564913E+02  0.00000000000E+00 0. -1.
        -12    1    3    3    0    0  0.21107194575E+02 -0.55522912607E+02  0.26198145019E+02  0.64920338028E+02  0.00000000000E+00 0.  1.
        -11    1    4    4    0    0 -0.59044028829E+01 -0.46067663708E+02 -0.53261974603E+02  0.70667740530E+02  0.00000000000E+00 0.  1.
         11    1    4    4    0    0  0.34406550073E+02  0.33359132310E+02 -0.91327046006E+02  0.10313715009E+03  0.00000000000E+00 0. -1.
         -1    1    1    2    0  502 -0.35841995712E+02  0.50190051649E+02 -0.15929219348E+03  0.17081479106E+03  0.00000000000E+00 0.  1.
<scales pt_clust_5="13000.00000" pt_clust_6="13000.00000" pt_clust_7="13000.00000" pt_clust_8="13000.00000" pt_clust_9="61.67406"></scales>
<clustering>
<clus scale="   61.674">  2  9  1 -1</clus>
<clus scale="   79.849">  5  6 -1 -1</clus>
<clus scale="   84.618">  1  5  2 -1</clus>
<clus scale="   91.259">  7  8 -1 -1</clus>
<clus scale="   61.674">  2  5  1 -1</clus>
</clustering>
</event>
<event>
 9    1  0.5981539E-005  0.9448081E+02  0.7546771E-02  0.1300083E+00
         -2   -1    0    0    0  501 -0.00000000000E+00  0.00000000000E+00  0.54366870980E+02  0.54366870980E+02  0.00000000000E+00 0.  1.
         21   -1    0    0  501  502  0.00000000000E+00 -0.00000000000E+00 -0.28055119985E+03  0.28055119985E+03  0.00000000000E+00 0. -1.
         23    2    1    2    0    0 -0.25852991424E+02  0.93190909537E+01 -0.42995955220E+02  0.10542900520E+03  0.92257250937E+02 0.  0.
        -24    2    1    2    0    0  0.82383491433E+01  0.33491285632E+02 -0.86546469685E+02  0.12233188403E+03  0.79279643198E+02 0.  0.
         11    1    4    4    0    0  0.24290782635E+02 -0.10485139195E+02 -0.66192175645E+02  0.71283829734E+02  0.00000000000E+00 0. -1.
        -12    1    4    4    0    0 -0.16052433492E+02  0.43976424827E+02 -0.20354294041E+02  0.51048054297E+02  0.00000000000E+00 0.  1.
        -11    1    3    3    0    0  0.30433417876E+02 -0.12884459393E+02 -0.36399946167E+01  0.33248334970E+02  0.00000000000E+00 0.  1.
         11    1    3    3    0    0 -0.56286409300E+02  0.22203550347E+02 -0.39355960603E+02  0.72180670230E+02  0.00000000000E+00 0. -1.
         -1    1    1    2    0  502  0.17614642280E+02 -0.42810376586E+02 -0.96641903963E+02  0.10715718160E+03  0.00000000000E+00 0.  1.
<scales pt_clust_5="13000.00000" pt_clust_6="13000.00000" pt_clust_7="13000.00000" pt_clust_8="13000.00000" pt_clust_9="46.29259"></scales>
<clustering>
<clus scale="   46.293">  2  9  1 -1</clus>
<clus scale="   79.280">  5  6 -1 -1</clus>
<clus scale="   81.856">  2  5  1 -1</clus>
<clus scale="   92.257">  7  8 -1 -1</clus>
<clus scale="   46.293">  2  5  1 -1</clus>
</clustering>
</event>
<event>
 9    1  0.5981539E-005  0.9747606E+02  0.7546771E-02  0.1296902E+00
         -2   -1    0    0    0  501 -0.00000000000E+00  0.00000000000E+00  0.40032155073E+03  0.40032155073E+03  0.00000000000E+00 0.  1.
         21   -1    0    0  501  502  0.00000000000E+00 -0.00000000000E+00 -0.63930018078E+02  0.63930018078E+02  0.00000000000E+00 0. -1.
         23    2    1    2    0    0  0.59152406541E+01 -0.15339539630E+02  0.28872535313E+03  0.30416791970E+03  0.94262942279E+02 0.  0.
        -24    2    1    2    0    0 -0.35350625902E+02  0.57618253687E+02  0.26822229189E+02  0.10451025770E+03  0.75056192792E+02 0.  0.
         11    1    4    4    0    0 -0.41997581746E+02  0.45056789984E+02 -0.12366754490E+02  0.62823942990E+02  0.00000000000E+00 0. -1.
        -12    1    4    4    0    0  0.66469558441E+01  0.12561463703E+02  0.39188983679E+02  0.41686314711E+02  0.00000000000E+00 0.  1.
        -13    1    3    3    0    0 -0.29256866694E+02 -0.42241824650E+02  0.15192418889E+03  0.16037859947E+03  0.00000000000E+00 0.  1.
         13    1    3    3    0    0  0.35172107349E+02  0.26902285020E+02  0.13680116424E+03  0.14378932023E+03  0.00000000000E+00 0. -1.
         -1    1    1    2    0  502  0.29435385248E+02 -0.42278714057E+02  0.20843950334E+02  0.55573391408E+02  0.00000000000E+00 0.  1.
<scales pt_clust_5="13000.00000" pt_clust_6="13000.00000" pt_clust_7="13000.00000" pt_clust_8="13000.00000" pt_clust_9="51.51632"></scales>
<clustering>
<clus scale="   51.516">  2  9  1 -1</clus>
<clus scale="   75.056">  5  6 -1 -1</clus>
<clus scale="   79.054">  2  5  1 -1</clus>
<clus scale="   94.263">  7  8 -1 -1</clus>
<clus scale="   51.516">  2  5  1 -1</clus>
</clustering>
</event>
<event>
 9    1  0.5981539E-005  0.8967995E+02  0.7546771E-02  0.1303771E+00
         21   -1    0    0  501  502  0.00000000000E+00  0.00000000000E+00  0.34661224073E+03  0.34661224073E+03  0.00000000000E+00 0. -1.
         -2   -1    0    0    0  501 -0.00000000000E+00 -0.00000000000E+00 -0.10453638686E+03  0.10453638686E+03  0.00000000000E+00 0.  1.
         23    2    1    2    0    0 -0.11152086030E+02  0.37917332241E+01 -0.30098763669E+02  0.95167759902E+02  0.89511008746E+02 0.  0.
        -24    2    1    2    0    0 -0.77176275165E+02 -0.17885468020E+02  0.23174281409E+03  0.25782148972E+03  0.80567495083E+02 0.  0.
         13    1    4    4    0    0 -0.70081083316E+02  0.15450108572E+02  0.19460248367E+03  0.20741309203E+03  0.00000000000E+00 0. -1.
        -14    1    4    4    0    0 -0.70951918489E+01 -0.33335576592E+02  0.37140330414E+02  0.50408397687E+02  0.00000000000E+00 0.  1.
        -13    1    3    3    0    0  0.96477075232E+00 -0.39889174988E+02  0.14702122279E+01  0.39927917399E+02  0.00000000000E+00 0. -1.
         13    1    3    3    0    0 -0.12116856782E+02  0.43680908213E+02 -0.31568975897E+02  0.55239842503E+02  0.00000000000E+00 0.  1.
         -1    1    1    2    0  502  0.88328361195E+02  0.14093734796E+02  0.40431803454E+02  0.98159377964E+02  0.00000000000E+00 0.  1.
<scales pt_clust_5="13000.00000" pt_clust_6="13000.00000" pt_clust_7="13000.00000" pt_clust_8="13000.00000" pt_clust_9="89.44574"></scales>
<clustering>
<clus scale="   80.567">  5  6 -1 -1</clus>
<clus scale="   89.446">  1  9  2 -1</clus>
<clus scale="   89.446">  1  5  2 -1</clus>
<clus scale="   89.511">  7  8 -1 -1</clus>
<clus scale="   89.446">  1  5  2 -1</clus>
</clustering>
</event>
<event>
 9    1  0.5981539E-005  0.1054745E+03  0.7546771E-02  0.1273671E+00
         -2   -1    0    0    0  501 -0.00000000000E+00  0.00000000000E+00  0.20245858008E+03  0.20245858008E+03  0.00000000000E+00 0.  1.
         21   -1    0    0  501  502  0.00000000000E+00 -0.00000000000E+00 -0.13586139985E+03  0.13586139985E+03  0.00000000000E+00 0. -1.
        -24    2    1    2    0    0  0.51768690943E+02  0.51114003813E+02  0.60511963154E+02  0.12430721108E+03  0.80609839938E+02 0.  0.
         23    2    1    2    0    0  0.16204058705E+02 -0.16077433681E+02 -0.61372859852E+02  0.11203998775E+03  0.90913560789E+02 0.  0.
         11    1    3    3    0    0  0.69393123911E+02  0.21943659583E+02  0.51172751082E+02  0.88969547011E+02  0.00000000000E+00 0. -1.
        -12    1    3    3    0    0 -0.17624432968E+02  0.29170344230E+02  0.93392120721E+01  0.35337664072E+02  0.00000000000E+00 0.  1.
        -11    1    4    4    0    0 -0.20541467972E+02 -0.18247446022E+02  0.11976415839E+02  0.29972582957E+02  0.00000000000E+00 0.  1.
         11    1    4    4    0    0  0.36745526677E+02  0.21700123406E+01 -0.73349275691E+02  0.82067404788E+02  0.00000000000E+00 0. -1.
         -1    1    1    2    0  502 -0.67972749648E+02 -0.35036570132E+02  0.67458076934E+02  0.10197278110E+03  0.00000000000E+00 0.  1.
<scales pt_clust_5="13000.00000" pt_clust_6="13000.00000" pt_clust_7="13000.00000" pt_clust_8="13000.00000" pt_clust_9="76.47131"></scales>
<clustering>
<clus scale="   76.471">  2  9  1 -1</clus>
<clus scale="   80.610">  5  6 -1 -1</clus>
<clus scale="   90.914">  7  8 -1 -1</clus>
<clus scale="   96.734">  1  5  2 -1</clus>
<clus scale="   76.471">  2  5  1 -1</clus>
</clustering>
</event>
<event>
 9    1  0.5981539E-005  0.1208246E+03  0.7546771E-02  0.1242496E+00
         21   -1    0    0  501  502  0.00000000000E+00  0.00000000000E+00  0.41085763143E+03  0.41085763143E+03  0.00000000000E+00 0.  1.
         -4   -1    0    0    0  501 -0.00000000000E+00 -0.00000000000E+00 -0.14466302129E+03  0.14466302129E+03  0.00000000000E+00 0.  1.
        -24    2    1    2    0    0  0.91371888413E+02  0.18160635472E+02 -0.10127431074E+03  0.15976981577E+03  0.81186682038E+02 0.  0.
         23    2    1    2    0    0 -0.38731058546E+02 -0.10127684846E+02  0.21371968505E+03  0.23304124047E+03  0.83841821827E+02 0.  0.
         11    1    3    3    0    0  0.15229098447E+02 -0.27717382250E+02 -0.43377670282E+02  0.53682408640E+02  0.00000000000E+00 0. -1.
        -12    1    3    3    0    0  0.76142789965E+02  0.45878017723E+02 -0.57896640463E+02  0.10608740713E+03  0.00000000000E+00 0.  1.
        -11    1    4    4    0    0  0.19868706176E+02  0.14492786217E+02  0.30929035526E+02  0.39514700758E+02  0.00000000000E+00 0.  1.
         11    1    4    4    0    0 -0.58599764722E+02 -0.24620471063E+02  0.18279064952E+03  0.19352653971E+03  0.00000000000E+00 0. -1.
         -3    1    1    2    0  502 -0.52640829867E+02 -0.80329506264E+01  0.15374923584E+03  0.16270959648E+03  0.00000000000E+00 0.  1.
<scales pt_clust_5="13000.00000" pt_clust_6="13000.00000" pt_clust_7="13000.00000" pt_clust_8="13000.00000" pt_clust_9="53.25021"></scales>
<clustering>
<clus scale="   53.250">  1  9  2 -1</clus>
<clus scale="   81.187">  5  6 -1 -1</clus>
<clus scale="   83.842">  7  8 -1 -1</clus>
<clus scale="  118.998">  2  5  1 -1</clus>
<clus scale="   53.250">  1  5  2 -1</clus>
</clustering>
</event>
<event>
 9    1  0.5981539E-005  0.1006516E+03  0.7546771E-02  0.1290031E+00
          1   -1    0    0  502    0 -0.00000000000E+00  0.00000000000E+00  0.42771087997E+03  0.42771087997E+03  0.00000000000E+00 0. -1.
         21   -1    0    0  501  502  0.00000000000E+00 -0.00000000000E+00 -0.10077844720E+03  0.10077844720E+03  0.00000000000E+00 0.  1.
         23    2    1    2    0    0  0.57606566430E+01  0.22543546030E+02  0.33209508766E+03  0.34740740874E+03  0.99314469062E+02 0.  0.
        -24    2    1    2    0    0 -0.39068864932E+02  0.40756761531E+02  0.28619724542E+02  0.10197683113E+03  0.79954334696E+02 0.  0.
         13    1    4    4    0    0 -0.19504447240E+02  0.19166653182E+02  0.55794265577E+02  0.62135208438E+02  0.00000000000E+00 0. -1.
        -14    1    4    4    0    0 -0.19564417692E+02  0.21590108349E+02 -0.27174541035E+02  0.39841622691E+02  0.00000000000E+00 0.  1.
        -13    1    3    3    0    0 -0.23249027652E+02  0.54238970594E+02  0.19595906213E+03  0.20465174626E+03  0.00000000000E+00 0. -1.
         13    1    3    3    0    0  0.29009684295E+02 -0.31695424564E+02  0.13613602554E+03  0.14275566248E+03  0.00000000000E+00 0.  1.
          2    1    1    2  501    0  0.33308208289E+02 -0.63300307561E+02 -0.33782379433E+02  0.79105087301E+02  0.00000000000E+00 0. -1.
<scales pt_clust_5="13000.00000" pt_clust_6="13000.00000" pt_clust_7="13000.00000" pt_clust_8="13000.00000" pt_clust_9="71.52878"></scales>
<clustering>
<clus scale="   71.529">  2  9  1 -1</clus>
<clus scale="   79.954">  5  6 -1 -1</clus>
<clus scale="   81.609">  2  5  1 -1</clus>
<clus scale="   99.314">  7  8 -1 -1</clus>
<clus scale="   71.529">  2  5  1 -1</clus>
</clustering>
</event>
<event>
 9    1  0.5981539E-005  0.9519188E+02  0.7546771E-02  0.1296382E+00
         21   -1    0    0  501  502  0.00000000000E+00  0.00000000000E+00  0.81544485512E+02  0.81544485512E+02  0.00000000000E+00 0. -1.
          1   -1    0    0  502    0 -0.00000000000E+00 -0.00000000000E+00 -0.35039623578E+03  0.35039623578E+03  0.00000000000E+00 0. -1.
        -24    2    1    2    0    0  0.20782820636E+02  0.45126523962E+01 -0.18527512740E+03  0.20376863708E+03  0.82112696705E+02 0.  0.
         23    2    1    2    0    0 -0.37581649443E+02  0.75366404452E+02 -0.23694715245E+02  0.12693618528E+03  0.91972171373E+02 0.  0.
         13    1    3    3    0    0  0.20292231855E+02 -0.33343651591E+02 -0.50790575365E+02  0.64056664923E+02  0.00000000000E+00 0. -1.
        -14    1    3    3    0    0  0.49058878090E+00  0.37856303987E+02 -0.13448455203E+03  0.13971197216E+03  0.00000000000E+00 0.  1.
        -13    1    4    4    0    0  0.17636345625E+02 -0.11948916612E+02 -0.22267502538E+01  0.21419050210E+02  0.00000000000E+00 0.  1.
         13    1    4    4    0    0 -0.55217995068E+02  0.87315321064E+02 -0.21467964991E+02  0.10551713507E+03  0.00000000000E+00 0. -1.
          2    1    1    2  501    0  0.16798828807E+02 -0.79879056848E+02 -0.59881907624E+02  0.10123589893E+03  0.00000000000E+00 0. -1.
<scales pt_clust_5="13000.00000" pt_clust_6="13000.00000" pt_clust_7="13000.00000" pt_clust_8="13000.00000" pt_clust_9="81.62637"></scales>
<clustering>
<clus scale="   81.626">  1  9  2 -1</clus>
<clus scale="   82.113">  5  6 -1 -1</clus>
<clus scale="   85.704">  2  5  1 -1</clus>
<clus scale="   91.972">  7  8 -1 -1</clus>
<clus scale="   81.626">  1  5  2 -1</clus>
</clustering>
</event>
<event>
 9    1  0.5981539E-005  0.1140933E+03  0.7546771E-02  0.1257202E+00
         -4   -1    0    0    0  501 -0.00000000000E+00  0.00000000000E+00  0.59076768031E+03  0.59076768031E+03  0.00000000000E+00 0.  1.
         21   -1    0    0  501  502  0.00000000000E+00 -0.00000000000E+00 -0.19777164485E+03  0.19777164485E+03  0.00000000000E+00 0.  1.
         23    2    1    2    0    0  0.58348234964E+02  0.60574197787E+02  0.49738928156E+03  0.51263346818E+03  0.91231712331E+02 0.  0.
        -24    2    1    2    0    0 -0.26135148706E+02 -0.60103509661E+01  0.57458441064E+02  0.10209312745E+03  0.80014773057E+02 0.  0.
         11    1    4    4    0    0 -0.33331084635E+01 -0.27051231579E+02 -0.90373754839E+01  0.28715029125E+02  0.00000000000E+00 0. -1.
        -12    1    4    4    0    0 -0.22802040242E+02  0.21040880613E+02  0.66495816547E+02  0.73378098330E+02  0.00000000000E+00 0.  1.
        -11    1    3    3    0    0  0.55058611742E+02  0.83210659017E+02  0.43153079691E+03  0.44291567277E+03  0.00000000000E+00 0.  1.
         11    1    3    3    0    0  0.32896232227E+01 -0.22636461230E+02  0.65858484647E+02  0.69717795418E+02  0.00000000000E+00 0. -1.
         -3    1    1    2    0  502 -0.32213086259E+02 -0.54563846821E+02 -0.16185168716E+03  0.17381272952E+03  0.00000000000E+00 0.  1.
<scales pt_clust_5="13000.00000" pt_clust_6="13000.00000" pt_clust_7="13000.00000" pt_clust_8="13000.00000" pt_clust_9="63.36321"></scales>
<clustering>
<clus scale="   63.363">  2  9  1 -1</clus>
<clus scale="   80.015">  5  6 -1 -1</clus>
<clus scale="   91.232">  7  8 -1 -1</clus>
<clus scale="  105.340">  2  5  1 -1</clus>
<clus scale="   63.363">  2  5  1 -1</clus>
</clustering>
</event>
<event>
 9    1  0.5981539E-005  0.1707806E+03  0.7546771E-02  0.1177689E+00
         21   -1    0    0  501  502  0.00000000000E+00  0.00000000000E+00  0.22105687524E+03  0.22105687524E+03  0.00000000000E+00 0. -1.
          1   -1    0    0  502    0 -0.00000000000E+00 -0.00000000000E+00 -0.20349170385E+03  0.20349170385E+03  0.00000000000E+00 0. -1.
        -24    2    1    2    0    0  0.75569683388E+02 -0.10332242753E+03 -0.33939853760E+02  0.15762772682E+03  0.85488510979E+02 0.  0.
         23    2    1    2    0    0 -0.12320856201E+03  0.13382931544E+03  0.54485573118E+02  0.21027266932E+03  0.90306601983E+02 0.  0.
         13    1    3    3    0    0  0.44876454627E+02 -0.65679069386E+02 -0.62606491633E+02  0.10122849959E+03  0.00000000000E+00 0. -1.
        -14    1    3    3    0    0  0.30693228762E+02 -0.37643358148E+02  0.28666637874E+02  0.56399227224E+02  0.00000000000E+00 0.  1.
        -11    1    4    4    0    0 -0.55851125843E+02  0.63986189884E+02 -0.20820112294E+02  0.87447457537E+02  0.00000000000E+00 0.  1.
         11    1    4    4    0    0 -0.67357436168E+02  0.69843125552E+02  0.75305685412E+02  0.12282521178E+03  0.00000000000E+00 0. -1.
          2    1    1    2  501    0  0.47638878623E+02 -0.30506887902E+02 -0.29805479718E+01  0.56648182955E+02  0.00000000000E+00 0. -1.
<scales pt_clust_5="13000.00000" pt_clust_6="13000.00000" pt_clust_7="13000.00000" pt_clust_8="13000.00000" pt_clust_9="56.56975"></scales>
<clustering>
<clus scale="   56.570">  1  9  2 -1</clus>
<clus scale="   85.489">  5  6 -1 -1</clus>
<clus scale="   90.307">  7  8 -1 -1</clus>
<clus scale="  168.283">  2  5  1 -1</clus>
<clus scale="   56.570">  1  5  2 -1</clus>
</clustering>
</event>
<event>
 9    1  0.5981539E-005  0.5370563E+03  0.7546771E-02  0.1004535E+00
         21   -1    0    0  501  502  0.00000000000E+00  0.00000000000E+00  0.10317532707E+03  0.10317532707E+03  0.00000000000E+00 0.  1.
          1   -1    0    0  502    0 -0.00000000000E+00 -0.00000000000E+00 -0.40659892873E+04  0.40659892873E+04  0.00000000000E+00 0. -1.
        -24    2    1    2    0    0  0.34165386143E+03  0.77214108186E+02 -0.55521626282E+03  0.66146915660E+03  0.81160132466E+02 0.  0.
         23    2    1    2    0    0  0.12793970768E+03  0.79347117817E+02 -0.21827913076E+03  0.28019139778E+03  0.90536769076E+02 0.  0.
         13    1    3    3    0    0  0.39031290389E+02 -0.16975097008E+02 -0.62380567108E+02  0.75517750897E+02  0.00000000000E+00 0. -1.
        -14    1    3    3    0    0  0.30262257105E+03  0.94189205194E+02 -0.49283569571E+03  0.58595140570E+03  0.00000000000E+00 0.  1.
        -13    1    4    4    0    0  0.62813402086E+02  0.75802407974E+01 -0.14654307084E+03  0.15961784093E+03  0.00000000000E+00 0. -1.
         13    1    4    4    0    0  0.65126305591E+02  0.71766877020E+02 -0.71736059924E+02  0.12057355685E+03  0.00000000000E+00 0.  1.
          2    1    1    2  501    0 -0.46959356911E+03 -0.15656122600E+03 -0.31893185667E+04  0.32275040600E+04  0.00000000000E+00 0. -1.
<scales pt_clust_5="13000.00000" pt_clust_6="13000.00000" pt_clust_7="13000.00000" pt_clust_8="13000.00000" pt_clust_9="495.00483"></scales>
<clustering>
<clus scale="   81.160">  5  6 -1 -1</clus>
<clus scale="   90.537">  7  8 -1 -1</clus>
<clus scale="  111.005">  5  7 -1 -1</clus>
<clus scale="  495.005">  1  9  2 -1</clus>
<clus scale="  495.005">  1  5  2 -1</clus>
</clustering>
</event>
<event>
 9    1  0.5981539E-005  0.9731264E+02  0.7546771E-02  0.1289221E+00
         -2   -1    0    0    0  501 -0.00000000000E+00  0.00000000000E+00  0.73310684161E+02  0.73310684161E+02  0.00000000000E+00 0.  1.
         21   -1    0    0  501  502  0.00000000000E+00 -0.00000000000E+00 -0.24874999521E+03  0.24874999521E+03  0.00000000000E+00 0.  1.
         23    2    1    2    0    0  0.44846399116E+02  0.22677938200E+02 -0.39527999508E+02  0.10379709342E+03  0.81767264006E+02 0.  0.
        -24    2    1    2    0    0 -0.24680115951E+02  0.40992387531E+01 -0.15476784284E+03  0.17980237230E+03  0.88033493774E+02 0.  0.
         11    1    4    4    0    0 -0.33199201792E+02 -0.19603659967E+02 -0.21438128864E+02  0.44114440413E+02  0.00000000000E+00 0. -1.
        -12    1    4    4    0    0  0.85190858410E+01  0.23702898720E+02 -0.13332971397E+03  0.13568793189E+03  0.00000000000E+00 0.  1.
        -13    1    3    3    0    0  0.26524131884E+02 -0.37629437179E+01  0.21803621025E+02  0.34541094473E+02  0.00000000000E+00 0.  1.
         13    1    3    3    0    0  0.18322267232E+02  0.26440881918E+02 -0.61331620533E+02  0.69255998949E+02  0.00000000000E+00 0. -1.
         -1    1    1    2    0  502 -0.20166283165E+02 -0.26777176953E+02  0.18856531303E+02  0.38461213644E+02  0.00000000000E+00 0.  1.
<scales pt_clust_5="13000.00000" pt_clust_6="13000.00000" pt_clust_7="13000.00000" pt_clust_8="13000.00000" pt_clust_9="33.52159"></scales>
<clustering>
<clus scale="   33.522">  2  9  1 -1</clus>
<clus scale="   81.767">  7  8 -1 -1</clus>
<clus scale="   88.033">  5  6 -1 -1</clus>
<clus scale="   91.683">  1  7  2 -1</clus>
<clus scale="   33.522">  2  5  1 -1</clus>
</clustering>
</event>
<event>
 9    1  0.5981539E-005  0.1061273E+03  0.7546771E-02  0.1271870E+00
         21   -1    0    0  501  502  0.00000000000E+00  0.00000000000E+00  0.27727068461E+03  0.27727068461E+03  0.00000000000E+00 0.  1.
         -4   -1    0    0    0  501 -0.00000000000E+00 -0.00000000000E+00 -0.60627286605E+02  0.60627286605E+02  0.00000000000E+00 0.  1.
        -24    2    1    2    0    0  0.41997675071E+02 -0.30840736666E+02  0.81546368588E+02  0.12664902038E+03  0.81701948465E+02 0.  0.
         23    2    1    2    0    0 -0.25283445431E+02  0.58266911876E+02  0.14014051230E+03  0.17873745627E+03  0.90958394092E+02 0.  0.
         11    1    3    3    0    0  0.44346756746E+01  0.27309077190E+02  0.22506475730E+02  0.35665017806E+02  0.00000000000E+00 0. -1.
        -12    1    3    3    0    0  0.37562999396E+02 -0.58149813856E+02  0.59039892859E+02  0.90984002571E+02  0.00000000000E+00 0.  1.
        -11    1    4    4    0    0  0.98779102494E+01  0.20529451320E+02  0.12192629832E+03  0.12403650150E+03  0.00000000000E+00 0.  1.
         11    1    4    4    0    0 -0.35161355681E+02  0.37737460556E+02  0.18214213980E+02  0.54700954776E+02  0.00000000000E+00 0. -1.
         -3    1    1    2    0  502 -0.16714229639E+02 -0.27426175210E+02 -0.50434828828E+01  0.32511494562E+02  0.00000000000E+00 0.  1.
<scales pt_clust_5="13000.00000" pt_clust_6="13000.00000" pt_clust_7="13000.00000" pt_clust_8="13000.00000" pt_clust_9="32.11793"></scales>
<clustering>
<clus scale="   32.118">  1  9  2 -1</clus>
<clus scale="   81.702">  5  6 -1 -1</clus>
<clus scale="   90.958">  7  8 -1 -1</clus>
<clus scale="   98.310">  2  5  1 -1</clus>
<clus scale="   32.118">  1  5  2 -1</clus>
</clustering>
</event>
<event>
 9    1  0.5981539E-005  0.1423494E+03  0.7546771E-02  0.1210974E+00
         -4   -1    0    0    0  501 -0.00000000000E+00  0.00000000000E+00  0.52730381717E+03  0.52730381717E+03  0.00000000000E+00 0.  1.
         21   -1    0    0  501  502  0.00000000000E+00 -0.00000000000E+00 -0.20127307441E+03  0.20127307441E+03  0.00000000000E+00 0.  1.
        -24    2    1    2    0    0 -0.10312466731E+03 -0.48033433979E+02  0.41029100833E+03  0.43352654754E+03  0.81637296151E+02 0.  0.
         23    2    1    2    0    0  0.62179158845E+02 -0.87431672639E+02 -0.55344710952E+02  0.15060852504E+03  0.90051905085E+02 0.  0.
         11    1    3    3    0    0 -0.24854498540E+02  0.22836295222E+02  0.82057746126E+02  0.88728327925E+02  0.00000000000E+00 0. -1.
        -12    1    3    3    0    0 -0.78270168773E+02 -0.70869729201E+02  0.32823326220E+03  0.34479821962E+03  0.00000000000E+00 0.  1.
        -13    1    4    4    0    0  0.42360082265E+02 -0.26922590956E+02  0.18146363657E+02  0.53371274927E+02  0.00000000000E+00 0.  1.
         13    1    4    4    0    0  0.19819076580E+02 -0.60509081683E+02 -0.73491074609E+02  0.97237250114E+02  0.00000000000E+00 0. -1.
         -3    1    1    2    0  502  0.40945508468E+02  0.13546510662E+03 -0.28915554616E+02  0.14444181899E+03  0.00000000000E+00 0.  1.
<scales pt_clust_5="13000.00000" pt_clust_6="13000.00000" pt_clust_7="13000.00000" pt_clust_8="13000.00000" pt_clust_9="110.24530"></scales>
<clustering>
<clus scale="   81.637">  5  6 -1 -1</clus>
<clus scale="   90.052">  7  8 -1 -1</clus>
<clus scale="  140.023">  1  5  2 -1</clus>
<clus scale="  110.245">  2  9  1 -1</clus>
<clus scale="  110.245">  2  5  1 -1</clus>
</clustering>
</event>
<event>
 9    1  0.5981539E-005  0.1566891E+03  0.7546771E-02  0.1199032E+00
         -2   -1    0    0    0  501 -0.00000000000E+00  0.00000000000E+00  0.12136542022E+03  0.12136542022E+03  0.00000000000E+00 0.  1.
         21   -1    0    0  501  502  0.00000000000E+00 -0.00000000000E+00 -0.53614489737E+03  0.53614489737E+03  0.00000000000E+00 0.  1.
        -24    2    1    2    0    0  0.68675717099E+02  0.87853058663E+02 -0.20075684264E+02  0.13726049735E+03  0.77478364714E+02 0.  0.
         23    2    1    2    0    0  0.74773571811E+02 -0.72543529271E+02 -0.50712757146E+02  0.14723251120E+03  0.90840398146E+02 0.  0.
         13    1    3    3    0    0  0.46053723540E+02  0.37765007546E+02  0.26530803102E+02  0.65199883130E+02  0.00000000000E+00 0. -1.
        -14    1    3    3    0    0  0.22621993559E+02  0.50088051117E+02 -0.46606487367E+02  0.72060614221E+02  0.00000000000E+00 0.  1.
        -13    1    4    4    0    0 -0.80441546723E+01 -0.49043761085E+02 -0.55221998559E+01  0.50004935926E+02  0.00000000000E+00 0.  1.
         13    1    4    4    0    0  0.82817726484E+02 -0.23499768186E+02 -0.45190557291E+02  0.97227575270E+02  0.00000000000E+00 0. -1.
         -1    1    1    2    0  502 -0.14344928891E+03 -0.15309529392E+02 -0.34399103573E+03  0.37301730904E+03  0.00000000000E+00 0.  1.
<scales pt_clust_5="13000.00000" pt_clust_6="13000.00000" pt_clust_7="13000.00000" pt_clust_8="13000.00000" pt_clust_9="127.66948"></scales>
<clustering>
<clus scale="   77.478">  5  6 -1 -1</clus>
<clus scale="   90.840">  7  8 -1 -1</clus>
<clus scale="  135.784">  1  5  2 -1</clus>
<clus scale="  127.669">  2  9  1 -1</clus>
<clus scale="  127.669">  2  5  1 -1</clus>
</clustering>
</event>
<event>
 9    1  0.5981539E-005  0.1070307E+03  0.7546771E-02  0.1270987E+00
         21   -1    0    0  501  502  0.00000000000E+00  0.00000000000E+00  0.29188611877E+02  0.29188611877E+02  0.00000000000E+00 0.  1.
         -4   -1    0    0    0  501 -0.00000000000E+00 -0.00000000000E+00 -0.64949150196E+03  0.64949150196E+03  0.00000000000E+00 0.  1.
         23    2    1    2    0    0 -0.46962945489E+02 -0.13518536134E+02 -0.31682090033E+03  0.33330340239E+03  0.91254622301E+02 0.  0.
        -24    2    1    2    0    0  0.49815858486E+02  0.60550628007E+02 -0.16734662132E+03  0.20131771202E+03  0.79849428272E+02 0.  0.
         13    1    4    4    0    0  0.66069388693E+02  0.28112640240E+02 -0.84575245542E+02  0.11094348481E+03  0.00000000000E+00 0. -1.
        -14    1    4    4    0    0 -0.16253530207E+02  0.32437987767E+02 -0.82771375781E+02  0.90374227207E+02  0.00000000000E+00 0.  1.
        -11    1    3    3    0    0 -0.33924101923E+02  0.30742499701E+02 -0.23455289734E+03  0.23897909454E+03  0.00000000000E+00 0.  1.
         11    1    3    3    0    0 -0.13038843566E+02 -0.44261035835E+02 -0.82268002995E+02  0.94324307851E+02  0.00000000000E+00 0. -1.
         -3    1    1    2    0  502 -0.28529129975E+01 -0.47032091873E+02 -0.13613536843E+03  0.14405899942E+03  0.00000000000E+00 0.  1.
<scales pt_clust_5="13000.00000" pt_clust_6="13000.00000" pt_clust_7="13000.00000" pt_clust_8="13000.00000" pt_clust_9="47.11856"></scales>
<clustering>
<clus scale="   47.119">  1  9  2 -1</clus>
<clus scale="   79.849">  5  6 -1 -1</clus>
<clus scale="   91.255">  7  8 -1 -1</clus>
<clus scale="   97.489">  1  5  2 -1</clus>
<clus scale="   47.119">  1  5  2 -1</clus>
</clustering>
</event>
<event>
 9    1  0.5981539E-005  0.2929979E+03  0.7546771E-02  0.1089182E+00
         -2   -1    0    0    0  501 -0.00000000000E+00  0.00000000000E+00  0.34635754264E+03  0.34635754264E+03  0.00000000000E+00 0.  1.
         21   -1    0    0  501  502  0.00000000000E+00 -0.00000000000E+00 -0.79162596265E+03  0.79162596265E+03  0.00000000000E+00 0.  1.
         23    2    1    2    0    0  0.28478194225E+03 -0.15501645949E+02  0.22628014718E+03  0.37460169924E+03  0.88219455948E+02 0.  0.
        -24    2    1    2    0    0 -0.24997922042E+03 -0.16085533529E+02 -0.34449863303E+03  0.43297200173E+03  0.77698719975E+02 0.  0.
         13    1    4    4    0    0 -0.13869330791E+03 -0.38098083314E+02 -0.15005306622E+03  0.20785384358E+03  0.00000000000E+00 0. -1.
        -14    1    4    4    0    0 -0.11128591251E+03  0.22012549785E+02 -0.19444556682E+03  0.22511815814E+03  0.00000000000E+00 0.  1.
        -13    1    3    3    0    0  0.26251837805E+03  0.15701003401E+00  0.22746657220E+03  0.34735711442E+03  0.00000000000E+00 0.  1.
         13    1    3    3    0    0  0.22263564197E+02 -0.15658655983E+02 -0.11864250185E+01  0.27244584824E+02  0.00000000000E+00 0. -1.
         -1    1    1    2    0  502 -0.34802721827E+02  0.31587179478E+02 -0.32704993417E+03  0.33040980432E+03  0.00000000000E+00 0.  1.
<scales pt_clust_5="13000.00000" pt_clust_6="13000.00000" pt_clust_7="13000.00000" pt_clust_8="13000.00000" pt_clust_9="46.99978"></scales>
<clustering>
<clus scale="   47.000">  2  9  1 -1</clus>
<clus scale="   77.699">  5  6 -1 -1</clus>
<clus scale="   88.219">  7  8 -1 -1</clus>
<clus scale="  290.004">  2  5  1 -1</clus>
<clus scale="   47.000">  2  5  1 -1</clus>
</clustering>
</event>
<event>
 9    1  0.5981539E-005  0.2853248E+03  0.7546771E-02  0.1133607E+00
         21   -1    0    0  501  502  0.00000000000E+00  0.00000000000E+00  0.14634230265E+03  0.14634230265E+03  0.00000000000E+00 0. -1.
          3   -1    0    0  502    0 -0.00000000000E+00 -0.00000000000E+00 -0.10707423692E+04  0.10707423692E+04  0.00000000000E+00 0. -1.
        -24    2    1    2    0    0  0.95820375949E+01  0.30143897339E+02 -0.52287355036E+03  0.53263982039E+03  0.96477762234E+02 0.  0.
         23    2    1    2    0    0  0.95420672729E+02 -0.26400931177E+03 -0.21893977636E+03  0.36971239554E+03  0.99732684000E+02 0.  0.
         11    1    3    3    0    0 -0.88305741839E+01 -0.33521807686E+02 -0.15326714221E+03  0.15713849787E+03  0.00000000000E+00 0. -1.
        -12    1    3    3    0    0  0.18412611779E+02  0.63665705025E+02 -0.36960640815E+03  0.37550132252E+03  0.00000000000E+00 0.  1.
        -13    1    4    4    0    0  0.50185289110E+02 -0.19353771134E+03 -0.20211386580E+03  0.28429812469E+03  0.00000000000E+00 0. -1.
         13    1    4    4    0    0  0.45235383620E+02 -0.70471600434E+02 -0.16825910559E+02  0.85414270851E+02  0.00000000000E+00 0.  1.
          4    1    1    2  501    0 -0.10500271032E+03  0.23386541444E+03 -0.18258673982E+03  0.31473245591E+03  0.00000000000E+00 0. -1.
<scales pt_clust_5="13000.00000" pt_clust_6="13000.00000" pt_clust_7="13000.00000" pt_clust_8="13000.00000" pt_clust_9="267.32680"></scales>
<clustering>
<clus scale="   96.478">  5  6 -1 -1</clus>
<clus scale="   99.733">  7  8 -1 -1</clus>
<clus scale="  101.530">  2  5  1 -1</clus>
<clus scale="  267.327">  1  9  2 -1</clus>
<clus scale="  267.327">  1  5  2 -1</clus>
</clustering>
</event>
<event>
 9    1  0.5981539E-005  0.1943163E+03  0.7546771E-02  0.1178680E+00
          1   -1    0    0  502    0 -0.00000000000E+00  0.00000000000E+00  0.13588307529E+04  0.13588307529E+04  0.00000000000E+00 0. -1.
         21   -1    0    0  501  502  0.00000000000E+00 -0.00000000000E+00 -0.56473533278E+02  0.56473533278E+02  0.00000000000E+00 0.  1.
        -24    2    1    2    0    0  0.41878506680E+01  0.87504276033E+02  0.13522314749E+03  0.17540211196E+03  0.69325787740E+02 0.  0.
         23    2    1    2    0    0 -0.11088645881E+03 -0.15796409424E+03  0.33055506975E+03  0.39360813183E+03  0.91718294197E+02 0.  0.
         11    1    3    3    0    0 -0.29892263852E+02  0.56458368566E+02  0.63019040744E+02  0.89735691426E+02  0.00000000000E+00 0. -1.
        -12    1    3    3    0    0  0.34080114520E+02  0.31045907467E+02  0.72204106750E+02  0.85666420538E+02  0.00000000000E+00 0.  1.
        -13    1    4    4    0    0  0.71418748030E+00 -0.37004144513E+02  0.19829356567E+02  0.41988333579E+02  0.00000000000E+00 0. -1.
         13    1    4    4    0    0 -0.11160064629E+03 -0.12095994972E+03  0.31072571318E+03  0.35161979825E+03  0.00000000000E+00 0.  1.
          2    1    1    2  501    0  0.10669860814E+03  0.70459818203E+02  0.83657900241E+03  0.84629404242E+03  0.00000000000E+00 0. -1.
<scales pt_clust_5="13000.00000" pt_clust_6="13000.00000" pt_clust_7="13000.00000" pt_clust_8="13000.00000" pt_clust_9="171.30856"></scales>
<clustering>
<clus scale="   69.326">  5  6 -1 -1</clus>
<clus scale="   91.718">  7  8 -1 -1</clus>
<clus scale="  111.717">  1  5  2 -1</clus>
<clus scale="  171.309">  2  9  1 -1</clus>
<clus scale="  171.309">  2  5  1 -1</clus>
</clustering>
</event>
<event>
 9    1  0.5981539E-005  0.3813972E+03  0.7546771E-02  0.1086900E+00
          1   -1    0    0  502    0 -0.00000000000E+00  0.00000000000E+00  0.27851390304E+04  0.27851390304E+04  0.00000000000E+00 0. -1.
         21   -1    0    0  501  502  0.00000000000E+00 -0.00000000000E+00 -0.94146787472E+02  0.94146787472E+02  0.00000000000E+00 0.  1.
        -24    2    1    2    0    0 -0.11203171528E+03 -0.18286267810E+02  0.35111126115E+03  0.37787761489E+03  0.81405658999E+02 0.  0.
         23    2    1    2    0    0  0.39933820433E+02 -0.36567224035E+03  0.54037921772E+03  0.65998787039E+03  0.90903205310E+02 0.  0.
         11    1    3    3    0    0 -0.60911121120E+02 -0.55550636392E+01  0.29352167382E+03  0.29982661058E+03  0.00000000000E+00 0. -1.
        -12    1    3    3    0    0 -0.51120594156E+02 -0.12731204171E+02  0.57589587321E+02  0.78051004313E+02  0.00000000000E+00 0.  1.
        -13    1    4    4    0    0  0.73869270717E+01 -0.12505376773E+03  0.26324284537E+03  0.29153011363E+03  0.00000000000E+00 0. -1.
         13    1    4    4    0    0  0.32546893361E+02 -0.24061847262E+03  0.27713637235E+03  0.36845775676E+03  0.00000000000E+00 0.  1.
          2    1    1    2  501    0  0.72097894843E+02  0.38395850816E+03  0.17995017641E+04  0.18414203326E+04  0.00000000000E+00 0. -1.
<scales pt_clust_5="13000.00000" pt_clust_6="13000.00000" pt_clust_7="13000.00000" pt_clust_8="13000.00000" pt_clust_9="370.40592"></scales>
<clustering>
<clus scale="   81.406">  5  6 -1 -1</clus>
<clus scale="   90.903">  7  8 -1 -1</clus>
<clus scale="  139.687">  1  5  2 -1</clus>
<clus scale="  370.406">  2  9  1 -1</clus>
<clus scale="  370.406">  2  5  1 -1</clus>
</clustering>
</event>
<event>
 9    1  0.5981539E-005  0.1337487E+03  0.7546771E-02  0.1225090E+00
         21   -1    0    0  501  502  0.00000000000E+00  0.00000000000E+00  0.47409007726E+03  0.47409007726E+03  0.00000000000E+00 0.  1.
         -4   -1    0    0    0  501 -0.00000000000E+00 -0.00000000000E+00 -0.71221207344E+02  0.71221207344E+02  0.00000000000E+00 0.  1.
        -24    2    1    2    0    0  0.39233861471E+02 -0.90179347269E+02  0.14348555307E+03  0.19190540163E+03  0.81043005103E+02 0.  0.
         23    2    1    2    0    0 -0.57175022542E+02  0.73120096020E+02  0.28732184100E+03  0.31607674629E+03  0.93461957986E+02 0.  0.
         11    1    3    3    0    0  0.30075227748E+02 -0.37326124771E+02  0.11297343177E+02  0.49248237302E+02  0.00000000000E+00 0. -1.
        -12    1    3    3    0    0  0.91586337222E+01 -0.52853222498E+02  0.13218820989E+03  0.14265716433E+03  0.00000000000E+00 0.  1.
        -13    1    4    4    0    0  0.10758515637E+02  0.59523286302E+02  0.16126816538E+03  0.17223875417E+03  0.00000000000E+00 0.  1.
         13    1    4    4    0    0 -0.67933538179E+02  0.13596809718E+02  0.12605367561E+03  0.14383799213E+03  0.00000000000E+00 0. -1.
         -3    1    1    2    0  502  0.17941161071E+02  0.17059251249E+02 -0.27938524147E+02  0.37329136680E+02  0.00000000000E+00 0.  1.
<scales pt_clust_5="13000.00000" pt_clust_6="13000.00000" pt_clust_7="13000.00000" pt_clust_8="13000.00000" pt_clust_9="24.75690"></scales>
<clustering>
<clus scale="   24.757">  1  9  2 -1</clus>
<clus scale="   81.043">  5  6 -1 -1</clus>
<clus scale="   93.462">  7  8 -1 -1</clus>
<clus scale="  125.386">  2  5  1 -1</clus>
<clus scale="   24.757">  1  5  2 -1</clus>
</clustering>
</event>
<event>
 9    1  0.5981539E-005  0.1617580E+03  0.7546771E-02  0.1192992E+00
          1   -1    0    0  502    0 -0.00000000000E+00  0.00000000000E+00  0.30828420558E+03  0.30828420558E+03  0.00000000000E+00 0. -1.
         21   -1    0    0  501  502  0.00000000000E+00 -0.00000000000E+00 -0.32238931785E+03  0.32238931785E+03  0.00000000000E+00 0.  1.
        -24    2    1    2    0    0  0.15417252941E+02 -0.11473716552E+03 -0.17586228903E+03  0.22530803451E+03  0.80211326318E+02 0.  0.
         23    2    1    2    0    0 -0.13676801031E+03  0.14071580864E+02 -0.18426510903E+02  0.16593757169E+03  0.91061755767E+02 0.  0.
         11    1    3    3    0    0  0.30766955228E+02 -0.49624495029E+02 -0.31835943039E+02  0.66503558627E+02  0.00000000000E+00 0. -1.
        -12    1    3    3    0    0 -0.15349702288E+02 -0.65112670487E+02 -0.14402634600E+03  0.15880447588E+03  0.00000000000E+00 0.  1.
        -11    1    4    4    0    0 -0.21585672159E+02 -0.33479178071E+02  0.85088980316E+00  0.39843702393E+02  0.00000000000E+00 0.  1.
         11    1    4    4    0    0 -0.11518233815E+03  0.47550758936E+02 -0.19277400706E+02  0.12609386930E+03  0.00000000000E+00 0. -1.
          2    1    1    2  501    0  0.12135075737E+03  0.10066558465E+03  0.18018368767E+03  0.23942791723E+03  0.00000000000E+00 0. -1.
<scales pt_clust_5="13000.00000" pt_clust_6="13000.00000" pt_clust_7="13000.00000" pt_clust_8="13000.00000" pt_clust_9="133.69158"></scales>
<clustering>
<clus scale="   80.211">  5  6 -1 -1</clus>
<clus scale="   91.062">  7  8 -1 -1</clus>
<clus scale="  140.841">  1  5  2 -1</clus>
<clus scale="  133.692">  2  9  1 -1</clus>
<clus scale="  133.692">  2  5  1 -1</clus>
</clustering>
</event>
<event>
 9    1  0.5981539E-005  0.1163108E+03  0.7546771E-02  0.1253990E+00
          1   -1    0    0  502    0 -0.00000000000E+00  0.00000000000E+00  0.11045920183E+03  0.11045920183E+03  0.00000000000E+00 0. -1.
         21   -1    0    0  501  502  0.00000000000E+00 -0.00000000000E+00 -0.47223343393E+03  0.47223343393E+03  0.00000000000E+00 0.  1.
        -24    2    1    2    0    0 -0.49430460342E+02  0.45518787560E+02  0.42856148414E+02  0.11113147124E+03  0.77448202128E+02 0.  0.
         23    2    1    2    0    0  0.71420322562E+02 -0.10951042456E+03 -0.35009654946E+03  0.38465649044E+03  0.91102283900E+02 0.  0.
         11    1    3    3    0    0  0.10117481839E+02  0.37176548417E+02  0.22881531439E+01  0.38596565078E+02  0.00000000000E+00 0. -1.
        -12    1    3    3    0    0 -0.59547942181E+02  0.83422391420E+01  0.40567995270E+02  0.72534906163E+02  0.00000000000E+00 0.  1.
        -11    1    4    4    0    0  0.57553256762E+02 -0.28857629692E+02 -0.23345354923E+03  0.24216874242E+03  0.00000000000E+00 0.  1.
         11    1    4    4    0    0  0.13867065800E+02 -0.80652794870E+02 -0.11664300022E+03  0.14248774802E+03  0.00000000000E+00 0. -1.
          2    1    1    2  501    0 -0.21989862220E+02  0.63991637003E+02 -0.54533831061E+02  0.86904674080E+02  0.00000000000E+00 0. -1.
<scales pt_clust_5="13000.00000" pt_clust_6="13000.00000" pt_clust_7="13000.00000" pt_clust_8="13000.00000" pt_clust_9="67.66449"></scales>
<clustering>
<clus scale="   67.664">  2  9  1 -1</clus>
<clus scale="   77.448">  5  6 -1 -1</clus>
<clus scale="   91.102">  7  8 -1 -1</clus>
<clus scale="  105.957">  1  5  2 -1</clus>
<clus scale="   67.664">  2  5  1 -1</clus>
</clustering>
</event>
<event>
 9    1  0.5981539E-005  0.1254412E+03  0.7546771E-02  0.1249676E+00
         21   -1    0    0  501  502  0.00000000000E+00  0.00000000000E+00  0.47329876173E+02  0.47329876173E+02  0.00000000000E+00 0. -1.
          1   -1    0    0  502    0 -0.00000000000E+00 -0.00000000000E+00 -0.58559358965E+03  0.58559358965E+03  0.00000000000E+00 0. -1.
        -24    2    1    2    0    0 -0.32208981594E+01  0.44350066706E+02 -0.62128946177E+02  0.11104752510E+03  0.80586874097E+02 0.  0.
         23    2    1    2    0    0 -0.49306400458E+02  0.39477421090E+02 -0.25180073566E+03  0.27669861191E+03  0.95754495729E+02 0.  0.
         11    1    3    3    0    0  0.21766679694E+02  0.59114917722E+02 -0.41391569236E+02  0.75376547056E+02  0.00000000000E+00 0. -1.
        -12    1    3    3    0    0 -0.24987577854E+02 -0.14764851016E+02 -0.20737376940E+02  0.35670978048E+02  0.00000000000E+00 0.  1.
        -13    1    4    4    0    0 -0.11759295088E+01  0.61603403838E+02 -0.12898096547E+03  0.14294212685E+03  0.00000000000E+00 0.  1.
         13    1    4    4    0    0 -0.48130470949E+02 -0.22125982748E+02 -0.12281977019E+03  0.13375648506E+03  0.00000000000E+00 0. -1.
          2    1    1    2  501    0  0.52527298618E+02 -0.83827487796E+02 -0.22433403165E+03  0.24517732882E+03  0.00000000000E+00 0. -1.
<scales pt_clust_5="13000.00000" pt_clust_6="13000.00000" pt_clust_7="13000.00000" pt_clust_8="13000.00000" pt_clust_9="81.03449"></scales>
<clustering>
<clus scale="   80.587">  5  6 -1 -1</clus>
<clus scale="   92.041">  2  5  1 -1</clus>
<clus scale="   81.034">  1  9  2 -1</clus>
<clus scale="   95.754">  7  8 -1 -1</clus>
<clus scale="   81.034">  1  5  2 -1</clus>
</clustering>
</event>
<event>
 9    1  0.5981539E-005  0.1164191E+03  0.7546771E-02  0.1252448E+00
         21   -1    0    0  501  502  0.00000000000E+00  0.00000000000E+00  0.23950370359E+03  0.23950370359E+03  0.00000000000E+00 0. -1.
          1   -1    0    0  502    0 -0.00000000000E+00 -0.00000000000E+00 -0.11644858227E+03  0.11644858227E+03  0.00000000000E+00 0. -1.
        -24    2    1    2    0    0 -0.78144539050E+02 -0.44499180785E+02  0.25872493713E+01  0.12056537133E+03  0.80265614243E+02 0.  0.
         23    2    1    2    0    0  0.64859809555E+02 -0.37230629215E+02  0.52925811390E+02  0.12853104981E+03  0.90145297197E+02 0.  0.
         13    1    3    3    0    0 -0.48245171645E+02 -0.57758942712E+02 -0.23377265753E+02  0.78804749884E+02  0.00000000000E+00 0. -1.
        -14    1    3    3    0    0 -0.29899367405E+02  0.13259761927E+02  0.25964515124E+02  0.41760621442E+02  0.00000000000E+00 0.  1.
        -13    1    4    4    0    0  0.20342726011E+02 -0.10079246863E+02 -0.25633324765E+02  0.34241569144E+02  0.00000000000E+00 0.  1.
         13    1    4    4    0    0  0.44517083544E+02 -0.27151382352E+02  0.78559136156E+02  0.94289480667E+02  0.00000000000E+00 0. -1.
          2    1    1    2  501    0  0.13284729495E+02  0.81729810000E+02  0.67542060560E+02  0.10685586472E+03  0.00000000000E+00 0. -1.
<scales pt_clust_5="13000.00000" pt_clust_6="13000.00000" pt_clust_7="13000.00000" pt_clust_8="13000.00000" pt_clust_9="82.80245"></scales>
<clustering>
<clus scale="   80.266">  5  6 -1 -1</clus>
<clus scale="   82.802">  1  9  2 -1</clus>
<clus scale="   90.145">  7  8 -1 -1</clus>
<clus scale="  108.949">  2  5  1 -1</clus>
<clus scale="   82.802">  1  5  2 -1</clus>
</clustering>
</event>
<event>
 9    1  0.5981539E-005  0.1729271E+03  0.7546771E-02  0.1176571E+00
         21   -1    0    0  501  502  0.00000000000E+00  0.00000000000E+00  0.99590171008E+03  0.99590171008E+03  0.00000000000E+00 0.  1.
         -2   -1    0    0    0  501 -0.00000000000E+00 -0.00000000000E+00 -0.60063152661E+02  0.60063152661E+02  0.00000000000E+00 0.  1.
        -24    2    1    2    0    0  0.34238380625E+02  0.16143522361E+03  0.19498992782E+03  0.26746304518E+03  0.79257873150E+02 0.  0.
         23    2    1    2    0    0 -0.34831459598E+02 -0.84831486883E+02  0.67511026649E+03  0.68755620544E+03  0.92466491067E+02 0.  0.
         13    1    3    3    0    0  0.42044836995E+02  0.35781769973E+02  0.42221571419E+02  0.69503701149E+02  0.00000000000E+00 0. -1.
        -14    1    3    3    0    0 -0.78064563701E+01  0.12565345364E+03  0.15276835640E+03  0.19795934403E+03  0.00000000000E+00 0.  1.
        -13    1    4    4    0    0  0.34943786336E+01 -0.89966851506E+02  0.51735950507E+03  0.52513531832E+03  0.00000000000E+00 0.  1.
         13    1    4    4    0    0 -0.38325838232E+02  0.51353646236E+01  0.15775076142E+03  0.16242088712E+03  0.00000000000E+00 0. -1.
         -1    1    1    2    0  502  0.59307897290E+00 -0.76603736726E+02  0.65738363113E+02  0.10094561213E+03  0.00000000000E+00 0.  1.
<scales pt_clust_5="13000.00000" pt_clust_6="13000.00000" pt_clust_7="13000.00000" pt_clust_8="13000.00000" pt_clust_9="76.60607"></scales>
<clustering>
<clus scale="   76.606">  1  9  2 -1</clus>
<clus scale="   79.258">  5  6 -1 -1</clus>
<clus scale="   92.466">  7  8 -1 -1</clus>
<clus scale="  166.239">  2  5  1 -1</clus>
<clus scale="   76.606">  1  5  2 -1</clus>
</clustering>
</event>
<event>
 9    1  0.5981539E-005  0.1535869E+03  0.7546771E-02  0.1197693E+00
         21   -1    0    0  501  502  0.00000000000E+00  0.00000000000E+00  0.39857659554E+02  0.39857659554E+02  0.00000000000E+00 0.  1.
          1   -1    0    0  502    0 -0.00000000000E+00 -0.00000000000E+00 -0.80663146455E+03  0.80663146455E+03  0.00000000000E+00 0. -1.
        -24    2    1    2    0    0  0.73717017990E+02 -0.82706188267E+02 -0.31848865055E+03  0.34717931678E+03  0.82607173731E+02 0.  0.
         23    2    1    2    0    0 -0.11623753392E+03  0.86038821433E+02 -0.30413422447E+03  0.34898152878E+03  0.91523974155E+02 0.  0.
         13    1    3    3    0    0  0.76892957348E+01 -0.66915897606E+02 -0.19432629805E+03  0.20566859929E+03  0.00000000000E+00 0. -1.
        -14    1    3    3    0    0  0.66027722255E+02 -0.15790290660E+02 -0.12416235250E+03  0.14151071749E+03  0.00000000000E+00 0.  1.
        -11    1    4    4    0    0 -0.21592505339E+02 -0.10625062144E+02 -0.11672622050E+02  0.26746557496E+02  0.00000000000E+00 0. -1.
         11    1    4    4    0    0 -0.94645028583E+02  0.96663883576E+02 -0.29246160242E+03  0.32223497128E+03  0.00000000000E+00 0.  1.
          2    1    1    2  501    0  0.42520515932E+02 -0.33326331661E+01 -0.14415092996E+03  0.15032827854E+03  0.00000000000E+00 0. -1.
<scales pt_clust_5="13000.00000" pt_clust_6="13000.00000" pt_clust_7="13000.00000" pt_clust_8="13000.00000" pt_clust_9="42.65094"></scales>
<clustering>
<clus scale="   42.651">  1  9  2 -1</clus>
<clus scale="   82.607">  5  6 -1 -1</clus>
<clus scale="   91.524">  7  8 -1 -1</clus>
<clus scale="  148.446">  2  5  1 -1</clus>
<clus scale="   42.651">  1  5  2 -1</clus>
</clustering>
</event>
<event>
 9    1  0.5981539E-005  0.1075725E+03  0.7546771E-02  0.1269812E+00
          1   -1    0    0  502    0 -0.00000000000E+00  0.00000000000E+00  0.19750385934E+03  0.19750385934E+03  0.00000000000E+00 0. -1.
         21   -1    0    0  501  502  0.00000000000E+00 -0.00000000000E+00 -0.22272917774E+03  0.22272917774E+03  0.00000000000E+00 0.  1.
         23    2    1    2    0    0  0.58157113629E+02 -0.15723365157E+02  0.10902213971E+03  0.15439444097E+03  0.91226873113E+02 0.  0.
        -24    2    1    2    0    0 -0.37705864063E+02 -0.29636238699E+02 -0.17710852353E+03  0.20016654575E+03  0.79994862981E+02 0.  0.
         11    1    4    4    0    0 -0.34869734216E+02 -0.92223193767E+01 -0.19088864667E+02  0.40808507609E+02  0.00000000000E+00 0. -1.
        -12    1    4    4    0    0 -0.28361298472E+01 -0.20413919322E+02 -0.15801965886E+03  0.15935803814E+03  0.00000000000E+00 0.  1.
        -11    1    3    3    0    0 -0.21924989862E+02 -0.43285958967E+01  0.54949381614E+01  0.23013827763E+02  0.00000000000E+00 0.  1.
         11    1    3    3    0    0  0.80082103492E+02 -0.11394769260E+02  0.10352720155E+03  0.13138061321E+03  0.00000000000E+00 0. -1.
          2    1    1    2  501    0 -0.20451249566E+02  0.45359603856E+02  0.42861065415E+02  0.65672050366E+02  0.00000000000E+00 0. -1.
<scales pt_clust_5="13000.00000" pt_clust_6="13000.00000" pt_clust_7="13000.00000" pt_clust_8="13000.00000" pt_clust_9="49.75691"></scales>
<clustering>
<clus scale="   49.757">  2  9  1 -1</clus>
<clus scale="   79.995">  5  6 -1 -1</clus>
<clus scale="   91.227">  7  8 -1 -1</clus>
<clus scale="   98.228">  2  5  1 -1</clus>
<clus scale="   49.757">  2  5  1 -1</clus>
</clustering>
</event>
<event>
 9    1  0.5981539E-005  0.1385871E+03  0.7546771E-02  0.1218498E+00
         21   -1    0    0  501  502  0.00000000000E+00  0.00000000000E+00  0.53475081304E+02  0.53475081304E+02  0.00000000000E+00 0. -1.
          1   -1    0    0  502    0 -0.00000000000E+00 -0.00000000000E+00 -0.60484273644E+03  0.60484273644E+03  0.00000000000E+00 0. -1.
         23    2    1    2    0    0  0.12307765806E+03 -0.33906554800E+02 -0.36776074120E+03  0.40079493231E+03  0.95345952336E+02 0.  0.
        -24    2    1    2    0    0 -0.53754419485E+02  0.15966408708E+02 -0.62844354832E+02  0.11712646123E+03  0.81392451520E+02 0.  0.
         13    1    4    4    0    0 -0.10871377582E+01  0.40272348491E+02 -0.31872771283E+02  0.51370394887E+02  0.00000000000E+00 0. -1.
        -14    1    4    4    0    0 -0.52667281727E+02 -0.24305939783E+02 -0.30971583549E+02  0.65756066342E+02  0.00000000000E+00 0.  1.
        -11    1    3    3    0    0  0.30072073216E+02  0.31764000767E+02 -0.13040057630E+03  0.13754123612E+03  0.00000000000E+00 0.  1.
         11    1    3    3    0    0  0.93005584844E+02 -0.65670555566E+02 -0.23736016489E+03  0.26325369619E+03  0.00000000000E+00 0. -1.
          2    1    1    2  501    0 -0.69323238575E+02  0.17940146091E+02 -0.12076255911E+03  0.14039642421E+03  0.00000000000E+00 0. -1.
<scales pt_clust_5="13000.00000" pt_clust_6="13000.00000" pt_clust_7="13000.00000" pt_clust_8="13000.00000" pt_clust_9="71.60702"></scales>
<clustering>
<clus scale="   71.607">  1  9  2 -1</clus>
<clus scale="   81.392">  5  6 -1 -1</clus>
<clus scale="   95.346">  7  8 -1 -1</clus>
<clus scale="  129.384">  1  5  2 -1</clus>
<clus scale="   71.607">  1  5  2 -1</clus>
</clustering>
</event>
<event>
 9    1  0.5981539E-005  0.9039102E+02  0.7546771E-02  0.1303201E+00
         21   -1    0    0  501  502  0.00000000000E+00  0.00000000000E+00  0.52364061300E+03  0.52364061300E+03  0.00000000000E+00 0. -1.
          1   -1    0    0  502    0 -0.00000000000E+00 -0.00000000000E+00 -0.99541431297E+02  0.99541431297E+02  0.00000000000E+00 0. -1.
        -24    2    1    2    0    0 -0.42353592767E+02 -0.36871524246E+02 -0.48333913795E+02  0.10726348389E+03  0.77562565924E+02 0.  0.
         23    2    1    2    0    0  0.14187240580E+02 -0.28736143739E+02  0.81750474086E+02  0.11876541593E+03  0.79968995591E+02 0.  0.
         13    1    3    3    0    0 -0.45375585720E+02 -0.23759507980E+02 -0.66948701161E+02  0.84294641502E+02  0.00000000000E+00 0. -1.
        -14    1    3    3    0    0  0.30219929530E+01 -0.13112016266E+02  0.18614787365E+02  0.22968842387E+02  0.00000000000E+00 0.  1.
        -13    1    4    4    0    0  0.33278460198E+02  0.89105776356E+01  0.10615057668E+02  0.36049046538E+02  0.00000000000E+00 0.  1.
         13    1    4    4    0    0 -0.19091219619E+02 -0.37646721375E+02  0.71135416418E+02  0.82716369394E+02  0.00000000000E+00 0. -1.
          2    1    1    2  501    0  0.28166352187E+02  0.65607667985E+02  0.39068262141E+03  0.39715314447E+03  0.00000000000E+00 0. -1.
<scales pt_clust_5="13000.00000" pt_clust_6="13000.00000" pt_clust_7="13000.00000" pt_clust_8="13000.00000" pt_clust_9="71.39825"></scales>
<clustering>
<clus scale="   71.398">  1  9  2 -1</clus>
<clus scale="   77.563">  5  6 -1 -1</clus>
<clus scale="   79.969">  7  8 -1 -1</clus>
<clus scale="   88.269">  2  5  1 -1</clus>
<clus scale="   71.398">  1  5  2 -1</clus>
</clustering>
</event>
<event>
 9    1  0.5981539E-005  0.1037381E+03  0.7546771E-02  0.1277570E+00
         21   -1    0    0  501  502  0.00000000000E+00  0.00000000000E+00  0.10416026084E+03  0.10416026084E+03  0.00000000000E+00 0.  1.
          1   -1    0    0  502    0 -0.00000000000E+00 -0.00000000000E+00 -0.39668097065E+03  0.39668097065E+03  0.00000000000E+00 0. -1.
        -24    2    1    2    0    0 -0.69510778373E+01  0.51382841229E+02 -0.33364942219E+03  0.34674263863E+03  0.78867018819E+02 0.  0.
         23    2    1    2    0    0  0.32331829065E+02 -0.46635303360E+02  0.60049724165E+02  0.12208724588E+03  0.89883967115E+02 0.  0.
         13    1    3    3    0    0  0.23052313611E+01  0.64051753974E+02 -0.15961814166E+03  0.17200550115E+03  0.00000000000E+00 0. -1.
        -14    1    3    3    0    0 -0.92563091984E+01 -0.12668912745E+02 -0.17403128054E+03  0.17473713748E+03  0.00000000000E+00 0.  1.
        -11    1    4    4    0    0  0.70285946296E+01 -0.27055484523E+02  0.79754874137E+02  0.84511776303E+02  0.00000000000E+00 0.  1.
         11    1    4    4    0    0  0.25303234436E+02 -0.19579818837E+02 -0.19705149972E+02  0.37575469578E+02  0.00000000000E+00 0. -1.
          2    1    1    2  501    0 -0.25380751228E+02 -0.47475378692E+01 -0.18921011785E+02  0.32011346983E+02  0.00000000000E+00 0. -1.
<scales pt_clust_5="13000.00000" pt_clust_6="13000.00000" pt_clust_7="13000.00000" pt_clust_8="13000.00000" pt_clust_9="25.82097"></scales>
<clustering>
<clus scale="   25.821">  1  9  2 -1</clus>
<clus scale="   78.867">  5  6 -1 -1</clus>
<clus scale="   89.884">  7  8 -1 -1</clus>
<clus scale="   94.353">  2  5  1 -1</clus>
<clus scale="   25.821">  1  5  2 -1</clus>
</clustering>
</event>
<event>
 9    1  0.6154244E-005  0.1697561E+03  0.7546771E-02  0.1178562E+00
         21   -1    0    0  501  502  0.00000000000E+00  0.00000000000E+00  0.68568342731E+03  0.68568342731E+03  0.00000000000E+00 0. -1.
          1   -1    0    0  502    0 -0.00000000000E+00 -0.00000000000E+00 -0.79585609578E+02  0.79585609578E+02  0.00000000000E+00 0. -1.
        -24    2    1    2    0    0 -0.12482930308E+03  0.47917041084E+02  0.25433069961E+03  0.29835501189E+03  0.80331877970E+02 0.  0.
         23    2    1    2    0    0  0.15050976159E+03 -0.74598901651E+02  0.37763177026E+03  0.42174337233E+03  0.83925763264E+02 0.  0.
         11    1    3    3    0    0 -0.99967331331E+02  0.65589885921E+02  0.23043298013E+03  0.25960519795E+03  0.00000000000E+00 0. -1.
        -12    1    3    3    0    0 -0.24861971750E+02 -0.17672844837E+02  0.23897719481E+02  0.38749813939E+02  0.00000000000E+00 0.  1.
        -13    1    4    4    0    0  0.21167027416E+02  0.18573314774E+02  0.64186381907E+02  0.70092101507E+02  0.00000000000E+00 0.  1.
         13    1    4    4    0    0  0.12934273417E+03 -0.93172216425E+02  0.31344538835E+03  0.35165127083E+03  0.00000000000E+00 0. -1.
          2    1    1    2  501    0 -0.25680458507E+02  0.26681860567E+02 -0.25864652136E+02  0.45170652669E+02  0.00000000000E+00 0. -1.
<scales pt_clust_5="13000.00000" pt_clust_6="13000.00000" pt_clust_7="13000.00000" pt_clust_8="13000.00000" pt_clust_9="37.03254"></scales>
<clustering>
<clus scale="   37.033">  1  9  2 -1</clus>
<clus scale="   80.332">  5  6 -1 -1</clus>
<clus scale="   83.926">  7  8 -1 -1</clus>
<clus scale="  168.008">  2  5  1 -1</clus>
<clus scale="   37.033">  1  5  2 -1</clus>
</clustering>
</event>
<event>
 9    1  0.5981539E-005  0.1841598E+03  0.7546771E-02  0.1165275E+00
         21   -1    0    0  501  502  0.00000000000E+00  0.00000000000E+00  0.44140805893E+03  0.44140805893E+03  0.00000000000E+00 0.  1.
          1   -1    0    0  502    0 -0.00000000000E+00 -0.00000000000E+00 -0.24867575576E+03  0.24867575576E+03  0.00000000000E+00 0. -1.
         23    2    1    2    0    0  0.13646627340E+03 -0.80694130945E+02 -0.10777625475E+03  0.21256643221E+03  0.91837794335E+02 0.  0.
        -24    2    1    2    0    0 -0.10477487663E+03  0.14725237296E+03  0.34059885105E+03  0.39360328467E+03  0.79088129650E+02 0.  0.
         11    1    4    4    0    0  0.10427129536E+02  0.33189623209E+02  0.69731975350E+02  0.77928329286E+02  0.00000000000E+00 0. -1.
        -12    1    4    4    0    0 -0.11520200616E+03  0.11406274975E+03  0.27086687570E+03  0.31567495538E+03  0.00000000000E+00 0.  1.
        -13    1    3    3    0    0  0.45838824879E+02 -0.24874524706E+02  0.10764164409E+02  0.53252296486E+02  0.00000000000E+00 0.  1.
         13    1    3    3    0    0  0.90627448523E+02 -0.55819606239E+02 -0.11854041916E+03  0.15931413572E+03  0.00000000000E+00 0. -1.
          2    1    1    2  501    0 -0.31691396775E+02 -0.66558242012E+02 -0.40090293134E+02  0.83914097820E+02  0.00000000000E+00 0. -1.
<scales pt_clust_5="13000.00000" pt_clust_6="13000.00000" pt_clust_7="13000.00000" pt_clust_8="13000.00000" pt_clust_9="73.71804"></scales>
<clustering>
<clus scale="   73.718">  1  9  2 -1</clus>
<clus scale="   79.088">  5  6 -1 -1</clus>
<clus scale="   91.838">  7  8 -1 -1</clus>
<clus scale="  178.145">  1  5  2 -1</clus>
<clus scale="   73.718">  1  5  2 -1</clus>
</clustering>
</event>
<event>
 9    1  0.5981539E-005  0.1192465E+03  0.7546771E-02  0.1249087E+00
          1   -1    0    0  502    0 -0.00000000000E+00  0.00000000000E+00  0.45286810431E+03  0.45286810431E+03  0.00000000000E+00 0. -1.
         21   -1    0    0  501  502  0.00000000000E+00 -0.00000000000E+00 -0.29129445507E+03  0.29129445507E+03  0.00000000000E+00 0.  1.
        -24    2    1    2    0    0 -0.55453108384E+02  0.50663149894E+02  0.40846848869E+03  0.42306724164E+03  0.80607584676E+02 0.  0.
         23    2    1    2    0    0  0.44330456823E+02 -0.16805862046E+02 -0.43286022321E+02  0.11439123037E+03  0.94678653645E+02 0.  0.
         11    1    3    3    0    0 -0.11877192756E+02  0.53857777327E+02  0.31623218282E+03  0.32100548491E+03  0.00000000000E+00 0. -1.
        -12    1    3    3    0    0 -0.43575915628E+02 -0.31946274328E+01  0.92236305870E+02  0.10206175673E+03  0.00000000000E+00 0.  1.
        -13    1    4    4    0    0 -0.16577138321E+02 -0.30908245422E+02 -0.37903538723E+02  0.51641063096E+02  0.00000000000E+00 0.  1.
         13    1    4    4    0    0  0.60907595145E+02  0.14102383376E+02 -0.53824835976E+01  0.62750167274E+02  0.00000000000E+00 0. -1.
          2    1    1    2  501    0  0.11122651561E+02 -0.33857287848E+02 -0.20360881713E+03  0.20670408736E+03  0.00000000000E+00 0. -1.
<scales pt_clust_5="13000.00000" pt_clust_6="13000.00000" pt_clust_7="13000.00000" pt_clust_8="13000.00000" pt_clust_9="35.63747"></scales>
<clustering>
<clus scale="   35.637">  2  9  1 -1</clus>
<clus scale="   80.608">  5  6 -1 -1</clus>
<clus scale="   94.679">  7  8 -1 -1</clus>
<clus scale="  108.412">  1  5  2 -1</clus>
<clus scale="   35.637">  2  5  1 -1</clus>
</clustering>
</event>
<event>
 9    1  0.5981539E-005  0.2495695E+03  0.7546771E-02  0.1114222E+00
          1   -1    0    0  502    0 -0.00000000000E+00  0.00000000000E+00  0.22763588061E+03  0.22763588061E+03  0.00000000000E+00 0. -1.
         21   -1    0    0  501  502  0.00000000000E+00 -0.00000000000E+00 -0.68685731399E+03  0.68685731399E+03  0.00000000000E+00 0. -1.
         23    2    1    2    0    0 -0.56729033194E+02  0.17056795176E+03 -0.75237954193E+02  0.21539782797E+03  0.91781616741E+02 0.  0.
        -24    2    1    2    0    0  0.72079952211E+02 -0.36688829738E+03 -0.29520598320E+03  0.48308894864E+03  0.80161197059E+02 0.  0.
         13    1    4    4    0    0  0.87599798110E+02 -0.29680771557E+03 -0.25376483601E+03  0.40020636758E+03  0.00000000000E+00 0. -1.
        -14    1    4    4    0    0 -0.15519845899E+02 -0.70080581805E+02 -0.41441147186E+02  0.82882581059E+02  0.00000000000E+00 0.  1.
        -13    1    3    3    0    0 -0.40475720624E+02  0.32938778568E+02  0.93802696900E+01  0.53021095358E+02  0.00000000000E+00 0. -1.
         13    1    3    3    0    0 -0.16253312571E+02  0.13762917319E+03 -0.84618223883E+02  0.16237673262E+03  0.00000000000E+00 0.  1.
          2    1    1    2  501    0 -0.15350919017E+02  0.19632034562E+03 -0.88777495990E+02  0.21600641799E+03  0.00000000000E+00 0. -1.
<scales pt_clust_5="13000.00000" pt_clust_6="13000.00000" pt_clust_7="13000.00000" pt_clust_8="13000.00000" pt_clust_9="196.91970"></scales>
<clustering>
<clus scale="   80.161">  5  6 -1 -1</clus>
<clus scale="   91.782">  7  8 -1 -1</clus>
<clus scale="  196.920">  2  9  1 -1</clus>
<clus scale="  245.534">  2  5  1 -1</clus>
<clus scale="  196.920">  2  5  1 -1</clus>
</clustering>
</event>
<event>
 9    1  0.5981539E-005  0.1340606E+03  0.7546771E-02  0.1233802E+00
         21   -1    0    0  501  502  0.00000000000E+00  0.00000000000E+00  0.10675088831E+03  0.10675088831E+03  0.00000000000E+00 0. -1.
          1   -1    0    0  502    0 -0.00000000000E+00 -0.00000000000E+00 -0.31007511446E+03  0.31007511446E+03  0.00000000000E+00 0. -1.
         23    2    1    2    0    0  0.15955455663E+02  0.47400439812E+02 -0.40457178297E+02  0.11158802394E+03  0.91179633427E+02 0.  0.
        -24    2    1    2    0    0  0.98694210877E+02 -0.72785875146E+02 -0.10576019373E+03  0.17466172084E+03  0.65445910996E+02 0.  0.
         11    1    4    4    0    0  0.66105876472E+02 -0.48087603439E+02 -0.27297145605E+02  0.86183169278E+02  0.00000000000E+00 0. -1.
        -12    1    4    4    0    0  0.32588334405E+02 -0.24698271708E+02 -0.78463048127E+02  0.88478551559E+02  0.00000000000E+00 0.  1.
        -13    1    3    3    0    0  0.25704417406E+02  0.20499218534E+02  0.24239009251E+02  0.40846843258E+02  0.00000000000E+00 0.  1.
         13    1    3    3    0    0 -0.97489617429E+01  0.26901221278E+02 -0.64696187548E+02  0.70741180684E+02  0.00000000000E+00 0. -1.
          2    1    1    2  501    0 -0.11464966654E+03  0.25385435335E+02 -0.57106854118E+02  0.13057625800E+03  0.00000000000E+00 0. -1.
<scales pt_clust_5="13000.00000" pt_clust_6="13000.00000" pt_clust_7="13000.00000" pt_clust_8="13000.00000" pt_clust_9="117.00038"></scales>
<clustering>
<clus scale="   65.446">  5  6 -1 -1</clus>
<clus scale="   91.180">  7  8 -1 -1</clus>
<clus scale="  103.996">  2  7  1 -1</clus>
<clus scale="  117.000">  1  9  2 -1</clus>
<clus scale="  117.000">  1  5  2 -1</clus>
</clustering>
</event>
<event>
 9    1  0.5981539E-005  0.1249144E+03  0.7546771E-02  0.1256258E+00
          3   -1    0    0  502    0 -0.00000000000E+00  0.00000000000E+00  0.46303476187E+03  0.46303476187E+03  0.00000000000E+00 0. -1.
         21   -1    0    0  501  502  0.00000000000E+00 -0.00000000000E+00 -0.15907313395E+03  0.15907313395E+03  0.00000000000E+00 0.  1.
        -24    2    1    2    0    0  0.19774475616E+02  0.11260607633E+02 -0.11569344723E+03  0.14167792616E+03  0.78548264527E+02 0.  0.
         23    2    1    2    0    0 -0.66295414534E+02  0.63590483201E+02  0.14696324666E+03  0.19385063182E+03  0.86839161924E+02 0.  0.
         11    1    3    3    0    0  0.16927197100E+02  0.11197205900E+02  0.50391602505E+01  0.20911732536E+02  0.00000000000E+00 0. -1.
        -12    1    3    3    0    0  0.28472785168E+01  0.63401733361E-01 -0.12073260748E+03  0.12076619363E+03  0.00000000000E+00 0.  1.
        -11    1    4    4    0    0  0.58124764052E+01  0.44855040209E+02  0.87609510373E+02  0.98596074070E+02  0.00000000000E+00 0.  1.
         11    1    4    4    0    0 -0.72107890940E+02  0.18735442992E+02  0.59353736291E+02  0.95254557747E+02  0.00000000000E+00 0. -1.
          4    1    1    2  501    0  0.46520938918E+02 -0.74851090834E+02  0.27269182849E+03  0.28657933784E+03  0.00000000000E+00 0. -1.
<scales pt_clust_5="13000.00000" pt_clust_6="13000.00000" pt_clust_7="13000.00000" pt_clust_8="13000.00000" pt_clust_9="89.79185"></scales>
<clustering>
<clus scale="   78.548">  5  6 -1 -1</clus>
<clus scale="   81.778">  1  5  2 -1</clus>
<clus scale="   86.839">  7  8 -1 -1</clus>
<clus scale="   89.792">  2  9  1 -1</clus>
<clus scale="   89.792">  2  5  1 -1</clus>
</clustering>
</event>
<event>
 9    1  0.5981539E-005  0.1438719E+03  0.7546771E-02  0.1210543E+00
         -2   -1    0    0    0  501 -0.00000000000E+00  0.00000000000E+00  0.66863189315E+03  0.66863189315E+03  0.00000000000E+00 0.  1.
         21   -1    0    0  501  502  0.00000000000E+00 -0.00000000000E+00 -0.71998775608E+02  0.71998775608E+02  0.00000000000E+00 0.  1.
         23    2    1    2    0    0  0.97021748629E+02  0.15148151015E+02  0.40737600582E+03  0.42873770467E+03  0.90653864227E+02 0.  0.
        -24    2    1    2    0    0 -0.15752345882E+03 -0.30037224223E+02  0.16989471474E+03  0.24664693851E+03  0.79086176182E+02 0.  0.
         11    1    4    4    0    0 -0.71778622674E+02  0.26031821731E+02  0.72669623248E+02  0.10540730790E+03  0.00000000000E+00 0. -1.
        -12    1    4    4    0    0 -0.85744836145E+02 -0.56069045954E+02  0.97225091490E+02  0.14123963061E+03  0.00000000000E+00 0.  1.
        -11    1    3    3    0    0  0.86467681704E+02  0.45787248353E+02  0.25901670804E+03  0.27688045640E+03  0.00000000000E+00 0. -1.
         11    1    3    3    0    0  0.10554066925E+02 -0.30639097338E+02  0.14835929778E+03  0.15185724827E+03  0.00000000000E+00 0.  1.
         -1    1    1    2    0  502  0.60501710190E+02  0.14889073208E+02  0.19362396983E+02  0.65246025579E+02  0.00000000000E+00 0.  1.
<scales pt_clust_5="13000.00000" pt_clust_6="13000.00000" pt_clust_7="13000.00000" pt_clust_8="13000.00000" pt_clust_9="62.30683"></scales>
<clustering>
<clus scale="   62.307">  2  9  1 -1</clus>
<clus scale="   79.086">  5  6 -1 -1</clus>
<clus scale="   90.654">  7  8 -1 -1</clus>
<clus scale="  136.878">  2  5  1 -1</clus>
<clus scale="   62.307">  2  5  1 -1</clus>
</clustering>
</event>
<event>
 9    1  0.5981539E-005  0.1183024E+03  0.7546771E-02  0.1248109E+00
          1   -1    0    0  502    0 -0.00000000000E+00  0.00000000000E+00  0.34012358532E+03  0.34012358532E+03  0.00000000000E+00 0. -1.
         21   -1    0    0  501  502  0.00000000000E+00 -0.00000000000E+00 -0.73079262235E+02  0.73079262235E+02  0.00000000000E+00 0.  1.
         23    2    1    2    0    0 -0.79145830984E+02 -0.53720713431E+02  0.12112945306E+03  0.17732050356E+03  0.87293980146E+02 0.  0.
        -24    2    1    2    0    0  0.69819715074E+02 -0.74171614152E+01  0.41327840628E+02  0.11437817577E+03  0.80278077858E+02 0.  0.
         11    1    4    4    0    0  0.25621234829E+02 -0.41120492435E+02  0.31883036388E+02  0.57998884314E+02  0.00000000000E+00 0. -1.
        -12    1    4    4    0    0  0.44198480244E+02  0.33703331020E+02  0.94448042396E+01  0.56379291454E+02  0.00000000000E+00 0.  1.
        -13    1    3    3    0    0 -0.21817417983E+02  0.24297053913E+02  0.32194477855E+02  0.45856634860E+02  0.00000000000E+00 0. -1.
         13    1    3    3    0    0 -0.57328413001E+02 -0.78017767343E+02  0.88934975203E+02  0.13146386870E+03  0.00000000000E+00 0.  1.
          2    1    1    2  501    0  0.93261159100E+01  0.61137874846E+02  0.10458702939E+03  0.12150416823E+03  0.00000000000E+00 0. -1.
<scales pt_clust_5="13000.00000" pt_clust_6="13000.00000" pt_clust_7="13000.00000" pt_clust_8="13000.00000" pt_clust_9="61.84513"></scales>
<clustering>
<clus scale="   61.845">  2  9  1 -1</clus>
<clus scale="   80.278">  5  6 -1 -1</clus>
<clus scale="   87.294">  7  8 -1 -1</clus>
<clus scale="  113.224">  2  5  1 -1</clus>
<clus scale="   61.845">  2  5  1 -1</clus>
</clustering>
</event>
<event>
 9    1  0.5981539E-005  0.3733688E+03  0.7546771E-02  0.1053532E+00
         21   -1    0    0  501  502  0.00000000000E+00  0.00000000000E+00  0.12101851399E+03  0.12101851399E+03  0.00000000000E+00 0.  1.
          1   -1    0    0  502    0 -0.00000000000E+00 -0.00000000000E+00 -0.13806644224E+04  0.13806644224E+04  0.00000000000E+00 0. -1.
        -24    2    1    2    0    0 -0.35949305001E+03 -0.10312378506E+03 -0.83971860600E+03  0.92306584828E+03  0.83984849522E+02 0.  0.
         23    2    1    2    0    0  0.33477698463E+03  0.81057316653E+02 -0.41225674865E+03  0.54460752608E+03  0.89419307957E+02 0.  0.
         11    1    3    3    0    0 -0.17305963122E+03 -0.92708959449E+02 -0.41358442926E+03  0.45781728587E+03  0.00000000000E+00 0. -1.
        -12    1    3    3    0    0 -0.18643341879E+03 -0.10414825611E+02 -0.42613417674E+03  0.46524856241E+03  0.00000000000E+00 0.  1.
        -13    1    4    4    0    0  0.21759574361E+03  0.82665164349E+02 -0.31868936537E+03  0.39464458521E+03  0.00000000000E+00 0.  1.
         13    1    4    4    0    0  0.11718124102E+03 -0.16078476962E+01 -0.93567383279E+02  0.14996294087E+03  0.00000000000E+00 0. -1.
          2    1    1    2  501    0  0.24716065373E+02  0.22066468407E+02 -0.76705537893E+01  0.34009562051E+02  0.00000000000E+00 0. -1.
<scales pt_clust_5="13000.00000" pt_clust_6="13000.00000" pt_clust_7="13000.00000" pt_clust_8="13000.00000" pt_clust_9="33.13326"></scales>
<clustering>
<clus scale="   33.133">  1  9  2 -1</clus>
<clus scale="   83.985">  5  6 -1 -1</clus>
<clus scale="   89.419">  7  8 -1 -1</clus>
<clus scale="  372.105">  2  5  1 -1</clus>
<clus scale="   33.133">  1  5  2 -1</clus>
</clustering>
</event>
<event>
 9    1  0.5981539E-005  0.1952027E+03  0.7546771E-02  0.1154850E+00
          1   -1    0    0  502    0 -0.00000000000E+00  0.00000000000E+00  0.68548648220E+03  0.68548648220E+03  0.00000000000E+00 0. -1.
         21   -1    0    0  501  502  0.00000000000E+00 -0.00000000000E+00 -0.77861950845E+02  0.77861950845E+02  0.00000000000E+00 0. -1.
        -24    2    1    2    0    0  0.12532115795E+03 -0.80115632271E+02  0.17996018826E+03  0.24715905685E+03  0.81105011319E+02 0.  0.
         23    2    1    2    0    0 -0.18574860311E+03  0.77134638002E+02  0.28007222221E+03  0.35667825870E+03  0.91250395288E+02 0.  0.
         13    1    3    3    0    0  0.80118949017E+02 -0.92406538955E+02  0.12374929140E+03  0.17398822246E+03  0.00000000000E+00 0. -1.
        -14    1    3    3    0    0  0.45202208933E+02  0.12290906684E+02  0.56210896860E+02  0.73170834390E+02  0.00000000000E+00 0.  1.
        -11    1    4    4    0    0 -0.40138030889E+02  0.61455133119E+02  0.10997125031E+03  0.13221751323E+03  0.00000000000E+00 0.  1.
         11    1    4    4    0    0 -0.14561057222E+03  0.15679504884E+02  0.17010097190E+03  0.22446074547E+03  0.00000000000E+00 0. -1.
          2    1    1    2  501    0  0.60427445162E+02  0.29809942686E+01  0.14759212088E+03  0.15951111748E+03  0.00000000000E+00 0. -1.
<scales pt_clust_5="13000.00000" pt_clust_6="13000.00000" pt_clust_7="13000.00000" pt_clust_8="13000.00000" pt_clust_9="60.50096"></scales>
<clustering>
<clus scale="   60.501">  2  9  1 -1</clus>
<clus scale="   81.105">  5  6 -1 -1</clus>
<clus scale="   91.250">  7  8 -1 -1</clus>
<clus scale="  190.671">  1  5  2 -1</clus>
<clus scale="   60.501">  2  5  1 -1</clus>
</clustering>
</event>
<event>
 9    1  0.5981539E-005  0.2152549E+03  0.7546771E-02  0.1153506E+00
          3   -1    0    0  502    0 -0.00000000000E+00  0.00000000000E+00  0.20730548330E+03  0.20730548330E+03  0.00000000000E+00 0. -1.
         21   -1    0    0  501  502  0.00000000000E+00 -0.00000000000E+00 -0.89092072034E+03  0.89092072034E+03  0.00000000000E+00 0.  1.
         23    2    1    2    0    0  0.50999684687E+02  0.98173862418E+02  0.11742303575E+03  0.18795550145E+03  0.96436642936E+02 0.  0.
        -24    2    1    2    0    0 -0.22224606529E+03 -0.10472053945E+03 -0.47927211645E+03  0.54571392854E+03  0.87989915776E+02 0.  0.
         13    1    4    4    0    0 -0.31150299889E+02 -0.45597846789E+02 -0.62351083297E+02  0.83289629626E+02  0.00000000000E+00 0. -1.
        -14    1    4    4    0    0 -0.19109576540E+03 -0.59122692656E+02 -0.41692103315E+03  0.46242429892E+03  0.00000000000E+00 0.  1.
        -11    1    3    3    0    0  0.69433578373E+02  0.68767277523E+02  0.44878571402E+02  0.10753625637E+03  0.00000000000E+00 0. -1.
         11    1    3    3    0    0 -0.18433893686E+02  0.29406584895E+02  0.72544464346E+02  0.80419245077E+02  0.00000000000E+00 0.  1.
          4    1    1    2  501    0  0.17124638060E+03  0.65466770270E+01 -0.32176615634E+03  0.36455677365E+03  0.00000000000E+00 0. -1.
<scales pt_clust_5="13000.00000" pt_clust_6="13000.00000" pt_clust_7="13000.00000" pt_clust_8="13000.00000" pt_clust_9="196.44962"></scales>
<clustering>
<clus scale="   87.990">  5  6 -1 -1</clus>
<clus scale="   96.437">  7  8 -1 -1</clus>
<clus scale="  146.762">  1  7  2 -1</clus>
<clus scale="  196.450">  2  9  1 -1</clus>
<clus scale="  196.450">  2  5  1 -1</clus>
</clustering>
</event>
<event>
 9    1  0.5981539E-005  0.1210136E+03  0.7546771E-02  0.1245464E+00
         -2   -1    0    0    0  501 -0.00000000000E+00  0.00000000000E+00  0.21275243466E+03  0.21275243466E+03  0.00000000000E+00 0.  1.
         21   -1    0    0  501  502  0.00000000000E+00 -0.00000000000E+00 -0.11243031073E+03  0.11243031073E+03  0.00000000000E+00 0. -1.
        -24    2    1    2    0    0  0.77814403976E+02 -0.64046869181E+01  0.11210900847E+03  0.15780181046E+03  0.78973920534E+02 0.  0.
         23    2    1    2    0    0 -0.78836144332E+02  0.27972536591E+02 -0.41205716423E+02  0.13088869244E+03  0.91849541561E+02 0.  0.
         13    1    3    3    0    0  0.51305567524E+02  0.34845088635E+02  0.62940803828E+02  0.88362810319E+02  0.00000000000E+00 0. -1.
        -14    1    3    3    0    0  0.26508836452E+02 -0.41249775553E+02  0.49168204643E+02  0.69439000144E+02  0.00000000000E+00 0.  1.
        -11    1    4    4    0    0 -0.80102345582E+02 -0.83027595390E+01 -0.67039837587E+01  0.80810054956E+02  0.00000000000E+00 0.  1.
         11    1    4    4    0    0  0.12662012503E+01  0.36275296130E+02 -0.34501732664E+02  0.50078637479E+02  0.00000000000E+00 0. -1.
         -1    1    1    2    0  502  0.10217403563E+01 -0.21567849673E+02  0.29418831877E+02  0.36492242489E+02  0.00000000000E+00 0.  1.
<scales pt_clust_5="13000.00000" pt_clust_6="13000.00000" pt_clust_7="13000.00000" pt_clust_8="13000.00000" pt_clust_9="21.59205"></scales>
<clustering>
<clus scale="   21.592">  2  9  1 -1</clus>
<clus scale="   78.974">  5  6 -1 -1</clus>
<clus scale="   91.850">  7  8 -1 -1</clus>
<clus scale="  111.556">  1  5  2 -1</clus>
<clus scale="   21.592">  2  5  1 -1</clus>
</clustering>
</event>
<event>
 9    1  0.5981539E-005  0.1577272E+03  0.7546771E-02  0.1212476E+00
          1   -1    0    0  502    0 -0.00000000000E+00  0.00000000000E+00  0.70199259581E+03  0.70199259581E+03  0.00000000000E+00 0. -1.
         21   -1    0    0  501  502  0.00000000000E+00 -0.00000000000E+00 -0.53937255034E+02  0.53937255034E+02  0.00000000000E+00 0.  1.
        -24    2    1    2    0    0 -0.99625661394E+00  0.39568746838E+02  0.18210776558E+03  0.20761047888E+03  0.91499696204E+02 0.  0.
         23    2    1    2    0    0 -0.84706083865E+02 -0.11488863945E+03  0.22962451640E+03  0.28589497235E+03  0.92919301371E+02 0.  0.
         13    1    3    3    0    0 -0.80892165115E+01  0.47499195459E+02  0.33645803294E+02  0.58767755379E+02  0.00000000000E+00 0. -1.
        -14    1    3    3    0    0  0.70929598976E+01 -0.79304486212E+01  0.14846196228E+03  0.14884272351E+03  0.00000000000E+00 0.  1.
        -11    1    4    4    0    0 -0.32970821848E+02 -0.76418351253E+02  0.55024919390E+02  0.99772647832E+02  0.00000000000E+00 0.  1.
         11    1    4    4    0    0 -0.51735262017E+02 -0.38470288201E+02  0.17459959701E+03  0.18612232452E+03  0.00000000000E+00 0. -1.
          2    1    1    2  501    0  0.85702340479E+02  0.75319892617E+02  0.23632305880E+03  0.26242439960E+03  0.00000000000E+00 0. -1.
<scales pt_clust_5="13000.00000" pt_clust_6="13000.00000" pt_clust_7="13000.00000" pt_clust_8="13000.00000" pt_clust_9="127.45147"></scales>
<clustering>
<clus scale="   91.500">  5  6 -1 -1</clus>
<clus scale="   92.919">  7  8 -1 -1</clus>
<clus scale="   99.694">  1  5  2 -1</clus>
<clus scale="  127.451">  2  9  1 -1</clus>
<clus scale="  127.451">  2  5  1 -1</clus>
</clustering>
</event>
<event>
 9    1  0.5981539E-005  0.1637475E+03  0.7546771E-02  0.1186859E+00
         21   -1    0    0  501  502  0.00000000000E+00  0.00000000000E+00  0.20670667738E+03  0.20670667738E+03  0.00000000000E+00 0. -1.
         -2   -1    0    0    0  501 -0.00000000000E+00 -0.00000000000E+00 -0.40867943748E+03  0.40867943748E+03  0.00000000000E+00 0.  1.
        -24    2    1    2    0    0 -0.35595941459E+02 -0.11451750500E+03 -0.16902491563E+03  0.22298619779E+03  0.82292723274E+02 0.  0.
         23    2    1    2    0    0  0.84422326008E+01  0.20886081417E+03  0.78895122296E+02  0.24358179617E+03  0.97023399832E+02 0.  0.
         11    1    3    3    0    0 -0.52050558058E+02 -0.53851135852E+02 -0.12678594495E+03  0.14725447791E+03  0.00000000000E+00 0. -1.
        -12    1    3    3    0    0  0.16454616598E+02 -0.60666369147E+02 -0.42238970674E+02  0.75731719883E+02  0.00000000000E+00 0.  1.
        -11    1    4    4    0    0 -0.44375132549E+02  0.10044718846E+03  0.39960670609E+02  0.11685737141E+03  0.00000000000E+00 0.  1.
         11    1    4    4    0    0  0.52817365150E+02  0.10841362571E+03  0.38934451687E+02  0.12672442475E+03  0.00000000000E+00 0. -1.
         -1    1    1    2    0  502  0.27153708859E+02 -0.94343309170E+02 -0.11184296677E+03  0.14881812089E+03  0.00000000000E+00 0.  1.
<scales pt_clust_5="13000.00000" pt_clust_6="13000.00000" pt_clust_7="13000.00000" pt_clust_8="13000.00000" pt_clust_9="98.17328"></scales>
<clustering>
<clus scale="   82.293">  5  6 -1 -1</clus>
<clus scale="   97.023">  7  8 -1 -1</clus>
<clus scale="   98.173">  1  9  2 -1</clus>
<clus scale="  155.473">  2  5  1 -1</clus>
<clus scale="   98.173">  1  5  2 -1</clus>
</clustering>
</event>
<event>
 9    1  0.5981539E-005  0.9951694E+02  0.7546771E-02  0.1287853E+00
         -2   -1    0    0    0  501 -0.00000000000E+00  0.00000000000E+00  0.54130987155E+03  0.54130987155E+03  0.00000000000E+00 0.  1.
         21   -1    0    0  501  502  0.00000000000E+00 -0.00000000000E+00 -0.37165950516E+02  0.37165950516E+02  0.00000000000E+00 0.  1.
        -24    2    1    2    0    0 -0.80269612698E+01  0.52861513112E+02  0.33564049032E+03  0.34882560201E+03  0.78523819332E+02 0.  0.
         23    2    1    2    0    0  0.27706684829E+02  0.35532826792E+01  0.11484799580E+03  0.14934563488E+03  0.91289486349E+02 0.  0.
         13    1    3    3    0    0 -0.24635035601E+02  0.34949996390E+02  0.69736197126E+02  0.81801738467E+02  0.00000000000E+00 0. -1.
        -14    1    3    3    0    0  0.16608074332E+02  0.17911516722E+02  0.26590429319E+03  0.26702386354E+03  0.00000000000E+00 0.  1.
        -11    1    4    4    0    0  0.57345521799E+02 -0.16375877697E+02  0.75322802003E+02  0.96073944139E+02  0.00000000000E+00 0.  1.
         11    1    4    4    0    0 -0.29638836970E+02  0.19929160376E+02  0.39525193793E+02  0.53271690743E+02  0.00000000000E+00 0. -1.
         -1    1    1    2    0  502 -0.19679723560E+02 -0.56414795791E+02  0.53655434924E+02  0.80304585177E+02  0.00000000000E+00 0.  1.
<scales pt_clust_5="13000.00000" pt_clust_6="13000.00000" pt_clust_7="13000.00000" pt_clust_8="13000.00000" pt_clust_9="59.74881"></scales>
<clustering>
<clus scale="   59.749">  2  9  1 -1</clus>
<clus scale="   78.524">  5  6 -1 -1</clus>
<clus scale="   87.954">  1  5  2 -1</clus>
<clus scale="   91.289">  7  8 -1 -1</clus>
<clus scale="   59.749">  2  5  1 -1</clus>
</clustering>
</event>
<event>
 9    1  0.5981539E-005  0.1316357E+03  0.7546771E-02  0.1231141E+00
         21   -1    0    0  501  502  0.00000000000E+00  0.00000000000E+00  0.39641710393E+02  0.39641710393E+02  0.00000000000E+00 0.  1.
          1   -1    0    0  502    0 -0.00000000000E+00 -0.00000000000E+00 -0.12071242636E+04  0.12071242636E+04  0.00000000000E+00 0. -1.
        -24    2    1    2    0    0 -0.97308060000E+02 -0.18463520118E+02 -0.37312114756E+03  0.39429943654E+03  0.80267644670E+02 0.  0.
         23    2    1    2    0    0  0.50100111367E+02 -0.53809018458E+02 -0.12314672970E+03  0.17572356449E+03  0.10152941670E+03 0.  0.
         11    1    3    3    0    0 -0.10279789427E+03 -0.25802994999E+02 -0.25950495991E+03  0.28031415562E+03  0.00000000000E+00 0. -1.
        -12    1    3    3    0    0  0.54898342722E+01  0.73394748808E+01 -0.11361618765E+03  0.11398528092E+03  0.00000000000E+00 0.  1.
        -11    1    4    4    0    0  0.64544999462E+02 -0.72311098435E+02 -0.11604484498E+03  0.15119972870E+03  0.00000000000E+00 0.  1.
         11    1    4    4    0    0 -0.14444888095E+02  0.18502079976E+02 -0.71018847202E+01  0.24523835795E+02  0.00000000000E+00 0. -1.
          2    1    1    2  501    0  0.47207948633E+02  0.72272538577E+02 -0.67121467593E+03  0.67674297295E+03  0.00000000000E+00 0. -1.
<scales pt_clust_5="13000.00000" pt_clust_6="13000.00000" pt_clust_7="13000.00000" pt_clust_8="13000.00000" pt_clust_9="86.32449"></scales>
<clustering>
<clus scale="   80.268">  5  6 -1 -1</clus>
<clus scale="   86.324">  1  9  2 -1</clus>
<clus scale="  101.529">  7  8 -1 -1</clus>
<clus scale="  116.029">  2  5  1 -1</clus>
<clus scale="   86.324">  1  5  2 -1</clus>
</clustering>
</event>
<event>
 9    1  0.5981539E-005  0.9407787E+02  0.7546771E-02  0.1298415E+00
         21   -1    0    0  501  502  0.00000000000E+00  0.00000000000E+00  0.46590822185E+02  0.46590822185E+02  0.00000000000E+00 0. -1.
         -2   -1    0    0    0  501 -0.00000000000E+00 -0.00000000000E+00 -0.87754073670E+03  0.87754073670E+03  0.00000000000E+00 0.  1.
        -24    2    1    2    0    0 -0.14816393355E+02 -0.10777704244E+02 -0.73291992150E+03  0.73787882479E+03  0.83413813730E+02 0.  0.
         23    2    1    2    0    0  0.44807557935E+02 -0.23996338971E+02 -0.40844397272E+02  0.11291177422E+03  0.92180596860E+02 0.  0.
         11    1    3    3    0    0 -0.35444129603E+02  0.65083019335E+01 -0.14741923454E+03  0.15175992564E+03  0.00000000000E+00 0. -1.
        -12    1    3    3    0    0  0.20627736248E+02 -0.17286006177E+02 -0.58550068696E+03  0.58611889915E+03  0.00000000000E+00 0.  1.
        -13    1    4    4    0    0  0.26261014452E+02  0.32655101881E+02 -0.23863731082E+01  0.41972506900E+02  0.00000000000E+00 0. -1.
         13    1    4    4    0    0  0.18546543483E+02 -0.56651440851E+02 -0.38458024163E+02  0.70939267322E+02  0.00000000000E+00 0.  1.
         -1    1    1    2    0  502 -0.29991164580E+02  0.34774043214E+02 -0.57185595738E+02  0.73340959867E+02  0.00000000000E+00 0.  1.
<scales pt_clust_5="13000.00000" pt_clust_6="13000.00000" pt_clust_7="13000.00000" pt_clust_8="13000.00000" pt_clust_9="45.92063"></scales>
<clustering>
<clus scale="   45.921">  1  9  2 -1</clus>
<clus scale="   83.414">  5  6 -1 -1</clus>
<clus scale="   85.506">  2  5  1 -1</clus>
<clus scale="   92.181">  7  8 -1 -1</clus>
<clus scale="   45.921">  1  5  2 -1</clus>
</clustering>
</event>
<event>
 9    1  0.5981539E-005  0.9028347E+02  0.7546771E-02  0.1307125E+00
         21   -1    0    0  501  502  0.00000000000E+00  0.00000000000E+00  0.35882043238E+02  0.35882043238E+02  0.00000000000E+00 0.  1.
         -2   -1    0    0    0  501 -0.00000000000E+00 -0.00000000000E+00 -0.39776050827E+03  0.39776050827E+03  0.00000000000E+00 0.  1.
        -24    2    1    2    0    0 -0.19180251618E+02 -0.19324759156E+02 -0.21530848571E+03  0.23150366441E+03  0.80590782661E+02 0.  0.
         23    2    1    2    0    0  0.99355161576E+01 -0.25990751566E+02 -0.94218013660E+02  0.13228411665E+03  0.88587921133E+02 0.  0.
         13    1    3    3    0    0  0.13474075098E+02  0.21851486242E+02 -0.11952132644E+03  0.12224723156E+03  0.00000000000E+00 0. -1.
        -14    1    3    3    0    0 -0.32654326716E+02 -0.41176245398E+02 -0.95787159267E+02  0.10925643285E+03  0.00000000000E+00 0.  1.
        -11    1    4    4    0    0  0.36141775519E+02  0.65335345108E+01 -0.96663426498E+01  0.37978325281E+02  0.00000000000E+00 0.  1.
         11    1    4    4    0    0 -0.26206259362E+02 -0.32524286076E+02 -0.84551671010E+02  0.94305791366E+02  0.00000000000E+00 0. -1.
         -1    1    1    2    0  502  0.92447354603E+01  0.45315510721E+02 -0.52351965661E+02  0.69854770447E+02  0.00000000000E+00 0.  1.
<scales pt_clust_5="13000.00000" pt_clust_6="13000.00000" pt_clust_7="13000.00000" pt_clust_8="13000.00000" pt_clust_9="46.24890"></scales>
<clustering>
<clus scale="   46.249">  1  9  2 -1</clus>
<clus scale="   80.591">  5  6 -1 -1</clus>
<clus scale="   82.451">  2  5  1 -1</clus>
<clus scale="   88.588">  7  8 -1 -1</clus>
<clus scale="   46.249">  1  5  2 -1</clus>
</clustering>
</event>
<event>
 9    1  0.5981539E-005  0.9721991E+02  0.7546771E-02  0.1295187E+00
          1   -1    0    0  502    0 -0.00000000000E+00  0.00000000000E+00  0.17704362665E+03  0.17704362665E+03  0.00000000000E+00 0. -1.
         21   -1    0    0  501  502  0.00000000000E+00 -0.00000000000E+00 -0.13970242118E+03  0.13970242118E+03  0.00000000000E+00 0.  1.
         23    2    1    2    0    0  0.19782266660E+02 -0.11808804147E+00  0.11324256308E+03  0.14907182313E+03  0.94906155438E+02 0.  0.
        -24    2    1    2    0    0 -0.28184460852E+02  0.20675804979E+02 -0.10163002339E+03  0.13368627336E+03  0.79507894480E+02 0.  0.
         11    1    4    4    0    0 -0.28504673349E+02  0.10553560942E+02  0.11414232390E+01  0.30417049468E+02  0.00000000000E+00 0. -1.
        -12    1    4    4    0    0  0.32021249688E+00  0.10122244037E+02 -0.10277144663E+03  0.10326922389E+03  0.00000000000E+00 0.  1.
        -11    1    3    3    0    0 -0.29429430140E+02 -0.17402294268E+02  0.80572071678E+02  0.87525938661E+02  0.00000000000E+00 0.  1.
         11    1    3    3    0    0  0.49211696799E+02  0.17284206226E+02  0.32670491400E+02  0.61545884469E+02  0.00000000000E+00 0. -1.
          2    1    1    2  501    0  0.84021941926E+01 -0.20557716938E+02  0.25728665785E+02  0.33987951336E+02  0.00000000000E+00 0. -1.
<scales pt_clust_5="13000.00000" pt_clust_6="13000.00000" pt_clust_7="13000.00000" pt_clust_8="13000.00000" pt_clust_9="22.20849"></scales>
<clustering>
<clus scale="   22.208">  2  9  1 -1</clus>
<clus scale="   79.508">  5  6 -1 -1</clus>
<clus scale="   82.256">  2  5  1 -1</clus>
<clus scale="   94.906">  7  8 -1 -1</clus>
<clus scale="   22.208">  2  5  1 -1</clus>
</clustering>
</event>
<event>
 9    1  0.5981539E-005  0.1366005E+03  0.7546771E-02  0.1220862E+00
          1   -1    0    0  502    0 -0.00000000000E+00  0.00000000000E+00  0.29654565428E+03  0.29654565428E+03  0.00000000000E+00 0. -1.
         21   -1    0    0  501  502  0.00000000000E+00 -0.00000000000E+00 -0.91338903396E+02  0.91338903396E+02  0.00000000000E+00 0. -1.
        -24    2    1    2    0    0  0.94418830816E+02  0.32708502465E+02  0.15613835980E+03  0.20175472031E+03  0.79630509342E+02 0.  0.
         23    2    1    2    0    0 -0.88785266596E+02 -0.58157035345E+02  0.12249670069E+02  0.14101905054E+03  0.92039414782E+02 0.  0.
         13    1    3    3    0    0  0.66712390968E+02  0.57584722706E+02  0.12646143421E+03  0.15413966959E+03  0.00000000000E+00 0. -1.
        -14    1    3    3    0    0  0.27706439847E+02 -0.24876220241E+02  0.29676925595E+02  0.47615050722E+02  0.00000000000E+00 0.  1.
        -11    1    4    4    0    0 -0.46056407116E+02 -0.78834531164E+02  0.18447316708E+02  0.93147084946E+02  0.00000000000E+00 0.  1.
         11    1    4    4    0    0 -0.42728859480E+02  0.20677495819E+02 -0.61976466383E+01  0.47871965593E+02  0.00000000000E+00 0. -1.
          2    1    1    2  501    0 -0.56335642193E+01  0.25448532880E+02  0.36818721015E+02  0.45110786834E+02  0.00000000000E+00 0. -1.
<scales pt_clust_5="13000.00000" pt_clust_6="13000.00000" pt_clust_7="13000.00000" pt_clust_8="13000.00000" pt_clust_9="26.06464"></scales>
<clustering>
<clus scale="   26.065">  2  9  1 -1</clus>
<clus scale="   79.631">  5  6 -1 -1</clus>
<clus scale="   92.039">  7  8 -1 -1</clus>
<clus scale="  128.567">  1  5  2 -1</clus>
<clus scale="   26.065">  2  5  1 -1</clus>
</clustering>
</event>
<event>
 9    1  0.5981539E-005  0.9964513E+02  0.7546771E-02  0.1287592E+00
          3   -1    0    0  502    0 -0.00000000000E+00  0.00000000000E+00  0.90650568877E+03  0.90650568877E+03  0.00000000000E+00 0. -1.
         21   -1    0    0  501  502  0.00000000000E+00 -0.00000000000E+00 -0.20954700376E+02  0.20954700376E+02  0.00000000000E+00 0. -1.
        -24    2    1    2    0    0 -0.20387866736E+02  0.42320633616E+02  0.25459953030E+03  0.27050543487E+03  0.78393675277E+02 0.  0.
         23    2    1    2    0    0  0.51240568054E+02  0.54869830744E+01  0.23986103493E+03  0.26174719058E+03  0.91228136584E+02 0.  0.
         13    1    3    3    0    0 -0.44795173085E+02  0.48249473993E+02  0.17193850321E+03  0.18411265073E+03  0.00000000000E+00 0. -1.
        -14    1    3    3    0    0  0.24407306349E+02 -0.59288403763E+01  0.82661027094E+02  0.86392784141E+02  0.00000000000E+00 0.  1.
        -11    1    4    4    0    0 -0.24426364844E+02 -0.10938208751E+02  0.74344341751E+02  0.79015016677E+02  0.00000000000E+00 0.  1.
         11    1    4    4    0    0  0.75666932898E+02  0.16425191826E+02  0.16551669318E+03  0.18273217391E+03  0.00000000000E+00 0. -1.
          4    1    1    2  501    0 -0.30852701318E+02 -0.47807616691E+02  0.39109042316E+03  0.39520776369E+03  0.00000000000E+00 0. -1.
<scales pt_clust_5="13000.00000" pt_clust_6="13000.00000" pt_clust_7="13000.00000" pt_clust_8="13000.00000" pt_clust_9="56.89869"></scales>
<clustering>
<clus scale="   56.899">  2  9  1 -1</clus>
<clus scale="   78.394">  5  6 -1 -1</clus>
<clus scale="   88.046">  1  5  2 -1</clus>
<clus scale="   91.228">  7  8 -1 -1</clus>
<clus scale="   56.899">  2  5  1 -1</clus>
</clustering>
</event>
<event>
 9    1  0.5981539E-005  0.1680647E+03  0.7546771E-02  0.1204934E+00
         -2   -1    0    0    0  501 -0.00000000000E+00  0.00000000000E+00  0.50503008403E+03  0.50503008403E+03  0.00000000000E+00 0.  1.
         21   -1    0    0  501  502  0.00000000000E+00 -0.00000000000E+00 -0.10031515609E+03  0.10031515609E+03  0.00000000000E+00 0.  1.
        -24    2    1    2    0    0 -0.28021686219E+02 -0.33076086663E+02  0.12865328868E+03  0.16102573343E+03  0.86593162146E+02 0.  0.
         23    2    1    2    0    0  0.85192589018E+02 -0.10029940437E+03  0.24971758689E+03  0.29683546407E+03  0.91840469216E+02 0.  0.
         11    1    3    3    0    0  0.20236397492E+02  0.17614660758E+02  0.34172753243E+02  0.43446117448E+02  0.00000000000E+00 0. -1.
        -12    1    3    3    0    0 -0.48258083712E+02 -0.50690747421E+02  0.94480535434E+02  0.11757961598E+03  0.00000000000E+00 0.  1.
        -13    1    4    4    0    0  0.85457698542E+02 -0.39324535775E+02  0.11228385088E+03  0.14648242394E+03  0.00000000000E+00 0.  1.
         13    1    4    4    0    0 -0.26510952443E+00 -0.60974868590E+02  0.13743373601E+03  0.15035304013E+03  0.00000000000E+00 0. -1.
         -1    1    1    2    0  502 -0.57170902799E+02  0.13337549103E+03  0.26344052370E+02  0.14748404263E+03  0.00000000000E+00 0.  1.
<scales pt_clust_5="13000.00000" pt_clust_6="13000.00000" pt_clust_7="13000.00000" pt_clust_8="13000.00000" pt_clust_9="140.75184"></scales>
<clustering>
<clus scale="   86.593">  5  6 -1 -1</clus>
<clus scale="   91.840">  7  8 -1 -1</clus>
<clus scale="   96.838">  1  5  2 -1</clus>
<clus scale="  140.752">  2  9  1 -1</clus>
<clus scale="  140.752">  2  5  1 -1</clus>
</clustering>
</event>
<event>
 9    1  0.5981539E-005  0.3100664E+03  0.7546771E-02  0.1129254E+00
          1   -1    0    0  502    0 -0.00000000000E+00  0.00000000000E+00  0.19236678304E+04  0.19236678304E+04  0.00000000000E+00 0. -1.
         21   -1    0    0  501  502  0.00000000000E+00 -0.00000000000E+00 -0.65541947412E+02  0.65541947412E+02  0.00000000000E+00 0. -1.
        -24    2    1    2    0    0  0.28655372877E+02  0.29549017750E+02  0.41335431422E+03  0.42262118301E+03  0.77798460137E+02 0.  0.
         23    2    1    2    0    0  0.73267558550E+02 -0.29598327668E+03  0.75581243886E+03  0.82090757656E+03  0.98298378938E+02 0.  0.
         13    1    3    3    0    0  0.40701314426E+02  0.41651711495E+02  0.19271174266E+03  0.20131884618E+03  0.00000000000E+00 0. -1.
        -14    1    3    3    0    0 -0.12045941549E+02 -0.12102693744E+02  0.22064257156E+03  0.22130233683E+03  0.00000000000E+00 0.  1.
        -13    1    4    4    0    0  0.32250552958E+02 -0.48866600152E+02  0.72892403500E+02  0.93495161717E+02  0.00000000000E+00 0.  1.
         13    1    4    4    0    0  0.41017005592E+02 -0.24711667653E+03  0.68292003536E+03  0.72741241484E+03  0.00000000000E+00 0. -1.
          2    1    1    2  501    0 -0.10192293143E+03  0.26643425893E+03  0.68895912990E+03  0.74568101823E+03  0.00000000000E+00 0. -1.
<scales pt_clust_5="13000.00000" pt_clust_6="13000.00000" pt_clust_7="13000.00000" pt_clust_8="13000.00000" pt_clust_9="294.07247"></scales>
<clustering>
<clus scale="   77.798">  5  6 -1 -1</clus>
<clus scale="   88.016">  1  5  2 -1</clus>
<clus scale="   98.298">  7  8 -1 -1</clus>
<clus scale="  294.072">  2  9  1 -1</clus>
<clus scale="  294.072">  2  5  1 -1</clus>
</clustering>
</event>
<event>
 9    1  0.5981539E-005  0.1432845E+03  0.7546771E-02  0.1228934E+00
          3   -1    0    0  502    0 -0.00000000000E+00  0.00000000000E+00  0.12807328986E+03  0.12807328986E+03  0.00000000000E+00 0. -1.
         21   -1    0    0  501  502  0.00000000000E+00 -0.00000000000E+00 -0.29181764048E+03  0.29181764048E+03  0.00000000000E+00 0. -1.
         23    2    1    2    0    0  0.10720240599E+02  0.82182349539E+01 -0.15834730209E+02  0.95485390651E+02  0.93189367434E+02 0.  0.
        -24    2    1    2    0    0  0.51305748751E+02 -0.11114688582E+03 -0.15553497341E+02  0.14563285207E+03  0.77337612068E+02 0.  0.
         13    1    4    4    0    0  0.43981854803E+02 -0.78911294944E+02  0.24592865168E+02  0.93628014177E+02  0.00000000000E+00 0. -1.
        -14    1    4    4    0    0  0.73238939477E+01 -0.32235590880E+02 -0.40146362508E+02  0.52004837896E+02  0.00000000000E+00 0.  1.
        -13    1    3    3    0    0  0.26248591117E+01  0.39922327097E+02  0.21842714157E+02  0.45582740681E+02  0.00000000000E+00 0.  1.
         13    1    3    3    0    0  0.80953814875E+01 -0.31704092143E+02 -0.37677444367E+02  0.49902649970E+02  0.00000000000E+00 0. -1.
          4    1    1    2  501    0 -0.62025989350E+02  0.10292865087E+03 -0.13235612307E+03  0.17877268762E+03  0.00000000000E+00 0. -1.
<scales pt_clust_5="13000.00000" pt_clust_6="13000.00000" pt_clust_7="13000.00000" pt_clust_8="13000.00000" pt_clust_9="120.62061"></scales>
<clustering>
<clus scale="   77.338">  5  6 -1 -1</clus>
<clus scale="   93.189">  7  8 -1 -1</clus>
<clus scale="   94.163">  1  7  2 -1</clus>
<clus scale="  120.621">  2  9  1 -1</clus>
<clus scale="  120.621">  2  5  1 -1</clus>
</clustering>
</event>
<event>
 9    1  0.5981539E-005  0.1147008E+03  0.7546771E-02  0.1255960E+00
          1   -1    0    0  502    0 -0.00000000000E+00  0.00000000000E+00  0.71866165298E+03  0.71866165298E+03  0.00000000000E+00 0. -1.
         21   -1    0    0  501  502  0.00000000000E+00 -0.00000000000E+00 -0.11228261094E+03  0.11228261094E+03  0.00000000000E+00 0. -1.
         23    2    1    2    0    0 -0.73651048152E+02  0.18423502969E+02  0.63180987526E+03  0.64254581577E+03  0.88980360338E+02 0.  0.
        -24    2    1    2    0    0  0.54313180519E+02 -0.37730696479E+01  0.51303224652E+02  0.10792047626E+03  0.77785928707E+02 0.  0.
         13    1    4    4    0    0 -0.10991171401E+02 -0.22279262364E+02  0.24655935574E+02  0.35001236254E+02  0.00000000000E+00 0. -1.
        -14    1    4    4    0    0  0.65304351920E+02  0.18506192716E+02  0.26647289078E+02  0.72919240011E+02  0.00000000000E+00 0.  1.
        -11    1    3    3    0    0 -0.86394290267E+02 -0.84971310863E+01  0.49178588693E+03  0.49938916008E+03  0.00000000000E+00 0. -1.
         11    1    3    3    0    0  0.12743242116E+02  0.26920634055E+02  0.14002398834E+03  0.14315665569E+03  0.00000000000E+00 0.  1.
          2    1    1    2  501    0  0.19337867633E+02 -0.14650433321E+02 -0.76734057876E+02  0.80477971888E+02  0.00000000000E+00 0. -1.
<scales pt_clust_5="13000.00000" pt_clust_6="13000.00000" pt_clust_7="13000.00000" pt_clust_8="13000.00000" pt_clust_9="24.26084"></scales>
<clustering>
<clus scale="   24.261">  2  9  1 -1</clus>
<clus scale="   77.786">  5  6 -1 -1</clus>
<clus scale="   88.980">  7  8 -1 -1</clus>
<clus scale="  106.252">  2  5  1 -1</clus>
<clus scale="   24.261">  2  5  1 -1</clus>
</clustering>
</event>
<event>
 9    1  0.5981539E-005  0.3154920E+03  0.7546771E-02  0.1106037E+00
          1   -1    0    0  502    0 -0.00000000000E+00  0.00000000000E+00  0.12481149359E+04  0.12481149359E+04  0.00000000000E+00 0. -1.
         21   -1    0    0  501  502  0.00000000000E+00 -0.00000000000E+00 -0.13612819282E+03  0.13612819282E+03  0.00000000000E+00 0.  1.
         23    2    1    2    0    0 -0.31480817242E+02  0.11128364073E+03  0.23918800586E+03  0.28217663440E+03  0.95066609824E+02 0.  0.
        -24    2    1    2    0    0  0.18811677948E+03  0.21145808010E+03  0.26202603909E+03  0.39373018168E+03  0.79141445764E+02 0.  0.
         11    1    4    4    0    0  0.53569112893E+02  0.27224010593E+02  0.89074586598E+02  0.10744802737E+03  0.00000000000E+00 0. -1.
        -12    1    4    4    0    0  0.13454766658E+03  0.18423406951E+03  0.17295145250E+03  0.28628215430E+03  0.00000000000E+00 0.  1.
        -11    1    3    3    0    0 -0.16157016508E+01  0.26873438808E+02  0.16121273366E+03  0.16344521315E+03  0.00000000000E+00 0.  1.
         11    1    3    3    0    0 -0.29865115591E+02  0.84410201923E+02  0.77975272197E+02  0.11873142125E+03  0.00000000000E+00 0. -1.
          2    1    1    2  501    0 -0.15663596223E+03 -0.32274172084E+03  0.61077269813E+03  0.70833631265E+03  0.00000000000E+00 0. -1.
<scales pt_clust_5="13000.00000" pt_clust_6="13000.00000" pt_clust_7="13000.00000" pt_clust_8="13000.00000" pt_clust_9="305.40452"></scales>
<clustering>
<clus scale="   79.141">  5  6 -1 -1</clus>
<clus scale="   95.067">  7  8 -1 -1</clus>
<clus scale="  149.709">  1  7  2 -1</clus>
<clus scale="  305.405">  2  9  1 -1</clus>
<clus scale="  305.405">  2  5  1 -1</clus>
</clustering>
</event>
<event>
 9    1  0.5981539E-005  0.2277723E+03  0.7546771E-02  0.1158081E+00
          3   -1    0    0  502    0 -0.00000000000E+00  0.00000000000E+00  0.11139625506E+04  0.11139625506E+04  0.00000000000E+00 0. -1.
         21   -1    0    0  501  502  0.00000000000E+00 -0.00000000000E+00 -0.74153890937E+02  0.74153890937E+02  0.00000000000E+00 0. -1.
         23    2    1    2    0    0 -0.17468958720E+02  0.65454173731E+02  0.25009806765E+03  0.27373278311E+03  0.88267659572E+02 0.  0.
        -24    2    1    2    0    0  0.21455889083E+03  0.23709522404E+02  0.29201296612E+03  0.37170738950E+03  0.79354596179E+02 0.  0.
         11    1    4    4    0    0  0.16044457257E+03  0.27430752795E+02  0.26527649283E+03  0.31123387462E+03  0.00000000000E+00 0. -1.
        -12    1    4    4    0    0  0.54114318268E+02 -0.37212303910E+01  0.26736473295E+02  0.60473514876E+02  0.00000000000E+00 0.  1.
        -11    1    3    3    0    0 -0.11992445049E+02 -0.20451302262E+02  0.74310358714E+02  0.78000666117E+02  0.00000000000E+00 0. -1.
         11    1    3    3    0    0 -0.54765136705E+01  0.85905475993E+02  0.17578770894E+03  0.19573211699E+03  0.00000000000E+00 0.  1.
          4    1    1    2  501    0 -0.19708993211E+03 -0.89163696134E+02  0.49769762591E+03  0.54267626895E+03  0.00000000000E+00 0. -1.
<scales pt_clust_5="13000.00000" pt_clust_6="13000.00000" pt_clust_7="13000.00000" pt_clust_8="13000.00000" pt_clust_9="213.50202"></scales>
<clustering>
<clus scale="   79.355">  5  6 -1 -1</clus>
<clus scale="   88.268">  7  8 -1 -1</clus>
<clus scale="  111.268">  1  7  2 -1</clus>
<clus scale="  213.502">  2  9  1 -1</clus>
<clus scale="  213.502">  2  5  1 -1</clus>
</clustering>
</event>
<event>
 9    1  0.5981539E-005  0.1347243E+03  0.7546771E-02  0.1223101E+00
          1   -1    0    0  502    0 -0.00000000000E+00  0.00000000000E+00  0.49278068272E+02  0.49278068272E+02  0.00000000000E+00 0. -1.
         21   -1    0    0  501  502  0.00000000000E+00 -0.00000000000E+00 -0.63150118514E+03  0.63150118514E+03  0.00000000000E+00 0.  1.
         23    2    1    2    0    0  0.26951220524E+02  0.94511491633E+02 -0.22320092446E+03  0.26039772054E+03  0.91266257954E+02 0.  0.
        -24    2    1    2    0    0 -0.82870043216E+02 -0.72635340428E+02 -0.32210468029E+03  0.34989477225E+03  0.80818251903E+02 0.  0.
         11    1    4    4    0    0  0.21966256573E+01 -0.44878035657E+02 -0.79565142710E+02  0.91375462697E+02  0.00000000000E+00 0. -1.
        -12    1    4    4    0    0 -0.85066668873E+02 -0.27757304771E+02 -0.24253953758E+03  0.25851930955E+03  0.00000000000E+00 0.  1.
        -11    1    3    3    0    0 -0.99663813528E+01  0.94712265316E+02 -0.13940619726E+03  0.16883077265E+03  0.00000000000E+00 0.  1.
         11    1    3    3    0    0  0.36917601877E+02 -0.20077368347E+00 -0.83794727202E+02  0.91566947887E+02  0.00000000000E+00 0. -1.
          2    1    1    2  501    0  0.55918822692E+02 -0.21876151205E+02 -0.36917512114E+02  0.70486760625E+02  0.00000000000E+00 0. -1.
<scales pt_clust_5="13000.00000" pt_clust_6="13000.00000" pt_clust_7="13000.00000" pt_clust_8="13000.00000" pt_clust_9="60.04569"></scales>
<clustering>
<clus scale="   60.046">  2  9  1 -1</clus>
<clus scale="   80.818">  5  6 -1 -1</clus>
<clus scale="   91.266">  7  8 -1 -1</clus>
<clus scale="  127.878">  2  5  1 -1</clus>
<clus scale="   60.046">  2  5  1 -1</clus>
</clustering>
</event>
<event>
 9    1  0.5981539E-005  0.9463323E+02  0.7546771E-02  0.1298199E+00
          1   -1    0    0  502    0 -0.00000000000E+00  0.00000000000E+00  0.41713833371E+03  0.41713833371E+03  0.00000000000E+00 0. -1.
         21   -1    0    0  501  502  0.00000000000E+00 -0.00000000000E+00 -0.38825412388E+02  0.38825412388E+02  0.00000000000E+00 0.  1.
        -24    2    1    2    0    0  0.15675619827E+02 -0.22287806965E+02  0.27350850326E+03  0.28662699170E+03  0.81275209120E+02 0.  0.
         23    2    1    2    0    0 -0.23342701551E+02 -0.10781443376E+02  0.93375773529E+02  0.13351813667E+03  0.91907216799E+02 0.  0.
         11    1    3    3    0    0  0.18725942652E+02  0.25281979775E+02  0.58769653859E+02  0.66661170438E+02  0.00000000000E+00 0. -1.
        -12    1    3    3    0    0 -0.30503228255E+01 -0.47569786739E+02  0.21473884940E+03  0.21996582126E+03  0.00000000000E+00 0.  1.
        -13    1    4    4    0    0 -0.54938747778E+02 -0.20725850624E+02  0.41254123101E+02  0.71761616233E+02  0.00000000000E+00 0.  1.
         13    1    4    4    0    0  0.31596046227E+02  0.99444072489E+01  0.52121650428E+02  0.61756520433E+02  0.00000000000E+00 0. -1.
          2    1    1    2  501    0  0.76670817245E+01  0.33069250340E+02  0.11428644525E+02  0.35818617727E+02  0.00000000000E+00 0. -1.
<scales pt_clust_5="13000.00000" pt_clust_6="13000.00000" pt_clust_7="13000.00000" pt_clust_8="13000.00000" pt_clust_9="33.94642"></scales>
<clustering>
<clus scale="   33.946">  2  9  1 -1</clus>
<clus scale="   81.275">  5  6 -1 -1</clus>
<clus scale="   84.346">  1  5  2 -1</clus>
<clus scale="   91.907">  7  8 -1 -1</clus>
<clus scale="   33.946">  2  5  1 -1</clus>
</clustering>
</event>
<event>
 9    1  0.5981539E-005  0.1061736E+03  0.7546771E-02  0.1274073E+00
          1   -1    0    0  502    0 -0.00000000000E+00  0.00000000000E+00  0.10980548701E+03  0.10980548701E+03  0.00000000000E+00 0. -1.
         21   -1    0    0  501  502  0.00000000000E+00 -0.00000000000E+00 -0.31181778379E+03  0.31181778379E+03  0.00000000000E+00 0. -1.
        -24    2    1    2    0    0 -0.58117014498E+02 -0.19034703819E+02  0.59648288876E+02  0.11564131851E+03  0.77942856361E+02 0.  0.
         23    2    1    2    0    0  0.48151568224E+01  0.25235764760E+02 -0.11371053421E+03  0.14860101662E+03  0.92152845808E+02 0.  0.
         13    1    3    3    0    0 -0.34957587765E+02 -0.36955561863E+02  0.68248545074E+02  0.85121151306E+02  0.00000000000E+00 0. -1.
        -14    1    3    3    0    0 -0.23159426732E+02  0.17920858044E+02 -0.86002561974E+01  0.30520167206E+02  0.00000000000E+00 0.  1.
        -11    1    4    4    0    0 -0.40038081282E+02  0.22282041237E+02 -0.80809690150E+02  0.92896411861E+02  0.00000000000E+00 0. -1.
         11    1    4    4    0    0  0.44853238104E+02  0.29537235232E+01 -0.32900844064E+02  0.55704604757E+02  0.00000000000E+00 0.  1.
          2    1    1    2  501    0  0.53301857675E+02 -0.62010609411E+01 -0.14795005144E+03  0.15738093566E+03  0.00000000000E+00 0. -1.
<scales pt_clust_5="13000.00000" pt_clust_6="13000.00000" pt_clust_7="13000.00000" pt_clust_8="13000.00000" pt_clust_9="53.66136"></scales>
<clustering>
<clus scale="   53.661">  2  9  1 -1</clus>
<clus scale="   77.943">  5  6 -1 -1</clus>
<clus scale="   92.153">  7  8 -1 -1</clus>
<clus scale="   94.105">  1  5  2 -1</clus>
<clus scale="   53.661">  2  5  1 -1</clus>
</clustering>
</event>
<event>
 9    1  0.5981539E-005  0.1583805E+03  0.7546771E-02  0.1209908E+00
         21   -1    0    0  501  502  0.00000000000E+00  0.00000000000E+00  0.24803712999E+03  0.24803712999E+03  0.00000000000E+00 0.  1.
         -4   -1    0    0    0  501 -0.00000000000E+00 -0.00000000000E+00 -0.24931657984E+03  0.24931657984E+03  0.00000000000E+00 0.  1.
         23    2    1    2    0    0  0.32912153784E+02  0.39091432645E+02  0.43929966673E+02  0.11289950873E+03  0.90582046380E+02 0.  0.
        -24    2    1    2    0    0  0.68882953169E+02  0.64330584117E+02 -0.15803494044E+03  0.20063919573E+03  0.79985993612E+02 0.  0.
         11    1    4    4    0    0  0.25699769085E+02  0.44745943547E+01  0.14537162865E+00  0.26086802383E+02  0.00000000000E+00 0. -1.
        -12    1    4    4    0    0  0.43183184085E+02  0.59855989763E+02 -0.15818031207E+03  0.17455239335E+03  0.00000000000E+00 0.  1.
        -11    1    3    3    0    0  0.82064943832E+01 -0.25117471510E+02 -0.69599486553E+01  0.27325351057E+02  0.00000000000E+00 0. -1.
         11    1    3    3    0    0  0.24705659401E+02  0.64208904154E+02  0.50889915329E+02  0.85574157672E+02  0.00000000000E+00 0.  1.
         -3    1    1    2    0  502 -0.10179510695E+03 -0.10342201676E+03  0.11282552392E+03  0.18381500537E+03  0.00000000000E+00 0.  1.
<scales pt_clust_5="13000.00000" pt_clust_6="13000.00000" pt_clust_7="13000.00000" pt_clust_8="13000.00000" pt_clust_9="136.69899"></scales>
<clustering>
<clus scale="   79.986">  5  6 -1 -1</clus>
<clus scale="   90.582">  7  8 -1 -1</clus>
<clus scale="  104.002">  2  7  1 -1</clus>
<clus scale="  136.699">  1  9  2 -1</clus>
<clus scale="  136.699">  1  5  2 -1</clus>
</clustering>
</event>
<event>
 9    1  0.5981539E-005  0.2133640E+03  0.7546771E-02  0.1139930E+00
         21   -1    0    0  501  502  0.00000000000E+00  0.00000000000E+00  0.14457444543E+03  0.14457444543E+03  0.00000000000E+00 0.  1.
          1   -1    0    0  502    0 -0.00000000000E+00 -0.00000000000E+00 -0.38444987130E+03  0.38444987130E+03  0.00000000000E+00 0. -1.
         23    2    1    2    0    0  0.18298890580E+03 -0.80611360112E+02 -0.20259980722E+03  0.29928528420E+03  0.92422229068E+02 0.  0.
        -24    2    1    2    0    0 -0.15900262970E+03  0.85177884410E+02 -0.48010277606E+02  0.20306643445E+03  0.79961752124E+02 0.  0.
         11    1    4    4    0    0 -0.43891202056E+02  0.55283147218E+02 -0.45745536649E+02  0.84114910138E+02  0.00000000000E+00 0. -1.
        -12    1    4    4    0    0 -0.11511142764E+03  0.29894737192E+02 -0.22647409564E+01  0.11895152432E+03  0.00000000000E+00 0.  1.
        -13    1    3    3    0    0  0.11574628272E+03 -0.84460017432E+02 -0.93576767572E+02  0.17113534976E+03  0.00000000000E+00 0. -1.
         13    1    3    3    0    0  0.67242623076E+02  0.38486573194E+01 -0.10902303965E+03  0.12814993444E+03  0.00000000000E+00 0.  1.
          2    1    1    2  501    0 -0.23986276098E+02 -0.45665242976E+01  0.10734658961E+02  0.26672598078E+02  0.00000000000E+00 0. -1.
<scales pt_clust_5="13000.00000" pt_clust_6="13000.00000" pt_clust_7="13000.00000" pt_clust_8="13000.00000" pt_clust_9="24.41710"></scales>
<clustering>
<clus scale="   24.417">  1  9  2 -1</clus>
<clus scale="   79.962">  5  6 -1 -1</clus>
<clus scale="   92.422">  7  8 -1 -1</clus>
<clus scale="  208.270">  1  5  2 -1</clus>
<clus scale="   24.417">  1  5  2 -1</clus>
</clustering>
</event>
<event>
 9    1  0.5981539E-005  0.1117150E+03  0.7546771E-02  0.1257762E+00
          1   -1    0    0  502    0 -0.00000000000E+00  0.00000000000E+00  0.55610105215E+03  0.55610105215E+03  0.00000000000E+00 0. -1.
         21   -1    0    0  501  502  0.00000000000E+00 -0.00000000000E+00 -0.50239240762E+02  0.50239240762E+02  0.00000000000E+00 0. -1.
         23    2    1    2    0    0 -0.84491871341E+02  0.36180053952E+02  0.24695933754E+03  0.27733190918E+03  0.86465026585E+02 0.  0.
        -24    2    1    2    0    0  0.41244021309E+02  0.26504526125E+02  0.58492390399E+02  0.11461637208E+03  0.85510197148E+02 0.  0.
         11    1    4    4    0    0  0.53747158301E+02  0.43690725781E+02  0.22518644552E+02  0.72833549255E+02  0.00000000000E+00 0. -1.
        -12    1    4    4    0    0 -0.12503136992E+02 -0.17186199656E+02  0.35973745847E+02  0.41782822828E+02  0.00000000000E+00 0.  1.
        -11    1    3    3    0    0 -0.86379368830E+02 -0.18259614278E+01  0.19132646567E+03  0.20992985962E+03  0.00000000000E+00 0. -1.
         11    1    3    3    0    0  0.18874974885E+01  0.38006015380E+02  0.55632871874E+02  0.67402049559E+02  0.00000000000E+00 0.  1.
          2    1    1    2  501    0  0.43247850032E+02 -0.62684580077E+02  0.20041008345E+03  0.21439201165E+03  0.00000000000E+00 0. -1.
<scales pt_clust_5="13000.00000" pt_clust_6="13000.00000" pt_clust_7="13000.00000" pt_clust_8="13000.00000" pt_clust_9="76.15602"></scales>
<clustering>
<clus scale="   76.156">  2  9  1 -1</clus>
<clus scale="   85.510">  5  6 -1 -1</clus>
<clus scale="   86.465">  7  8 -1 -1</clus>
<clus scale="  110.978">  2  5  1 -1</clus>
<clus scale="   76.156">  2  5  1 -1</clus>
</clustering>
</event>
<event>
 9    1  0.5981539E-005  0.2006709E+03  0.7546771E-02  0.1149977E+00
         21   -1    0    0  501  502  0.00000000000E+00  0.00000000000E+00  0.36211409319E+03  0.36211409319E+03  0.00000000000E+00 0. -1.
          1   -1    0    0  502    0 -0.00000000000E+00 -0.00000000000E+00 -0.20763247886E+03  0.20763247886E+03  0.00000000000E+00 0. -1.
        -24    2    1    2    0    0  0.17269920980E+03 -0.24954792457E+02 -0.64037235559E+02  0.20360412633E+03  0.83103032373E+02 0.  0.
         23    2    1    2    0    0 -0.18770475135E+03  0.64998253512E+01  0.77165194319E+02  0.22280156518E+03  0.91710134792E+02 0.  0.
         13    1    3    3    0    0  0.99209184758E+02 -0.53486586565E+02 -0.50954241794E+02  0.12369160052E+03  0.00000000000E+00 0. -1.
        -14    1    3    3    0    0  0.73490025042E+02  0.28531794108E+02 -0.13082993765E+02  0.79912525812E+02  0.00000000000E+00 0.  1.
        -13    1    4    4    0    0 -0.10871587228E+03  0.12276874674E+02 -0.38907158800E+01  0.10947602572E+03  0.00000000000E+00 0. -1.
         13    1    4    4    0    0 -0.78988879066E+02 -0.57770493229E+01  0.81055910199E+02  0.11332553946E+03  0.00000000000E+00 0.  1.
          2    1    1    2  501    0  0.15005541548E+02  0.18454967106E+02  0.14135365557E+03  0.14334088053E+03  0.00000000000E+00 0. -1.
<scales pt_clust_5="13000.00000" pt_clust_6="13000.00000" pt_clust_7="13000.00000" pt_clust_8="13000.00000" pt_clust_9="23.78554"></scales>
<clustering>
<clus scale="   23.786">  1  9  2 -1</clus>
<clus scale="   83.103">  5  6 -1 -1</clus>
<clus scale="   91.710">  7  8 -1 -1</clus>
<clus scale="  196.886">  2  5  1 -1</clus>
<clus scale="   23.786">  1  5  2 -1</clus>
</clustering>
</event>
<event>
 9    1  0.5981539E-005  0.9543076E+02  0.7546771E-02  0.1296398E+00
          1   -1    0    0  502    0 -0.00000000000E+00  0.00000000000E+00  0.67254050242E+03  0.67254050242E+03  0.00000000000E+00 0. -1.
         21   -1    0    0  501  502  0.00000000000E+00 -0.00000000000E+00 -0.17249049823E+02  0.17249049823E+02  0.00000000000E+00 0. -1.
        -24    2    1    2    0    0  0.31480541548E+02 -0.20554690159E+02  0.31912363082E+03  0.33131094548E+03  0.80706449947E+02 0.  0.
         23    2    1    2    0    0 -0.38595802708E+01  0.17025751211E+02  0.28938842280E+03  0.30403888707E+03  0.91592647271E+02 0.  0.
         11    1    3    3    0    0  0.32902504100E+02 -0.49731461291E+02  0.20373755259E+03  0.21228467527E+03  0.00000000000E+00 0. -1.
        -12    1    3    3    0    0 -0.14219625516E+01  0.29176771132E+02  0.11538607823E+03  0.11902627021E+03  0.00000000000E+00 0.  1.
        -11    1    4    4    0    0  0.20091920845E+02  0.42453031240E+02  0.89040860924E+02  0.10066886340E+03  0.00000000000E+00 0. -1.
         11    1    4    4    0    0 -0.23951501116E+02 -0.25427280029E+02  0.20034756188E+03  0.20337002366E+03  0.00000000000E+00 0.  1.
          2    1    1    2  501    0 -0.27620961278E+02  0.35289389475E+01  0.46779398982E+02  0.54439719701E+02  0.00000000000E+00 0. -1.
<scales pt_clust_5="13000.00000" pt_clust_6="13000.00000" pt_clust_7="13000.00000" pt_clust_8="13000.00000" pt_clust_9="27.84548"></scales>
<clustering>
<clus scale="   27.845">  2  9  1 -1</clus>
<clus scale="   80.706">  5  6 -1 -1</clus>
<clus scale="   85.037">  1  5  2 -1</clus>
<clus scale="   91.593">  7  8 -1 -1</clus>
<clus scale="   27.845">  2  5  1 -1</clus>
</clustering>
</event>
<event>
 9    1  0.5981539E-005  0.9761896E+02  0.7546771E-02  0.1291382E+00
         21   -1    0    0  501  502  0.00000000000E+00  0.00000000000E+00  0.12486426798E+02  0.12486426798E+02  0.00000000000E+00 0. -1.
          1   -1    0    0  502    0 -0.00000000000E+00 -0.00000000000E+00 -0.16037530020E+04  0.16037530020E+04  0.00000000000E+00 0. -1.
        -24    2    1    2    0    0  0.49972670145E+02  0.12760054282E+02 -0.59542149360E+03  0.60322288975E+03  0.81798612077E+02 0.  0.
         23    2    1    2    0    0  0.24972516679E+02 -0.38762093582E+02 -0.47568594404E+03  0.48684316888E+03  0.92806396565E+02 0.  0.
         11    1    3    3    0    0  0.35823846096E+02  0.16784955916E+02 -0.99400800150E+02  0.10698411922E+03  0.00000000000E+00 0. -1.
        -12    1    3    3    0    0  0.14148824049E+02 -0.40249016340E+01 -0.49602069345E+03  0.49623877054E+03  0.00000000000E+00 0.  1.
        -11    1    4    4    0    0  0.50826060090E+02 -0.51883711508E+02 -0.37929428028E+03  0.38618565348E+03  0.00000000000E+00 0.  1.
         11    1    4    4    0    0 -0.25853543411E+02  0.13121617927E+02 -0.96391663760E+02  0.10065751540E+03  0.00000000000E+00 0. -1.
          2    1    1    2  501    0 -0.74945186824E+02  0.26002039300E+02 -0.52015913761E+03  0.52617337021E+03  0.00000000000E+00 0. -1.
<scales pt_clust_5="13000.00000" pt_clust_6="13000.00000" pt_clust_7="13000.00000" pt_clust_8="13000.00000" pt_clust_9="79.32776"></scales>
<clustering>
<clus scale="   79.328">  1  9  2 -1</clus>
<clus scale="   81.799">  5  6 -1 -1</clus>
<clus scale="   87.221">  2  5  1 -1</clus>
<clus scale="   92.806">  7  8 -1 -1</clus>
<clus scale="   79.328">  1  5  2 -1</clus>
</clustering>
</event>
<event>
 9    1  0.5981539E-005  0.1513648E+03  0.7546771E-02  0.1200525E+00
          1   -1    0    0  502    0 -0.00000000000E+00  0.00000000000E+00  0.53093258107E+03  0.53093258107E+03  0.00000000000E+00 0. -1.
         21   -1    0    0  501  502  0.00000000000E+00 -0.00000000000E+00 -0.96425264835E+02  0.96425264835E+02  0.00000000000E+00 0. -1.
        -24    2    1    2    0    0 -0.21199854167E+02  0.12723288938E+03  0.42639837117E+03  0.45254777614E+03  0.79663522348E+02 0.  0.
         23    2    1    2    0    0  0.31630673614E+02 -0.89434804861E+02  0.23901615459E+02  0.13253826326E+03  0.89420468414E+02 0.  0.
         11    1    3    3    0    0 -0.73726559606E+01  0.71532506909E+02  0.34820642520E+03  0.35555445456E+03  0.00000000000E+00 0. -1.
        -12    1    3    3    0    0 -0.13827198206E+02  0.55700382469E+02  0.78191945970E+02  0.96993321584E+02  0.00000000000E+00 0.  1.
        -11    1    4    4    0    0  0.30293085929E+02  0.47614917425E+01 -0.10250643516E+02  0.32332932920E+02  0.00000000000E+00 0.  1.
         11    1    4    4    0    0  0.13375876851E+01 -0.94196296604E+02  0.34152258974E+02  0.10020533034E+03  0.00000000000E+00 0. -1.
          2    1    1    2  501    0 -0.10430819447E+02 -0.37798084517E+02 -0.15792670396E+02  0.42271806511E+02  0.00000000000E+00 0. -1.
<scales pt_clust_5="13000.00000" pt_clust_6="13000.00000" pt_clust_7="13000.00000" pt_clust_8="13000.00000" pt_clust_9="39.21093"></scales>
<clustering>
<clus scale="   39.211">  2  9  1 -1</clus>
<clus scale="   79.664">  5  6 -1 -1</clus>
<clus scale="   89.420">  7  8 -1 -1</clus>
<clus scale="  145.813">  1  5  2 -1</clus>
<clus scale="   39.211">  2  5  1 -1</clus>
</clustering>
</event>
<event>
 9    1  0.5981539E-005  0.9241016E+02  0.7546771E-02  0.1305087E+00
         21   -1    0    0  501  502  0.00000000000E+00  0.00000000000E+00  0.18779998589E+03  0.18779998589E+03  0.00000000000E+00 0.  1.
         -2   -1    0    0    0  501 -0.00000000000E+00 -0.00000000000E+00 -0.16945025683E+03  0.16945025683E+03  0.00000000000E+00 0.  1.
        -24    2    1    2    0    0  0.14510674058E+02 -0.13184962538E+02 -0.10941562870E+03  0.13651395507E+03  0.79245676391E+02 0.  0.
         23    2    1    2    0    0  0.34608289136E+02 -0.25768673361E+02  0.32368886971E+02  0.10658487532E+03  0.91928410192E+02 0.  0.
         13    1    3    3    0    0  0.21019085295E+02  0.28384891341E+02 -0.28781125006E+02  0.45561575475E+02  0.00000000000E+00 0. -1.
        -14    1    3    3    0    0 -0.65084112374E+01 -0.41569853879E+02 -0.80634503694E+02  0.90952379597E+02  0.00000000000E+00 0.  1.
        -13    1    4    4    0    0 -0.31803019699E+02 -0.85152209835E+01  0.11255739592E+02  0.34794147843E+02  0.00000000000E+00 0. -1.
         13    1    4    4    0    0  0.66411308835E+02 -0.17253452377E+02  0.21113147379E+02  0.71790727482E+02  0.00000000000E+00 0.  1.
         -1    1    1    2    0  502 -0.49118963194E+02  0.38953635899E+02  0.95396470795E+02  0.11415141232E+03  0.00000000000E+00 0.  1.
<scales pt_clust_5="13000.00000" pt_clust_6="13000.00000" pt_clust_7="13000.00000" pt_clust_8="13000.00000" pt_clust_9="62.69018"></scales>
<clustering>
<clus scale="   62.690">  1  9  2 -1</clus>
<clus scale="   79.246">  5  6 -1 -1</clus>
<clus scale="   79.804">  2  5  1 -1</clus>
<clus scale="   91.928">  7  8 -1 -1</clus>
<clus scale="   62.690">  1  5  2 -1</clus>
</clustering>
</event>
<event>
 9    1  0.5981539E-005  0.9557591E+02  0.7546771E-02  0.1295064E+00
         21   -1    0    0  501  502  0.00000000000E+00  0.00000000000E+00  0.68474512313E+02  0.68474512313E+02  0.00000000000E+00 0.  1.
         -2   -1    0    0    0  501 -0.00000000000E+00 -0.00000000000E+00 -0.86280475329E+03  0.86280475329E+03  0.00000000000E+00 0.  1.
        -24    2    1    2    0    0 -0.39174759230E+02  0.25255906637E+02 -0.63437194814E+03  0.64104860640E+03  0.79643107640E+02 0.  0.
         23    2    1    2    0    0 -0.27107984558E+01 -0.52360375248E+01 -0.20618807064E+03  0.22471434476E+03  0.89152968274E+02 0.  0.
         11    1    3    3    0    0 -0.14718694041E+02  0.50093519516E+02 -0.26917021370E+03  0.27418717074E+03  0.00000000000E+00 0. -1.
        -12    1    3    3    0    0 -0.24456065189E+02 -0.24837612879E+02 -0.36520173444E+03  0.36686143566E+03  0.00000000000E+00 0.  1.
        -13    1    4    4    0    0  0.33163877751E+02  0.25473298314E+02 -0.87597778416E+02  0.97067515153E+02  0.00000000000E+00 0. -1.
         13    1    4    4    0    0 -0.35874676207E+02 -0.30709335839E+02 -0.11859029222E+03  0.12764682961E+03  0.00000000000E+00 0.  1.
         -1    1    1    2    0  502  0.41885557686E+02 -0.20019869112E+02  0.46229777804E+02  0.65516314440E+02  0.00000000000E+00 0.  1.
<scales pt_clust_5="13000.00000" pt_clust_6="13000.00000" pt_clust_7="13000.00000" pt_clust_8="13000.00000" pt_clust_9="46.42408"></scales>
<clustering>
<clus scale="   46.424">  1  9  2 -1</clus>
<clus scale="   79.643">  5  6 -1 -1</clus>
<clus scale="   86.773">  2  5  1 -1</clus>
<clus scale="   89.153">  7  8 -1 -1</clus>
<clus scale="   46.424">  1  5  2 -1</clus>
</clustering>
</event>
<event>
 9    1  0.5981539E-005  0.9313834E+02  0.7546771E-02  0.1303242E+00
          1   -1    0    0  502    0 -0.00000000000E+00  0.00000000000E+00  0.28914338539E+03  0.28914338539E+03  0.00000000000E+00 0. -1.
         21   -1    0    0  501  502  0.00000000000E+00 -0.00000000000E+00 -0.42886637010E+02  0.42886637010E+02  0.00000000000E+00 0. -1.
         23    2    1    2    0    0 -0.70044869056E+01 -0.38444685575E+01  0.12979524790E+03  0.15886897882E+03  0.91261729542E+02 0.  0.
        -24    2    1    2    0    0  0.35799159112E+02  0.10374882798E+02  0.49478761603E+02  0.99959494653E+02  0.78450842796E+02 0.  0.
         11    1    4    4    0    0  0.23530367620E+02  0.44636686821E+02  0.28300940433E+02  0.57853740070E+02  0.00000000000E+00 0. -1.
        -12    1    4    4    0    0  0.12268791492E+02 -0.34261804022E+02  0.21177821170E+02  0.42105754583E+02  0.00000000000E+00 0.  1.
        -13    1    3    3    0    0 -0.16791251013E+02  0.41191329950E+02  0.75716680976E+02  0.87816214628E+02  0.00000000000E+00 0.  1.
         13    1    3    3    0    0  0.97867641069E+01 -0.45035798507E+02  0.54078566920E+02  0.71052764190E+02  0.00000000000E+00 0. -1.
          2    1    1    2  501    0 -0.28794672207E+02 -0.65304142407E+01  0.66982738885E+02  0.73201548933E+02  0.00000000000E+00 0. -1.
<scales pt_clust_5="13000.00000" pt_clust_6="13000.00000" pt_clust_7="13000.00000" pt_clust_8="13000.00000" pt_clust_9="29.52593"></scales>
<clustering>
<clus scale="   29.526">  2  9  1 -1</clus>
<clus scale="   78.451">  5  6 -1 -1</clus>
<clus scale="   80.626">  2  5  1 -1</clus>
<clus scale="   91.262">  7  8 -1 -1</clus>
<clus scale="   29.526">  2  5  1 -1</clus>
</clustering>
</event>
<event>
 9    1  0.7103886E-005  0.1014694E+03  0.7546771E-02  0.1279375E+00
          1   -1    0    0  502    0 -0.00000000000E+00  0.00000000000E+00  0.26414796341E+03  0.26414796341E+03  0.00000000000E+00 0. -1.
         21   -1    0    0  501  502  0.00000000000E+00 -0.00000000000E+00 -0.17443698965E+03  0.17443698965E+03  0.00000000000E+00 0.  1.
         23    2    1    2    0    0  0.46667075414E+01 -0.37245912580E+02  0.22184058357E+03  0.24249645713E+03  0.90455796051E+02 0.  0.
        -24    2    1    2    0    0  0.32179330423E+02  0.24895763252E+02 -0.77461309087E+02  0.12901555201E+03  0.94812709705E+02 0.  0.
         13    1    4    4    0    0  0.42063706868E+02 -0.11068472498E+02 -0.50656980134E+00  0.43498541722E+02  0.00000000000E+00 0. -1.
        -14    1    4    4    0    0 -0.98843764451E+01  0.35964235750E+02 -0.76954739286E+02  0.85517010293E+02  0.00000000000E+00 0.  1.
        -11    1    3    3    0    0 -0.39202239758E+01 -0.65218896872E+02  0.17956192849E+03  0.19107945684E+03  0.00000000000E+00 0. -1.
         11    1    3    3    0    0  0.85869315172E+01  0.27972984292E+02  0.42278655085E+02  0.51417000291E+02  0.00000000000E+00 0.  1.
          2    1    1    2  501    0 -0.36846037965E+02  0.12350149328E+02 -0.54668300718E+02  0.67072943916E+02  0.00000000000E+00 0. -1.
<scales pt_clust_5="13000.00000" pt_clust_6="13000.00000" pt_clust_7="13000.00000" pt_clust_8="13000.00000" pt_clust_9="38.86073"></scales>
<clustering>
<clus scale="   38.861">  2  9  1 -1</clus>
<clus scale="   90.456">  7  8 -1 -1</clus>
<clus scale="   94.813">  5  6 -1 -1</clus>
<clus scale="   97.411">  1  7  2 -1</clus>
<clus scale="   38.861">  2  5  1 -1</clus>
</clustering>
</event>
<event>
 9    1  0.5981539E-005  0.1202415E+03  0.7546771E-02  0.1246420E+00
         21   -1    0    0  501  502  0.00000000000E+00  0.00000000000E+00  0.14326639321E+03  0.14326639321E+03  0.00000000000E+00 0.  1.
         -2   -1    0    0    0  501 -0.00000000000E+00 -0.00000000000E+00 -0.85447304205E+03  0.85447304205E+03  0.00000000000E+00 0.  1.
        -24    2    1    2    0    0 -0.64224007761E+02  0.39734744788E+02 -0.67553308645E+03  0.68435526184E+03  0.79332215402E+02 0.  0.
         23    2    1    2    0    0  0.61198170328E+02 -0.82325266242E+02 -0.14281038422E+03  0.19805244838E+03  0.91144396177E+02 0.  0.
         13    1    3    3    0    0 -0.21641085913E+02 -0.12307818265E+02 -0.57285975567E+02  0.62462004343E+02  0.00000000000E+00 0. -1.
        -14    1    3    3    0    0 -0.42582921848E+02  0.52042563053E+02 -0.61824711088E+03  0.62189325749E+03  0.00000000000E+00 0.  1.
        -13    1    4    4    0    0  0.53772741683E+02 -0.37001473763E+02 -0.13700415140E+03  0.15175886897E+03  0.00000000000E+00 0.  1.
         13    1    4    4    0    0  0.74254286448E+01 -0.45323792479E+02 -0.58062328184E+01  0.46293579412E+02  0.00000000000E+00 0. -1.
         -1    1    1    2    0  502  0.30258374330E+01  0.42590521454E+02  0.10713682183E+03  0.11533172505E+03  0.00000000000E+00 0.  1.
<scales pt_clust_5="13000.00000" pt_clust_6="13000.00000" pt_clust_7="13000.00000" pt_clust_8="13000.00000" pt_clust_9="42.69787"></scales>
<clustering>
<clus scale="   42.698">  1  9  2 -1</clus>
<clus scale="   79.332">  5  6 -1 -1</clus>
<clus scale="   91.144">  7  8 -1 -1</clus>
<clus scale="  111.554">  2  5  1 -1</clus>
<clus scale="   42.698">  1  5  2 -1</clus>
</clustering>
</event>
<event>
 9    1  0.5981539E-005  0.1035260E+03  0.7546771E-02  0.1278463E+00
          1   -1    0    0  502    0 -0.00000000000E+00  0.00000000000E+00  0.69749449263E+03  0.69749449263E+03  0.00000000000E+00 0. -1.
         21   -1    0    0  501  502  0.00000000000E+00 -0.00000000000E+00 -0.25864392833E+02  0.25864392833E+02  0.00000000000E+00 0. -1.
        -24    2    1    2    0    0  0.23784475563E+02  0.46346304323E+02  0.51846850548E+03  0.52731681495E+03  0.80868726644E+02 0.  0.
         23    2    1    2    0    0 -0.11130014914E+02 -0.24393644799E+02  0.12962894889E+03  0.16146115041E+03  0.92450589850E+02 0.  0.
         11    1    3    3    0    0 -0.61627489935E+01  0.59485950296E+02  0.26009804291E+03  0.26688489969E+03  0.00000000000E+00 0. -1.
        -12    1    3    3    0    0  0.29947224556E+02 -0.13139645973E+02  0.25837046257E+03  0.26043191526E+03  0.00000000000E+00 0.  1.
        -11    1    4    4    0    0  0.20861661785E+02 -0.22250243698E+02  0.12547612445E+03  0.12912993489E+03  0.00000000000E+00 0.  1.
         11    1    4    4    0    0 -0.31991676699E+02 -0.21434011012E+01  0.41528244356E+01  0.32331215521E+02  0.00000000000E+00 0. -1.
          2    1    1    2  501    0 -0.12654460649E+02 -0.21952659524E+02  0.23532645432E+02  0.34580920108E+02  0.00000000000E+00 0. -1.
<scales pt_clust_5="13000.00000" pt_clust_6="13000.00000" pt_clust_7="13000.00000" pt_clust_8="13000.00000" pt_clust_9="25.33880"></scales>
<clustering>
<clus scale="   25.339">  2  9  1 -1</clus>
<clus scale="   80.869">  5  6 -1 -1</clus>
<clus scale="   92.451">  7  8 -1 -1</clus>
<clus scale="   93.329">  1  5  2 -1</clus>
<clus scale="   25.339">  2  5  1 -1</clus>
</clustering>
</event>
<event>
 9    1  0.5981539E-005  0.1182344E+03  0.7546771E-02  0.1250669E+00
          1   -1    0    0  502    0 -0.00000000000E+00  0.00000000000E+00  0.50795716820E+03  0.50795716820E+03  0.00000000000E+00 0. -1.
         21   -1    0    0  501  502  0.00000000000E+00 -0.00000000000E+00 -0.44857384299E+02  0.44857384299E+02  0.00000000000E+00 0.  1.
        -24    2    1    2    0    0  0.13827896170E+02 -0.56786501448E+02  0.14779446333E+03  0.17715921340E+03  0.78270467228E+02 0.  0.
         23    2    1    2    0    0 -0.48529018929E+02  0.91781830287E+02  0.15563944008E+03  0.20855646313E+03  0.92158520790E+02 0.  0.
         13    1    3    3    0    0 -0.80953450198E+00 -0.45151419022E+02  0.15150868833E+03  0.15809550476E+03  0.00000000000E+00 0. -1.
        -14    1    3    3    0    0  0.14637430672E+02 -0.11635082427E+02 -0.37142249944E+01  0.19063708639E+02  0.00000000000E+00 0.  1.
        -13    1    4    4    0    0 -0.11299590610E+02  0.96047625764E+02  0.13409728486E+03  0.16533272202E+03  0.00000000000E+00 0.  1.
         13    1    4    4    0    0 -0.37229428319E+02 -0.42657954772E+01  0.21542155226E+02  0.43223741113E+02  0.00000000000E+00 0. -1.
          2    1    1    2  501    0  0.34701122759E+02 -0.34995328838E+02  0.15966588049E+03  0.16709887598E+03  0.00000000000E+00 0. -1.
<scales pt_clust_5="13000.00000" pt_clust_6="13000.00000" pt_clust_7="13000.00000" pt_clust_8="13000.00000" pt_clust_9="49.28330"></scales>
<clustering>
<clus scale="   49.283">  2  9  1 -1</clus>
<clus scale="   78.270">  5  6 -1 -1</clus>
<clus scale="   92.159">  7  8 -1 -1</clus>
<clus scale="  107.761">  1  5  2 -1</clus>
<clus scale="   49.283">  2  5  1 -1</clus>
</clustering>
</event>
<event>
 9    1  0.5981539E-005  0.9325087E+02  0.7546771E-02  0.1299152E+00
         -4   -1    0    0    0  501 -0.00000000000E+00  0.00000000000E+00  0.36109636482E+03  0.36109636482E+03  0.00000000000E+00 0.  1.
         21   -1    0    0  501  502  0.00000000000E+00 -0.00000000000E+00 -0.15133038165E+03  0.15133038165E+03  0.00000000000E+00 0. -1.
        -24    2    1    2    0    0 -0.18566072817E+02  0.23234268246E+02  0.29925031639E+03  0.31138995384E+03  0.80798646089E+02 0.  0.
         23    2    1    2    0    0  0.34227809960E+02 -0.54506487574E+02 -0.11450141101E+03  0.15803567761E+03  0.87876061087E+02 0.  0.
         13    1    3    3    0    0  0.19000920019E+02  0.36903808370E+02  0.20241861399E+03  0.20663063985E+03  0.00000000000E+00 0. -1.
        -14    1    3    3    0    0 -0.37566992836E+02 -0.13669540124E+02  0.96831702404E+02  0.10475931399E+03  0.00000000000E+00 0.  1.
        -11    1    4    4    0    0 -0.28888702936E+02 -0.22661607153E+02 -0.27167851090E+02  0.45674913562E+02  0.00000000000E+00 0.  1.
         11    1    4    4    0    0  0.63116512896E+02 -0.31844880421E+02 -0.87333559919E+02  0.11236076405E+03  0.00000000000E+00 0. -1.
         -3    1    1    2    0  502 -0.15661737144E+02  0.31272219328E+02  0.25017077780E+02  0.43001115017E+02  0.00000000000E+00 0.  1.
<scales pt_clust_5="13000.00000" pt_clust_6="13000.00000" pt_clust_7="13000.00000" pt_clust_8="13000.00000" pt_clust_9="34.97489"></scales>
<clustering>
<clus scale="   34.975">  2  9  1 -1</clus>
<clus scale="   80.799">  5  6 -1 -1</clus>
<clus scale="   86.614">  1  5  2 -1</clus>
<clus scale="   87.876">  7  8 -1 -1</clus>
<clus scale="   34.975">  2  5  1 -1</clus>
</clustering>
</event>
<event>
 9    1  0.5981539E-005  0.9177711E+02  0.7546771E-02  0.1303896E+00
          1   -1    0    0  502    0 -0.00000000000E+00  0.00000000000E+00  0.22778004955E+03  0.22778004955E+03  0.00000000000E+00 0. -1.
         21   -1    0    0  501  502  0.00000000000E+00 -0.00000000000E+00 -0.69148533496E+02  0.69148533496E+02  0.00000000000E+00 0.  1.
         23    2    1    2    0    0 -0.16602059889E+01  0.25850361354E+02  0.16514401981E+03  0.18937558551E+03  0.88991952684E+02 0.  0.
        -24    2    1    2    0    0  0.14260148305E+02 -0.99091605791E+01  0.82231067482E+01  0.82452825321E+02  0.80182950967E+02 0.  0.
         11    1    4    4    0    0  0.17677325159E+02 -0.33798200482E+02  0.31089801263E+02  0.49207539292E+02  0.00000000000E+00 0. -1.
        -12    1    4    4    0    0 -0.34171768534E+01  0.23889039903E+02 -0.22866694515E+02  0.33245286029E+02  0.00000000000E+00 0.  1.
        -13    1    3    3    0    0 -0.28692265822E+02  0.11260841394E+02  0.11831007542E+02  0.33015532805E+02  0.00000000000E+00 0.  1.
         13    1    3    3    0    0  0.27032059834E+02  0.14589519959E+02  0.15331301227E+03  0.15636005271E+03  0.00000000000E+00 0. -1.
          2    1    1    2  501    0 -0.12599942316E+02 -0.15941200775E+02 -0.14735610501E+02  0.25100172217E+02  0.00000000000E+00 0. -1.
<scales pt_clust_5="13000.00000" pt_clust_6="13000.00000" pt_clust_7="13000.00000" pt_clust_8="13000.00000" pt_clust_9="20.31946"></scales>
<clustering>
<clus scale="   20.319">  2  9  1 -1</clus>
<clus scale="   80.183">  5  6 -1 -1</clus>
<clus scale="   83.263">  2  5  1 -1</clus>
<clus scale="   88.992">  7  8 -1 -1</clus>
<clus scale="   20.319">  2  5  1 -1</clus>
</clustering>
</event>
<event>
 9    1  0.5981539E-005  0.9382267E+02  0.7546771E-02  0.1300478E+00
         -4   -1    0    0    0  501 -0.00000000000E+00  0.00000000000E+00  0.42196943538E+03  0.42196943538E+03  0.00000000000E+00 0.  1.
         21   -1    0    0  501  502  0.00000000000E+00 -0.00000000000E+00 -0.44301826231E+02  0.44301826231E+02  0.00000000000E+00 0. -1.
        -24    2    1    2    0    0  0.88877772395E+01  0.80459244247E+01  0.21448154104E+03  0.22958276615E+03  0.81007318068E+02 0.  0.
         23    2    1    2    0    0 -0.42920368244E+02 -0.18290724093E+02  0.43811687577E+02  0.11213563160E+03  0.92077289855E+02 0.  0.
         13    1    3    3    0    0 -0.21660466465E+02 -0.21014972166E+02  0.14658772845E+03  0.14966217623E+03  0.00000000000E+00 0. -1.
        -14    1    3    3    0    0  0.30548243705E+02  0.29060896590E+02  0.67893812587E+02  0.79920589911E+02  0.00000000000E+00 0.  1.
        -13    1    4    4    0    0 -0.21459065805E+02  0.23240845484E+01 -0.27444286710E+02  0.34915351169E+02  0.00000000000E+00 0. -1.
         13    1    4    4    0    0 -0.21461302439E+02 -0.20614808641E+02  0.71255974287E+02  0.77220280427E+02  0.00000000000E+00 0.  1.
         -3    1    1    2    0  502  0.34032591004E+02  0.10244799668E+02  0.11937438053E+03  0.12455286387E+03  0.00000000000E+00 0.  1.
<scales pt_clust_5="13000.00000" pt_clust_6="13000.00000" pt_clust_7="13000.00000" pt_clust_8="13000.00000" pt_clust_9="35.54117"></scales>
<clustering>
<clus scale="   35.541">  2  9  1 -1</clus>
<clus scale="   81.007">  5  6 -1 -1</clus>
<clus scale="   82.986">  1  5  2 -1</clus>
<clus scale="   92.077">  7  8 -1 -1</clus>
<clus scale="   35.541">  2  5  1 -1</clus>
</clustering>
</event>
<event>
 9    1  0.7254255E-005  0.1982647E+03  0.7546771E-02  0.1152104E+00
          3   -1    0    0  502    0 -0.00000000000E+00  0.00000000000E+00  0.16311600540E+03  0.16311600540E+03  0.00000000000E+00 0. -1.
         21   -1    0    0  501  502  0.00000000000E+00 -0.00000000000E+00 -0.91597821683E+03  0.91597821683E+03  0.00000000000E+00 0.  1.
         23    2    1    2    0    0  0.79332909638E+02 -0.15714763690E+03  0.82807221359E+02  0.21432667004E+03  0.89943289059E+02 0.  0.
        -24    2    1    2    0    0 -0.66463422902E+02  0.17266432745E+03 -0.74056555033E+03  0.76755057923E+03  0.80412690406E+02 0.  0.
         11    1    4    4    0    0 -0.17681581414E+01  0.66669852126E+02 -0.15136865683E+03  0.16540999315E+03  0.00000000000E+00 0. -1.
        -12    1    4    4    0    0 -0.64695264760E+02  0.10599447532E+03 -0.58919689351E+03  0.60214058608E+03  0.00000000000E+00 0.  1.
        -13    1    3    3    0    0  0.29020455331E+02  0.12889695928E+01  0.25010662177E+02  0.38332512215E+02  0.00000000000E+00 0.  1.
         13    1    3    3    0    0  0.50312454307E+02 -0.15843660649E+03  0.57796559182E+02  0.17599415783E+03  0.00000000000E+00 0. -1.
          4    1    1    2  501    0 -0.12869486736E+02 -0.15516690545E+02 -0.95103882448E+02  0.97216972957E+02  0.00000000000E+00 0. -1.
<scales pt_clust_5="13000.00000" pt_clust_6="13000.00000" pt_clust_7="13000.00000" pt_clust_8="13000.00000" pt_clust_9="20.15915"></scales>
<clustering>
<clus scale="   20.159">  2  9  1 -1</clus>
<clus scale="   80.413">  5  6 -1 -1</clus>
<clus scale="   89.943">  7  8 -1 -1</clus>
<clus scale="  194.127">  2  5  1 -1</clus>
<clus scale="   20.159">  2  5  1 -1</clus>
</clustering>
</event>
<event>
 9    1  0.5981539E-005  0.1592652E+03  0.7546771E-02  0.1191524E+00
          1   -1    0    0  502    0 -0.00000000000E+00  0.00000000000E+00  0.22059731653E+03  0.22059731653E+03  0.00000000000E+00 0. -1.
         21   -1    0    0  501  502  0.00000000000E+00 -0.00000000000E+00 -0.37923040224E+03  0.37923040224E+03  0.00000000000E+00 0.  1.
         23    2    1    2    0    0 -0.73027328449E+02  0.10364493425E+03  0.14329414689E+03  0.21254421144E+03  0.92555746371E+02 0.  0.
        -24    2    1    2    0    0  0.38761918682E+02 -0.15587387800E+03 -0.23516886771E+03  0.29585779894E+03  0.80176609277E+02 0.  0.
         13    1    4    4    0    0  0.60764845986E+01 -0.10855630268E+03 -0.95122781254E+02  0.14446362182E+03  0.00000000000E+00 0. -1.
        -14    1    4    4    0    0  0.32685434083E+02 -0.47317575316E+02 -0.14004608645E+03  0.15139417712E+03  0.00000000000E+00 0.  1.
        -13    1    3    3    0    0  0.15808170518E+02  0.45881573739E+02  0.63375060916E+02  0.79821146383E+02  0.00000000000E+00 0. -1.
         13    1    3    3    0    0 -0.88835498967E+02  0.57763360516E+02  0.79919085976E+02  0.13272306506E+03  0.00000000000E+00 0.  1.
          2    1    1    2  501    0  0.34265409767E+02  0.52228943742E+02 -0.66758364889E+02  0.91425708385E+02  0.00000000000E+00 0. -1.
<scales pt_clust_5="13000.00000" pt_clust_6="13000.00000" pt_clust_7="13000.00000" pt_clust_8="13000.00000" pt_clust_9="62.46584"></scales>
<clustering>
<clus scale="   62.466">  2  9  1 -1</clus>
<clus scale="   80.177">  5  6 -1 -1</clus>
<clus scale="   92.556">  7  8 -1 -1</clus>
<clus scale="  152.404">  2  5  1 -1</clus>
<clus scale="   62.466">  2  5  1 -1</clus>
</clustering>
</event>
<event>
 9    1  0.5981539E-005  0.9859249E+02  0.7546771E-02  0.1286276E+00
          1   -1    0    0  502    0 -0.00000000000E+00  0.00000000000E+00  0.84620294620E+03  0.84620294620E+03  0.00000000000E+00 0. -1.
         21   -1    0    0  501  502  0.00000000000E+00 -0.00000000000E+00 -0.54270947256E+02  0.54270947256E+02  0.00000000000E+00 0. -1.
         23    2    1    2    0    0 -0.13391396405E+02  0.78473606123E+02  0.54812350465E+03  0.56092118354E+03  0.88632733414E+02 0.  0.
        -24    2    1    2    0    0 -0.16878133911E+02 -0.42517697578E+01  0.24527394906E+03  0.25938243478E+03  0.82565055749E+02 0.  0.
         13    1    4    4    0    0 -0.36466875525E+02 -0.26389536487E+02  0.20214140627E+03  0.20709270575E+03  0.00000000000E+00 0. -1.
        -14    1    4    4    0    0  0.19588741613E+02  0.22137766729E+02  0.43132542797E+02  0.52289729028E+02  0.00000000000E+00 0.  1.
        -13    1    3    3    0    0 -0.50543408039E+02  0.42245293081E+02  0.34797297932E+03  0.35415320868E+03  0.00000000000E+00 0.  1.
         13    1    3    3    0    0  0.37152011634E+02  0.36228313042E+02  0.20015052533E+03  0.20676797485E+03  0.00000000000E+00 0. -1.
          2    1    1    2  501    0  0.30269530316E+02 -0.74221836365E+02 -0.14654547713E+01  0.80170275144E+02  0.00000000000E+00 0. -1.
<scales pt_clust_5="13000.00000" pt_clust_6="13000.00000" pt_clust_7="13000.00000" pt_clust_8="13000.00000" pt_clust_9="80.15688"></scales>
<clustering>
<clus scale="   80.157">  2  9  1 -1</clus>
<clus scale="   82.565">  5  6 -1 -1</clus>
<clus scale="   88.633">  7  8 -1 -1</clus>
<clus scale="   93.176">  2  5  1 -1</clus>
<clus scale="   80.157">  2  5  1 -1</clus>
</clustering>
</event>
<event>
 9    1  0.5981539E-005  0.9317405E+02  0.7546771E-02  0.1301721E+00
         -2   -1    0    0    0  501 -0.00000000000E+00  0.00000000000E+00  0.29586177885E+03  0.29586177885E+03  0.00000000000E+00 0.  1.
         21   -1    0    0  501  502  0.00000000000E+00 -0.00000000000E+00 -0.98310785992E+02  0.98310785992E+02  0.00000000000E+00 0. -1.
        -24    2    1    2    0    0  0.40385429146E+00 -0.23143938875E+02  0.21979183669E+03  0.23529345820E+03  0.80738807236E+02 0.  0.
         23    2    1    2    0    0 -0.95162811155E+01 -0.26682602096E+02 -0.42084367743E+02  0.10447794903E+03  0.91334697488E+02 0.  0.
         11    1    3    3    0    0 -0.19153283503E+02  0.16646802798E+02  0.25380937804E+02  0.35890894614E+02  0.00000000000E+00 0. -1.
        -12    1    3    3    0    0  0.19557137795E+02 -0.39790741673E+02  0.19441089888E+03  0.19940256359E+03  0.00000000000E+00 0.  1.
        -11    1    4    4    0    0 -0.29492335552E+02 -0.53942364953E+02 -0.22816612654E+02  0.65575715063E+02  0.00000000000E+00 0.  1.
         11    1    4    4    0    0  0.19976054436E+02  0.27259762857E+02 -0.19267755089E+02  0.38902233972E+02  0.00000000000E+00 0. -1.
         -1    1    1    2    0  502  0.91124268240E+01  0.49826540971E+02  0.19843523921E+02  0.54401157611E+02  0.00000000000E+00 0.  1.
<scales pt_clust_5="13000.00000" pt_clust_6="13000.00000" pt_clust_7="13000.00000" pt_clust_8="13000.00000" pt_clust_9="50.65294"></scales>
<clustering>
<clus scale="   50.653">  2  9  1 -1</clus>
<clus scale="   80.739">  5  6 -1 -1</clus>
<clus scale="   82.814">  1  5  2 -1</clus>
<clus scale="   91.335">  7  8 -1 -1</clus>
<clus scale="   50.653">  2  5  1 -1</clus>
</clustering>
</event>
<event>
 9    1  0.5981539E-005  0.9849331E+02  0.7546771E-02  0.1289902E+00
         21   -1    0    0  501  502  0.00000000000E+00  0.00000000000E+00  0.13328434873E+03  0.13328434873E+03  0.00000000000E+00 0. -1.
          3   -1    0    0  502    0 -0.00000000000E+00 -0.00000000000E+00 -0.10275885812E+03  0.10275885812E+03  0.00000000000E+00 0. -1.
        -24    2    1    2    0    0 -0.32811983018E+02 -0.27769227725E+00  0.21247459637E+02  0.85093137535E+02  0.75582300653E+02 0.  0.
         23    2    1    2    0    0  0.51480416511E+02 -0.33608055056E+02  0.22812369727E+02  0.10996308837E+03  0.88270844243E+02 0.  0.
         13    1    3    3    0    0 -0.21377197148E+02 -0.10863840973E+02  0.48270859880E+02  0.53898826631E+02  0.00000000000E+00 0. -1.
        -14    1    3    3    0    0 -0.11434785869E+02  0.10586148696E+02 -0.27023400243E+02  0.31194310904E+02  0.00000000000E+00 0.  1.
        -11    1    4    4    0    0  0.67700238310E+02  0.17878333436E+01  0.75501879106E+01  0.68143407259E+02  0.00000000000E+00 0. -1.
         11    1    4    4    0    0 -0.16219821799E+02 -0.35395888400E+02  0.15262181816E+02  0.41819681115E+02  0.00000000000E+00 0.  1.
          4    1    1    2  501    0 -0.18668433493E+02  0.33885747333E+02 -0.13534338748E+02  0.40986980942E+02  0.00000000000E+00 0. -1.
<scales pt_clust_5="13000.00000" pt_clust_6="13000.00000" pt_clust_7="13000.00000" pt_clust_8="13000.00000" pt_clust_9="38.68793"></scales>
<clustering>
<clus scale="   38.688">  1  9  2 -1</clus>
<clus scale="   75.582">  5  6 -1 -1</clus>
<clus scale="   87.303">  2  5  1 -1</clus>
<clus scale="   88.271">  7  8 -1 -1</clus>
<clus scale="   38.688">  1  5  2 -1</clus>
</clustering>
</event>
<event>
 9    1  0.5981539E-005  0.2210510E+03  0.7546771E-02  0.1166233E+00
         21   -1    0    0  501  502  0.00000000000E+00  0.00000000000E+00  0.90403897477E+03  0.90403897477E+03  0.00000000000E+00 0.  1.
         -2   -1    0    0    0  501 -0.00000000000E+00 -0.00000000000E+00 -0.19314165581E+03  0.19314165581E+03  0.00000000000E+00 0.  1.
         23    2    1    2    0    0 -0.59207008263E+01 -0.42392315299E+02  0.24312572303E+03  0.26317815764E+03  0.91216568487E+02 0.  0.
        -24    2    1    2    0    0 -0.12042894825E+03 -0.11555828301E+03 -0.10988590113E+03  0.22195606191E+03  0.96606075383E+02 0.  0.
         11    1    4    4    0    0 -0.30546637633E+02 -0.45286698289E+02  0.11010782634E+02  0.55724495931E+02  0.00000000000E+00 0. -1.
        -12    1    4    4    0    0 -0.89882310620E+02 -0.70271584725E+02 -0.12089668377E+03  0.16623156598E+03  0.00000000000E+00 0.  1.
        -13    1    3    3    0    0  0.36915690650E+02 -0.44127909775E+02  0.15011903377E+03  0.16076618095E+03  0.00000000000E+00 0. -1.
         13    1    3    3    0    0 -0.42836391476E+02  0.17355944751E+01  0.93006689255E+02  0.10241197669E+03  0.00000000000E+00 0.  1.
         -1    1    1    2    0  502  0.12634964908E+03  0.15795059831E+03  0.57765749707E+03  0.61204641103E+03  0.00000000000E+00 0.  1.
<scales pt_clust_5="13000.00000" pt_clust_6="13000.00000" pt_clust_7="13000.00000" pt_clust_8="13000.00000" pt_clust_9="198.82356"></scales>
<clustering>
<clus scale="   91.217">  7  8 -1 -1</clus>
<clus scale="   96.606">  5  6 -1 -1</clus>
<clus scale="  100.760">  2  7  1 -1</clus>
<clus scale="  198.824">  1  9  2 -1</clus>
<clus scale="  198.824">  1  5  2 -1</clus>
</clustering>
</event>
<event>
 9    1  0.5981539E-005  0.1441797E+03  0.7546771E-02  0.1209883E+00
          1   -1    0    0  502    0 -0.00000000000E+00  0.00000000000E+00  0.25864537926E+03  0.25864537926E+03  0.00000000000E+00 0. -1.
         21   -1    0    0  501  502  0.00000000000E+00 -0.00000000000E+00 -0.11247865937E+03  0.11247865937E+03  0.00000000000E+00 0. -1.
         23    2    1    2    0    0 -0.39231034751E+02  0.11218162344E+03  0.13220027806E+03  0.19928824323E+03  0.90083847857E+02 0.  0.
        -24    2    1    2    0    0  0.53329960515E+02 -0.89957771777E+02  0.37285034507E+02  0.13667280272E+03  0.79704427823E+02 0.  0.
         11    1    4    4    0    0  0.29255047724E+02 -0.87535807400E+01 -0.18077367776E+02  0.35486253942E+02  0.00000000000E+00 0. -1.
        -12    1    4    4    0    0  0.24074912791E+02 -0.81204191037E+02  0.55362402283E+02  0.10118654878E+03  0.00000000000E+00 0.  1.
        -13    1    3    3    0    0 -0.59076987304E+02  0.81214454006E+02  0.56757882357E+02  0.11535742359E+03  0.00000000000E+00 0.  1.
         13    1    3    3    0    0  0.19845952553E+02  0.30967169435E+02  0.75442395698E+02  0.83930819633E+02  0.00000000000E+00 0. -1.
          2    1    1    2  501    0 -0.14098925764E+02 -0.22223851664E+02 -0.23318592664E+02  0.35162992682E+02  0.00000000000E+00 0. -1.
<scales pt_clust_5="13000.00000" pt_clust_6="13000.00000" pt_clust_7="13000.00000" pt_clust_8="13000.00000" pt_clust_9="26.31880"></scales>
<clustering>
<clus scale="   26.319">  2  9  1 -1</clus>
<clus scale="   79.704">  5  6 -1 -1</clus>
<clus scale="   90.084">  7  8 -1 -1</clus>
<clus scale="  137.933">  2  5  1 -1</clus>
<clus scale="   26.319">  2  5  1 -1</clus>
</clustering>
</event>
<event>
 9    1  0.5981539E-005  0.1767610E+03  0.7546771E-02  0.1172477E+00
          3   -1    0    0  502    0 -0.00000000000E+00  0.00000000000E+00  0.15585283804E+03  0.15585283804E+03  0.00000000000E+00 0. -1.
         21   -1    0    0  501  502  0.00000000000E+00 -0.00000000000E+00 -0.28701031294E+03  0.28701031294E+03  0.00000000000E+00 0. -1.
        -24    2    1    2    0    0  0.10213156737E+03  0.13411062737E+03  0.16542355025E+02  0.18727118706E+03  0.79876971423E+02 0.  0.
         23    2    1    2    0    0 -0.89323087720E+02 -0.79945939128E+02 -0.12253020059E+03  0.19450693429E+03  0.91920238513E+02 0.  0.
         11    1    3    3    0    0  0.54797927250E+02  0.12477947040E+03  0.24226657898E+02  0.13841842369E+03  0.00000000000E+00 0. -1.
        -12    1    3    3    0    0  0.47333640121E+02  0.93311569692E+01 -0.76843028729E+01  0.48852763362E+02  0.00000000000E+00 0.  1.
        -13    1    4    4    0    0 -0.18813753864E+02  0.16201668999E+02 -0.19065576332E+01  0.24901533584E+02  0.00000000000E+00 0.  1.
         13    1    4    4    0    0 -0.70509333856E+02 -0.96147608127E+02 -0.12062364295E+03  0.16960540071E+03  0.00000000000E+00 0. -1.
          4    1    1    2  501    0 -0.12808479651E+02 -0.54164688244E+02 -0.25169629339E+02  0.61085029628E+02  0.00000000000E+00 0. -1.
<scales pt_clust_5="13000.00000" pt_clust_6="13000.00000" pt_clust_7="13000.00000" pt_clust_8="13000.00000" pt_clust_9="55.65852"></scales>
<clustering>
<clus scale="   55.659">  2  9  1 -1</clus>
<clus scale="   79.877">  5  6 -1 -1</clus>
<clus scale="   91.920">  7  8 -1 -1</clus>
<clus scale="  170.808">  1  5  2 -1</clus>
<clus scale="   55.659">  2  5  1 -1</clus>
</clustering>
</event>
<event>
 9    1  0.5981539E-005  0.1781444E+03  0.7546771E-02  0.1169727E+00
         21   -1    0    0  501  502  0.00000000000E+00  0.00000000000E+00  0.33805733251E+03  0.33805733251E+03  0.00000000000E+00 0.  1.
          1   -1    0    0  502    0 -0.00000000000E+00 -0.00000000000E+00 -0.18546069198E+03  0.18546069198E+03  0.00000000000E+00 0. -1.
         23    2    1    2    0    0  0.59510974528E+02 -0.12150554295E+03 -0.29063321564E+02  0.16805846506E+03  0.95361511944E+02 0.  0.
        -24    2    1    2    0    0 -0.30435270340E+02  0.18034086972E+03  0.56679153804E+02  0.21429584352E+03  0.96234334333E+02 0.  0.
         11    1    4    4    0    0 -0.66570895076E+01  0.44498892266E+02 -0.27494460819E+02  0.52729627624E+02  0.00000000000E+00 0. -1.
        -12    1    4    4    0    0 -0.23778180833E+02  0.13584197745E+03  0.84173614623E+02  0.16156621590E+03  0.00000000000E+00 0.  1.
        -11    1    3    3    0    0  0.57926514334E+02 -0.16248913902E+02 -0.13319181541E+02  0.61619062495E+02  0.00000000000E+00 0.  1.
         11    1    3    3    0    0  0.15844601947E+01 -0.10525662905E+03 -0.15744140023E+02  0.10643940256E+03  0.00000000000E+00 0. -1.
          2    1    1    2  501    0 -0.29075704188E+02 -0.58835326764E+02  0.12498080829E+03  0.14116371591E+03  0.00000000000E+00 0. -1.
<scales pt_clust_5="13000.00000" pt_clust_6="13000.00000" pt_clust_7="13000.00000" pt_clust_8="13000.00000" pt_clust_9="65.62768"></scales>
<clustering>
<clus scale="   65.628">  1  9  2 -1</clus>
<clus scale="   95.362">  7  8 -1 -1</clus>
<clus scale="   96.234">  5  6 -1 -1</clus>
<clus scale="  177.674">  2  7  1 -1</clus>
<clus scale="   65.628">  1  5  2 -1</clus>
</clustering>
</event>
<event>
 9    1  0.5981539E-005  0.9206548E+02  0.7546771E-02  0.1303985E+00
         21   -1    0    0  501  502  0.00000000000E+00  0.00000000000E+00  0.52820889452E+02  0.52820889452E+02  0.00000000000E+00 0. -1.
          1   -1    0    0  502    0 -0.00000000000E+00 -0.00000000000E+00 -0.29811735831E+03  0.29811735831E+03  0.00000000000E+00 0. -1.
        -24    2    1    2    0    0  0.90683938470E+01 -0.72898750783E+01 -0.18131804301E+03  0.19947004948E+03  0.82320652784E+02 0.  0.
         23    2    1    2    0    0  0.23197694316E+02 -0.17322613656E+02 -0.48948004071E+02  0.10819247037E+03  0.92040738682E+02 0.  0.
         13    1    3    3    0    0  0.30515729007E+02 -0.30783910573E+02 -0.14425800292E+03  0.15062944690E+03  0.00000000000E+00 0. -1.
        -14    1    3    3    0    0 -0.21447335160E+02  0.23494035495E+02 -0.37060040088E+02  0.48840602582E+02  0.00000000000E+00 0.  1.
        -13    1    4    4    0    0 -0.24766174135E+02  0.19617307138E+02 -0.21386859081E+01  0.31666640145E+02  0.00000000000E+00 0.  1.
         13    1    4    4    0    0  0.47963868451E+02 -0.36939920794E+02 -0.46809318163E+02  0.76525830227E+02  0.00000000000E+00 0. -1.
          2    1    1    2  501    0 -0.32266088163E+02  0.24612488734E+02 -0.15030421779E+02  0.43275727907E+02  0.00000000000E+00 0. -1.
<scales pt_clust_5="13000.00000" pt_clust_6="13000.00000" pt_clust_7="13000.00000" pt_clust_8="13000.00000" pt_clust_9="40.58171"></scales>
<clustering>
<clus scale="   40.582">  1  9  2 -1</clus>
<clus scale="   82.321">  5  6 -1 -1</clus>
<clus scale="   82.348">  2  5  1 -1</clus>
<clus scale="   92.041">  7  8 -1 -1</clus>
<clus scale="   40.582">  1  5  2 -1</clus>
</clustering>
</event>
<event>
 9    1  0.5981539E-005  0.1106955E+03  0.7546771E-02  0.1262890E+00
          3   -1    0    0  502    0 -0.00000000000E+00  0.00000000000E+00  0.30717991262E+03  0.30717991262E+03  0.00000000000E+00 0. -1.
         21   -1    0    0  501  502  0.00000000000E+00 -0.00000000000E+00 -0.60984740280E+02  0.60984740280E+02  0.00000000000E+00 0. -1.
         23    2    1    2    0    0  0.47271331313E+02 -0.65140919540E+02  0.14842951337E+03  0.19084802661E+03  0.88959151634E+02 0.  0.
        -24    2    1    2    0    0 -0.54293470757E+02  0.16043099391E+02  0.73579856433E+02  0.12213638136E+03  0.79360811332E+02 0.  0.
         13    1    4    4    0    0 -0.15124728526E+02 -0.28561921947E+02  0.47134211172E+02  0.57150456351E+02  0.00000000000E+00 0. -1.
        -14    1    4    4    0    0 -0.39168742232E+02  0.44605021339E+02  0.26445645261E+02  0.64985925014E+02  0.00000000000E+00 0.  1.
        -11    1    3    3    0    0 -0.26668667268E+02 -0.19956194023E+02  0.40581304913E+02  0.52500569541E+02  0.00000000000E+00 0.  1.
         11    1    3    3    0    0  0.73939998581E+02 -0.45184725517E+02  0.10784820846E+03  0.13834745707E+03  0.00000000000E+00 0. -1.
          4    1    1    2  501    0  0.70221394439E+01  0.49097820149E+02  0.24185802542E+02  0.55180244928E+02  0.00000000000E+00 0. -1.
<scales pt_clust_5="13000.00000" pt_clust_6="13000.00000" pt_clust_7="13000.00000" pt_clust_8="13000.00000" pt_clust_9="49.59744"></scales>
<clustering>
<clus scale="   49.597">  2  9  1 -1</clus>
<clus scale="   79.361">  5  6 -1 -1</clus>
<clus scale="   88.959">  7  8 -1 -1</clus>
<clus scale="  103.140">  2  5  1 -1</clus>
<clus scale="   49.597">  2  5  1 -1</clus>
</clustering>
</event>
<event>
 9    1  0.5981539E-005  0.1161833E+03  0.7546771E-02  0.1264366E+00
         21   -1    0    0  501  502  0.00000000000E+00  0.00000000000E+00  0.18211390384E+03  0.18211390384E+03  0.00000000000E+00 0.  1.
         -2   -1    0    0    0  501 -0.00000000000E+00 -0.00000000000E+00 -0.38953841459E+03  0.38953841459E+03  0.00000000000E+00 0.  1.
         23    2    1    2    0    0  0.53855696758E+02  0.32439805498E+02 -0.29523679731E+03  0.32120981991E+03  0.10980985779E+03 0.  0.
        -24    2    1    2    0    0 -0.19812273793E+01  0.69866331370E+01 -0.53524923251E+02  0.94809560125E+02  0.77917886121E+02 0.  0.
         11    1    4    4    0    0 -0.35583046677E+02 -0.12928777632E+02 -0.17636756601E+02  0.41765556206E+02  0.00000000000E+00 0. -1.
        -12    1    4    4    0    0  0.33601819297E+02  0.19915410769E+02 -0.35888166651E+02  0.53044003919E+02  0.00000000000E+00 0.  1.
        -11    1    3    3    0    0 -0.15441304399E+02  0.21464818725E+02 -0.11338301884E+02  0.28770287000E+02  0.00000000000E+00 0. -1.
         11    1    3    3    0    0  0.69297001157E+02  0.10974986774E+02 -0.28389849542E+03  0.29243953291E+03  0.00000000000E+00 0.  1.
         -1    1    1    2    0  502 -0.51874469378E+02 -0.39426438635E+02  0.14133720981E+03  0.15563293840E+03  0.00000000000E+00 0.  1.
<scales pt_clust_5="13000.00000" pt_clust_6="13000.00000" pt_clust_7="13000.00000" pt_clust_8="13000.00000" pt_clust_9="65.15677"></scales>
<clustering>
<clus scale="   65.157">  1  9  2 -1</clus>
<clus scale="   77.918">  5  6 -1 -1</clus>
<clus scale="   86.669">  1  5  2 -1</clus>
<clus scale="  109.810">  7  8 -1 -1</clus>
<clus scale="   65.157">  1  5  2 -1</clus>
</clustering>
</event>
<event>
 9    1  0.5981539E-005  0.9935720E+02  0.7546771E-02  0.1287358E+00
          1   -1    0    0  502    0 -0.00000000000E+00  0.00000000000E+00  0.76847766065E+02  0.76847766065E+02  0.00000000000E+00 0. -1.
         21   -1    0    0  501  502  0.00000000000E+00 -0.00000000000E+00 -0.18312203465E+03  0.18312203465E+03  0.00000000000E+00 0. -1.
        -24    2    1    2    0    0  0.43965501828E+02 -0.39548446335E+01 -0.98983961671E+01  0.92460794605E+02  0.80637547986E+02 0.  0.
         23    2    1    2    0    0 -0.20895420057E+02  0.21311388495E+02 -0.99351590880E+02  0.13848602922E+03  0.91743380245E+02 0.  0.
         11    1    3    3    0    0 -0.10694160734E+02  0.26190132530E+02  0.38310791778E+01  0.28547596806E+02  0.00000000000E+00 0. -1.
        -12    1    3    3    0    0  0.54659662561E+02 -0.30144977164E+02 -0.13729475345E+02  0.63913197798E+02  0.00000000000E+00 0.  1.
        -13    1    4    4    0    0 -0.34654106500E+02  0.49422829150E+02 -0.84495509540E+02  0.10384129367E+03  0.00000000000E+00 0.  1.
         13    1    4    4    0    0  0.13758686443E+02 -0.28111440655E+02 -0.14856081340E+02  0.34644735547E+02  0.00000000000E+00 0. -1.
          2    1    1    2  501    0 -0.23070081771E+02 -0.17356543861E+02  0.29757184571E+01  0.29022976899E+02  0.00000000000E+00 0. -1.
<scales pt_clust_5="13000.00000" pt_clust_6="13000.00000" pt_clust_7="13000.00000" pt_clust_8="13000.00000" pt_clust_9="28.87004"></scales>
<clustering>
<clus scale="   28.870">  2  9  1 -1</clus>
<clus scale="   80.638">  5  6 -1 -1</clus>
<clus scale="   89.204">  1  5  2 -1</clus>
<clus scale="   91.743">  7  8 -1 -1</clus>
<clus scale="   28.870">  2  5  1 -1</clus>
</clustering>
</event>
<event>
 9    1  0.5981539E-005  0.1055174E+03  0.7546771E-02  0.1269476E+00
          1   -1    0    0  502    0 -0.00000000000E+00  0.00000000000E+00  0.48409770487E+03  0.48409770487E+03  0.00000000000E+00 0. -1.
         21   -1    0    0  501  502  0.00000000000E+00 -0.00000000000E+00 -0.63183715043E+02  0.63183715043E+02  0.00000000000E+00 0.  1.
         23    2    1    2    0    0 -0.39657479106E+02 -0.51185621146E+02  0.34708796440E+03  0.36262547155E+03  0.82670999294E+02 0.  0.
        -24    2    1    2    0    0  0.27974655489E+01  0.73505860551E+02  0.15971388669E+02  0.11251710528E+03  0.83630594738E+02 0.  0.
         11    1    4    4    0    0 -0.16156459311E+02  0.47774983674E+02  0.46296823338E+02  0.68460763170E+02  0.00000000000E+00 0. -1.
        -12    1    4    4    0    0  0.18953924860E+02  0.25730876877E+02 -0.30325434670E+02  0.44056342113E+02  0.00000000000E+00 0.  1.
        -11    1    3    3    0    0  0.96470258315E+01 -0.53944478402E+02  0.20512822734E+03  0.21232207023E+03  0.00000000000E+00 0.  1.
         11    1    3    3    0    0 -0.49304504938E+02  0.27588572560E+01  0.14195973706E+03  0.15030340131E+03  0.00000000000E+00 0. -1.
          2    1    1    2  501    0  0.36860013557E+02 -0.22320239405E+02  0.57854636759E+02  0.72138843081E+02  0.00000000000E+00 0. -1.
<scales pt_clust_5="13000.00000" pt_clust_6="13000.00000" pt_clust_7="13000.00000" pt_clust_8="13000.00000" pt_clust_9="43.09125"></scales>
<clustering>
<clus scale="   43.091">  2  9  1 -1</clus>
<clus scale="   82.671">  7  8 -1 -1</clus>
<clus scale="   83.631">  5  6 -1 -1</clus>
<clus scale="  104.758">  1  7  2 -1</clus>
<clus scale="   43.091">  2  5  1 -1</clus>
</clustering>
</event>
<event>
 9    1  0.5981539E-005  0.1885767E+03  0.7546771E-02  0.1193713E+00
         -2   -1    0    0    0  501 -0.00000000000E+00  0.00000000000E+00  0.66234702241E+03  0.66234702241E+03  0.00000000000E+00 0.  1.
         21   -1    0    0  501  502  0.00000000000E+00 -0.00000000000E+00 -0.78719998646E+02  0.78719998646E+02  0.00000000000E+00 0.  1.
        -24    2    1    2    0    0  0.34463855585E+02 -0.13874128002E+02  0.16030986626E+03  0.18263211970E+03  0.79214829143E+02 0.  0.
         23    2    1    2    0    0  0.32504021880E+01 -0.15784197443E+03  0.16635771196E+03  0.24708792172E+03  0.91939647196E+02 0.  0.
         11    1    3    3    0    0  0.20578288336E+01  0.29270626160E+02  0.31885538691E+02  0.43332341189E+02  0.00000000000E+00 0. -1.
        -12    1    3    3    0    0  0.32406026752E+02 -0.43144754162E+02  0.12842432757E+03  0.13929977851E+03  0.00000000000E+00 0.  1.
        -11    1    4    4    0    0 -0.36516042519E+02 -0.97383892551E+02  0.65343401397E+02  0.12282835176E+03  0.00000000000E+00 0.  1.
         11    1    4    4    0    0  0.39766444707E+02 -0.60458081877E+02  0.10101431056E+03  0.12425956996E+03  0.00000000000E+00 0. -1.
         -1    1    1    2    0  502 -0.37714257773E+02  0.17171610243E+03  0.25695944555E+03  0.31134697964E+03  0.00000000000E+00 0.  1.
<scales pt_clust_5="13000.00000" pt_clust_6="13000.00000" pt_clust_7="13000.00000" pt_clust_8="13000.00000" pt_clust_9="164.64600"></scales>
<clustering>
<clus scale="   79.215">  5  6 -1 -1</clus>
<clus scale="   87.494">  1  5  2 -1</clus>
<clus scale="   91.940">  7  8 -1 -1</clus>
<clus scale="  164.646">  2  9  1 -1</clus>
<clus scale="  164.646">  2  5  1 -1</clus>
</clustering>
</event>
<event>
 9    1  0.5981539E-005  0.1247646E+03  0.7546771E-02  0.1235705E+00
         21   -1    0    0  501  502  0.00000000000E+00  0.00000000000E+00  0.21370730688E+03  0.21370730688E+03  0.00000000000E+00 0. -1.
          3   -1    0    0  502    0 -0.00000000000E+00 -0.00000000000E+00 -0.22079951256E+03  0.22079951256E+03  0.00000000000E+00 0. -1.
        -24    2    1    2    0    0  0.60131995273E+02 -0.70944630106E+02 -0.16168484101E+03  0.20284862673E+03  0.79728164142E+02 0.  0.
         23    2    1    2    0    0 -0.70834113946E+02  0.91113677000E+02  0.97954484950E+02  0.17059096849E+03  0.78657635189E+02 0.  0.
         13    1    3    3    0    0  0.70719701952E+02 -0.69076706466E+02 -0.10140918884E+03  0.14162164806E+03  0.00000000000E+00 0. -1.
        -14    1    3    3    0    0 -0.10587706679E+02 -0.18679236397E+01 -0.60275652171E+02  0.61226978662E+02  0.00000000000E+00 0.  1.
        -13    1    4    4    0    0 -0.43208539709E+02  0.39192430535E+02  0.95276624586E+02  0.11171687298E+03  0.00000000000E+00 0.  1.
         13    1    4    4    0    0 -0.27625574237E+02  0.51921246465E+02  0.26778603636E+01  0.58874095513E+02  0.00000000000E+00 0. -1.
          4    1    1    2  501    0  0.10702118673E+02 -0.20169046894E+02  0.56638150374E+02  0.61067224225E+02  0.00000000000E+00 0. -1.
<scales pt_clust_5="13000.00000" pt_clust_6="13000.00000" pt_clust_7="13000.00000" pt_clust_8="13000.00000" pt_clust_9="22.83256"></scales>
<clustering>
<clus scale="   22.833">  1  9  2 -1</clus>
<clus scale="   78.658">  7  8 -1 -1</clus>
<clus scale="   79.728">  5  6 -1 -1</clus>
<clus scale="  124.083">  1  7  2 -1</clus>
<clus scale="   22.833">  1  5  2 -1</clus>
</clustering>
</event>
<event>
 9    1  0.5981539E-005  0.1186410E+03  0.7546771E-02  0.1267991E+00
          1   -1    0    0  502    0 -0.00000000000E+00  0.00000000000E+00  0.87603856545E+03  0.87603856545E+03  0.00000000000E+00 0. -1.
         21   -1    0    0  501  502  0.00000000000E+00 -0.00000000000E+00 -0.33077316612E+02  0.33077316612E+02  0.00000000000E+00 0. -1.
        -24    2    1    2    0    0  0.52623041756E+00 -0.48683512570E+01  0.16597465151E+03  0.18248523783E+03  0.75692135137E+02 0.  0.
         23    2    1    2    0    0 -0.67868669942E+02  0.75061514498E+02  0.56686571255E+03  0.57969972988E+03  0.66892850435E+02 0.  0.
         13    1    3    3    0    0 -0.18395133643E+02  0.27610010527E+02  0.45692727952E+02  0.56466972743E+02  0.00000000000E+00 0. -1.
        -14    1    3    3    0    0  0.18921364060E+02 -0.32478361784E+02  0.12028192356E+03  0.12601826509E+03  0.00000000000E+00 0.  1.
        -13    1    4    4    0    0 -0.19753423265E+02  0.69553214662E+02  0.31138313150E+03  0.31966748659E+03  0.00000000000E+00 0.  1.
         13    1    4    4    0    0 -0.48115246677E+02  0.55082998356E+01  0.25548258105E+03  0.26003224329E+03  0.00000000000E+00 0. -1.
          2    1    1    2  501    0  0.67342439524E+02 -0.70193163241E+02  0.11012088478E+03  0.14693091435E+03  0.00000000000E+00 0. -1.
<scales pt_clust_5="13000.00000" pt_clust_6="13000.00000" pt_clust_7="13000.00000" pt_clust_8="13000.00000" pt_clust_9="97.98486"></scales>
<clustering>
<clus scale="   66.893">  7  8 -1 -1</clus>
<clus scale="   75.692">  5  6 -1 -1</clus>
<clus scale="   75.850">  1  5  2 -1</clus>
<clus scale="   97.985">  2  9  1 -1</clus>
<clus scale="   97.985">  2  5  1 -1</clus>
</clustering>
</event>
<event>
 9    1  0.5981539E-005  0.1013686E+03  0.7546771E-02  0.1278388E+00
         21   -1    0    0  501  502  0.00000000000E+00  0.00000000000E+00  0.22926088666E+03  0.22926088666E+03  0.00000000000E+00 0. -1.
          1   -1    0    0  502    0 -0.00000000000E+00 -0.00000000000E+00 -0.17831210269E+03  0.17831210269E+03  0.00000000000E+00 0. -1.
         23    2    1    2    0    0 -0.72644417420E+01 -0.57166498937E+02 -0.61879844343E+02  0.12264053625E+03  0.88830204775E+02 0.  0.
        -24    2    1    2    0    0 -0.43767891725E+02  0.33296844525E+02 -0.48832249197E+02  0.11373578615E+03  0.86757894670E+02 0.  0.
         13    1    4    4    0    0 -0.16014320211E+02  0.57327624050E+02 -0.48885678177E+02  0.77024181021E+02  0.00000000000E+00 0. -1.
        -14    1    4    4    0    0 -0.27753571514E+02 -0.24030779525E+02  0.53428979947E-01  0.36711605127E+02  0.00000000000E+00 0.  1.
        -11    1    3    3    0    0 -0.37081135645E+02 -0.87336558201E+01 -0.52702871743E+02  0.65029839724E+02  0.00000000000E+00 0.  1.
         11    1    3    3    0    0  0.29816693903E+02 -0.48432843117E+02 -0.91769726007E+01  0.57610696522E+02  0.00000000000E+00 0. -1.
          2    1    1    2  501    0  0.51032333467E+02  0.23869654411E+02  0.16166087750E+03  0.17119666695E+03  0.00000000000E+00 0. -1.
<scales pt_clust_5="13000.00000" pt_clust_6="13000.00000" pt_clust_7="13000.00000" pt_clust_8="13000.00000" pt_clust_9="56.33879"></scales>
<clustering>
<clus scale="   56.339">  1  9  2 -1</clus>
<clus scale="   86.758">  5  6 -1 -1</clus>
<clus scale="   88.830">  7  8 -1 -1</clus>
<clus scale="   99.558">  1  5  2 -1</clus>
<clus scale="   56.339">  1  5  2 -1</clus>
</clustering>
</event>
<event>
 9    1  0.5981539E-005  0.1320238E+03  0.7546771E-02  0.1241313E+00
         21   -1    0    0  501  502  0.00000000000E+00  0.00000000000E+00  0.60722415983E+02  0.60722415983E+02  0.00000000000E+00 0. -1.
          1   -1    0    0  502    0 -0.00000000000E+00 -0.00000000000E+00 -0.59134700803E+03  0.59134700803E+03  0.00000000000E+00 0. -1.
         23    2    1    2    0    0  0.17011922675E+02  0.23789810421E+01 -0.43249101820E+02  0.10294659845E+03  0.91828384829E+02 0.  0.
        -24    2    1    2    0    0 -0.78167731877E+01  0.10257404335E+03 -0.36449765727E+03  0.38726285542E+03  0.80817329320E+02 0.  0.
         11    1    4    4    0    0  0.33257451183E+01  0.56959991212E+02 -0.31052639964E+03  0.31572479480E+03  0.00000000000E+00 0. -1.
        -12    1    4    4    0    0 -0.11142518306E+02  0.45614052137E+02 -0.53971257636E+02  0.71538060620E+02  0.00000000000E+00 0.  1.
        -11    1    3    3    0    0  0.44615857479E+02  0.26875924375E+02 -0.95179386890E+01  0.52947910313E+02  0.00000000000E+00 0. -1.
         11    1    3    3    0    0 -0.27603934804E+02 -0.24496943333E+02 -0.33731163131E+02  0.49998688137E+02  0.00000000000E+00 0.  1.
          2    1    1    2  501    0 -0.91951494877E+01 -0.10495302439E+03 -0.12287783296E+03  0.16185997014E+03  0.00000000000E+00 0. -1.
<scales pt_clust_5="13000.00000" pt_clust_6="13000.00000" pt_clust_7="13000.00000" pt_clust_8="13000.00000" pt_clust_9="104.39746"></scales>
<clustering>
<clus scale="   80.817">  5  6 -1 -1</clus>
<clus scale="   91.828">  7  8 -1 -1</clus>
<clus scale="   93.421">  2  7  1 -1</clus>
<clus scale="  104.397">  1  9  2 -1</clus>
<clus scale="  104.397">  1  5  2 -1</clus>
</clustering>
</event>
<event>
 9    1  0.5981539E-005  0.1137275E+03  0.7546771E-02  0.1256467E+00
         -2   -1    0    0    0  501 -0.00000000000E+00  0.00000000000E+00  0.25697305622E+03  0.25697305622E+03  0.00000000000E+00 0.  1.
         21   -1    0    0  501  502  0.00000000000E+00 -0.00000000000E+00 -0.21513389323E+03  0.21513389323E+03  0.00000000000E+00 0.  1.
         23    2    1    2    0    0 -0.51538948842E+02  0.52543217864E+02  0.17183520300E+03  0.20871992212E+03  0.92841886601E+02 0.  0.
        -24    2    1    2    0    0 -0.54365496170E+02 -0.63386584931E+02 -0.89925742549E+02  0.14963748306E+03  0.85622840653E+02 0.  0.
         13    1    4    4    0    0 -0.22307866703E+02 -0.10353981778E+02 -0.83837357346E+02  0.87370179937E+02  0.00000000000E+00 0. -1.
        -14    1    4    4    0    0 -0.32057629467E+02 -0.53032603153E+02 -0.60883852027E+01  0.62267303126E+02  0.00000000000E+00 0.  1.
        -11    1    3    3    0    0 -0.35461898288E+02  0.77222939222E+02  0.14869320660E+03  0.17126178284E+03  0.00000000000E+00 0.  1.
         11    1    3    3    0    0 -0.16077050553E+02 -0.24679721358E+02  0.23141996397E+02  0.37458139276E+02  0.00000000000E+00 0. -1.
         -1    1    1    2    0  502  0.10590444501E+03  0.10843367067E+02 -0.40070297464E+02  0.11374954427E+03  0.00000000000E+00 0.  1.
<scales pt_clust_5="13000.00000" pt_clust_6="13000.00000" pt_clust_7="13000.00000" pt_clust_8="13000.00000" pt_clust_9="106.45811"></scales>
<clustering>
<clus scale="   85.623">  5  6 -1 -1</clus>
<clus scale="   92.842">  7  8 -1 -1</clus>
<clus scale="  106.458">  2  9  1 -1</clus>
<clus scale="  107.915">  2  5  1 -1</clus>
<clus scale="  106.458">  2  5  1 -1</clus>
</clustering>
</event>
<event>
 9    1  0.9616663E-005  0.1185965E+03  0.7546771E-02  0.1250006E+00
         21   -1    0    0  501  502  0.00000000000E+00  0.00000000000E+00  0.37398200160E+03  0.37398200160E+03  0.00000000000E+00 0.  1.
          1   -1    0    0  502    0 -0.00000000000E+00 -0.00000000000E+00 -0.41635120080E+03  0.41635120080E+03  0.00000000000E+00 0. -1.
         23    2    1    2    0    0 -0.32668125458E+02  0.70185803720E+02  0.22497029907E+02  0.12060581790E+03  0.89701691693E+02 0.  0.
        -24    2    1    2    0    0 -0.14926137848E+02 -0.89660581009E+02  0.28896903777E+03  0.31217476328E+03  0.75419948683E+02 0.  0.
         13    1    4    4    0    0  0.25252365379E+02 -0.54288136058E+02  0.10837914682E+03  0.12381810505E+03  0.00000000000E+00 0. -1.
        -14    1    4    4    0    0 -0.40178503227E+02 -0.35372444952E+02  0.18058989095E+03  0.18835665822E+03  0.00000000000E+00 0.  1.
        -11    1    3    3    0    0  0.18881949213E+02  0.59818164002E+02 -0.16385017185E+01  0.62748907868E+02  0.00000000000E+00 0.  1.
         11    1    3    3    0    0 -0.51550074671E+02  0.10367639717E+02  0.24135531626E+02  0.57856910035E+02  0.00000000000E+00 0. -1.
          2    1    1    2  501    0  0.47594263307E+02  0.19474777290E+02 -0.35383526688E+03  0.35755262122E+03  0.00000000000E+00 0. -1.
<scales pt_clust_5="13000.00000" pt_clust_6="13000.00000" pt_clust_7="13000.00000" pt_clust_8="13000.00000" pt_clust_9="51.42454"></scales>
<clustering>
<clus scale="   51.425">  1  9  2 -1</clus>
<clus scale="   75.420">  5  6 -1 -1</clus>
<clus scale="   89.702">  7  8 -1 -1</clus>
<clus scale="  108.198">  1  5  2 -1</clus>
<clus scale="   51.425">  1  5  2 -1</clus>
</clustering>
</event>
<event>
 9    1  0.5981539E-005  0.1595630E+03  0.7546771E-02  0.1210000E+00
          1   -1    0    0  502    0 -0.00000000000E+00  0.00000000000E+00  0.11671766914E+04  0.11671766914E+04  0.00000000000E+00 0. -1.
         21   -1    0    0  501  502  0.00000000000E+00 -0.00000000000E+00 -0.66112938908E+02  0.66112938908E+02  0.00000000000E+00 0. -1.
         23    2    1    2    0    0 -0.42735349340E+02  0.42663144712E+02  0.85476618639E+02  0.13270355322E+03  0.81593668277E+02 0.  0.
        -24    2    1    2    0    0  0.94334388353E+02 -0.16278051781E+03  0.90957822804E+03  0.93227525671E+03  0.80050780991E+02 0.  0.
         13    1    4    4    0    0  0.92208641512E+02 -0.17188273892E+03  0.87248197141E+03  0.89401951877E+03  0.00000000000E+00 0. -1.
        -14    1    4    4    0    0  0.21257468410E+01  0.91022211167E+01  0.37096256630E+02  0.38255737933E+02  0.00000000000E+00 0.  1.
        -13    1    3    3    0    0 -0.13787755350E+02  0.62816198406E+02  0.67056310609E+02  0.92911386667E+02  0.00000000000E+00 0.  1.
         13    1    3    3    0    0 -0.28947593989E+02 -0.20153053694E+02  0.18420308030E+02  0.39792166551E+02  0.00000000000E+00 0. -1.
          2    1    1    2  501    0 -0.51599039014E+02  0.12011737309E+03  0.10600890580E+03  0.16831082038E+03  0.00000000000E+00 0. -1.
<scales pt_clust_5="13000.00000" pt_clust_6="13000.00000" pt_clust_7="13000.00000" pt_clust_8="13000.00000" pt_clust_9="138.02976"></scales>
<clustering>
<clus scale="   80.051">  5  6 -1 -1</clus>
<clus scale="   81.594">  7  8 -1 -1</clus>
<clus scale="  101.509">  1  7  2 -1</clus>
<clus scale="  138.030">  2  9  1 -1</clus>
<clus scale="  138.030">  2  5  1 -1</clus>
</clustering>
</event>
<event>
 9    1  0.5981539E-005  0.9468748E+02  0.7546771E-02  0.1296977E+00
         21   -1    0    0  501  502  0.00000000000E+00  0.00000000000E+00  0.63823635721E+02  0.63823635721E+02  0.00000000000E+00 0. -1.
         -4   -1    0    0    0  501 -0.00000000000E+00 -0.00000000000E+00 -0.26106952985E+03  0.26106952985E+03  0.00000000000E+00 0.  1.
        -24    2    1    2    0    0 -0.11675858442E+02 -0.35958728851E+02 -0.18550080888E+03  0.20531035058E+03  0.79450828239E+02 0.  0.
         23    2    1    2    0    0  0.12347234921E+02  0.14039032479E+02 -0.24953361328E+02  0.93982377648E+02  0.88659282783E+02 0.  0.
         13    1    3    3    0    0  0.48437779143E+00 -0.25571374082E+02 -0.75847149360E+01  0.26676913145E+02  0.00000000000E+00 0. -1.
        -14    1    3    3    0    0 -0.12160236233E+02 -0.10387354769E+02 -0.17791609395E+03  0.17863343744E+03  0.00000000000E+00 0.  1.
        -13    1    4    4    0    0 -0.16618033891E+02  0.45122294972E+02 -0.11909198900E+02  0.49537960923E+02  0.00000000000E+00 0. -1.
         13    1    4    4    0    0  0.28965268812E+02 -0.31083262493E+02 -0.13044162428E+02  0.44444416725E+02  0.00000000000E+00 0.  1.
         -3    1    1    2    0  502 -0.67137647973E+00  0.21919696372E+02  0.13208276078E+02  0.25600437347E+02  0.00000000000E+00 0.  1.
<scales pt_clust_5="13000.00000" pt_clust_6="13000.00000" pt_clust_7="13000.00000" pt_clust_8="13000.00000" pt_clust_9="21.92998"></scales>
<clustering>
<clus scale="   21.930">  1  9  2 -1</clus>
<clus scale="   79.451">  5  6 -1 -1</clus>
<clus scale="   86.126">  2  5  1 -1</clus>
<clus scale="   88.659">  7  8 -1 -1</clus>
<clus scale="   21.930">  1  5  2 -1</clus>
</clustering>
</event>
<event>
 9    1  0.5981539E-005  0.2065617E+03  0.7546771E-02  0.1182901E+00
          1   -1    0    0  502    0 -0.00000000000E+00  0.00000000000E+00  0.70979907030E+03  0.70979907030E+03  0.00000000000E+00 0. -1.
         21   -1    0    0  501  502  0.00000000000E+00 -0.00000000000E+00 -0.90413990244E+02  0.90413990244E+02  0.00000000000E+00 0. -1.
        -24    2    1    2    0    0 -0.87365500053E+01  0.18104484646E+02  0.18572005513E+03  0.20407941114E+03  0.82172790531E+02 0.  0.
         23    2    1    2    0    0  0.17400039589E+03  0.66770421330E+02  0.31044366921E+03  0.37320004735E+03  0.90380178424E+02 0.  0.
         11    1    3    3    0    0 -0.35304210771E+02  0.25821551018E+02  0.54033166177E+02  0.69517787956E+02  0.00000000000E+00 0. -1.
        -12    1    3    3    0    0  0.26567660766E+02 -0.77170663714E+01  0.13168688895E+03  0.13456162318E+03  0.00000000000E+00 0.  1.
        -11    1    4    4    0    0  0.97310855415E+02 -0.84368057783E+01  0.17410665186E+03  0.19963393623E+03  0.00000000000E+00 0.  1.
         11    1    4    4    0    0  0.76689540476E+02  0.75207227108E+02  0.13633701735E+03  0.17356611112E+03  0.00000000000E+00 0. -1.
          2    1    1    2  501    0 -0.16526384589E+03 -0.84874905976E+02  0.12322135571E+03  0.22293360205E+03  0.00000000000E+00 0. -1.
<scales pt_clust_5="13000.00000" pt_clust_6="13000.00000" pt_clust_7="13000.00000" pt_clust_8="13000.00000" pt_clust_9="185.73953"></scales>
<clustering>
<clus scale="   82.173">  5  6 -1 -1</clus>
<clus scale="   84.596">  1  5  2 -1</clus>
<clus scale="   90.380">  7  8 -1 -1</clus>
<clus scale="  185.740">  2  9  1 -1</clus>
<clus scale="  185.740">  2  5  1 -1</clus>
</clustering>
</event>
<event>
 9    1  0.5981539E-005  0.5180936E+03  0.7546771E-02  0.1009161E+00
          1   -1    0    0  502    0 -0.00000000000E+00  0.00000000000E+00  0.10797102720E+04  0.10797102720E+04  0.00000000000E+00 0. -1.
         21   -1    0    0  501  502  0.00000000000E+00 -0.00000000000E+00 -0.22415656712E+03  0.22415656712E+03  0.00000000000E+00 0. -1.
        -24    2    1    2    0    0  0.56155129612E+02 -0.25062543526E+02  0.67369250871E+02  0.12259674788E+03  0.81913472379E+02 0.  0.
         23    2    1    2    0    0  0.37640121801E+03 -0.13899944288E+03  0.43690670742E+03  0.60039369779E+03  0.92662825936E+02 0.  0.
         11    1    3    3    0    0  0.18564710764E+02 -0.44475381204E+02  0.64053840448E+02  0.80159855882E+02  0.00000000000E+00 0. -1.
        -12    1    3    3    0    0  0.37590418848E+02  0.19412837678E+02  0.33154104232E+01  0.42436891994E+02  0.00000000000E+00 0.  1.
        -11    1    4    4    0    0  0.35584870891E+03 -0.12091997118E+03  0.43196843071E+03  0.57257896241E+03  0.00000000000E+00 0. -1.
         11    1    4    4    0    0  0.20552509096E+02 -0.18079471694E+02  0.49382767079E+01  0.27814735371E+02  0.00000000000E+00 0.  1.
          2    1    1    2  501    0 -0.43255634762E+03  0.16406198641E+03  0.35127774663E+03  0.58087639350E+03  0.00000000000E+00 0. -1.
<scales pt_clust_5="13000.00000" pt_clust_6="13000.00000" pt_clust_7="13000.00000" pt_clust_8="13000.00000" pt_clust_9="462.62439"></scales>
<clustering>
<clus scale="   81.913">  5  6 -1 -1</clus>
<clus scale="   92.663">  7  8 -1 -1</clus>
<clus scale="   96.324">  5  7 -1 -1</clus>
<clus scale="  462.624">  2  9  1 -1</clus>
<clus scale="  462.624">  2  5  1 -1</clus>
</clustering>
</event>
<event>
 9    1  0.5981539E-005  0.1175728E+03  0.7546771E-02  0.1250327E+00
         21   -1    0    0  501  502  0.00000000000E+00  0.00000000000E+00  0.22661208469E+03  0.22661208469E+03  0.00000000000E+00 0.  1.
         -4   -1    0    0    0  501 -0.00000000000E+00 -0.00000000000E+00 -0.33068554399E+03  0.33068554399E+03  0.00000000000E+00 0.  1.
         23    2    1    2    0    0  0.36301423660E+02  0.75246885327E+02 -0.27680681796E+03  0.30192533839E+03  0.86931055343E+02 0.  0.
        -24    2    1    2    0    0  0.13407543563E+02 -0.65365868478E+02  0.33433014022E+02  0.10713868434E+03  0.76866587465E+02 0.  0.
         11    1    4    4    0    0 -0.97039841177E+01 -0.70928041594E+02  0.75339324843E+01  0.71984126936E+02  0.00000000000E+00 0. -1.
        -12    1    4    4    0    0  0.23111527680E+02  0.55621731158E+01  0.25899081538E+02  0.35154557400E+02  0.00000000000E+00 0.  1.
        -11    1    3    3    0    0  0.29571709362E+02  0.40524500765E+01 -0.17491187715E+03  0.17744033678E+03  0.00000000000E+00 0.  1.
         11    1    3    3    0    0  0.67297142978E+01  0.71194435251E+02 -0.10189494081E+03  0.12448500161E+03  0.00000000000E+00 0. -1.
         -3    1    1    2    0  502 -0.49708967223E+02 -0.98810168492E+01  0.13930034464E+03  0.14823360595E+03  0.00000000000E+00 0.  1.
<scales pt_clust_5="13000.00000" pt_clust_6="13000.00000" pt_clust_7="13000.00000" pt_clust_8="13000.00000" pt_clust_9="50.68151"></scales>
<clustering>
<clus scale="   50.682">  1  9  2 -1</clus>
<clus scale="   76.867">  5  6 -1 -1</clus>
<clus scale="   86.931">  7  8 -1 -1</clus>
<clus scale="  110.340">  1  5  2 -1</clus>
<clus scale="   50.682">  1  5  2 -1</clus>
</clustering>
</event>
<event>
 9    1  0.5981539E-005  0.9372184E+02  0.7546771E-02  0.1300434E+00
         21   -1    0    0  501  502  0.00000000000E+00  0.00000000000E+00  0.10366850106E+03  0.10366850106E+03  0.00000000000E+00 0.  1.
          3   -1    0    0  502    0 -0.00000000000E+00 -0.00000000000E+00 -0.18298725605E+03  0.18298725605E+03  0.00000000000E+00 0. -1.
        -24    2    1    2    0    0  0.76869815347E+00 -0.27163125857E+02 -0.11235471563E+03  0.14083868185E+03  0.80458224436E+02 0.  0.
         23    2    1    2    0    0 -0.84959538598E-01 -0.87998307006E+01  0.51806883129E+02  0.10524431007E+03  0.91186443205E+02 0.  0.
         13    1    3    3    0    0  0.39757122451E+02 -0.52330884826E+01 -0.56358797500E+02  0.69168837320E+02  0.00000000000E+00 0. -1.
        -14    1    3    3    0    0 -0.38988424298E+02 -0.21930037374E+02 -0.55995918127E+02  0.71669844533E+02  0.00000000000E+00 0.  1.
        -13    1    4    4    0    0  0.42458422302E+02 -0.12045758296E+02  0.43119643454E+02  0.61701876543E+02  0.00000000000E+00 0.  1.
         13    1    4    4    0    0 -0.42543381841E+02  0.32459275950E+01  0.86872396747E+01  0.43542433528E+02  0.00000000000E+00 0. -1.
          4    1    1    2  501    0 -0.68373861487E+00  0.35962956557E+02 -0.18770922492E+02  0.40572765176E+02  0.00000000000E+00 0. -1.
<scales pt_clust_5="13000.00000" pt_clust_6="13000.00000" pt_clust_7="13000.00000" pt_clust_8="13000.00000" pt_clust_9="35.96947"></scales>
<clustering>
<clus scale="   35.969">  1  9  2 -1</clus>
<clus scale="   80.458">  5  6 -1 -1</clus>
<clus scale="   83.321">  2  5  1 -1</clus>
<clus scale="   91.186">  7  8 -1 -1</clus>
<clus scale="   35.969">  1  5  2 -1</clus>
</clustering>
</event>
<event>
 9    1  0.5981539E-005  0.1060095E+03  0.7546771E-02  0.1271805E+00
         21   -1    0    0  501  502  0.00000000000E+00  0.00000000000E+00  0.16499548332E+03  0.16499548332E+03  0.00000000000E+00 0. -1.
          1   -1    0    0  502    0 -0.00000000000E+00 -0.00000000000E+00 -0.58357394060E+03  0.58357394060E+03  0.00000000000E+00 0. -1.
        -24    2    1    2    0    0  0.36308150864E+02 -0.60041137015E+02 -0.45658745409E+03  0.46933937203E+03  0.82970614979E+02 0.  0.
         23    2    1    2    0    0  0.45652417660E+02  0.83805206388E+01 -0.77430877472E+02  0.12852265774E+03  0.91477627877E+02 0.  0.
         11    1    3    3    0    0  0.58061778981E+02 -0.45030451496E+02 -0.40235886824E+03  0.40901292228E+03  0.00000000000E+00 0. -1.
        -12    1    3    3    0    0 -0.21753628117E+02 -0.15010685519E+02 -0.54228585854E+02  0.60326449752E+02  0.00000000000E+00 0.  1.
        -11    1    4    4    0    0  0.52948462579E+02  0.42214246408E+02 -0.55431856981E+02  0.87511559566E+02  0.00000000000E+00 0.  1.
         11    1    4    4    0    0 -0.72960449191E+01 -0.33833725769E+02 -0.21999020490E+02  0.41011098174E+02  0.00000000000E+00 0. -1.
          2    1    1    2  501    0 -0.81960568524E+02  0.51660616376E+02  0.11543987429E+03  0.15070739415E+03  0.00000000000E+00 0. -1.
<scales pt_clust_5="13000.00000" pt_clust_6="13000.00000" pt_clust_7="13000.00000" pt_clust_8="13000.00000" pt_clust_9="96.88320"></scales>
<clustering>
<clus scale="   82.971">  5  6 -1 -1</clus>
<clus scale="   91.478">  7  8 -1 -1</clus>
<clus scale="   96.883">  1  9  2 -1</clus>
<clus scale="   98.762">  2  5  1 -1</clus>
<clus scale="   96.883">  1  5  2 -1</clus>
</clustering>
</event>
<event>
 9    1  0.5981539E-005  0.1302219E+03  0.7546771E-02  0.1230106E+00
         -2   -1    0    0    0  501 -0.00000000000E+00  0.00000000000E+00  0.55040779383E+03  0.55040779383E+03  0.00000000000E+00 0.  1.
         21   -1    0    0  501  502  0.00000000000E+00 -0.00000000000E+00 -0.14556992693E+03  0.14556992693E+03  0.00000000000E+00 0.  1.
         23    2    1    2    0    0  0.35218751452E+02  0.85222884431E+02  0.41925687417E+03  0.43903617393E+03  0.92049633329E+02 0.  0.
        -24    2    1    2    0    0 -0.29097770099E+01 -0.96525110224E+02  0.84967752251E+02  0.15182571499E+03  0.80659562994E+02 0.  0.
         11    1    4    4    0    0 -0.23658059160E+02 -0.10036596262E+03  0.60653974383E+02  0.11963249903E+03  0.00000000000E+00 0. -1.
        -12    1    4    4    0    0  0.20748282150E+02  0.38408523966E+01  0.24313777868E+02  0.32193215955E+02  0.00000000000E+00 0.  1.
        -13    1    3    3    0    0 -0.66104895234E+01  0.83118454460E+02  0.33108050056E+03  0.34141861972E+03  0.00000000000E+00 0.  1.
         13    1    3    3    0    0  0.41829240976E+02  0.21044299707E+01  0.88176373609E+02  0.97617554205E+02  0.00000000000E+00 0. -1.
         -1    1    1    2    0  502 -0.32308974442E+02  0.11302225793E+02 -0.99386759517E+02  0.10511583185E+03  0.00000000000E+00 0.  1.
<scales pt_clust_5="13000.00000" pt_clust_6="13000.00000" pt_clust_7="13000.00000" pt_clust_8="13000.00000" pt_clust_9="34.22879"></scales>
<clustering>
<clus scale="   34.229">  2  9  1 -1</clus>
<clus scale="   80.660">  5  6 -1 -1</clus>
<clus scale="   92.050">  7  8 -1 -1</clus>
<clus scale="  122.436">  2  5  1 -1</clus>
<clus scale="   34.229">  2  5  1 -1</clus>
</clustering>
</event>
<event>
 9    1  0.5981539E-005  0.1057556E+03  0.7546771E-02  0.1277931E+00
         21   -1    0    0  501  502  0.00000000000E+00  0.00000000000E+00  0.60692968869E+02  0.60692968869E+02  0.00000000000E+00 0.  1.
         -2   -1    0    0    0  501 -0.00000000000E+00 -0.00000000000E+00 -0.44158413740E+03  0.44158413740E+03  0.00000000000E+00 0.  1.
        -24    2    1    2    0    0 -0.31610362805E+02  0.32863952759E+02 -0.15906447776E+03  0.18068356408E+03  0.72565748231E+02 0.  0.
         23    2    1    2    0    0  0.71011642789E+02  0.12052756015E+02 -0.23285073456E+03  0.26083581730E+03  0.92886687229E+02 0.  0.
         11    1    3    3    0    0 -0.38551395746E+02  0.13760018967E+02 -0.31875171691E+02  0.51880389419E+02  0.00000000000E+00 0. -1.
        -12    1    3    3    0    0  0.69410329413E+01  0.19103933792E+02 -0.12718930607E+03  0.12880317466E+03  0.00000000000E+00 0.  1.
        -11    1    4    4    0    0  0.71561650550E+02 -0.26537260542E+02 -0.12701311044E+03  0.14818105902E+03  0.00000000000E+00 0. -1.
         11    1    4    4    0    0 -0.55000776064E+00  0.38590016557E+02 -0.10583762411E+03  0.11265475829E+03  0.00000000000E+00 0.  1.
         -1    1    1    2    0  502 -0.39401279984E+02 -0.44916708775E+02  0.11024043789E+02  0.60757724883E+02  0.00000000000E+00 0.  1.
<scales pt_clust_5="13000.00000" pt_clust_6="13000.00000" pt_clust_7="13000.00000" pt_clust_8="13000.00000" pt_clust_9="59.74924"></scales>
<clustering>
<clus scale="   59.749">  1  9  2 -1</clus>
<clus scale="   72.566">  5  6 -1 -1</clus>
<clus scale="   88.443">  2  5  1 -1</clus>
<clus scale="   92.887">  7  8 -1 -1</clus>
<clus scale="   59.749">  1  5  2 -1</clus>
</clustering>
</event>
<event>
 9    1  0.5981539E-005  0.9382581E+02  0.7546771E-02  0.1299402E+00
          1   -1    0    0  502    0 -0.00000000000E+00  0.00000000000E+00  0.18688992646E+03  0.18688992646E+03  0.00000000000E+00 0. -1.
         21   -1    0    0  501  502  0.00000000000E+00 -0.00000000000E+00 -0.12111570870E+03  0.12111570870E+03  0.00000000000E+00 0.  1.
        -24    2    1    2    0    0 -0.13392552970E+02 -0.59839286929E-01  0.24175240978E+02  0.85245814366E+02  0.80641444275E+02 0.  0.
         23    2    1    2    0    0  0.57915342231E+02  0.18898122990E+02 -0.49521953616E+02  0.11960855491E+03  0.90235561720E+02 0.  0.
         11    1    3    3    0    0  0.16712787072E+02 -0.29762272739E+02  0.26010573551E+02  0.42914567069E+02  0.00000000000E+00 0. -1.
        -12    1    3    3    0    0 -0.30105340042E+02  0.29702433452E+02 -0.18353325726E+01  0.42331247296E+02  0.00000000000E+00 0.  1.
        -11    1    4    4    0    0  0.44907982559E+02  0.40966743434E+02  0.33279775893E+01  0.60877552513E+02  0.00000000000E+00 0. -1.
         11    1    4    4    0    0  0.13007359671E+02 -0.22068620444E+02 -0.52849931205E+02  0.58731002395E+02  0.00000000000E+00 0.  1.
          2    1    1    2  501    0 -0.44522789261E+02 -0.18838283703E+02  0.91120930401E+02  0.10315126588E+03  0.00000000000E+00 0. -1.
<scales pt_clust_5="13000.00000" pt_clust_6="13000.00000" pt_clust_7="13000.00000" pt_clust_8="13000.00000" pt_clust_9="48.34420"></scales>
<clustering>
<clus scale="   48.344">  2  9  1 -1</clus>
<clus scale="   80.641">  5  6 -1 -1</clus>
<clus scale="   84.640">  1  5  2 -1</clus>
<clus scale="   90.236">  7  8 -1 -1</clus>
<clus scale="   48.344">  2  5  1 -1</clus>
</clustering>
</event>
<event>
 9    1  0.5981539E-005  0.1228771E+03  0.7546771E-02  0.1244630E+00
         21   -1    0    0  501  502  0.00000000000E+00  0.00000000000E+00  0.19505564933E+03  0.19505564933E+03  0.00000000000E+00 0. -1.
          3   -1    0    0  502    0 -0.00000000000E+00 -0.00000000000E+00 -0.19405913356E+03  0.19405913356E+03  0.00000000000E+00 0. -1.
         23    2    1    2    0    0  0.45049700278E+02  0.29149551515E+02  0.71049618270E+02  0.12957745535E+03  0.94144021739E+02 0.  0.
        -24    2    1    2    0    0  0.75805876227E+02  0.12253134508E+02  0.50874285849E+01  0.11132682794E+03  0.80443212970E+02 0.  0.
         11    1    4    4    0    0  0.43512724094E+02 -0.24440896759E+02 -0.22999282988E+02  0.54951629734E+02  0.00000000000E+00 0. -1.
        -12    1    4    4    0    0  0.32293152132E+02  0.36694031267E+02  0.28086711573E+02  0.56375198201E+02  0.00000000000E+00 0.  1.
        -11    1    3    3    0    0  0.69883977477E+02  0.44715362272E+00  0.52009235895E+02  0.87114469939E+02  0.00000000000E+00 0. -1.
         11    1    3    3    0    0 -0.24834277199E+02  0.28702397892E+02  0.19040382375E+02  0.42462985408E+02  0.00000000000E+00 0.  1.
          4    1    1    2  501    0 -0.12085557650E+03 -0.41402686023E+02 -0.75140531084E+02  0.14821049961E+03  0.00000000000E+00 0. -1.
<scales pt_clust_5="13000.00000" pt_clust_6="13000.00000" pt_clust_7="13000.00000" pt_clust_8="13000.00000" pt_clust_9="92.88529"></scales>
<clustering>
<clus scale="   80.443">  5  6 -1 -1</clus>
<clus scale="   94.144">  7  8 -1 -1</clus>
<clus scale="  108.362">  2  7  1 -1</clus>
<clus scale="   92.885">  1  9  2 -1</clus>
<clus scale="   92.885">  1  5  2 -1</clus>
</clustering>
</event>
<event>
 9    1  0.5981539E-005  0.9071446E+02  0.7546771E-02  0.1307153E+00
          1   -1    0    0  502    0 -0.00000000000E+00  0.00000000000E+00  0.33544461019E+03  0.33544461019E+03  0.00000000000E+00 0. -1.
         21   -1    0    0  501  502  0.00000000000E+00 -0.00000000000E+00 -0.32937486144E+02  0.32937486144E+02  0.00000000000E+00 0.  1.
         23    2    1    2    0    0  0.23104744055E+01  0.32678149737E+00  0.17441232463E+03  0.19628498513E+03  0.90014950565E+02 0.  0.
        -24    2    1    2    0    0  0.47356689380E+01  0.26411100186E+02  0.11060030737E+03  0.13937678565E+03  0.80457986636E+02 0.  0.
         13    1    4    4    0    0 -0.31667260807E+02 -0.71571112283E+01  0.62042451891E+02  0.70023606626E+02  0.00000000000E+00 0. -1.
        -14    1    4    4    0    0  0.36402929745E+02  0.33568211415E+02  0.48557855480E+02  0.69353179022E+02  0.00000000000E+00 0.  1.
        -11    1    3    3    0    0  0.24499598245E+02  0.35638462736E+02  0.56080985499E+02  0.70819540205E+02  0.00000000000E+00 0.  1.
         11    1    3    3    0    0 -0.22189123840E+02 -0.35311681239E+02  0.11833133913E+03  0.12546544492E+03  0.00000000000E+00 0. -1.
          2    1    1    2  501    0 -0.70461433435E+01 -0.26737881684E+02  0.17494492048E+02  0.32720325563E+02  0.00000000000E+00 0. -1.
<scales pt_clust_5="13000.00000" pt_clust_6="13000.00000" pt_clust_7="13000.00000" pt_clust_8="13000.00000" pt_clust_9="27.65072"></scales>
<clustering>
<clus scale="   27.651">  2  9  1 -1</clus>
<clus scale="   80.458">  5  6 -1 -1</clus>
<clus scale="   81.240">  2  5  1 -1</clus>
<clus scale="   90.015">  7  8 -1 -1</clus>
<clus scale="   27.651">  2  5  1 -1</clus>
</clustering>
</event>
<event>
 9    1  0.5981539E-005  0.1923979E+03  0.7546771E-02  0.1157771E+00
         21   -1    0    0  501  502  0.00000000000E+00  0.00000000000E+00  0.48864383110E+03  0.48864383110E+03  0.00000000000E+00 0.  1.
          3   -1    0    0  502    0 -0.00000000000E+00 -0.00000000000E+00 -0.87381298354E+02  0.87381298354E+02  0.00000000000E+00 0. -1.
        -24    2    1    2    0    0 -0.12774473161E+03 -0.10197444526E+03  0.12203855966E+03  0.21915607503E+03  0.80115362061E+02 0.  0.
         23    2    1    2    0    0  0.12490013945E+03  0.12307783299E+03  0.23616007484E+03  0.30882798855E+03  0.94100731970E+02 0.  0.
         13    1    3    3    0    0 -0.95579889143E+02 -0.25862522055E+02  0.73608819208E+02  0.12338007749E+03  0.00000000000E+00 0. -1.
        -14    1    3    3    0    0 -0.32164842465E+02 -0.76111923203E+02  0.48429740452E+02  0.95775997539E+02  0.00000000000E+00 0.  1.
        -13    1    4    4    0    0  0.35376337856E+02 -0.92146742681E+01  0.65940611163E+02  0.75396019143E+02  0.00000000000E+00 0. -1.
         13    1    4    4    0    0  0.89523801591E+02  0.13229250726E+03  0.17021946367E+03  0.23343196941E+03  0.00000000000E+00 0.  1.
          4    1    1    2  501    0  0.28445921601E+01 -0.21103387731E+02  0.43063898250E+02  0.48041065879E+02  0.00000000000E+00 0. -1.
<scales pt_clust_5="13000.00000" pt_clust_6="13000.00000" pt_clust_7="13000.00000" pt_clust_8="13000.00000" pt_clust_9="21.29424"></scales>
<clustering>
<clus scale="   21.294">  1  9  2 -1</clus>
<clus scale="   80.115">  5  6 -1 -1</clus>
<clus scale="   94.101">  7  8 -1 -1</clus>
<clus scale="  185.958">  2  5  1 -1</clus>
<clus scale="   21.294">  1  5  2 -1</clus>
</clustering>
</event>
<event>
 9    1  0.5981539E-005  0.1532603E+03  0.7546771E-02  0.1197994E+00
          1   -1    0    0  502    0 -0.00000000000E+00  0.00000000000E+00  0.25409279833E+03  0.25409279833E+03  0.00000000000E+00 0. -1.
         21   -1    0    0  501  502  0.00000000000E+00 -0.00000000000E+00 -0.16073599316E+03  0.16073599316E+03  0.00000000000E+00 0.  1.
        -24    2    1    2    0    0  0.12386506372E+03 -0.32654332298E+02  0.16754984319E+03  0.22590112583E+03  0.80929038497E+02 0.  0.
         23    2    1    2    0    0 -0.10251575600E+03  0.37088538555E+02 -0.84905216480E+02  0.16463351219E+03  0.89500042625E+02 0.  0.
         13    1    3    3    0    0  0.11833917854E+03 -0.41854228441E+02  0.17309818959E+03  0.21381983270E+03  0.00000000000E+00 0. -1.
        -14    1    3    3    0    0  0.55258851763E+01  0.91998961429E+01 -0.55483463999E+01  0.12081293134E+02  0.00000000000E+00 0.  1.
        -13    1    4    4    0    0 -0.10523915839E+03  0.57347393401E+02 -0.78263750146E+02  0.14314055532E+03  0.00000000000E+00 0.  1.
         13    1    4    4    0    0  0.27234023878E+01 -0.20258854846E+02 -0.66414663339E+01  0.21492956877E+02  0.00000000000E+00 0. -1.
          2    1    1    2  501    0 -0.21349307716E+02 -0.44342062571E+01  0.10712178459E+02  0.24294153462E+02  0.00000000000E+00 0. -1.
<scales pt_clust_5="13000.00000" pt_clust_6="13000.00000" pt_clust_7="13000.00000" pt_clust_8="13000.00000" pt_clust_9="21.80494"></scales>
<clustering>
<clus scale="   21.805">  2  9  1 -1</clus>
<clus scale="   80.929">  5  6 -1 -1</clus>
<clus scale="   89.500">  7  8 -1 -1</clus>
<clus scale="  148.418">  1  5  2 -1</clus>
<clus scale="   21.805">  2  5  1 -1</clus>
</clustering>
</event>
<event>
 9    1  0.7997846E-005  0.2738790E+03  0.7546771E-02  0.1147047E+00
          1   -1    0    0  502    0 -0.00000000000E+00  0.00000000000E+00  0.62112703903E+03  0.62112703903E+03  0.00000000000E+00 0. -1.
         21   -1    0    0  501  502  0.00000000000E+00 -0.00000000000E+00 -0.16219845848E+03  0.16219845848E+03  0.00000000000E+00 0. -1.
        -24    2    1    2    0    0 -0.35399029912E+01  0.17924530059E+02  0.12441816154E+03  0.14957781848E+03  0.80992747636E+02 0.  0.
         23    2    1    2    0    0  0.14741503687E+03  0.20268143137E+03  0.22279740974E+03  0.34765881031E+03  0.91744247152E+02 0.  0.
         11    1    3    3    0    0 -0.57964451818E+01  0.29355584587E+02  0.13221464142E+03  0.13555832888E+03  0.00000000000E+00 0. -1.
        -12    1    3    3    0    0  0.22565421906E+01 -0.11431054528E+02 -0.77964798763E+01  0.14019489603E+02  0.00000000000E+00 0.  1.
        -13    1    4    4    0    0  0.10986377775E+01  0.34123809347E+02  0.27942673358E+01  0.34255646239E+02  0.00000000000E+00 0.  1.
         13    1    4    4    0    0  0.14631639909E+03  0.16855762202E+03  0.22000314240E+03  0.31340316407E+03  0.00000000000E+00 0. -1.
          2    1    1    2  501    0 -0.14387513387E+03 -0.22060596143E+03  0.11171300926E+03  0.28608886871E+03  0.00000000000E+00 0. -1.
<scales pt_clust_5="13000.00000" pt_clust_6="13000.00000" pt_clust_7="13000.00000" pt_clust_8="13000.00000" pt_clust_9="258.05566"></scales>
<clustering>
<clus scale="   80.993">  5  6 -1 -1</clus>
<clus scale="   83.028">  1  5  2 -1</clus>
<clus scale="   91.744">  7  8 -1 -1</clus>
<clus scale="  258.056">  2  9  1 -1</clus>
<clus scale="  258.056">  2  5  1 -1</clus>
</clustering>
</event>
<event>
 9    1  0.5981539E-005  0.2599915E+03  0.7546771E-02  0.1108077E+00
          1   -1    0    0  502    0 -0.00000000000E+00  0.00000000000E+00  0.63158117951E+03  0.63158117951E+03  0.00000000000E+00 0. -1.
         21   -1    0    0  501  502  0.00000000000E+00 -0.00000000000E+00 -0.15940299246E+03  0.15940299246E+03  0.00000000000E+00 0.  1.
        -24    2    1    2    0    0 -0.23185763068E+03 -0.97914725855E+02  0.36616906055E+03  0.45117923448E+03  0.78343259326E+02 0.  0.
         23    2    1    2    0    0  0.20870005786E+03  0.56874914796E+02  0.14919481059E+02  0.23724830543E+03  0.96300038595E+02 0.  0.
         13    1    3    3    0    0 -0.19287463239E+03 -0.87616512219E+02  0.24714815039E+03  0.32551418598E+03  0.00000000000E+00 0. -1.
        -14    1    3    3    0    0 -0.38982998282E+02 -0.10298213637E+02  0.11902091016E+03  0.12566504850E+03  0.00000000000E+00 0.  1.
        -11    1    4    4    0    0  0.77692152561E+02 -0.24283053289E+02 -0.64991336702E+01  0.81657675605E+02  0.00000000000E+00 0.  1.
         11    1    4    4    0    0  0.13100790529E+03  0.81157968086E+02  0.21418614729E+02  0.15559062983E+03  0.00000000000E+00 0. -1.
          2    1    1    2  501    0  0.23157572821E+02  0.41039811059E+02  0.91089645447E+02  0.10255663205E+03  0.00000000000E+00 0. -1.
<scales pt_clust_5="13000.00000" pt_clust_6="13000.00000" pt_clust_7="13000.00000" pt_clust_8="13000.00000" pt_clust_9="47.12262"></scales>
<clustering>
<clus scale="   47.123">  2  9  1 -1</clus>
<clus scale="   78.343">  5  6 -1 -1</clus>
<clus scale="   96.300">  7  8 -1 -1</clus>
<clus scale="  253.889">  1  5  2 -1</clus>
<clus scale="   47.123">  2  5  1 -1</clus>
</clustering>
</event>
<event>
 9    1  0.5981539E-005  0.1190450E+03  0.7546771E-02  0.1248997E+00
         21   -1    0    0  501  502  0.00000000000E+00  0.00000000000E+00  0.35400343615E+02  0.35400343615E+02  0.00000000000E+00 0. -1.
          1   -1    0    0  502    0 -0.00000000000E+00 -0.00000000000E+00 -0.66157444082E+03  0.66157444082E+03  0.00000000000E+00 0. -1.
        -24    2    1    2    0    0  0.47049351185E+02  0.34723544093E+02 -0.21793142701E+03  0.23963685382E+03  0.80699125564E+02 0.  0.
         23    2    1    2    0    0 -0.50377012742E+02 -0.93276410375E+02 -0.23331196154E+03  0.27283789183E+03  0.93636059704E+02 0.  0.
         13    1    3    3    0    0  0.28948973912E+02  0.47848367456E+02 -0.67977430996E+02  0.88025226404E+02  0.00000000000E+00 0. -1.
        -14    1    3    3    0    0  0.18100377273E+02 -0.13124823363E+02 -0.14995399601E+03  0.15161162741E+03  0.00000000000E+00 0.  1.
        -13    1    4    4    0    0 -0.75548434619E+02 -0.49158811518E+02 -0.16015934403E+03  0.18378022255E+03  0.00000000000E+00 0. -1.
         13    1    4    4    0    0  0.25171421876E+02 -0.44117598857E+02 -0.73152617509E+02  0.89057669275E+02  0.00000000000E+00 0.  1.
          2    1    1    2  501    0  0.33276615576E+01  0.58552866282E+02 -0.17493070866E+03  0.18450003879E+03  0.00000000000E+00 0. -1.
<scales pt_clust_5="13000.00000" pt_clust_6="13000.00000" pt_clust_7="13000.00000" pt_clust_8="13000.00000" pt_clust_9="58.64738"></scales>
<clustering>
<clus scale="   58.647">  1  9  2 -1</clus>
<clus scale="   80.699">  5  6 -1 -1</clus>
<clus scale="   93.636">  7  8 -1 -1</clus>
<clus scale="  109.162">  2  5  1 -1</clus>
<clus scale="   58.647">  1  5  2 -1</clus>
</clustering>
</event>
<event>
 9    1  0.5981539E-005  0.1259605E+03  0.7546771E-02  0.1236553E+00
         21   -1    0    0  501  502  0.00000000000E+00  0.00000000000E+00  0.37706732858E+03  0.37706732858E+03  0.00000000000E+00 0.  1.
         -4   -1    0    0    0  501 -0.00000000000E+00 -0.00000000000E+00 -0.13115948202E+03  0.13115948202E+03  0.00000000000E+00 0.  1.
         23    2    1    2    0    0  0.40401965603E+02 -0.92440034363E+02 -0.40808603309E+02  0.14179791867E+03  0.90905604101E+02 0.  0.
        -24    2    1    2    0    0  0.19310154833E+02  0.73213366718E+02  0.49285797561E+02  0.12085096799E+03  0.80266976251E+02 0.  0.
         13    1    4    4    0    0 -0.29071642726E+02  0.10061157701E+02  0.12574995310E+02  0.33234286695E+02  0.00000000000E+00 0. -1.
        -14    1    4    4    0    0  0.48381797559E+02  0.63152209017E+02  0.36710802251E+02  0.87616681293E+02  0.00000000000E+00 0.  1.
        -13    1    3    3    0    0  0.10572852517E+02 -0.22504900722E+02  0.29264175890E+02  0.38401142657E+02  0.00000000000E+00 0. -1.
         13    1    3    3    0    0  0.29829113086E+02 -0.69935133641E+02 -0.70072779199E+02  0.10339677601E+03  0.00000000000E+00 0.  1.
         -3    1    1    2    0  502 -0.59712120436E+02  0.19226667645E+02  0.23743065230E+03  0.24557792395E+03  0.00000000000E+00 0.  1.
<scales pt_clust_5="13000.00000" pt_clust_6="13000.00000" pt_clust_7="13000.00000" pt_clust_8="13000.00000" pt_clust_9="62.73119"></scales>
<clustering>
<clus scale="   62.731">  1  9  2 -1</clus>
<clus scale="   80.267">  5  6 -1 -1</clus>
<clus scale="   90.906">  7  8 -1 -1</clus>
<clus scale="  118.512">  1  5  2 -1</clus>
<clus scale="   62.731">  1  5  2 -1</clus>
</clustering>
</event>
<event>
 9    1  0.5981539E-005  0.1136083E+03  0.7546771E-02  0.1256318E+00
          3   -1    0    0  502    0 -0.00000000000E+00  0.00000000000E+00  0.15170343423E+03  0.15170343423E+03  0.00000000000E+00 0. -1.
         21   -1    0    0  501  502  0.00000000000E+00 -0.00000000000E+00 -0.34025837466E+03  0.34025837466E+03  0.00000000000E+00 0.  1.
        -24    2    1    2    0    0  0.43315146457E+02  0.45544232386E+02 -0.53223157140E+02  0.11630776223E+03  0.82123760772E+02 0.  0.
         23    2    1    2    0    0 -0.81445433765E+02 -0.52797543614E+02 -0.23467891235E+03  0.26899392577E+03  0.88671308250E+02 0.  0.
         11    1    3    3    0    0  0.19834361038E+02 -0.22891879506E+02 -0.22356726253E+02  0.37646556733E+02  0.00000000000E+00 0. -1.
        -12    1    3    3    0    0  0.23480785419E+02  0.68436111893E+02 -0.30866430886E+02  0.78661205499E+02  0.00000000000E+00 0.  1.
        -11    1    4    4    0    0 -0.16206050340E+02  0.19963747074E+02 -0.95707317752E+02  0.99101351838E+02  0.00000000000E+00 0. -1.
         11    1    4    4    0    0 -0.65239383425E+02 -0.72761290688E+02 -0.13897159460E+03  0.16989257393E+03  0.00000000000E+00 0.  1.
          4    1    1    2  501    0  0.38130287309E+02  0.72533112278E+01  0.99347129063E+02  0.10666012088E+03  0.00000000000E+00 0. -1.
<scales pt_clust_5="13000.00000" pt_clust_6="13000.00000" pt_clust_7="13000.00000" pt_clust_8="13000.00000" pt_clust_9="38.81405"></scales>
<clustering>
<clus scale="   38.814">  2  9  1 -1</clus>
<clus scale="   82.124">  5  6 -1 -1</clus>
<clus scale="   88.671">  7  8 -1 -1</clus>
<clus scale="  108.575">  1  5  2 -1</clus>
<clus scale="   38.814">  2  5  1 -1</clus>
</clustering>
</event>
<event>
 9    1  0.5981539E-005  0.9886434E+02  0.7546771E-02  0.1290419E+00
         21   -1    0    0  501  502  0.00000000000E+00  0.00000000000E+00  0.68509723022E+02  0.68509723022E+02  0.00000000000E+00 0. -1.
          3   -1    0    0  502    0 -0.00000000000E+00 -0.00000000000E+00 -0.35317548988E+03  0.35317548988E+03  0.00000000000E+00 0. -1.
        -24    2    1    2    0    0 -0.17695849359E+02  0.80981140851E+01 -0.67007762557E+02  0.10587082584E+03  0.79623294236E+02 0.  0.
         23    2    1    2    0    0  0.60907615599E+02 -0.34684820164E+01 -0.20327389924E+02  0.11375483741E+03  0.93835985889E+02 0.  0.
         13    1    3    3    0    0  0.49027588494E+01 -0.20761434379E+02  0.76803707331E+01  0.22672941944E+02  0.00000000000E+00 0. -1.
        -14    1    3    3    0    0 -0.22598608208E+02  0.28859548464E+02 -0.74688133290E+02  0.83197883897E+02  0.00000000000E+00 0.  1.
        -13    1    4    4    0    0  0.45631580753E+02 -0.35709730022E+02  0.18691964574E+02  0.60883622756E+02  0.00000000000E+00 0. -1.
         13    1    4    4    0    0  0.15276034846E+02  0.32241248006E+02 -0.39019354498E+02  0.52871214654E+02  0.00000000000E+00 0.  1.
          4    1    1    2  501    0 -0.43211766240E+02 -0.46296320686E+01 -0.19733061437E+03  0.20205954965E+03  0.00000000000E+00 0. -1.
<scales pt_clust_5="13000.00000" pt_clust_6="13000.00000" pt_clust_7="13000.00000" pt_clust_8="13000.00000" pt_clust_9="43.45909"></scales>
<clustering>
<clus scale="   43.459">  1  9  2 -1</clus>
<clus scale="   79.623">  5  6 -1 -1</clus>
<clus scale="   85.492">  2  5  1 -1</clus>
<clus scale="   93.836">  7  8 -1 -1</clus>
<clus scale="   43.459">  1  5  2 -1</clus>
</clustering>
</event>
<event>
 9    1  0.5981539E-005  0.1573015E+03  0.7546771E-02  0.1193811E+00
          1   -1    0    0  502    0 -0.00000000000E+00  0.00000000000E+00  0.29794748562E+03  0.29794748562E+03  0.00000000000E+00 0. -1.
         21   -1    0    0  501  502  0.00000000000E+00 -0.00000000000E+00 -0.15670655803E+03  0.15670655803E+03  0.00000000000E+00 0. -1.
         23    2    1    2    0    0  0.10826747584E+03 -0.86773105752E+02  0.12923049954E+03  0.21133042543E+03  0.93319925489E+02 0.  0.
        -24    2    1    2    0    0 -0.12405434849E+03 -0.39315478922E+01 -0.10035634376E+02  0.14865267015E+03  0.81190910425E+02 0.  0.
         11    1    4    4    0    0 -0.10244089436E+03  0.28931427156E+02  0.49457786126E+01  0.10656277512E+03  0.00000000000E+00 0. -1.
        -12    1    4    4    0    0 -0.21613454134E+02 -0.32862975048E+02 -0.14981412988E+02  0.42089895031E+02  0.00000000000E+00 0.  1.
        -11    1    3    3    0    0  0.12524430915E+03 -0.73203319044E+02  0.11715381660E+03  0.18646683254E+03  0.00000000000E+00 0. -1.
         11    1    3    3    0    0 -0.16976833307E+02 -0.13569786708E+02  0.12076682932E+02  0.24863592884E+02  0.00000000000E+00 0.  1.
          2    1    1    2  501    0  0.15786872650E+02  0.90704653644E+02  0.22046062439E+02  0.94670948077E+02  0.00000000000E+00 0. -1.
<scales pt_clust_5="13000.00000" pt_clust_6="13000.00000" pt_clust_7="13000.00000" pt_clust_8="13000.00000" pt_clust_9="92.06823"></scales>
<clustering>
<clus scale="   81.191">  5  6 -1 -1</clus>
<clus scale="   92.068">  2  9  1 -1</clus>
<clus scale="   93.320">  7  8 -1 -1</clus>
<clus scale="  150.423">  2  5  1 -1</clus>
<clus scale="   92.068">  2  5  1 -1</clus>
</clustering>
</event>
<event>
 9    1  0.5981539E-005  0.1042385E+03  0.7546771E-02  0.1277498E+00
          1   -1    0    0  502    0 -0.00000000000E+00  0.00000000000E+00  0.43719980391E+03  0.43719980391E+03  0.00000000000E+00 0. -1.
         21   -1    0    0  501  502  0.00000000000E+00 -0.00000000000E+00 -0.32255169346E+02  0.32255169346E+02  0.00000000000E+00 0.  1.
         23    2    1    2    0    0 -0.39752956925E+02  0.29383507426E+02  0.17283891769E+03  0.20023108817E+03  0.88178847287E+02 0.  0.
        -24    2    1    2    0    0  0.61068719535E+02 -0.21661191843E+02  0.12321112450E+03  0.15799426609E+03  0.74716873454E+02 0.  0.
         13    1    4    4    0    0  0.48382198732E+02 -0.48934477233E+02  0.84929327818E+02  0.10930878711E+03  0.00000000000E+00 0. -1.
        -14    1    4    4    0    0  0.12686520804E+02  0.27273285390E+02  0.38281796679E+02  0.48685478975E+02  0.00000000000E+00 0.  1.
        -11    1    3    3    0    0 -0.39523419480E+02  0.35315722409E+01  0.18570453231E+02  0.43811350391E+02  0.00000000000E+00 0.  1.
         11    1    3    3    0    0 -0.22953744449E+00  0.25851935185E+02  0.15426846446E+03  0.15641973778E+03  0.00000000000E+00 0. -1.
          2    1    1    2  501    0 -0.21315762610E+02 -0.77223155827E+01  0.10889459237E+03  0.11122961899E+03  0.00000000000E+00 0. -1.
<scales pt_clust_5="13000.00000" pt_clust_6="13000.00000" pt_clust_7="13000.00000" pt_clust_8="13000.00000" pt_clust_9="22.67149"></scales>
<clustering>
<clus scale="   22.671">  2  9  1 -1</clus>
<clus scale="   74.717">  5  6 -1 -1</clus>
<clus scale="   88.179">  7  8 -1 -1</clus>
<clus scale="   93.128">  2  5  1 -1</clus>
<clus scale="   22.671">  2  5  1 -1</clus>
</clustering>
</event>
<event>
 9    1  0.5981539E-005  0.1129124E+03  0.7546771E-02  0.1261679E+00
         21   -1    0    0  501  502  0.00000000000E+00  0.00000000000E+00  0.81588544576E+02  0.81588544576E+02  0.00000000000E+00 0.  1.
         -2   -1    0    0    0  501 -0.00000000000E+00 -0.00000000000E+00 -0.39051286179E+03  0.39051286179E+03  0.00000000000E+00 0.  1.
         23    2    1    2    0    0 -0.14584596424E+02  0.60070746727E+02 -0.33441883537E+03  0.35343244994E+03  0.96215041221E+02 0.  0.
        -24    2    1    2    0    0 -0.16416896220E+01 -0.42967561300E+02  0.27637193782E+02  0.94996137212E+02  0.80072124588E+02 0.  0.
         11    1    4    4    0    0  0.38671561073E+02 -0.26900960854E+02  0.18728340971E+02  0.50694201702E+02  0.00000000000E+00 0. -1.
        -12    1    4    4    0    0 -0.40313250695E+02 -0.16066600447E+02  0.89088528119E+01  0.44301935510E+02  0.00000000000E+00 0.  1.
        -11    1    3    3    0    0 -0.30466765797E+02  0.39373649541E+01 -0.28182335368E+02  0.41688975613E+02  0.00000000000E+00 0. -1.
         11    1    3    3    0    0  0.15882169373E+02  0.56133381773E+02 -0.30623650000E+03  0.31174347433E+03  0.00000000000E+00 0.  1.
         -1    1    1    2    0  502  0.16226286046E+02 -0.17103185427E+02 -0.21426756273E+01  0.23672819212E+02  0.00000000000E+00 0.  1.
<scales pt_clust_5="13000.00000" pt_clust_6="13000.00000" pt_clust_7="13000.00000" pt_clust_8="13000.00000" pt_clust_9="23.57565"></scales>
<clustering>
<clus scale="   23.576">  1  9  2 -1</clus>
<clus scale="   80.072">  5  6 -1 -1</clus>
<clus scale="   96.215">  7  8 -1 -1</clus>
<clus scale="   99.516">  1  5  2 -1</clus>
<clus scale="   23.576">  1  5  2 -1</clus>
</clustering>
</event>
<event>
 9    1  0.5981539E-005  0.1474114E+03  0.7546771E-02  0.1204473E+00
         -4   -1    0    0    0  501 -0.00000000000E+00  0.00000000000E+00  0.11936641005E+03  0.11936641005E+03  0.00000000000E+00 0.  1.
         21   -1    0    0  501  502  0.00000000000E+00 -0.00000000000E+00 -0.31126068227E+03  0.31126068227E+03  0.00000000000E+00 0.  1.
         23    2    1    2    0    0  0.11881114274E+03 -0.36455328149E+02 -0.10743918726E+02  0.15512119480E+03  0.92206695512E+02 0.  0.
        -24    2    1    2    0    0 -0.84195309086E+02  0.34433570367E+02 -0.19945177675E+03  0.23629766450E+03  0.88210283739E+02 0.  0.
         13    1    4    4    0    0 -0.49261644108E+02 -0.26857999012E+02 -0.91824577197E+02  0.10760954729E+03  0.00000000000E+00 0. -1.
        -14    1    4    4    0    0 -0.34933664978E+02  0.61291569379E+02 -0.10762719955E+03  0.12868811720E+03  0.00000000000E+00 0.  1.
        -11    1    3    3    0    0  0.59923930340E+02 -0.65761525012E+02 -0.56790468524E+01  0.89149914035E+02  0.00000000000E+00 0. -1.
         11    1    3    3    0    0  0.58887212398E+02  0.29306196863E+02 -0.50648718733E+01  0.65971280764E+02  0.00000000000E+00 0.  1.
         -3    1    1    2    0  502 -0.34615833652E+02  0.20217577820E+01  0.18301423258E+02  0.39208233028E+02  0.00000000000E+00 0.  1.
<scales pt_clust_5="13000.00000" pt_clust_6="13000.00000" pt_clust_7="13000.00000" pt_clust_8="13000.00000" pt_clust_9="34.67484"></scales>
<clustering>
<clus scale="   34.675">  2  9  1 -1</clus>
<clus scale="   88.210">  5  6 -1 -1</clus>
<clus scale="   92.207">  7  8 -1 -1</clus>
<clus scale="  144.945">  2  5  1 -1</clus>
<clus scale="   34.675">  2  5  1 -1</clus>
</clustering>
</event>
<event>
 9    1  0.5981539E-005  0.9632956E+02  0.7546771E-02  0.1291663E+00
         21   -1    0    0  501  502  0.00000000000E+00  0.00000000000E+00  0.17894611281E+03  0.17894611281E+03  0.00000000000E+00 0.  1.
         -2   -1    0    0    0  501 -0.00000000000E+00 -0.00000000000E+00 -0.65711044119E+02  0.65711044119E+02  0.00000000000E+00 0.  1.
         23    2    1    2    0    0  0.84572252834E+01  0.48791335238E+02  0.34512940230E+02  0.10640957170E+03  0.87634096398E+02 0.  0.
        -24    2    1    2    0    0 -0.17952860798E+02 -0.24282601415E+02  0.67606594091E+02  0.10970988680E+03  0.80954664815E+02 0.  0.
         13    1    4    4    0    0  0.14407629195E+02 -0.43572593946E+02  0.23034644322E+02  0.51349250834E+02  0.00000000000E+00 0. -1.
        -14    1    4    4    0    0 -0.32360489993E+02  0.19289992531E+02  0.44571949769E+02  0.58360635968E+02  0.00000000000E+00 0.  1.
        -11    1    3    3    0    0  0.25954925257E+02 -0.14797208097E+02  0.26567600203E+02  0.39980656486E+02  0.00000000000E+00 0. -1.
         11    1    3    3    0    0 -0.17497699973E+02  0.63588543335E+02  0.79453400270E+01  0.66428915210E+02  0.00000000000E+00 0.  1.
         -1    1    1    2    0  502  0.94956355143E+01 -0.24508733823E+02  0.11115534370E+02  0.28537698431E+02  0.00000000000E+00 0.  1.
<scales pt_clust_5="13000.00000" pt_clust_6="13000.00000" pt_clust_7="13000.00000" pt_clust_8="13000.00000" pt_clust_9="26.28395"></scales>
<clustering>
<clus scale="   26.284">  1  9  2 -1</clus>
<clus scale="   80.955">  5  6 -1 -1</clus>
<clus scale="   87.634">  7  8 -1 -1</clus>
<clus scale="   90.296">  1  5  2 -1</clus>
<clus scale="   26.284">  1  5  2 -1</clus>
</clustering>
</event>
<event>
 9    1  0.5981539E-005  0.1880631E+03  0.7546771E-02  0.1191200E+00
         21   -1    0    0  501  502  0.00000000000E+00  0.00000000000E+00  0.66206428343E+02  0.66206428343E+02  0.00000000000E+00 0.  1.
          1   -1    0    0  502    0 -0.00000000000E+00 -0.00000000000E+00 -0.76541379150E+03  0.76541379150E+03  0.00000000000E+00 0. -1.
        -24    2    1    2    0    0 -0.37127117951E+02 -0.31520129490E+02 -0.14074528457E+03  0.16882132109E+03  0.79495043097E+02 0.  0.
         23    2    1    2    0    0  0.14369189883E+03  0.12764385593E+03 -0.32571816288E+03  0.38936599362E+03  0.92591790198E+02 0.  0.
         13    1    3    3    0    0 -0.32113694943E+02  0.20236168390E+02 -0.82057798326E+02  0.90411692718E+02  0.00000000000E+00 0. -1.
        -14    1    3    3    0    0 -0.50134230078E+01 -0.51756297879E+02 -0.58687486239E+02  0.78409628372E+02  0.00000000000E+00 0.  1.
        -11    1    4    4    0    0  0.12632388665E+03  0.13925117311E+03 -0.26323274848E+03  0.32348121031E+03  0.00000000000E+00 0.  1.
         11    1    4    4    0    0  0.17368012174E+02 -0.11607317179E+02 -0.62485414399E+02  0.65884783308E+02  0.00000000000E+00 0. -1.
          2    1    1    2  501    0 -0.10656478088E+03 -0.96123726441E+02 -0.23274391571E+03  0.27343290513E+03  0.00000000000E+00 0. -1.
<scales pt_clust_5="13000.00000" pt_clust_6="13000.00000" pt_clust_7="13000.00000" pt_clust_8="13000.00000" pt_clust_9="163.69026"></scales>
<clustering>
<clus scale="   79.495">  5  6 -1 -1</clus>
<clus scale="   92.592">  7  8 -1 -1</clus>
<clus scale="   93.228">  2  5  1 -1</clus>
<clus scale="  163.690">  1  9  2 -1</clus>
<clus scale="  163.690">  1  5  2 -1</clus>
</clustering>
</event>
<event>
 9    1  0.5981539E-005  0.2444584E+03  0.7546771E-02  0.1151549E+00
          1   -1    0    0  502    0 -0.00000000000E+00  0.00000000000E+00  0.10931831447E+04  0.10931831447E+04  0.00000000000E+00 0. -1.
         21   -1    0    0  501  502  0.00000000000E+00 -0.00000000000E+00 -0.26800538139E+03  0.26800538139E+03  0.00000000000E+00 0. -1.
        -24    2    1    2    0    0 -0.24390719438E+02 -0.64810947985E+02  0.13348725818E+03  0.16979145121E+03  0.78834780620E+02 0.  0.
         23    2    1    2    0    0 -0.48035393279E+02 -0.15372698211E+03  0.87661228096E+03  0.89609988240E+03  0.92771353649E+02 0.  0.
         13    1    3    3    0    0 -0.34512835071E+02 -0.75926654590E+02  0.12984382174E+03  0.15432242451E+03  0.00000000000E+00 0. -1.
        -14    1    3    3    0    0  0.10122115632E+02  0.11115706605E+02  0.36434364431E+01  0.15469026709E+02  0.00000000000E+00 0.  1.
        -11    1    4    4    0    0 -0.52685088593E+02 -0.27436735398E+02  0.29332819626E+03  0.29928234784E+03  0.00000000000E+00 0.  1.
         11    1    4    4    0    0  0.46496953140E+01 -0.12629024672E+03  0.58328408470E+03  0.59681753455E+03  0.00000000000E+00 0. -1.
          2    1    1    2  501    0  0.72426112717E+02  0.21853793010E+03 -0.18492177584E+03  0.29529719246E+03  0.00000000000E+00 0. -1.
<scales pt_clust_5="13000.00000" pt_clust_6="13000.00000" pt_clust_7="13000.00000" pt_clust_8="13000.00000" pt_clust_9="226.17113"></scales>
<clustering>
<clus scale="   78.835">  5  6 -1 -1</clus>
<clus scale="   92.771">  7  8 -1 -1</clus>
<clus scale="  104.930">  1  5  2 -1</clus>
<clus scale="  226.171">  2  9  1 -1</clus>
<clus scale="  226.171">  2  5  1 -1</clus>
</clustering>
</event>
<event>
 9    1  0.5981539E-005  0.1200585E+03  0.7546771E-02  0.1246147E+00
          1   -1    0    0  502    0 -0.00000000000E+00  0.00000000000E+00  0.12118019217E+04  0.12118019217E+04  0.00000000000E+00 0. -1.
         21   -1    0    0  501  502  0.00000000000E+00 -0.00000000000E+00 -0.41254459507E+02  0.41254459507E+02  0.00000000000E+00 0. -1.
        -24    2    1    2    0    0  0.71036301348E+02  0.12545177236E+02  0.69933182328E+03  0.70782290912E+03  0.82126329799E+02 0.  0.
         23    2    1    2    0    0 -0.70341510562E+02 -0.11967014472E+03  0.30464536892E+03  0.34718828471E+03  0.91989306952E+02 0.  0.
         11    1    3    3    0    0  0.43065167926E+02 -0.25290452332E+02  0.19473748656E+03  0.20103955914E+03  0.00000000000E+00 0. -1.
        -12    1    3    3    0    0  0.27971133422E+02  0.37835629568E+02  0.50459433672E+03  0.50678334998E+03  0.00000000000E+00 0.  1.
        -11    1    4    4    0    0 -0.94325545345E+01 -0.35154702109E+02  0.18499172477E+03  0.18853849580E+03  0.00000000000E+00 0.  1.
         11    1    4    4    0    0 -0.60908956028E+02 -0.84515442609E+02  0.11965364415E+03  0.15864978891E+03  0.00000000000E+00 0. -1.
          2    1    1    2  501    0 -0.69479078590E+00  0.10712496748E+03  0.16657026996E+03  0.19804518734E+03  0.00000000000E+00 0. -1.
<scales pt_clust_5="13000.00000" pt_clust_6="13000.00000" pt_clust_7="13000.00000" pt_clust_8="13000.00000" pt_clust_9="107.12722"></scales>
<clustering>
<clus scale="   82.126">  5  6 -1 -1</clus>
<clus scale="   91.989">  7  8 -1 -1</clus>
<clus scale="  107.127">  2  9  1 -1</clus>
<clus scale="  112.680">  1  5  2 -1</clus>
<clus scale="  107.127">  2  5  1 -1</clus>
</clustering>
</event>
<event>
 9    1  0.5981539E-005  0.1166660E+03  0.7546771E-02  0.1252090E+00
          1   -1    0    0  502    0 -0.00000000000E+00  0.00000000000E+00  0.20867159484E+03  0.20867159484E+03  0.00000000000E+00 0. -1.
         21   -1    0    0  501  502  0.00000000000E+00 -0.00000000000E+00 -0.15065579287E+03  0.15065579287E+03  0.00000000000E+00 0.  1.
         23    2    1    2    0    0  0.32499416770E+01 -0.81197162761E+02  0.79478200880E+02  0.14587632159E+03  0.91430713792E+02 0.  0.
        -24    2    1    2    0    0 -0.23545482098E+02  0.41417584266E+02 -0.90809381498E+02  0.13096877819E+03  0.81465766304E+02 0.  0.
         11    1    4    4    0    0  0.55195754995E+01  0.31157468707E+02  0.34194903502E+01  0.31826820202E+02  0.00000000000E+00 0. -1.
        -12    1    4    4    0    0 -0.29065057598E+02  0.10260115559E+02 -0.94228871848E+02  0.99141957991E+02  0.00000000000E+00 0.  1.
        -11    1    3    3    0    0 -0.89045735178E+01  0.18692004810E+02  0.69637105364E+01  0.21844352537E+02  0.00000000000E+00 0. -1.
         11    1    3    3    0    0  0.12154515195E+02 -0.99889167570E+02  0.72514490344E+02  0.12403196905E+03  0.00000000000E+00 0.  1.
          2    1    1    2  501    0  0.20295540421E+02  0.39779578495E+02  0.69346982587E+02  0.82482287918E+02  0.00000000000E+00 0. -1.
<scales pt_clust_5="13000.00000" pt_clust_6="13000.00000" pt_clust_7="13000.00000" pt_clust_8="13000.00000" pt_clust_9="44.65788"></scales>
<clustering>
<clus scale="   44.658">  2  9  1 -1</clus>
<clus scale="   81.466">  5  6 -1 -1</clus>
<clus scale="   91.431">  7  8 -1 -1</clus>
<clus scale="  109.032">  2  5  1 -1</clus>
<clus scale="   44.658">  2  5  1 -1</clus>
</clustering>
</event>
<event>
 9    1  0.5981539E-005  0.2494854E+03  0.7546771E-02  0.1128514E+00
          1   -1    0    0  502    0 -0.00000000000E+00  0.00000000000E+00  0.24962017325E+03  0.24962017325E+03  0.00000000000E+00 0. -1.
         21   -1    0    0  501  502  0.00000000000E+00 -0.00000000000E+00 -0.20369638513E+04  0.20369638513E+04  0.00000000000E+00 0. -1.
        -24    2    1    2    0    0 -0.22736693609E+02  0.14981755068E+03 -0.13488580274E+03  0.21863535566E+03  0.81516766586E+02 0.  0.
         23    2    1    2    0    0  0.21738466401E+03 -0.18772219939E+02  0.13022070214E+03  0.26989315762E+03  0.90974704581E+02 0.  0.
         11    1    3    3    0    0 -0.29583102359E+02  0.15771712601E+03 -0.13202056856E+03  0.20779625190E+03  0.00000000000E+00 0. -1.
        -12    1    3    3    0    0  0.68464087497E+01 -0.78995753353E+01 -0.28652341848E+01  0.10839103754E+02  0.00000000000E+00 0.  1.
        -13    1    4    4    0    0  0.16413012696E+03 -0.37814095325E+02  0.13092759958E+03  0.21333223084E+03  0.00000000000E+00 0. -1.
         13    1    4    4    0    0  0.53254537051E+02  0.19041875386E+02 -0.70689743412E+00  0.56560926784E+02  0.00000000000E+00 0.  1.
          2    1    1    2  501    0 -0.19464797040E+03 -0.13104533074E+03 -0.17826785775E+04  0.17980555113E+04  0.00000000000E+00 0. -1.
<scales pt_clust_5="13000.00000" pt_clust_6="13000.00000" pt_clust_7="13000.00000" pt_clust_8="13000.00000" pt_clust_9="232.30702"></scales>
<clustering>
<clus scale="   81.517">  5  6 -1 -1</clus>
<clus scale="   90.975">  7  8 -1 -1</clus>
<clus scale="  172.068">  1  5  2 -1</clus>
<clus scale="  232.307">  2  9  1 -1</clus>
<clus scale="  232.307">  2  5  1 -1</clus>
</clustering>
</event>
<event>
 9    1  0.5981539E-005  0.9278417E+02  0.7546771E-02  0.1301184E+00
         21   -1    0    0  501  502  0.00000000000E+00  0.00000000000E+00  0.14622348796E+03  0.14622348796E+03  0.00000000000E+00 0. -1.
         -2   -1    0    0    0  501 -0.00000000000E+00 -0.00000000000E+00 -0.20796766923E+03  0.20796766923E+03  0.00000000000E+00 0.  1.
         23    2    1    2    0    0 -0.14609945589E+02 -0.93841558462E+01 -0.63823722150E+02  0.11264246302E+03  0.91177541512E+02 0.  0.
        -24    2    1    2    0    0  0.26613833810E+02 -0.60949388511E+02  0.82115171779E+02  0.13432648095E+03  0.82931163855E+02 0.  0.
         13    1    4    4    0    0  0.34715082918E+02 -0.70156543692E+02  0.90359726812E+02  0.11954897672E+03  0.00000000000E+00 0. -1.
        -14    1    4    4    0    0 -0.81012491078E+01  0.92071551810E+01 -0.82445550333E+01  0.14777504232E+02  0.00000000000E+00 0.  1.
        -11    1    3    3    0    0  0.59039529828E+01  0.31489569804E+02 -0.58371486604E+02  0.66585885258E+02  0.00000000000E+00 0. -1.
         11    1    3    3    0    0 -0.20513898572E+02 -0.40873725650E+02 -0.54522355459E+01  0.46056577767E+02  0.00000000000E+00 0.  1.
         -1    1    1    2    0  502 -0.12003888221E+02  0.70333544357E+02 -0.80035630895E+02  0.10722221322E+03  0.00000000000E+00 0.  1.
<scales pt_clust_5="13000.00000" pt_clust_6="13000.00000" pt_clust_7="13000.00000" pt_clust_8="13000.00000" pt_clust_9="71.35058"></scales>
<clustering>
<clus scale="   71.351">  1  9  2 -1</clus>
<clus scale="   82.931">  5  6 -1 -1</clus>
<clus scale="   84.694">  1  5  2 -1</clus>
<clus scale="   91.178">  7  8 -1 -1</clus>
<clus scale="   71.351">  1  5  2 -1</clus>
</clustering>
</event>
<event>
 9    1  0.5981539E-005  0.1810234E+03  0.7546771E-02  0.1167913E+00
          1   -1    0    0  502    0 -0.00000000000E+00  0.00000000000E+00  0.42581033155E+03  0.42581033155E+03  0.00000000000E+00 0. -1.
         21   -1    0    0  501  502  0.00000000000E+00 -0.00000000000E+00 -0.15142236874E+03  0.15142236874E+03  0.00000000000E+00 0.  1.
        -24    2    1    2    0    0 -0.14320432873E+03 -0.38107751734E+02  0.22854621798E+03  0.28431697033E+03  0.81505124705E+02 0.  0.
         23    2    1    2    0    0  0.18629008469E+03 -0.17362057802E+02  0.68720529153E+02  0.21904610895E+03  0.90847399604E+02 0.  0.
         11    1    3    3    0    0 -0.13548088189E+03 -0.57591780150E+01  0.17701553026E+03  0.22298595347E+03  0.00000000000E+00 0. -1.
        -12    1    3    3    0    0 -0.77234468465E+01 -0.32348573719E+02  0.51530687717E+02  0.61331016863E+02  0.00000000000E+00 0.  1.
        -11    1    4    4    0    0  0.10720259136E+03  0.11075367625E+02  0.80037919687E+02  0.13424279478E+03  0.00000000000E+00 0. -1.
         11    1    4    4    0    0  0.79087493328E+02 -0.28437425427E+02 -0.11317390534E+02  0.84803314170E+02  0.00000000000E+00 0.  1.
          2    1    1    2  501    0 -0.43085755952E+02  0.55469809536E+02 -0.22878784326E+02  0.73869621010E+02  0.00000000000E+00 0. -1.
<scales pt_clust_5="13000.00000" pt_clust_6="13000.00000" pt_clust_7="13000.00000" pt_clust_8="13000.00000" pt_clust_9="70.23733"></scales>
<clustering>
<clus scale="   70.237">  2  9  1 -1</clus>
<clus scale="   81.505">  5  6 -1 -1</clus>
<clus scale="   90.847">  7  8 -1 -1</clus>
<clus scale="  176.520">  1  5  2 -1</clus>
<clus scale="   70.237">  2  5  1 -1</clus>
</clustering>
</event>
<event>
 9    1  0.5981539E-005  0.1543189E+03  0.7546771E-02  0.1224478E+00
         21   -1    0    0  501  502  0.00000000000E+00  0.00000000000E+00  0.24965171961E+03  0.24965171961E+03  0.00000000000E+00 0.  1.
         -2   -1    0    0    0  501 -0.00000000000E+00 -0.00000000000E+00 -0.13353770308E+03  0.13353770308E+03  0.00000000000E+00 0.  1.
        -24    2    1    2    0    0 -0.22210954707E+02 -0.33689446746E+02  0.30101233712E+02  0.87988551618E+02  0.72163672397E+02 0.  0.
         23    2    1    2    0    0 -0.92817237470E+02  0.83679085725E+02  0.62768508856E+02  0.16764403954E+03  0.92452200241E+02 0.  0.
         13    1    3    3    0    0 -0.40657769605E+02 -0.39614293536E+02  0.60249323587E+01  0.57084553879E+02  0.00000000000E+00 0. -1.
        -14    1    3    3    0    0  0.18446814899E+02  0.59248467900E+01  0.24076301353E+02  0.30903997739E+02  0.00000000000E+00 0.  1.
        -11    1    4    4    0    0 -0.36714457330E+02  0.56834942417E+02 -0.13742410099E+02  0.69043579657E+02  0.00000000000E+00 0.  1.
         11    1    4    4    0    0 -0.56102780139E+02  0.26844143309E+02  0.76510918955E+02  0.98600459881E+02  0.00000000000E+00 0. -1.
         -1    1    1    2    0  502  0.11502819218E+03 -0.49989638979E+02  0.23244273959E+02  0.12755683154E+03  0.00000000000E+00 0.  1.
<scales pt_clust_5="13000.00000" pt_clust_6="13000.00000" pt_clust_7="13000.00000" pt_clust_8="13000.00000" pt_clust_9="123.55943"></scales>
<clustering>
<clus scale="   72.164">  5  6 -1 -1</clus>
<clus scale="   82.680">  2  5  1 -1</clus>
<clus scale="   92.452">  7  8 -1 -1</clus>
<clus scale="  123.559">  1  9  2 -1</clus>
<clus scale="  123.559">  1  5  2 -1</clus>
</clustering>
</event>
<event>
 9    1  0.5981539E-005  0.8790531E+02  0.7546771E-02  0.1309909E+00
         -2   -1    0    0    0  501 -0.00000000000E+00  0.00000000000E+00  0.54529538079E+03  0.54529538079E+03  0.00000000000E+00 0.  1.
         21   -1    0    0  501  502  0.00000000000E+00 -0.00000000000E+00 -0.64922686626E+02  0.64922686626E+02  0.00000000000E+00 0.  1.
        -24    2    1    2    0    0 -0.73465949979E+01  0.25073472817E+02  0.41804032900E+03  0.42650150661E+03  0.80393824198E+02 0.  0.
         23    2    1    2    0    0 -0.51542383752E+02 -0.44997697794E+02  0.54789973191E+02  0.12109249007E+03  0.83546632842E+02 0.  0.
         13    1    3    3    0    0  0.37403705427E+01 -0.27865330756E+02  0.99249019867E+02  0.10315442295E+03  0.00000000000E+00 0. -1.
        -14    1    3    3    0    0 -0.11086965541E+02  0.52938803573E+02  0.31879130914E+03  0.32334708366E+03  0.00000000000E+00 0.  1.
        -13    1    4    4    0    0 -0.17863732999E+02 -0.43888394804E+02  0.69669655223E+02  0.84256542856E+02  0.00000000000E+00 0.  1.
         13    1    4    4    0    0 -0.33678650754E+02 -0.11093029898E+01 -0.14879682032E+02  0.36835947213E+02  0.00000000000E+00 0. -1.
         -1    1    1    2    0  502  0.58888978750E+02  0.19924224977E+02  0.75423919703E+01  0.62624070738E+02  0.00000000000E+00 0.  1.
<scales pt_clust_5="13000.00000" pt_clust_6="13000.00000" pt_clust_7="13000.00000" pt_clust_8="13000.00000" pt_clust_9="62.16821"></scales>
<clustering>
<clus scale="   62.168">  2  9  1 -1</clus>
<clus scale="   80.394">  5  6 -1 -1</clus>
<clus scale="   83.547">  7  8 -1 -1</clus>
<clus scale="   84.914">  1  5  2 -1</clus>
<clus scale="   62.168">  2  5  1 -1</clus>
</clustering>
</event>
<event>
 9    1  0.5981539E-005  0.9296797E+02  0.7546771E-02  0.1303124E+00
         -4   -1    0    0    0  501 -0.00000000000E+00  0.00000000000E+00  0.83217993924E+03  0.83217993924E+03  0.00000000000E+00 0.  1.
         21   -1    0    0  501  502  0.00000000000E+00 -0.00000000000E+00 -0.17740608600E+02  0.17740608600E+02  0.00000000000E+00 0. -1.
        -24    2    1    2    0    0  0.69593960161E+01 -0.12914110452E+02  0.51937131958E+03  0.52568969768E+03  0.79924234132E+02 0.  0.
         23    2    1    2    0    0 -0.29215721471E+02 -0.59733731187E+01  0.16714649068E+03  0.19302110801E+03  0.91814809397E+02 0.  0.
         11    1    3    3    0    0  0.86682038917E+01 -0.46551161745E+02  0.28387156569E+03  0.28779370081E+03  0.00000000000E+00 0. -1.
        -12    1    3    3    0    0 -0.17088078756E+01  0.33637051293E+02  0.23549975389E+03  0.23789599687E+03  0.00000000000E+00 0.  1.
        -11    1    4    4    0    0 -0.35240297241E+02  0.30596830150E+02  0.42995686805E+02  0.63456076531E+02  0.00000000000E+00 0.  1.
         11    1    4    4    0    0  0.60245757701E+01 -0.36570203269E+02  0.12415080387E+03  0.12956503148E+03  0.00000000000E+00 0. -1.
         -3    1    1    2    0  502  0.22256325455E+02  0.18887483571E+02  0.12792152038E+03  0.13120974215E+03  0.00000000000E+00 0.  1.
<scales pt_clust_5="13000.00000" pt_clust_6="13000.00000" pt_clust_7="13000.00000" pt_clust_8="13000.00000" pt_clust_9="29.19044"></scales>
<clustering>
<clus scale="   29.190">  2  9  1 -1</clus>
<clus scale="   79.924">  5  6 -1 -1</clus>
<clus scale="   81.246">  1  5  2 -1</clus>
<clus scale="   91.815">  7  8 -1 -1</clus>
<clus scale="   29.190">  2  5  1 -1</clus>
</clustering>
</event>
<event>
 9    1  0.5981539E-005  0.1258254E+03  0.7546771E-02  0.1237853E+00
          1   -1    0    0  502    0 -0.00000000000E+00  0.00000000000E+00  0.28745269570E+03  0.28745269570E+03  0.00000000000E+00 0. -1.
         21   -1    0    0  501  502  0.00000000000E+00 -0.00000000000E+00 -0.93316921010E+02  0.93316921010E+02  0.00000000000E+00 0. -1.
        -24    2    1    2    0    0 -0.37119450284E+02  0.99123520541E+02  0.14708376421E+03  0.19810675847E+03  0.80058279660E+02 0.  0.
         23    2    1    2    0    0  0.69004991590E+01 -0.39958930219E+02  0.20001892199E+01  0.10239268723E+03  0.93999620474E+02 0.  0.
         11    1    3    3    0    0 -0.57476975751E+02  0.43499580030E+02  0.66312899793E+02  0.97944968647E+02  0.00000000000E+00 0. -1.
        -12    1    3    3    0    0  0.20357525467E+02  0.55623940511E+02  0.80770864421E+02  0.10016178982E+03  0.00000000000E+00 0.  1.
        -11    1    4    4    0    0 -0.15402401448E+02 -0.46933498492E+02 -0.33648286416E+02  0.59767837754E+02  0.00000000000E+00 0.  1.
         11    1    4    4    0    0  0.22302900607E+02  0.69745682726E+01  0.35648475636E+02  0.42624849481E+02  0.00000000000E+00 0. -1.
          2    1    1    2  501    0  0.30218951125E+02 -0.59164590322E+02  0.45051821260E+02  0.80270171009E+02  0.00000000000E+00 0. -1.
<scales pt_clust_5="13000.00000" pt_clust_6="13000.00000" pt_clust_7="13000.00000" pt_clust_8="13000.00000" pt_clust_9="66.43522"></scales>
<clustering>
<clus scale="   66.435">  2  9  1 -1</clus>
<clus scale="   80.058">  5  6 -1 -1</clus>
<clus scale="   94.000">  7  8 -1 -1</clus>
<clus scale="  115.782">  1  5  2 -1</clus>
<clus scale="   66.435">  2  5  1 -1</clus>
</clustering>
</event>
<event>
 9    1  0.5981539E-005  0.1348936E+03  0.7546771E-02  0.1220873E+00
         21   -1    0    0  501  502  0.00000000000E+00  0.00000000000E+00  0.39166259924E+03  0.39166259924E+03  0.00000000000E+00 0. -1.
          1   -1    0    0  502    0 -0.00000000000E+00 -0.00000000000E+00 -0.86462773131E+02  0.86462773131E+02  0.00000000000E+00 0. -1.
         23    2    1    2    0    0  0.73794352107E+02 -0.65677605601E+02  0.48293638591E+02  0.14022341410E+03  0.87012505151E+02 0.  0.
        -24    2    1    2    0    0 -0.38277014967E+02  0.11931097221E+03  0.20744069016E+03  0.25675484076E+03  0.84800768593E+02 0.  0.
         13    1    4    4    0    0 -0.13236059333E+02  0.74042842094E+02  0.18622417008E+03  0.20084067630E+03  0.00000000000E+00 0. -1.
        -14    1    4    4    0    0 -0.25040955634E+02  0.45268130121E+02  0.21216520081E+02  0.55914164467E+02  0.00000000000E+00 0.  1.
        -11    1    3    3    0    0 -0.88872959322E+01 -0.45650764966E+02  0.19173298905E+02  0.50304987445E+02  0.00000000000E+00 0.  1.
         11    1    3    3    0    0  0.82681648040E+02 -0.20026840635E+02  0.29120339687E+02  0.89918426653E+02  0.00000000000E+00 0. -1.
          2    1    1    2  501    0 -0.35517337141E+02 -0.53633366614E+02  0.49465497358E+02  0.81147117513E+02  0.00000000000E+00 0. -1.
<scales pt_clust_5="13000.00000" pt_clust_6="13000.00000" pt_clust_7="13000.00000" pt_clust_8="13000.00000" pt_clust_9="64.32747"></scales>
<clustering>
<clus scale="   64.327">  1  9  2 -1</clus>
<clus scale="   84.801">  5  6 -1 -1</clus>
<clus scale="   87.013">  7  8 -1 -1</clus>
<clus scale="  133.478">  1  5  2 -1</clus>
<clus scale="   64.327">  1  5  2 -1</clus>
</clustering>
</event>
<event>
 9    1  0.5981539E-005  0.1103860E+03  0.7546771E-02  0.1262612E+00
         21   -1    0    0  501  502  0.00000000000E+00  0.00000000000E+00  0.95217239884E+02  0.95217239884E+02  0.00000000000E+00 0. -1.
         -2   -1    0    0    0  501 -0.00000000000E+00 -0.00000000000E+00 -0.16121260749E+03  0.16121260749E+03  0.00000000000E+00 0.  1.
        -24    2    1    2    0    0  0.38093054559E+01 -0.70191855595E+02 -0.55871950239E+02  0.12150921844E+03  0.81862127645E+02 0.  0.
         23    2    1    2    0    0 -0.23747253296E+02  0.55217705368E+02 -0.17438109333E+02  0.10893502412E+03  0.89161790005E+02 0.  0.
         11    1    3    3    0    0  0.38267835268E+02 -0.55142787796E+02 -0.49435785550E+02  0.83360969014E+02  0.00000000000E+00 0. -1.
        -12    1    3    3    0    0 -0.34458529812E+02 -0.15049067798E+02 -0.64361646893E+01  0.38148249426E+02  0.00000000000E+00 0.  1.
        -11    1    4    4    0    0  0.26173170076E+02  0.28312477686E+02 -0.32313774898E+02  0.50307169198E+02  0.00000000000E+00 0. -1.
         11    1    4    4    0    0 -0.49920423372E+02  0.26905227682E+02  0.14875665566E+02  0.58627854918E+02  0.00000000000E+00 0.  1.
         -1    1    1    2    0  502  0.19937947840E+02  0.14974150226E+02  0.73146919673E+01  0.25985604816E+02  0.00000000000E+00 0.  1.
<scales pt_clust_5="13000.00000" pt_clust_6="13000.00000" pt_clust_7="13000.00000" pt_clust_8="13000.00000" pt_clust_9="24.93485"></scales>
<clustering>
<clus scale="   24.935">  1  9  2 -1</clus>
<clus scale="   81.862">  5  6 -1 -1</clus>
<clus scale="   89.162">  7  8 -1 -1</clus>
<clus scale="  104.578">  2  5  1 -1</clus>
<clus scale="   24.935">  1  5  2 -1</clus>
</clustering>
</event>
<event>
 9    1  0.5981539E-005  0.9303134E+02  0.7546771E-02  0.1300597E+00
          1   -1    0    0  502    0 -0.00000000000E+00  0.00000000000E+00  0.50409114862E+02  0.50409114862E+02  0.00000000000E+00 0. -1.
         21   -1    0    0  501  502  0.00000000000E+00 -0.00000000000E+00 -0.35012269106E+03  0.35012269106E+03  0.00000000000E+00 0. -1.
        -24    2    1    2    0    0 -0.82532588223E+01  0.30699294717E+02 -0.20999844331E+02  0.89148094092E+02  0.80596688772E+02 0.  0.
         23    2    1    2    0    0  0.25565902028E+02  0.44225081997E+01 -0.23522065035E+03  0.25286092315E+03  0.89088260623E+02 0.  0.
         13    1    3    3    0    0  0.35292137066E+01  0.30990313059E+02  0.26053952228E+02  0.40640660423E+02  0.00000000000E+00 0. -1.
        -14    1    3    3    0    0 -0.11782472529E+02 -0.29101834263E+00 -0.47053796559E+02  0.48507433669E+02  0.00000000000E+00 0.  1.
        -13    1    4    4    0    0  0.71946243203E+01  0.39541561898E+02 -0.18267379984E+03  0.18704281564E+03  0.00000000000E+00 0. -1.
         13    1    4    4    0    0  0.18371277707E+02 -0.35119053699E+02 -0.52546850511E+02  0.65818107508E+02  0.00000000000E+00 0.  1.
          2    1    1    2  501    0 -0.17312643205E+02 -0.35121802916E+02 -0.43493081521E+02  0.58522788682E+02  0.00000000000E+00 0. -1.
<scales pt_clust_5="13000.00000" pt_clust_6="13000.00000" pt_clust_7="13000.00000" pt_clust_8="13000.00000" pt_clust_9="39.15699"></scales>
<clustering>
<clus scale="   39.157">  2  9  1 -1</clus>
<clus scale="   80.597">  5  6 -1 -1</clus>
<clus scale="   84.935">  1  5  2 -1</clus>
<clus scale="   89.088">  7  8 -1 -1</clus>
<clus scale="   39.157">  2  5  1 -1</clus>
</clustering>
</event>
<event>
 9    1  0.5981539E-005  0.1027669E+03  0.7546771E-02  0.1283850E+00
         21   -1    0    0  501  502  0.00000000000E+00  0.00000000000E+00  0.19521302204E+03  0.19521302204E+03  0.00000000000E+00 0.  1.
          1   -1    0    0  502    0 -0.00000000000E+00 -0.00000000000E+00 -0.96317279584E+02  0.96317279584E+02  0.00000000000E+00 0. -1.
         23    2    1    2    0    0  0.36753929019E+02 -0.10369198502E+02 -0.39363180156E+02  0.11218139898E+03  0.97861303639E+02 0.  0.
        -24    2    1    2    0    0 -0.14308199326E+02  0.29309794609E+01  0.71210043172E+02  0.10825255873E+03  0.80214905183E+02 0.  0.
         11    1    4    4    0    0 -0.95466915348E+01  0.27667211178E+02 -0.34376074359E+01  0.29469154018E+02  0.00000000000E+00 0. -1.
        -12    1    4    4    0    0 -0.47615077915E+01 -0.24736231718E+02  0.74647650607E+02  0.78783404707E+02  0.00000000000E+00 0.  1.
        -13    1    3    3    0    0 -0.74626422921E+00 -0.39192337571E+02  0.13302440932E+02  0.41395062137E+02  0.00000000000E+00 0.  1.
         13    1    3    3    0    0  0.37500193248E+02  0.28823139070E+02 -0.52665621088E+02  0.70786336846E+02  0.00000000000E+00 0. -1.
          2    1    1    2  501    0 -0.22445729693E+02  0.74382190408E+01  0.67048879440E+02  0.71096343915E+02  0.00000000000E+00 0. -1.
<scales pt_clust_5="13000.00000" pt_clust_6="13000.00000" pt_clust_7="13000.00000" pt_clust_8="13000.00000" pt_clust_9="23.64610"></scales>
<clustering>
<clus scale="   23.646">  1  9  2 -1</clus>
<clus scale="   80.215">  5  6 -1 -1</clus>
<clus scale="   86.131">  1  5  2 -1</clus>
<clus scale="   97.861">  7  8 -1 -1</clus>
<clus scale="   23.646">  1  5  2 -1</clus>
</clustering>
</event>
<event>
 9    1  0.5981539E-005  0.9986618E+02  0.7546771E-02  0.1285041E+00
          1   -1    0    0  502    0 -0.00000000000E+00  0.00000000000E+00  0.10395945770E+03  0.10395945770E+03  0.00000000000E+00 0. -1.
         21   -1    0    0  501  502  0.00000000000E+00 -0.00000000000E+00 -0.14832808279E+03  0.14832808279E+03  0.00000000000E+00 0. -1.
         23    2    1    2    0    0 -0.42168128855E+02  0.21885683030E+02  0.22089730762E+02  0.10363544556E+03  0.89415967022E+02 0.  0.
        -24    2    1    2    0    0  0.44816922208E+02  0.59640370381E+01 -0.19772756736E+02  0.94226290579E+02  0.80271449927E+02 0.  0.
         11    1    4    4    0    0  0.62615761732E+02  0.17315516206E+02  0.48588866198E+00  0.64967659698E+02  0.00000000000E+00 0. -1.
        -12    1    4    4    0    0 -0.17798839524E+02 -0.11351479168E+02 -0.20258645398E+02  0.29258630882E+02  0.00000000000E+00 0.  1.
        -11    1    3    3    0    0  0.23524440940E+02  0.62455083029E+01 -0.12936087226E+02  0.27563527499E+02  0.00000000000E+00 0.  1.
         11    1    3    3    0    0 -0.65692569795E+02  0.15640174727E+02  0.35025817988E+02  0.76071918061E+02  0.00000000000E+00 0. -1.
          2    1    1    2  501    0 -0.26487933533E+01 -0.27849720068E+02 -0.46685599117E+02  0.54425804348E+02  0.00000000000E+00 0. -1.
<scales pt_clust_5="13000.00000" pt_clust_6="13000.00000" pt_clust_7="13000.00000" pt_clust_8="13000.00000" pt_clust_9="27.97540"></scales>
<clustering>
<clus scale="   27.975">  2  9  1 -1</clus>
<clus scale="   80.271">  5  6 -1 -1</clus>
<clus scale="   89.416">  7  8 -1 -1</clus>
<clus scale="   91.769">  2  5  1 -1</clus>
<clus scale="   27.975">  2  5  1 -1</clus>
</clustering>
</event>
<event>
 9    1  0.5981539E-005  0.1048996E+03  0.7546771E-02  0.1272845E+00
         21   -1    0    0  501  502  0.00000000000E+00  0.00000000000E+00  0.35004802870E+03  0.35004802870E+03  0.00000000000E+00 0.  1.
          1   -1    0    0  502    0 -0.00000000000E+00 -0.00000000000E+00 -0.79261087118E+02  0.79261087118E+02  0.00000000000E+00 0. -1.
        -24    2    1    2    0    0 -0.41036032737E+02  0.47685106955E+02 -0.20316537948E+02  0.10424227860E+03  0.80596932477E+02 0.  0.
         23    2    1    2    0    0  0.99780826912E+00 -0.44661053047E+02  0.24626661830E+03  0.26487922683E+03  0.86707279005E+02 0.  0.
         11    1    3    3    0    0  0.44624515432E+01  0.45737680486E+02  0.13067177347E+02  0.47776563437E+02  0.00000000000E+00 0. -1.
        -12    1    3    3    0    0 -0.45498484280E+02  0.19474264690E+01 -0.33383715295E+02  0.56465715160E+02  0.00000000000E+00 0.  1.
        -11    1    4    4    0    0 -0.37797062180E+02 -0.40992164353E+02  0.17482061309E+03  0.18349719946E+03  0.00000000000E+00 0.  1.
         11    1    4    4    0    0  0.38794870449E+02 -0.36688886939E+01  0.71446005209E+02  0.81382027364E+02  0.00000000000E+00 0. -1.
          2    1    1    2  501    0  0.40038224467E+02 -0.30240539080E+01  0.44836861227E+02  0.60187610397E+02  0.00000000000E+00 0. -1.
<scales pt_clust_5="13000.00000" pt_clust_6="13000.00000" pt_clust_7="13000.00000" pt_clust_8="13000.00000" pt_clust_9="40.15226"></scales>
<clustering>
<clus scale="   40.152">  1  9  2 -1</clus>
<clus scale="   80.597">  5  6 -1 -1</clus>
<clus scale="   86.707">  7  8 -1 -1</clus>
<clus scale="   99.908">  2  5  1 -1</clus>
<clus scale="   40.152">  1  5  2 -1</clus>
</clustering>
</event>
<event>
 9    1  0.5981539E-005  0.1911101E+03  0.7546771E-02  0.1171807E+00
         21   -1    0    0  501  502  0.00000000000E+00  0.00000000000E+00  0.31365796715E+03  0.31365796715E+03  0.00000000000E+00 0.  1.
         -4   -1    0    0    0  501 -0.00000000000E+00 -0.00000000000E+00 -0.24374507857E+03  0.24374507857E+03  0.00000000000E+00 0.  1.
        -24    2    1    2    0    0  0.28769594713E+02 -0.10705679275E+03 -0.56056654183E+02  0.14823735061E+03  0.80889536916E+02 0.  0.
         23    2    1    2    0    0  0.11576199365E+03 -0.66229502107E+02  0.65175769935E+02  0.17547058854E+03  0.93567410634E+02 0.  0.
         11    1    3    3    0    0  0.32396026890E+02 -0.27563013960E+02 -0.53860339347E+02  0.68630594135E+02  0.00000000000E+00 0. -1.
        -12    1    3    3    0    0 -0.36264321770E+01 -0.79493778793E+02 -0.21963148361E+01  0.79606756472E+02  0.00000000000E+00 0.  1.
        -11    1    4    4    0    0  0.36156902060E+01 -0.49016498869E+02  0.24703110702E+02  0.55008490757E+02  0.00000000000E+00 0. -1.
         11    1    4    4    0    0  0.11214630345E+03 -0.17213003239E+02  0.40472659233E+02  0.12046209779E+03  0.00000000000E+00 0.  1.
         -3    1    1    2    0  502 -0.14453158837E+03  0.17328629486E+03  0.60793772831E+02  0.23369510658E+03  0.00000000000E+00 0.  1.
<scales pt_clust_5="13000.00000" pt_clust_6="13000.00000" pt_clust_7="13000.00000" pt_clust_8="13000.00000" pt_clust_9="166.63803"></scales>
<clustering>
<clus scale="   80.890">  5  6 -1 -1</clus>
<clus scale="   93.567">  7  8 -1 -1</clus>
<clus scale="  137.230">  2  5  1 -1</clus>
<clus scale="  166.638">  1  9  2 -1</clus>
<clus scale="  166.638">  1  5  2 -1</clus>
</clustering>
</event>
<event>
 9    1  0.5981539E-005  0.9123023E+02  0.7546771E-02  0.1305776E+00
         -2   -1    0    0    0  501 -0.00000000000E+00  0.00000000000E+00  0.12228596398E+03  0.12228596398E+03  0.00000000000E+00 0.  1.
         21   -1    0    0  501  502  0.00000000000E+00 -0.00000000000E+00 -0.33212368264E+03  0.33212368264E+03  0.00000000000E+00 0. -1.
         23    2    1    2    0    0  0.65839375399E+01  0.50653422789E+01  0.73541569694E+02  0.11720937431E+03  0.90888222703E+02 0.  0.
        -24    2    1    2    0    0  0.29196304192E+02 -0.29189992306E+02 -0.27928322170E+03  0.29385281335E+03  0.81522255621E+02 0.  0.
         13    1    4    4    0    0  0.43008277167E+02 -0.49879719582E+02 -0.18628429493E+03  0.19758425258E+03  0.00000000000E+00 0. -1.
        -14    1    4    4    0    0 -0.13811972975E+02  0.20689727276E+02 -0.92998926766E+02  0.96268560766E+02  0.00000000000E+00 0.  1.
        -13    1    3    3    0    0  0.10687711369E+02  0.39893827299E+02  0.70885370211E+02  0.82039504757E+02  0.00000000000E+00 0.  1.
         13    1    3    3    0    0 -0.41037738288E+01 -0.34828485020E+02  0.26561994833E+01  0.35169869549E+02  0.00000000000E+00 0. -1.
         -1    1    1    2    0  502 -0.35780241732E+02  0.24124650027E+02 -0.40960666542E+01  0.43347458972E+02  0.00000000000E+00 0.  1.
<scales pt_clust_5="13000.00000" pt_clust_6="13000.00000" pt_clust_7="13000.00000" pt_clust_8="13000.00000" pt_clust_9="43.15352"></scales>
<clustering>
<clus scale="   43.154">  2  9  1 -1</clus>
<clus scale="   81.522">  5  6 -1 -1</clus>
<clus scale="   81.903">  2  5  1 -1</clus>
<clus scale="   90.888">  7  8 -1 -1</clus>
<clus scale="   43.154">  2  5  1 -1</clus>
</clustering>
</event>
<event>
 9    1  0.5981539E-005  0.2371256E+03  0.7546771E-02  0.1122526E+00
         21   -1    0    0  501  502  0.00000000000E+00  0.00000000000E+00  0.13933943761E+04  0.13933943761E+04  0.00000000000E+00 0. -1.
          3   -1    0    0  502    0 -0.00000000000E+00 -0.00000000000E+00 -0.12947904073E+03  0.12947904073E+03  0.00000000000E+00 0. -1.
        -24    2    1    2    0    0 -0.19762278327E+03  0.93317098968E+02  0.72485942162E+02  0.24325282010E+03  0.78453025742E+02 0.  0.
         23    2    1    2    0    0  0.18275616046E+03 -0.12885171708E+03  0.12120759845E+04  0.12359169665E+04  0.91432907913E+02 0.  0.
         13    1    3    3    0    0 -0.13788694391E+03  0.75965712931E+02  0.14299905130E+02  0.15807620355E+03  0.00000000000E+00 0. -1.
        -14    1    3    3    0    0 -0.59735839362E+02  0.17351386037E+02  0.58186037032E+02  0.85176616551E+02  0.00000000000E+00 0.  1.
        -11    1    4    4    0    0  0.12479696794E+03 -0.34111495960E+02  0.59182293236E+03  0.60579886153E+03  0.00000000000E+00 0.  1.
         11    1    4    4    0    0  0.57959192515E+02 -0.94740221119E+02  0.62025305218E+03  0.63011810498E+03  0.00000000000E+00 0. -1.
          4    1    1    2  501    0  0.14866622808E+02  0.35534618111E+02 -0.20646591343E+02  0.43703630194E+02  0.00000000000E+00 0. -1.
<scales pt_clust_5="13000.00000" pt_clust_6="13000.00000" pt_clust_7="13000.00000" pt_clust_8="13000.00000" pt_clust_9="38.51918"></scales>
<clustering>
<clus scale="   38.519">  1  9  2 -1</clus>
<clus scale="   78.453">  5  6 -1 -1</clus>
<clus scale="   91.433">  7  8 -1 -1</clus>
<clus scale="  232.429">  2  5  1 -1</clus>
<clus scale="   38.519">  1  5  2 -1</clus>
</clustering>
</event>
<event>
 9    1  0.5981539E-005  0.1137334E+03  0.7546771E-02  0.1257602E+00
          1   -1    0    0  502    0 -0.00000000000E+00  0.00000000000E+00  0.47285725689E+03  0.47285725689E+03  0.00000000000E+00 0. -1.
         21   -1    0    0  501  502  0.00000000000E+00 -0.00000000000E+00 -0.32004236904E+02  0.32004236904E+02  0.00000000000E+00 0. -1.
         23    2    1    2    0    0 -0.27343496166E+02 -0.75159517836E+02  0.22428716788E+03  0.25502266478E+03  0.91297349201E+02 0.  0.
        -24    2    1    2    0    0  0.16637197419E+02  0.53908578285E+02  0.15334362414E+03  0.18228679445E+03  0.80816317761E+02 0.  0.
         11    1    4    4    0    0  0.34365230504E+02 -0.62105152934E+01  0.67468458809E+02  0.75970602879E+02  0.00000000000E+00 0. -1.
        -12    1    4    4    0    0 -0.17728033085E+02  0.60119093578E+02  0.85875165331E+02  0.10631619157E+03  0.00000000000E+00 0.  1.
        -11    1    3    3    0    0  0.24143077335E+02 -0.58518484047E+02  0.88138885045E+02  0.10851619333E+03  0.00000000000E+00 0.  1.
         11    1    3    3    0    0 -0.51486573502E+02 -0.16641033789E+02  0.13614828284E+03  0.14650647145E+03  0.00000000000E+00 0. -1.
          2    1    1    2  501    0  0.10706298747E+02  0.21250939551E+02  0.63222227963E+02  0.67552034561E+02  0.00000000000E+00 0. -1.
<scales pt_clust_5="13000.00000" pt_clust_6="13000.00000" pt_clust_7="13000.00000" pt_clust_8="13000.00000" pt_clust_9="23.79554"></scales>
<clustering>
<clus scale="   23.796">  2  9  1 -1</clus>
<clus scale="   80.816">  5  6 -1 -1</clus>
<clus scale="   91.297">  7  8 -1 -1</clus>
<clus scale="  105.505">  2  5  1 -1</clus>
<clus scale="   23.796">  2  5  1 -1</clus>
</clustering>
</event>
<event>
 9    1  0.5981539E-005  0.1471998E+03  0.7546771E-02  0.1206098E+00
          3   -1    0    0  502    0 -0.00000000000E+00  0.00000000000E+00  0.22613862650E+03  0.22613862650E+03  0.00000000000E+00 0. -1.
         21   -1    0    0  501  502  0.00000000000E+00 -0.00000000000E+00 -0.12755364907E+03  0.12755364907E+03  0.00000000000E+00 0.  1.
         23    2    1    2    0    0 -0.58363871437E+02 -0.99886441583E+02  0.10548849849E+03  0.18263162651E+03  0.94036402464E+02 0.  0.
        -24    2    1    2    0    0  0.33969685859E+02  0.10436319887E+03 -0.25441721016E+02  0.14009643578E+03  0.83271323485E+02 0.  0.
         13    1    4    4    0    0  0.57720371648E+02  0.85029841713E+02 -0.42567485532E+01  0.10285832583E+03  0.00000000000E+00 0. -1.
        -14    1    4    4    0    0 -0.23750685789E+02  0.19333357158E+02 -0.21184972462E+02  0.37238109950E+02  0.00000000000E+00 0.  1.
        -13    1    3    3    0    0  0.23648072381E+02 -0.38054206367E+02  0.20283764423E+02  0.49181145257E+02  0.00000000000E+00 0.  1.
         13    1    3    3    0    0 -0.82011943818E+02 -0.61832235216E+02  0.85204734064E+02  0.13345048126E+03  0.00000000000E+00 0. -1.
          4    1    1    2  501    0  0.24394185577E+02 -0.44767572878E+01  0.18538199965E+02  0.30964213275E+02  0.00000000000E+00 0. -1.
<scales pt_clust_5="13000.00000" pt_clust_6="13000.00000" pt_clust_7="13000.00000" pt_clust_8="13000.00000" pt_clust_9="24.80158"></scales>
<clustering>
<clus scale="   24.802">  2  9  1 -1</clus>
<clus scale="   83.271">  5  6 -1 -1</clus>
<clus scale="   94.036">  7  8 -1 -1</clus>
<clus scale="  140.567">  2  5  1 -1</clus>
<clus scale="   24.802">  2  5  1 -1</clus>
</clustering>
</event>
<event>
 9    1  0.5981539E-005  0.1061387E+03  0.7546771E-02  0.1279486E+00
          1   -1    0    0  502    0 -0.00000000000E+00  0.00000000000E+00  0.21721453889E+03  0.21721453889E+03  0.00000000000E+00 0. -1.
         21   -1    0    0  501  502  0.00000000000E+00 -0.00000000000E+00 -0.67109468310E+02  0.67109468310E+02  0.00000000000E+00 0. -1.
        -24    2    1    2    0    0 -0.68723310978E+02 -0.10509865225E+02  0.10960700362E+03  0.15648789061E+03  0.87415181325E+02 0.  0.
         23    2    1    2    0    0  0.41946701548E+02  0.17048435575E+02 -0.43175952734E+01  0.75222588899E+02  0.59913448618E+02 0.  0.
         13    1    3    3    0    0 -0.66087875629E+02  0.20445714652E+02  0.10401817364E+03  0.12492163544E+03  0.00000000000E+00 0. -1.
        -14    1    3    3    0    0 -0.26354353487E+01 -0.30955579878E+02  0.55888299790E+01  0.31566255172E+02  0.00000000000E+00 0.  1.
        -11    1    4    4    0    0 -0.39082481948E+01  0.20787487837E+02  0.14363218277E+02  0.25567481179E+02  0.00000000000E+00 0.  1.
         11    1    4    4    0    0  0.45854949743E+02 -0.37390522621E+01 -0.18680813551E+02  0.49655107720E+02  0.00000000000E+00 0. -1.
          2    1    1    2  501    0  0.26776609430E+02 -0.65385703495E+01  0.44815662234E+02  0.52613527692E+02  0.00000000000E+00 0. -1.
<scales pt_clust_5="13000.00000" pt_clust_6="13000.00000" pt_clust_7="13000.00000" pt_clust_8="13000.00000" pt_clust_9="27.56339"></scales>
<clustering>
<clus scale="   27.563">  2  9  1 -1</clus>
<clus scale="   59.913">  7  8 -1 -1</clus>
<clus scale="   84.933">  2  7  1 -1</clus>
<clus scale="   87.415">  5  6 -1 -1</clus>
<clus scale="   27.563">  2  5  1 -1</clus>
</clustering>
</event>
<event>
 9    1  0.5981539E-005  0.2590729E+03  0.7546771E-02  0.1108322E+00
         21   -1    0    0  501  502  0.00000000000E+00  0.00000000000E+00  0.28423144736E+03  0.28423144736E+03  0.00000000000E+00 0.  1.
          1   -1    0    0  502    0 -0.00000000000E+00 -0.00000000000E+00 -0.30401634565E+03  0.30401634565E+03  0.00000000000E+00 0. -1.
         23    2    1    2    0    0  0.24125576838E+03  0.37556761489E+02 -0.94546866811E+02  0.27761056202E+03  0.92269485804E+02 0.  0.
        -24    2    1    2    0    0 -0.22817342427E+03 -0.77331568885E+02  0.41708542685E+02  0.25729201574E+03  0.80101783628E+02 0.  0.
         11    1    4    4    0    0 -0.40452589390E+02 -0.79131465461E+01 -0.22677250007E+02  0.47045590064E+02  0.00000000000E+00 0. -1.
        -12    1    4    4    0    0 -0.18772083488E+03 -0.69418422339E+02  0.64385792692E+02  0.21024642568E+03  0.00000000000E+00 0.  1.
        -11    1    3    3    0    0  0.70191955563E+02 -0.82730961127E+01  0.10877339368E+02  0.71509938168E+02  0.00000000000E+00 0.  1.
         11    1    3    3    0    0  0.17106381282E+03  0.45829857602E+02 -0.10542420618E+03  0.20610062385E+03  0.00000000000E+00 0. -1.
          2    1    1    2  501    0 -0.13082344109E+02  0.39774807396E+02  0.33053425833E+02  0.53345215250E+02  0.00000000000E+00 0. -1.
<scales pt_clust_5="13000.00000" pt_clust_6="13000.00000" pt_clust_7="13000.00000" pt_clust_8="13000.00000" pt_clust_9="41.87103"></scales>
<clustering>
<clus scale="   41.871">  1  9  2 -1</clus>
<clus scale="   80.102">  5  6 -1 -1</clus>
<clus scale="   92.269">  7  8 -1 -1</clus>
<clus scale="  254.993">  1  5  2 -1</clus>
<clus scale="   41.871">  1  5  2 -1</clus>
</clustering>
</event>
<event>
 9    1  0.5981539E-005  0.2236153E+03  0.7546771E-02  0.1131916E+00
         21   -1    0    0  501  502  0.00000000000E+00  0.00000000000E+00  0.23254002934E+03  0.23254002934E+03  0.00000000000E+00 0. -1.
          1   -1    0    0  502    0 -0.00000000000E+00 -0.00000000000E+00 -0.72575252125E+03  0.72575252125E+03  0.00000000000E+00 0. -1.
         23    2    1    2    0    0  0.43637079102E+02  0.19332517749E+03 -0.55417528611E+03  0.59563408170E+03  0.91601815591E+02 0.  0.
        -24    2    1    2    0    0 -0.91963288836E+02 -0.21933631450E+03 -0.33149921769E+02  0.25371258735E+03  0.81887082719E+02 0.  0.
         11    1    4    4    0    0 -0.89561431484E+02 -0.13165989272E+03  0.19355646547E+01  0.15924611069E+03  0.00000000000E+00 0. -1.
        -12    1    4    4    0    0 -0.24018573520E+01 -0.87676421781E+02 -0.35085486423E+02  0.94466476661E+02  0.00000000000E+00 0.  1.
        -13    1    3    3    0    0 -0.28688179133E+02  0.47110265527E+02 -0.14570210682E+03  0.15579310855E+03  0.00000000000E+00 0. -1.
         13    1    3    3    0    0  0.72325258235E+02  0.14621491196E+03 -0.40847317929E+03  0.43984097314E+03  0.00000000000E+00 0.  1.
          2    1    1    2  501    0  0.48326209734E+02  0.26011137013E+02  0.94112715974E+02  0.10894588154E+03  0.00000000000E+00 0. -1.
<scales pt_clust_5="13000.00000" pt_clust_6="13000.00000" pt_clust_7="13000.00000" pt_clust_8="13000.00000" pt_clust_9="54.88171"></scales>
<clustering>
<clus scale="   54.882">  1  9  2 -1</clus>
<clus scale="   81.887">  5  6 -1 -1</clus>
<clus scale="   91.602">  7  8 -1 -1</clus>
<clus scale="  219.814">  1  5  2 -1</clus>
<clus scale="   54.882">  1  5  2 -1</clus>
</clustering>
</event>
<event>
 9    1  0.5981539E-005  0.1014653E+03  0.7546771E-02  0.1284320E+00
         -2   -1    0    0    0  501 -0.00000000000E+00  0.00000000000E+00  0.15920004260E+03  0.15920004260E+03  0.00000000000E+00 0.  1.
         21   -1    0    0  501  502  0.00000000000E+00 -0.00000000000E+00 -0.18819752339E+03  0.18819752339E+03  0.00000000000E+00 0.  1.
        -24    2    1    2    0    0 -0.31438550886E+02  0.54883366578E+01  0.92474248133E+02  0.12649080624E+03  0.80186864108E+02 0.  0.
         23    2    1    2    0    0  0.62437587908E+02  0.10880594923E+01 -0.20133781180E+02  0.11472969567E+03  0.94116404875E+02 0.  0.
         11    1    3    3    0    0  0.16522350409E+02  0.28619547890E+02  0.34463273007E+02  0.47747081281E+02  0.00000000000E+00 0. -1.
        -12    1    3    3    0    0 -0.47960901295E+02 -0.23131211232E+02  0.58010975126E+02  0.78743724964E+02  0.00000000000E+00 0.  1.
        -11    1    4    4    0    0  0.20085603464E+02 -0.42990343300E+02  0.67917515529E+01  0.47934632289E+02  0.00000000000E+00 0.  1.
         11    1    4    4    0    0  0.42351984444E+02  0.44078402792E+02 -0.26925532733E+02  0.66795063381E+02  0.00000000000E+00 0. -1.
         -1    1    1    2    0  502 -0.30999037022E+02 -0.65763961501E+01 -0.10133794775E+03  0.10617706408E+03  0.00000000000E+00 0.  1.
<scales pt_clust_5="13000.00000" pt_clust_6="13000.00000" pt_clust_7="13000.00000" pt_clust_8="13000.00000" pt_clust_9="31.68895"></scales>
<clustering>
<clus scale="   31.689">  2  9  1 -1</clus>
<clus scale="   80.187">  5  6 -1 -1</clus>
<clus scale="   88.697">  1  5  2 -1</clus>
<clus scale="   94.116">  7  8 -1 -1</clus>
<clus scale="   31.689">  2  5  1 -1</clus>
</clustering>
</event>
<event>
 9    1  0.5981539E-005  0.2957364E+03  0.7546771E-02  0.1087825E+00
          1   -1    0    0  502    0 -0.00000000000E+00  0.00000000000E+00  0.10668101072E+04  0.10668101072E+04  0.00000000000E+00 0. -1.
         21   -1    0    0  501  502  0.00000000000E+00 -0.00000000000E+00 -0.10836291360E+03  0.10836291360E+03  0.00000000000E+00 0. -1.
        -24    2    1    2    0    0  0.27393935543E+03  0.72886655936E+02  0.56694662667E+03  0.63904765530E+03  0.81229263129E+02 0.  0.
         23    2    1    2    0    0 -0.24936317981E+03 -0.12780017816E+03  0.26758589628E+03  0.39837802820E+03  0.92671249489E+02 0.  0.
         11    1    3    3    0    0  0.65083540197E+02  0.45946915638E+02  0.10908562315E+03  0.13508019633E+03  0.00000000000E+00 0. -1.
        -12    1    3    3    0    0  0.20885581523E+03  0.26939740298E+02  0.45786100352E+03  0.50396745897E+03  0.00000000000E+00 0.  1.
        -11    1    4    4    0    0 -0.25787967890E+02 -0.14566390737E+02  0.80082742020E+02  0.85384100372E+02  0.00000000000E+00 0.  1.
         11    1    4    4    0    0 -0.22357521192E+03 -0.11323378743E+03  0.18750315426E+03  0.31299392783E+03  0.00000000000E+00 0. -1.
          2    1    1    2  501    0 -0.24576175616E+02  0.54913522228E+02  0.12391467065E+03  0.13774733730E+03  0.00000000000E+00 0. -1.
<scales pt_clust_5="13000.00000" pt_clust_6="13000.00000" pt_clust_7="13000.00000" pt_clust_8="13000.00000" pt_clust_9="60.16217"></scales>
<clustering>
<clus scale="   60.162">  2  9  1 -1</clus>
<clus scale="   81.229">  5  6 -1 -1</clus>
<clus scale="   92.671">  7  8 -1 -1</clus>
<clus scale="  292.353">  1  5  2 -1</clus>
<clus scale="   60.162">  2  5  1 -1</clus>
</clustering>
</event>
<event>
 9    1  0.5981539E-005  0.9185207E+02  0.7546771E-02  0.1303991E+00
         21   -1    0    0  501  502  0.00000000000E+00  0.00000000000E+00  0.18918738828E+02  0.18918738828E+02  0.00000000000E+00 0.  1.
         -4   -1    0    0    0  501 -0.00000000000E+00 -0.00000000000E+00 -0.12127762041E+04  0.12127762041E+04  0.00000000000E+00 0.  1.
        -24    2    1    2    0    0  0.41642904232E+01 -0.88570366051E+01 -0.95627500020E+03  0.95989941721E+03  0.82760055229E+02 0.  0.
         23    2    1    2    0    0  0.45560486753E+01 -0.25036004220E+02 -0.19230538267E+03  0.21456968610E+03  0.91712763027E+02 0.  0.
         13    1    3    3    0    0 -0.21831693160E+02  0.98050449720E+01 -0.92951793996E+02  0.95983320115E+02  0.00000000000E+00 0. -1.
        -14    1    3    3    0    0  0.25995983583E+02 -0.18662081577E+02 -0.86332320620E+03  0.86391609709E+03  0.00000000000E+00 0.  1.
        -11    1    4    4    0    0 -0.14130593160E+02 -0.52009692036E+02 -0.72414532670E+02  0.90269298605E+02  0.00000000000E+00 0.  1.
         11    1    4    4    0    0  0.18686641836E+02  0.26973687816E+02 -0.11989085000E+03  0.12430038750E+03  0.00000000000E+00 0. -1.
         -3    1    1    2    0  502 -0.87203390985E+01  0.33893040825E+02 -0.45277082448E+02  0.57225839665E+02  0.00000000000E+00 0.  1.
<scales pt_clust_5="13000.00000" pt_clust_6="13000.00000" pt_clust_7="13000.00000" pt_clust_8="13000.00000" pt_clust_9="34.99689"></scales>
<clustering>
<clus scale="   34.997">  1  9  2 -1</clus>
<clus scale="   82.760">  5  6 -1 -1</clus>
<clus scale="   82.914">  2  5  1 -1</clus>
<clus scale="   91.713">  7  8 -1 -1</clus>
<clus scale="   34.997">  1  5  2 -1</clus>
</clustering>
</event>
<event>
 9    1  0.5981539E-005  0.9551776E+02  0.7546771E-02  0.1296437E+00
         21   -1    0    0  501  502  0.00000000000E+00  0.00000000000E+00  0.41325536905E+02  0.41325536905E+02  0.00000000000E+00 0. -1.
          1   -1    0    0  502    0 -0.00000000000E+00 -0.00000000000E+00 -0.38463383063E+03  0.38463383063E+03  0.00000000000E+00 0. -1.
         23    2    1    2    0    0 -0.25467733954E+02 -0.33391700093E+02 -0.24763620104E+03  0.26725312548E+03  0.91306811948E+02 0.  0.
        -24    2    1    2    0    0  0.12702560417E+02 -0.78448500787E+01 -0.75777498943E+02  0.11117522496E+03  0.79967522062E+02 0.  0.
         13    1    4    4    0    0 -0.29825247508E+02 -0.11537262793E+02 -0.11439087539E+02  0.33963311756E+02  0.00000000000E+00 0. -1.
        -14    1    4    4    0    0  0.42527807925E+02  0.36924127144E+01 -0.64338411404E+02  0.77211913204E+02  0.00000000000E+00 0.  1.
        -11    1    3    3    0    0 -0.27600294440E+02 -0.60627376031E+02 -0.21279849789E+03  0.22298128999E+03  0.00000000000E+00 0. -1.
         11    1    3    3    0    0  0.21325604859E+01  0.27235675938E+02 -0.34837703145E+02  0.44271835499E+02  0.00000000000E+00 0.  1.
          2    1    1    2  501    0  0.12765173537E+02  0.41236550172E+02 -0.19894593739E+02  0.47531017089E+02  0.00000000000E+00 0. -1.
<scales pt_clust_5="13000.00000" pt_clust_6="13000.00000" pt_clust_7="13000.00000" pt_clust_8="13000.00000" pt_clust_9="43.16715"></scales>
<clustering>
<clus scale="   43.167">  1  9  2 -1</clus>
<clus scale="   79.968">  5  6 -1 -1</clus>
<clus scale="   84.744">  1  5  2 -1</clus>
<clus scale="   91.307">  7  8 -1 -1</clus>
<clus scale="   43.167">  1  5  2 -1</clus>
</clustering>
</event>
<event>
 9    1  0.5981539E-005  0.9473574E+02  0.7546771E-02  0.1297488E+00
         21   -1    0    0  501  502  0.00000000000E+00  0.00000000000E+00  0.68205198479E+02  0.68205198479E+02  0.00000000000E+00 0.  1.
          1   -1    0    0  502    0 -0.00000000000E+00 -0.00000000000E+00 -0.23838923878E+03  0.23838923878E+03  0.00000000000E+00 0. -1.
         23    2    1    2    0    0 -0.89148977069E+00 -0.23313853098E+02 -0.14895645969E+03  0.17578855019E+03  0.90383942137E+02 0.  0.
        -24    2    1    2    0    0 -0.37091708942E+01  0.47352360443E+02  0.68469528858E+01  0.93560815644E+02  0.80316508091E+02 0.  0.
         13    1    4    4    0    0  0.31602336705E+02  0.48409616488E+02  0.15006135732E+01  0.57831224220E+02  0.00000000000E+00 0. -1.
        -14    1    4    4    0    0 -0.35311507599E+02 -0.10572560452E+01  0.53463393127E+01  0.35729591424E+02  0.00000000000E+00 0.  1.
        -11    1    3    3    0    0  0.30052532194E+02 -0.45154861660E+02 -0.10136335507E+03  0.11496367241E+03  0.00000000000E+00 0. -1.
         11    1    3    3    0    0 -0.30944021964E+02  0.21841008562E+02 -0.47593104619E+02  0.60824877786E+02  0.00000000000E+00 0.  1.
          2    1    1    2  501    0  0.46006606649E+01 -0.24038507345E+02 -0.28074533498E+02  0.37245071420E+02  0.00000000000E+00 0. -1.
<scales pt_clust_5="13000.00000" pt_clust_6="13000.00000" pt_clust_7="13000.00000" pt_clust_8="13000.00000" pt_clust_9="24.47481"></scales>
<clustering>
<clus scale="   24.475">  1  9  2 -1</clus>
<clus scale="   80.317">  5  6 -1 -1</clus>
<clus scale="   85.184">  1  5  2 -1</clus>
<clus scale="   90.384">  7  8 -1 -1</clus>
<clus scale="   24.475">  1  5  2 -1</clus>
</clustering>
</event>
<event>
 9    1  0.5981539E-005  0.9564356E+02  0.7546771E-02  0.1296505E+00
          3   -1    0    0  502    0 -0.00000000000E+00  0.00000000000E+00  0.18306837683E+03  0.18306837683E+03  0.00000000000E+00 0. -1.
         21   -1    0    0  501  502  0.00000000000E+00 -0.00000000000E+00 -0.13328696404E+03  0.13328696404E+03  0.00000000000E+00 0.  1.
         23    2    1    2    0    0  0.23792791432E+02 -0.25279654312E+02  0.13866548577E+03  0.16918381113E+03  0.90497995330E+02 0.  0.
        -24    2    1    2    0    0 -0.22124948111E+02 -0.95499766151E+01 -0.67766724958E+02  0.10640601393E+03  0.78416805639E+02 0.  0.
         11    1    4    4    0    0  0.91851567307E+01  0.20638563622E+02  0.35556174488E+01  0.22868314936E+02  0.00000000000E+00 0. -1.
        -12    1    4    4    0    0 -0.31310104841E+02 -0.30188540237E+02 -0.71322342407E+02  0.83537698994E+02  0.00000000000E+00 0.  1.
        -13    1    3    3    0    0  0.52770806928E+02 -0.68411081025E+01  0.11711219278E+03  0.12863446086E+03  0.00000000000E+00 0. -1.
         13    1    3    3    0    0 -0.28978015496E+02 -0.18438546209E+02  0.21553292988E+02  0.40549350266E+02  0.00000000000E+00 0.  1.
          4    1    1    2  501    0 -0.16678433213E+01  0.34829630927E+02 -0.21117348017E+02  0.40765515809E+02  0.00000000000E+00 0. -1.
<scales pt_clust_5="13000.00000" pt_clust_6="13000.00000" pt_clust_7="13000.00000" pt_clust_8="13000.00000" pt_clust_9="34.86954"></scales>
<clustering>
<clus scale="   34.870">  2  9  1 -1</clus>
<clus scale="   78.417">  5  6 -1 -1</clus>
<clus scale="   84.303">  2  5  1 -1</clus>
<clus scale="   90.498">  7  8 -1 -1</clus>
<clus scale="   34.870">  2  5  1 -1</clus>
</clustering>
</event>
<event>
 9    1  0.5981539E-005  0.1755356E+03  0.7546771E-02  0.1198131E+00
         21   -1    0    0  501  502  0.00000000000E+00  0.00000000000E+00  0.87975575385E+02  0.87975575385E+02  0.00000000000E+00 0. -1.
          1   -1    0    0  502    0 -0.00000000000E+00 -0.00000000000E+00 -0.54340509718E+03  0.54340509718E+03  0.00000000000E+00 0. -1.
        -24    2    1    2    0    0 -0.49465640066E+02  0.26987841986E+02 -0.61833721038E+02  0.11629027763E+03  0.80776397867E+02 0.  0.
         23    2    1    2    0    0  0.62798812674E+02 -0.15798583394E+03 -0.17811734130E+03  0.26256472519E+03  0.91165964290E+02 0.  0.
         11    1    3    3    0    0 -0.28617236546E+02 -0.26816488426E+02 -0.35357579656E+02  0.52803680915E+02  0.00000000000E+00 0. -1.
        -12    1    3    3    0    0 -0.20848403520E+02  0.53804330412E+02 -0.26476141382E+02  0.63486596718E+02  0.00000000000E+00 0.  1.
        -11    1    4    4    0    0 -0.15979445590E+02 -0.22247962571E+02 -0.60591949936E+02  0.66495856389E+02  0.00000000000E+00 0.  1.
         11    1    4    4    0    0  0.78778258263E+02 -0.13573787137E+03 -0.11752539137E+03  0.19606886881E+03  0.00000000000E+00 0. -1.
          2    1    1    2  501    0 -0.13333172608E+02  0.13099799195E+03 -0.21547845945E+03  0.25252566973E+03  0.00000000000E+00 0. -1.
<scales pt_clust_5="13000.00000" pt_clust_6="13000.00000" pt_clust_7="13000.00000" pt_clust_8="13000.00000" pt_clust_9="150.00513"></scales>
<clustering>
<clus scale="   80.776">  5  6 -1 -1</clus>
<clus scale="   91.166">  7  8 -1 -1</clus>
<clus scale="   98.489">  2  5  1 -1</clus>
<clus scale="  150.005">  1  9  2 -1</clus>
<clus scale="  150.005">  1  5  2 -1</clus>
</clustering>
</event>
<event>
 9    1  0.5981539E-005  0.1345130E+03  0.7546771E-02  0.1223601E+00
         -4   -1    0    0    0  501 -0.00000000000E+00  0.00000000000E+00  0.95402919269E+02  0.95402919269E+02  0.00000000000E+00 0.  1.
         21   -1    0    0  501  502  0.00000000000E+00 -0.00000000000E+00 -0.46806162033E+03  0.46806162033E+03  0.00000000000E+00 0. -1.
        -24    2    1    2    0    0 -0.34917175635E+02  0.92644703793E+02  0.15034169931E+02  0.12826764486E+03  0.80151806943E+02 0.  0.
         23    2    1    2    0    0  0.72226658077E+02 -0.74915335749E+02 -0.35931288171E+03  0.38507951489E+03  0.91386476885E+02 0.  0.
         13    1    3    3    0    0 -0.43626714970E+02  0.22474749883E+02  0.27820234227E+02  0.56412499270E+02  0.00000000000E+00 0. -1.
        -14    1    3    3    0    0  0.87095393347E+01  0.70169953910E+02 -0.12786064296E+02  0.71855145587E+02  0.00000000000E+00 0.  1.
        -11    1    4    4    0    0  0.11499372963E+02 -0.76772384463E+02 -0.19394220048E+03  0.20890144021E+03  0.00000000000E+00 0.  1.
         11    1    4    4    0    0  0.60727285115E+02  0.18570487147E+01 -0.16537068123E+03  0.17617807468E+03  0.00000000000E+00 0. -1.
         -3    1    1    2    0  502 -0.37309482442E+02 -0.17729368045E+02 -0.28379989275E+02  0.50117379846E+02  0.00000000000E+00 0.  1.
<scales pt_clust_5="13000.00000" pt_clust_6="13000.00000" pt_clust_7="13000.00000" pt_clust_8="13000.00000" pt_clust_9="41.30774"></scales>
<clustering>
<clus scale="   41.308">  2  9  1 -1</clus>
<clus scale="   80.152">  5  6 -1 -1</clus>
<clus scale="   91.386">  7  8 -1 -1</clus>
<clus scale="  127.148">  1  5  2 -1</clus>
<clus scale="   41.308">  2  5  1 -1</clus>
</clustering>
</event>
<event>
 9    1  0.5981539E-005  0.1551270E+03  0.7546771E-02  0.1206795E+00
         -4   -1    0    0    0  501 -0.00000000000E+00  0.00000000000E+00  0.16017909972E+03  0.16017909972E+03  0.00000000000E+00 0.  1.
         21   -1    0    0  501  502  0.00000000000E+00 -0.00000000000E+00 -0.34711089168E+03  0.34711089168E+03  0.00000000000E+00 0.  1.
         23    2    1    2    0    0  0.73372865364E+02 -0.84442289685E+01 -0.10816983360E+03  0.16030956959E+03  0.92431395233E+02 0.  0.
        -24    2    1    2    0    0 -0.21806084879E+02 -0.12270984720E+03  0.50505844309E+02  0.15574577706E+03  0.78566499381E+02 0.  0.
         13    1    4    4    0    0  0.14859407004E+02 -0.10584276096E+03  0.34227788294E+02  0.11222759694E+03  0.00000000000E+00 0. -1.
        -14    1    4    4    0    0 -0.36665491884E+02 -0.16867086246E+02  0.16278056015E+02  0.43518180122E+02  0.00000000000E+00 0.  1.
        -13    1    3    3    0    0  0.14764214656E+02 -0.45891285901E+02 -0.52014591175E+02  0.70919037297E+02  0.00000000000E+00 0.  1.
         13    1    3    3    0    0  0.58608650709E+02  0.37447056933E+02 -0.56155242430E+02  0.89390532291E+02  0.00000000000E+00 0. -1.
         -3    1    1    2    0  502 -0.51566780485E+02  0.13115407617E+03 -0.12926780266E+03  0.19123464474E+03  0.00000000000E+00 0.  1.
<scales pt_clust_5="13000.00000" pt_clust_6="13000.00000" pt_clust_7="13000.00000" pt_clust_8="13000.00000" pt_clust_9="133.75982"></scales>
<clustering>
<clus scale="   78.566">  5  6 -1 -1</clus>
<clus scale="   92.431">  7  8 -1 -1</clus>
<clus scale="  118.315">  1  7  2 -1</clus>
<clus scale="  133.760">  2  9  1 -1</clus>
<clus scale="  133.760">  2  5  1 -1</clus>
</clustering>
</event>
<event>
 9    1  0.5981539E-005  0.9408704E+02  0.7546771E-02  0.1307696E+00
          1   -1    0    0  502    0 -0.00000000000E+00  0.00000000000E+00  0.39539150861E+03  0.39539150861E+03  0.00000000000E+00 0. -1.
         21   -1    0    0  501  502  0.00000000000E+00 -0.00000000000E+00 -0.69803129583E+02  0.69803129583E+02  0.00000000000E+00 0. -1.
         23    2    1    2    0    0  0.10151846679E+02 -0.15952726708E+02  0.33213388618E+03  0.34506510635E+03  0.91648566762E+02 0.  0.
        -24    2    1    2    0    0 -0.27534107558E+02  0.32915671797E+02 -0.29847152855E+02  0.86471677013E+02  0.68883451301E+02 0.  0.
         13    1    4    4    0    0 -0.30874330298E+02  0.49330363971E+02 -0.76993451085E+01  0.58702546759E+02  0.00000000000E+00 0. -1.
        -14    1    4    4    0    0  0.33402227404E+01 -0.16414692174E+02 -0.22147807747E+02  0.27769130255E+02  0.00000000000E+00 0.  1.
        -13    1    3    3    0    0 -0.32210194181E+02 -0.28766996140E+02  0.22572840022E+03  0.22982242567E+03  0.00000000000E+00 0. -1.
         13    1    3    3    0    0  0.42362040860E+02  0.12814269433E+02  0.10640548596E+03  0.11524268068E+03  0.00000000000E+00 0.  1.
          2    1    1    2  501    0  0.17382260879E+02 -0.16962945090E+02  0.23301645700E+02  0.33657854829E+02  0.00000000000E+00 0. -1.
<scales pt_clust_5="13000.00000" pt_clust_6="13000.00000" pt_clust_7="13000.00000" pt_clust_8="13000.00000" pt_clust_9="24.28754"></scales>
<clustering>
<clus scale="   24.288">  2  9  1 -1</clus>
<clus scale="   68.883">  5  6 -1 -1</clus>
<clus scale="   72.096">  2  5  1 -1</clus>
<clus scale="   91.649">  7  8 -1 -1</clus>
<clus scale="   24.288">  2  5  1 -1</clus>
</clustering>
</event>
<event>
 9    1  0.5981539E-005  0.1177857E+03  0.7546771E-02  0.1253064E+00
          1   -1    0    0  502    0 -0.00000000000E+00  0.00000000000E+00  0.28943901102E+03  0.28943901102E+03  0.00000000000E+00 0. -1.
         21   -1    0    0  501  502  0.00000000000E+00 -0.00000000000E+00 -0.24720661122E+03  0.24720661122E+03  0.00000000000E+00 0. -1.
         23    2    1    2    0    0 -0.45838998799E+02 -0.86863104615E+01  0.21541223360E+03  0.23846015643E+03  0.91017306151E+02 0.  0.
        -24    2    1    2    0    0  0.71204755873E+02  0.13095932207E+01 -0.53533366061E+01  0.12829264445E+03  0.10657632061E+03 0.  0.
         11    1    4    4    0    0  0.79529309199E+02 -0.47753420573E+01  0.34723533352E+02  0.86910521123E+02  0.00000000000E+00 0. -1.
        -12    1    4    4    0    0 -0.83245533262E+01  0.60849352781E+01 -0.40076869958E+02  0.41382123327E+02  0.00000000000E+00 0.  1.
        -11    1    3    3    0    0 -0.57222530476E+02  0.26497701819E+02  0.15855781722E+03  0.17063741559E+03  0.00000000000E+00 0.  1.
         11    1    3    3    0    0  0.11383531677E+02 -0.35184012281E+02  0.56854416378E+02  0.67822740842E+02  0.00000000000E+00 0. -1.
          2    1    1    2  501    0 -0.25365757074E+02  0.73767172407E+01 -0.16782649719E+03  0.16989282136E+03  0.00000000000E+00 0. -1.
<scales pt_clust_5="13000.00000" pt_clust_6="13000.00000" pt_clust_7="13000.00000" pt_clust_8="13000.00000" pt_clust_9="26.41662"></scales>
<clustering>
<clus scale="   26.417">  2  9  1 -1</clus>
<clus scale="   91.017">  7  8 -1 -1</clus>
<clus scale="  103.919">  1  7  2 -1</clus>
<clus scale="  106.576">  5  6 -1 -1</clus>
<clus scale="   26.417">  2  5  1 -1</clus>
</clustering>
</event>
<event>
 9    1  0.5981539E-005  0.1415152E+03  0.7546771E-02  0.1227570E+00
         21   -1    0    0  501  502  0.00000000000E+00  0.00000000000E+00  0.53120833636E+03  0.53120833636E+03  0.00000000000E+00 0. -1.
          1   -1    0    0  502    0 -0.00000000000E+00 -0.00000000000E+00 -0.11948632469E+03  0.11948632469E+03  0.00000000000E+00 0. -1.
         23    2    1    2    0    0 -0.11770356026E+02  0.26040407826E+02 -0.45327559769E+02  0.11028479859E+03  0.96392453051E+02 0.  0.
        -24    2    1    2    0    0 -0.10976080745E+03 -0.37722692614E+02  0.12417586639E+03  0.18585210555E+03  0.75172621045E+02 0.  0.
         11    1    4    4    0    0 -0.88378565144E+02 -0.21140429132E+02  0.43475786151E+02  0.10073645071E+03  0.00000000000E+00 0. -1.
        -12    1    4    4    0    0 -0.21382242304E+02 -0.16582263483E+02  0.80700080239E+02  0.85115654839E+02  0.00000000000E+00 0.  1.
        -13    1    3    3    0    0  0.31847043571E+02 -0.10935632474E+02  0.50849448232E+01  0.34054058578E+02  0.00000000000E+00 0.  1.
         13    1    3    3    0    0 -0.43617399597E+02  0.36976040300E+02 -0.50412504592E+02  0.76230740014E+02  0.00000000000E+00 0. -1.
          2    1    1    2  501    0  0.12153116347E+03  0.11682284789E+02  0.33287370504E+03  0.35455775690E+03  0.00000000000E+00 0. -1.
<scales pt_clust_5="13000.00000" pt_clust_6="13000.00000" pt_clust_7="13000.00000" pt_clust_8="13000.00000" pt_clust_9="119.89840"></scales>
<clustering>
<clus scale="   75.173">  5  6 -1 -1</clus>
<clus scale="   96.392">  7  8 -1 -1</clus>
<clus scale="  100.539">  2  7  1 -1</clus>
<clus scale="  119.898">  1  9  2 -1</clus>
<clus scale="  119.898">  1  5  2 -1</clus>
</clustering>
</event>
<event>
 9    1  0.5981539E-005  0.1901288E+03  0.7546771E-02  0.1159621E+00
          1   -1    0    0  502    0 -0.00000000000E+00  0.00000000000E+00  0.53387727500E+03  0.53387727500E+03  0.00000000000E+00 0. -1.
         21   -1    0    0  501  502  0.00000000000E+00 -0.00000000000E+00 -0.94068069094E+02  0.94068069094E+02  0.00000000000E+00 0.  1.
        -24    2    1    2    0    0 -0.16838862963E+03  0.43272200210E+02  0.33178360818E+03  0.38306922215E+03  0.80215038536E+02 0.  0.
         23    2    1    2    0    0  0.14278412280E+03 -0.33756889054E+02  0.49482398922E+02  0.18027396994E+03  0.92322062111E+02 0.  0.
         13    1    3    3    0    0 -0.10426560951E+03  0.59743137798E+02  0.25352858640E+03  0.28056604207E+03  0.00000000000E+00 0. -1.
        -14    1    3    3    0    0 -0.64123020118E+02 -0.16470937588E+02  0.78255021778E+02  0.10250318008E+03  0.00000000000E+00 0.  1.
        -11    1    4    4    0    0  0.50167569638E+02  0.22251059500E+02 -0.11455970799E+02  0.56063659880E+02  0.00000000000E+00 0.  1.
         11    1    4    4    0    0  0.92616553158E+02 -0.56007948554E+02  0.60938369721E+02  0.12421031006E+03  0.00000000000E+00 0. -1.
          2    1    1    2  501    0  0.25604506835E+02 -0.95153111553E+01  0.58543198808E+02  0.64602152003E+02  0.00000000000E+00 0. -1.
<scales pt_clust_5="13000.00000" pt_clust_6="13000.00000" pt_clust_7="13000.00000" pt_clust_8="13000.00000" pt_clust_9="27.31543"></scales>
<clustering>
<clus scale="   27.315">  2  9  1 -1</clus>
<clus scale="   80.215">  5  6 -1 -1</clus>
<clus scale="   92.322">  7  8 -1 -1</clus>
<clus scale="  184.554">  1  5  2 -1</clus>
<clus scale="   27.315">  2  5  1 -1</clus>
</clustering>
</event>
<event>
 9    1  0.5981539E-005  0.1131829E+03  0.7546771E-02  0.1260020E+00
          1   -1    0    0  502    0 -0.00000000000E+00  0.00000000000E+00  0.12893830561E+04  0.12893830561E+04  0.00000000000E+00 0. -1.
         21   -1    0    0  501  502  0.00000000000E+00 -0.00000000000E+00 -0.95742311820E+02  0.95742311820E+02  0.00000000000E+00 0. -1.
        -24    2    1    2    0    0 -0.40648794901E+02 -0.45138716118E+02  0.32899238998E+03  0.34446414875E+03  0.82034924827E+02 0.  0.
         23    2    1    2    0    0 -0.66011978224E+02 -0.11463453435E+01 -0.46982412809E+02  0.12164572257E+03  0.90727279969E+02 0.  0.
         13    1    3    3    0    0 -0.26559990380E+02 -0.18302273066E+02  0.30355036918E+02  0.44292601579E+02  0.00000000000E+00 0. -1.
        -14    1    3    3    0    0 -0.14088804521E+02 -0.26836443052E+02  0.29863735306E+03  0.30017154718E+03  0.00000000000E+00 0.  1.
        -11    1    4    4    0    0 -0.62704142165E+02  0.37219183468E+02 -0.23828712338E+02  0.76713001469E+02  0.00000000000E+00 0.  1.
         11    1    4    4    0    0 -0.33078360593E+01 -0.38365528812E+02 -0.23153700471E+02  0.44932721105E+02  0.00000000000E+00 0. -1.
          2    1    1    2  501    0  0.10666077313E+03  0.46285061462E+02  0.91163076709E+03  0.91901549658E+03  0.00000000000E+00 0. -1.
<scales pt_clust_5="13000.00000" pt_clust_6="13000.00000" pt_clust_7="13000.00000" pt_clust_8="13000.00000" pt_clust_9="67.66774"></scales>
<clustering>
<clus scale="   82.035">  5  6 -1 -1</clus>
<clus scale="   90.727">  7  8 -1 -1</clus>
<clus scale="  102.076">  1  5  2 -1</clus>
<clus scale="   67.668">  2  9  1 -1</clus>
<clus scale="   67.668">  2  5  1 -1</clus>
</clustering>
</event>
<event>
 9    1  0.5981539E-005  0.1586875E+03  0.7546771E-02  0.1214388E+00
          3   -1    0    0  502    0 -0.00000000000E+00  0.00000000000E+00  0.29467606900E+03  0.29467606900E+03  0.00000000000E+00 0. -1.
         21   -1    0    0  501  502  0.00000000000E+00 -0.00000000000E+00 -0.14875731942E+03  0.14875731942E+03  0.00000000000E+00 0.  1.
         23    2    1    2    0    0  0.61218424773E+01  0.25368073167E+02  0.70582123508E+02  0.11754905134E+03  0.90304635653E+02 0.  0.
        -24    2    1    2    0    0 -0.10381135622E+03 -0.97986701172E+02 -0.26334856092E+02  0.16728485249E+03  0.83141481458E+02 0.  0.
         11    1    4    4    0    0  0.85753128844E+01 -0.19073115346E+02  0.12767250406E+02  0.24501477567E+02  0.00000000000E+00 0. -1.
        -12    1    4    4    0    0 -0.11238666911E+03 -0.78913585826E+02 -0.39102106498E+02  0.14278337492E+03  0.00000000000E+00 0.  1.
        -11    1    3    3    0    0 -0.20427270280E+02 -0.25325580950E+02  0.43275867565E+02  0.54142950927E+02  0.00000000000E+00 0.  1.
         11    1    3    3    0    0  0.26549112758E+02  0.50693654117E+02  0.27306255943E+02  0.63406100413E+02  0.00000000000E+00 0. -1.
          4    1    1    2  501    0  0.97689513747E+02  0.72618628005E+02  0.10167148217E+03  0.15859948460E+03  0.00000000000E+00 0. -1.
<scales pt_clust_5="13000.00000" pt_clust_6="13000.00000" pt_clust_7="13000.00000" pt_clust_8="13000.00000" pt_clust_9="135.16379"></scales>
<clustering>
<clus scale="   83.141">  5  6 -1 -1</clus>
<clus scale="   90.305">  7  8 -1 -1</clus>
<clus scale="   94.000">  1  7  2 -1</clus>
<clus scale="  135.164">  2  9  1 -1</clus>
<clus scale="  135.164">  2  5  1 -1</clus>
</clustering>
</event>
<event>
 9    1  0.5981539E-005  0.1072413E+03  0.7546771E-02  0.1266297E+00
         21   -1    0    0  501  502  0.00000000000E+00  0.00000000000E+00  0.37363030304E+02  0.37363030304E+02  0.00000000000E+00 0.  1.
          1   -1    0    0  502    0 -0.00000000000E+00 -0.00000000000E+00 -0.78863614364E+03  0.78863614364E+03  0.00000000000E+00 0. -1.
        -24    2    1    2    0    0 -0.43831381187E+00  0.75038796618E+02 -0.54775883279E+03  0.55877977086E+03  0.81019012040E+02 0.  0.
         23    2    1    2    0    0  0.16443454381E+02 -0.43871887530E+02 -0.41080708595E+02  0.10105019401E+03  0.79551162045E+02 0.  0.
         11    1    3    3    0    0  0.30558509628E+02  0.73244965371E+02 -0.38906307078E+03  0.39707520762E+03  0.00000000000E+00 0. -1.
        -12    1    3    3    0    0 -0.30996823440E+02  0.17938312470E+01 -0.15869576201E+03  0.16170456325E+03  0.00000000000E+00 0.  1.
        -11    1    4    4    0    0 -0.67933671392E+01 -0.60595423994E+02 -0.16125219774E+02  0.63071213392E+02  0.00000000000E+00 0. -1.
         11    1    4    4    0    0  0.23236821520E+02  0.16723536463E+02 -0.24955488821E+02  0.37978980614E+02  0.00000000000E+00 0.  1.
          2    1    1    2  501    0 -0.16005140569E+02 -0.31166909087E+02 -0.16243357195E+03  0.16616920907E+03  0.00000000000E+00 0. -1.
<scales pt_clust_5="13000.00000" pt_clust_6="13000.00000" pt_clust_7="13000.00000" pt_clust_8="13000.00000" pt_clust_9="35.03630"></scales>
<clustering>
<clus scale="   35.036">  1  9  2 -1</clus>
<clus scale="   79.551">  7  8 -1 -1</clus>
<clus scale="   81.019">  5  6 -1 -1</clus>
<clus scale="  106.137">  1  7  2 -1</clus>
<clus scale="   35.036">  1  5  2 -1</clus>
</clustering>
</event>
<event>
 9    1  0.5981539E-005  0.1280266E+03  0.7546771E-02  0.1256036E+00
         21   -1    0    0  501  502  0.00000000000E+00  0.00000000000E+00  0.26270222286E+03  0.26270222286E+03  0.00000000000E+00 0. -1.
          1   -1    0    0  502    0 -0.00000000000E+00 -0.00000000000E+00 -0.26694610267E+03  0.26694610267E+03  0.00000000000E+00 0. -1.
        -24    2    1    2    0    0  0.24435994018E+02  0.11781173791E+02 -0.21090224956E+03  0.22427700546E+03  0.71305697161E+02 0.  0.
         23    2    1    2    0    0 -0.10729974797E+03 -0.10539891346E+02  0.11392299027E+03  0.18100173732E+03  0.90326385841E+02 0.  0.
         11    1    3    3    0    0  0.36800731859E+01 -0.28833826291E+02 -0.10545706728E+03  0.10938978707E+03  0.00000000000E+00 0. -1.
        -12    1    3    3    0    0  0.20755920832E+02  0.40615000082E+02 -0.10544518229E+03  0.11488721839E+03  0.00000000000E+00 0.  1.
        -11    1    4    4    0    0 -0.56075290844E+02 -0.22550037865E+02  0.11326750866E+03  0.12838407600E+03  0.00000000000E+00 0. -1.
         11    1    4    4    0    0 -0.51224457128E+02  0.12010146519E+02  0.65548160356E+00  0.52617661328E+02  0.00000000000E+00 0.  1.
          2    1    1    2  501    0  0.82863753954E+02 -0.12412824451E+01  0.92735379491E+02  0.12436958274E+03  0.00000000000E+00 0. -1.
<scales pt_clust_5="13000.00000" pt_clust_6="13000.00000" pt_clust_7="13000.00000" pt_clust_8="13000.00000" pt_clust_9="90.73007"></scales>
<clustering>
<clus scale="   71.306">  5  6 -1 -1</clus>
<clus scale="   76.292">  2  5  1 -1</clus>
<clus scale="   90.326">  7  8 -1 -1</clus>
<clus scale="   90.730">  1  9  2 -1</clus>
<clus scale="   90.730">  1  5  2 -1</clus>
</clustering>
</event>
<event>
 9    1  0.5981539E-005  0.1673278E+03  0.7546771E-02  0.1212920E+00
         21   -1    0    0  501  502  0.00000000000E+00  0.00000000000E+00  0.37874309824E+03  0.37874309824E+03  0.00000000000E+00 0.  1.
          1   -1    0    0  502    0 -0.00000000000E+00 -0.00000000000E+00 -0.11027782762E+03  0.11027782762E+03  0.00000000000E+00 0. -1.
        -24    2    1    2    0    0 -0.16836348330E+02 -0.73281929848E+01  0.80317070364E+02  0.11529362203E+03  0.80651239615E+02 0.  0.
         23    2    1    2    0    0  0.14735762328E+03 -0.41378744156E+02  0.62615023493E+02  0.18619931283E+03  0.85574957361E+02 0.  0.
         13    1    3    3    0    0 -0.16971632422E+02  0.30638045711E+02  0.11796854437E+02  0.36957975143E+02  0.00000000000E+00 0. -1.
        -14    1    3    3    0    0  0.13528409215E+00 -0.37966238696E+02  0.68520215926E+02  0.78335646886E+02  0.00000000000E+00 0.  1.
        -13    1    4    4    0    0  0.95591159797E+02 -0.67808442503E+02  0.40148224255E+02  0.12388516706E+03  0.00000000000E+00 0.  1.
         13    1    4    4    0    0  0.51766463480E+02  0.26429698347E+02  0.22466799238E+02  0.62314145777E+02  0.00000000000E+00 0. -1.
          2    1    1    2  501    0 -0.13052127495E+03  0.48706937141E+02  0.12553317676E+03  0.18752799100E+03  0.00000000000E+00 0. -1.
<scales pt_clust_5="13000.00000" pt_clust_6="13000.00000" pt_clust_7="13000.00000" pt_clust_8="13000.00000" pt_clust_9="143.78985"></scales>
<clustering>
<clus scale="   80.651">  5  6 -1 -1</clus>
<clus scale="   82.715">  2  5  1 -1</clus>
<clus scale="   85.575">  7  8 -1 -1</clus>
<clus scale="  143.790">  1  9  2 -1</clus>
<clus scale="  143.790">  1  5  2 -1</clus>
</clustering>
</event>
<event>
 9    1  0.5981539E-005  0.1790153E+03  0.7546771E-02  0.1202109E+00
         21   -1    0    0  501  502  0.00000000000E+00  0.00000000000E+00  0.10072567621E+03  0.10072567621E+03  0.00000000000E+00 0.  1.
         -2   -1    0    0    0  501 -0.00000000000E+00 -0.00000000000E+00 -0.45326102494E+03  0.45326102494E+03  0.00000000000E+00 0.  1.
        -24    2    1    2    0    0  0.73768611155E+01  0.15139424429E+02 -0.36524305125E+02  0.92672740578E+02  0.83490069646E+02 0.  0.
         23    2    1    2    0    0 -0.15674586087E+03  0.19635967634E+02 -0.14907631025E+03  0.23462555950E+03  0.88716237347E+02 0.  0.
         13    1    3    3    0    0  0.90684877511E+01  0.40215654745E+02  0.75736891083E+01  0.41915356653E+02  0.00000000000E+00 0. -1.
        -14    1    3    3    0    0 -0.16916266356E+01 -0.25076230316E+02 -0.44097994233E+02  0.50757383925E+02  0.00000000000E+00 0.  1.
        -13    1    4    4    0    0 -0.12414632835E+03  0.43863318369E+02 -0.78771475830E+02  0.15343157089E+03  0.00000000000E+00 0.  1.
         13    1    4    4    0    0 -0.32599532523E+02 -0.24227350735E+02 -0.70304834422E+02  0.81193988617E+02  0.00000000000E+00 0. -1.
         -1    1    1    2    0  502  0.14936899975E+03 -0.34775392063E+02 -0.16693473335E+03  0.22668840107E+03  0.00000000000E+00 0.  1.
<scales pt_clust_5="13000.00000" pt_clust_6="13000.00000" pt_clust_7="13000.00000" pt_clust_8="13000.00000" pt_clust_9="155.48606"></scales>
<clustering>
<clus scale="   83.490">  5  6 -1 -1</clus>
<clus scale="   85.172">  2  5  1 -1</clus>
<clus scale="   88.716">  7  8 -1 -1</clus>
<clus scale="  155.486">  1  9  2 -1</clus>
<clus scale="  155.486">  1  5  2 -1</clus>
</clustering>
</event>
<event>
 9    1  0.5981539E-005  0.1256108E+03  0.7546771E-02  0.1237284E+00
         21   -1    0    0  501  502  0.00000000000E+00  0.00000000000E+00  0.27885004570E+03  0.27885004570E+03  0.00000000000E+00 0. -1.
         -2   -1    0    0    0  501 -0.00000000000E+00 -0.00000000000E+00 -0.89892250255E+02  0.89892250255E+02  0.00000000000E+00 0.  1.
        -24    2    1    2    0    0  0.92164839475E+02  0.73796042277E+01  0.81069504837E+02  0.14611115999E+03  0.78913815430E+02 0.  0.
         23    2    1    2    0    0 -0.70599416085E+02 -0.54999749018E+02  0.11305173909E+03  0.17010107908E+03  0.90246503807E+02 0.  0.
         13    1    3    3    0    0  0.19499605533E+02  0.36433580336E+02  0.40915592747E+02  0.58152610619E+02  0.00000000000E+00 0. -1.
        -14    1    3    3    0    0  0.72665233942E+02 -0.29053976108E+02  0.40153912090E+02  0.87958549373E+02  0.00000000000E+00 0.  1.
        -11    1    4    4    0    0 -0.49432966060E+02 -0.75196363096E+02  0.10772049339E+03  0.14036315703E+03  0.00000000000E+00 0. -1.
         11    1    4    4    0    0 -0.21166450025E+02  0.20196614077E+02  0.53312456979E+01  0.29737922045E+02  0.00000000000E+00 0.  1.
         -1    1    1    2    0  502 -0.21565423390E+02  0.47620144791E+02 -0.51634484818E+01  0.52530056882E+02  0.00000000000E+00 0.  1.
<scales pt_clust_5="13000.00000" pt_clust_6="13000.00000" pt_clust_7="13000.00000" pt_clust_8="13000.00000" pt_clust_9="52.27570"></scales>
<clustering>
<clus scale="   52.276">  1  9  2 -1</clus>
<clus scale="   78.914">  5  6 -1 -1</clus>
<clus scale="   90.247">  7  8 -1 -1</clus>
<clus scale="  117.733">  2  5  1 -1</clus>
<clus scale="   52.276">  1  5  2 -1</clus>
</clustering>
</event>
<event>
 9    1  0.5981539E-005  0.9885670E+02  0.7546771E-02  0.1286970E+00
         21   -1    0    0  501  502  0.00000000000E+00  0.00000000000E+00  0.78423518843E+03  0.78423518843E+03  0.00000000000E+00 0. -1.
          1   -1    0    0  502    0 -0.00000000000E+00 -0.00000000000E+00 -0.42104104499E+02  0.42104104499E+02  0.00000000000E+00 0. -1.
         23    2    1    2    0    0 -0.58645653199E+01 -0.44726747814E+02  0.14746601932E+03  0.17911931860E+03  0.91118759578E+02 0.  0.
        -24    2    1    2    0    0  0.98888161052E+01  0.11716701931E+02  0.60620256011E+03  0.61202094698E+03  0.82783004723E+02 0.  0.
         13    1    4    4    0    0  0.30744689345E+02 -0.21735504069E+02  0.17415343520E+03  0.17817712269E+03  0.00000000000E+00 0. -1.
        -14    1    4    4    0    0 -0.20855873240E+02  0.33452206000E+02  0.43204912491E+03  0.43384382428E+03  0.00000000000E+00 0.  1.
        -11    1    3    3    0    0  0.25691709877E+02 -0.42575988008E+02  0.31377474272E+02  0.58799018724E+02  0.00000000000E+00 0.  1.
         11    1    3    3    0    0 -0.31556275197E+02 -0.21507598063E+01  0.11608854505E+03  0.12032029988E+03  0.00000000000E+00 0. -1.
          2    1    1    2  501    0 -0.40242507854E+01  0.33010045883E+02 -0.11537495499E+02  0.35199027345E+02  0.00000000000E+00 0. -1.
<scales pt_clust_5="13000.00000" pt_clust_6="13000.00000" pt_clust_7="13000.00000" pt_clust_8="13000.00000" pt_clust_9="33.25446"></scales>
<clustering>
<clus scale="   33.254">  1  9  2 -1</clus>
<clus scale="   82.783">  5  6 -1 -1</clus>
<clus scale="   91.119">  7  8 -1 -1</clus>
<clus scale="   91.231">  1  5  2 -1</clus>
<clus scale="   33.254">  1  5  2 -1</clus>
</clustering>
</event>
<event>
 9    1  0.5981539E-005  0.1232616E+03  0.7546771E-02  0.1241308E+00
         -4   -1    0    0    0  501 -0.00000000000E+00  0.00000000000E+00  0.69513419092E+02  0.69513419092E+02  0.00000000000E+00 0.  1.
         21   -1    0    0  501  502  0.00000000000E+00 -0.00000000000E+00 -0.33461854097E+03  0.33461854097E+03  0.00000000000E+00 0.  1.
         23    2    1    2    0    0  0.66605027854E+01  0.58331777022E+02 -0.99947773320E+02  0.14843108262E+03  0.92710681096E+02 0.  0.
        -24    2    1    2    0    0 -0.44066700279E+02 -0.10187984040E+03 -0.12296936461E+03  0.18445845030E+03  0.81130014797E+02 0.  0.
         11    1    4    4    0    0 -0.30041514631E+02 -0.33016853818E+02 -0.10164943869E+03  0.11101897866E+03  0.00000000000E+00 0. -1.
        -12    1    4    4    0    0 -0.14025185649E+02 -0.68862986582E+02 -0.21319925925E+02  0.73439471641E+02  0.00000000000E+00 0.  1.
        -13    1    3    3    0    0 -0.15269554891E+02  0.36097201328E+02 -0.10906822073E+03  0.11589669548E+03  0.00000000000E+00 0.  1.
         13    1    3    3    0    0  0.21930057676E+02  0.22234575693E+02  0.91204474074E+01  0.32534387144E+02  0.00000000000E+00 0. -1.
         -3    1    1    2    0  502  0.37406197494E+02  0.43548063378E+02 -0.42187983944E+02  0.71242427136E+02  0.00000000000E+00 0.  1.
<scales pt_clust_5="13000.00000" pt_clust_6="13000.00000" pt_clust_7="13000.00000" pt_clust_8="13000.00000" pt_clust_9="57.40785"></scales>
<clustering>
<clus scale="   57.408">  2  9  1 -1</clus>
<clus scale="   81.130">  5  6 -1 -1</clus>
<clus scale="   92.711">  7  8 -1 -1</clus>
<clus scale="  114.805">  2  5  1 -1</clus>
<clus scale="   57.408">  2  5  1 -1</clus>
</clustering>
</event>
<event>
 9    1  0.5981539E-005  0.9626619E+02  0.7546771E-02  0.1292995E+00
         21   -1    0    0  501  502  0.00000000000E+00  0.00000000000E+00  0.89018148311E+02  0.89018148311E+02  0.00000000000E+00 0. -1.
          1   -1    0    0  502    0 -0.00000000000E+00 -0.00000000000E+00 -0.17276866620E+03  0.17276866620E+03  0.00000000000E+00 0. -1.
        -24    2    1    2    0    0 -0.10330028959E+02 -0.37773100628E+02 -0.85694998592E+02  0.12393542448E+03  0.80516085520E+02 0.  0.
         23    2    1    2    0    0 -0.17489472011E+02  0.32848433117E+02 -0.23871878374E+02  0.99580495351E+02  0.89227278832E+02 0.  0.
         13    1    3    3    0    0  0.20036307790E+02 -0.36349130621E+02 -0.10478320864E+02  0.42807804602E+02  0.00000000000E+00 0. -1.
        -14    1    3    3    0    0 -0.30366336749E+02 -0.14239700074E+01 -0.75216677729E+02  0.81127619876E+02  0.00000000000E+00 0.  1.
        -11    1    4    4    0    0  0.20843150957E+02 -0.32509964804E+01  0.21465754333E+02  0.30096254402E+02  0.00000000000E+00 0.  1.
         11    1    4    4    0    0 -0.38332622968E+02  0.36099429597E+02 -0.45337632707E+02  0.69484240949E+02  0.00000000000E+00 0. -1.
          2    1    1    2  501    0  0.27819500970E+02  0.49246675114E+01  0.25816359073E+02  0.38270894686E+02  0.00000000000E+00 0. -1.
<scales pt_clust_5="13000.00000" pt_clust_6="13000.00000" pt_clust_7="13000.00000" pt_clust_8="13000.00000" pt_clust_9="28.25203"></scales>
<clustering>
<clus scale="   28.252">  1  9  2 -1</clus>
<clus scale="   80.516">  5  6 -1 -1</clus>
<clus scale="   88.253">  2  5  1 -1</clus>
<clus scale="   89.227">  7  8 -1 -1</clus>
<clus scale="   28.252">  1  5  2 -1</clus>
</clustering>
</event>
<event>
 9    1  0.5981539E-005  0.1038144E+03  0.7546771E-02  0.1278377E+00
         21   -1    0    0  501  502  0.00000000000E+00  0.00000000000E+00  0.39961572600E+02  0.39961572600E+02  0.00000000000E+00 0.  1.
          1   -1    0    0  502    0 -0.00000000000E+00 -0.00000000000E+00 -0.80214046252E+03  0.80214046252E+03  0.00000000000E+00 0. -1.
        -24    2    1    2    0    0 -0.54315457797E+02  0.20003511961E+02 -0.58018506396E+03  0.58878774594E+03  0.81890120788E+02 0.  0.
         23    2    1    2    0    0 -0.22931781731E+02 -0.38223423456E+01 -0.10590041633E+03  0.14368229908E+03  0.94282702413E+02 0.  0.
         11    1    3    3    0    0 -0.68167045187E+02 -0.36107677090E+01 -0.32205627613E+03  0.32921122199E+03  0.00000000000E+00 0. -1.
        -12    1    3    3    0    0  0.13851587390E+02  0.23614279670E+02 -0.25812878783E+03  0.25957652395E+03  0.00000000000E+00 0.  1.
        -11    1    4    4    0    0 -0.17737547282E+02  0.20036197280E+02  0.74135170877E+01  0.27767427332E+02  0.00000000000E+00 0.  1.
         11    1    4    4    0    0 -0.51942344485E+01 -0.23858539626E+02 -0.11331393342E+03  0.11591487174E+03  0.00000000000E+00 0. -1.
          2    1    1    2  501    0  0.77247239528E+02 -0.16181169616E+02 -0.76093409632E+02  0.10963199010E+03  0.00000000000E+00 0. -1.
<scales pt_clust_5="13000.00000" pt_clust_6="13000.00000" pt_clust_7="13000.00000" pt_clust_8="13000.00000" pt_clust_9="78.92380"></scales>
<clustering>
<clus scale="   78.924">  1  9  2 -1</clus>
<clus scale="   81.890">  5  6 -1 -1</clus>
<clus scale="   92.705">  2  5  1 -1</clus>
<clus scale="   94.283">  7  8 -1 -1</clus>
<clus scale="   78.924">  1  5  2 -1</clus>
</clustering>
</event>
<event>
 9    1  0.5981539E-005  0.1974641E+03  0.7546771E-02  0.1184547E+00
         21   -1    0    0  501  502  0.00000000000E+00  0.00000000000E+00  0.34320935785E+03  0.34320935785E+03  0.00000000000E+00 0. -1.
          1   -1    0    0  502    0 -0.00000000000E+00 -0.00000000000E+00 -0.26226133148E+03  0.26226133148E+03  0.00000000000E+00 0. -1.
         23    2    1    2    0    0 -0.65419873901E+01  0.18242042139E+02  0.18824557093E+03  0.21011558020E+03  0.91304941637E+02 0.  0.
        -24    2    1    2    0    0  0.61585072134E+02  0.16170832782E+03 -0.38566656913E+02  0.19501586748E+03  0.81249597840E+02 0.  0.
         11    1    4    4    0    0  0.33031832296E+02  0.15868367858E+03 -0.37032630065E+02  0.16626192433E+03  0.00000000000E+00 0. -1.
        -12    1    4    4    0    0  0.28553239839E+02  0.30246492348E+01 -0.15340268476E+01  0.28753943150E+02  0.00000000000E+00 0.  1.
        -13    1    3    3    0    0 -0.16330658898E+02  0.51061116746E+02  0.14720277081E+03  0.15666072832E+03  0.00000000000E+00 0. -1.
         13    1    3    3    0    0  0.97886715079E+01 -0.32819074606E+02  0.41042800123E+02  0.53454851883E+02  0.00000000000E+00 0.  1.
          2    1    1    2  501    0 -0.55043084744E+02 -0.17995036996E+03 -0.68730887646E+02  0.20033924164E+03  0.00000000000E+00 0. -1.
<scales pt_clust_5="13000.00000" pt_clust_6="13000.00000" pt_clust_7="13000.00000" pt_clust_8="13000.00000" pt_clust_9="179.97395"></scales>
<clustering>
<clus scale="   81.250">  5  6 -1 -1</clus>
<clus scale="   91.305">  7  8 -1 -1</clus>
<clus scale="   93.339">  2  7  1 -1</clus>
<clus scale="  179.974">  1  9  2 -1</clus>
<clus scale="  179.974">  1  5  2 -1</clus>
</clustering>
</event>
<event>
 9    1  0.5981539E-005  0.1386486E+03  0.7546771E-02  0.1219148E+00
         21   -1    0    0  501  502  0.00000000000E+00  0.00000000000E+00  0.14128778513E+03  0.14128778513E+03  0.00000000000E+00 0. -1.
         -2   -1    0    0    0  501 -0.00000000000E+00 -0.00000000000E+00 -0.22111646236E+03  0.22111646236E+03  0.00000000000E+00 0.  1.
        -24    2    1    2    0    0 -0.87718084136E+02  0.65548736635E+02 -0.13436240942E+03  0.19097039368E+03  0.80158187590E+02 0.  0.
         23    2    1    2    0    0  0.60369456364E+02 -0.39159708636E+02  0.25021984506E+02  0.12331658570E+03  0.96968688540E+02 0.  0.
         11    1    3    3    0    0 -0.89851669131E+02  0.23228893607E+02 -0.84239326584E+02  0.12533622017E+03  0.00000000000E+00 0. -1.
        -12    1    3    3    0    0  0.21335849953E+01  0.42319843028E+02 -0.50123082832E+02  0.65634173503E+02  0.00000000000E+00 0.  1.
        -13    1    4    4    0    0  0.22575854550E+02 -0.88207723159E+01 -0.37229310667E+02  0.44424056610E+02  0.00000000000E+00 0.  1.
         13    1    4    4    0    0  0.37793601813E+02 -0.30338936320E+02  0.62251295173E+02  0.78892529087E+02  0.00000000000E+00 0. -1.
         -1    1    1    2    0  502  0.27348627772E+02 -0.26389027999E+02  0.29511747678E+02  0.48117268114E+02  0.00000000000E+00 0.  1.
<scales pt_clust_5="13000.00000" pt_clust_6="13000.00000" pt_clust_7="13000.00000" pt_clust_8="13000.00000" pt_clust_9="38.00432"></scales>
<clustering>
<clus scale="   38.004">  1  9  2 -1</clus>
<clus scale="   80.158">  5  6 -1 -1</clus>
<clus scale="   96.969">  7  8 -1 -1</clus>
<clus scale="  127.459">  2  5  1 -1</clus>
<clus scale="   38.004">  1  5  2 -1</clus>
</clustering>
</event>
<event>
 9    1  0.5981539E-005  0.9055490E+02  0.7546771E-02  0.1307239E+00
         21   -1    0    0  501  502  0.00000000000E+00  0.00000000000E+00  0.82883772016E+03  0.82883772016E+03  0.00000000000E+00 0.  1.
          3   -1    0    0  502    0 -0.00000000000E+00 -0.00000000000E+00 -0.24729880154E+02  0.24729880154E+02  0.00000000000E+00 0. -1.
         23    2    1    2    0    0  0.85918255637E+01  0.24468043657E+02  0.17208674639E+03  0.19614735401E+03  0.90484427253E+02 0.  0.
        -24    2    1    2    0    0  0.28644212441E+02  0.48076933467E+02  0.38181264410E+03  0.39425952652E+03  0.80794780850E+02 0.  0.
         13    1    4    4    0    0 -0.17695358746E+02  0.44701149701E+02  0.14002958625E+03  0.14805270525E+03  0.00000000000E+00 0. -1.
        -14    1    4    4    0    0  0.46339571186E+02  0.33757837663E+01  0.24178305785E+03  0.24620682127E+03  0.00000000000E+00 0.  1.
        -11    1    3    3    0    0  0.23417021715E+02  0.54994645501E+02  0.10067305272E+03  0.11708044877E+03  0.00000000000E+00 0. -1.
         11    1    3    3    0    0 -0.14825196151E+02 -0.30526601844E+02  0.71413693670E+02  0.79066905243E+02  0.00000000000E+00 0.  1.
          4    1    1    2  501    0 -0.37236038004E+02 -0.72544977125E+02  0.25020844951E+03  0.26316071979E+03  0.00000000000E+00 0. -1.
<scales pt_clust_5="13000.00000" pt_clust_6="13000.00000" pt_clust_7="13000.00000" pt_clust_8="13000.00000" pt_clust_9="81.54322"></scales>
<clustering>
<clus scale="   80.795">  5  6 -1 -1</clus>
<clus scale="   81.543">  1  9  2 -1</clus>
<clus scale="   81.543">  1  5  2 -1</clus>
<clus scale="   90.484">  7  8 -1 -1</clus>
<clus scale="   81.543">  1  5  2 -1</clus>
</clustering>
</event>
<event>
 9    1  0.5981539E-005  0.1638382E+03  0.7546771E-02  0.1217474E+00
         21   -1    0    0  501  502  0.00000000000E+00  0.00000000000E+00  0.28597831295E+03  0.28597831295E+03  0.00000000000E+00 0. -1.
          1   -1    0    0  502    0 -0.00000000000E+00 -0.00000000000E+00 -0.15631369331E+03  0.15631369331E+03  0.00000000000E+00 0. -1.
        -24    2    1    2    0    0  0.13468027387E+02 -0.13510018588E+01 -0.42470906771E+02  0.90588618594E+02  0.78862582567E+02 0.  0.
         23    2    1    2    0    0  0.13031107934E+03 -0.10371604106E+02  0.11701446700E+03  0.19727482097E+03  0.90202117119E+02 0.  0.
         13    1    3    3    0    0  0.38605030091E+02 -0.22472374934E+02 -0.35418167713E+02  0.57007039808E+02  0.00000000000E+00 0. -1.
        -14    1    3    3    0    0 -0.25137002704E+02  0.21121373075E+02 -0.70527390581E+01  0.33581578786E+02  0.00000000000E+00 0.  1.
        -11    1    4    4    0    0  0.12416587117E+03 -0.38522862080E+02  0.95178561649E+02  0.16112148542E+03  0.00000000000E+00 0. -1.
         11    1    4    4    0    0  0.61452081626E+01  0.28151257974E+02  0.21835905346E+02  0.36153335547E+02  0.00000000000E+00 0.  1.
          2    1    1    2  501    0 -0.14377910672E+03  0.11722605965E+02  0.55121059409E+02  0.15442856670E+03  0.00000000000E+00 0. -1.
<scales pt_clust_5="13000.00000" pt_clust_6="13000.00000" pt_clust_7="13000.00000" pt_clust_8="13000.00000" pt_clust_9="136.77195"></scales>
<clustering>
<clus scale="   78.863">  5  6 -1 -1</clus>
<clus scale="   80.016">  2  5  1 -1</clus>
<clus scale="   90.202">  7  8 -1 -1</clus>
<clus scale="  136.772">  1  9  2 -1</clus>
<clus scale="  136.772">  1  5  2 -1</clus>
</clustering>
</event>
<event>
 9    1  0.5981539E-005  0.9229054E+02  0.7546771E-02  0.1298273E+00
          1   -1    0    0  502    0 -0.00000000000E+00  0.00000000000E+00  0.22286937604E+02  0.22286937604E+02  0.00000000000E+00 0. -1.
         21   -1    0    0  501  502  0.00000000000E+00 -0.00000000000E+00 -0.56331578490E+03  0.56331578490E+03  0.00000000000E+00 0.  1.
         23    2    1    2    0    0  0.12757325997E+02 -0.14908344608E+02 -0.19593001683E+03  0.21587931168E+03  0.88488968872E+02 0.  0.
        -24    2    1    2    0    0 -0.41899238464E+02  0.19263444830E+00 -0.29045923503E+03  0.30607367730E+03  0.86942195917E+02 0.  0.
         11    1    4    4    0    0 -0.40199719584E+02 -0.95673723656E+01 -0.47689245965E+02  0.63101634284E+02  0.00000000000E+00 0. -1.
        -12    1    4    4    0    0 -0.16995188792E+01  0.97600068139E+01 -0.24276998906E+03  0.24297204301E+03  0.00000000000E+00 0.  1.
        -13    1    3    3    0    0  0.75060408580E+01 -0.50977802572E+02 -0.13938489823E+03  0.14860426258E+03  0.00000000000E+00 0.  1.
         13    1    3    3    0    0  0.52512851388E+01  0.36069457964E+02 -0.56545118606E+02  0.67275049102E+02  0.00000000000E+00 0. -1.
          2    1    1    2  501    0  0.29141912467E+02  0.14715710160E+02 -0.54639595439E+02  0.63649733522E+02  0.00000000000E+00 0. -1.
<scales pt_clust_5="13000.00000" pt_clust_6="13000.00000" pt_clust_7="13000.00000" pt_clust_8="13000.00000" pt_clust_9="32.64666"></scales>
<clustering>
<clus scale="   32.647">  2  9  1 -1</clus>
<clus scale="   86.942">  5  6 -1 -1</clus>
<clus scale="   88.489">  7  8 -1 -1</clus>
<clus scale="   90.809">  2  5  1 -1</clus>
<clus scale="   32.647">  2  5  1 -1</clus>
</clustering>
</event>
<event>
 9    1  0.5981539E-005  0.9050057E+02  0.7546771E-02  0.1301812E+00
          3   -1    0    0  502    0 -0.00000000000E+00  0.00000000000E+00  0.28538693480E+03  0.28538693480E+03  0.00000000000E+00 0. -1.
         21   -1    0    0  501  502  0.00000000000E+00 -0.00000000000E+00 -0.10571438722E+03  0.10571438722E+03  0.00000000000E+00 0. -1.
        -24    2    1    2    0    0 -0.22729334609E+02  0.14743031301E+01  0.22179422937E+03  0.24000113382E+03  0.88820424635E+02 0.  0.
         23    2    1    2    0    0 -0.22314850138E+02  0.21829491154E+02 -0.33387321649E+02  0.99638217240E+02  0.88535766034E+02 0.  0.
         13    1    3    3    0    0 -0.23428535582E+02  0.42077077077E+02  0.14970719794E+03  0.15726290665E+03  0.00000000000E+00 0. -1.
        -14    1    3    3    0    0  0.69920097343E+00 -0.40602773947E+02  0.72087031435E+02  0.82738227171E+02  0.00000000000E+00 0.  1.
        -11    1    4    4    0    0  0.26731842007E+02 -0.49571875478E+01 -0.34272272102E+02  0.43746470949E+02  0.00000000000E+00 0.  1.
         11    1    4    4    0    0 -0.49046692144E+02  0.26786678701E+02  0.88495045385E+00  0.55891746291E+02  0.00000000000E+00 0. -1.
          4    1    1    2  501    0  0.45044184747E+02 -0.23303794284E+02 -0.87343601511E+01  0.51461970957E+02  0.00000000000E+00 0. -1.
<scales pt_clust_5="13000.00000" pt_clust_6="13000.00000" pt_clust_7="13000.00000" pt_clust_8="13000.00000" pt_clust_9="50.71534"></scales>
<clustering>
<clus scale="   50.715">  2  9  1 -1</clus>
<clus scale="   88.536">  7  8 -1 -1</clus>
<clus scale="   88.820">  5  6 -1 -1</clus>
<clus scale="   90.221">  2  7  1 -1</clus>
<clus scale="   50.715">  2  5  1 -1</clus>
</clustering>
</event>
<event>
 9    1  0.5981539E-005  0.1015989E+03  0.7546771E-02  0.1288330E+00
          3   -1    0    0  502    0 -0.00000000000E+00  0.00000000000E+00  0.77192888300E+02  0.77192888300E+02  0.00000000000E+00 0. -1.
         21   -1    0    0  501  502  0.00000000000E+00 -0.00000000000E+00 -0.23963513860E+03  0.23963513860E+03  0.00000000000E+00 0. -1.
         23    2    1    2    0    0  0.10591257939E+02  0.23461546943E+02 -0.47857874221E+02  0.10484475837E+03  0.89662859102E+02 0.  0.
        -24    2    1    2    0    0  0.41235755392E+02 -0.71872926814E+02 -0.56785303483E+02  0.12049319364E+03  0.66542722289E+02 0.  0.
         13    1    4    4    0    0  0.53529965810E+02 -0.75513991425E+02 -0.54658611005E+02  0.10749597154E+03  0.00000000000E+00 0. -1.
        -14    1    4    4    0    0 -0.12294210418E+02  0.36410646112E+01 -0.21266924777E+01  0.12997222096E+02  0.00000000000E+00 0.  1.
        -11    1    3    3    0    0  0.33772170880E+02 -0.69727792164E+01  0.96180830469E+01  0.35800652193E+02  0.00000000000E+00 0.  1.
         11    1    3    3    0    0 -0.23180912940E+02  0.30434326159E+02 -0.57475957268E+02  0.69044106174E+02  0.00000000000E+00 0. -1.
          4    1    1    2  501    0 -0.51827013331E+02  0.48411379871E+02 -0.57799072600E+02  0.91490074900E+02  0.00000000000E+00 0. -1.
<scales pt_clust_5="13000.00000" pt_clust_6="13000.00000" pt_clust_7="13000.00000" pt_clust_8="13000.00000" pt_clust_9="70.92039"></scales>
<clustering>
<clus scale="   66.543">  5  6 -1 -1</clus>
<clus scale="   70.920">  2  9  1 -1</clus>
<clus scale="   81.920">  2  5  1 -1</clus>
<clus scale="   89.663">  7  8 -1 -1</clus>
<clus scale="   70.920">  2  5  1 -1</clus>
</clustering>
</event>
<event>
 9    1  0.5981539E-005  0.1305516E+03  0.7546771E-02  0.1230056E+00
         -2   -1    0    0    0  501 -0.00000000000E+00  0.00000000000E+00  0.15024815106E+03  0.15024815106E+03  0.00000000000E+00 0.  1.
         21   -1    0    0  501  502  0.00000000000E+00 -0.00000000000E+00 -0.21990616950E+03  0.21990616950E+03  0.00000000000E+00 0.  1.
         23    2    1    2    0    0 -0.78250421833E+02 -0.10210050477E+02  0.20259784694E+02  0.12278611588E+03  0.91861840442E+02 0.  0.
        -24    2    1    2    0    0  0.97965020182E+02  0.76259843364E+02 -0.18545211842E+02  0.14814478347E+03  0.78678097948E+02 0.  0.
         13    1    4    4    0    0  0.13572198204E+02  0.47250146738E+02  0.17099529428E+02  0.52049734269E+02  0.00000000000E+00 0. -1.
        -14    1    4    4    0    0  0.84392821979E+02  0.29009696626E+02 -0.35644741270E+02  0.96095049197E+02  0.00000000000E+00 0.  1.
        -11    1    3    3    0    0 -0.28738621964E+02  0.40759745177E+02  0.11580300863E+02  0.51199302606E+02  0.00000000000E+00 0.  1.
         11    1    3    3    0    0 -0.49511799869E+02 -0.50969795654E+02  0.86794838304E+01  0.71586813274E+02  0.00000000000E+00 0. -1.
         -1    1    1    2    0  502 -0.19714598349E+02 -0.66049792887E+02 -0.71372591299E+02  0.99223421213E+02  0.00000000000E+00 0.  1.
<scales pt_clust_5="13000.00000" pt_clust_6="13000.00000" pt_clust_7="13000.00000" pt_clust_8="13000.00000" pt_clust_9="68.92924"></scales>
<clustering>
<clus scale="   68.929">  2  9  1 -1</clus>
<clus scale="   78.678">  5  6 -1 -1</clus>
<clus scale="   91.862">  7  8 -1 -1</clus>
<clus scale="  121.636">  2  5  1 -1</clus>
<clus scale="   68.929">  2  5  1 -1</clus>
</clustering>
</event>
<event>
 9    1  0.5981539E-005  0.1084514E+03  0.7546771E-02  0.1266835E+00
         21   -1    0    0  501  502  0.00000000000E+00  0.00000000000E+00  0.64948801528E+03  0.64948801528E+03  0.00000000000E+00 0.  1.
          1   -1    0    0  502    0 -0.00000000000E+00 -0.00000000000E+00 -0.27973594357E+02  0.27973594357E+02  0.00000000000E+00 0. -1.
         23    2    1    2    0    0 -0.49666873851E+02  0.28199345302E+02  0.14987583282E+03  0.18344743318E+03  0.89040406805E+02 0.  0.
        -24    2    1    2    0    0  0.51340074928E+02 -0.57284099610E+02  0.42215327134E+03  0.43659014742E+03  0.80500316535E+02 0.  0.
         13    1    4    4    0    0  0.43810676179E+02 -0.77368352223E+02  0.31480102538E+03  0.32711606939E+03  0.00000000000E+00 0. -1.
        -14    1    4    4    0    0  0.75293987485E+01  0.20084252613E+02  0.10735224596E+03  0.10947407803E+03  0.00000000000E+00 0.  1.
        -11    1    3    3    0    0 -0.11853771492E+02  0.54896195752E+02  0.10446083792E+03  0.11860088897E+03  0.00000000000E+00 0.  1.
         11    1    3    3    0    0 -0.37813102359E+02 -0.26696850450E+02  0.45414994902E+02  0.64846544209E+02  0.00000000000E+00 0. -1.
          2    1    1    2  501    0 -0.16732010765E+01  0.29084754308E+02  0.49485316761E+02  0.57424029029E+02  0.00000000000E+00 0. -1.
<scales pt_clust_5="13000.00000" pt_clust_6="13000.00000" pt_clust_7="13000.00000" pt_clust_8="13000.00000" pt_clust_9="29.13286"></scales>
<clustering>
<clus scale="   29.133">  1  9  2 -1</clus>
<clus scale="   80.500">  5  6 -1 -1</clus>
<clus scale="   89.040">  7  8 -1 -1</clus>
<clus scale="  101.557">  1  5  2 -1</clus>
<clus scale="   29.133">  1  5  2 -1</clus>
</clustering>
</event>
<event>
 9    1  0.5981539E-005  0.1068983E+03  0.7546771E-02  0.1271203E+00
         -2   -1    0    0    0  501 -0.00000000000E+00  0.00000000000E+00  0.42651915132E+03  0.42651915132E+03  0.00000000000E+00 0.  1.
         21   -1    0    0  501  502  0.00000000000E+00 -0.00000000000E+00 -0.14383105585E+03  0.14383105585E+03  0.00000000000E+00 0.  1.
         23    2    1    2    0    0 -0.37878522854E+02  0.40266485334E+02  0.37669377658E+03  0.39157891963E+03  0.91540573788E+02 0.  0.
        -24    2    1    2    0    0  0.68077502338E+02 -0.86107651677E+01 -0.50515523802E+02  0.11708290318E+03  0.80298794951E+02 0.  0.
         11    1    4    4    0    0  0.40785658925E+01 -0.27961977599E+02 -0.40637498801E+02  0.49496597861E+02  0.00000000000E+00 0. -1.
        -12    1    4    4    0    0  0.63998936445E+02  0.19351212431E+02 -0.98780250012E+01  0.67586305319E+02  0.00000000000E+00 0.  1.
        -11    1    3    3    0    0 -0.17626106678E+02  0.68354711712E+02  0.21773358792E+03  0.22889071969E+03  0.00000000000E+00 0.  1.
         11    1    3    3    0    0 -0.20252416176E+02 -0.28088226378E+02  0.15896018866E+03  0.16268819995E+03  0.00000000000E+00 0. -1.
         -1    1    1    2    0  502 -0.30198979484E+02 -0.31655720166E+02 -0.43490157317E+02  0.61688384357E+02  0.00000000000E+00 0.  1.
<scales pt_clust_5="13000.00000" pt_clust_6="13000.00000" pt_clust_7="13000.00000" pt_clust_8="13000.00000" pt_clust_9="43.75001"></scales>
<clustering>
<clus scale="   43.750">  2  9  1 -1</clus>
<clus scale="   80.299">  5  6 -1 -1</clus>
<clus scale="   91.541">  7  8 -1 -1</clus>
<clus scale="   97.445">  2  5  1 -1</clus>
<clus scale="   43.750">  2  5  1 -1</clus>
</clustering>
</event>
<event>
 9    1  0.5981539E-005  0.1584125E+03  0.7546771E-02  0.1213327E+00
         21   -1    0    0  501  502  0.00000000000E+00  0.00000000000E+00  0.21589273993E+03  0.21589273993E+03  0.00000000000E+00 0. -1.
          1   -1    0    0  502    0 -0.00000000000E+00 -0.00000000000E+00 -0.17716938716E+03  0.17716938716E+03  0.00000000000E+00 0. -1.
        -24    2    1    2    0    0  0.25280406376E+02 -0.46816772539E+02 -0.21281527357E+01  0.96664002833E+02  0.80675220930E+02 0.  0.
         23    2    1    2    0    0 -0.14087600176E+03  0.49153809214E+02  0.46495193654E+02  0.18064124701E+03  0.90594217569E+02 0.  0.
         13    1    3    3    0    0 -0.23425148242E+02  0.25564180469E+01 -0.12278656659E+02  0.26571380332E+02  0.00000000000E+00 0. -1.
        -14    1    3    3    0    0  0.48705554617E+02 -0.49373190586E+02  0.10150503924E+02  0.70092622501E+02  0.00000000000E+00 0.  1.
        -11    1    4    4    0    0 -0.27049092494E+02 -0.47550831692E+01 -0.23855406599E+02  0.36377804287E+02  0.00000000000E+00 0.  1.
         11    1    4    4    0    0 -0.11382690926E+03  0.53908892383E+02  0.70350600253E+02  0.14426344272E+03  0.00000000000E+00 0. -1.
          2    1    1    2  501    0  0.11559559538E+03 -0.23370366753E+01 -0.56436881487E+01  0.11575687724E+03  0.00000000000E+00 0. -1.
<scales pt_clust_5="13000.00000" pt_clust_6="13000.00000" pt_clust_7="13000.00000" pt_clust_8="13000.00000" pt_clust_9="129.95084"></scales>
<clustering>
<clus scale="   80.675">  5  6 -1 -1</clus>
<clus scale="   90.594">  7  8 -1 -1</clus>
<clus scale="   96.641">  2  5  1 -1</clus>
<clus scale="  129.951">  1  9  2 -1</clus>
<clus scale="  129.951">  1  5  2 -1</clus>
</clustering>
</event>
<event>
 9    1  0.5981539E-005  0.1311515E+03  0.7546771E-02  0.1246087E+00
         -2   -1    0    0    0  501 -0.00000000000E+00  0.00000000000E+00  0.17083808942E+03  0.17083808942E+03  0.00000000000E+00 0.  1.
         21   -1    0    0  501  502  0.00000000000E+00 -0.00000000000E+00 -0.67029399686E+03  0.67029399686E+03  0.00000000000E+00 0.  1.
        -24    2    1    2    0    0 -0.31483068918E+02 -0.11133287385E+02  0.70858821774E+02  0.11185125032E+03  0.79841066236E+02 0.  0.
         23    2    1    2    0    0 -0.49084980166E+02  0.61237212424E+02  0.27745652219E+02  0.12374154435E+03  0.91557725605E+02 0.  0.
         11    1    3    3    0    0  0.24210012416E+02 -0.32211106932E+01  0.44594784230E+01  0.24827146495E+02  0.00000000000E+00 0. -1.
        -12    1    3    3    0    0 -0.55693081334E+02 -0.79121766922E+01  0.66399343351E+02  0.87024103822E+02  0.00000000000E+00 0.  1.
        -13    1    4    4    0    0 -0.36756313326E+02  0.83074033632E+02  0.68503492375E+01  0.91100213600E+02  0.00000000000E+00 0.  1.
         13    1    4    4    0    0 -0.12328666839E+02 -0.21836821208E+02  0.20895302981E+02  0.32641330751E+02  0.00000000000E+00 0. -1.
         -1    1    1    2    0  502  0.80568049083E+02 -0.50103925038E+02 -0.59806038144E+03  0.60553929161E+03  0.00000000000E+00 0.  1.
<scales pt_clust_5="13000.00000" pt_clust_6="13000.00000" pt_clust_7="13000.00000" pt_clust_8="13000.00000" pt_clust_9="93.90366"></scales>
<clustering>
<clus scale="   79.841">  5  6 -1 -1</clus>
<clus scale="   86.543">  1  5  2 -1</clus>
<clus scale="   91.558">  7  8 -1 -1</clus>
<clus scale="   93.904">  2  9  1 -1</clus>
<clus scale="   93.904">  2  5  1 -1</clus>
</clustering>
</event>
<event>
 9    1  0.6193063E-005  0.1585403E+03  0.7546771E-02  0.1191964E+00
         21   -1    0    0  501  502  0.00000000000E+00  0.00000000000E+00  0.83126883570E+02  0.83126883570E+02  0.00000000000E+00 0.  1.
          1   -1    0    0  502    0 -0.00000000000E+00 -0.00000000000E+00 -0.89535163654E+03  0.89535163654E+03  0.00000000000E+00 0. -1.
         23    2    1    2    0    0 -0.47129814224E+02 -0.12746067118E+03 -0.33938705952E+03  0.37656265358E+03  0.90268564958E+02 0.  0.
        -24    2    1    2    0    0 -0.20977276404E+02  0.12326076645E+03 -0.27088602337E+02  0.15097411062E+03  0.80163127603E+02 0.  0.
         11    1    4    4    0    0 -0.37606869848E+01  0.37618840362E+02 -0.48048925621E+02  0.61139342245E+02  0.00000000000E+00 0. -1.
        -12    1    4    4    0    0 -0.17216589419E+02  0.85641926092E+02  0.20960323283E+02  0.89834768371E+02  0.00000000000E+00 0.  1.
        -11    1    3    3    0    0 -0.22984032060E+02 -0.13561181532E+03 -0.28107112841E+03  0.31292141092E+03  0.00000000000E+00 0. -1.
         11    1    3    3    0    0 -0.24145782165E+02  0.81511441425E+01 -0.58315931109E+02  0.63641242668E+02  0.00000000000E+00 0.  1.
          2    1    1    2  501    0  0.68107090628E+02  0.41999047264E+01 -0.44574909111E+03  0.45094175591E+03  0.00000000000E+00 0. -1.
<scales pt_clust_5="13000.00000" pt_clust_6="13000.00000" pt_clust_7="13000.00000" pt_clust_8="13000.00000" pt_clust_9="68.23650"></scales>
<clustering>
<clus scale="   68.236">  1  9  2 -1</clus>
<clus scale="   80.163">  5  6 -1 -1</clus>
<clus scale="   90.269">  7  8 -1 -1</clus>
<clus scale="  153.012">  1  5  2 -1</clus>
<clus scale="   68.236">  1  5  2 -1</clus>
</clustering>
</event>
<event>
 9    1  0.5981539E-005  0.1259888E+03  0.7546771E-02  0.1235193E+00
         21   -1    0    0  501  502  0.00000000000E+00  0.00000000000E+00  0.91192726786E+02  0.91192726786E+02  0.00000000000E+00 0. -1.
          3   -1    0    0  502    0 -0.00000000000E+00 -0.00000000000E+00 -0.28622526662E+03  0.28622526662E+03  0.00000000000E+00 0. -1.
         23    2    1    2    0    0  0.55611679576E+02 -0.61153674728E+02 -0.10142553957E+03  0.15771728355E+03  0.88063446527E+02 0.  0.
        -24    2    1    2    0    0 -0.64657806890E+02  0.84637081391E+02 -0.12693879318E+02  0.13496443694E+03  0.81915792903E+02 0.  0.
         13    1    4    4    0    0 -0.39928732461E+02  0.89498764994E+02 -0.32134022548E+02  0.10313548379E+03  0.00000000000E+00 0. -1.
        -14    1    4    4    0    0 -0.24729074429E+02 -0.48616836030E+01  0.19440143230E+02  0.31828953146E+02  0.00000000000E+00 0.  1.
        -13    1    3    3    0    0  0.56261119036E+02  0.23746262910E+01 -0.37921880836E+02  0.67889773982E+02  0.00000000000E+00 0. -1.
         13    1    3    3    0    0 -0.64943945994E+00 -0.63528301019E+02 -0.63503658738E+02  0.89827509567E+02  0.00000000000E+00 0.  1.
          4    1    1    2  501    0  0.90461273139E+01 -0.23483406664E+02 -0.80913120939E+02  0.84736272918E+02  0.00000000000E+00 0. -1.
<scales pt_clust_5="13000.00000" pt_clust_6="13000.00000" pt_clust_7="13000.00000" pt_clust_8="13000.00000" pt_clust_9="25.16552"></scales>
<clustering>
<clus scale="   25.166">  1  9  2 -1</clus>
<clus scale="   81.916">  5  6 -1 -1</clus>
<clus scale="   88.063">  7  8 -1 -1</clus>
<clus scale="  121.771">  1  5  2 -1</clus>
<clus scale="   25.166">  1  5  2 -1</clus>
</clustering>
</event>
<event>
 9    1  0.5981539E-005  0.1457127E+03  0.7546771E-02  0.1208000E+00
          1   -1    0    0  502    0 -0.00000000000E+00  0.00000000000E+00  0.74967682380E+03  0.74967682380E+03  0.00000000000E+00 0. -1.
         21   -1    0    0  501  502  0.00000000000E+00 -0.00000000000E+00 -0.39463941119E+03  0.39463941119E+03  0.00000000000E+00 0. -1.
         23    2    1    2    0    0  0.61887352788E+02  0.77793606493E+02  0.50363984962E+03  0.52179492158E+03  0.93460967303E+02 0.  0.
        -24    2    1    2    0    0 -0.92454918701E+02 -0.12860166787E+03  0.20039875689E+03  0.26851895674E+03  0.82803788536E+02 0.  0.
         11    1    4    4    0    0 -0.62471197994E+02 -0.10542067904E+03  0.19490068735E+03  0.23022260549E+03  0.00000000000E+00 0. -1.
        -12    1    4    4    0    0 -0.29983720707E+02 -0.23180988830E+02  0.54980695369E+01  0.38296351252E+02  0.00000000000E+00 0.  1.
        -13    1    3    3    0    0  0.55824777655E+02  0.97658234774E+02  0.45864326061E+03  0.47223635726E+03  0.00000000000E+00 0. -1.
         13    1    3    3    0    0  0.60625751327E+01 -0.19864628280E+02  0.44996589013E+02  0.49558564313E+02  0.00000000000E+00 0.  1.
          2    1    1    2  501    0  0.30567565913E+02  0.50808061372E+02 -0.34900119390E+03  0.35400235667E+03  0.00000000000E+00 0. -1.
<scales pt_clust_5="13000.00000" pt_clust_6="13000.00000" pt_clust_7="13000.00000" pt_clust_8="13000.00000" pt_clust_9="59.29448"></scales>
<clustering>
<clus scale="   59.294">  2  9  1 -1</clus>
<clus scale="   82.804">  5  6 -1 -1</clus>
<clus scale="   93.461">  7  8 -1 -1</clus>
<clus scale="  139.118">  2  5  1 -1</clus>
<clus scale="   59.294">  2  5  1 -1</clus>
</clustering>
</event>
<event>
 9    1  0.5981539E-005  0.2571025E+03  0.7546771E-02  0.1109485E+00
         -2   -1    0    0    0  501 -0.00000000000E+00  0.00000000000E+00  0.34932220983E+03  0.34932220983E+03  0.00000000000E+00 0.  1.
         21   -1    0    0  501  502  0.00000000000E+00 -0.00000000000E+00 -0.39195673547E+03  0.39195673547E+03  0.00000000000E+00 0.  1.
         23    2    1    2    0    0 -0.66570617414E+02 -0.21559317235E+03  0.13538948345E+03  0.27860562044E+03  0.91535328947E+02 0.  0.
        -24    2    1    2    0    0  0.17936920652E+03  0.23361715181E+03 -0.89319688680E+02  0.31804676437E+03  0.80158915149E+02 0.  0.
         11    1    4    4    0    0  0.55370131220E+02  0.92259266967E+02 -0.71452577366E+02  0.12916305426E+03  0.00000000000E+00 0. -1.
        -12    1    4    4    0    0  0.12399907530E+03  0.14135788484E+03 -0.17867111314E+02  0.18888371012E+03  0.00000000000E+00 0.  1.
        -11    1    3    3    0    0 -0.31807701621E+02 -0.13024852350E+03  0.27768852962E+02  0.13692157226E+03  0.00000000000E+00 0.  1.
         11    1    3    3    0    0 -0.34762915793E+02 -0.85344648855E+02  0.10762063048E+03  0.14168404818E+03  0.00000000000E+00 0. -1.
         -1    1    1    2    0  502 -0.11279858910E+03 -0.18023979455E+02 -0.88704320406E+02  0.14462656048E+03  0.00000000000E+00 0.  1.
<scales pt_clust_5="13000.00000" pt_clust_6="13000.00000" pt_clust_7="13000.00000" pt_clust_8="13000.00000" pt_clust_9="114.22953"></scales>
<clustering>
<clus scale="   80.159">  5  6 -1 -1</clus>
<clus scale="   91.535">  7  8 -1 -1</clus>
<clus scale="  114.230">  2  9  1 -1</clus>
<clus scale="  253.275">  2  5  1 -1</clus>
<clus scale="  114.230">  2  5  1 -1</clus>
</clustering>
</event>
<event>
 9    1  0.5981539E-005  0.2011606E+03  0.7546771E-02  0.1178185E+00
         -4   -1    0    0    0  501 -0.00000000000E+00  0.00000000000E+00  0.80093782918E+02  0.80093782918E+02  0.00000000000E+00 0.  1.
         21   -1    0    0  501  502  0.00000000000E+00 -0.00000000000E+00 -0.85360663071E+03  0.85360663071E+03  0.00000000000E+00 0.  1.
        -24    2    1    2    0    0 -0.44572007622E+02  0.44195227430E+02 -0.14812213896E+03  0.17974672821E+03  0.80180024073E+02 0.  0.
         23    2    1    2    0    0 -0.12373306961E+03 -0.12063874968E+03 -0.15743887887E+03  0.25081441417E+03  0.90869628228E+02 0.  0.
         13    1    3    3    0    0 -0.46633497948E+02  0.56178752379E+02 -0.15057462390E+03  0.16734232194E+03  0.00000000000E+00 0. -1.
        -14    1    3    3    0    0  0.20614903253E+01 -0.11983524948E+02  0.24524849374E+01  0.12404406270E+02  0.00000000000E+00 0.  1.
        -13    1    4    4    0    0 -0.87782799967E+02 -0.24443532323E+02 -0.58966158721E+02  0.10853715547E+03  0.00000000000E+00 0.  1.
         13    1    4    4    0    0 -0.35950269644E+02 -0.96195217353E+02 -0.98472720150E+02  0.14227725870E+03  0.00000000000E+00 0. -1.
         -3    1    1    2    0  502  0.16830507723E+03  0.76443522245E+02 -0.46795182996E+03  0.50313927126E+03  0.00000000000E+00 0.  1.
<scales pt_clust_5="13000.00000" pt_clust_6="13000.00000" pt_clust_7="13000.00000" pt_clust_8="13000.00000" pt_clust_9="179.46670"></scales>
<clustering>
<clus scale="   80.180">  5  6 -1 -1</clus>
<clus scale="   90.870">  7  8 -1 -1</clus>
<clus scale="  101.827">  1  5  2 -1</clus>
<clus scale="  179.467">  2  9  1 -1</clus>
<clus scale="  179.467">  2  5  1 -1</clus>
</clustering>
</event>
<event>
 9    1  0.5981539E-005  0.3503682E+03  0.7546771E-02  0.1062605E+00
         21   -1    0    0  501  502  0.00000000000E+00  0.00000000000E+00  0.23695145244E+03  0.23695145244E+03  0.00000000000E+00 0. -1.
          1   -1    0    0  502    0 -0.00000000000E+00 -0.00000000000E+00 -0.11576135694E+04  0.11576135694E+04  0.00000000000E+00 0. -1.
         23    2    1    2    0    0  0.41775603912E+02  0.34833625938E+03 -0.92687016523E+03  0.99478760639E+03  0.86201670234E+02 0.  0.
        -24    2    1    2    0    0  0.32873110824E+02 -0.29441504455E+03 -0.50029665910E+01  0.30701096211E+03  0.80435323731E+02 0.  0.
         11    1    4    4    0    0  0.53170844362E+02 -0.26396535263E+03  0.41096934463E+01  0.26929859944E+03  0.00000000000E+00 0. -1.
        -12    1    4    4    0    0 -0.20297733538E+02 -0.30449691925E+02 -0.91126600373E+01  0.37712362669E+02  0.00000000000E+00 0.  1.
        -11    1    3    3    0    0  0.17846005492E+02  0.30064747594E+03 -0.70585768902E+03  0.76742586734E+03  0.00000000000E+00 0. -1.
         11    1    3    3    0    0  0.23929598421E+02  0.47688783436E+02 -0.22101247621E+03  0.22736173906E+03  0.00000000000E+00 0.  1.
          2    1    1    2  501    0 -0.74648714736E+02 -0.53921214825E+02  0.11211014825E+02  0.92766453383E+02  0.00000000000E+00 0. -1.
<scales pt_clust_5="13000.00000" pt_clust_6="13000.00000" pt_clust_7="13000.00000" pt_clust_8="13000.00000" pt_clust_9="92.08652"></scales>
<clustering>
<clus scale="   80.435">  5  6 -1 -1</clus>
<clus scale="   86.202">  7  8 -1 -1</clus>
<clus scale="   92.087">  1  9  2 -1</clus>
<clus scale="  348.994">  1  5  2 -1</clus>
<clus scale="   92.087">  1  5  2 -1</clus>
</clustering>
</event>
<event>
 9    1  0.5981539E-005  0.1098075E+03  0.7546771E-02  0.1265376E+00
          1   -1    0    0  502    0 -0.00000000000E+00  0.00000000000E+00  0.66477580749E+03  0.66477580749E+03  0.00000000000E+00 0. -1.
         21   -1    0    0  501  502  0.00000000000E+00 -0.00000000000E+00 -0.72408261772E+02  0.72408261772E+02  0.00000000000E+00 0. -1.
         23    2    1    2    0    0  0.91275410187E+01  0.72386106283E+02  0.55656209710E+03  0.56866718601E+03  0.91093030074E+02 0.  0.
        -24    2    1    2    0    0  0.47668468959E+01 -0.24141329597E+02  0.68986794968E+02  0.10833703414E+03  0.79826113907E+02 0.  0.
         11    1    4    4    0    0  0.33316937241E+02  0.85210203197E+01  0.11381358691E+02  0.36223768717E+02  0.00000000000E+00 0. -1.
        -12    1    4    4    0    0 -0.28550090345E+02 -0.32662349916E+02  0.57605436277E+02  0.72113265419E+02  0.00000000000E+00 0.  1.
        -11    1    3    3    0    0 -0.19337672572E+02 -0.13030609460E+02  0.68233581981E+02  0.72108002838E+02  0.00000000000E+00 0.  1.
         11    1    3    3    0    0  0.28465213591E+02  0.85416715743E+02  0.48832851512E+03  0.49655918317E+03  0.00000000000E+00 0. -1.
          2    1    1    2  501    0 -0.13894387915E+02 -0.48244776686E+02 -0.33181346355E+02  0.60179849111E+02  0.00000000000E+00 0. -1.
<scales pt_clust_5="13000.00000" pt_clust_6="13000.00000" pt_clust_7="13000.00000" pt_clust_8="13000.00000" pt_clust_9="50.20570"></scales>
<clustering>
<clus scale="   50.206">  2  9  1 -1</clus>
<clus scale="   79.826">  5  6 -1 -1</clus>
<clus scale="   91.093">  7  8 -1 -1</clus>
<clus scale="  100.658">  2  5  1 -1</clus>
<clus scale="   50.206">  2  5  1 -1</clus>
</clustering>
</event>
<event>
 9    1  0.5981539E-005  0.2382713E+03  0.7546771E-02  0.1121429E+00
         -4   -1    0    0    0  501 -0.00000000000E+00  0.00000000000E+00  0.63372379237E+03  0.63372379237E+03  0.00000000000E+00 0.  1.
         21   -1    0    0  501  502  0.00000000000E+00 -0.00000000000E+00 -0.21944808880E+03  0.21944808880E+03  0.00000000000E+00 0.  1.
         23    2    1    2    0    0 -0.22791852285E+03 -0.25749485739E+01  0.47315124996E+03  0.53272379203E+03  0.89269534797E+02 0.  0.
        -24    2    1    2    0    0  0.19387738345E+03 -0.66754339486E+02  0.43151011562E+01  0.22065626937E+03  0.81400168682E+02 0.  0.
         11    1    4    4    0    0  0.19090598513E+03 -0.79436432278E+02 -0.48628401921E+00  0.20677397903E+03  0.00000000000E+00 0. -1.
        -12    1    4    4    0    0  0.29713983210E+01  0.12682092792E+02  0.48013851754E+01  0.13882290343E+02  0.00000000000E+00 0.  1.
        -13    1    3    3    0    0 -0.55781659297E+02  0.55974340099E+01  0.21608371501E+03  0.22323775817E+03  0.00000000000E+00 0.  1.
         13    1    3    3    0    0 -0.17213686355E+03 -0.81723825838E+01  0.25706753495E+03  0.30948603386E+03  0.00000000000E+00 0. -1.
         -3    1    1    2    0  502  0.34041139392E+02  0.69329288060E+02 -0.63190647546E+02  0.99791819761E+02  0.00000000000E+00 0.  1.
<scales pt_clust_5="13000.00000" pt_clust_6="13000.00000" pt_clust_7="13000.00000" pt_clust_8="13000.00000" pt_clust_9="77.23567"></scales>
<clustering>
<clus scale="   77.236">  2  9  1 -1</clus>
<clus scale="   81.400">  5  6 -1 -1</clus>
<clus scale="   89.270">  7  8 -1 -1</clus>
<clus scale="  235.436">  2  5  1 -1</clus>
<clus scale="   77.236">  2  5  1 -1</clus>
</clustering>
</event>
<event>
 9    1  0.5981539E-005  0.9666445E+02  0.7546771E-02  0.1292956E+00
         -2   -1    0    0    0  501 -0.00000000000E+00  0.00000000000E+00  0.46277308230E+03  0.46277308230E+03  0.00000000000E+00 0.  1.
         21   -1    0    0  501  502  0.00000000000E+00 -0.00000000000E+00 -0.36981313151E+02  0.36981313151E+02  0.00000000000E+00 0. -1.
        -24    2    1    2    0    0  0.28857514671E+02 -0.16661557815E+02  0.31477531509E+03  0.32734406246E+03  0.83428248058E+02 0.  0.
         23    2    1    2    0    0 -0.61670055208E+01 -0.49078882027E+01  0.10478498342E+03  0.14048962760E+03  0.93248717886E+02 0.  0.
         13    1    3    3    0    0  0.10483735649E+02  0.26790966179E+02  0.44552472322E+02  0.53033832333E+02  0.00000000000E+00 0. -1.
        -14    1    3    3    0    0  0.18373779023E+02 -0.43452523994E+02  0.27022284277E+03  0.27431023012E+03  0.00000000000E+00 0.  1.
        -11    1    4    4    0    0 -0.16194405296E+02  0.38474963447E+02  0.23750714394E+02  0.48027887829E+02  0.00000000000E+00 0. -1.
         11    1    4    4    0    0  0.10027399775E+02 -0.43382851650E+02  0.81034269029E+02  0.92461739766E+02  0.00000000000E+00 0.  1.
         -1    1    1    2    0  502 -0.22690509150E+02  0.21569446018E+02  0.62314706404E+01  0.31920705402E+02  0.00000000000E+00 0.  1.
<scales pt_clust_5="13000.00000" pt_clust_6="13000.00000" pt_clust_7="13000.00000" pt_clust_8="13000.00000" pt_clust_9="31.30655"></scales>
<clustering>
<clus scale="   31.307">  2  9  1 -1</clus>
<clus scale="   83.428">  5  6 -1 -1</clus>
<clus scale="   87.229">  1  5  2 -1</clus>
<clus scale="   93.249">  7  8 -1 -1</clus>
<clus scale="   31.307">  2  5  1 -1</clus>
</clustering>
</event>
<event>
 9    1  0.5981539E-005  0.2345960E+03  0.7546771E-02  0.1124190E+00
         21   -1    0    0  501  502  0.00000000000E+00  0.00000000000E+00  0.33003519468E+03  0.33003519468E+03  0.00000000000E+00 0. -1.
          1   -1    0    0  502    0 -0.00000000000E+00 -0.00000000000E+00 -0.44646328664E+03  0.44646328664E+03  0.00000000000E+00 0. -1.
        -24    2    1    2    0    0  0.11731096099E+03  0.20446926334E+03 -0.15834964505E+03  0.29488109163E+03  0.79439957814E+02 0.  0.
         23    2    1    2    0    0  0.64201891329E+02 -0.22326171319E+03 -0.80106944021E+02  0.26209284475E+03  0.91147470395E+02 0.  0.
         13    1    3    3    0    0  0.12497426289E+03  0.19047110855E+03 -0.12985387758E+03  0.26222097380E+03  0.00000000000E+00 0. -1.
        -14    1    3    3    0    0 -0.76633019006E+01  0.13998154787E+02 -0.28495767464E+02  0.32660117832E+02  0.00000000000E+00 0.  1.
        -11    1    4    4    0    0  0.19845311247E+02 -0.24234163744E+02  0.17657460105E+02  0.35957154618E+02  0.00000000000E+00 0.  1.
         11    1    4    4    0    0  0.44356580082E+02 -0.19902754945E+03 -0.97764404126E+02  0.22613569013E+03  0.00000000000E+00 0. -1.
          2    1    1    2  501    0 -0.18151285231E+03  0.18792449853E+02  0.12202849711E+03  0.21952454494E+03  0.00000000000E+00 0. -1.
<scales pt_clust_5="13000.00000" pt_clust_6="13000.00000" pt_clust_7="13000.00000" pt_clust_8="13000.00000" pt_clust_9="182.48307"></scales>
<clustering>
<clus scale="   79.440">  5  6 -1 -1</clus>
<clus scale="   91.147">  7  8 -1 -1</clus>
<clus scale="  182.483">  1  9  2 -1</clus>
<clus scale="  230.300">  2  5  1 -1</clus>
<clus scale="  182.483">  1  5  2 -1</clus>
</clustering>
</event>
<event>
 9    1  0.5981539E-005  0.9810121E+02  0.7546771E-02  0.1290402E+00
         21   -1    0    0  501  502  0.00000000000E+00  0.00000000000E+00  0.15992051281E+03  0.15992051281E+03  0.00000000000E+00 0. -1.
          3   -1    0    0  502    0 -0.00000000000E+00 -0.00000000000E+00 -0.22068345216E+03  0.22068345216E+03  0.00000000000E+00 0. -1.
        -24    2    1    2    0    0 -0.19876000995E+02  0.23894308957E+02 -0.17048214916E+03  0.19180413174E+03  0.82211120612E+02 0.  0.
         23    2    1    2    0    0 -0.85047205886E+01 -0.27639867989E+02  0.12310296589E+03  0.15719889184E+03  0.93385538547E+02 0.  0.
         11    1    3    3    0    0 -0.39381757085E+02  0.37214000938E+02 -0.15330662911E+03  0.16259989909E+03  0.00000000000E+00 0. -1.
        -12    1    3    3    0    0  0.19505756090E+02 -0.13319691981E+02 -0.17175520053E+02  0.29204232642E+02  0.00000000000E+00 0.  1.
        -11    1    4    4    0    0 -0.45736884321E+02  0.63306347170E+00  0.35495877251E+02  0.57898364904E+02  0.00000000000E+00 0. -1.
         11    1    4    4    0    0  0.37232163733E+02 -0.28272931461E+02  0.87607088643E+02  0.99300526938E+02  0.00000000000E+00 0.  1.
          4    1    1    2  501    0  0.28380721584E+02  0.37455590322E+01 -0.13383756082E+02  0.31600941394E+02  0.00000000000E+00 0. -1.
<scales pt_clust_5="13000.00000" pt_clust_6="13000.00000" pt_clust_7="13000.00000" pt_clust_8="13000.00000" pt_clust_9="28.62683"></scales>
<clustering>
<clus scale="   28.627">  1  9  2 -1</clus>
<clus scale="   82.211">  5  6 -1 -1</clus>
<clus scale="   87.531">  2  5  1 -1</clus>
<clus scale="   93.386">  7  8 -1 -1</clus>
<clus scale="   28.627">  1  5  2 -1</clus>
</clustering>
</event>
<event>
 9    1  0.5981539E-005  0.1214608E+03  0.7546771E-02  0.1245275E+00
         21   -1    0    0  501  502  0.00000000000E+00  0.00000000000E+00  0.54324831939E+02  0.54324831939E+02  0.00000000000E+00 0. -1.
          3   -1    0    0  502    0 -0.00000000000E+00 -0.00000000000E+00 -0.67413921688E+03  0.67413921688E+03  0.00000000000E+00 0. -1.
         23    2    1    2    0    0 -0.43570627855E+02  0.49065481843E+02 -0.40945112604E+03  0.42518220666E+03  0.93935419993E+02 0.  0.
        -24    2    1    2    0    0  0.11060377789E+03 -0.62719336667E+02 -0.14729378389E+03  0.21023545785E+03  0.79602626131E+02 0.  0.
         11    1    4    4    0    0  0.80906530273E+02 -0.68722822096E+01 -0.53976621633E+02  0.97501644020E+02  0.00000000000E+00 0. -1.
        -12    1    4    4    0    0  0.29697247615E+02 -0.55847054458E+02 -0.93317162261E+02  0.11273381383E+03  0.00000000000E+00 0.  1.
        -13    1    3    3    0    0  0.27387486554E+02  0.88691979829E+01 -0.63057659315E+02  0.69318146908E+02  0.00000000000E+00 0. -1.
         13    1    3    3    0    0 -0.70958114409E+02  0.40196283860E+02 -0.34639346672E+03  0.35586405976E+03  0.00000000000E+00 0.  1.
          4    1    1    2  501    0 -0.67033150033E+02  0.13653854825E+02 -0.63069475007E+02  0.93046384307E+02  0.00000000000E+00 0. -1.
<scales pt_clust_5="13000.00000" pt_clust_6="13000.00000" pt_clust_7="13000.00000" pt_clust_8="13000.00000" pt_clust_9="68.40958"></scales>
<clustering>
<clus scale="   68.410">  1  9  2 -1</clus>
<clus scale="   79.603">  5  6 -1 -1</clus>
<clus scale="   93.935">  7  8 -1 -1</clus>
<clus scale="  110.749">  1  5  2 -1</clus>
<clus scale="   68.410">  1  5  2 -1</clus>
</clustering>
</event>
<event>
 9    1  0.5981539E-005  0.9738398E+02  0.7546771E-02  0.1292488E+00
          1   -1    0    0  502    0 -0.00000000000E+00  0.00000000000E+00  0.15371667294E+03  0.15371667294E+03  0.00000000000E+00 0. -1.
         21   -1    0    0  501  502  0.00000000000E+00 -0.00000000000E+00 -0.21421705568E+03  0.21421705568E+03  0.00000000000E+00 0.  1.
         23    2    1    2    0    0  0.20077385869E+02  0.23842272859E+02  0.12037777977E+03  0.15494531349E+03  0.92442873772E+02 0.  0.
        -24    2    1    2    0    0 -0.41749406874E+00 -0.31660534037E+02 -0.16590070287E+03  0.18706620746E+03  0.80424865810E+02 0.  0.
         13    1    4    4    0    0 -0.34654230030E+02 -0.60761923554E+01 -0.36095059853E+02  0.50405248916E+02  0.00000000000E+00 0. -1.
        -14    1    4    4    0    0  0.34236735961E+02 -0.25584341681E+02 -0.12980564302E+03  0.13666095854E+03  0.00000000000E+00 0.  1.
        -11    1    3    3    0    0  0.24501486576E+02 -0.31604247784E+02  0.65926785655E+02  0.77107019066E+02  0.00000000000E+00 0.  1.
         11    1    3    3    0    0 -0.44241007063E+01  0.55446520644E+02  0.54450994116E+02  0.77838294423E+02  0.00000000000E+00 0. -1.
          2    1    1    2  501    0 -0.19659891801E+02  0.78182611771E+01 -0.14977459644E+02  0.25922207676E+02  0.00000000000E+00 0. -1.
<scales pt_clust_5="13000.00000" pt_clust_6="13000.00000" pt_clust_7="13000.00000" pt_clust_8="13000.00000" pt_clust_9="21.15742"></scales>
<clustering>
<clus scale="   21.157">  2  9  1 -1</clus>
<clus scale="   80.425">  5  6 -1 -1</clus>
<clus scale="   86.059">  2  5  1 -1</clus>
<clus scale="   92.443">  7  8 -1 -1</clus>
<clus scale="   21.157">  2  5  1 -1</clus>
</clustering>
</event>
<event>
 9    1  0.5981539E-005  0.2010241E+03  0.7546771E-02  0.1164799E+00
         21   -1    0    0  501  502  0.00000000000E+00  0.00000000000E+00  0.43988476441E+03  0.43988476441E+03  0.00000000000E+00 0.  1.
         -2   -1    0    0    0  501 -0.00000000000E+00 -0.00000000000E+00 -0.22354760420E+03  0.22354760420E+03  0.00000000000E+00 0.  1.
         23    2    1    2    0    0 -0.52103867981E+02  0.88393676587E+02 -0.83630277086E+02  0.16177176354E+03  0.92993683199E+02 0.  0.
        -24    2    1    2    0    0 -0.14701247535E+03  0.68125858485E+00  0.60014287409E+02  0.17737804865E+03  0.79045084773E+02 0.  0.
         13    1    4    4    0    0 -0.10064579914E+03 -0.29993195464E+02  0.15499246870E+02  0.10615740818E+03  0.00000000000E+00 0. -1.
        -14    1    4    4    0    0 -0.46366676212E+02  0.30674454049E+02  0.44515040539E+02  0.71220640465E+02  0.00000000000E+00 0.  1.
        -11    1    3    3    0    0 -0.55480569348E+02  0.20074437590E+02 -0.70825476466E+02  0.92180934777E+02  0.00000000000E+00 0.  1.
         11    1    3    3    0    0  0.33767013671E+01  0.68319238997E+02 -0.12804800620E+02  0.69590828765E+02  0.00000000000E+00 0. -1.
         -1    1    1    2    0  502  0.19911634333E+03 -0.89074935172E+02  0.23995314989E+03  0.32428255642E+03  0.00000000000E+00 0.  1.
<scales pt_clust_5="13000.00000" pt_clust_6="13000.00000" pt_clust_7="13000.00000" pt_clust_8="13000.00000" pt_clust_9="184.83119"></scales>
<clustering>
<clus scale="   79.045">  5  6 -1 -1</clus>
<clus scale="   92.994">  7  8 -1 -1</clus>
<clus scale="  138.478">  2  7  1 -1</clus>
<clus scale="  184.831">  1  9  2 -1</clus>
<clus scale="  184.831">  1  5  2 -1</clus>
</clustering>
</event>
<event>
 9    1  0.5981539E-005  0.1043619E+03  0.7546771E-02  0.1272886E+00
         -2   -1    0    0    0  501 -0.00000000000E+00  0.00000000000E+00  0.30003313349E+03  0.30003313349E+03  0.00000000000E+00 0.  1.
         21   -1    0    0  501  502  0.00000000000E+00 -0.00000000000E+00 -0.12496843168E+03  0.12496843168E+03  0.00000000000E+00 0.  1.
        -24    2    1    2    0    0 -0.39658875509E+02 -0.34890005608E+02  0.18807261181E+03  0.21447986332E+03  0.88544709381E+02 0.  0.
         23    2    1    2    0    0  0.15139537690E+02  0.14624984519E+02 -0.88039239257E+02  0.12902587756E+03  0.91943861446E+02 0.  0.
         13    1    3    3    0    0 -0.67780296835E+02 -0.18763091856E+02  0.13678090862E+03  0.15380259821E+03  0.00000000000E+00 0. -1.
        -14    1    3    3    0    0  0.28121421326E+02 -0.16126913752E+02  0.51291703190E+02  0.60677265106E+02  0.00000000000E+00 0.  1.
        -13    1    4    4    0    0 -0.13499008798E+02  0.26924703412E+02 -0.92737267521E+02  0.97505711010E+02  0.00000000000E+00 0.  1.
         13    1    4    4    0    0  0.28638546488E+02 -0.12299718892E+02  0.46980282638E+01  0.31520166550E+02  0.00000000000E+00 0. -1.
         -1    1    1    2    0  502  0.24519337819E+02  0.20265021089E+02  0.75031329261E+02  0.81495824295E+02  0.00000000000E+00 0.  1.
<scales pt_clust_5="13000.00000" pt_clust_6="13000.00000" pt_clust_7="13000.00000" pt_clust_8="13000.00000" pt_clust_9="31.80990"></scales>
<clustering>
<clus scale="   31.810">  2  9  1 -1</clus>
<clus scale="   88.545">  5  6 -1 -1</clus>
<clus scale="   91.944">  7  8 -1 -1</clus>
<clus scale="  101.380">  1  5  2 -1</clus>
<clus scale="   31.810">  2  5  1 -1</clus>
</clustering>
</event>
<event>
 9    1  0.5981539E-005  0.1189689E+03  0.7546771E-02  0.1257044E+00
         -2   -1    0    0    0  501 -0.00000000000E+00  0.00000000000E+00  0.22202474949E+03  0.22202474949E+03  0.00000000000E+00 0.  1.
         21   -1    0    0  501  502  0.00000000000E+00 -0.00000000000E+00 -0.21120615119E+03  0.21120615119E+03  0.00000000000E+00 0. -1.
         23    2    1    2    0    0  0.13360437385E+02  0.17119324105E+02  0.43856689991E+02  0.10300557355E+03  0.90637555019E+02 0.  0.
        -24    2    1    2    0    0  0.53981492017E+01  0.86668996368E+02 -0.13833209498E+03  0.18119268921E+03  0.78449774866E+02 0.  0.
         11    1    4    4    0    0 -0.31244610733E+02  0.65797736089E+02 -0.10314077887E+03  0.12626792166E+03  0.00000000000E+00 0. -1.
        -12    1    4    4    0    0  0.36642759934E+02  0.20871260280E+02 -0.35191316108E+02  0.54924767552E+02  0.00000000000E+00 0.  1.
        -13    1    3    3    0    0 -0.76593408304E+01  0.50617045989E+02  0.12926781040E+02  0.52800118510E+02  0.00000000000E+00 0.  1.
         13    1    3    3    0    0  0.21019778215E+02 -0.33497721884E+02  0.30929908951E+02  0.50205455036E+02  0.00000000000E+00 0. -1.
         -1    1    1    2    0  502 -0.18758586586E+02 -0.10378832047E+03  0.10529400329E+03  0.14903263792E+03  0.00000000000E+00 0.  1.
<scales pt_clust_5="13000.00000" pt_clust_6="13000.00000" pt_clust_7="13000.00000" pt_clust_8="13000.00000" pt_clust_9="89.43847"></scales>
<clustering>
<clus scale="   78.450">  5  6 -1 -1</clus>
<clus scale="   90.638">  7  8 -1 -1</clus>
<clus scale="   93.203">  1  7  2 -1</clus>
<clus scale="   89.438">  2  9  1 -1</clus>
<clus scale="   89.438">  2  5  1 -1</clus>
</clustering>
</event>
<event>
 9    1  0.5981539E-005  0.9516575E+02  0.7546771E-02  0.1294709E+00
         -4   -1    0    0    0  501 -0.00000000000E+00  0.00000000000E+00  0.58885086513E+03  0.58885086513E+03  0.00000000000E+00 0.  1.
         21   -1    0    0  501  502  0.00000000000E+00 -0.00000000000E+00 -0.41759606397E+02  0.41759606397E+02  0.00000000000E+00 0. -1.
        -24    2    1    2    0    0  0.18850945343E+02  0.33549265701E+02  0.35973748088E+03  0.37087860610E+03  0.81602536389E+02 0.  0.
         23    2    1    2    0    0 -0.50646696263E+02  0.22459459948E+02  0.70168686128E+02  0.12601465319E+03  0.88806154753E+02 0.  0.
         13    1    3    3    0    0  0.82684712002E+00  0.58360520188E+02  0.26290861721E+03  0.26930944097E+03  0.00000000000E+00 0. -1.
        -14    1    3    3    0    0  0.18024098223E+02 -0.24811254486E+02  0.96828863673E+02  0.10156916513E+03  0.00000000000E+00 0.  1.
        -13    1    4    4    0    0  0.17619796975E+02  0.30476877127E+02  0.16877835666E+02  0.39040474147E+02  0.00000000000E+00 0.  1.
         13    1    4    4    0    0 -0.68266493238E+02 -0.80174171786E+01  0.53290850462E+02  0.86974179043E+02  0.00000000000E+00 0. -1.
         -3    1    1    2    0  502  0.31795750920E+02 -0.56008725649E+02  0.11718509172E+03  0.13371721223E+03  0.00000000000E+00 0.  1.
<scales pt_clust_5="13000.00000" pt_clust_6="13000.00000" pt_clust_7="13000.00000" pt_clust_8="13000.00000" pt_clust_9="64.40459"></scales>
<clustering>
<clus scale="   64.405">  2  9  1 -1</clus>
<clus scale="   81.603">  5  6 -1 -1</clus>
<clus scale="   88.481">  1  5  2 -1</clus>
<clus scale="   88.806">  7  8 -1 -1</clus>
<clus scale="   64.405">  2  5  1 -1</clus>
</clustering>
</event>
<event>
 9    1  0.5981539E-005  0.9119022E+02  0.7546771E-02  0.1306255E+00
          1   -1    0    0  502    0 -0.00000000000E+00  0.00000000000E+00  0.75578589106E+03  0.75578589106E+03  0.00000000000E+00 0. -1.
         21   -1    0    0  501  502  0.00000000000E+00 -0.00000000000E+00 -0.26665675370E+02  0.26665675370E+02  0.00000000000E+00 0.  1.
        -24    2    1    2    0    0 -0.21311268145E+02  0.55589006223E+01  0.55551045100E+03  0.56149108132E+03  0.78710238934E+02 0.  0.
         23    2    1    2    0    0  0.14598416925E+02  0.33730643119E+02  0.11270852861E+03  0.14817524502E+03  0.88892186108E+02 0.  0.
         11    1    3    3    0    0  0.23145833195E+02 -0.47249290400E+01  0.70791244170E+02  0.74628779971E+02  0.00000000000E+00 0. -1.
        -12    1    3    3    0    0 -0.44457101340E+02  0.10283829662E+02  0.48471920683E+03  0.48686230135E+03  0.00000000000E+00 0.  1.
        -13    1    4    4    0    0  0.25253776012E+02  0.55993012276E+02  0.45102751397E+02  0.76205175744E+02  0.00000000000E+00 0.  1.
         13    1    4    4    0    0 -0.10655359088E+02 -0.22262369157E+02  0.67605777218E+02  0.71970069272E+02  0.00000000000E+00 0. -1.
          2    1    1    2  501    0  0.67128512206E+01 -0.39289543741E+02  0.60901236074E+02  0.72785240085E+02  0.00000000000E+00 0. -1.
<scales pt_clust_5="13000.00000" pt_clust_6="13000.00000" pt_clust_7="13000.00000" pt_clust_8="13000.00000" pt_clust_9="39.85888"></scales>
<clustering>
<clus scale="   39.859">  2  9  1 -1</clus>
<clus scale="   78.710">  5  6 -1 -1</clus>
<clus scale="   81.297">  1  5  2 -1</clus>
<clus scale="   88.892">  7  8 -1 -1</clus>
<clus scale="   39.859">  2  5  1 -1</clus>
</clustering>
</event>
<event>
 9    1  0.5981539E-005  0.1026135E+03  0.7546771E-02  0.1279135E+00
          3   -1    0    0  502    0 -0.00000000000E+00  0.00000000000E+00  0.11142220575E+03  0.11142220575E+03  0.00000000000E+00 0. -1.
         21   -1    0    0  501  502  0.00000000000E+00 -0.00000000000E+00 -0.21084142796E+03  0.21084142796E+03  0.00000000000E+00 0. -1.
         23    2    1    2    0    0 -0.34639729723E+02 -0.26725929812E+02  0.28077260454E+02  0.10437871368E+03  0.90511861739E+02 0.  0.
        -24    2    1    2    0    0  0.79310774173E+02 -0.96083402112E+01 -0.10813343554E+03  0.15713453745E+03  0.81338206738E+02 0.  0.
         13    1    4    4    0    0  0.85931076042E+02  0.10702048982E+02 -0.62641874739E+02  0.10687697672E+03  0.00000000000E+00 0. -1.
        -14    1    4    4    0    0 -0.66203018692E+01 -0.20310389193E+02 -0.45491560800E+02  0.50257560725E+02  0.00000000000E+00 0.  1.
        -13    1    3    3    0    0 -0.49743604316E+01 -0.54771644298E+02  0.31555507707E+02  0.63406839911E+02  0.00000000000E+00 0. -1.
         13    1    3    3    0    0 -0.29665369292E+02  0.28045714486E+02 -0.34782472533E+01  0.40971873770E+02  0.00000000000E+00 0.  1.
          4    1    1    2  501    0 -0.44671044450E+02  0.36334270023E+02 -0.19363047119E+02  0.60750382584E+02  0.00000000000E+00 0. -1.
<scales pt_clust_5="13000.00000" pt_clust_6="13000.00000" pt_clust_7="13000.00000" pt_clust_8="13000.00000" pt_clust_9="57.58195"></scales>
<clustering>
<clus scale="   57.582">  2  9  1 -1</clus>
<clus scale="   81.338">  5  6 -1 -1</clus>
<clus scale="   90.512">  7  8 -1 -1</clus>
<clus scale="   94.620">  2  5  1 -1</clus>
<clus scale="   57.582">  2  5  1 -1</clus>
</clustering>
</event>
<event>
 9    1  0.5981539E-005  0.1107048E+03  0.7546771E-02  0.1263777E+00
          1   -1    0    0  502    0 -0.00000000000E+00  0.00000000000E+00  0.28197603332E+03  0.28197603332E+03  0.00000000000E+00 0. -1.
         21   -1    0    0  501  502  0.00000000000E+00 -0.00000000000E+00 -0.66997004598E+02  0.66997004598E+02  0.00000000000E+00 0. -1.
        -24    2    1    2    0    0  0.41128060715E+02 -0.28069072304E+02  0.89608432609E+02  0.13007413903E+03  0.80063851085E+02 0.  0.
         23    2    1    2    0    0 -0.37207458735E+02  0.73390020078E+02  0.12189548439E+03  0.17327614329E+03  0.91627630579E+02 0.  0.
         13    1    3    3    0    0  0.47501242468E+02 -0.27507190546E+02  0.10216749008E+03  0.11597934987E+03  0.00000000000E+00 0. -1.
        -14    1    3    3    0    0 -0.63731817523E+01 -0.56188175827E+00 -0.12559057470E+02  0.14094789154E+02  0.00000000000E+00 0.  1.
        -11    1    4    4    0    0 -0.51100543771E+02  0.44624174386E+02  0.26775089533E+02  0.72934819756E+02  0.00000000000E+00 0. -1.
         11    1    4    4    0    0  0.13893085036E+02  0.28765845692E+02  0.95120394862E+02  0.10034132354E+03  0.00000000000E+00 0.  1.
          2    1    1    2  501    0 -0.39206019804E+01 -0.45320947774E+02  0.34751117180E+01  0.45622755599E+02  0.00000000000E+00 0. -1.
<scales pt_clust_5="13000.00000" pt_clust_6="13000.00000" pt_clust_7="13000.00000" pt_clust_8="13000.00000" pt_clust_9="45.49021"></scales>
<clustering>
<clus scale="   45.490">  2  9  1 -1</clus>
<clus scale="   80.064">  5  6 -1 -1</clus>
<clus scale="   91.628">  7  8 -1 -1</clus>
<clus scale="  101.342">  1  5  2 -1</clus>
<clus scale="   45.490">  2  5  1 -1</clus>
</clustering>
</event>
<event>
 9    1  0.5981539E-005  0.1822427E+03  0.7546771E-02  0.1179792E+00
         21   -1    0    0  501  502  0.00000000000E+00  0.00000000000E+00  0.11877257556E+04  0.11877257556E+04  0.00000000000E+00 0.  1.
         -4   -1    0    0    0  501 -0.00000000000E+00 -0.00000000000E+00 -0.89907654467E+02  0.89907654467E+02  0.00000000000E+00 0.  1.
         23    2    1    2    0    0  0.69884905741E+02 -0.63552132369E+02  0.18610763781E+02  0.13338176512E+03  0.92312302315E+02 0.  0.
        -24    2    1    2    0    0  0.82438053551E+02  0.14075608548E+03  0.34328803003E+03  0.38877830910E+03  0.81814386172E+02 0.  0.
         13    1    4    4    0    0  0.66271565749E+02  0.37534720952E+02  0.11803698994E+03  0.14047600044E+03  0.00000000000E+00 0. -1.
        -14    1    4    4    0    0  0.16166487802E+02  0.10322136453E+03  0.22525104009E+03  0.24830230866E+03  0.00000000000E+00 0.  1.
        -11    1    3    3    0    0 -0.16902248828E+02 -0.35101585273E+02 -0.43701614680E+01  0.39203387805E+02  0.00000000000E+00 0. -1.
         11    1    3    3    0    0  0.86787154569E+02 -0.28450547096E+02  0.22980925249E+02  0.94178377314E+02  0.00000000000E+00 0.  1.
         -3    1    1    2    0  502 -0.15232295929E+03 -0.77203953115E+02  0.73591930736E+03  0.75547333589E+03  0.00000000000E+00 0.  1.
<scales pt_clust_5="13000.00000" pt_clust_6="13000.00000" pt_clust_7="13000.00000" pt_clust_8="13000.00000" pt_clust_9="162.84592"></scales>
<clustering>
<clus scale="   81.814">  5  6 -1 -1</clus>
<clus scale="   92.312">  7  8 -1 -1</clus>
<clus scale="  132.077">  2  7  1 -1</clus>
<clus scale="  162.846">  1  9  2 -1</clus>
<clus scale="  162.846">  1  5  2 -1</clus>
</clustering>
</event>
<event>
 9    1  0.5981539E-005  0.2727757E+03  0.7546771E-02  0.1115129E+00
          1   -1    0    0  502    0 -0.00000000000E+00  0.00000000000E+00  0.98639117422E+03  0.98639117422E+03  0.00000000000E+00 0. -1.
         21   -1    0    0  501  502  0.00000000000E+00 -0.00000000000E+00 -0.14178197429E+03  0.14178197429E+03  0.00000000000E+00 0. -1.
         23    2    1    2    0    0  0.73740535351E+02  0.13575429218E+03  0.17002680367E+03  0.25037594614E+03  0.99559560251E+02 0.  0.
        -24    2    1    2    0    0  0.17737886648E+03  0.59510067389E+02  0.43300291229E+03  0.47836038488E+03  0.79576537867E+02 0.  0.
         13    1    4    4    0    0  0.16377010848E+03  0.24660881338E+02  0.36268507791E+03  0.39870950984E+03  0.00000000000E+00 0. -1.
        -14    1    4    4    0    0  0.13608757997E+02  0.34849186051E+02  0.70317834383E+02  0.79650875042E+02  0.00000000000E+00 0.  1.
        -11    1    3    3    0    0  0.61784880435E+02  0.39706494847E+02  0.28203545704E+02  0.78672849025E+02  0.00000000000E+00 0.  1.
         11    1    3    3    0    0  0.11955654916E+02  0.96047797329E+02  0.14182325797E+03  0.17170309711E+03  0.00000000000E+00 0. -1.
          2    1    1    2  501    0 -0.25111940183E+03 -0.19526435956E+03  0.24157948397E+03  0.39943681749E+03  0.00000000000E+00 0. -1.
<scales pt_clust_5="13000.00000" pt_clust_6="13000.00000" pt_clust_7="13000.00000" pt_clust_8="13000.00000" pt_clust_9="260.91026"></scales>
<clustering>
<clus scale="   79.577">  5  6 -1 -1</clus>
<clus scale="   99.560">  7  8 -1 -1</clus>
<clus scale="  183.791">  1  7  2 -1</clus>
<clus scale="  260.910">  2  9  1 -1</clus>
<clus scale="  260.910">  2  5  1 -1</clus>
</clustering>
</event>
<event>
 9    1  0.5981539E-005  0.1070731E+03  0.7546771E-02  0.1271978E+00
          1   -1    0    0  502    0 -0.00000000000E+00  0.00000000000E+00  0.70015615041E+03  0.70015615041E+03  0.00000000000E+00 0. -1.
         21   -1    0    0  501  502  0.00000000000E+00 -0.00000000000E+00 -0.35354858061E+02  0.35354858061E+02  0.00000000000E+00 0.  1.
         23    2    1    2    0    0  0.62283457379E+02  0.23546727209E+01  0.52394063923E+03  0.53535909343E+03  0.90613420233E+02 0.  0.
        -24    2    1    2    0    0 -0.31248168381E+02 -0.14369342587E+02  0.38275144304E+02  0.92303280037E+02  0.76628864017E+02 0.  0.
         11    1    4    4    0    0 -0.42323038823E+02  0.20200248944E+02  0.15238318487E+02  0.49310202017E+02  0.00000000000E+00 0. -1.
        -12    1    4    4    0    0  0.11074870442E+02 -0.34569591531E+02  0.23036825817E+02  0.42993078020E+02  0.00000000000E+00 0.  1.
        -13    1    3    3    0    0  0.83996045273E+02 -0.10266428478E+02  0.38840043593E+03  0.39751180335E+03  0.00000000000E+00 0. -1.
         13    1    3    3    0    0 -0.21712587894E+02  0.12621101199E+02  0.13554020330E+03  0.13784729007E+03  0.00000000000E+00 0.  1.
          2    1    1    2  501    0 -0.31035288997E+02  0.12014669866E+02  0.10258550881E+03  0.10784863501E+03  0.00000000000E+00 0. -1.
<scales pt_clust_5="13000.00000" pt_clust_6="13000.00000" pt_clust_7="13000.00000" pt_clust_8="13000.00000" pt_clust_9="33.27976"></scales>
<clustering>
<clus scale="   33.280">  2  9  1 -1</clus>
<clus scale="   76.629">  5  6 -1 -1</clus>
<clus scale="   90.613">  7  8 -1 -1</clus>
<clus scale="   95.529">  2  5  1 -1</clus>
<clus scale="   33.280">  2  5  1 -1</clus>
</clustering>
</event>
<event>
 9    1  0.5981539E-005  0.1919690E+03  0.7546771E-02  0.1186086E+00
         21   -1    0    0  501  502  0.00000000000E+00  0.00000000000E+00  0.52092826938E+03  0.52092826938E+03  0.00000000000E+00 0. -1.
          1   -1    0    0  502    0 -0.00000000000E+00 -0.00000000000E+00 -0.12818365644E+03  0.12818365644E+03  0.00000000000E+00 0. -1.
         23    2    1    2    0    0 -0.37285080803E+02 -0.17401023821E+02 -0.14818757524E+02  0.99275709007E+02  0.89124059287E+02 0.  0.
        -24    2    1    2    0    0 -0.15020477572E+03  0.52178721538E+02  0.18216735918E+03  0.25459852196E+03  0.79695464129E+02 0.  0.
         13    1    4    4    0    0 -0.13343165005E+03  0.71992397955E+02  0.15018992751E+03  0.21341022685E+03  0.00000000000E+00 0. -1.
        -14    1    4    4    0    0 -0.16773125673E+02 -0.19813676417E+02  0.31977431671E+02  0.41188295113E+02  0.00000000000E+00 0.  1.
        -11    1    3    3    0    0 -0.50553431236E+01 -0.48931983641E+02 -0.21517233373E+02  0.53692521352E+02  0.00000000000E+00 0.  1.
         11    1    3    3    0    0 -0.32229737679E+02  0.31530959820E+02  0.66984758489E+01  0.45583187655E+02  0.00000000000E+00 0. -1.
          2    1    1    2  501    0  0.18748985653E+03 -0.34777697717E+02  0.22539601129E+03  0.29523769486E+03  0.00000000000E+00 0. -1.
<scales pt_clust_5="13000.00000" pt_clust_6="13000.00000" pt_clust_7="13000.00000" pt_clust_8="13000.00000" pt_clust_9="174.64465"></scales>
<clustering>
<clus scale="   79.695">  5  6 -1 -1</clus>
<clus scale="   89.124">  7  8 -1 -1</clus>
<clus scale="   98.163">  2  7  1 -1</clus>
<clus scale="  174.645">  1  9  2 -1</clus>
<clus scale="  174.645">  1  5  2 -1</clus>
</clustering>
</event>
<event>
 9    1  0.5981539E-005  0.1008888E+03  0.7546771E-02  0.1289603E+00
         -4   -1    0    0    0  501 -0.00000000000E+00  0.00000000000E+00  0.58952538405E+03  0.58952538405E+03  0.00000000000E+00 0.  1.
         21   -1    0    0  501  502  0.00000000000E+00 -0.00000000000E+00 -0.24715420595E+02  0.24715420595E+02  0.00000000000E+00 0. -1.
        -24    2    1    2    0    0  0.25515782258E+02 -0.19497975453E+02  0.37156665354E+03  0.38035614069E+03  0.74684600433E+02 0.  0.
         23    2    1    2    0    0 -0.14404647317E+02  0.37871293805E+02  0.18258976375E+03  0.20991522106E+03  0.95308181433E+02 0.  0.
         13    1    3    3    0    0  0.51508640096E+02 -0.56343291553E+01  0.23270343463E+03  0.23840254646E+03  0.00000000000E+00 0. -1.
        -14    1    3    3    0    0 -0.25992857838E+02 -0.13863646297E+02  0.13886321891E+03  0.14195359423E+03  0.00000000000E+00 0.  1.
        -13    1    4    4    0    0 -0.51093497788E+02  0.19917981749E+02  0.14247790221E+03  0.15266703682E+03  0.00000000000E+00 0.  1.
         13    1    4    4    0    0  0.36688850471E+02  0.17953312055E+02  0.40111861536E+02  0.57248184238E+02  0.00000000000E+00 0. -1.
         -3    1    1    2    0  502 -0.11111134941E+02 -0.18373318352E+02  0.10653546161E+02  0.23969442896E+02  0.00000000000E+00 0.  1.
<scales pt_clust_5="13000.00000" pt_clust_6="13000.00000" pt_clust_7="13000.00000" pt_clust_8="13000.00000" pt_clust_9="21.47175"></scales>
<clustering>
<clus scale="   21.472">  2  9  1 -1</clus>
<clus scale="   74.685">  5  6 -1 -1</clus>
<clus scale="   81.687">  1  5  2 -1</clus>
<clus scale="   95.308">  7  8 -1 -1</clus>
<clus scale="   21.472">  2  5  1 -1</clus>
</clustering>
</event>
<event>
 9    1  0.5981539E-005  0.1219745E+03  0.7546771E-02  0.1258883E+00
         21   -1    0    0  501  502  0.00000000000E+00  0.00000000000E+00  0.25602092011E+03  0.25602092011E+03  0.00000000000E+00 0.  1.
         -4   -1    0    0    0  501 -0.00000000000E+00 -0.00000000000E+00 -0.88323054234E+02  0.88323054234E+02  0.00000000000E+00 0.  1.
        -24    2    1    2    0    0 -0.92461457777E+01 -0.18905279676E+02  0.23137633465E+01  0.83433043007E+02  0.80702034381E+02 0.  0.
         23    2    1    2    0    0 -0.72195874683E+02  0.21176867233E-01  0.89450910208E+02  0.14797173649E+03  0.93176846342E+02 0.  0.
         11    1    3    3    0    0 -0.22841945057E+02 -0.46895918066E+02 -0.71678599959E+00  0.52167953452E+02  0.00000000000E+00 0. -1.
        -12    1    3    3    0    0  0.13595799280E+02  0.27990638390E+02  0.30305493461E+01  0.31265089554E+02  0.00000000000E+00 0.  1.
        -13    1    4    4    0    0 -0.12205400771E+02  0.37861190293E+02  0.58125836736E+02  0.70434753032E+02  0.00000000000E+00 0. -1.
         13    1    4    4    0    0 -0.59990473912E+02 -0.37840013426E+02  0.31325073472E+02  0.77536983462E+02  0.00000000000E+00 0.  1.
         -3    1    1    2    0  502  0.81442020461E+02  0.18884102809E+02  0.75933192319E+02  0.11293919484E+03  0.00000000000E+00 0.  1.
<scales pt_clust_5="13000.00000" pt_clust_6="13000.00000" pt_clust_7="13000.00000" pt_clust_8="13000.00000" pt_clust_9="78.71372"></scales>
<clustering>
<clus scale="   80.702">  5  6 -1 -1</clus>
<clus scale="   83.401">  2  5  1 -1</clus>
<clus scale="   78.714">  1  9  2 -1</clus>
<clus scale="   93.177">  7  8 -1 -1</clus>
<clus scale="   78.714">  1  5  2 -1</clus>
</clustering>
</event>
<event>
 9    1  0.5981539E-005  0.1262981E+03  0.7546771E-02  0.1237680E+00
         21   -1    0    0  501  502  0.00000000000E+00  0.00000000000E+00  0.16346608101E+03  0.16346608101E+03  0.00000000000E+00 0. -1.
          1   -1    0    0  502    0 -0.00000000000E+00 -0.00000000000E+00 -0.15791101024E+03  0.15791101024E+03  0.00000000000E+00 0. -1.
        -24    2    1    2    0    0  0.60607046838E+02  0.55098689444E+02 -0.89692824676E+02  0.14627704353E+03  0.81505159098E+02 0.  0.
         23    2    1    2    0    0 -0.43523184244E+02 -0.65815962035E+02  0.90702567090E+02  0.15442691775E+03  0.96926306150E+02 0.  0.
         13    1    3    3    0    0  0.79781674662E+02  0.41474884073E+02 -0.81535634847E+02  0.12138097615E+03  0.00000000000E+00 0. -1.
        -14    1    3    3    0    0 -0.19174627824E+02  0.13623805371E+02 -0.81571898285E+01  0.24896067378E+02  0.00000000000E+00 0.  1.
        -13    1    4    4    0    0 -0.13984115530E+00  0.24442621723E+02  0.22858593164E+02  0.33466051361E+02  0.00000000000E+00 0.  1.
         13    1    4    4    0    0 -0.43383343088E+02 -0.90258583759E+02  0.67843973925E+02  0.12096086639E+03  0.00000000000E+00 0. -1.
          2    1    1    2  501    0 -0.17083862594E+02  0.10717272591E+02  0.45453283515E+01  0.20673129970E+02  0.00000000000E+00 0. -1.
<scales pt_clust_5="13000.00000" pt_clust_6="13000.00000" pt_clust_7="13000.00000" pt_clust_8="13000.00000" pt_clust_9="20.16726"></scales>
<clustering>
<clus scale="   20.167">  1  9  2 -1</clus>
<clus scale="   81.505">  5  6 -1 -1</clus>
<clus scale="   96.926">  7  8 -1 -1</clus>
<clus scale="  114.890">  2  5  1 -1</clus>
<clus scale="   20.167">  1  5  2 -1</clus>
</clustering>
</event>
<event>
 9    1  0.5981539E-005  0.8999358E+02  0.7546771E-02  0.1316014E+00
         21   -1    0    0  501  502  0.00000000000E+00  0.00000000000E+00  0.12416024741E+03  0.12416024741E+03  0.00000000000E+00 0.  1.
         -2   -1    0    0    0  501 -0.00000000000E+00 -0.00000000000E+00 -0.10532137673E+03  0.10532137673E+03  0.00000000000E+00 0.  1.
        -24    2    1    2    0    0  0.65439127427E+01 -0.43503740422E+00 -0.53055258351E+02  0.88417463483E+02  0.70425672581E+02 0.  0.
         23    2    1    2    0    0 -0.11546804363E+02 -0.22326999831E+02  0.72109688815E+02  0.11775781539E+03  0.89639680122E+02 0.  0.
         13    1    3    3    0    0 -0.28131319661E+02  0.87051078680E+01 -0.73998824645E+01  0.30362943028E+02  0.00000000000E+00 0. -1.
        -14    1    3    3    0    0  0.34675232404E+02 -0.91401452722E+01 -0.45655375886E+02  0.58054520454E+02  0.00000000000E+00 0.  1.
        -13    1    4    4    0    0 -0.53935268667E+01  0.30107326330E+02  0.53785120230E+02  0.61873907174E+02  0.00000000000E+00 0. -1.
         13    1    4    4    0    0 -0.61532774962E+01 -0.52434326161E+02  0.18324568585E+02  0.55883908218E+02  0.00000000000E+00 0.  1.
         -1    1    1    2    0  502  0.50028916203E+01  0.22762037235E+02 -0.21555979027E+00  0.23306345266E+02  0.00000000000E+00 0.  1.
<scales pt_clust_5="13000.00000" pt_clust_6="13000.00000" pt_clust_7="13000.00000" pt_clust_8="13000.00000" pt_clust_9="23.30536"></scales>
<clustering>
<clus scale="   23.305">  1  9  2 -1</clus>
<clus scale="   70.426">  5  6 -1 -1</clus>
<clus scale="   70.876">  2  5  1 -1</clus>
<clus scale="   89.640">  7  8 -1 -1</clus>
<clus scale="   23.305">  1  5  2 -1</clus>
</clustering>
</event>
<event>
 9    1  0.5981539E-005  0.9816618E+02  0.7546771E-02  0.1303461E+00
         21   -1    0    0  501  502  0.00000000000E+00  0.00000000000E+00  0.14330882347E+03  0.14330882347E+03  0.00000000000E+00 0.  1.
          1   -1    0    0  502    0 -0.00000000000E+00 -0.00000000000E+00 -0.10023526043E+03  0.10023526043E+03  0.00000000000E+00 0. -1.
         23    2    1    2    0    0  0.10554216276E+02 -0.23360272962E+02 -0.43544952344E+02  0.10674867721E+03  0.94032033779E+02 0.  0.
        -24    2    1    2    0    0  0.79326545808E+01  0.36246163918E+02  0.35456300425E+02  0.80890283312E+02  0.62525013290E+02 0.  0.
         11    1    4    4    0    0 -0.24150700883E+02  0.30986483069E+02  0.25702059295E+02  0.46946931083E+02  0.00000000000E+00 0. -1.
        -12    1    4    4    0    0  0.32083355464E+02  0.52596808491E+01  0.97542411305E+01  0.33943352229E+02  0.00000000000E+00 0.  1.
        -13    1    3    3    0    0  0.19966387110E+01  0.36714396329E+02 -0.17297324441E+02  0.40634110016E+02  0.00000000000E+00 0. -1.
         13    1    3    3    0    0  0.85575775652E+01 -0.60074669292E+02 -0.26247627903E+02  0.66114567191E+02  0.00000000000E+00 0.  1.
          2    1    1    2  501    0 -0.18486870857E+02 -0.12885890956E+02  0.51162214959E+02  0.55905123373E+02  0.00000000000E+00 0. -1.
<scales pt_clust_5="13000.00000" pt_clust_6="13000.00000" pt_clust_7="13000.00000" pt_clust_8="13000.00000" pt_clust_9="22.53465"></scales>
<clustering>
<clus scale="   22.535">  1  9  2 -1</clus>
<clus scale="   62.525">  5  6 -1 -1</clus>
<clus scale="   68.585">  1  5  2 -1</clus>
<clus scale="   94.032">  7  8 -1 -1</clus>
<clus scale="   22.535">  1  5  2 -1</clus>
</clustering>
</event>
<event>
 9    1  0.5981539E-005  0.9450823E+02  0.7546771E-02  0.1298607E+00
          1   -1    0    0  502    0 -0.00000000000E+00  0.00000000000E+00  0.19871451567E+03  0.19871451567E+03  0.00000000000E+00 0. -1.
         21   -1    0    0  501  502  0.00000000000E+00 -0.00000000000E+00 -0.94422370139E+02  0.94422370139E+02  0.00000000000E+00 0.  1.
         23    2    1    2    0    0 -0.65754098574E+01  0.17888076231E+02  0.94047115938E+02  0.13148984645E+03  0.89897165784E+02 0.  0.
        -24    2    1    2    0    0  0.16254989099E+02 -0.38829028569E+02  0.59432563376E+02  0.10731812239E+03  0.78822786519E+02 0.  0.
         11    1    4    4    0    0 -0.22995416856E+02 -0.23045579765E+02  0.56125339700E+02  0.64884063525E+02  0.00000000000E+00 0. -1.
        -12    1    4    4    0    0  0.39250405955E+02 -0.15783448804E+02  0.33072236764E+01  0.42434058870E+02  0.00000000000E+00 0.  1.
        -11    1    3    3    0    0  0.27487171377E+02  0.41811338596E+02  0.55982248671E+02  0.75084917206E+02  0.00000000000E+00 0.  1.
         11    1    3    3    0    0 -0.34062581234E+02 -0.23923262365E+02  0.38064867267E+02  0.56404929240E+02  0.00000000000E+00 0. -1.
          2    1    1    2  501    0 -0.96795792413E+01  0.20940952338E+02 -0.49187533783E+02  0.54328916967E+02  0.00000000000E+00 0. -1.
<scales pt_clust_5="13000.00000" pt_clust_6="13000.00000" pt_clust_7="13000.00000" pt_clust_8="13000.00000" pt_clust_9="23.06984"></scales>
<clustering>
<clus scale="   23.070">  2  9  1 -1</clus>
<clus scale="   78.823">  5  6 -1 -1</clus>
<clus scale="   84.044">  2  5  1 -1</clus>
<clus scale="   89.897">  7  8 -1 -1</clus>
<clus scale="   23.070">  2  5  1 -1</clus>
</clustering>
</event>
<event>
 9    1  0.5981539E-005  0.1380135E+03  0.7546771E-02  0.1238035E+00
         21   -1    0    0  501  502  0.00000000000E+00  0.00000000000E+00  0.29707882500E+02  0.29707882500E+02  0.00000000000E+00 0. -1.
          1   -1    0    0  502    0 -0.00000000000E+00 -0.00000000000E+00 -0.90973756817E+03  0.90973756817E+03  0.00000000000E+00 0. -1.
        -24    2    1    2    0    0 -0.26105297690E+02 -0.36286505003E+02 -0.21276659665E+03  0.23002245712E+03  0.75116636748E+02 0.  0.
         23    2    1    2    0    0 -0.82716134852E+02  0.30185807181E+02 -0.35232259757E+03  0.37615607973E+03  0.98025719265E+02 0.  0.
         11    1    3    3    0    0 -0.51409311981E+02 -0.13287129161E+02 -0.13519175580E+03  0.14524557135E+03  0.00000000000E+00 0. -1.
        -12    1    3    3    0    0  0.25304014291E+02 -0.22999375842E+02 -0.77574840853E+02  0.84776885775E+02  0.00000000000E+00 0.  1.
        -11    1    4    4    0    0 -0.36063358276E+02  0.61447475621E+02 -0.24332653670E+03  0.25354321433E+03  0.00000000000E+00 0. -1.
         11    1    4    4    0    0 -0.46652776576E+02 -0.31261668440E+02 -0.10899606087E+03  0.12261286540E+03  0.00000000000E+00 0.  1.
          2    1    1    2  501    0  0.10882143254E+03  0.61006978216E+01 -0.31494049145E+03  0.33326691382E+03  0.00000000000E+00 0. -1.
<scales pt_clust_5="13000.00000" pt_clust_6="13000.00000" pt_clust_7="13000.00000" pt_clust_8="13000.00000" pt_clust_9="97.15289"></scales>
<clustering>
<clus scale="   75.117">  5  6 -1 -1</clus>
<clus scale="   87.411">  2  5  1 -1</clus>
<clus scale="   97.153">  1  9  2 -1</clus>
<clus scale="   98.026">  7  8 -1 -1</clus>
<clus scale="   97.153">  1  5  2 -1</clus>
</clustering>
</event>
<event>
 9    1  0.5981539E-005  0.9809780E+02  0.7546771E-02  0.1289022E+00
          1   -1    0    0  502    0 -0.00000000000E+00  0.00000000000E+00  0.27367726420E+03  0.27367726420E+03  0.00000000000E+00 0. -1.
         21   -1    0    0  501  502  0.00000000000E+00 -0.00000000000E+00 -0.63083086358E+02  0.63083086358E+02  0.00000000000E+00 0. -1.
         23    2    1    2    0    0 -0.21828275280E+01  0.36168918783E+02  0.18864663307E+03  0.21200918028E+03  0.89707217832E+02 0.  0.
        -24    2    1    2    0    0  0.22459514192E+02 -0.50154422759E+02  0.12366159238E+02  0.98321238532E+02  0.80586898142E+02 0.  0.
         11    1    4    4    0    0 -0.24670118139E+02 -0.37894792516E+02 -0.72982307009E+01  0.45802775027E+02  0.00000000000E+00 0. -1.
        -12    1    4    4    0    0  0.47129632330E+02 -0.12259630244E+02  0.19664389939E+02  0.52518463505E+02  0.00000000000E+00 0.  1.
        -11    1    3    3    0    0 -0.29173136780E+02 -0.18139701071E+02  0.49836677325E+02  0.60529456228E+02  0.00000000000E+00 0.  1.
         11    1    3    3    0    0  0.26990309252E+02  0.54308619854E+02  0.13880995574E+03  0.15147972405E+03  0.00000000000E+00 0. -1.
          2    1    1    2  501    0 -0.20276686664E+02  0.13985503976E+02  0.95813855352E+01  0.26429931750E+02  0.00000000000E+00 0. -1.
<scales pt_clust_5="13000.00000" pt_clust_6="13000.00000" pt_clust_7="13000.00000" pt_clust_8="13000.00000" pt_clust_9="24.63206"></scales>
<clustering>
<clus scale="   24.632">  2  9  1 -1</clus>
<clus scale="   80.587">  5  6 -1 -1</clus>
<clus scale="   89.707">  7  8 -1 -1</clus>
<clus scale="   89.833">  2  5  1 -1</clus>
<clus scale="   24.632">  2  5  1 -1</clus>
</clustering>
</event>
<event>
 9    1  0.5981539E-005  0.4121900E+03  0.7546771E-02  0.1089251E+00
          1   -1    0    0  502    0 -0.00000000000E+00  0.00000000000E+00  0.23793592034E+03  0.23793592034E+03  0.00000000000E+00 0. -1.
         21   -1    0    0  501  502  0.00000000000E+00 -0.00000000000E+00 -0.91137623876E+03  0.91137623876E+03  0.00000000000E+00 0. -1.
        -24    2    1    2    0    0 -0.65912447457E+02  0.38119001912E+01 -0.11124673156E+03  0.15226894353E+03  0.80318208203E+02 0.  0.
         23    2    1    2    0    0 -0.21748373867E+03 -0.31281381468E+03 -0.18590207784E+03  0.43366866766E+03  0.91418113746E+02 0.  0.
         11    1    3    3    0    0 -0.72245811489E+02 -0.10677583636E+01 -0.44101766529E+02  0.84649649713E+02  0.00000000000E+00 0. -1.
        -12    1    3    3    0    0  0.63333640323E+01  0.48796585548E+01 -0.67144965031E+02  0.67619293819E+02  0.00000000000E+00 0.  1.
        -13    1    4    4    0    0 -0.87981727070E+02 -0.20551589585E+03 -0.11009177141E+03  0.24919423323E+03  0.00000000000E+00 0.  1.
         13    1    4    4    0    0 -0.12950201160E+03 -0.10729791883E+03 -0.75810306436E+02  0.18447443442E+03  0.00000000000E+00 0. -1.
          2    1    1    2  501    0  0.28339618613E+03  0.30900191448E+03 -0.37629150902E+03  0.56337454790E+03  0.00000000000E+00 0. -1.
<scales pt_clust_5="13000.00000" pt_clust_6="13000.00000" pt_clust_7="13000.00000" pt_clust_8="13000.00000" pt_clust_9="401.92448"></scales>
<clustering>
<clus scale="   80.318">  5  6 -1 -1</clus>
<clus scale="   91.418">  7  8 -1 -1</clus>
<clus scale="  103.971">  1  5  2 -1</clus>
<clus scale="  401.924">  2  9  1 -1</clus>
<clus scale="  401.924">  2  5  1 -1</clus>
</clustering>
</event>
<event>
 9    1  0.5981539E-005  0.9861093E+02  0.7546771E-02  0.1288312E+00
          1   -1    0    0  502    0 -0.00000000000E+00  0.00000000000E+00  0.18078578352E+03  0.18078578352E+03  0.00000000000E+00 0. -1.
         21   -1    0    0  501  502  0.00000000000E+00 -0.00000000000E+00 -0.79522499510E+02  0.79522499510E+02  0.00000000000E+00 0.  1.
        -24    2    1    2    0    0 -0.35702729367E+02  0.33402622731E+02  0.72453210066E+02  0.11842212653E+03  0.79899388696E+02 0.  0.
         23    2    1    2    0    0  0.35532700807E+02  0.70072531427E+01  0.10282357037E+02  0.97430973767E+02  0.89863192463E+02 0.  0.
         13    1    3    3    0    0 -0.17535832720E+02  0.59205161617E+02  0.42896944630E+02  0.75185799523E+02  0.00000000000E+00 0. -1.
        -14    1    3    3    0    0 -0.18166896647E+02 -0.25802538886E+02  0.29556265437E+02  0.43236327010E+02  0.00000000000E+00 0.  1.
        -13    1    4    4    0    0 -0.22179560724E+02 -0.16629230656E+01 -0.21537006410E+02  0.30960311241E+02  0.00000000000E+00 0.  1.
         13    1    4    4    0    0  0.57712261531E+02  0.86701762082E+01  0.31819363447E+02  0.66470662526E+02  0.00000000000E+00 0. -1.
          2    1    1    2  501    0  0.17002855999E+00 -0.40409875873E+02  0.18527716908E+02  0.44455182731E+02  0.00000000000E+00 0. -1.
<scales pt_clust_5="13000.00000" pt_clust_6="13000.00000" pt_clust_7="13000.00000" pt_clust_8="13000.00000" pt_clust_9="40.41025"></scales>
<clustering>
<clus scale="   40.410">  2  9  1 -1</clus>
<clus scale="   79.899">  5  6 -1 -1</clus>
<clus scale="   89.625">  1  5  2 -1</clus>
<clus scale="   89.863">  7  8 -1 -1</clus>
<clus scale="   40.410">  2  5  1 -1</clus>
</clustering>
</event>
<event>
 9    1  0.5981539E-005  0.9476758E+02  0.7546771E-02  0.1296098E+00
          1   -1    0    0  502    0 -0.00000000000E+00  0.00000000000E+00  0.21764014939E+03  0.21764014939E+03  0.00000000000E+00 0. -1.
         21   -1    0    0  501  502  0.00000000000E+00 -0.00000000000E+00 -0.61982310258E+02  0.61982310258E+02  0.00000000000E+00 0.  1.
         23    2    1    2    0    0 -0.24920214653E+02  0.10109263523E+02  0.51505212326E+02  0.10637306260E+03  0.89102341405E+02 0.  0.
        -24    2    1    2    0    0  0.34660748109E+01 -0.47184348094E+02  0.58513479226E+02  0.11065727450E+03  0.81134633601E+02 0.  0.
         13    1    4    4    0    0 -0.23072256897E+02  0.71168571710E+01  0.41256735206E+02  0.47802687103E+02  0.00000000000E+00 0. -1.
        -14    1    4    4    0    0  0.26538331708E+02 -0.54301205265E+02  0.17256744020E+02  0.62854587401E+02  0.00000000000E+00 0.  1.
        -11    1    3    3    0    0  0.28969891698E+02 -0.91115707203E+01  0.15336801383E+01  0.30407688514E+02  0.00000000000E+00 0.  1.
         11    1    3    3    0    0 -0.53890106351E+02  0.19220834243E+02  0.49971532188E+02  0.75965374091E+02  0.00000000000E+00 0. -1.
          2    1    1    2  501    0  0.21454139842E+02  0.37075084572E+02  0.45639147580E+02  0.62592122541E+02  0.00000000000E+00 0. -1.
<scales pt_clust_5="13000.00000" pt_clust_6="13000.00000" pt_clust_7="13000.00000" pt_clust_8="13000.00000" pt_clust_9="42.83508"></scales>
<clustering>
<clus scale="   42.835">  2  9  1 -1</clus>
<clus scale="   81.135">  5  6 -1 -1</clus>
<clus scale="   87.318">  2  5  1 -1</clus>
<clus scale="   89.102">  7  8 -1 -1</clus>
<clus scale="   42.835">  2  5  1 -1</clus>
</clustering>
</event>
<event>
 9    1  0.7456174E-005  0.1246212E+03  0.7546771E-02  0.1239044E+00
          1   -1    0    0  502    0 -0.00000000000E+00  0.00000000000E+00  0.21693714919E+03  0.21693714919E+03  0.00000000000E+00 0. -1.
         21   -1    0    0  501  502  0.00000000000E+00 -0.00000000000E+00 -0.46079888012E+03  0.46079888012E+03  0.00000000000E+00 0. -1.
        -24    2    1    2    0    0  0.80277920284E+02  0.24761646461E+02  0.12513808362E+03  0.17107198701E+03  0.80922191935E+02 0.  0.
         23    2    1    2    0    0 -0.54278050522E+02 -0.75522501691E+02 -0.41383517282E+03  0.43411842214E+03  0.92463501706E+02 0.  0.
         13    1    3    3    0    0  0.87439082707E+02  0.32089143548E+02  0.12984497831E+03  0.15979682322E+03  0.00000000000E+00 0. -1.
        -14    1    3    3    0    0 -0.71611624225E+01 -0.73274970867E+01 -0.47068946961E+01  0.11275163789E+02  0.00000000000E+00 0.  1.
        -13    1    4    4    0    0  0.25934188473E+02 -0.15957387802E+02 -0.77860167145E+02  0.83602786945E+02  0.00000000000E+00 0.  1.
         13    1    4    4    0    0 -0.80212238995E+02 -0.59565113889E+02 -0.33597500568E+03  0.35051563520E+03  0.00000000000E+00 0. -1.
          2    1    1    2  501    0 -0.25999869762E+02  0.50760855230E+02  0.44835358278E+02  0.72545620152E+02  0.00000000000E+00 0. -1.
<scales pt_clust_5="13000.00000" pt_clust_6="13000.00000" pt_clust_7="13000.00000" pt_clust_8="13000.00000" pt_clust_9="57.03210"></scales>
<clustering>
<clus scale="   57.032">  2  9  1 -1</clus>
<clus scale="   80.922">  5  6 -1 -1</clus>
<clus scale="   92.464">  7  8 -1 -1</clus>
<clus scale="  116.316">  1  5  2 -1</clus>
<clus scale="   57.032">  2  5  1 -1</clus>
</clustering>
</event>
