<event>
 9    1  0.6270443E-005  0.1416381E+03  0.7546771E-02  0.1213676E+00
          1   -1    0    0  502    0 -0.00000000000E+00  0.00000000000E+00  0.33284755486E+03  0.33284755486E+03  0.00000000000E+00 0. -1.
         21   -1    0    0  501  502  0.00000000000E+00 -0.00000000000E+00 -0.19953528566E+03  0.19953528566E+03  0.00000000000E+00 0. -1.
        -24    2    1    2    0    0 -0.99144145349E+01 -0.11920368824E+03  0.16354197588E+03  0.21762623447E+03  0.79419047768E+02 0.  0.
         23    2    1    2    0    0 -0.64433580552E+02  0.47127569400E+02 -0.12511453410E+03  0.17430831750E+03  0.91416895630E+02 0.  0.
         13    1    3    3    0    0  0.25030538085E+02 -0.84948110525E+02  0.73253079356E+02  0.11492920844E+03  0.00000000000E+00 0. -1.
        -14    1    3    3    0    0 -0.34944952620E+02 -0.34255577711E+02  0.90288896526E+02  0.10269702602E+03  0.00000000000E+00 0.  1.
        -13    1    4    4    0    0 -0.74964231852E+02  0.64657776401E+02 -0.90632002657E+02  0.13421782300E+03  0.00000000000E+00 0. -1.
         13    1    4    4    0    0  0.10530651300E+02 -0.17530207001E+02 -0.34482531446E+02  0.40090494500E+02  0.00000000000E+00 0.  1.
          2    1    1    2  501    0  0.74347995087E+02  0.72076118836E+02  0.94884827421E+02  0.14044828854E+03  0.00000000000E+00 0. -1.
<scales pt_clust_5="13000.00000" pt_clust_6="13000.00000" pt_clust_7="13000.00000" pt_clust_8="13000.00000" pt_clust_9="103.55000"></scales>
<clustering>
<clus scale="   79.419">  5  6 -1 -1</clus>
<clus scale="   91.417">  7  8 -1 -1</clus>
<clus scale="  103.550">  2  9  1 -1</clus>
<clus scale="  134.208">  1  5  2 -1</clus>
<clus scale="  103.550">  2  5  1 -1</clus>
</clustering>
</event>
<event>
 9    1  0.6270443E-005  0.1384449E+03  0.7546771E-02  0.1225718E+00
          1   -1    0    0  502    0 -0.00000000000E+00  0.00000000000E+00  0.29832604088E+03  0.29832604088E+03  0.00000000000E+00 0. -1.
         21   -1    0    0  501  502  0.00000000000E+00 -0.00000000000E+00 -0.30183511756E+03  0.30183511756E+03  0.00000000000E+00 0.  1.
        -24    2    1    2    0    0  0.76433664550E+02  0.87264674688E+01 -0.59057902792E+01  0.11174261483E+03  0.80828691058E+02 0.  0.
         23    2    1    2    0    0  0.86144246616E+02 -0.42972952346E+02 -0.19096360858E+03  0.23348205521E+03  0.93697729124E+02 0.  0.
         11    1    3    3    0    0  0.42269458351E+02  0.41271741158E+02  0.13703914503E+02  0.60645370807E+02  0.00000000000E+00 0. -1.
        -12    1    3    3    0    0  0.34164206199E+02 -0.32545273689E+02 -0.19609704782E+02  0.51097244019E+02  0.00000000000E+00 0.  1.
        -13    1    4    4    0    0  0.10302722558E+03 -0.32223434548E+02 -0.12815148032E+03  0.16755823123E+03  0.00000000000E+00 0.  1.
         13    1    4    4    0    0 -0.16882978959E+02 -0.10749517798E+02 -0.62812128262E+02  0.65923823980E+02  0.00000000000E+00 0. -1.
          2    1    1    2  501    0 -0.16257791117E+03  0.34246484877E+02  0.19336032219E+03  0.25493648841E+03  0.00000000000E+00 0. -1.
<scales pt_clust_5="13000.00000" pt_clust_6="13000.00000" pt_clust_7="13000.00000" pt_clust_8="13000.00000" pt_clust_9="101.92023"></scales>
<clustering>
<clus scale="   80.829">  5  6 -1 -1</clus>
<clus scale="   93.698">  7  8 -1 -1</clus>
<clus scale="  111.586">  1  5  2 -1</clus>
<clus scale="  101.920">  2  9  1 -1</clus>
<clus scale="  101.920">  2  5  1 -1</clus>
</clustering>
</event>
<event>
 9    1  0.6270443E-005  0.1208627E+03  0.7546771E-02  0.1248463E+00
         21   -1    0    0  501  502  0.00000000000E+00  0.00000000000E+00  0.11974985833E+03  0.11974985833E+03  0.00000000000E+00 0. -1.
          3   -1    0    0  502    0 -0.00000000000E+00 -0.00000000000E+00 -0.25814526230E+03  0.25814526230E+03  0.00000000000E+00 0. -1.
        -24    2    1    2    0    0 -0.59140793791E+02 -0.33826309611E+02  0.23313027826E+02  0.10797782847E+03  0.80460309861E+02 0.  0.
         23    2    1    2    0    0  0.34741009211E+01 -0.57526403546E+02 -0.75250977269E+02  0.13237097146E+03  0.92401342101E+02 0.  0.
         11    1    3    3    0    0 -0.76090657055E+01 -0.49307477416E+02  0.14887481668E+01  0.49913340713E+02  0.00000000000E+00 0. -1.
        -12    1    3    3    0    0 -0.51531728085E+02  0.15481167805E+02  0.21824279659E+02  0.58064487759E+02  0.00000000000E+00 0.  1.
        -13    1    4    4    0    0  0.45311823002E+02 -0.42269998834E+02 -0.57159610168E+02  0.84303826365E+02  0.00000000000E+00 0. -1.
         13    1    4    4    0    0 -0.41837722081E+02 -0.15256404712E+02 -0.18091367101E+02  0.48067145091E+02  0.00000000000E+00 0.  1.
          4    1    1    2  501    0  0.55666692869E+02  0.91352713157E+02 -0.86457454527E+02  0.13754632071E+03  0.00000000000E+00 0. -1.
<scales pt_clust_5="13000.00000" pt_clust_6="13000.00000" pt_clust_7="13000.00000" pt_clust_8="13000.00000" pt_clust_9="77.90891"></scales>
<clustering>
<clus scale="   80.460">  5  6 -1 -1</clus>
<clus scale="   92.401">  7  8 -1 -1</clus>
<clus scale="  105.431">  2  5  1 -1</clus>
<clus scale="   77.909">  1  9  2 -1</clus>
<clus scale="   77.909">  1  5  2 -1</clus>
</clustering>
</event>
<event>
 9    1  0.6270443E-005  0.1243653E+03  0.7546771E-02  0.1252522E+00
         21   -1    0    0  501  502  0.00000000000E+00  0.00000000000E+00  0.34139430575E+03  0.34139430575E+03  0.00000000000E+00 0.  1.
          3   -1    0    0  502    0 -0.00000000000E+00 -0.00000000000E+00 -0.60805020272E+02  0.60805020272E+02  0.00000000000E+00 0. -1.
        -24    2    1    2    0    0 -0.18258350290E+02  0.20481416370E+02  0.12454267183E+02  0.91102293774E+02  0.85974783442E+02 0.  0.
         23    2    1    2    0    0  0.20299271903E+02  0.11053099417E+02  0.23147676925E+03  0.26269849642E+03  0.12204414723E+03 0.  0.
         13    1    3    3    0    0 -0.25934188065E+01  0.53566067150E+02  0.81426314396E+01  0.54243449538E+02  0.00000000000E+00 0. -1.
        -14    1    3    3    0    0 -0.15664931484E+02 -0.33084650780E+02  0.43116357433E+01  0.36858844236E+02  0.00000000000E+00 0.  1.
        -13    1    4    4    0    0  0.29293701498E+02 -0.40092297204E+02  0.38428187966E+02  0.62787250879E+02  0.00000000000E+00 0. -1.
         13    1    4    4    0    0 -0.89944295954E+01  0.51145396621E+02  0.19304858128E+03  0.19991124554E+03  0.00000000000E+00 0.  1.
          4    1    1    2  501    0 -0.20409216127E+01 -0.31534515786E+02  0.36658249046E+02  0.48398535825E+02  0.00000000000E+00 0. -1.
<scales pt_clust_5="13000.00000" pt_clust_6="13000.00000" pt_clust_7="13000.00000" pt_clust_8="13000.00000" pt_clust_9="31.60049"></scales>
<clustering>
<clus scale="   31.600">  1  9  2 -1</clus>
<clus scale="   85.975">  5  6 -1 -1</clus>
<clus scale="   89.239">  2  5  1 -1</clus>
<clus scale="  122.044">  7  8 -1 -1</clus>
<clus scale="   31.600">  1  5  2 -1</clus>
</clustering>
</event>
<event>
 9    1  0.6270443E-005  0.9772855E+02  0.7546771E-02  0.1291042E+00
         21   -1    0    0  501  502  0.00000000000E+00  0.00000000000E+00  0.19677350191E+03  0.19677350191E+03  0.00000000000E+00 0. -1.
          1   -1    0    0  502    0 -0.00000000000E+00 -0.00000000000E+00 -0.17085243694E+03  0.17085243694E+03  0.00000000000E+00 0. -1.
        -24    2    1    2    0    0  0.27554995534E+02 -0.11629800236E+02 -0.10210376636E+03  0.13272681012E+03  0.79351729576E+02 0.  0.
         23    2    1    2    0    0 -0.65468018910E+02  0.10434963188E+02  0.12013404310E+02  0.11284391100E+03  0.90523347323E+02 0.  0.
         13    1    3    3    0    0 -0.19881003974E+02 -0.27914606783E+02 -0.47672499758E+02  0.58712407752E+02  0.00000000000E+00 0. -1.
        -14    1    3    3    0    0  0.47435999509E+02  0.16284806547E+02 -0.54431266600E+02  0.74014402364E+02  0.00000000000E+00 0.  1.
        -13    1    4    4    0    0 -0.11668194635E+02  0.22057221085E+02 -0.33256908722E+02  0.41577514906E+02  0.00000000000E+00 0.  1.
         13    1    4    4    0    0 -0.53799824275E+02 -0.11622257897E+02  0.45270313031E+02  0.71266396097E+02  0.00000000000E+00 0. -1.
          2    1    1    2  501    0  0.37913023376E+02  0.11948370486E+01  0.11601142702E+03  0.12205521774E+03  0.00000000000E+00 0. -1.
<scales pt_clust_5="13000.00000" pt_clust_6="13000.00000" pt_clust_7="13000.00000" pt_clust_8="13000.00000" pt_clust_9="37.93185"></scales>
<clustering>
<clus scale="   37.932">  1  9  2 -1</clus>
<clus scale="   79.352">  5  6 -1 -1</clus>
<clus scale="   87.482">  2  5  1 -1</clus>
<clus scale="   90.523">  7  8 -1 -1</clus>
<clus scale="   37.932">  1  5  2 -1</clus>
</clustering>
</event>
<event>
 9    1  0.6270443E-005  0.1238068E+03  0.7546771E-02  0.1249178E+00
         -2   -1    0    0    0  501 -0.00000000000E+00  0.00000000000E+00  0.17745734168E+03  0.17745734168E+03  0.00000000000E+00 0.  1.
         21   -1    0    0  501  502  0.00000000000E+00 -0.00000000000E+00 -0.16707751125E+03  0.16707751125E+03  0.00000000000E+00 0. -1.
         23    2    1    2    0    0  0.31391285136E+02 -0.30915181916E+02 -0.48779373106E+02  0.10830087420E+03  0.86072590622E+02 0.  0.
        -24    2    1    2    0    0  0.62159763789E+02 -0.25846965705E+02  0.71591589831E+02  0.12610539758E+03  0.79027297149E+02 0.  0.
         13    1    4    4    0    0  0.38252459843E+02 -0.54443134075E+02  0.46266784399E+02  0.81042710163E+02  0.00000000000E+00 0. -1.
        -14    1    4    4    0    0  0.23907303945E+02  0.28596168370E+02  0.25324805432E+02  0.45062687420E+02  0.00000000000E+00 0.  1.
        -11    1    3    3    0    0  0.10551410091E+02 -0.43365540443E+02 -0.65186106303E+02  0.79000827893E+02  0.00000000000E+00 0. -1.
         11    1    3    3    0    0  0.20839875045E+02  0.12450358527E+02  0.16406733197E+02  0.29300046306E+02  0.00000000000E+00 0.  1.
         -1    1    1    2    0  502 -0.93551048924E+02  0.56762147622E+02 -0.12432386297E+02  0.11012858115E+03  0.00000000000E+00 0.  1.
<scales pt_clust_5="13000.00000" pt_clust_6="13000.00000" pt_clust_7="13000.00000" pt_clust_8="13000.00000" pt_clust_9="95.30376"></scales>
<clustering>
<clus scale="   79.027">  5  6 -1 -1</clus>
<clus scale="   86.073">  7  8 -1 -1</clus>
<clus scale="   96.694">  1  7  2 -1</clus>
<clus scale="   95.304">  2  9  1 -1</clus>
<clus scale="   95.304">  2  5  1 -1</clus>
</clustering>
</event>
<event>
 9    1  0.6270443E-005  0.2353429E+03  0.7546771E-02  0.1161078E+00
         -4   -1    0    0    0  501 -0.00000000000E+00  0.00000000000E+00  0.45464437287E+03  0.45464437287E+03  0.00000000000E+00 0.  1.
         21   -1    0    0  501  502  0.00000000000E+00 -0.00000000000E+00 -0.17762956456E+03  0.17762956456E+03  0.00000000000E+00 0.  1.
         23    2    1    2    0    0  0.59717479006E+01 -0.23124042314E+02  0.24257415824E+00  0.94069050532E+02  0.90986506252E+02 0.  0.
        -24    2    1    2    0    0 -0.19923554256E+03 -0.91921281327E+02  0.10844828781E+03  0.25727914629E+03  0.79291894970E+02 0.  0.
         11    1    4    4    0    0 -0.28540145037E+02  0.14539076894E+02  0.17552148706E+02  0.36523999779E+02  0.00000000000E+00 0. -1.
        -12    1    4    4    0    0 -0.17069539753E+03 -0.10646035822E+03  0.90896139102E+02  0.22075514652E+03  0.00000000000E+00 0.  1.
        -11    1    3    3    0    0  0.32366839750E+02 -0.24557626435E+02  0.32739818328E+02  0.52178396254E+02  0.00000000000E+00 0. -1.
         11    1    3    3    0    0 -0.26395091850E+02  0.14335841210E+01 -0.32497244170E+02  0.41890654278E+02  0.00000000000E+00 0.  1.
         -3    1    1    2    0  502  0.19326379466E+03  0.11504532364E+03  0.16832394635E+03  0.28092574060E+03  0.00000000000E+00 0.  1.
<scales pt_clust_5="13000.00000" pt_clust_6="13000.00000" pt_clust_7="13000.00000" pt_clust_8="13000.00000" pt_clust_9="221.58326"></scales>
<clustering>
<clus scale="   79.292">  5  6 -1 -1</clus>
<clus scale="   90.987">  7  8 -1 -1</clus>
<clus scale="   94.069">  1  7  2 -1</clus>
<clus scale="  221.583">  2  9  1 -1</clus>
<clus scale="  221.583">  2  5  1 -1</clus>
</clustering>
</event>
<event>
 9    1  0.6270443E-005  0.1136135E+03  0.7546771E-02  0.1257167E+00
         21   -1    0    0  501  502  0.00000000000E+00  0.00000000000E+00  0.33270776195E+03  0.33270776195E+03  0.00000000000E+00 0.  1.
          3   -1    0    0  502    0 -0.00000000000E+00 -0.00000000000E+00 -0.65129690648E+02  0.65129690648E+02  0.00000000000E+00 0. -1.
         23    2    1    2    0    0 -0.16033498588E+02  0.53676995861E+02  0.20327159107E+02  0.10661048938E+03  0.88398586456E+02 0.  0.
        -24    2    1    2    0    0  0.43265210614E+02 -0.60214197863E+02  0.17035857768E+03  0.20939339885E+03  0.96570815563E+02 0.  0.
         11    1    4    4    0    0  0.31467636328E+02 -0.44976497234E+02  0.20960354246E+02  0.58757415614E+02  0.00000000000E+00 0. -1.
        -12    1    4    4    0    0  0.11797574286E+02 -0.15237700628E+02  0.14939822344E+03  0.15063598324E+03  0.00000000000E+00 0.  1.
        -13    1    3    3    0    0  0.26002866060E+02  0.12062927324E+01 -0.15633713056E+02  0.30364735623E+02  0.00000000000E+00 0.  1.
         13    1    3    3    0    0 -0.42036364648E+02  0.52470703129E+02  0.35960872163E+02  0.76245753760E+02  0.00000000000E+00 0. -1.
          4    1    1    2  501    0 -0.27231712026E+02  0.65372020011E+01  0.76892334510E+02  0.81833564362E+02  0.00000000000E+00 0. -1.
<scales pt_clust_5="13000.00000" pt_clust_6="13000.00000" pt_clust_7="13000.00000" pt_clust_8="13000.00000" pt_clust_9="28.00538"></scales>
<clustering>
<clus scale="   28.005">  1  9  2 -1</clus>
<clus scale="   88.399">  7  8 -1 -1</clus>
<clus scale="   96.571">  5  6 -1 -1</clus>
<clus scale="  106.754">  2  7  1 -1</clus>
<clus scale="   28.005">  1  5  2 -1</clus>
</clustering>
</event>
<event>
 9    1  0.6270443E-005  0.1086294E+03  0.7546771E-02  0.1265437E+00
         21   -1    0    0  501  502  0.00000000000E+00  0.00000000000E+00  0.14289922791E+03  0.14289922791E+03  0.00000000000E+00 0. -1.
         -4   -1    0    0    0  501 -0.00000000000E+00 -0.00000000000E+00 -0.35485245304E+03  0.35485245304E+03  0.00000000000E+00 0.  1.
        -24    2    1    2    0    0 -0.79011964093E+01 -0.55498678215E+02 -0.28655724995E+03  0.30435682998E+03  0.85880674574E+02 0.  0.
         23    2    1    2    0    0  0.43654122781E+02  0.81397301258E+02  0.73101159200E+02  0.14922168010E+03  0.91608554452E+02 0.  0.
         13    1    3    3    0    0 -0.21824279844E+02 -0.36875362231E+02 -0.46717541441E+02  0.63392587963E+02  0.00000000000E+00 0. -1.
        -14    1    3    3    0    0  0.13923083435E+02 -0.18623315984E+02 -0.23983970851E+03  0.24096424201E+03  0.00000000000E+00 0.  1.
        -11    1    4    4    0    0  0.64236909209E+02  0.79532198908E+02  0.77255470260E+02  0.12814116767E+03  0.00000000000E+00 0. -1.
         11    1    4    4    0    0 -0.20582786428E+02  0.18651023502E+01 -0.41543110604E+01  0.21080512430E+02  0.00000000000E+00 0.  1.
         -3    1    1    2    0  502 -0.35752926372E+02 -0.25898623043E+02  0.15028656205E+01  0.44173170870E+02  0.00000000000E+00 0.  1.
<scales pt_clust_5="13000.00000" pt_clust_6="13000.00000" pt_clust_7="13000.00000" pt_clust_8="13000.00000" pt_clust_9="44.14760"></scales>
<clustering>
<clus scale="   44.148">  1  9  2 -1</clus>
<clus scale="   85.881">  5  6 -1 -1</clus>
<clus scale="   91.609">  7  8 -1 -1</clus>
<clus scale="  103.845">  2  5  1 -1</clus>
<clus scale="   44.148">  1  5  2 -1</clus>
</clustering>
</event>
<event>
 9    1  0.6270443E-005  0.1015020E+03  0.7546771E-02  0.1283542E+00
         -2   -1    0    0    0  501 -0.00000000000E+00  0.00000000000E+00  0.11489400218E+03  0.11489400218E+03  0.00000000000E+00 0.  1.
         21   -1    0    0  501  502  0.00000000000E+00 -0.00000000000E+00 -0.21012872519E+03  0.21012872519E+03  0.00000000000E+00 0. -1.
        -24    2    1    2    0    0  0.38787422090E+02 -0.19950000899E+02 -0.55811700297E+02  0.10522030677E+03  0.77806814731E+02 0.  0.
         23    2    1    2    0    0 -0.53344997321E+02 -0.12745777204E+02 -0.10229321842E+03  0.14745880713E+03  0.90950831162E+02 0.  0.
         13    1    3    3    0    0  0.53583311493E+02 -0.25378155766E+02 -0.14546199628E+02  0.61047637008E+02  0.00000000000E+00 0. -1.
        -14    1    3    3    0    0 -0.14795889403E+02  0.54281548670E+01 -0.41265500669E+02  0.44172669762E+02  0.00000000000E+00 0.  1.
        -11    1    4    4    0    0 -0.17548689522E+02  0.27181260534E+02 -0.44588567109E+00  0.32357012257E+02  0.00000000000E+00 0.  1.
         11    1    4    4    0    0 -0.35796307799E+02 -0.39927037738E+02 -0.10184733275E+03  0.11510179487E+03  0.00000000000E+00 0. -1.
         -1    1    1    2    0  502  0.14557575232E+02  0.32695778103E+02  0.62870195702E+02  0.72343613471E+02  0.00000000000E+00 0.  1.
<scales pt_clust_5="13000.00000" pt_clust_6="13000.00000" pt_clust_7="13000.00000" pt_clust_8="13000.00000" pt_clust_9="35.79020"></scales>
<clustering>
<clus scale="   35.790">  2  9  1 -1</clus>
<clus scale="   77.807">  5  6 -1 -1</clus>
<clus scale="   89.914">  1  5  2 -1</clus>
<clus scale="   90.951">  7  8 -1 -1</clus>
<clus scale="   35.790">  2  5  1 -1</clus>
</clustering>
</event>
<event>
 9    1  0.6270443E-005  0.3174395E+03  0.7546771E-02  0.1115468E+00
          1   -1    0    0  502    0 -0.00000000000E+00  0.00000000000E+00  0.14955015569E+04  0.14955015569E+04  0.00000000000E+00 0. -1.
         21   -1    0    0  501  502  0.00000000000E+00 -0.00000000000E+00 -0.10298276141E+03  0.10298276141E+03  0.00000000000E+00 0. -1.
        -24    2    1    2    0    0 -0.67686447434E+02 -0.49988324987E+02  0.46139139971E+03  0.47565818447E+03  0.79299413120E+02 0.  0.
         23    2    1    2    0    0  0.28658768012E+03 -0.14540536919E+03  0.48789943408E+03  0.59127418772E+03  0.91016962736E+02 0.  0.
         13    1    3    3    0    0 -0.78493627632E+02 -0.45415568747E+02  0.45086289769E+03  0.45989257004E+03  0.00000000000E+00 0. -1.
        -14    1    3    3    0    0  0.10807180198E+02 -0.45727562401E+01  0.10528502021E+02  0.15765614428E+02  0.00000000000E+00 0.  1.
        -13    1    4    4    0    0  0.19496346613E+03 -0.14263030262E+03  0.37113979980E+03  0.44283056280E+03  0.00000000000E+00 0. -1.
         13    1    4    4    0    0  0.91624213992E+02 -0.27750665690E+01  0.11675963428E+03  0.14844362493E+03  0.00000000000E+00 0.  1.
          2    1    1    2  501    0 -0.21890123268E+03  0.19539369418E+03  0.44322796171E+03  0.53155194614E+03  0.00000000000E+00 0. -1.
<scales pt_clust_5="13000.00000" pt_clust_6="13000.00000" pt_clust_7="13000.00000" pt_clust_8="13000.00000" pt_clust_9="304.11145"></scales>
<clustering>
<clus scale="   79.299">  5  6 -1 -1</clus>
<clus scale="   91.017">  7  8 -1 -1</clus>
<clus scale="  115.623">  1  5  2 -1</clus>
<clus scale="  304.111">  2  9  1 -1</clus>
<clus scale="  304.111">  2  5  1 -1</clus>
</clustering>
</event>
<event>
 9    1  0.6270443E-005  0.1461519E+03  0.7546771E-02  0.1207533E+00
         21   -1    0    0  501  502  0.00000000000E+00  0.00000000000E+00  0.56787020839E+02  0.56787020839E+02  0.00000000000E+00 0. -1.
          3   -1    0    0  502    0 -0.00000000000E+00 -0.00000000000E+00 -0.58099875287E+03  0.58099875287E+03  0.00000000000E+00 0. -1.
        -24    2    1    2    0    0  0.30559775461E+02 -0.10845738155E+03 -0.30339940784E+03  0.33336706169E+03  0.79909283899E+02 0.  0.
         23    2    1    2    0    0 -0.21829928183E+01  0.11832726907E+03 -0.22880051491E+03  0.27333064897E+03  0.91399452828E+02 0.  0.
         11    1    3    3    0    0  0.51271137022E+01 -0.59364476565E+02 -0.24815251071E+03  0.25520598925E+03  0.00000000000E+00 0. -1.
        -12    1    3    3    0    0  0.25432661758E+02 -0.49092904981E+02 -0.55246897129E+02  0.78161072446E+02  0.00000000000E+00 0.  1.
        -13    1    4    4    0    0  0.38259330391E+02  0.73014612483E+02 -0.91258784987E+02  0.12297591567E+03  0.00000000000E+00 0. -1.
         13    1    4    4    0    0 -0.40442323209E+02  0.45312656589E+02 -0.13754172992E+03  0.15035473329E+03  0.00000000000E+00 0.  1.
          4    1    1    2  501    0 -0.28376782642E+02 -0.98698875253E+01  0.79881907267E+01  0.31088063046E+02  0.00000000000E+00 0. -1.
<scales pt_clust_5="13000.00000" pt_clust_6="13000.00000" pt_clust_7="13000.00000" pt_clust_8="13000.00000" pt_clust_9="30.04424"></scales>
<clustering>
<clus scale="   30.044">  1  9  2 -1</clus>
<clus scale="   79.909">  5  6 -1 -1</clus>
<clus scale="   91.399">  7  8 -1 -1</clus>
<clus scale="  139.255">  2  5  1 -1</clus>
<clus scale="   30.044">  1  5  2 -1</clus>
</clustering>
</event>
<event>
 9    1  0.6270443E-005  0.1158114E+03  0.7546771E-02  0.1255292E+00
         -2   -1    0    0    0  501 -0.00000000000E+00  0.00000000000E+00  0.45123726215E+02  0.45123726215E+02  0.00000000000E+00 0.  1.
         21   -1    0    0  501  502  0.00000000000E+00 -0.00000000000E+00 -0.73205009241E+03  0.73205009241E+03  0.00000000000E+00 0. -1.
        -24    2    1    2    0    0 -0.75867176714E+02  0.35656589166E+01 -0.41616057938E+02  0.11644856799E+03  0.77844911725E+02 0.  0.
         23    2    1    2    0    0  0.39175158935E+02 -0.61150421200E+01 -0.38842795456E+03  0.40122313666E+03  0.92366891705E+02 0.  0.
         11    1    3    3    0    0 -0.42934253679E+00  0.25724369192E+02 -0.25430278414E+02  0.36174943891E+02  0.00000000000E+00 0. -1.
        -12    1    3    3    0    0 -0.75437834177E+02 -0.22158710275E+02 -0.16185779524E+02  0.80273624094E+02  0.00000000000E+00 0.  1.
        -13    1    4    4    0    0 -0.15159863232E+02  0.23917005414E+02 -0.52920843756E+02  0.60020499040E+02  0.00000000000E+00 0.  1.
         13    1    4    4    0    0  0.54335022167E+02 -0.30032047534E+02 -0.33550711081E+03  0.34120263761E+03  0.00000000000E+00 0. -1.
         -1    1    1    2    0  502  0.36692017779E+02  0.25493832034E+01 -0.25688235369E+03  0.25950211398E+03  0.00000000000E+00 0.  1.
<scales pt_clust_5="13000.00000" pt_clust_6="13000.00000" pt_clust_7="13000.00000" pt_clust_8="13000.00000" pt_clust_9="36.78048"></scales>
<clustering>
<clus scale="   36.780">  2  9  1 -1</clus>
<clus scale="   77.845">  5  6 -1 -1</clus>
<clus scale="   92.367">  7  8 -1 -1</clus>
<clus scale="  104.597">  1  5  2 -1</clus>
<clus scale="   36.780">  2  5  1 -1</clus>
</clustering>
</event>
<event>
 9    1  0.6270443E-005  0.1843587E+03  0.7546771E-02  0.1190527E+00
          1   -1    0    0  502    0 -0.00000000000E+00  0.00000000000E+00  0.17598561041E+03  0.17598561041E+03  0.00000000000E+00 0. -1.
         21   -1    0    0  501  502  0.00000000000E+00 -0.00000000000E+00 -0.38143377857E+03  0.38143377857E+03  0.00000000000E+00 0. -1.
        -24    2    1    2    0    0 -0.26490503428E+02 -0.54196028131E+02  0.59496311559E+02  0.11673988081E+03  0.80308358497E+02 0.  0.
         23    2    1    2    0    0 -0.75854367168E+02  0.16392985434E+03 -0.14660151766E+03  0.24957471539E+03  0.90380592048E+02 0.  0.
         13    1    3    3    0    0 -0.27338902835E+02 -0.74865329364E+02  0.48756920668E+02  0.93431635232E+02  0.00000000000E+00 0. -1.
        -14    1    3    3    0    0  0.84839940685E+00  0.20669301234E+02  0.10739390891E+02  0.23308245574E+02  0.00000000000E+00 0.  1.
        -13    1    4    4    0    0 -0.90555180462E+02  0.96816411592E+02 -0.86486674176E+02  0.15828330004E+03  0.00000000000E+00 0. -1.
         13    1    4    4    0    0  0.14700813294E+02  0.67113442751E+02 -0.60114843483E+02  0.91291415349E+02  0.00000000000E+00 0.  1.
          2    1    1    2  501    0  0.10234487060E+03 -0.10973382621E+03 -0.11834296206E+03  0.19110479278E+03  0.00000000000E+00 0. -1.
<scales pt_clust_5="13000.00000" pt_clust_6="13000.00000" pt_clust_7="13000.00000" pt_clust_8="13000.00000" pt_clust_9="160.68440"></scales>
<clustering>
<clus scale="   80.308">  5  6 -1 -1</clus>
<clus scale="   90.381">  7  8 -1 -1</clus>
<clus scale="  100.441">  1  5  2 -1</clus>
<clus scale="  160.684">  2  9  1 -1</clus>
<clus scale="  160.684">  2  5  1 -1</clus>
</clustering>
</event>
<event>
 9    1  0.6270443E-005  0.3392152E+03  0.7546771E-02  0.1082048E+00
         21   -1    0    0  501  502  0.00000000000E+00  0.00000000000E+00  0.39467979727E+03  0.39467979727E+03  0.00000000000E+00 0.  1.
         -4   -1    0    0    0  501 -0.00000000000E+00 -0.00000000000E+00 -0.67422644525E+03  0.67422644525E+03  0.00000000000E+00 0.  1.
        -24    2    1    2    0    0  0.20855136565E+03  0.35623338102E+02  0.12618999917E+03  0.25886138207E+03  0.79514809349E+02 0.  0.
         23    2    1    2    0    0  0.16532910826E+03 -0.21114037647E+03 -0.20763265484E+03  0.35196404738E+03  0.94092500646E+02 0.  0.
         13    1    3    3    0    0  0.61703497316E+02  0.15470878837E+02  0.82803471234E+02  0.10441783622E+03  0.00000000000E+00 0. -1.
        -14    1    3    3    0    0  0.14684786833E+03  0.20152459266E+02  0.43386527941E+02  0.15444354585E+03  0.00000000000E+00 0.  1.
        -11    1    4    4    0    0  0.81086851432E+02 -0.56459109879E+02 -0.33622359053E+02  0.10437035782E+03  0.00000000000E+00 0. -1.
         11    1    4    4    0    0  0.84242256832E+02 -0.15468126659E+03 -0.17401029578E+03  0.24759368956E+03  0.00000000000E+00 0.  1.
         -3    1    1    2    0  502 -0.37388047391E+03  0.17551703837E+03 -0.19810399232E+03  0.45808081307E+03  0.00000000000E+00 0.  1.
<scales pt_clust_5="13000.00000" pt_clust_6="13000.00000" pt_clust_7="13000.00000" pt_clust_8="13000.00000" pt_clust_9="325.90441"></scales>
<clustering>
<clus scale="   79.515">  5  6 -1 -1</clus>
<clus scale="   94.093">  7  8 -1 -1</clus>
<clus scale="  226.021">  2  5  1 -1</clus>
<clus scale="  325.904">  1  9  2 -1</clus>
<clus scale="  325.904">  1  5  2 -1</clus>
</clustering>
</event>
<event>
 9    1  0.6270443E-005  0.1388485E+03  0.7546771E-02  0.1216406E+00
         21   -1    0    0  501  502  0.00000000000E+00  0.00000000000E+00  0.32427426198E+03  0.32427426198E+03  0.00000000000E+00 0. -1.
          1   -1    0    0  502    0 -0.00000000000E+00 -0.00000000000E+00 -0.16922939265E+03  0.16922939265E+03  0.00000000000E+00 0. -1.
        -24    2    1    2    0    0 -0.81346822922E+02  0.70351574777E+02 -0.37812930672E+02  0.14173422493E+03  0.84214744059E+02 0.  0.
         23    2    1    2    0    0  0.35495739221E+01 -0.12538696414E+03  0.22583663417E+02  0.15664232336E+03  0.91062096201E+02 0.  0.
         11    1    3    3    0    0 -0.66338910959E+02  0.85756288017E+02 -0.47223834505E+02  0.11825854129E+03  0.00000000000E+00 0. -1.
        -12    1    3    3    0    0 -0.15007911963E+02 -0.15404713240E+02  0.94109038338E+01  0.23475683642E+02  0.00000000000E+00 0.  1.
        -11    1    4    4    0    0  0.36688117312E+02 -0.14939439053E+02  0.35741341556E+01  0.39774102455E+02  0.00000000000E+00 0.  1.
         11    1    4    4    0    0 -0.33138543390E+02 -0.11044752509E+03  0.19009529261E+02  0.11686822091E+03  0.00000000000E+00 0. -1.
          2    1    1    2  501    0  0.77797249000E+02  0.55035389363E+02  0.17027413659E+03  0.19512710633E+03  0.00000000000E+00 0. -1.
<scales pt_clust_5="13000.00000" pt_clust_6="13000.00000" pt_clust_7="13000.00000" pt_clust_8="13000.00000" pt_clust_9="95.29589"></scales>
<clustering>
<clus scale="   84.215">  5  6 -1 -1</clus>
<clus scale="   91.062">  7  8 -1 -1</clus>
<clus scale="   95.296">  1  9  2 -1</clus>
<clus scale="  134.457">  2  5  1 -1</clus>
<clus scale="   95.296">  1  5  2 -1</clus>
</clustering>
</event>
<event>
 9    1  0.6270443E-005  0.1001693E+03  0.7546771E-02  0.1287970E+00
          1   -1    0    0  502    0 -0.00000000000E+00  0.00000000000E+00  0.19190231363E+03  0.19190231363E+03  0.00000000000E+00 0. -1.
         21   -1    0    0  501  502  0.00000000000E+00 -0.00000000000E+00 -0.10892868607E+03  0.10892868607E+03  0.00000000000E+00 0. -1.
         23    2    1    2    0    0  0.19016147542E+02  0.28225007741E+02  0.14765819347E+03  0.17906490913E+03  0.95409824716E+02 0.  0.
        -24    2    1    2    0    0 -0.77261628829E+01 -0.10495171993E+02 -0.56634495807E+02  0.99257992966E+02  0.80466395622E+02 0.  0.
         11    1    4    4    0    0  0.36034056536E+02 -0.11240054654E+02 -0.26568220419E+02  0.46159098727E+02  0.00000000000E+00 0. -1.
        -12    1    4    4    0    0 -0.43760219419E+02  0.74488266124E+00 -0.30066275388E+02  0.53098894240E+02  0.00000000000E+00 0.  1.
        -13    1    3    3    0    0  0.13338884032E+01  0.60081018783E+02  0.11665625431E+03  0.13122572059E+03  0.00000000000E+00 0. -1.
         13    1    3    3    0    0  0.17682259138E+02 -0.31856011041E+02  0.31001939164E+02  0.47839188534E+02  0.00000000000E+00 0.  1.
          2    1    1    2  501    0 -0.11289984659E+02 -0.17729835749E+02 -0.80500701084E+01  0.22508097610E+02  0.00000000000E+00 0. -1.
<scales pt_clust_5="13000.00000" pt_clust_6="13000.00000" pt_clust_7="13000.00000" pt_clust_8="13000.00000" pt_clust_9="21.01930"></scales>
<clustering>
<clus scale="   21.019">  2  9  1 -1</clus>
<clus scale="   80.466">  5  6 -1 -1</clus>
<clus scale="   86.056">  2  5  1 -1</clus>
<clus scale="   95.410">  7  8 -1 -1</clus>
<clus scale="   21.019">  2  5  1 -1</clus>
</clustering>
</event>
<event>
 9    1  0.6270443E-005  0.2941780E+03  0.7546771E-02  0.1088590E+00
         21   -1    0    0  501  502  0.00000000000E+00  0.00000000000E+00  0.64229421988E+02  0.64229421988E+02  0.00000000000E+00 0. -1.
          1   -1    0    0  502    0 -0.00000000000E+00 -0.00000000000E+00 -0.18285725151E+04  0.18285725151E+04  0.00000000000E+00 0. -1.
        -24    2    1    2    0    0 -0.27637074382E+03  0.61291401562E+02 -0.12730456387E+04  0.13066516514E+04  0.80968610822E+02 0.  0.
         23    2    1    2    0    0  0.26802249228E+03 -0.37440267963E+02 -0.40087088854E+03  0.49225921214E+03  0.91563271140E+02 0.  0.
         13    1    3    3    0    0 -0.10436877754E+03  0.12404817266E+02 -0.31530220476E+03  0.33235854366E+03  0.00000000000E+00 0. -1.
        -14    1    3    3    0    0 -0.17200196628E+03  0.48886584296E+02 -0.95774343392E+03  0.97429310772E+03  0.00000000000E+00 0.  1.
        -11    1    4    4    0    0  0.14499546873E+03 -0.63610018813E+02 -0.24883528577E+03  0.29493884093E+03  0.00000000000E+00 0.  1.
         11    1    4    4    0    0  0.12302702355E+03  0.26169750850E+02 -0.15203560277E+03  0.19732037121E+03  0.00000000000E+00 0. -1.
          2    1    1    2  501    0  0.83482515429E+01 -0.23851133598E+02 -0.90426565856E+02  0.93891073539E+02  0.00000000000E+00 0. -1.
<scales pt_clust_5="13000.00000" pt_clust_6="13000.00000" pt_clust_7="13000.00000" pt_clust_8="13000.00000" pt_clust_9="25.26995"></scales>
<clustering>
<clus scale="   25.270">  1  9  2 -1</clus>
<clus scale="   80.969">  5  6 -1 -1</clus>
<clus scale="   91.563">  7  8 -1 -1</clus>
<clus scale="  291.055">  2  5  1 -1</clus>
<clus scale="   25.270">  1  5  2 -1</clus>
</clustering>
</event>
<event>
 9    1  0.6270443E-005  0.1900367E+03  0.7546771E-02  0.1177869E+00
         21   -1    0    0  501  502  0.00000000000E+00  0.00000000000E+00  0.38828391579E+03  0.38828391579E+03  0.00000000000E+00 0. -1.
          1   -1    0    0  502    0 -0.00000000000E+00 -0.00000000000E+00 -0.28854501921E+03  0.28854501921E+03  0.00000000000E+00 0. -1.
         23    2    1    2    0    0  0.76648587995E+02  0.25920039922E+02 -0.14548923757E+03  0.18964048965E+03  0.90826992432E+02 0.  0.
        -24    2    1    2    0    0  0.99750778684E+02  0.11343432664E+03  0.18819445613E+03  0.25526342196E+03  0.83214764102E+02 0.  0.
         13    1    4    4    0    0  0.70446772326E+02  0.42765017466E+02  0.14661821959E+03  0.16819184512E+03  0.00000000000E+00 0. -1.
        -14    1    4    4    0    0  0.29304006358E+02  0.70669309176E+02  0.41576236535E+02  0.87071576835E+02  0.00000000000E+00 0.  1.
        -11    1    3    3    0    0 -0.15704632424E+02  0.12443047071E+02 -0.44629250426E+01  0.20527605801E+02  0.00000000000E+00 0.  1.
         11    1    3    3    0    0  0.92353220419E+02  0.13476992851E+02 -0.14102631253E+03  0.16911288385E+03  0.00000000000E+00 0. -1.
          2    1    1    2  501    0 -0.17639936668E+03 -0.13935436656E+03  0.57033678020E+02  0.23192502339E+03  0.00000000000E+00 0. -1.
<scales pt_clust_5="13000.00000" pt_clust_6="13000.00000" pt_clust_7="13000.00000" pt_clust_8="13000.00000" pt_clust_9="170.84868"></scales>
<clustering>
<clus scale="   83.215">  5  6 -1 -1</clus>
<clus scale="   90.827">  7  8 -1 -1</clus>
<clus scale="  121.640">  2  7  1 -1</clus>
<clus scale="  170.849">  1  9  2 -1</clus>
<clus scale="  170.849">  1  5  2 -1</clus>
</clustering>
</event>
<event>
 9    1  0.6270443E-005  0.1865771E+03  0.7546771E-02  0.1191965E+00
          3   -1    0    0  502    0 -0.00000000000E+00  0.00000000000E+00  0.19946675808E+03  0.19946675808E+03  0.00000000000E+00 0. -1.
         21   -1    0    0  501  502  0.00000000000E+00 -0.00000000000E+00 -0.41168107863E+03  0.41168107863E+03  0.00000000000E+00 0. -1.
        -24    2    1    2    0    0  0.16113554290E+02  0.43651900057E+02  0.94022652769E+02  0.13286554614E+03  0.81534404432E+02 0.  0.
         23    2    1    2    0    0  0.77133887214E+02  0.11482601123E+03 -0.61563754080E+02  0.17221805235E+03  0.82062855944E+02 0.  0.
         13    1    3    3    0    0  0.19041409501E+02  0.48436011636E+02  0.10685803060E+03  0.11885815581E+03  0.00000000000E+00 0. -1.
        -14    1    3    3    0    0 -0.29278552109E+01 -0.47841115782E+01 -0.12835377830E+02  0.14007390327E+02  0.00000000000E+00 0.  1.
        -11    1    4    4    0    0  0.48268597830E+02  0.80449485655E+02  0.26666460390E+01  0.93856743390E+02  0.00000000000E+00 0.  1.
         11    1    4    4    0    0  0.28865289383E+02  0.34376525574E+02 -0.64230400119E+02  0.78361308955E+02  0.00000000000E+00 0. -1.
          4    1    1    2  501    0 -0.93247441504E+02 -0.15847791129E+03 -0.24467321923E+03  0.30606423823E+03  0.00000000000E+00 0. -1.
<scales pt_clust_5="13000.00000" pt_clust_6="13000.00000" pt_clust_7="13000.00000" pt_clust_8="13000.00000" pt_clust_9="167.56103"></scales>
<clustering>
<clus scale="   81.534">  5  6 -1 -1</clus>
<clus scale="   82.063">  7  8 -1 -1</clus>
<clus scale="   93.878">  1  5  2 -1</clus>
<clus scale="  167.561">  2  9  1 -1</clus>
<clus scale="  167.561">  2  5  1 -1</clus>
</clustering>
</event>
<event>
 9    1  0.6270443E-005  0.1204772E+03  0.7546771E-02  0.1245820E+00
         -2   -1    0    0    0  501 -0.00000000000E+00  0.00000000000E+00  0.11617795793E+03  0.11617795793E+03  0.00000000000E+00 0.  1.
         21   -1    0    0  501  502  0.00000000000E+00 -0.00000000000E+00 -0.34226969468E+03  0.34226969468E+03  0.00000000000E+00 0. -1.
         23    2    1    2    0    0  0.36510396471E+02 -0.72523676596E+02  0.64085279042E+02  0.13853854338E+03  0.92159168267E+02 0.  0.
        -24    2    1    2    0    0 -0.36636916853E+02  0.47921559140E+02 -0.17463349422E+03  0.20177534789E+03  0.81102985182E+02 0.  0.
         11    1    4    4    0    0 -0.62448293792E+02  0.29117784449E+02 -0.12562858324E+03  0.14328354998E+03  0.00000000000E+00 0. -1.
        -12    1    4    4    0    0  0.25811376940E+02  0.18803774691E+02 -0.49004910981E+02  0.58491797907E+02  0.00000000000E+00 0.  1.
        -11    1    3    3    0    0  0.53289539174E+02 -0.58219066987E+02  0.79195644891E+02  0.11180869786E+03  0.00000000000E+00 0.  1.
         11    1    3    3    0    0 -0.16779142703E+02 -0.14304609609E+02 -0.15110365850E+02  0.26729845529E+02  0.00000000000E+00 0. -1.
         -1    1    1    2    0  502  0.12652038128E+00  0.24602117456E+02 -0.11554352157E+03  0.11813376134E+03  0.00000000000E+00 0.  1.
<scales pt_clust_5="13000.00000" pt_clust_6="13000.00000" pt_clust_7="13000.00000" pt_clust_8="13000.00000" pt_clust_9="24.60244"></scales>
<clustering>
<clus scale="   24.602">  2  9  1 -1</clus>
<clus scale="   81.103">  5  6 -1 -1</clus>
<clus scale="   92.159">  7  8 -1 -1</clus>
<clus scale="  112.246">  2  5  1 -1</clus>
<clus scale="   24.602">  2  5  1 -1</clus>
</clustering>
</event>
<event>
 9    1  0.6270443E-005  0.1097409E+03  0.7546771E-02  0.1264686E+00
         21   -1    0    0  501  502  0.00000000000E+00  0.00000000000E+00  0.11402663212E+03  0.11402663212E+03  0.00000000000E+00 0. -1.
          1   -1    0    0  502    0 -0.00000000000E+00 -0.00000000000E+00 -0.19854175677E+03  0.19854175677E+03  0.00000000000E+00 0. -1.
         23    2    1    2    0    0  0.72128781693E+02  0.28443456895E+02 -0.78384598642E+02  0.14209990213E+03  0.89647339573E+02 0.  0.
        -24    2    1    2    0    0 -0.16633241372E+02 -0.40424781095E+02  0.37589345992E+02  0.98811426166E+02  0.80249058336E+02 0.  0.
         11    1    4    4    0    0 -0.33419993290E+02 -0.41787136889E+02 -0.42831854243E+01  0.53678733576E+02  0.00000000000E+00 0. -1.
        -12    1    4    4    0    0  0.16786751918E+02  0.13623557943E+01  0.41872531416E+02  0.45132692591E+02  0.00000000000E+00 0.  1.
        -11    1    3    3    0    0  0.64342123875E+02 -0.21447839350E+02 -0.49066830406E+02  0.83710647851E+02  0.00000000000E+00 0.  1.
         11    1    3    3    0    0  0.77866578182E+01  0.49891296245E+02 -0.29317768236E+02  0.58389254280E+02  0.00000000000E+00 0. -1.
          2    1    1    2  501    0 -0.55495540321E+02  0.11981324200E+02 -0.43719872006E+02  0.71657060596E+02  0.00000000000E+00 0. -1.
<scales pt_clust_5="13000.00000" pt_clust_6="13000.00000" pt_clust_7="13000.00000" pt_clust_8="13000.00000" pt_clust_9="56.77420"></scales>
<clustering>
<clus scale="   56.774">  1  9  2 -1</clus>
<clus scale="   80.249">  5  6 -1 -1</clus>
<clus scale="   89.647">  7  8 -1 -1</clus>
<clus scale="  102.207">  1  5  2 -1</clus>
<clus scale="   56.774">  1  5  2 -1</clus>
</clustering>
</event>
<event>
 9    1  0.6270443E-005  0.1025896E+03  0.7546771E-02  0.1279683E+00
         -2   -1    0    0    0  501 -0.00000000000E+00  0.00000000000E+00  0.16035583092E+03  0.16035583092E+03  0.00000000000E+00 0.  1.
         21   -1    0    0  501  502  0.00000000000E+00 -0.00000000000E+00 -0.33793445168E+03  0.33793445168E+03  0.00000000000E+00 0.  1.
        -24    2    1    2    0    0  0.45429331781E+02  0.35551775469E+01  0.99063671326E+02  0.13564094931E+03  0.80674609877E+02 0.  0.
         23    2    1    2    0    0 -0.50544499111E+02 -0.93417840375E+02 -0.13173675287E+03  0.19206481348E+03  0.90844269094E+02 0.  0.
         11    1    3    3    0    0  0.22633740538E+02  0.32795361684E+02  0.12973069025E+02  0.41906115050E+02  0.00000000000E+00 0. -1.
        -12    1    3    3    0    0  0.22795591244E+02 -0.29240184137E+02  0.86090602302E+02  0.93734834257E+02  0.00000000000E+00 0.  1.
        -13    1    4    4    0    0 -0.38235938467E+02  0.67012003149E+01 -0.39433209305E+02  0.55334176349E+02  0.00000000000E+00 0. -1.
         13    1    4    4    0    0 -0.12308560643E+02 -0.10011904069E+03 -0.92303543568E+02  0.13673063713E+03  0.00000000000E+00 0.  1.
         -1    1    1    2    0  502  0.51151673293E+01  0.89862662828E+02 -0.14490553921E+03  0.17058451981E+03  0.00000000000E+00 0.  1.
<scales pt_clust_5="13000.00000" pt_clust_6="13000.00000" pt_clust_7="13000.00000" pt_clust_8="13000.00000" pt_clust_9="90.00813"></scales>
<clustering>
<clus scale="   80.675">  5  6 -1 -1</clus>
<clus scale="   90.008">  2  9  1 -1</clus>
<clus scale="   90.844">  7  8 -1 -1</clus>
<clus scale="   93.703">  1  5  2 -1</clus>
<clus scale="   90.008">  2  5  1 -1</clus>
</clustering>
</event>
<event>
 9    1  0.6270443E-005  0.1326991E+03  0.7546771E-02  0.1236530E+00
          3   -1    0    0  502    0 -0.00000000000E+00  0.00000000000E+00  0.92248960474E+03  0.92248960474E+03  0.00000000000E+00 0. -1.
         21   -1    0    0  501  502  0.00000000000E+00 -0.00000000000E+00 -0.46462874180E+02  0.46462874180E+02  0.00000000000E+00 0. -1.
        -24    2    1    2    0    0 -0.41099318348E+01 -0.61375033449E+02  0.59153437432E+02  0.11739848297E+03  0.80619404446E+02 0.  0.
         23    2    1    2    0    0 -0.33733072271E+02 -0.59729222150E+02  0.41484364392E+03  0.42997817534E+03  0.89891502496E+02 0.  0.
         11    1    3    3    0    0 -0.21103472895E+02 -0.61871158087E+01 -0.12560406466E+02  0.25325891512E+02  0.00000000000E+00 0. -1.
        -12    1    3    3    0    0  0.16993541060E+02 -0.55187917640E+02  0.71713843898E+02  0.92072591459E+02  0.00000000000E+00 0.  1.
        -11    1    4    4    0    0  0.51969927611E+00 -0.72196361976E+02  0.32693383238E+03  0.33481086530E+03  0.00000000000E+00 0. -1.
         11    1    4    4    0    0 -0.34252771547E+02  0.12467139826E+02  0.87909811545E+02  0.95167310038E+02  0.00000000000E+00 0.  1.
          4    1    1    2  501    0  0.37843004106E+02  0.12110425560E+03  0.40202964921E+03  0.42157582061E+03  0.00000000000E+00 0. -1.
<scales pt_clust_5="13000.00000" pt_clust_6="13000.00000" pt_clust_7="13000.00000" pt_clust_8="13000.00000" pt_clust_9="97.61440"></scales>
<clustering>
<clus scale="   80.619">  5  6 -1 -1</clus>
<clus scale="   89.892">  7  8 -1 -1</clus>
<clus scale="  101.407">  1  5  2 -1</clus>
<clus scale="   97.614">  2  9  1 -1</clus>
<clus scale="   97.614">  2  5  1 -1</clus>
</clustering>
</event>
<event>
 9    1  0.6270443E-005  0.9648081E+02  0.7546771E-02  0.1294487E+00
          1   -1    0    0  502    0 -0.00000000000E+00  0.00000000000E+00  0.25902115364E+03  0.25902115364E+03  0.00000000000E+00 0. -1.
         21   -1    0    0  501  502  0.00000000000E+00 -0.00000000000E+00 -0.69132610954E+02  0.69132610954E+02  0.00000000000E+00 0.  1.
         23    2    1    2    0    0 -0.23906480539E+02  0.28875733372E+02  0.17292278235E+03  0.19945284962E+03  0.92053369172E+02 0.  0.
        -24    2    1    2    0    0  0.32384903303E+01  0.39069331958E+01 -0.10696410932E+02  0.81087211423E+02  0.80218269134E+02 0.  0.
         13    1    4    4    0    0 -0.15157195252E+02 -0.32176294895E+02  0.80345428501E+01  0.36463795742E+02  0.00000000000E+00 0. -1.
        -14    1    4    4    0    0  0.18395685582E+02  0.36083228091E+02 -0.18730953782E+02  0.44623415682E+02  0.00000000000E+00 0.  1.
        -13    1    3    3    0    0 -0.57721788188E+02  0.19150822250E+02  0.83037603706E+02  0.10292619906E+03  0.00000000000E+00 0. -1.
         13    1    3    3    0    0  0.33815307648E+02  0.97249111217E+01  0.89885178640E+02  0.96526650552E+02  0.00000000000E+00 0.  1.
          2    1    1    2  501    0  0.20667990209E+02 -0.32782666568E+02  0.27662171269E+02  0.47613703551E+02  0.00000000000E+00 0. -1.
<scales pt_clust_5="13000.00000" pt_clust_6="13000.00000" pt_clust_7="13000.00000" pt_clust_8="13000.00000" pt_clust_9="38.75397"></scales>
<clustering>
<clus scale="   38.754">  2  9  1 -1</clus>
<clus scale="   80.218">  5  6 -1 -1</clus>
<clus scale="   85.262">  2  5  1 -1</clus>
<clus scale="   92.053">  7  8 -1 -1</clus>
<clus scale="   38.754">  2  5  1 -1</clus>
</clustering>
</event>
<event>
 9    1  0.6270443E-005  0.1585262E+03  0.7546771E-02  0.1199078E+00
          3   -1    0    0  502    0 -0.00000000000E+00  0.00000000000E+00  0.38798098442E+03  0.38798098442E+03  0.00000000000E+00 0. -1.
         21   -1    0    0  501  502  0.00000000000E+00 -0.00000000000E+00 -0.27426744681E+03  0.27426744681E+03  0.00000000000E+00 0.  1.
        -24    2    1    2    0    0  0.78624829387E+02 -0.64610968833E+02 -0.15915546381E+03  0.20612570175E+03  0.82467582541E+02 0.  0.
         23    2    1    2    0    0 -0.19216463761E+02 -0.11364957992E+03  0.31498281554E+02  0.15023712740E+03  0.91068947587E+02 0.  0.
         13    1    3    3    0    0  0.13273357247E+02  0.16485575057E+02 -0.54550394619E+02  0.58512406810E+02  0.00000000000E+00 0. -1.
        -14    1    3    3    0    0  0.65351472140E+02 -0.81096543890E+02 -0.10460506919E+03  0.14761329494E+03  0.00000000000E+00 0.  1.
        -11    1    4    4    0    0  0.28703314638E+02 -0.86819845586E+02  0.25866742110E+02  0.95029754320E+02  0.00000000000E+00 0.  1.
         11    1    4    4    0    0 -0.47919778399E+02 -0.26829734329E+02  0.56315394440E+01  0.55207373081E+02  0.00000000000E+00 0. -1.
          4    1    1    2  501    0 -0.59408365626E+02  0.17826054875E+03  0.24137071987E+03  0.30588560207E+03  0.00000000000E+00 0. -1.
<scales pt_clust_5="13000.00000" pt_clust_6="13000.00000" pt_clust_7="13000.00000" pt_clust_8="13000.00000" pt_clust_9="129.75753"></scales>
<clustering>
<clus scale="   82.468">  5  6 -1 -1</clus>
<clus scale="   91.069">  7  8 -1 -1</clus>
<clus scale="  130.986">  1  5  2 -1</clus>
<clus scale="  129.758">  2  9  1 -1</clus>
<clus scale="  129.758">  2  5  1 -1</clus>
</clustering>
</event>
<event>
 9    1  0.6270443E-005  0.1015264E+03  0.7546771E-02  0.1283774E+00
         21   -1    0    0  501  502  0.00000000000E+00  0.00000000000E+00  0.26315697171E+03  0.26315697171E+03  0.00000000000E+00 0. -1.
          3   -1    0    0  502    0 -0.00000000000E+00 -0.00000000000E+00 -0.20262131374E+03  0.20262131374E+03  0.00000000000E+00 0. -1.
        -24    2    1    2    0    0 -0.38967301985E+02  0.19533188087E+02 -0.16823618872E+03  0.19140873643E+03  0.80211552339E+02 0.  0.
         23    2    1    2    0    0  0.39462573847E+01  0.13678154555E+02  0.10386390097E+03  0.14046114096E+03  0.93482390519E+02 0.  0.
         11    1    3    3    0    0 -0.39475712708E+02  0.46683515998E+02 -0.13698024921E+03  0.15000423738E+03  0.00000000000E+00 0. -1.
        -12    1    3    3    0    0  0.50841072271E+00 -0.27150327911E+02 -0.31255939511E+02  0.41404499053E+02  0.00000000000E+00 0.  1.
        -11    1    4    4    0    0 -0.34803873582E+02  0.25113083119E+02  0.86347216573E+02  0.96425195721E+02  0.00000000000E+00 0. -1.
         11    1    4    4    0    0  0.38750130967E+02 -0.11434928563E+02  0.17516684395E+02  0.44035945242E+02  0.00000000000E+00 0.  1.
          4    1    1    2  501    0  0.35021044600E+02 -0.33211342643E+02  0.12490794571E+03  0.13390840805E+03  0.00000000000E+00 0. -1.
<scales pt_clust_5="13000.00000" pt_clust_6="13000.00000" pt_clust_7="13000.00000" pt_clust_8="13000.00000" pt_clust_9="48.26455"></scales>
<clustering>
<clus scale="   48.265">  1  9  2 -1</clus>
<clus scale="   80.212">  5  6 -1 -1</clus>
<clus scale="   89.457">  2  5  1 -1</clus>
<clus scale="   93.482">  7  8 -1 -1</clus>
<clus scale="   48.265">  1  5  2 -1</clus>
</clustering>
</event>
<event>
 9    1  0.6270443E-005  0.1198865E+03  0.7546771E-02  0.1247552E+00
         21   -1    0    0  501  502  0.00000000000E+00  0.00000000000E+00  0.86255544581E+03  0.86255544581E+03  0.00000000000E+00 0. -1.
          3   -1    0    0  502    0 -0.00000000000E+00 -0.00000000000E+00 -0.32546580308E+02  0.32546580308E+02  0.00000000000E+00 0. -1.
        -24    2    1    2    0    0 -0.71486079510E+02  0.40380502414E+02  0.11191184092E+03  0.16025471897E+03  0.80102873071E+02 0.  0.
         23    2    1    2    0    0  0.33352042286E+02 -0.49024884603E+02  0.42355985672E+03  0.43772599625E+03  0.93194943724E+02 0.  0.
         13    1    3    3    0    0 -0.56819916896E+02  0.63556768440E+02  0.70717361241E+02  0.11076511613E+03  0.00000000000E+00 0. -1.
        -14    1    3    3    0    0 -0.14666162614E+02 -0.23176266027E+02  0.41194479683E+02  0.49489602839E+02  0.00000000000E+00 0.  1.
        -11    1    4    4    0    0 -0.45950777093E+01 -0.65792166848E+02  0.30696852792E+03  0.31397356750E+03  0.00000000000E+00 0. -1.
         11    1    4    4    0    0  0.37947119995E+02  0.16767282245E+02  0.11659132880E+03  0.12375242875E+03  0.00000000000E+00 0.  1.
          4    1    1    2  501    0  0.38134037225E+02  0.86443821894E+01  0.29453716786E+03  0.29712131090E+03  0.00000000000E+00 0. -1.
<scales pt_clust_5="13000.00000" pt_clust_6="13000.00000" pt_clust_7="13000.00000" pt_clust_8="13000.00000" pt_clust_9="39.10154"></scales>
<clustering>
<clus scale="   39.102">  1  9  2 -1</clus>
<clus scale="   80.103">  5  6 -1 -1</clus>
<clus scale="   93.195">  7  8 -1 -1</clus>
<clus scale="  110.018">  2  5  1 -1</clus>
<clus scale="   39.102">  1  5  2 -1</clus>
</clustering>
</event>
<event>
 9    1  0.6270443E-005  0.1181031E+03  0.7546771E-02  0.1249990E+00
          1   -1    0    0  502    0 -0.00000000000E+00  0.00000000000E+00  0.14546215383E+03  0.14546215383E+03  0.00000000000E+00 0. -1.
         21   -1    0    0  501  502  0.00000000000E+00 -0.00000000000E+00 -0.21654310830E+03  0.21654310830E+03  0.00000000000E+00 0. -1.
         23    2    1    2    0    0  0.56774998257E+02  0.30145473758E+02  0.30231078432E+02  0.11577800946E+03  0.91424719615E+02 0.  0.
        -24    2    1    2    0    0 -0.77440688251E+02 -0.87007034593E+02 -0.11723754028E+03  0.18366584580E+03  0.80132501506E+02 0.  0.
         13    1    4    4    0    0 -0.63960855863E+02 -0.99781466717E+02 -0.82928254699E+02  0.14465278293E+03  0.00000000000E+00 0. -1.
        -14    1    4    4    0    0 -0.13479832387E+02  0.12774432124E+02 -0.34309285582E+02  0.39013062869E+02  0.00000000000E+00 0.  1.
        -13    1    3    3    0    0  0.63825854962E+02 -0.14675571772E+02  0.25018473933E+02  0.70107319207E+02  0.00000000000E+00 0.  1.
         13    1    3    3    0    0 -0.70508567055E+01  0.44821045530E+02  0.52126044988E+01  0.45670690255E+02  0.00000000000E+00 0. -1.
          2    1    1    2  501    0  0.20665689994E+02  0.56861560835E+02  0.15925507377E+02  0.62561406863E+02  0.00000000000E+00 0. -1.
<scales pt_clust_5="13000.00000" pt_clust_6="13000.00000" pt_clust_7="13000.00000" pt_clust_8="13000.00000" pt_clust_9="60.50051"></scales>
<clustering>
<clus scale="   60.501">  2  9  1 -1</clus>
<clus scale="   80.133">  5  6 -1 -1</clus>
<clus scale="   91.425">  7  8 -1 -1</clus>
<clus scale="  109.595">  2  5  1 -1</clus>
<clus scale="   60.501">  2  5  1 -1</clus>
</clustering>
</event>
<event>
 9    1  0.6270443E-005  0.1012872E+03  0.7546771E-02  0.1283390E+00
         21   -1    0    0  501  502  0.00000000000E+00  0.00000000000E+00  0.33665230862E+02  0.33665230862E+02  0.00000000000E+00 0.  1.
          1   -1    0    0  502    0 -0.00000000000E+00 -0.00000000000E+00 -0.57501770881E+03  0.57501770881E+03  0.00000000000E+00 0. -1.
        -24    2    1    2    0    0 -0.70922058726E+01  0.53722882090E+02 -0.26291606467E+03  0.27996060347E+03  0.79477260814E+02 0.  0.
         23    2    1    2    0    0 -0.14906834179E+02 -0.17046523447E+02 -0.73571475434E+02  0.11944081336E+03  0.91326601996E+02 0.  0.
         13    1    3    3    0    0 -0.17064726361E+02  0.48923176484E+02 -0.26381656661E+03  0.26885658426E+03  0.00000000000E+00 0. -1.
        -14    1    3    3    0    0  0.99725204888E+01  0.47997056065E+01  0.90050193574E+00  0.11104019207E+02  0.00000000000E+00 0.  1.
        -11    1    4    4    0    0  0.30996030373E+01 -0.36094913481E+02  0.50379517778E+01  0.36576375932E+02  0.00000000000E+00 0.  1.
         11    1    4    4    0    0 -0.18006437216E+02  0.19048390034E+02 -0.78609427211E+02  0.82864437430E+02  0.00000000000E+00 0. -1.
          2    1    1    2  501    0  0.21999040051E+02 -0.36676358643E+02 -0.20486493784E+03  0.20928152285E+03  0.00000000000E+00 0. -1.
<scales pt_clust_5="13000.00000" pt_clust_6="13000.00000" pt_clust_7="13000.00000" pt_clust_8="13000.00000" pt_clust_9="42.76815"></scales>
<clustering>
<clus scale="   42.768">  1  9  2 -1</clus>
<clus scale="   79.477">  5  6 -1 -1</clus>
<clus scale="   90.748">  2  5  1 -1</clus>
<clus scale="   91.327">  7  8 -1 -1</clus>
<clus scale="   42.768">  1  5  2 -1</clus>
</clustering>
</event>
<event>
 9    1  0.6270443E-005  0.9688729E+02  0.7546771E-02  0.1293399E+00
         21   -1    0    0  501  502  0.00000000000E+00  0.00000000000E+00  0.57756620428E+03  0.57756620428E+03  0.00000000000E+00 0. -1.
          1   -1    0    0  502    0 -0.00000000000E+00 -0.00000000000E+00 -0.66884008380E+02  0.66884008380E+02  0.00000000000E+00 0. -1.
         23    2    1    2    0    0  0.32078254234E+02  0.18944355544E+02  0.27647993312E+02  0.10306726427E+03  0.92035571540E+02 0.  0.
        -24    2    1    2    0    0  0.26790202207E+02 -0.38496984358E+01  0.47206494833E+03  0.47962804271E+03  0.80406522100E+02 0.  0.
         11    1    4    4    0    0  0.53235457264E+02  0.10126168092E+02  0.27274006489E+03  0.27807138685E+03  0.00000000000E+00 0. -1.
        -12    1    4    4    0    0 -0.26445255057E+02 -0.13975866528E+02  0.19932488344E+03  0.20155665586E+03  0.00000000000E+00 0.  1.
        -13    1    3    3    0    0  0.14282790527E+02 -0.15750586365E+02  0.52627063449E+02  0.56759905597E+02  0.00000000000E+00 0. -1.
         13    1    3    3    0    0  0.17795463707E+02  0.34694941909E+02 -0.24979070137E+02  0.46307358675E+02  0.00000000000E+00 0.  1.
          2    1    1    2  501    0 -0.58868456441E+02 -0.15094657108E+02  0.10969254260E+02  0.61754905684E+02  0.00000000000E+00 0. -1.
<scales pt_clust_5="13000.00000" pt_clust_6="13000.00000" pt_clust_7="13000.00000" pt_clust_8="13000.00000" pt_clust_9="60.77292"></scales>
<clustering>
<clus scale="   60.773">  1  9  2 -1</clus>
<clus scale="   80.407">  5  6 -1 -1</clus>
<clus scale="   85.917">  1  5  2 -1</clus>
<clus scale="   92.036">  7  8 -1 -1</clus>
<clus scale="   60.773">  1  5  2 -1</clus>
</clustering>
</event>
<event>
 9    1  0.6270443E-005  0.9819842E+02  0.7546771E-02  0.1289656E+00
         21   -1    0    0  501  502  0.00000000000E+00  0.00000000000E+00  0.52755226603E+02  0.52755226603E+02  0.00000000000E+00 0.  1.
         -2   -1    0    0    0  501 -0.00000000000E+00 -0.00000000000E+00 -0.41298550007E+03  0.41298550007E+03  0.00000000000E+00 0.  1.
        -24    2    1    2    0    0 -0.81080152465E+01  0.27853306022E+02 -0.21402372738E+03  0.23003346556E+03  0.79168761704E+02 0.  0.
         23    2    1    2    0    0  0.33287661416E+02 -0.78786560054E+02 -0.76429639546E+02  0.14572377577E+03  0.89880690784E+02 0.  0.
         11    1    3    3    0    0 -0.24706792690E+02  0.49977367763E+02 -0.15814506712E+03  0.16768430203E+03  0.00000000000E+00 0. -1.
        -12    1    3    3    0    0  0.16598777444E+02 -0.22124061741E+02 -0.55878660260E+02  0.62349163531E+02  0.00000000000E+00 0.  1.
        -13    1    4    4    0    0  0.23136223966E+02  0.11238482022E+02 -0.41096071437E+02  0.48481701962E+02  0.00000000000E+00 0. -1.
         13    1    4    4    0    0  0.10151437450E+02 -0.90025042076E+02 -0.35333568108E+02  0.97242073808E+02  0.00000000000E+00 0.  1.
         -1    1    1    2    0  502 -0.25179646170E+02  0.50933254032E+02 -0.69776906541E+02  0.89983485340E+02  0.00000000000E+00 0.  1.
<scales pt_clust_5="13000.00000" pt_clust_6="13000.00000" pt_clust_7="13000.00000" pt_clust_8="13000.00000" pt_clust_9="56.81738"></scales>
<clustering>
<clus scale="   56.817">  1  9  2 -1</clus>
<clus scale="   79.169">  5  6 -1 -1</clus>
<clus scale="   88.499">  2  5  1 -1</clus>
<clus scale="   89.881">  7  8 -1 -1</clus>
<clus scale="   56.817">  1  5  2 -1</clus>
</clustering>
</event>
<event>
 9    1  0.6270443E-005  0.1364077E+03  0.7546771E-02  0.1233945E+00
         21   -1    0    0  501  502  0.00000000000E+00  0.00000000000E+00  0.88279667674E+02  0.88279667674E+02  0.00000000000E+00 0.  1.
          1   -1    0    0  502    0 -0.00000000000E+00 -0.00000000000E+00 -0.41835505830E+03  0.41835505830E+03  0.00000000000E+00 0. -1.
         23    2    1    2    0    0 -0.14336399269E+02  0.40992369710E+02 -0.16748624229E+03  0.19426811228E+03  0.88332051787E+02 0.  0.
        -24    2    1    2    0    0 -0.69548289789E+02 -0.10438651342E+03 -0.13987100541E+03  0.20479536971E+03  0.81509119148E+02 0.  0.
         11    1    4    4    0    0  0.15224267855E+02 -0.39994950298E+02 -0.46491838471E+02  0.63189124266E+02  0.00000000000E+00 0. -1.
        -12    1    4    4    0    0 -0.84772557645E+02 -0.64391563120E+02 -0.93379166938E+02  0.14160624544E+03  0.00000000000E+00 0.  1.
        -13    1    3    3    0    0  0.21426343447E+02  0.37426607150E+02 -0.30953962855E+02  0.53084714680E+02  0.00000000000E+00 0.  1.
         13    1    3    3    0    0 -0.35762742716E+02  0.35657625601E+01 -0.13653227944E+03  0.14118339760E+03  0.00000000000E+00 0. -1.
          2    1    1    2  501    0  0.83884689059E+02  0.63394143707E+02 -0.22718142927E+02  0.10757124399E+03  0.00000000000E+00 0. -1.
<scales pt_clust_5="13000.00000" pt_clust_6="13000.00000" pt_clust_7="13000.00000" pt_clust_8="13000.00000" pt_clust_9="109.37693"></scales>
<clustering>
<clus scale="   81.509">  5  6 -1 -1</clus>
<clus scale="   88.332">  7  8 -1 -1</clus>
<clus scale="   98.430">  2  7  1 -1</clus>
<clus scale="  109.377">  1  9  2 -1</clus>
<clus scale="  109.377">  1  5  2 -1</clus>
</clustering>
</event>
<event>
 9    1  0.6270443E-005  0.2245543E+03  0.7546771E-02  0.1133069E+00
         -2   -1    0    0    0  501 -0.00000000000E+00  0.00000000000E+00  0.28408932311E+03  0.28408932311E+03  0.00000000000E+00 0.  1.
         21   -1    0    0  501  502  0.00000000000E+00 -0.00000000000E+00 -0.25247752047E+03  0.25247752047E+03  0.00000000000E+00 0.  1.
        -24    2    1    2    0    0  0.18223895594E+03  0.20040290734E+02 -0.23301396459E+02  0.20203965689E+03  0.81635884052E+02 0.  0.
         23    2    1    2    0    0 -0.20893992040E+03  0.28555059578E+02 -0.21893521952E+02  0.23979745549E+03  0.11203665290E+03 0.  0.
         13    1    3    3    0    0  0.30417091713E+02  0.20426733248E+02  0.23065149729E+02  0.43294942331E+02  0.00000000000E+00 0. -1.
        -14    1    3    3    0    0  0.15182186423E+03 -0.38644251333E+00 -0.46366546188E+02  0.15874471456E+03  0.00000000000E+00 0.  1.
        -11    1    4    4    0    0 -0.94293152528E+02  0.58857860964E+02  0.22072745867E+02  0.11332542751E+03  0.00000000000E+00 0.  1.
         11    1    4    4    0    0 -0.11464676787E+03 -0.30302801385E+02 -0.43966267818E+02  0.12647202798E+03  0.00000000000E+00 0. -1.
         -1    1    1    2    0  502  0.26700964459E+02 -0.48595350313E+02  0.76806721048E+02  0.94729731200E+02  0.00000000000E+00 0.  1.
<scales pt_clust_5="13000.00000" pt_clust_6="13000.00000" pt_clust_7="13000.00000" pt_clust_8="13000.00000" pt_clust_9="55.44775"></scales>
<clustering>
<clus scale="   55.448">  2  9  1 -1</clus>
<clus scale="   81.636">  5  6 -1 -1</clus>
<clus scale="  112.037">  7  8 -1 -1</clus>
<clus scale="  211.038">  1  5  2 -1</clus>
<clus scale="   55.448">  2  5  1 -1</clus>
</clustering>
</event>
<event>
 9    1  0.6270443E-005  0.1848335E+03  0.7546771E-02  0.1165014E+00
         21   -1    0    0  501  502  0.00000000000E+00  0.00000000000E+00  0.20593934906E+03  0.20593934906E+03  0.00000000000E+00 0.  1.
          1   -1    0    0  502    0 -0.00000000000E+00 -0.00000000000E+00 -0.22400012122E+03  0.22400012122E+03  0.00000000000E+00 0. -1.
        -24    2    1    2    0    0 -0.21625144011E+02  0.14453074117E+03 -0.52462423062E+01  0.16689347837E+03  0.80430890007E+02 0.  0.
         23    2    1    2    0    0  0.78708059962E+02 -0.15901220282E+03  0.41572522111E+01  0.20175803704E+03  0.95964490399E+02 0.  0.
         11    1    3    3    0    0  0.21924114386E+02  0.86471802107E+02  0.17352351819E+02  0.90879829802E+02  0.00000000000E+00 0. -1.
        -12    1    3    3    0    0 -0.43549258397E+02  0.58058939061E+02 -0.22598594125E+02  0.76013648566E+02  0.00000000000E+00 0.  1.
        -13    1    4    4    0    0  0.76775264870E+02 -0.12453584842E+03 -0.34100667445E+02  0.15022141777E+03  0.00000000000E+00 0.  1.
         13    1    4    4    0    0  0.19327950920E+01 -0.34476354400E+02  0.38257919656E+02  0.51536619272E+02  0.00000000000E+00 0. -1.
          2    1    1    2  501    0 -0.57082915950E+02  0.14481461649E+02 -0.16971782070E+02  0.61287954865E+02  0.00000000000E+00 0. -1.
<scales pt_clust_5="13000.00000" pt_clust_6="13000.00000" pt_clust_7="13000.00000" pt_clust_8="13000.00000" pt_clust_9="58.89122"></scales>
<clustering>
<clus scale="   58.891">  1  9  2 -1</clus>
<clus scale="   80.431">  5  6 -1 -1</clus>
<clus scale="   95.964">  7  8 -1 -1</clus>
<clus scale="  177.266">  2  5  1 -1</clus>
<clus scale="   58.891">  1  5  2 -1</clus>
</clustering>
</event>
<event>
 9    1  0.6270443E-005  0.1073472E+03  0.7546771E-02  0.1269699E+00
         -4   -1    0    0    0  501 -0.00000000000E+00  0.00000000000E+00  0.97235948894E+02  0.97235948894E+02  0.00000000000E+00 0.  1.
         21   -1    0    0  501  502  0.00000000000E+00 -0.00000000000E+00 -0.48185388203E+03  0.48185388203E+03  0.00000000000E+00 0. -1.
         23    2    1    2    0    0 -0.55857922363E+02  0.26420418986E+00  0.53454225179E+02  0.11913821263E+03  0.90644261955E+02 0.  0.
        -24    2    1    2    0    0  0.72231371283E+02  0.15462071819E+02 -0.28612589327E+03  0.30631870174E+03  0.80663954618E+02 0.  0.
         11    1    4    4    0    0  0.73770211058E+02  0.39082829057E+02 -0.19399508051E+03  0.21119565060E+03  0.00000000000E+00 0. -1.
        -12    1    4    4    0    0 -0.15388397753E+01 -0.23620757238E+02 -0.92130812751E+02  0.95123051142E+02  0.00000000000E+00 0.  1.
        -13    1    3    3    0    0  0.24080441396E+02 -0.12767990453E+01  0.23748043281E+02  0.33844754886E+02  0.00000000000E+00 0. -1.
         13    1    3    3    0    0 -0.79938363759E+02  0.15410032351E+01  0.29706181898E+02  0.85293457746E+02  0.00000000000E+00 0.  1.
         -3    1    1    2    0  502 -0.16373448920E+02 -0.15726276009E+02 -0.15194626505E+03  0.15363291655E+03  0.00000000000E+00 0.  1.
<scales pt_clust_5="13000.00000" pt_clust_6="13000.00000" pt_clust_7="13000.00000" pt_clust_8="13000.00000" pt_clust_9="22.70255"></scales>
<clustering>
<clus scale="   22.703">  2  9  1 -1</clus>
<clus scale="   80.664">  5  6 -1 -1</clus>
<clus scale="   90.644">  7  8 -1 -1</clus>
<clus scale="   99.064">  2  5  1 -1</clus>
<clus scale="   22.703">  2  5  1 -1</clus>
</clustering>
</event>
<event>
 9    1  0.6270443E-005  0.2162215E+03  0.7546771E-02  0.1137779E+00
         21   -1    0    0  501  502  0.00000000000E+00  0.00000000000E+00  0.20447687185E+03  0.20447687185E+03  0.00000000000E+00 0.  1.
          1   -1    0    0  502    0 -0.00000000000E+00 -0.00000000000E+00 -0.44338784947E+03  0.44338784947E+03  0.00000000000E+00 0. -1.
        -24    2    1    2    0    0  0.10396132665E+03  0.18458684542E+03 -0.27427227291E+03  0.36165193803E+03  0.10337593363E+03 0.  0.
         23    2    1    2    0    0 -0.11524789984E+03 -0.10601755511E+03 -0.29444537642E+02  0.18374173324E+03  0.91499963548E+02 0.  0.
         13    1    3    3    0    0  0.34264518478E+02  0.37773625522E+02 -0.14587996384E+03  0.15453759369E+03  0.00000000000E+00 0. -1.
        -14    1    3    3    0    0  0.69696808174E+02  0.14681321990E+03 -0.12839230907E+03  0.20711434435E+03  0.00000000000E+00 0.  1.
        -13    1    4    4    0    0 -0.51658173209E+01 -0.40624539994E+02 -0.37392757138E+02  0.55455001620E+02  0.00000000000E+00 0. -1.
         13    1    4    4    0    0 -0.11008208251E+03 -0.65393015117E+02  0.79482194963E+01  0.12828673162E+03  0.00000000000E+00 0.  1.
          2    1    1    2  501    0  0.11286573184E+02 -0.78569290308E+02  0.64805832933E+02  0.10247105004E+03  0.00000000000E+00 0. -1.
<scales pt_clust_5="13000.00000" pt_clust_6="13000.00000" pt_clust_7="13000.00000" pt_clust_8="13000.00000" pt_clust_9="79.37582"></scales>
<clustering>
<clus scale="   79.376">  1  9  2 -1</clus>
<clus scale="   91.500">  7  8 -1 -1</clus>
<clus scale="  103.376">  5  6 -1 -1</clus>
<clus scale="  210.802">  1  7  2 -1</clus>
<clus scale="   79.376">  1  5  2 -1</clus>
</clustering>
</event>
<event>
 9    1  0.6270443E-005  0.1221745E+03  0.7546771E-02  0.1243004E+00
         -4   -1    0    0    0  501 -0.00000000000E+00  0.00000000000E+00  0.23006137012E+03  0.23006137012E+03  0.00000000000E+00 0.  1.
         21   -1    0    0  501  502  0.00000000000E+00 -0.00000000000E+00 -0.17489256011E+03  0.17489256011E+03  0.00000000000E+00 0. -1.
         23    2    1    2    0    0  0.62728468178E+02 -0.50570666247E+02  0.16813215397E+03  0.20729582216E+03  0.90613926542E+02 0.  0.
        -24    2    1    2    0    0 -0.88634163027E+02  0.30233657591E+02 -0.63074089193E+02  0.13787820602E+03  0.79132610609E+02 0.  0.
         13    1    4    4    0    0 -0.94822265815E+02  0.37803269227E+01 -0.54270727500E+02  0.10932001111E+03  0.00000000000E+00 0. -1.
        -14    1    4    4    0    0  0.61881027877E+01  0.26453330669E+02 -0.88033616930E+01  0.28558194913E+02  0.00000000000E+00 0.  1.
        -11    1    3    3    0    0  0.67040623330E+02  0.33811482440E+01  0.94170443033E+02  0.11564579405E+03  0.00000000000E+00 0.  1.
         11    1    3    3    0    0 -0.43121551524E+01 -0.53951814491E+02  0.73961710935E+02  0.91650028114E+02  0.00000000000E+00 0. -1.
         -3    1    1    2    0  502  0.25905694849E+02  0.20337008655E+02 -0.49889254764E+02  0.59779902037E+02  0.00000000000E+00 0.  1.
<scales pt_clust_5="13000.00000" pt_clust_6="13000.00000" pt_clust_7="13000.00000" pt_clust_8="13000.00000" pt_clust_9="32.93477"></scales>
<clustering>
<clus scale="   32.935">  2  9  1 -1</clus>
<clus scale="   79.133">  5  6 -1 -1</clus>
<clus scale="   90.614">  7  8 -1 -1</clus>
<clus scale="  113.920">  2  5  1 -1</clus>
<clus scale="   32.935">  2  5  1 -1</clus>
</clustering>
</event>
<event>
 9    1  0.6270443E-005  0.1061621E+03  0.7546771E-02  0.1271589E+00
         21   -1    0    0  501  502  0.00000000000E+00  0.00000000000E+00  0.10512458101E+03  0.10512458101E+03  0.00000000000E+00 0. -1.
          3   -1    0    0  502    0 -0.00000000000E+00 -0.00000000000E+00 -0.47874906504E+03  0.47874906504E+03  0.00000000000E+00 0. -1.
         23    2    1    2    0    0  0.21973229545E+02  0.55044407411E+02 -0.41326988344E+03  0.42701697687E+03  0.89659312793E+02 0.  0.
        -24    2    1    2    0    0 -0.29187529575E+02 -0.34905692311E+02 -0.18845759503E+02  0.94576418358E+02  0.80741668423E+02 0.  0.
         13    1    4    4    0    0  0.17921135156E+02  0.14367133460E+02  0.25941875886E+01  0.23115177230E+02  0.00000000000E+00 0. -1.
        -14    1    4    4    0    0 -0.47108664731E+02 -0.49272825771E+02 -0.21439947092E+02  0.71461241128E+02  0.00000000000E+00 0.  1.
        -11    1    3    3    0    0  0.36786078551E+02 -0.10317580140E+02 -0.11050516709E+03  0.11692330815E+03  0.00000000000E+00 0.  1.
         11    1    3    3    0    0 -0.14812849006E+02  0.65361987551E+02 -0.30276471635E+03  0.31009366872E+03  0.00000000000E+00 0. -1.
          4    1    1    2  501    0  0.72143000303E+01 -0.20138715100E+02  0.58491158917E+02  0.62280250820E+02  0.00000000000E+00 0. -1.
<scales pt_clust_5="13000.00000" pt_clust_6="13000.00000" pt_clust_7="13000.00000" pt_clust_8="13000.00000" pt_clust_9="21.39191"></scales>
<clustering>
<clus scale="   21.392">  1  9  2 -1</clus>
<clus scale="   80.742">  5  6 -1 -1</clus>
<clus scale="   89.659">  7  8 -1 -1</clus>
<clus scale="   98.746">  1  5  2 -1</clus>
<clus scale="   21.392">  1  5  2 -1</clus>
</clustering>
</event>
<event>
 9    1  0.6270443E-005  0.9326632E+02  0.7546771E-02  0.1303453E+00
         21   -1    0    0  501  502  0.00000000000E+00  0.00000000000E+00  0.71420500628E+03  0.71420500628E+03  0.00000000000E+00 0. -1.
         -2   -1    0    0    0  501 -0.00000000000E+00 -0.00000000000E+00 -0.35921577155E+02  0.35921577155E+02  0.00000000000E+00 0.  1.
         23    2    1    2    0    0  0.13664269068E+02 -0.11167400949E+02  0.52862774137E+02  0.10831537606E+03  0.92878009816E+02 0.  0.
        -24    2    1    2    0    0  0.35364173994E+02 -0.15332881238E+02  0.38686406006E+03  0.39683099967E+03  0.79531875907E+02 0.  0.
         11    1    4    4    0    0  0.18225360026E+02 -0.45328944744E+02  0.28776465255E+03  0.29188246305E+03  0.00000000000E+00 0. -1.
        -12    1    4    4    0    0  0.17138813968E+02  0.29996063505E+02  0.99099407511E+02  0.10494853662E+03  0.00000000000E+00 0.  1.
        -13    1    3    3    0    0 -0.24444409118E+02  0.29538049844E+02  0.16462928621E+02  0.41725933716E+02  0.00000000000E+00 0. -1.
         13    1    3    3    0    0  0.38108678186E+02 -0.40705450793E+02  0.36399845516E+02  0.66589442339E+02  0.00000000000E+00 0.  1.
         -1    1    1    2    0  502 -0.49028443062E+02  0.26500282187E+02  0.23855659493E+03  0.24498020771E+03  0.00000000000E+00 0.  1.
<scales pt_clust_5="13000.00000" pt_clust_6="13000.00000" pt_clust_7="13000.00000" pt_clust_8="13000.00000" pt_clust_9="55.73198"></scales>
<clustering>
<clus scale="   55.732">  1  9  2 -1</clus>
<clus scale="   79.532">  5  6 -1 -1</clus>
<clus scale="   79.985">  1  5  2 -1</clus>
<clus scale="   92.878">  7  8 -1 -1</clus>
<clus scale="   55.732">  1  5  2 -1</clus>
</clustering>
</event>
<event>
 9    1  0.6270443E-005  0.1143852E+03  0.7546771E-02  0.1256165E+00
          1   -1    0    0  502    0 -0.00000000000E+00  0.00000000000E+00  0.79735498785E+03  0.79735498785E+03  0.00000000000E+00 0. -1.
         21   -1    0    0  501  502  0.00000000000E+00 -0.00000000000E+00 -0.25606117779E+02  0.25606117779E+02  0.00000000000E+00 0. -1.
         23    2    1    2    0    0 -0.38810024775E+02 -0.43595198321E+02  0.38112397365E+03  0.39624139495E+03  0.91350973962E+02 0.  0.
        -24    2    1    2    0    0  0.53117248360E+02  0.13324596894E+02  0.17809248256E+03  0.21156620059E+03  0.10022144448E+03 0.  0.
         13    1    4    4    0    0  0.18464475661E+01  0.24154274408E+02 -0.17082616446E+01  0.24284902690E+02  0.00000000000E+00 0. -1.
        -14    1    4    4    0    0  0.51270800794E+02 -0.10829677515E+02  0.17980074420E+03  0.18728129790E+03  0.00000000000E+00 0.  1.
        -13    1    3    3    0    0  0.60289871525E+00 -0.59669198696E+02  0.28397668586E+03  0.29017845349E+03  0.00000000000E+00 0. -1.
         13    1    3    3    0    0 -0.39412923490E+02  0.16074000375E+02  0.97147287792E+02  0.10606294146E+03  0.00000000000E+00 0.  1.
          2    1    1    2  501    0 -0.14307223586E+02  0.30270601427E+02  0.21253241387E+03  0.21515351008E+03  0.00000000000E+00 0. -1.
<scales pt_clust_5="13000.00000" pt_clust_6="13000.00000" pt_clust_7="13000.00000" pt_clust_8="13000.00000" pt_clust_9="33.48144"></scales>
<clustering>
<clus scale="   33.481">  2  9  1 -1</clus>
<clus scale="   91.351">  7  8 -1 -1</clus>
<clus scale="  100.221">  5  6 -1 -1</clus>
<clus scale="  106.699">  1  7  2 -1</clus>
<clus scale="   33.481">  2  5  1 -1</clus>
</clustering>
</event>
<event>
 9    1  0.6270443E-005  0.2981199E+03  0.7546771E-02  0.1116879E+00
         21   -1    0    0  501  502  0.00000000000E+00  0.00000000000E+00  0.12676924413E+04  0.12676924413E+04  0.00000000000E+00 0. -1.
          1   -1    0    0  502    0 -0.00000000000E+00 -0.00000000000E+00 -0.10670030055E+03  0.10670030055E+03  0.00000000000E+00 0. -1.
        -24    2    1    2    0    0 -0.31830515271E+02  0.99058113977E+02  0.27662316243E+03  0.30768240713E+03  0.85571011540E+02 0.  0.
         23    2    1    2    0    0  0.29145216745E+03 -0.13538160372E+03  0.47597219793E+03  0.58141585873E+03  0.90677026036E+02 0.  0.
         11    1    3    3    0    0 -0.37487147894E+02  0.33287529609E+02  0.20165106185E+03  0.20778954889E+03  0.00000000000E+00 0. -1.
        -12    1    3    3    0    0  0.56566326232E+01  0.65770584368E+02  0.74972100585E+02  0.99892858238E+02  0.00000000000E+00 0.  1.
        -13    1    4    4    0    0  0.69368342323E+02 -0.66088761089E+02  0.18979144975E+03  0.21260405842E+03  0.00000000000E+00 0.  1.
         13    1    4    4    0    0  0.22208382513E+03 -0.69292842634E+02  0.28618074818E+03  0.36881180031E+03  0.00000000000E+00 0. -1.
          2    1    1    2  501    0 -0.25962165218E+03  0.36323489746E+02  0.40839678038E+03  0.48529447597E+03  0.00000000000E+00 0. -1.
<scales pt_clust_5="13000.00000" pt_clust_6="13000.00000" pt_clust_7="13000.00000" pt_clust_8="13000.00000" pt_clust_9="283.99500"></scales>
<clustering>
<clus scale="   85.571">  5  6 -1 -1</clus>
<clus scale="   90.677">  7  8 -1 -1</clus>
<clus scale="  134.715">  2  5  1 -1</clus>
<clus scale="  283.995">  1  9  2 -1</clus>
<clus scale="  283.995">  1  5  2 -1</clus>
</clustering>
</event>
<event>
 9    1  0.6270443E-005  0.9571499E+02  0.7546771E-02  0.1297519E+00
         21   -1    0    0  501  502  0.00000000000E+00  0.00000000000E+00  0.17632934885E+03  0.17632934885E+03  0.00000000000E+00 0.  1.
          1   -1    0    0  502    0 -0.00000000000E+00 -0.00000000000E+00 -0.15503151387E+03  0.15503151387E+03  0.00000000000E+00 0. -1.
         23    2    1    2    0    0 -0.15240680109E+02  0.11362664162E+02 -0.12026248258E+03  0.15362318662E+03  0.93678334119E+02 0.  0.
        -24    2    1    2    0    0  0.31106081573E+02  0.24344610043E+01  0.11964771838E+03  0.14736937635E+03  0.80178810555E+02 0.  0.
         11    1    4    4    0    0  0.52353585213E+02  0.20389979782E+02  0.64046643567E+02  0.85197545225E+02  0.00000000000E+00 0. -1.
        -12    1    4    4    0    0 -0.21247503640E+02 -0.17955518778E+02  0.55601074814E+02  0.62171831130E+02  0.00000000000E+00 0.  1.
        -11    1    3    3    0    0 -0.25741513835E+02 -0.25372593906E+02 -0.10858796684E+02  0.37739998959E+02  0.00000000000E+00 0.  1.
         11    1    3    3    0    0  0.10500833725E+02  0.36735258068E+02 -0.10940368590E+03  0.11588318766E+03  0.00000000000E+00 0. -1.
          2    1    1    2  501    0 -0.15865401463E+02 -0.13797125166E+02  0.21912599185E+02  0.30368299746E+02  0.00000000000E+00 0. -1.
<scales pt_clust_5="13000.00000" pt_clust_6="13000.00000" pt_clust_7="13000.00000" pt_clust_8="13000.00000" pt_clust_9="21.02550"></scales>
<clustering>
<clus scale="   21.025">  1  9  2 -1</clus>
<clus scale="   80.179">  5  6 -1 -1</clus>
<clus scale="   82.549">  1  5  2 -1</clus>
<clus scale="   93.678">  7  8 -1 -1</clus>
<clus scale="   21.025">  1  5  2 -1</clus>
</clustering>
</event>
<event>
 9    1  0.6270443E-005  0.1068744E+03  0.7546771E-02  0.1271663E+00
         21   -1    0    0  501  502  0.00000000000E+00  0.00000000000E+00  0.93507255807E+02  0.93507255807E+02  0.00000000000E+00 0.  1.
         -2   -1    0    0    0  501 -0.00000000000E+00 -0.00000000000E+00 -0.38676644730E+03  0.38676644730E+03  0.00000000000E+00 0.  1.
         23    2    1    2    0    0 -0.32907674782E+02 -0.42433075573E+02 -0.13966487796E+03  0.17517752642E+03  0.91090101913E+02 0.  0.
        -24    2    1    2    0    0  0.86719347893E+02  0.42988905991E+01  0.20381581608E+02  0.11903832461E+03  0.78841537902E+02 0.  0.
         13    1    4    4    0    0  0.30361797823E+02 -0.36619234237E+02  0.10237842414E+02  0.48658200752E+02  0.00000000000E+00 0. -1.
        -14    1    4    4    0    0  0.56357550070E+02  0.40918124836E+02  0.10143739193E+02  0.70380123862E+02  0.00000000000E+00 0.  1.
        -11    1    3    3    0    0 -0.54113833196E+02 -0.56200010468E+02 -0.12006816181E+03  0.14318907640E+03  0.00000000000E+00 0.  1.
         11    1    3    3    0    0  0.21206158414E+02  0.13766934895E+02 -0.19596716146E+02  0.31988450021E+02  0.00000000000E+00 0. -1.
         -1    1    1    2    0  502 -0.53811673111E+02  0.38134184973E+02 -0.17397589515E+03  0.18605785207E+03  0.00000000000E+00 0.  1.
<scales pt_clust_5="13000.00000" pt_clust_6="13000.00000" pt_clust_7="13000.00000" pt_clust_8="13000.00000" pt_clust_9="65.95390"></scales>
<clustering>
<clus scale="   65.954">  1  9  2 -1</clus>
<clus scale="   78.842">  5  6 -1 -1</clus>
<clus scale="   91.090">  7  8 -1 -1</clus>
<clus scale="   96.647">  1  5  2 -1</clus>
<clus scale="   65.954">  1  5  2 -1</clus>
</clustering>
</event>
<event>
 9    1  0.6270443E-005  0.1570794E+03  0.7546771E-02  0.1193293E+00
         21   -1    0    0  501  502  0.00000000000E+00  0.00000000000E+00  0.21762368509E+03  0.21762368509E+03  0.00000000000E+00 0. -1.
          1   -1    0    0  502    0 -0.00000000000E+00 -0.00000000000E+00 -0.24357125016E+03  0.24357125016E+03  0.00000000000E+00 0. -1.
         23    2    1    2    0    0 -0.50645659471E+02 -0.14378473706E+03 -0.14120835884E+03  0.22648574045E+03  0.90094154016E+02 0.  0.
        -24    2    1    2    0    0 -0.11398452475E+02  0.79376861222E+02  0.67542650796E+02  0.13334417388E+03  0.82389612294E+02 0.  0.
         13    1    4    4    0    0 -0.84082465376E+01  0.79071587564E+02  0.15251615009E+02  0.80966822404E+02  0.00000000000E+00 0. -1.
        -14    1    4    4    0    0 -0.29902059370E+01  0.30527365744E+00  0.52291035788E+02  0.52377351473E+02  0.00000000000E+00 0.  1.
        -13    1    3    3    0    0  0.12140189221E+02 -0.99494925682E+02 -0.81010577497E+02  0.12887722102E+03  0.00000000000E+00 0. -1.
         13    1    3    3    0    0 -0.62785848692E+02 -0.44289811376E+02 -0.60197781347E+02  0.97608519438E+02  0.00000000000E+00 0.  1.
          2    1    1    2  501    0  0.62044111946E+02  0.64407875836E+02  0.47718142981E+02  0.10136502092E+03  0.00000000000E+00 0. -1.
<scales pt_clust_5="13000.00000" pt_clust_6="13000.00000" pt_clust_7="13000.00000" pt_clust_8="13000.00000" pt_clust_9="89.43068"></scales>
<clustering>
<clus scale="   82.390">  5  6 -1 -1</clus>
<clus scale="   89.431">  1  9  2 -1</clus>
<clus scale="   90.094">  7  8 -1 -1</clus>
<clus scale="  152.791">  1  5  2 -1</clus>
<clus scale="   89.431">  1  5  2 -1</clus>
</clustering>
</event>
<event>
 9    1  0.6270443E-005  0.1308625E+03  0.7546771E-02  0.1243640E+00
         21   -1    0    0  501  502  0.00000000000E+00  0.00000000000E+00  0.29444940393E+03  0.29444940393E+03  0.00000000000E+00 0. -1.
         -2   -1    0    0    0  501 -0.00000000000E+00 -0.00000000000E+00 -0.13439665970E+03  0.13439665970E+03  0.00000000000E+00 0.  1.
         23    2    1    2    0    0  0.25339625037E+02 -0.51176149689E+01 -0.54754300979E+02  0.10664805344E+03  0.87792296056E+02 0.  0.
        -24    2    1    2    0    0 -0.37409980201E+02 -0.97319104835E+02  0.87629582593E+02  0.15845100400E+03  0.80976923499E+02 0.  0.
         11    1    4    4    0    0 -0.12804277556E+02 -0.10378331898E+03  0.80685108245E+02  0.13207957266E+03  0.00000000000E+00 0. -1.
        -12    1    4    4    0    0 -0.24605702646E+02  0.64642141403E+01  0.69444743486E+01  0.26371431344E+02  0.00000000000E+00 0.  1.
        -13    1    3    3    0    0  0.58346063003E+02 -0.22792577121E+01 -0.35092079818E+02  0.68124240543E+02  0.00000000000E+00 0. -1.
         13    1    3    3    0    0 -0.33006437966E+02 -0.28383572568E+01 -0.19662221161E+02  0.38523812897E+02  0.00000000000E+00 0.  1.
         -1    1    1    2    0  502  0.12070355164E+02  0.10243671980E+03  0.12717746262E+03  0.16374700619E+03  0.00000000000E+00 0.  1.
<scales pt_clust_5="13000.00000" pt_clust_6="13000.00000" pt_clust_7="13000.00000" pt_clust_8="13000.00000" pt_clust_9="102.79954"></scales>
<clustering>
<clus scale="   80.977">  5  6 -1 -1</clus>
<clus scale="   87.792">  7  8 -1 -1</clus>
<clus scale="   91.519">  2  7  1 -1</clus>
<clus scale="  102.800">  1  9  2 -1</clus>
<clus scale="  102.800">  1  5  2 -1</clus>
</clustering>
</event>
<event>
 9    1  0.6270443E-005  0.1017836E+03  0.7546771E-02  0.1283237E+00
          1   -1    0    0  502    0 -0.00000000000E+00  0.00000000000E+00  0.72591710116E+02  0.72591710116E+02  0.00000000000E+00 0. -1.
         21   -1    0    0  501  502  0.00000000000E+00 -0.00000000000E+00 -0.41656049551E+03  0.41656049551E+03  0.00000000000E+00 0.  1.
         23    2    1    2    0    0 -0.35990933553E+02  0.25524637714E+00  0.14124544039E+02  0.10126649116E+03  0.93594802414E+02 0.  0.
        -24    2    1    2    0    0  0.60540668246E+02  0.33633322078E+02 -0.23320942420E+03  0.25617727005E+03  0.80273191584E+02 0.  0.
         13    1    4    4    0    0  0.36908122899E+02 -0.16578425792E+02 -0.47719192294E+02  0.62563368283E+02  0.00000000000E+00 0. -1.
        -14    1    4    4    0    0  0.23632545347E+02  0.50211747870E+02 -0.18549023191E+03  0.19361390176E+03  0.00000000000E+00 0.  1.
        -11    1    3    3    0    0 -0.51085449638E+02 -0.29480835172E+02  0.27823037864E+02  0.65214754797E+02  0.00000000000E+00 0. -1.
         11    1    3    3    0    0  0.15094516085E+02  0.29736081549E+02 -0.13698493826E+02  0.36051736364E+02  0.00000000000E+00 0.  1.
          2    1    1    2  501    0 -0.24549734692E+02 -0.33888568455E+02 -0.12488390523E+03  0.13170844442E+03  0.00000000000E+00 0. -1.
<scales pt_clust_5="13000.00000" pt_clust_6="13000.00000" pt_clust_7="13000.00000" pt_clust_8="13000.00000" pt_clust_9="41.84644"></scales>
<clustering>
<clus scale="   41.846">  2  9  1 -1</clus>
<clus scale="   80.273">  5  6 -1 -1</clus>
<clus scale="   89.687">  2  5  1 -1</clus>
<clus scale="   93.595">  7  8 -1 -1</clus>
<clus scale="   41.846">  2  5  1 -1</clus>
</clustering>
</event>
<event>
 9    1  0.6270443E-005  0.1593914E+03  0.7546771E-02  0.1214513E+00
         -2   -1    0    0    0  501 -0.00000000000E+00  0.00000000000E+00  0.76010713291E+02  0.76010713291E+02  0.00000000000E+00 0.  1.
         21   -1    0    0  501  502  0.00000000000E+00 -0.00000000000E+00 -0.58882441366E+03  0.58882441366E+03  0.00000000000E+00 0.  1.
        -24    2    1    2    0    0  0.39267515230E+02 -0.20195857232E+02 -0.15033137367E+03  0.17651804481E+03  0.81297526609E+02 0.  0.
         23    2    1    2    0    0  0.27377437829E+02 -0.10056413129E+03 -0.52735877798E+02  0.14924867134E+03  0.92905459930E+02 0.  0.
         13    1    3    3    0    0 -0.23877228677E+02  0.48031075385E+01 -0.34189050937E+02  0.41977173503E+02  0.00000000000E+00 0. -1.
        -14    1    3    3    0    0  0.63144743906E+02 -0.24998964771E+02 -0.11614232274E+03  0.13454087131E+03  0.00000000000E+00 0.  1.
        -13    1    4    4    0    0 -0.92406173678E+01 -0.50693055786E+02  0.18633939923E+02  0.54794147783E+02  0.00000000000E+00 0.  1.
         13    1    4    4    0    0  0.36618055197E+02 -0.49871075506E+02 -0.71369817721E+02  0.94454523555E+02  0.00000000000E+00 0. -1.
         -1    1    1    2    0  502 -0.66644953059E+02  0.12075998852E+03 -0.30974644890E+03  0.33906841080E+03  0.00000000000E+00 0.  1.
<scales pt_clust_5="13000.00000" pt_clust_6="13000.00000" pt_clust_7="13000.00000" pt_clust_8="13000.00000" pt_clust_9="129.51517"></scales>
<clustering>
<clus scale="   81.298">  5  6 -1 -1</clus>
<clus scale="   92.515">  1  5  2 -1</clus>
<clus scale="   92.905">  7  8 -1 -1</clus>
<clus scale="  129.515">  2  9  1 -1</clus>
<clus scale="  129.515">  2  5  1 -1</clus>
</clustering>
</event>
<event>
 9    1  0.6270443E-005  0.1229366E+03  0.7546771E-02  0.1254028E+00
          1   -1    0    0  502    0 -0.00000000000E+00  0.00000000000E+00  0.13688461447E+03  0.13688461447E+03  0.00000000000E+00 0. -1.
         21   -1    0    0  501  502  0.00000000000E+00 -0.00000000000E+00 -0.25301306903E+03  0.25301306903E+03  0.00000000000E+00 0. -1.
         23    2    1    2    0    0  0.38892807715E+02  0.18382333961E+02 -0.64628254605E+02  0.11052669285E+03  0.78668785716E+02 0.  0.
        -24    2    1    2    0    0  0.51378864301E+02 -0.54102725377E+02  0.64988151862E+02  0.12773175680E+03  0.80777776791E+02 0.  0.
         11    1    4    4    0    0  0.53313733291E+02 -0.55003282270E+02  0.81054808244E+02  0.11152397571E+03  0.00000000000E+00 0. -1.
        -12    1    4    4    0    0 -0.19348689904E+01  0.90055689322E+00 -0.16066656382E+02  0.16207781095E+02  0.00000000000E+00 0.  1.
        -11    1    3    3    0    0  0.10913431196E+02  0.43734575475E+02 -0.13666164660E+02  0.47101806005E+02  0.00000000000E+00 0.  1.
         11    1    3    3    0    0  0.27979376519E+02 -0.25352241514E+02 -0.50962089945E+02  0.63424886849E+02  0.00000000000E+00 0. -1.
          2    1    1    2  501    0 -0.90271672015E+02  0.35720391416E+02 -0.11648835182E+03  0.15163923384E+03  0.00000000000E+00 0. -1.
<scales pt_clust_5="13000.00000" pt_clust_6="13000.00000" pt_clust_7="13000.00000" pt_clust_8="13000.00000" pt_clust_9="92.67341"></scales>
<clustering>
<clus scale="   78.669">  7  8 -1 -1</clus>
<clus scale="   80.778">  5  6 -1 -1</clus>
<clus scale="   89.662">  1  7  2 -1</clus>
<clus scale="   92.673">  2  9  1 -1</clus>
<clus scale="   92.673">  2  5  1 -1</clus>
</clustering>
</event>
<event>
 9    1  0.6270443E-005  0.1232105E+03  0.7546771E-02  0.1242759E+00
          1   -1    0    0  502    0 -0.00000000000E+00  0.00000000000E+00  0.16418258350E+03  0.16418258350E+03  0.00000000000E+00 0. -1.
         21   -1    0    0  501  502  0.00000000000E+00 -0.00000000000E+00 -0.20116620931E+03  0.20116620931E+03  0.00000000000E+00 0. -1.
         23    2    1    2    0    0 -0.74259413725E+02 -0.80279128662E+02  0.77521756636E+02  0.16328177690E+03  0.93231523055E+02 0.  0.
        -24    2    1    2    0    0  0.75227221541E+01  0.32110789333E+02 -0.53218079745E+02  0.99450699519E+02  0.77269550813E+02 0.  0.
         13    1    4    4    0    0 -0.73861727681E+01 -0.21724834969E+02 -0.32683550403E+02  0.39934176711E+02  0.00000000000E+00 0. -1.
        -14    1    4    4    0    0  0.14908894922E+02  0.53835624303E+02 -0.20534529342E+02  0.59516522808E+02  0.00000000000E+00 0.  1.
        -11    1    3    3    0    0  0.20002672703E+02 -0.47328412567E+01  0.16270191239E+01  0.20619260240E+02  0.00000000000E+00 0.  1.
         11    1    3    3    0    0 -0.94262086428E+02 -0.75546287405E+02  0.75894737513E+02  0.14266251666E+03  0.00000000000E+00 0. -1.
          2    1    1    2  501    0  0.66736691571E+02  0.48168339328E+02 -0.61287302702E+02  0.10261631638E+03  0.00000000000E+00 0. -1.
<scales pt_clust_5="13000.00000" pt_clust_6="13000.00000" pt_clust_7="13000.00000" pt_clust_8="13000.00000" pt_clust_9="82.30416"></scales>
<clustering>
<clus scale="   77.270">  5  6 -1 -1</clus>
<clus scale="   82.304">  2  9  1 -1</clus>
<clus scale="   93.232">  7  8 -1 -1</clus>
<clus scale="  111.621">  2  5  1 -1</clus>
<clus scale="   82.304">  2  5  1 -1</clus>
</clustering>
</event>
<event>
 9    1  0.6270443E-005  0.1782687E+03  0.7546771E-02  0.1197943E+00
         21   -1    0    0  501  502  0.00000000000E+00  0.00000000000E+00  0.91106815911E+03  0.91106815911E+03  0.00000000000E+00 0. -1.
          1   -1    0    0  502    0 -0.00000000000E+00 -0.00000000000E+00 -0.20492933805E+03  0.20492933805E+03  0.00000000000E+00 0. -1.
        -24    2    1    2    0    0  0.29291156649E+02 -0.54065906887E+02 -0.16005729708E+03  0.18582894903E+03  0.71644719311E+02 0.  0.
         23    2    1    2    0    0 -0.87692880340E+02  0.16776920241E+03  0.58509010171E+03  0.62136473788E+03  0.89034621514E+02 0.  0.
         13    1    3    3    0    0  0.40210218578E+02 -0.41186352496E+02 -0.55643162059E+02  0.80058346185E+02  0.00000000000E+00 0. -1.
        -14    1    3    3    0    0 -0.10919061928E+02 -0.12879554391E+02 -0.10441413502E+03  0.10577060285E+03  0.00000000000E+00 0.  1.
        -11    1    4    4    0    0 -0.56688516516E+02  0.28932940510E+02  0.13343552679E+03  0.14783687889E+03  0.00000000000E+00 0.  1.
         11    1    4    4    0    0 -0.31004363824E+02  0.13883626190E+03  0.45165457492E+03  0.47352785899E+03  0.00000000000E+00 0. -1.
          2    1    1    2  501    0  0.58401723690E+02 -0.11370329553E+03  0.28110601643E+03  0.30880381024E+03  0.00000000000E+00 0. -1.
<scales pt_clust_5="13000.00000" pt_clust_6="13000.00000" pt_clust_7="13000.00000" pt_clust_8="13000.00000" pt_clust_9="154.44280"></scales>
<clustering>
<clus scale="   71.645">  5  6 -1 -1</clus>
<clus scale="   89.035">  7  8 -1 -1</clus>
<clus scale="   94.414">  2  5  1 -1</clus>
<clus scale="  154.443">  1  9  2 -1</clus>
<clus scale="  154.443">  1  5  2 -1</clus>
</clustering>
</event>
<event>
 9    1  0.6270443E-005  0.1093761E+03  0.7546771E-02  0.1269273E+00
         21   -1    0    0  501  502  0.00000000000E+00  0.00000000000E+00  0.48481213090E+03  0.48481213090E+03  0.00000000000E+00 0. -1.
          3   -1    0    0  502    0 -0.00000000000E+00 -0.00000000000E+00 -0.70108200334E+02  0.70108200334E+02  0.00000000000E+00 0. -1.
         23    2    1    2    0    0 -0.38880953166E+01  0.29892522936E+02  0.40145759761E+02  0.10812960394E+03  0.95768726670E+02 0.  0.
        -24    2    1    2    0    0  0.71931366147E+02 -0.95365947339E+02  0.17118528438E+03  0.22256497735E+03  0.77213873144E+02 0.  0.
         13    1    4    4    0    0  0.27838324933E+02 -0.39987408556E+02  0.13404426116E+03  0.14262478441E+03  0.00000000000E+00 0. -1.
        -14    1    4    4    0    0  0.44093041213E+02 -0.55378538782E+02  0.37141023221E+02  0.79940192938E+02  0.00000000000E+00 0.  1.
        -13    1    3    3    0    0  0.34145107925E+02 -0.85917153345E+01 -0.75405572123E+01  0.36007859846E+02  0.00000000000E+00 0. -1.
         13    1    3    3    0    0 -0.38033203242E+02  0.38484238271E+02  0.47686316974E+02  0.72121744090E+02  0.00000000000E+00 0.  1.
          4    1    1    2  501    0 -0.68043270830E+02  0.65473424402E+02  0.20337288642E+03  0.22422574995E+03  0.00000000000E+00 0. -1.
<scales pt_clust_5="13000.00000" pt_clust_6="13000.00000" pt_clust_7="13000.00000" pt_clust_8="13000.00000" pt_clust_9="94.42805"></scales>
<clustering>
<clus scale="   77.214">  5  6 -1 -1</clus>
<clus scale="   94.428">  1  9  2 -1</clus>
<clus scale="   94.428">  1  5  2 -1</clus>
<clus scale="   95.769">  7  8 -1 -1</clus>
<clus scale="   94.428">  1  5  2 -1</clus>
</clustering>
</event>
<event>
 9    1  0.6270443E-005  0.1117303E+03  0.7546771E-02  0.1262189E+00
         21   -1    0    0  501  502  0.00000000000E+00  0.00000000000E+00  0.26528932152E+02  0.26528932152E+02  0.00000000000E+00 0. -1.
          1   -1    0    0  502    0 -0.00000000000E+00 -0.00000000000E+00 -0.77714012750E+03  0.77714012750E+03  0.00000000000E+00 0. -1.
         23    2    1    2    0    0 -0.49703750028E+02  0.22788261681E+02 -0.37233647015E+03  0.38730548976E+03  0.91549591813E+02 0.  0.
        -24    2    1    2    0    0  0.82185632510E+02  0.13790818748E+02 -0.32168224329E+03  0.34155841750E+03  0.78981149948E+02 0.  0.
         13    1    4    4    0    0  0.12367310446E+02  0.28658805529E+02 -0.18237443017E+03  0.18502624214E+03  0.00000000000E+00 0. -1.
        -14    1    4    4    0    0  0.69818322064E+02 -0.14867986781E+02 -0.13930781312E+03  0.15653217536E+03  0.00000000000E+00 0.  1.
        -11    1    3    3    0    0 -0.74992589767E+02  0.15197671485E+02 -0.22588553952E+03  0.23849346889E+03  0.00000000000E+00 0. -1.
         11    1    3    3    0    0  0.25288839739E+02  0.75905901962E+01 -0.14645093062E+03  0.14881202087E+03  0.00000000000E+00 0.  1.
          2    1    1    2  501    0 -0.32481882482E+02 -0.36579080430E+02 -0.56592481913E+02  0.74805152387E+02  0.00000000000E+00 0. -1.
<scales pt_clust_5="13000.00000" pt_clust_6="13000.00000" pt_clust_7="13000.00000" pt_clust_8="13000.00000" pt_clust_9="48.91934"></scales>
<clustering>
<clus scale="   48.919">  1  9  2 -1</clus>
<clus scale="   78.981">  5  6 -1 -1</clus>
<clus scale="   91.550">  7  8 -1 -1</clus>
<clus scale="  101.688">  1  5  2 -1</clus>
<clus scale="   48.919">  1  5  2 -1</clus>
</clustering>
</event>
<event>
 9    1  0.6270443E-005  0.1096097E+03  0.7546771E-02  0.1267301E+00
         21   -1    0    0  501  502  0.00000000000E+00  0.00000000000E+00  0.76758881980E+02  0.76758881980E+02  0.00000000000E+00 0. -1.
         -4   -1    0    0    0  501 -0.00000000000E+00 -0.00000000000E+00 -0.39125237096E+03  0.39125237096E+03  0.00000000000E+00 0.  1.
         23    2    1    2    0    0  0.55209899739E+02 -0.34433815259E+02 -0.30068395299E+03  0.32099509636E+03  0.91614363701E+02 0.  0.
        -24    2    1    2    0    0 -0.37892878278E+02 -0.13926740410E+01  0.27297406833E+02  0.89804293163E+02  0.76693238851E+02 0.  0.
         13    1    4    4    0    0 -0.16861712864E+02  0.33617676997E+02  0.31077603449E+02  0.48788144088E+02  0.00000000000E+00 0. -1.
        -14    1    4    4    0    0 -0.21031165415E+02 -0.35010351038E+02 -0.37801966157E+01  0.41016149075E+02  0.00000000000E+00 0.  1.
        -13    1    3    3    0    0  0.57192264472E+02  0.16247532172E+02 -0.13033178941E+03  0.14325261864E+03  0.00000000000E+00 0. -1.
         13    1    3    3    0    0 -0.19823647325E+01 -0.50681347431E+02 -0.17035216359E+03  0.17774247772E+03  0.00000000000E+00 0.  1.
         -3    1    1    2    0  502 -0.17317021461E+02  0.35826489300E+02 -0.41106942825E+02  0.57211863423E+02  0.00000000000E+00 0.  1.
<scales pt_clust_5="13000.00000" pt_clust_6="13000.00000" pt_clust_7="13000.00000" pt_clust_8="13000.00000" pt_clust_9="39.79219"></scales>
<clustering>
<clus scale="   39.792">  1  9  2 -1</clus>
<clus scale="   76.693">  5  6 -1 -1</clus>
<clus scale="   91.614">  7  8 -1 -1</clus>
<clus scale="   97.483">  1  5  2 -1</clus>
<clus scale="   39.792">  1  5  2 -1</clus>
</clustering>
</event>
<event>
 9    1  0.6270443E-005  0.8997210E+02  0.7546771E-02  0.1307058E+00
         21   -1    0    0  501  502  0.00000000000E+00  0.00000000000E+00  0.33607076738E+03  0.33607076738E+03  0.00000000000E+00 0.  1.
          1   -1    0    0  502    0 -0.00000000000E+00 -0.00000000000E+00 -0.48127507511E+02  0.48127507511E+02  0.00000000000E+00 0. -1.
         23    2    1    2    0    0 -0.14171513161E+02  0.13106791589E+02  0.28599922930E+02  0.93698149740E+02  0.87113534552E+02 0.  0.
        -24    2    1    2    0    0 -0.39855426646E+01 -0.44823880406E+02  0.20812383030E+03  0.22757882304E+03  0.80321399085E+02 0.  0.
         13    1    4    4    0    0  0.97565236922E+01 -0.43569392173E+02  0.43359568001E+02  0.62237720284E+02  0.00000000000E+00 0. -1.
        -14    1    4    4    0    0 -0.13742066357E+02 -0.12544882328E+01  0.16476426230E+03  0.16534110275E+03  0.00000000000E+00 0.  1.
        -11    1    3    3    0    0 -0.32409570488E+02 -0.23557319075E+01  0.51301657984E+02  0.60727175498E+02  0.00000000000E+00 0.  1.
         11    1    3    3    0    0  0.18238057328E+02  0.15462523497E+02 -0.22701735055E+02  0.32970974242E+02  0.00000000000E+00 0. -1.
          2    1    1    2  501    0  0.18157055825E+02  0.31717088817E+02  0.51219506639E+02  0.62921302113E+02  0.00000000000E+00 0. -1.
<scales pt_clust_5="13000.00000" pt_clust_6="13000.00000" pt_clust_7="13000.00000" pt_clust_8="13000.00000" pt_clust_9="36.54658"></scales>
<clustering>
<clus scale="   36.547">  1  9  2 -1</clus>
<clus scale="   80.321">  5  6 -1 -1</clus>
<clus scale="   83.413">  1  5  2 -1</clus>
<clus scale="   87.114">  7  8 -1 -1</clus>
<clus scale="   36.547">  1  5  2 -1</clus>
</clustering>
</event>
<event>
 9    1  0.6270443E-005  0.1688453E+03  0.7546771E-02  0.1180768E+00
         -2   -1    0    0    0  501 -0.00000000000E+00  0.00000000000E+00  0.13184429208E+03  0.13184429208E+03  0.00000000000E+00 0.  1.
         21   -1    0    0  501  502  0.00000000000E+00 -0.00000000000E+00 -0.40556475125E+03  0.40556475125E+03  0.00000000000E+00 0.  1.
        -24    2    1    2    0    0 -0.12378668817E+01  0.13540745375E+03  0.22600765651E+01  0.15735675805E+03  0.80120724608E+02 0.  0.
         23    2    1    2    0    0 -0.99558897055E+01 -0.16560415285E+03 -0.28860110121E+03  0.34546298786E+03  0.92359218178E+02 0.  0.
         11    1    3    3    0    0 -0.35955922192E+02  0.10431913526E+03 -0.35128689580E+01  0.11039769278E+03  0.00000000000E+00 0. -1.
        -12    1    3    3    0    0  0.34718055310E+02  0.31088318488E+02  0.57729455230E+01  0.46959065269E+02  0.00000000000E+00 0.  1.
        -11    1    4    4    0    0  0.22028546436E+02 -0.10231246232E+03 -0.10327834075E+03  0.14703575236E+03  0.00000000000E+00 0.  1.
         11    1    4    4    0    0 -0.31984436141E+02 -0.63291690535E+02 -0.18532276046E+03  0.19842723550E+03  0.00000000000E+00 0. -1.
         -1    1    1    2    0  502  0.11193756587E+02  0.30196699102E+02  0.12620565475E+02  0.34589297422E+02  0.00000000000E+00 0.  1.
<scales pt_clust_5="13000.00000" pt_clust_6="13000.00000" pt_clust_7="13000.00000" pt_clust_8="13000.00000" pt_clust_9="32.20469"></scales>
<clustering>
<clus scale="   32.205">  2  9  1 -1</clus>
<clus scale="   80.121">  5  6 -1 -1</clus>
<clus scale="   92.359">  7  8 -1 -1</clus>
<clus scale="  162.474">  1  5  2 -1</clus>
<clus scale="   32.205">  2  5  1 -1</clus>
</clustering>
</event>
<event>
 9    1  0.6270443E-005  0.1200676E+03  0.7546771E-02  0.1252846E+00
          1   -1    0    0  502    0 -0.00000000000E+00  0.00000000000E+00  0.33576074220E+03  0.33576074220E+03  0.00000000000E+00 0. -1.
         21   -1    0    0  501  502  0.00000000000E+00 -0.00000000000E+00 -0.75922880824E+02  0.75922880824E+02  0.00000000000E+00 0. -1.
        -24    2    1    2    0    0 -0.43589176023E+02  0.38453504926E+02  0.12445583436E+03  0.15873855412E+03  0.79561206314E+02 0.  0.
         23    2    1    2    0    0 -0.55572567183E+02  0.10094399347E+00  0.59437101663E+02  0.12222732514E+03  0.91205424973E+02 0.  0.
         13    1    3    3    0    0 -0.50354899559E+02  0.57168592475E+02  0.11132390829E+03  0.13489579842E+03  0.00000000000E+00 0. -1.
        -14    1    3    3    0    0  0.67657235360E+01 -0.18715087549E+02  0.13131926073E+02  0.23842755699E+02  0.00000000000E+00 0.  1.
        -13    1    4    4    0    0  0.99495859442E+01  0.27747219022E+02  0.37715329407E+02  0.47868032090E+02  0.00000000000E+00 0.  1.
         13    1    4    4    0    0 -0.65522153127E+02 -0.27646275028E+02  0.21721772256E+02  0.74359293053E+02  0.00000000000E+00 0. -1.
          2    1    1    2  501    0  0.99161743206E+02 -0.38554448919E+02  0.75944925349E+02  0.13071774376E+03  0.00000000000E+00 0. -1.
<scales pt_clust_5="13000.00000" pt_clust_6="13000.00000" pt_clust_7="13000.00000" pt_clust_8="13000.00000" pt_clust_9="78.08845"></scales>
<clustering>
<clus scale="   79.561">  5  6 -1 -1</clus>
<clus scale="   91.205">  7  8 -1 -1</clus>
<clus scale="   98.533">  1  5  2 -1</clus>
<clus scale="   78.088">  2  9  1 -1</clus>
<clus scale="   78.088">  2  5  1 -1</clus>
</clustering>
</event>
<event>
 9    1  0.6270443E-005  0.1160316E+03  0.7546771E-02  0.1253145E+00
         -2   -1    0    0    0  501 -0.00000000000E+00  0.00000000000E+00  0.38093522910E+03  0.38093522910E+03  0.00000000000E+00 0.  1.
         21   -1    0    0  501  502  0.00000000000E+00 -0.00000000000E+00 -0.10159085025E+03  0.10159085025E+03  0.00000000000E+00 0.  1.
         23    2    1    2    0    0 -0.59171674246E+02  0.41327903450E+02  0.30949122640E+03  0.33029264777E+03  0.89995173868E+02 0.  0.
        -24    2    1    2    0    0  0.50213495686E+02 -0.65493632121E+02 -0.33427023062E+01  0.11504884327E+03  0.80089023483E+02 0.  0.
         13    1    4    4    0    0  0.12065561999E+02  0.18820730344E+02  0.12598463417E+01  0.22391625440E+02  0.00000000000E+00 0. -1.
        -14    1    4    4    0    0  0.38147933687E+02 -0.84314362465E+02 -0.46025486479E+01  0.92657217833E+02  0.00000000000E+00 0.  1.
        -13    1    3    3    0    0 -0.67458044759E+02 -0.51272594667E+01  0.16664207000E+03  0.17985120541E+03  0.00000000000E+00 0.  1.
         13    1    3    3    0    0  0.82863705133E+01  0.46455162916E+02  0.14284915640E+03  0.15044144237E+03  0.00000000000E+00 0. -1.
         -1    1    1    2    0  502  0.89581785601E+01  0.24165728671E+02 -0.26804145239E+02  0.37184588304E+02  0.00000000000E+00 0.  1.
<scales pt_clust_5="13000.00000" pt_clust_6="13000.00000" pt_clust_7="13000.00000" pt_clust_8="13000.00000" pt_clust_9="25.77269"></scales>
<clustering>
<clus scale="   25.773">  2  9  1 -1</clus>
<clus scale="   80.089">  5  6 -1 -1</clus>
<clus scale="   89.995">  7  8 -1 -1</clus>
<clus scale="  108.529">  2  5  1 -1</clus>
<clus scale="   25.773">  2  5  1 -1</clus>
</clustering>
</event>
<event>
 9    1  0.6270443E-005  0.1275734E+03  0.7546771E-02  0.1233544E+00
         21   -1    0    0  501  502  0.00000000000E+00  0.00000000000E+00  0.18636374228E+03  0.18636374228E+03  0.00000000000E+00 0. -1.
          3   -1    0    0  502    0 -0.00000000000E+00 -0.00000000000E+00 -0.10814397763E+03  0.10814397763E+03  0.00000000000E+00 0. -1.
         23    2    1    2    0    0  0.10954159917E+02 -0.81650357382E+02  0.65946187064E+01  0.12124234215E+03  0.88709875737E+02 0.  0.
        -24    2    1    2    0    0 -0.91079331434E+01  0.10538292786E+03  0.51058514237E+02  0.14180699582E+03  0.79459022498E+02 0.  0.
         11    1    4    4    0    0 -0.63919229628E+01  0.11803601413E+03  0.40026896313E+02  0.12480188195E+03  0.00000000000E+00 0. -1.
        -12    1    4    4    0    0 -0.27160101806E+01 -0.12653086271E+02  0.11031617924E+02  0.17005113863E+02  0.00000000000E+00 0.  1.
        -13    1    3    3    0    0 -0.31605097664E+02 -0.35733503616E+02 -0.21856802638E+02  0.52473662923E+02  0.00000000000E+00 0.  1.
         13    1    3    3    0    0  0.42559257581E+02 -0.45916853766E+02  0.28451421344E+02  0.68768679223E+02  0.00000000000E+00 0. -1.
          4    1    1    2  501    0 -0.18462267734E+01 -0.23732570478E+02  0.20566631708E+02  0.31458381945E+02  0.00000000000E+00 0. -1.
<scales pt_clust_5="13000.00000" pt_clust_6="13000.00000" pt_clust_7="13000.00000" pt_clust_8="13000.00000" pt_clust_9="23.80427"></scales>
<clustering>
<clus scale="   23.804">  1  9  2 -1</clus>
<clus scale="   79.459">  5  6 -1 -1</clus>
<clus scale="   88.710">  7  8 -1 -1</clus>
<clus scale="  121.323">  1  5  2 -1</clus>
<clus scale="   23.804">  1  5  2 -1</clus>
</clustering>
</event>
<event>
 9    1  0.6270443E-005  0.2334621E+03  0.7546771E-02  0.1150233E+00
          3   -1    0    0  502    0 -0.00000000000E+00  0.00000000000E+00  0.97997403666E+02  0.97997403666E+02  0.00000000000E+00 0. -1.
         21   -1    0    0  501  502  0.00000000000E+00 -0.00000000000E+00 -0.19801869708E+04  0.19801869708E+04  0.00000000000E+00 0.  1.
        -24    2    1    2    0    0  0.87145104763E+02 -0.35904474163E+02 -0.26275050350E+01  0.12430310055E+03  0.80999731332E+02 0.  0.
         23    2    1    2    0    0 -0.19271039354E+03  0.20279574592E+03 -0.72199041878E+03  0.77958623594E+03  0.90670414808E+02 0.  0.
         13    1    3    3    0    0  0.67450600003E+02 -0.56140791646E+02  0.17680719513E+02  0.89520834278E+02  0.00000000000E+00 0. -1.
        -14    1    3    3    0    0  0.19694504760E+02  0.20236317483E+02 -0.20308224548E+02  0.34782266276E+02  0.00000000000E+00 0.  1.
        -11    1    4    4    0    0 -0.15952388784E+03  0.18856726719E+03 -0.68374432385E+03  0.72698816046E+03  0.00000000000E+00 0.  1.
         11    1    4    4    0    0 -0.33186505699E+02  0.14228478721E+02 -0.38246094927E+02  0.52598075482E+02  0.00000000000E+00 0. -1.
          4    1    1    2  501    0  0.10556528878E+03 -0.16689127175E+03 -0.11575716434E+04  0.11742950380E+04  0.00000000000E+00 0. -1.
<scales pt_clust_5="13000.00000" pt_clust_6="13000.00000" pt_clust_7="13000.00000" pt_clust_8="13000.00000" pt_clust_9="215.13581"></scales>
<clustering>
<clus scale="   81.000">  5  6 -1 -1</clus>
<clus scale="   90.670">  7  8 -1 -1</clus>
<clus scale="  124.275">  1  5  2 -1</clus>
<clus scale="  215.136">  2  9  1 -1</clus>
<clus scale="  215.136">  2  5  1 -1</clus>
</clustering>
</event>
<event>
 9    1  0.6270443E-005  0.2149796E+03  0.7546771E-02  0.1137973E+00
         21   -1    0    0  501  502  0.00000000000E+00  0.00000000000E+00  0.29846456541E+03  0.29846456541E+03  0.00000000000E+00 0.  1.
          1   -1    0    0  502    0 -0.00000000000E+00 -0.00000000000E+00 -0.52816759532E+03  0.52816759532E+03  0.00000000000E+00 0. -1.
         23    2    1    2    0    0  0.18924640355E+03  0.36728603337E+02 -0.28575885779E+03  0.35669010910E+03  0.91687063223E+02 0.  0.
        -24    2    1    2    0    0 -0.14107221264E+03  0.17474521924E+03  0.81678041731E+02  0.25154235350E+03  0.78517464795E+02 0.  0.
         11    1    4    4    0    0 -0.29805495621E+02 -0.24022532946E+00  0.38534111195E+01  0.30054518041E+02  0.00000000000E+00 0. -1.
        -12    1    4    4    0    0 -0.11126671702E+03  0.17498544457E+03  0.77824630611E+02  0.22148783546E+03  0.00000000000E+00 0.  1.
        -11    1    3    3    0    0  0.89945396718E+01 -0.22097430805E+02 -0.31201461751E+02  0.39277594217E+02  0.00000000000E+00 0.  1.
         11    1    3    3    0    0  0.18025186387E+03  0.58826034141E+02 -0.25455739604E+03  0.31741251488E+03  0.00000000000E+00 0. -1.
          2    1    1    2  501    0 -0.48174190908E+02 -0.21147382258E+03 -0.25622213849E+02  0.21839969814E+03  0.00000000000E+00 0. -1.
<scales pt_clust_5="13000.00000" pt_clust_6="13000.00000" pt_clust_7="13000.00000" pt_clust_8="13000.00000" pt_clust_9="200.12816"></scales>
<clustering>
<clus scale="   78.517">  5  6 -1 -1</clus>
<clus scale="   91.687">  7  8 -1 -1</clus>
<clus scale="  213.471">  2  7  1 -1</clus>
<clus scale="  200.128">  1  9  2 -1</clus>
<clus scale="  200.128">  1  5  2 -1</clus>
</clustering>
</event>
<event>
 9    1  0.6270443E-005  0.9071591E+02  0.7546771E-02  0.1306455E+00
         21   -1    0    0  501  502  0.00000000000E+00  0.00000000000E+00  0.19883392621E+03  0.19883392621E+03  0.00000000000E+00 0.  1.
          1   -1    0    0  502    0 -0.00000000000E+00 -0.00000000000E+00 -0.11527347483E+03  0.11527347483E+03  0.00000000000E+00 0. -1.
        -24    2    1    2    0    0  0.12190013019E+01  0.18109033190E+02 -0.16058634449E+02  0.85576237275E+02  0.82073074748E+02 0.  0.
         23    2    1    2    0    0  0.22444394997E+02  0.48501804402E+02  0.11539534732E+03  0.15610292041E+03  0.90530987404E+02 0.  0.
         11    1    3    3    0    0 -0.36305195009E+02  0.19992781207E+02 -0.22953089420E+02  0.47377450321E+02  0.00000000000E+00 0. -1.
        -12    1    3    3    0    0  0.37524196311E+02 -0.18837480173E+01  0.68944549706E+01  0.38198786954E+02  0.00000000000E+00 0.  1.
        -11    1    4    4    0    0 -0.35316556622E+02  0.21707363147E+02  0.45154987568E+02  0.61297974588E+02  0.00000000000E+00 0. -1.
         11    1    4    4    0    0  0.57760951618E+02  0.26794441255E+02  0.70240359752E+02  0.94804945821E+02  0.00000000000E+00 0.  1.
          2    1    1    2  501    0 -0.23663396299E+02 -0.66610837592E+02 -0.15776261496E+02  0.72428243358E+02  0.00000000000E+00 0. -1.
<scales pt_clust_5="13000.00000" pt_clust_6="13000.00000" pt_clust_7="13000.00000" pt_clust_8="13000.00000" pt_clust_9="70.68921"></scales>
<clustering>
<clus scale="   70.689">  1  9  2 -1</clus>
<clus scale="   82.073">  5  6 -1 -1</clus>
<clus scale="   82.277">  2  5  1 -1</clus>
<clus scale="   90.531">  7  8 -1 -1</clus>
<clus scale="   70.689">  1  5  2 -1</clus>
</clustering>
</event>
<event>
 9    1  0.6270443E-005  0.1302270E+03  0.7546771E-02  0.1230645E+00
         21   -1    0    0  501  502  0.00000000000E+00  0.00000000000E+00  0.74247890096E+03  0.74247890096E+03  0.00000000000E+00 0. -1.
         -2   -1    0    0    0  501 -0.00000000000E+00 -0.00000000000E+00 -0.11588792834E+03  0.11588792834E+03  0.00000000000E+00 0.  1.
        -24    2    1    2    0    0  0.69458891447E+02  0.54393809187E+02 -0.35345545835E+02  0.12358327229E+03  0.78995528352E+02 0.  0.
         23    2    1    2    0    0 -0.16808924561E+03  0.74947489961E+01  0.49786028829E+03  0.53358924869E+03  0.92425396460E+02 0.  0.
         11    1    3    3    0    0  0.28828514561E+02  0.12531474908E+01  0.21350135036E+02  0.35895430023E+02  0.00000000000E+00 0. -1.
        -12    1    3    3    0    0  0.40630376886E+02  0.53140661697E+02 -0.56695680871E+02  0.87687842264E+02  0.00000000000E+00 0.  1.
        -11    1    4    4    0    0 -0.73889559513E+02 -0.41534550083E+02  0.19409920188E+03  0.21180010866E+03  0.00000000000E+00 0.  1.
         11    1    4    4    0    0 -0.94199686098E+02  0.49029299079E+02  0.30376108640E+03  0.32178914003E+03  0.00000000000E+00 0. -1.
         -1    1    1    2    0  502  0.98630354164E+02 -0.61888558183E+02  0.16407623016E+03  0.20119430832E+03  0.00000000000E+00 0.  1.
<scales pt_clust_5="13000.00000" pt_clust_6="13000.00000" pt_clust_7="13000.00000" pt_clust_8="13000.00000" pt_clust_9="116.43943"></scales>
<clustering>
<clus scale="   78.996">  5  6 -1 -1</clus>
<clus scale="   92.425">  7  8 -1 -1</clus>
<clus scale="  116.439">  1  9  2 -1</clus>
<clus scale="  121.066">  2  5  1 -1</clus>
<clus scale="  116.439">  1  5  2 -1</clus>
</clustering>
</event>
<event>
 9    1  0.6270443E-005  0.1004432E+03  0.7546771E-02  0.1280888E+00
          1   -1    0    0  502    0 -0.00000000000E+00  0.00000000000E+00  0.67377049378E+03  0.67377049378E+03  0.00000000000E+00 0. -1.
         21   -1    0    0  501  502  0.00000000000E+00 -0.00000000000E+00 -0.23207540398E+02  0.23207540398E+02  0.00000000000E+00 0.  1.
        -24    2    1    2    0    0 -0.42953128247E+02  0.13126661202E+02  0.38520644285E+03  0.39645948315E+03  0.82333697230E+02 0.  0.
         23    2    1    2    0    0  0.61267380953E+02 -0.31039358267E+02  0.24238996321E+03  0.26611304473E+03  0.85709536103E+02 0.  0.
         11    1    3    3    0    0  0.11562264897E+02  0.32852046220E+02  0.11778647752E+03  0.12282750994E+03  0.00000000000E+00 0. -1.
        -12    1    3    3    0    0 -0.54515393144E+02 -0.19725385018E+02  0.26741996534E+03  0.27363197321E+03  0.00000000000E+00 0.  1.
        -13    1    4    4    0    0 -0.11222058949E+02 -0.19993838330E+02  0.12939896802E+03  0.13141453916E+03  0.00000000000E+00 0. -1.
         13    1    4    4    0    0  0.72489439902E+02 -0.11045519937E+02  0.11299099519E+03  0.13469850557E+03  0.00000000000E+00 0.  1.
          2    1    1    2  501    0 -0.18314252706E+02  0.17912697064E+02  0.22966547318E+02  0.34405506303E+02  0.00000000000E+00 0. -1.
<scales pt_clust_5="13000.00000" pt_clust_6="13000.00000" pt_clust_7="13000.00000" pt_clust_8="13000.00000" pt_clust_9="25.61790"></scales>
<clustering>
<clus scale="   25.618">  2  9  1 -1</clus>
<clus scale="   82.334">  5  6 -1 -1</clus>
<clus scale="   85.710">  7  8 -1 -1</clus>
<clus scale="   97.578">  1  5  2 -1</clus>
<clus scale="   25.618">  2  5  1 -1</clus>
</clustering>
</event>
<event>
 9    1  0.6270443E-005  0.2037577E+03  0.7546771E-02  0.1167468E+00
         21   -1    0    0  501  502  0.00000000000E+00  0.00000000000E+00  0.43532424879E+03  0.43532424879E+03  0.00000000000E+00 0. -1.
          1   -1    0    0  502    0 -0.00000000000E+00 -0.00000000000E+00 -0.20975890275E+03  0.20975890275E+03  0.00000000000E+00 0. -1.
         23    2    1    2    0    0  0.81434374536E+02  0.17192451998E+02  0.73417200627E+02  0.14500974591E+03  0.93330612865E+02 0.  0.
        -24    2    1    2    0    0 -0.72300052029E+02 -0.19893761052E+03 -0.44435090066E+02  0.23219338218E+03  0.84473777565E+02 0.  0.
         11    1    4    4    0    0 -0.88951208949E+02 -0.16204577961E+03 -0.49591098375E+02  0.19139077643E+03  0.00000000000E+00 0. -1.
        -12    1    4    4    0    0  0.16651156920E+02 -0.36891830901E+02  0.51560083090E+01  0.40802605747E+02  0.00000000000E+00 0.  1.
        -13    1    3    3    0    0 -0.30958490969E+01  0.33237426412E+02  0.41457314163E+02  0.53226118530E+02  0.00000000000E+00 0.  1.
         13    1    3    3    0    0  0.84530223633E+02 -0.16044974414E+02  0.31959886463E+02  0.91783627375E+02  0.00000000000E+00 0. -1.
          2    1    1    2  501    0 -0.91343225076E+01  0.18174515852E+03  0.19658323549E+03  0.26788002346E+03  0.00000000000E+00 0. -1.
<scales pt_clust_5="13000.00000" pt_clust_6="13000.00000" pt_clust_7="13000.00000" pt_clust_8="13000.00000" pt_clust_9="185.42214"></scales>
<clustering>
<clus scale="   84.474">  5  6 -1 -1</clus>
<clus scale="   93.331">  7  8 -1 -1</clus>
<clus scale="  125.051">  2  7  1 -1</clus>
<clus scale="  185.422">  1  9  2 -1</clus>
<clus scale="  185.422">  1  5  2 -1</clus>
</clustering>
</event>
<event>
 9    1  0.6270443E-005  0.1019153E+03  0.7546771E-02  0.1278021E+00
         21   -1    0    0  501  502  0.00000000000E+00  0.00000000000E+00  0.45328156630E+02  0.45328156630E+02  0.00000000000E+00 0.  1.
          1   -1    0    0  502    0 -0.00000000000E+00 -0.00000000000E+00 -0.45993199564E+03  0.45993199564E+03  0.00000000000E+00 0. -1.
        -24    2    1    2    0    0 -0.43964698886E+00  0.39900106511E+02 -0.31374955086E+03  0.32816486765E+03  0.87528212055E+02 0.  0.
         23    2    1    2    0    0  0.14967066414E+02 -0.66207900883E+02 -0.90518339852E+02  0.14531513693E+03  0.91188924527E+02 0.  0.
         13    1    3    3    0    0  0.23738149362E+02  0.59574337319E+02 -0.23108989993E+03  0.23982314995E+03  0.00000000000E+00 0. -1.
        -14    1    3    3    0    0 -0.24177796351E+02 -0.19674230808E+02 -0.82659650922E+02  0.88341717692E+02  0.00000000000E+00 0.  1.
        -11    1    4    4    0    0  0.39179560114E+02 -0.44488385565E+02 -0.12217345539E+02  0.60527001519E+02  0.00000000000E+00 0.  1.
         11    1    4    4    0    0 -0.24212493700E+02 -0.21719515318E+02 -0.78300994313E+02  0.84788135415E+02  0.00000000000E+00 0. -1.
          2    1    1    2  501    0 -0.14527419425E+02  0.26307794372E+02 -0.10335948300E+02  0.31780147689E+02  0.00000000000E+00 0. -1.
<scales pt_clust_5="13000.00000" pt_clust_6="13000.00000" pt_clust_7="13000.00000" pt_clust_8="13000.00000" pt_clust_9="30.05239"></scales>
<clustering>
<clus scale="   30.052">  1  9  2 -1</clus>
<clus scale="   87.528">  5  6 -1 -1</clus>
<clus scale="   91.189">  7  8 -1 -1</clus>
<clus scale="   98.653">  2  5  1 -1</clus>
<clus scale="   30.052">  1  5  2 -1</clus>
</clustering>
</event>
<event>
 9    1  0.6270443E-005  0.9645907E+02  0.7546771E-02  0.1294523E+00
          1   -1    0    0  502    0 -0.00000000000E+00  0.00000000000E+00  0.41565139919E+03  0.41565139919E+03  0.00000000000E+00 0. -1.
         21   -1    0    0  501  502  0.00000000000E+00 -0.00000000000E+00 -0.40637668376E+02  0.40637668376E+02  0.00000000000E+00 0.  1.
         23    2    1    2    0    0 -0.23537578467E+02 -0.38865645823E+02  0.15715549243E+03  0.18751007365E+03  0.91638544802E+02 0.  0.
        -24    2    1    2    0    0  0.12330614595E+02 -0.36734785380E+00  0.47616679228E+02  0.93716112941E+02  0.79769559879E+02 0.  0.
         11    1    4    4    0    0  0.25082423665E+02  0.87366220843E+01  0.65057837320E+02  0.70270753085E+02  0.00000000000E+00 0. -1.
        -12    1    4    4    0    0 -0.12751809070E+02 -0.91039699382E+01 -0.17441158092E+02  0.23445359856E+02  0.00000000000E+00 0.  1.
        -11    1    3    3    0    0 -0.57051790621E+02 -0.24504030949E+02  0.73256449104E+02  0.96030524737E+02  0.00000000000E+00 0. -1.
         11    1    3    3    0    0  0.33514212154E+02 -0.14361614874E+02  0.83899043328E+02  0.91479548914E+02  0.00000000000E+00 0.  1.
          2    1    1    2  501    0  0.11206963872E+02  0.39232993677E+02  0.17024155915E+03  0.17506288097E+03  0.00000000000E+00 0. -1.
<scales pt_clust_5="13000.00000" pt_clust_6="13000.00000" pt_clust_7="13000.00000" pt_clust_8="13000.00000" pt_clust_9="40.80227"></scales>
<clustering>
<clus scale="   40.802">  2  9  1 -1</clus>
<clus scale="   79.770">  5  6 -1 -1</clus>
<clus scale="   85.264">  2  5  1 -1</clus>
<clus scale="   91.639">  7  8 -1 -1</clus>
<clus scale="   40.802">  2  5  1 -1</clus>
</clustering>
</event>
<event>
 9    1  0.6270443E-005  0.8636959E+02  0.7546771E-02  0.1317129E+00
         21   -1    0    0  501  502  0.00000000000E+00  0.00000000000E+00  0.59626436670E+02  0.59626436670E+02  0.00000000000E+00 0. -1.
          1   -1    0    0  502    0 -0.00000000000E+00 -0.00000000000E+00 -0.38448075171E+03  0.38448075171E+03  0.00000000000E+00 0. -1.
         23    2    1    2    0    0 -0.11625462012E+02 -0.20274261083E+02 -0.27500745578E+03  0.28619479780E+03  0.75711059457E+02 0.  0.
        -24    2    1    2    0    0 -0.32924417385E+02  0.23051194938E+02 -0.61949242486E+02  0.11166446310E+03  0.83760783351E+02 0.  0.
         13    1    4    4    0    0 -0.56417971973E+02  0.35140824026E+02 -0.43395539976E+02  0.79379077625E+02  0.00000000000E+00 0. -1.
        -14    1    4    4    0    0  0.23493554588E+02 -0.12089629088E+02 -0.18553702510E+02  0.32285385479E+02  0.00000000000E+00 0.  1.
        -11    1    3    3    0    0  0.22676846628E+02 -0.34365332608E+02 -0.12211341714E+03  0.12886776984E+03  0.00000000000E+00 0.  1.
         11    1    3    3    0    0 -0.34302308640E+02  0.14091071526E+02 -0.15289403864E+03  0.15732702796E+03  0.00000000000E+00 0. -1.
          2    1    1    2  501    0  0.44549879397E+02 -0.27769338555E+01  0.12102383226E+02  0.46247927474E+02  0.00000000000E+00 0. -1.
<scales pt_clust_5="13000.00000" pt_clust_6="13000.00000" pt_clust_7="13000.00000" pt_clust_8="13000.00000" pt_clust_9="44.63634"></scales>
<clustering>
<clus scale="   44.636">  1  9  2 -1</clus>
<clus scale="   75.711">  7  8 -1 -1</clus>
<clus scale="   78.588">  2  7  1 -1</clus>
<clus scale="   83.761">  5  6 -1 -1</clus>
<clus scale="   44.636">  1  5  2 -1</clus>
</clustering>
</event>
<event>
 9    1  0.6270443E-005  0.1122717E+03  0.7546771E-02  0.1260344E+00
          1   -1    0    0  502    0 -0.00000000000E+00  0.00000000000E+00  0.15902849467E+03  0.15902849467E+03  0.00000000000E+00 0. -1.
         21   -1    0    0  501  502  0.00000000000E+00 -0.00000000000E+00 -0.25406456144E+03  0.25406456144E+03  0.00000000000E+00 0.  1.
        -24    2    1    2    0    0  0.50748848880E+01 -0.60402334083E+02  0.48769482649E+02  0.11276385601E+03  0.81627375091E+02 0.  0.
         23    2    1    2    0    0  0.39004577794E+02  0.89869848077E+02 -0.18813412928E+03  0.23121801140E+03  0.92029188390E+02 0.  0.
         11    1    3    3    0    0 -0.17876854441E+01 -0.78415885740E+02  0.50692756755E+02  0.93391662064E+02  0.00000000000E+00 0. -1.
        -12    1    3    3    0    0  0.68625703321E+01  0.18013551657E+02 -0.19232741066E+01  0.19372193942E+02  0.00000000000E+00 0.  1.
        -11    1    4    4    0    0  0.14439003795E+01  0.81537906656E+02 -0.17028521038E+03  0.18880563536E+03  0.00000000000E+00 0.  1.
         11    1    4    4    0    0  0.37560677415E+02  0.83319414214E+01 -0.17848918898E+02  0.42412376042E+02  0.00000000000E+00 0. -1.
          2    1    1    2  501    0 -0.44079462682E+02 -0.29467513994E+02  0.44328579857E+02  0.69111188700E+02  0.00000000000E+00 0. -1.
<scales pt_clust_5="13000.00000" pt_clust_6="13000.00000" pt_clust_7="13000.00000" pt_clust_8="13000.00000" pt_clust_9="53.02204"></scales>
<clustering>
<clus scale="   53.022">  2  9  1 -1</clus>
<clus scale="   81.627">  5  6 -1 -1</clus>
<clus scale="   92.029">  7  8 -1 -1</clus>
<clus scale="  103.916">  1  5  2 -1</clus>
<clus scale="   53.022">  2  5  1 -1</clus>
</clustering>
</event>
<event>
 9    1  0.6270443E-005  0.1004609E+03  0.7546771E-02  0.1282022E+00
         -4   -1    0    0    0  501 -0.00000000000E+00  0.00000000000E+00  0.75169856512E+03  0.75169856512E+03  0.00000000000E+00 0.  1.
         21   -1    0    0  501  502  0.00000000000E+00 -0.00000000000E+00 -0.24713617139E+02  0.24713617139E+02  0.00000000000E+00 0. -1.
         23    2    1    2    0    0 -0.20535907457E+02  0.33001543821E+02  0.41476089042E+03  0.42555046460E+03  0.86923968546E+02 0.  0.
        -24    2    1    2    0    0  0.22237892564E+02 -0.69397173239E+02  0.28570604146E+03  0.30579794316E+03  0.81079888982E+02 0.  0.
         13    1    4    4    0    0 -0.78702509260E+01 -0.20214772003E+02  0.95789337415E+01  0.23713578988E+02  0.00000000000E+00 0. -1.
        -14    1    4    4    0    0  0.30108143490E+02 -0.49182401236E+02  0.27612710772E+03  0.28208436418E+03  0.00000000000E+00 0.  1.
        -11    1    3    3    0    0  0.23453189253E+02 -0.14867556295E+02  0.84310579028E+02  0.88765815787E+02  0.00000000000E+00 0. -1.
         11    1    3    3    0    0 -0.43989096710E+02  0.47869100116E+02  0.33045031139E+03  0.33678464881E+03  0.00000000000E+00 0.  1.
         -3    1    1    2    0  502 -0.17019851068E+01  0.36395629418E+02  0.26518016102E+02  0.45063774498E+02  0.00000000000E+00 0.  1.
<scales pt_clust_5="13000.00000" pt_clust_6="13000.00000" pt_clust_7="13000.00000" pt_clust_8="13000.00000" pt_clust_9="36.43540"></scales>
<clustering>
<clus scale="   36.435">  2  9  1 -1</clus>
<clus scale="   81.080">  5  6 -1 -1</clus>
<clus scale="   86.924">  7  8 -1 -1</clus>
<clus scale="   95.449">  2  5  1 -1</clus>
<clus scale="   36.435">  2  5  1 -1</clus>
</clustering>
</event>
<event>
 9    1  0.6442264E-005  0.9783949E+02  0.7546771E-02  0.1294842E+00
         21   -1    0    0  501  502  0.00000000000E+00  0.00000000000E+00  0.93286155696E+02  0.93286155696E+02  0.00000000000E+00 0. -1.
         -2   -1    0    0    0  501 -0.00000000000E+00 -0.00000000000E+00 -0.23718156879E+03  0.23718156879E+03  0.00000000000E+00 0.  1.
        -24    2    1    2    0    0 -0.15301939381E+02 -0.15690658235E+02 -0.10354535249E+03  0.13171337338E+03  0.78399149222E+02 0.  0.
         23    2    1    2    0    0 -0.24881684034E+02  0.38088901342E+02  0.34174207406E+02  0.11117426543E+03  0.95509047931E+02 0.  0.
         13    1    3    3    0    0  0.21657656004E+02 -0.20414372944E+02 -0.10627071835E+02  0.31602774278E+02  0.00000000000E+00 0. -1.
        -14    1    3    3    0    0 -0.36959595384E+02  0.47237147086E+01 -0.92918280657E+02  0.10011059910E+03  0.00000000000E+00 0.  1.
        -11    1    4    4    0    0 -0.42947726626E+02  0.22362206772E+02 -0.19653924055E+02  0.52257556821E+02  0.00000000000E+00 0.  1.
         11    1    4    4    0    0  0.18066042592E+02  0.15726694570E+02  0.53828131461E+02  0.58916708612E+02  0.00000000000E+00 0. -1.
         -1    1    1    2    0  502  0.40183623415E+02 -0.22398243107E+02 -0.74524268003E+02  0.87580085673E+02  0.00000000000E+00 0.  1.
<scales pt_clust_5="13000.00000" pt_clust_6="13000.00000" pt_clust_7="13000.00000" pt_clust_8="13000.00000" pt_clust_9="46.00442"></scales>
<clustering>
<clus scale="   46.004">  1  9  2 -1</clus>
<clus scale="   78.399">  5  6 -1 -1</clus>
<clus scale="   81.222">  2  5  1 -1</clus>
<clus scale="   95.509">  7  8 -1 -1</clus>
<clus scale="   46.004">  1  5  2 -1</clus>
</clustering>
</event>
<event>
 9    1  0.6270443E-005  0.2552587E+03  0.7546771E-02  0.1130010E+00
         21   -1    0    0  501  502  0.00000000000E+00  0.00000000000E+00  0.42101017409E+03  0.42101017409E+03  0.00000000000E+00 0. -1.
          3   -1    0    0  502    0 -0.00000000000E+00 -0.00000000000E+00 -0.90464806360E+03  0.90464806360E+03  0.00000000000E+00 0. -1.
         23    2    1    2    0    0  0.50065940931E+02  0.11530588449E+03  0.15468222811E+02  0.15562206182E+03  0.90426294679E+02 0.  0.
        -24    2    1    2    0    0 -0.24272010638E+03 -0.51772993448E+02  0.27006403487E+03  0.37456476152E+03  0.75965023209E+02 0.  0.
         13    1    4    4    0    0 -0.15197903495E+03 -0.23517227957E+02  0.21621993507E+03  0.26533327608E+03  0.00000000000E+00 0. -1.
        -14    1    4    4    0    0 -0.90741071436E+02 -0.28255765491E+02  0.53844099805E+02  0.10923148545E+03  0.00000000000E+00 0.  1.
        -11    1    3    3    0    0  0.68825255706E+02  0.62332724055E+02  0.29990519347E+02  0.97579278343E+02  0.00000000000E+00 0.  1.
         11    1    3    3    0    0 -0.18759314776E+02  0.52973160433E+02 -0.14522296536E+02  0.58042783477E+02  0.00000000000E+00 0. -1.
          4    1    1    2  501    0  0.19265416545E+03 -0.63532891040E+02 -0.76917014719E+03  0.79547141434E+03  0.00000000000E+00 0. -1.
<scales pt_clust_5="13000.00000" pt_clust_6="13000.00000" pt_clust_7="13000.00000" pt_clust_8="13000.00000" pt_clust_9="243.69321"></scales>
<clustering>
<clus scale="   75.965">  5  6 -1 -1</clus>
<clus scale="   90.426">  7  8 -1 -1</clus>
<clus scale="  154.851">  2  7  1 -1</clus>
<clus scale="  243.693">  1  9  2 -1</clus>
<clus scale="  243.693">  1  5  2 -1</clus>
</clustering>
</event>
<event>
 9    1  0.6270443E-005  0.2028547E+03  0.7546771E-02  0.1148418E+00
         21   -1    0    0  501  502  0.00000000000E+00  0.00000000000E+00  0.16829830217E+03  0.16829830217E+03  0.00000000000E+00 0.  1.
          1   -1    0    0  502    0 -0.00000000000E+00 -0.00000000000E+00 -0.30249474095E+03  0.30249474095E+03  0.00000000000E+00 0. -1.
        -24    2    1    2    0    0 -0.55997888039E+02  0.16697570868E+03 -0.10892175188E+03  0.22201575444E+03  0.80064951331E+02 0.  0.
         23    2    1    2    0    0  0.39961993929E+02 -0.18632090086E+03  0.21691542360E+01  0.21156773646E+03  0.91889949538E+02 0.  0.
         11    1    3    3    0    0 -0.48541305927E+02  0.73922089635E+02 -0.91125598401E+02  0.12698270906E+03  0.00000000000E+00 0. -1.
        -12    1    3    3    0    0 -0.74565821123E+01  0.93053619046E+02 -0.17796153477E+02  0.95033045374E+02  0.00000000000E+00 0.  1.
        -13    1    4    4    0    0  0.47323195139E-01 -0.34302432130E+02  0.37135467613E+02  0.50553951818E+02  0.00000000000E+00 0.  1.
         13    1    4    4    0    0  0.39914670733E+02 -0.15201846873E+03 -0.34966313377E+02  0.16101378465E+03  0.00000000000E+00 0. -1.
          2    1    1    2  501    0  0.16035894111E+02  0.19345192179E+02 -0.27443841137E+02  0.37209552224E+02  0.00000000000E+00 0. -1.
<scales pt_clust_5="13000.00000" pt_clust_6="13000.00000" pt_clust_7="13000.00000" pt_clust_8="13000.00000" pt_clust_9="25.12742"></scales>
<clustering>
<clus scale="   25.127">  1  9  2 -1</clus>
<clus scale="   80.065">  5  6 -1 -1</clus>
<clus scale="   91.890">  7  8 -1 -1</clus>
<clus scale="  197.779">  2  5  1 -1</clus>
<clus scale="   25.127">  1  5  2 -1</clus>
</clustering>
</event>
<event>
 9    1  0.6270443E-005  0.1442257E+03  0.7546771E-02  0.1224046E+00
         21   -1    0    0  501  502  0.00000000000E+00  0.00000000000E+00  0.42141038379E+03  0.42141038379E+03  0.00000000000E+00 0. -1.
          3   -1    0    0  502    0 -0.00000000000E+00 -0.00000000000E+00 -0.14488104150E+03  0.14488104150E+03  0.00000000000E+00 0. -1.
        -24    2    1    2    0    0 -0.57770084100E+02 -0.26117978723E+02 -0.75105839062E+02  0.12682822587E+03  0.80155975360E+02 0.  0.
         23    2    1    2    0    0  0.32669906959E+02  0.12642337392E+03  0.23021038311E+03  0.27997911613E+03  0.91330677665E+02 0.  0.
         11    1    3    3    0    0 -0.29666464807E+02 -0.35668465709E+02 -0.83898474232E+02  0.95871229045E+02  0.00000000000E+00 0. -1.
        -12    1    3    3    0    0 -0.28103619293E+02  0.95504869860E+01  0.87926351700E+01  0.30956996822E+02  0.00000000000E+00 0.  1.
        -11    1    4    4    0    0 -0.31872403869E+02  0.45308785139E+02  0.88370587591E+02  0.10429811547E+03  0.00000000000E+00 0. -1.
         11    1    4    4    0    0  0.64542310828E+02  0.81114588781E+02  0.14183979552E+03  0.17568100066E+03  0.00000000000E+00 0.  1.
          4    1    1    2  501    0  0.25100177141E+02 -0.10030539520E+03  0.12142479824E+03  0.15948408330E+03  0.00000000000E+00 0. -1.
<scales pt_clust_5="13000.00000" pt_clust_6="13000.00000" pt_clust_7="13000.00000" pt_clust_8="13000.00000" pt_clust_9="111.62335"></scales>
<clustering>
<clus scale="   80.156">  5  6 -1 -1</clus>
<clus scale="   91.331">  7  8 -1 -1</clus>
<clus scale="  102.198">  2  5  1 -1</clus>
<clus scale="  111.623">  1  9  2 -1</clus>
<clus scale="  111.623">  1  5  2 -1</clus>
</clustering>
</event>
<event>
 9    1  0.6270443E-005  0.1259710E+03  0.7546771E-02  0.1245374E+00
         21   -1    0    0  501  502  0.00000000000E+00  0.00000000000E+00  0.67622089733E+03  0.67622089733E+03  0.00000000000E+00 0. -1.
          3   -1    0    0  502    0 -0.00000000000E+00 -0.00000000000E+00 -0.92951906872E+02  0.92951906872E+02  0.00000000000E+00 0. -1.
         23    2    1    2    0    0 -0.50392615707E+02  0.27248440629E+02 -0.18873735591E+02  0.10085863022E+03  0.80835339794E+02 0.  0.
        -24    2    1    2    0    0 -0.42040709323E+02 -0.69819422248E+02  0.88817038834E+02  0.14499833321E+03  0.80584597056E+02 0.  0.
         13    1    4    4    0    0 -0.61762952431E+02 -0.66995873659E+02  0.85201947618E+02  0.12474967438E+03  0.00000000000E+00 0. -1.
        -14    1    4    4    0    0  0.19722243108E+02 -0.28235485887E+01  0.36150912158E+01  0.20248658828E+02  0.00000000000E+00 0.  1.
        -13    1    3    3    0    0 -0.24699642181E+02  0.16322599290E+02  0.31522483212E+02  0.43245421946E+02  0.00000000000E+00 0.  1.
         13    1    3    3    0    0 -0.25692973526E+02  0.10925841339E+02 -0.50396218803E+02  0.57613208271E+02  0.00000000000E+00 0. -1.
          4    1    1    2  501    0  0.92433325030E+02  0.42570981619E+02  0.51332568721E+03  0.52331584077E+03  0.00000000000E+00 0. -1.
<scales pt_clust_5="13000.00000" pt_clust_6="13000.00000" pt_clust_7="13000.00000" pt_clust_8="13000.00000" pt_clust_9="96.82361"></scales>
<clustering>
<clus scale="   80.585">  5  6 -1 -1</clus>
<clus scale="   80.835">  7  8 -1 -1</clus>
<clus scale="   99.077">  2  7  1 -1</clus>
<clus scale="   96.824">  1  9  2 -1</clus>
<clus scale="   96.824">  1  5  2 -1</clus>
</clustering>
</event>
<event>
 9    1  0.6270443E-005  0.1393399E+03  0.7546771E-02  0.1236547E+00
         -2   -1    0    0    0  501 -0.00000000000E+00  0.00000000000E+00  0.55770775351E+02  0.55770775351E+02  0.00000000000E+00 0.  1.
         21   -1    0    0  501  502  0.00000000000E+00 -0.00000000000E+00 -0.56550790864E+03  0.56550790864E+03  0.00000000000E+00 0.  1.
        -24    2    1    2    0    0 -0.41393785397E+02 -0.11101292901E+02 -0.11954389322E+03  0.14817884644E+03  0.76351450239E+02 0.  0.
         23    2    1    2    0    0 -0.84048211850E+02 -0.34447540550E+02 -0.24326006209E+03  0.27460613565E+03  0.89343925159E+02 0.  0.
         13    1    3    3    0    0 -0.15474632725E+02  0.26999213194E+02 -0.85206311992E+02  0.90711285816E+02  0.00000000000E+00 0. -1.
        -14    1    3    3    0    0 -0.25919152672E+02 -0.38100506095E+02 -0.34337581228E+02  0.57467560628E+02  0.00000000000E+00 0.  1.
        -13    1    4    4    0    0 -0.74617269598E+02 -0.33511545687E+01 -0.22555544929E+03  0.23760098456E+03  0.00000000000E+00 0.  1.
         13    1    4    4    0    0 -0.94309422519E+01 -0.31096385982E+02 -0.17704612804E+02  0.37005151093E+02  0.00000000000E+00 0. -1.
         -1    1    1    2    0  502  0.12544199725E+03  0.45548833452E+02 -0.14693317798E+03  0.19849370190E+03  0.00000000000E+00 0.  1.
<scales pt_clust_5="13000.00000" pt_clust_6="13000.00000" pt_clust_7="13000.00000" pt_clust_8="13000.00000" pt_clust_9="106.92649"></scales>
<clustering>
<clus scale="   76.351">  5  6 -1 -1</clus>
<clus scale="   87.557">  1  5  2 -1</clus>
<clus scale="   89.344">  7  8 -1 -1</clus>
<clus scale="  106.926">  2  9  1 -1</clus>
<clus scale="  106.926">  2  5  1 -1</clus>
</clustering>
</event>
<event>
 9    1  0.6270443E-005  0.1549678E+03  0.7546771E-02  0.1195932E+00
         21   -1    0    0  501  502  0.00000000000E+00  0.00000000000E+00  0.58476114847E+02  0.58476114847E+02  0.00000000000E+00 0.  1.
          1   -1    0    0  502    0 -0.00000000000E+00 -0.00000000000E+00 -0.95650169050E+03  0.95650169050E+03  0.00000000000E+00 0. -1.
         23    2    1    2    0    0 -0.82709859920E+02 -0.79955534941E+02 -0.56106823576E+03  0.57985593545E+03  0.90562311148E+02 0.  0.
        -24    2    1    2    0    0  0.72482968537E+02  0.16009103060E+03 -0.22506018965E+03  0.29711006169E+03  0.82093732937E+02 0.  0.
         13    1    4    4    0    0  0.10875246456E+02  0.20122336796E+02 -0.90711883797E+02  0.93551190722E+02  0.00000000000E+00 0. -1.
        -14    1    4    4    0    0  0.61607722082E+02  0.13996869380E+03 -0.13434830585E+03  0.20355887097E+03  0.00000000000E+00 0.  1.
        -11    1    3    3    0    0 -0.53714771605E+02 -0.47654528562E+01 -0.12103907263E+03  0.13250827647E+03  0.00000000000E+00 0.  1.
         11    1    3    3    0    0 -0.28995088314E+02 -0.75190082084E+02 -0.44002916312E+03  0.44734765898E+03  0.00000000000E+00 0. -1.
          2    1    1    2  501    0  0.10226891383E+02 -0.80135495657E+02 -0.11189715024E+03  0.13801180820E+03  0.00000000000E+00 0. -1.
<scales pt_clust_5="13000.00000" pt_clust_6="13000.00000" pt_clust_7="13000.00000" pt_clust_8="13000.00000" pt_clust_9="80.78544"></scales>
<clustering>
<clus scale="   80.785">  1  9  2 -1</clus>
<clus scale="   82.094">  5  6 -1 -1</clus>
<clus scale="   90.562">  7  8 -1 -1</clus>
<clus scale="  150.176">  1  5  2 -1</clus>
<clus scale="   80.785">  1  5  2 -1</clus>
</clustering>
</event>
<event>
 9    1  0.6270443E-005  0.9073715E+02  0.7546771E-02  0.1307082E+00
         -2   -1    0    0    0  501 -0.00000000000E+00  0.00000000000E+00  0.20486926396E+03  0.20486926396E+03  0.00000000000E+00 0.  1.
         21   -1    0    0  501  502  0.00000000000E+00 -0.00000000000E+00 -0.56892955217E+02  0.56892955217E+02  0.00000000000E+00 0.  1.
        -24    2    1    2    0    0 -0.10327377753E+02 -0.13481218243E+01  0.53308847236E+02  0.97282216768E+02  0.80706408308E+02 0.  0.
         23    2    1    2    0    0 -0.24962478227E+01 -0.22171472228E+02  0.35419829771E+02  0.99457709742E+02  0.90218990530E+02 0.  0.
         13    1    3    3    0    0 -0.38318915862E+02  0.20749257941E+02  0.40199927316E+02  0.59286635713E+02  0.00000000000E+00 0. -1.
        -14    1    3    3    0    0  0.27991538109E+02 -0.22097379766E+02  0.13108919920E+02  0.37995581055E+02  0.00000000000E+00 0.  1.
        -13    1    4    4    0    0 -0.37953445529E+02 -0.14235123630E+02 -0.95485089472E+01  0.41644649061E+02  0.00000000000E+00 0.  1.
         13    1    4    4    0    0  0.35457197706E+02 -0.79363485980E+01  0.44968338719E+02  0.57813060681E+02  0.00000000000E+00 0. -1.
         -1    1    1    2    0  502  0.12823625576E+02  0.23519594052E+02  0.59247631739E+02  0.65022292670E+02  0.00000000000E+00 0.  1.
<scales pt_clust_5="13000.00000" pt_clust_6="13000.00000" pt_clust_7="13000.00000" pt_clust_8="13000.00000" pt_clust_9="26.78838"></scales>
<clustering>
<clus scale="   26.788">  2  9  1 -1</clus>
<clus scale="   80.706">  5  6 -1 -1</clus>
<clus scale="   81.285">  1  5  2 -1</clus>
<clus scale="   90.219">  7  8 -1 -1</clus>
<clus scale="   26.788">  2  5  1 -1</clus>
</clustering>
</event>
<event>
 9    1  0.6270443E-005  0.1478423E+03  0.7546771E-02  0.1207250E+00
         -2   -1    0    0    0  501 -0.00000000000E+00  0.00000000000E+00  0.63484856244E+03  0.63484856244E+03  0.00000000000E+00 0.  1.
         21   -1    0    0  501  502  0.00000000000E+00 -0.00000000000E+00 -0.16253131532E+03  0.16253131532E+03  0.00000000000E+00 0.  1.
        -24    2    1    2    0    0  0.10380862851E+03  0.31271226181E+02  0.72304117487E+02  0.15345416502E+03  0.81031934548E+02 0.  0.
         23    2    1    2    0    0  0.98836458842E+02 -0.46778529223E+02 -0.49958203269E+02  0.15018518542E+03  0.90016062201E+02 0.  0.
         13    1    3    3    0    0  0.56549560013E+02  0.35437737541E+02 -0.28489909971E+00  0.66736550310E+02  0.00000000000E+00 0. -1.
        -14    1    3    3    0    0  0.47259068495E+02 -0.41665113601E+01  0.72589016586E+02  0.86717614709E+02  0.00000000000E+00 0.  1.
        -11    1    4    4    0    0  0.69179946743E+02  0.16322822887E+02 -0.17099476272E+02  0.73107398170E+02  0.00000000000E+00 0. -1.
         11    1    4    4    0    0  0.29656512099E+02 -0.63101352111E+02 -0.32858726997E+02  0.77077787254E+02  0.00000000000E+00 0.  1.
         -1    1    1    2    0  502 -0.20264508735E+03  0.15507303042E+02  0.44997133291E+03  0.49374052731E+03  0.00000000000E+00 0.  1.
<scales pt_clust_5="13000.00000" pt_clust_6="13000.00000" pt_clust_7="13000.00000" pt_clust_8="13000.00000" pt_clust_9="117.27940"></scales>
<clustering>
<clus scale="   81.032">  5  6 -1 -1</clus>
<clus scale="   90.016">  7  8 -1 -1</clus>
<clus scale="  135.353">  1  5  2 -1</clus>
<clus scale="  117.279">  2  9  1 -1</clus>
<clus scale="  117.279">  2  5  1 -1</clus>
</clustering>
</event>
<event>
 9    1  0.6270443E-005  0.2744653E+03  0.7546771E-02  0.1118483E+00
         21   -1    0    0  501  502  0.00000000000E+00  0.00000000000E+00  0.30361313426E+03  0.30361313426E+03  0.00000000000E+00 0.  1.
          1   -1    0    0  502    0 -0.00000000000E+00 -0.00000000000E+00 -0.80254699461E+03  0.80254699461E+03  0.00000000000E+00 0. -1.
        -24    2    1    2    0    0 -0.14439093141E+03 -0.12127574396E+02  0.36538721260E+02  0.16979708543E+03  0.80623525950E+02 0.  0.
         23    2    1    2    0    0  0.85692634206E+02  0.25295137748E+03  0.62591004161E+02  0.28896699244E+03  0.90866176307E+02 0.  0.
         11    1    3    3    0    0 -0.13529571256E+03  0.76799374075E+01  0.49695198604E+02  0.14433822792E+03  0.00000000000E+00 0. -1.
        -12    1    3    3    0    0 -0.90952188533E+01 -0.19807511804E+02 -0.13156477344E+02  0.25458857515E+02  0.00000000000E+00 0.  1.
        -13    1    4    4    0    0  0.46316587910E+02  0.11346944825E+03 -0.16815251213E+02  0.12370648598E+03  0.00000000000E+00 0. -1.
         13    1    4    4    0    0  0.39376046296E+02  0.13948192923E+03  0.79406255374E+02  0.16526050646E+03  0.00000000000E+00 0.  1.
          2    1    1    2  501    0  0.58698297205E+02 -0.24082380308E+03 -0.59806358576E+03  0.64739605099E+03  0.00000000000E+00 0. -1.
<scales pt_clust_5="13000.00000" pt_clust_6="13000.00000" pt_clust_7="13000.00000" pt_clust_8="13000.00000" pt_clust_9="258.98761"></scales>
<clustering>
<clus scale="   80.624">  5  6 -1 -1</clus>
<clus scale="   90.866">  7  8 -1 -1</clus>
<clus scale="  165.819">  2  5  1 -1</clus>
<clus scale="  258.988">  1  9  2 -1</clus>
<clus scale="  258.988">  1  5  2 -1</clus>
</clustering>
</event>
<event>
 9    1  0.6270443E-005  0.1244472E+03  0.7546771E-02  0.1241637E+00
          3   -1    0    0  502    0 -0.00000000000E+00  0.00000000000E+00  0.16957658703E+03  0.16957658703E+03  0.00000000000E+00 0. -1.
         21   -1    0    0  501  502  0.00000000000E+00 -0.00000000000E+00 -0.19292662168E+03  0.19292662168E+03  0.00000000000E+00 0. -1.
         23    2    1    2    0    0 -0.71578427310E+02  0.25780287241E+02  0.83861001086E+02  0.15022192973E+03  0.98721153771E+02 0.  0.
        -24    2    1    2    0    0  0.54585208960E+02 -0.60634638939E+02 -0.19674756634E+02  0.11654102903E+03  0.80861677713E+02 0.  0.
         11    1    4    4    0    0 -0.21403425609E+02 -0.14723920976E+02 -0.23448774763E+01  0.26084457577E+02  0.00000000000E+00 0. -1.
        -12    1    4    4    0    0  0.75988634569E+02 -0.45910717963E+02 -0.17329879157E+02  0.90456571454E+02  0.00000000000E+00 0.  1.
        -11    1    3    3    0    0 -0.10809047822E+02  0.46277293236E+02  0.38476585776E+01  0.47678379383E+02  0.00000000000E+00 0.  1.
         11    1    3    3    0    0 -0.60769379487E+02 -0.20497005995E+02  0.80013342509E+02  0.10254355035E+03  0.00000000000E+00 0. -1.
          4    1    1    2  501    0  0.16993218350E+02  0.34854351698E+02 -0.87536279104E+02  0.95740249956E+02  0.00000000000E+00 0. -1.
<scales pt_clust_5="13000.00000" pt_clust_6="13000.00000" pt_clust_7="13000.00000" pt_clust_8="13000.00000" pt_clust_9="38.77622"></scales>
<clustering>
<clus scale="   38.776">  2  9  1 -1</clus>
<clus scale="   80.862">  5  6 -1 -1</clus>
<clus scale="   98.721">  7  8 -1 -1</clus>
<clus scale="  110.814">  2  5  1 -1</clus>
<clus scale="   38.776">  2  5  1 -1</clus>
</clustering>
</event>
<event>
 9    1  0.6270443E-005  0.4235022E+03  0.7546771E-02  0.1080025E+00
         21   -1    0    0  501  502  0.00000000000E+00  0.00000000000E+00  0.77011025462E+03  0.77011025462E+03  0.00000000000E+00 0.  1.
          1   -1    0    0  502    0 -0.00000000000E+00 -0.00000000000E+00 -0.34299791757E+03  0.34299791757E+03  0.00000000000E+00 0. -1.
        -24    2    1    2    0    0  0.85028869385E+02  0.34417254844E+02  0.65367711047E+01  0.12281438651E+03  0.81401401073E+02 0.  0.
         23    2    1    2    0    0  0.24270514505E+03  0.30176684021E+03  0.32026265718E+03  0.51019795186E+03  0.88117916566E+02 0.  0.
         11    1    3    3    0    0  0.31249655410E+02  0.26113097752E+02 -0.35521470955E+02  0.54038964982E+02  0.00000000000E+00 0. -1.
        -12    1    3    3    0    0  0.53779213975E+02  0.83041570915E+01  0.42058242060E+02  0.68775421525E+02  0.00000000000E+00 0.  1.
        -11    1    4    4    0    0  0.44080305508E+02  0.54544139102E+02  0.10734593563E+03  0.12822357950E+03  0.00000000000E+00 0. -1.
         11    1    4    4    0    0  0.19862483954E+03  0.24722270111E+03  0.21291672154E+03  0.38197437236E+03  0.00000000000E+00 0.  1.
          2    1    1    2  501    0 -0.32773401443E+03 -0.33618409506E+03  0.10031290878E+03  0.48009583382E+03  0.00000000000E+00 0. -1.
<scales pt_clust_5="13000.00000" pt_clust_6="13000.00000" pt_clust_7="13000.00000" pt_clust_8="13000.00000" pt_clust_9="414.23369"></scales>
<clustering>
<clus scale="   81.401">  5  6 -1 -1</clus>
<clus scale="   88.118">  7  8 -1 -1</clus>
<clus scale="  122.640">  2  5  1 -1</clus>
<clus scale="  414.234">  1  9  2 -1</clus>
<clus scale="  414.234">  1  5  2 -1</clus>
</clustering>
</event>
<event>
 9    1  0.6270443E-005  0.1150881E+03  0.7546771E-02  0.1255200E+00
         21   -1    0    0  501  502  0.00000000000E+00  0.00000000000E+00  0.11387898091E+03  0.11387898091E+03  0.00000000000E+00 0.  1.
          3   -1    0    0  502    0 -0.00000000000E+00 -0.00000000000E+00 -0.29485346365E+03  0.29485346365E+03  0.00000000000E+00 0. -1.
         23    2    1    2    0    0 -0.54897340411E+02 -0.39778733684E+02 -0.23158454383E+03  0.25806464950E+03  0.91487139777E+02 0.  0.
        -24    2    1    2    0    0  0.54441959308E+02  0.64723343644E+02  0.41113944370E+02  0.12397290471E+03  0.80782959440E+02 0.  0.
         13    1    4    4    0    0  0.55555589805E+02  0.14776927896E+02 -0.26613625937E+01  0.57548796751E+02  0.00000000000E+00 0. -1.
        -14    1    4    4    0    0 -0.11136304972E+01  0.49946415748E+02  0.43775306964E+02  0.66424107964E+02  0.00000000000E+00 0.  1.
        -13    1    3    3    0    0 -0.23575322267E+02 -0.62558672969E+02 -0.95489061550E+02  0.11656562212E+03  0.00000000000E+00 0. -1.
         13    1    3    3    0    0 -0.31322018144E+02  0.22779939285E+02 -0.13609548228E+03  0.14149902739E+03  0.00000000000E+00 0.  1.
          4    1    1    2  501    0  0.45538110355E+00 -0.24944609960E+02  0.94961167181E+01  0.26694890349E+02  0.00000000000E+00 0. -1.
<scales pt_clust_5="13000.00000" pt_clust_6="13000.00000" pt_clust_7="13000.00000" pt_clust_8="13000.00000" pt_clust_9="24.94877"></scales>
<clustering>
<clus scale="   24.949">  1  9  2 -1</clus>
<clus scale="   80.783">  5  6 -1 -1</clus>
<clus scale="   91.487">  7  8 -1 -1</clus>
<clus scale="  106.777">  1  5  2 -1</clus>
<clus scale="   24.949">  1  5  2 -1</clus>
</clustering>
</event>
<event>
 9    1  0.6270443E-005  0.3004893E+03  0.7546771E-02  0.1085470E+00
          1   -1    0    0  502    0 -0.00000000000E+00  0.00000000000E+00  0.22394689884E+03  0.22394689884E+03  0.00000000000E+00 0. -1.
         21   -1    0    0  501  502  0.00000000000E+00 -0.00000000000E+00 -0.76085579840E+03  0.76085579840E+03  0.00000000000E+00 0. -1.
        -24    2    1    2    0    0 -0.12827067903E+03  0.22571266339E+03 -0.14486066611E+03  0.30749122655E+03  0.78528137057E+02 0.  0.
         23    2    1    2    0    0  0.14641140122E+03 -0.31408907733E+03 -0.44598530123E+03  0.57219875202E+03  0.91762061847E+02 0.  0.
         11    1    3    3    0    0 -0.10080411792E+03  0.13331126043E+03 -0.12590066211E+03  0.20924707660E+03  0.00000000000E+00 0. -1.
        -12    1    3    3    0    0 -0.27466561112E+02  0.92401402964E+02 -0.18960003998E+02  0.98244149956E+02  0.00000000000E+00 0.  1.
        -11    1    4    4    0    0  0.47038375395E+02 -0.15271157914E+03 -0.14090051994E+03  0.21304082163E+03  0.00000000000E+00 0.  1.
         11    1    4    4    0    0  0.99373025822E+02 -0.16137749819E+03 -0.30508478130E+03  0.35915793039E+03  0.00000000000E+00 0. -1.
          2    1    1    2  501    0 -0.18140722189E+02  0.88376413943E+02  0.53937067779E+02  0.10511271866E+03  0.00000000000E+00 0. -1.
<scales pt_clust_5="13000.00000" pt_clust_6="13000.00000" pt_clust_7="13000.00000" pt_clust_8="13000.00000" pt_clust_9="90.21909"></scales>
<clustering>
<clus scale="   78.528">  5  6 -1 -1</clus>
<clus scale="   90.219">  2  9  1 -1</clus>
<clus scale="   91.762">  7  8 -1 -1</clus>
<clus scale="  296.716">  1  5  2 -1</clus>
<clus scale="   90.219">  2  5  1 -1</clus>
</clustering>
</event>
<event>
 9    1  0.6270443E-005  0.9933343E+02  0.7546771E-02  0.1285737E+00
         -2   -1    0    0    0  501 -0.00000000000E+00  0.00000000000E+00  0.25947604396E+03  0.25947604396E+03  0.00000000000E+00 0.  1.
         21   -1    0    0  501  502  0.00000000000E+00 -0.00000000000E+00 -0.53873145387E+02  0.53873145387E+02  0.00000000000E+00 0. -1.
        -24    2    1    2    0    0  0.43180438635E+02 -0.26555346273E+01  0.15397489088E+03  0.18016154483E+03  0.82935595909E+02 0.  0.
         23    2    1    2    0    0 -0.30432093287E+02  0.18592130155E+02  0.55568621752E+02  0.11240246169E+03  0.90965169510E+02 0.  0.
         13    1    3    3    0    0  0.55625053353E+01 -0.39151293810E+02  0.50224665653E+02  0.63924035484E+02  0.00000000000E+00 0. -1.
        -14    1    3    3    0    0  0.37617933300E+02  0.36495759183E+02  0.10375022523E+03  0.11623750935E+03  0.00000000000E+00 0.  1.
        -11    1    4    4    0    0 -0.52360970464E+02 -0.17221591764E+02  0.25375616154E+02  0.60680938902E+02  0.00000000000E+00 0. -1.
         11    1    4    4    0    0  0.21928877178E+02  0.35813721919E+02  0.30193005598E+02  0.51721522783E+02  0.00000000000E+00 0.  1.
         -1    1    1    2    0  502 -0.12748345348E+02 -0.15936595527E+02 -0.39406140621E+01  0.20785182831E+02  0.00000000000E+00 0.  1.
<scales pt_clust_5="13000.00000" pt_clust_6="13000.00000" pt_clust_7="13000.00000" pt_clust_8="13000.00000" pt_clust_9="20.40822"></scales>
<clustering>
<clus scale="   20.408">  2  9  1 -1</clus>
<clus scale="   82.936">  5  6 -1 -1</clus>
<clus scale="   90.965">  7  8 -1 -1</clus>
<clus scale="   92.037">  1  5  2 -1</clus>
<clus scale="   20.408">  2  5  1 -1</clus>
</clustering>
</event>
<event>
 9    1  0.6270443E-005  0.1873344E+03  0.7546771E-02  0.1179047E+00
          1   -1    0    0  502    0 -0.00000000000E+00  0.00000000000E+00  0.66469764125E+03  0.66469764125E+03  0.00000000000E+00 0. -1.
         21   -1    0    0  501  502  0.00000000000E+00 -0.00000000000E+00 -0.17658573212E+03  0.17658573212E+03  0.00000000000E+00 0. -1.
        -24    2    1    2    0    0  0.75928683321E+00  0.93057636600E+02  0.23233125932E+03  0.26318757514E+03  0.81422266037E+02 0.  0.
         23    2    1    2    0    0  0.16235768894E+03 -0.65712951973E+02  0.33952920594E+03  0.39270782608E+03  0.90890834305E+02 0.  0.
         11    1    3    3    0    0 -0.13484398584E+02  0.91437820269E+02  0.23098306289E+03  0.24878882475E+03  0.00000000000E+00 0. -1.
        -12    1    3    3    0    0  0.14243685417E+02  0.16198163313E+01  0.13481964328E+01  0.14398750392E+02  0.00000000000E+00 0.  1.
        -13    1    4    4    0    0  0.93518970178E+02 -0.31632758460E+02  0.27567718379E+03  0.29282134289E+03  0.00000000000E+00 0.  1.
         13    1    4    4    0    0  0.68838718760E+02 -0.34080193513E+02  0.63852022156E+02  0.99886483188E+02  0.00000000000E+00 0. -1.
          2    1    1    2  501    0 -0.16311697577E+03 -0.27344684627E+02 -0.83748556132E+02  0.18538797214E+03  0.00000000000E+00 0. -1.
<scales pt_clust_5="13000.00000" pt_clust_6="13000.00000" pt_clust_7="13000.00000" pt_clust_8="13000.00000" pt_clust_9="163.80791"></scales>
<clustering>
<clus scale="   81.422">  5  6 -1 -1</clus>
<clus scale="   90.891">  7  8 -1 -1</clus>
<clus scale="  123.652">  1  5  2 -1</clus>
<clus scale="  163.808">  2  9  1 -1</clus>
<clus scale="  163.808">  2  5  1 -1</clus>
</clustering>
</event>
<event>
 9    1  0.6270443E-005  0.9937298E+02  0.7546771E-02  0.1282892E+00
         21   -1    0    0  501  502  0.00000000000E+00  0.00000000000E+00  0.20431433297E+03  0.20431433297E+03  0.00000000000E+00 0.  1.
         -2   -1    0    0    0  501 -0.00000000000E+00 -0.00000000000E+00 -0.19345078010E+03  0.19345078010E+03  0.00000000000E+00 0.  1.
        -24    2    1    2    0    0 -0.56884803926E+01  0.47482884992E+02 -0.15585152184E+03  0.18356820301E+03  0.84383678041E+02 0.  0.
         23    2    1    2    0    0  0.25608805537E+02 -0.44851586457E+02  0.91945428622E+02  0.13677441293E+03  0.87096512331E+02 0.  0.
         13    1    3    3    0    0 -0.37519979502E+02  0.64555463048E+01 -0.33725892222E+02  0.50861171300E+02  0.00000000000E+00 0. -1.
        -14    1    3    3    0    0  0.31831499109E+02  0.41027338688E+02 -0.12212562962E+03  0.13270703171E+03  0.00000000000E+00 0.  1.
        -11    1    4    4    0    0  0.31358665697E+02  0.56705410911E+01  0.77680696738E+02  0.83963156184E+02  0.00000000000E+00 0.  1.
         11    1    4    4    0    0 -0.57498601603E+01 -0.50522127548E+02  0.14264731884E+02  0.52811256750E+02  0.00000000000E+00 0. -1.
         -1    1    1    2    0  502 -0.19920325144E+02 -0.26312985356E+01  0.74769646085E+02  0.77422497128E+02  0.00000000000E+00 0.  1.
<scales pt_clust_5="13000.00000" pt_clust_6="13000.00000" pt_clust_7="13000.00000" pt_clust_8="13000.00000" pt_clust_9="20.09336"></scales>
<clustering>
<clus scale="   20.093">  1  9  2 -1</clus>
<clus scale="   84.384">  5  6 -1 -1</clus>
<clus scale="   87.097">  7  8 -1 -1</clus>
<clus scale="   97.004">  2  5  1 -1</clus>
<clus scale="   20.093">  1  5  2 -1</clus>
</clustering>
</event>
<event>
 9    1  0.6763036E-005  0.1004838E+03  0.7546771E-02  0.1284100E+00
         21   -1    0    0  501  502  0.00000000000E+00  0.00000000000E+00  0.14174942275E+03  0.14174942275E+03  0.00000000000E+00 0.  1.
          1   -1    0    0  502    0 -0.00000000000E+00 -0.00000000000E+00 -0.36866625343E+03  0.36866625343E+03  0.00000000000E+00 0. -1.
        -24    2    1    2    0    0 -0.23088265609E+02 -0.34307847029E+02 -0.33359683235E+03  0.34597859720E+03  0.81879465022E+02 0.  0.
         23    2    1    2    0    0  0.39344058231E+01  0.45428388683E+02  0.93810069203E+02  0.13882122543E+03  0.91606689153E+02 0.  0.
         11    1    3    3    0    0 -0.29485378801E+02 -0.51795141094E+02 -0.31118338769E+03  0.31683943090E+03  0.00000000000E+00 0. -1.
        -12    1    3    3    0    0  0.63971131923E+01  0.17487294065E+02 -0.22413444664E+02  0.29139166299E+02  0.00000000000E+00 0.  1.
        -11    1    4    4    0    0 -0.23367774804E+02  0.48768154901E+02  0.16155509927E+02  0.56439226897E+02  0.00000000000E+00 0. -1.
         11    1    4    4    0    0  0.27302180627E+02 -0.33397662179E+01  0.77654559276E+02  0.82381998530E+02  0.00000000000E+00 0.  1.
          2    1    1    2  501    0  0.19153859785E+02 -0.11120541654E+02  0.12869932463E+02  0.25615853547E+02  0.00000000000E+00 0. -1.
<scales pt_clust_5="13000.00000" pt_clust_6="13000.00000" pt_clust_7="13000.00000" pt_clust_8="13000.00000" pt_clust_9="22.14807"></scales>
<clustering>
<clus scale="   22.148">  1  9  2 -1</clus>
<clus scale="   81.879">  5  6 -1 -1</clus>
<clus scale="   91.607">  7  8 -1 -1</clus>
<clus scale="   91.703">  2  5  1 -1</clus>
<clus scale="   22.148">  1  5  2 -1</clus>
</clustering>
</event>
<event>
 9    1  0.6270443E-005  0.1385017E+03  0.7546771E-02  0.1228948E+00
         -2   -1    0    0    0  501 -0.00000000000E+00  0.00000000000E+00  0.12285288822E+03  0.12285288822E+03  0.00000000000E+00 0.  1.
         21   -1    0    0  501  502  0.00000000000E+00 -0.00000000000E+00 -0.66908430463E+03  0.66908430463E+03  0.00000000000E+00 0. -1.
        -24    2    1    2    0    0  0.58246508521E+02  0.31102407833E+02 -0.31727181995E+03  0.33395351611E+03  0.80644452121E+02 0.  0.
         23    2    1    2    0    0  0.59941461247E+01  0.72461622506E+02 -0.29109685298E+03  0.32118671502E+03  0.11461636693E+03 0.  0.
         11    1    3    3    0    0  0.67545404571E+02  0.95548874231E+01 -0.29026977513E+03  0.29817816806E+03  0.00000000000E+00 0. -1.
        -12    1    3    3    0    0 -0.92988960505E+01  0.21547520410E+02 -0.27002044820E+02  0.35775348049E+02  0.00000000000E+00 0.  1.
        -11    1    4    4    0    0  0.33401459084E+02  0.22113926796E+02 -0.21304083445E+02  0.45371215530E+02  0.00000000000E+00 0.  1.
         11    1    4    4    0    0 -0.27407312959E+02  0.50347695710E+02 -0.26979276953E+03  0.27581549949E+03  0.00000000000E+00 0. -1.
         -1    1    1    2    0  502 -0.64240654646E+02 -0.10356403034E+03  0.62137256519E+02  0.13679696172E+03  0.00000000000E+00 0.  1.
<scales pt_clust_5="13000.00000" pt_clust_6="13000.00000" pt_clust_7="13000.00000" pt_clust_8="13000.00000" pt_clust_9="77.75492"></scales>
<clustering>
<clus scale="   80.644">  5  6 -1 -1</clus>
<clus scale="  104.228">  1  5  2 -1</clus>
<clus scale="   77.755">  2  9  1 -1</clus>
<clus scale="  114.616">  7  8 -1 -1</clus>
<clus scale="   77.755">  2  5  1 -1</clus>
</clustering>
</event>
<event>
 9    1  0.6270443E-005  0.9665891E+02  0.7546771E-02  0.1290277E+00
          1   -1    0    0  502    0 -0.00000000000E+00  0.00000000000E+00  0.19919965697E+03  0.19919965697E+03  0.00000000000E+00 0. -1.
         21   -1    0    0  501  502  0.00000000000E+00 -0.00000000000E+00 -0.17543813171E+03  0.17543813171E+03  0.00000000000E+00 0.  1.
         23    2    1    2    0    0 -0.26694006780E+02 -0.27018482833E+02  0.16138582186E+03  0.18853752162E+03  0.89768842848E+02 0.  0.
        -24    2    1    2    0    0  0.55785393058E+01  0.25357647863E+02 -0.62916395641E+02  0.10844788909E+03  0.84429505515E+02 0.  0.
         13    1    4    4    0    0  0.28107206602E+02 -0.22102529288E+02 -0.23899769508E+02  0.43008555503E+02  0.00000000000E+00 0. -1.
        -14    1    4    4    0    0 -0.22528667296E+02  0.47460177152E+02 -0.39016626133E+02  0.65439333586E+02  0.00000000000E+00 0.  1.
        -11    1    3    3    0    0 -0.28944647812E+02  0.26072360181E+02  0.39046419218E+02  0.55155992024E+02  0.00000000000E+00 0.  1.
         11    1    3    3    0    0  0.22506410323E+01 -0.53090843014E+02  0.12233940264E+03  0.13338152959E+03  0.00000000000E+00 0. -1.
          2    1    1    2  501    0  0.21115467474E+02  0.16608349701E+01 -0.74707900964E+02  0.77652377980E+02  0.00000000000E+00 0. -1.
<scales pt_clust_5="13000.00000" pt_clust_6="13000.00000" pt_clust_7="13000.00000" pt_clust_8="13000.00000" pt_clust_9="21.18068"></scales>
<clustering>
<clus scale="   21.181">  2  9  1 -1</clus>
<clus scale="   84.430">  5  6 -1 -1</clus>
<clus scale="   89.769">  7  8 -1 -1</clus>
<clus scale="   91.722">  2  5  1 -1</clus>
<clus scale="   21.181">  2  5  1 -1</clus>
</clustering>
</event>
<event>
 9    1  0.6270443E-005  0.1444603E+03  0.7546771E-02  0.1221491E+00
         21   -1    0    0  501  502  0.00000000000E+00  0.00000000000E+00  0.22165112616E+03  0.22165112616E+03  0.00000000000E+00 0. -1.
          3   -1    0    0  502    0 -0.00000000000E+00 -0.00000000000E+00 -0.27065466896E+03  0.27065466896E+03  0.00000000000E+00 0. -1.
         23    2    1    2    0    0 -0.53942290720E+02 -0.15093291334E+02  0.91258869490E+01  0.10766554110E+03  0.91493216991E+02 0.  0.
        -24    2    1    2    0    0  0.14696523588E+03 -0.55150715041E+02 -0.15402845219E+03  0.23369618734E+03  0.79049111101E+02 0.  0.
         13    1    4    4    0    0  0.86351816589E+02 -0.55114661420E+02 -0.13637379105E+03  0.17056398511E+03  0.00000000000E+00 0. -1.
        -14    1    4    4    0    0  0.60613419294E+02 -0.36053621331E-01 -0.17654661141E+02  0.63132202230E+02  0.00000000000E+00 0.  1.
        -11    1    3    3    0    0 -0.10462626460E+02  0.37561078744E+02  0.30777558232E+01  0.39112322479E+02  0.00000000000E+00 0.  1.
         11    1    3    3    0    0 -0.43479664260E+02 -0.52654370078E+02  0.60481311258E+01  0.68553218616E+02  0.00000000000E+00 0. -1.
          4    1    1    2  501    0 -0.93022945163E+02  0.70244006375E+02  0.95899022453E+02  0.15094406668E+03  0.00000000000E+00 0. -1.
<scales pt_clust_5="13000.00000" pt_clust_6="13000.00000" pt_clust_7="13000.00000" pt_clust_8="13000.00000" pt_clust_9="120.91324"></scales>
<clustering>
<clus scale="   79.049">  5  6 -1 -1</clus>
<clus scale="   91.493">  7  8 -1 -1</clus>
<clus scale="  107.278">  2  7  1 -1</clus>
<clus scale="  120.913">  1  9  2 -1</clus>
<clus scale="  120.913">  1  5  2 -1</clus>
</clustering>
</event>
<event>
 9    1  0.6270443E-005  0.9536996E+02  0.7546771E-02  0.1296558E+00
          1   -1    0    0  502    0 -0.00000000000E+00  0.00000000000E+00  0.80107573698E+03  0.80107573698E+03  0.00000000000E+00 0. -1.
         21   -1    0    0  501  502  0.00000000000E+00 -0.00000000000E+00 -0.24992302726E+02  0.24992302726E+02  0.00000000000E+00 0. -1.
         23    2    1    2    0    0  0.74533332503E+01 -0.20617178736E+02  0.35079542566E+03  0.36309199729E+03  0.91091973312E+02 0.  0.
        -24    2    1    2    0    0 -0.68124512187E+02 -0.20845475203E+02  0.21561061370E+03  0.24079423948E+03  0.80115204718E+02 0.  0.
         13    1    4    4    0    0 -0.79492448909E+02 -0.36702515736E+02  0.17134377994E+03  0.19241833337E+03  0.00000000000E+00 0. -1.
        -14    1    4    4    0    0  0.11367936722E+02  0.15857040533E+02  0.44266833767E+02  0.48375906105E+02  0.00000000000E+00 0.  1.
        -13    1    3    3    0    0  0.36189180578E+02 -0.41709039441E+02  0.16765559646E+03  0.17651543782E+03  0.00000000000E+00 0.  1.
         13    1    3    3    0    0 -0.28735847328E+02  0.21091860705E+02  0.18313982919E+03  0.18657655948E+03  0.00000000000E+00 0. -1.
          2    1    1    2  501    0  0.60671178937E+02  0.41462653939E+02  0.20967739489E+03  0.22218180293E+03  0.00000000000E+00 0. -1.
<scales pt_clust_5="13000.00000" pt_clust_6="13000.00000" pt_clust_7="13000.00000" pt_clust_8="13000.00000" pt_clust_9="73.48571"></scales>
<clustering>
<clus scale="   73.486">  2  9  1 -1</clus>
<clus scale="   80.115">  5  6 -1 -1</clus>
<clus scale="   84.948">  2  5  1 -1</clus>
<clus scale="   91.092">  7  8 -1 -1</clus>
<clus scale="   73.486">  2  5  1 -1</clus>
</clustering>
</event>
<event>
 9    1  0.6270443E-005  0.1194828E+03  0.7546771E-02  0.1251607E+00
          1   -1    0    0  502    0 -0.00000000000E+00  0.00000000000E+00  0.36881521536E+03  0.36881521536E+03  0.00000000000E+00 0. -1.
         21   -1    0    0  501  502  0.00000000000E+00 -0.00000000000E+00 -0.18795928011E+03  0.18795928011E+03  0.00000000000E+00 0.  1.
         23    2    1    2    0    0  0.54312903219E+01  0.60445038739E+02  0.78907873305E+02  0.12934055457E+03  0.82579809665E+02 0.  0.
        -24    2    1    2    0    0  0.86860502451E+02 -0.11903835607E+02 -0.12788005168E+03  0.17505528645E+03  0.81268674828E+02 0.  0.
         11    1    4    4    0    0 -0.42121775514E+01  0.21258973574E+02 -0.32569580274E+02  0.39121144620E+02  0.00000000000E+00 0. -1.
        -12    1    4    4    0    0  0.91072680002E+02 -0.33162809180E+02 -0.95310471401E+02  0.13593414183E+03  0.00000000000E+00 0.  1.
        -13    1    3    3    0    0  0.42484447070E+02  0.27306383286E+02  0.26221339483E+02  0.56904529304E+02  0.00000000000E+00 0. -1.
         13    1    3    3    0    0 -0.37053156748E+02  0.33138655453E+02  0.52686533822E+02  0.72436025266E+02  0.00000000000E+00 0.  1.
          2    1    1    2  501    0 -0.92291792773E+02 -0.48541203133E+02  0.22982811362E+03  0.25237865445E+03  0.00000000000E+00 0. -1.
<scales pt_clust_5="13000.00000" pt_clust_6="13000.00000" pt_clust_7="13000.00000" pt_clust_8="13000.00000" pt_clust_9="87.58736"></scales>
<clustering>
<clus scale="   81.269">  5  6 -1 -1</clus>
<clus scale="   82.580">  7  8 -1 -1</clus>
<clus scale="  102.482">  1  7  2 -1</clus>
<clus scale="   87.587">  2  9  1 -1</clus>
<clus scale="   87.587">  2  5  1 -1</clus>
</clustering>
</event>
<event>
 9    1  0.6270443E-005  0.1087000E+03  0.7546771E-02  0.1266516E+00
         -2   -1    0    0    0  501 -0.00000000000E+00  0.00000000000E+00  0.12425282125E+03  0.12425282125E+03  0.00000000000E+00 0.  1.
         21   -1    0    0  501  502  0.00000000000E+00 -0.00000000000E+00 -0.13536252286E+03  0.13536252286E+03  0.00000000000E+00 0. -1.
        -24    2    1    2    0    0  0.55032075075E+02  0.47288839899E+02 -0.49757685306E+01  0.10942876650E+03  0.81762662621E+02 0.  0.
         23    2    1    2    0    0 -0.42011145621E+02 -0.18594877126E+02 -0.35044452708E+02  0.10742320252E+03  0.90558958489E+02 0.  0.
         13    1    3    3    0    0  0.18876136308E+02  0.32149806694E+02 -0.41545765149E+02  0.55820867014E+02  0.00000000000E+00 0. -1.
        -14    1    3    3    0    0  0.36155938767E+02  0.15139033205E+02  0.36569996618E+02  0.53607899485E+02  0.00000000000E+00 0.  1.
        -13    1    4    4    0    0 -0.68071106092E+02 -0.65222931906E+00 -0.14214345870E+02  0.69542422421E+02  0.00000000000E+00 0.  1.
         13    1    4    4    0    0  0.26059960471E+02 -0.17942647807E+02 -0.20830106838E+02  0.37880780100E+02  0.00000000000E+00 0. -1.
         -1    1    1    2    0  502 -0.13020929454E+02 -0.28693962772E+02  0.28910519633E+02  0.42763375088E+02  0.00000000000E+00 0.  1.
<scales pt_clust_5="13000.00000" pt_clust_6="13000.00000" pt_clust_7="13000.00000" pt_clust_8="13000.00000" pt_clust_9="31.51014"></scales>
<clustering>
<clus scale="   31.510">  2  9  1 -1</clus>
<clus scale="   81.763">  5  6 -1 -1</clus>
<clus scale="   90.559">  7  8 -1 -1</clus>
<clus scale="  101.488">  1  5  2 -1</clus>
<clus scale="   31.510">  2  5  1 -1</clus>
</clustering>
</event>
<event>
 9    1  0.6270443E-005  0.1008811E+03  0.7546771E-02  0.1283328E+00
          1   -1    0    0  502    0 -0.00000000000E+00  0.00000000000E+00  0.43455544234E+02  0.43455544234E+02  0.00000000000E+00 0. -1.
         21   -1    0    0  501  502  0.00000000000E+00 -0.00000000000E+00 -0.58810242867E+03  0.58810242867E+03  0.00000000000E+00 0. -1.
        -24    2    1    2    0    0  0.46365432769E+01 -0.54165686717E+02 -0.13391921163E+03  0.16532016897E+03  0.80255740432E+02 0.  0.
         23    2    1    2    0    0 -0.67693055097E+02  0.10575458861E+01 -0.33781241481E+03  0.35617766967E+03  0.90342883859E+02 0.  0.
         13    1    3    3    0    0 -0.11583472767E+02 -0.71635369874E+02 -0.10790092620E+03  0.13003235341E+03  0.00000000000E+00 0. -1.
        -14    1    3    3    0    0  0.16220016044E+02  0.17469683157E+02 -0.26018285432E+02  0.35287815559E+02  0.00000000000E+00 0.  1.
        -13    1    4    4    0    0  0.16547400700E+02 -0.20056186021E+02 -0.82273952957E+02  0.86284821393E+02  0.00000000000E+00 0.  1.
         13    1    4    4    0    0 -0.84240455796E+02  0.21113731907E+02 -0.25553846185E+03  0.26989284828E+03  0.00000000000E+00 0. -1.
          2    1    1    2  501    0  0.63056511820E+02  0.53108140831E+02 -0.72915257997E+02  0.11006013426E+03  0.00000000000E+00 0. -1.
<scales pt_clust_5="13000.00000" pt_clust_6="13000.00000" pt_clust_7="13000.00000" pt_clust_8="13000.00000" pt_clust_9="82.44153"></scales>
<clustering>
<clus scale="   80.256">  5  6 -1 -1</clus>
<clus scale="   82.442">  2  9  1 -1</clus>
<clus scale="   90.343">  7  8 -1 -1</clus>
<clus scale="   91.957">  1  5  2 -1</clus>
<clus scale="   82.442">  2  5  1 -1</clus>
</clustering>
</event>
<event>
 9    1  0.6270443E-005  0.1008948E+03  0.7546771E-02  0.1282635E+00
         -2   -1    0    0    0  501 -0.00000000000E+00  0.00000000000E+00  0.63576864861E+03  0.63576864861E+03  0.00000000000E+00 0.  1.
         21   -1    0    0  501  502  0.00000000000E+00 -0.00000000000E+00 -0.12667082915E+03  0.12667082915E+03  0.00000000000E+00 0.  1.
        -24    2    1    2    0    0  0.39977428979E+02  0.64826955189E+01  0.47014801225E+03  0.47894828249E+03  0.81927307454E+02 0.  0.
         23    2    1    2    0    0 -0.50227125860E+02 -0.65751025109E+02  0.12715726546E+03  0.17672815452E+03  0.90652683170E+02 0.  0.
         11    1    3    3    0    0  0.15010920681E+02  0.43907127731E+02  0.23770560744E+03  0.24219231907E+03  0.00000000000E+00 0. -1.
        -12    1    3    3    0    0  0.24966508298E+02 -0.37424432212E+02  0.23244240481E+03  0.23675596342E+03  0.00000000000E+00 0.  1.
        -11    1    4    4    0    0 -0.68542392819E+02 -0.16969251701E+02  0.74596320107E+02  0.10271624064E+03  0.00000000000E+00 0. -1.
         11    1    4    4    0    0  0.18315266959E+02 -0.48781773408E+02  0.52560945357E+02  0.74011913889E+02  0.00000000000E+00 0.  1.
         -1    1    1    2    0  502  0.10249696881E+02  0.59268329590E+02 -0.88207458256E+02  0.10676304075E+03  0.00000000000E+00 0.  1.
<scales pt_clust_5="13000.00000" pt_clust_6="13000.00000" pt_clust_7="13000.00000" pt_clust_8="13000.00000" pt_clust_9="60.14808"></scales>
<clustering>
<clus scale="   60.148">  2  9  1 -1</clus>
<clus scale="   81.927">  5  6 -1 -1</clus>
<clus scale="   90.653">  7  8 -1 -1</clus>
<clus scale="   93.134">  1  5  2 -1</clus>
<clus scale="   60.148">  2  5  1 -1</clus>
</clustering>
</event>
<event>
 9    1  0.6270443E-005  0.1303283E+03  0.7546771E-02  0.1230132E+00
         21   -1    0    0  501  502  0.00000000000E+00  0.00000000000E+00  0.19830614875E+03  0.19830614875E+03  0.00000000000E+00 0.  1.
         -2   -1    0    0    0  501 -0.00000000000E+00 -0.00000000000E+00 -0.14789747901E+03  0.14789747901E+03  0.00000000000E+00 0.  1.
         23    2    1    2    0    0 -0.41178612896E+02  0.86326211259E+02 -0.60976108142E+02  0.14633409727E+03  0.92453714629E+02 0.  0.
        -24    2    1    2    0    0  0.52982543146E+02 -0.67781188229E+02  0.38719747168E+02  0.12395209285E+03  0.80395666217E+02 0.  0.
         13    1    4    4    0    0  0.33988409359E+02 -0.85241451147E+02  0.27339026324E+02  0.95753534268E+02  0.00000000000E+00 0. -1.
        -14    1    4    4    0    0  0.18994133787E+02  0.17460262918E+02  0.11380720843E+02  0.28198558587E+02  0.00000000000E+00 0.  1.
        -11    1    3    3    0    0 -0.77284478690E+01  0.49923873767E+02 -0.78951092696E+02  0.93730449248E+02  0.00000000000E+00 0.  1.
         11    1    3    3    0    0 -0.33450165027E+02  0.36402337492E+02  0.17974984554E+02  0.52603648020E+02  0.00000000000E+00 0. -1.
         -1    1    1    2    0  502 -0.11803930249E+02 -0.18545023030E+02  0.72665030719E+02  0.75917437640E+02  0.00000000000E+00 0.  1.
<scales pt_clust_5="13000.00000" pt_clust_6="13000.00000" pt_clust_7="13000.00000" pt_clust_8="13000.00000" pt_clust_9="21.98296"></scales>
<clustering>
<clus scale="   21.983">  1  9  2 -1</clus>
<clus scale="   80.396">  5  6 -1 -1</clus>
<clus scale="   92.454">  7  8 -1 -1</clus>
<clus scale="  122.071">  1  5  2 -1</clus>
<clus scale="   21.983">  1  5  2 -1</clus>
</clustering>
</event>
<event>
 9    1  0.6270443E-005  0.1077870E+03  0.7546771E-02  0.1272039E+00
         21   -1    0    0  501  502  0.00000000000E+00  0.00000000000E+00  0.26817235315E+03  0.26817235315E+03  0.00000000000E+00 0. -1.
         -2   -1    0    0    0  501 -0.00000000000E+00 -0.00000000000E+00 -0.11312894056E+03  0.11312894056E+03  0.00000000000E+00 0.  1.
         23    2    1    2    0    0  0.78843897102E+02 -0.71678950419E+01 -0.64268884397E+01  0.10021569858E+03  0.61107630595E+02 0.  0.
        -24    2    1    2    0    0 -0.23977683631E+02  0.81711334025E+02  0.14551406929E+03  0.18716207834E+03  0.81262708473E+02 0.  0.
         11    1    4    4    0    0  0.22019850340E+02  0.14632393271E+02  0.74975494053E+02  0.79500348744E+02  0.00000000000E+00 0. -1.
        -12    1    4    4    0    0 -0.45997533970E+02  0.67078940754E+02  0.70538575232E+02  0.10766172960E+03  0.00000000000E+00 0.  1.
        -11    1    3    3    0    0  0.51113340088E+02 -0.67438725931E+01 -0.33479385477E+02  0.61472942051E+02  0.00000000000E+00 0.  1.
         11    1    3    3    0    0  0.27730557013E+02 -0.42402244886E+00  0.27052497037E+02  0.38742756526E+02  0.00000000000E+00 0. -1.
         -1    1    1    2    0  502 -0.54866213471E+02 -0.74543438983E+02  0.15956231747E+02  0.93923516797E+02  0.00000000000E+00 0.  1.
<scales pt_clust_5="13000.00000" pt_clust_6="13000.00000" pt_clust_7="13000.00000" pt_clust_8="13000.00000" pt_clust_9="92.55827"></scales>
<clustering>
<clus scale="   61.108">  7  8 -1 -1</clus>
<clus scale="   81.263">  5  6 -1 -1</clus>
<clus scale="   92.558">  1  9  2 -1</clus>
<clus scale="   93.534">  2  7  1 -1</clus>
<clus scale="   92.558">  1  5  2 -1</clus>
</clustering>
</event>
<event>
 9    1  0.6270443E-005  0.1210659E+03  0.7546771E-02  0.1244123E+00
         21   -1    0    0  501  502  0.00000000000E+00  0.00000000000E+00  0.12201419948E+04  0.12201419948E+04  0.00000000000E+00 0. -1.
         -4   -1    0    0    0  501 -0.00000000000E+00 -0.00000000000E+00 -0.66741177456E+02  0.66741177456E+02  0.00000000000E+00 0.  1.
         23    2    1    2    0    0  0.80088384092E+02 -0.45793807341E+01  0.85991191913E+01  0.12115486874E+03  0.90384939979E+02 0.  0.
        -24    2    1    2    0    0 -0.87417677917E+02 -0.23738754482E+02  0.11221448793E+04  0.11287287526E+04  0.81327042461E+02 0.  0.
         13    1    4    4    0    0 -0.43779764964E+02 -0.13352937144E+02  0.18741497280E+03  0.19292314735E+03  0.00000000000E+00 0. -1.
        -14    1    4    4    0    0 -0.43637912954E+02 -0.10385817338E+02  0.93472990652E+03  0.93580560524E+03  0.00000000000E+00 0.  1.
        -13    1    3    3    0    0  0.66313597950E+02  0.37116787539E+02 -0.18472024285E+01  0.76016849100E+02  0.00000000000E+00 0.  1.
         13    1    3    3    0    0  0.13774786141E+02 -0.41696168273E+02  0.10446321620E+02  0.45138019643E+02  0.00000000000E+00 0. -1.
         -3    1    1    2    0  502  0.73292938258E+01  0.28318135216E+02  0.22656818841E+02  0.36999550945E+02  0.00000000000E+00 0.  1.
<scales pt_clust_5="13000.00000" pt_clust_6="13000.00000" pt_clust_7="13000.00000" pt_clust_8="13000.00000" pt_clust_9="29.25126"></scales>
<clustering>
<clus scale="   29.251">  1  9  2 -1</clus>
<clus scale="   81.327">  5  6 -1 -1</clus>
<clus scale="   90.385">  7  8 -1 -1</clus>
<clus scale="  114.462">  1  5  2 -1</clus>
<clus scale="   29.251">  1  5  2 -1</clus>
</clustering>
</event>
<event>
 9    1  0.6270443E-005  0.1607473E+03  0.7546771E-02  0.1189680E+00
          1   -1    0    0  502    0 -0.00000000000E+00  0.00000000000E+00  0.42259309032E+03  0.42259309032E+03  0.00000000000E+00 0. -1.
         21   -1    0    0  501  502  0.00000000000E+00 -0.00000000000E+00 -0.19021991219E+03  0.19021991219E+03  0.00000000000E+00 0.  1.
        -24    2    1    2    0    0 -0.98394561249E+02  0.92887852678E+02  0.35032081806E+03  0.38409917528E+03  0.80609292429E+02 0.  0.
         23    2    1    2    0    0  0.94069199358E+02 -0.59849329432E+02 -0.50083827304E+02  0.15311124899E+03  0.92215553504E+02 0.  0.
         11    1    3    3    0    0 -0.10493133558E+03  0.81161349021E+02  0.34505773768E+03  0.36967903929E+03  0.00000000000E+00 0. -1.
        -12    1    3    3    0    0  0.65367743326E+01  0.11726503657E+02  0.52630803782E+01  0.14420135982E+02  0.00000000000E+00 0.  1.
        -11    1    4    4    0    0  0.25443088339E+02 -0.36651344658E+01  0.25775591000E+02  0.36402816461E+02  0.00000000000E+00 0. -1.
         11    1    4    4    0    0  0.68626111019E+02 -0.56184194966E+02 -0.75859418304E+02  0.11670843253E+03  0.00000000000E+00 0.  1.
          2    1    1    2  501    0  0.43253618903E+01 -0.33038523246E+02 -0.67863812618E+02  0.75602578241E+02  0.00000000000E+00 0. -1.
<scales pt_clust_5="13000.00000" pt_clust_6="13000.00000" pt_clust_7="13000.00000" pt_clust_8="13000.00000" pt_clust_9="33.32046"></scales>
<clustering>
<clus scale="   33.320">  2  9  1 -1</clus>
<clus scale="   80.609">  5  6 -1 -1</clus>
<clus scale="   92.216">  7  8 -1 -1</clus>
<clus scale="  154.382">  1  5  2 -1</clus>
<clus scale="   33.320">  2  5  1 -1</clus>
</clustering>
</event>
<event>
 9    1  0.6270443E-005  0.2129563E+03  0.7546771E-02  0.1140202E+00
         21   -1    0    0  501  502  0.00000000000E+00  0.00000000000E+00  0.34346215040E+03  0.34346215040E+03  0.00000000000E+00 0. -1.
          3   -1    0    0  502    0 -0.00000000000E+00 -0.00000000000E+00 -0.33667736125E+03  0.33667736125E+03  0.00000000000E+00 0. -1.
         23    2    1    2    0    0 -0.10530677476E+02  0.19544348522E+03 -0.16565410643E+03  0.27237945114E+03  0.91870731684E+02 0.  0.
        -24    2    1    2    0    0 -0.38088899653E+02 -0.17444830232E+03  0.24775241207E+03  0.31569059352E+03  0.79976988510E+02 0.  0.
         11    1    4    4    0    0 -0.25807984870E+02 -0.17929566085E+03  0.22016313958E+03  0.28510488266E+03  0.00000000000E+00 0. -1.
        -12    1    4    4    0    0 -0.12280914782E+02  0.48473585322E+01  0.27589272491E+02  0.30585710867E+02  0.00000000000E+00 0.  1.
        -13    1    3    3    0    0 -0.22260781243E+02  0.66298667448E+02 -0.11199918923E+03  0.13204118326E+03  0.00000000000E+00 0. -1.
         13    1    3    3    0    0  0.11730103768E+02  0.12914481777E+03 -0.53654917200E+02  0.14033826788E+03  0.00000000000E+00 0.  1.
          4    1    1    2  501    0  0.48619577128E+02 -0.20995182904E+02 -0.75313516496E+02  0.92069466992E+02  0.00000000000E+00 0. -1.
<scales pt_clust_5="13000.00000" pt_clust_6="13000.00000" pt_clust_7="13000.00000" pt_clust_8="13000.00000" pt_clust_9="52.95908"></scales>
<clustering>
<clus scale="   52.959">  1  9  2 -1</clus>
<clus scale="   79.977">  5  6 -1 -1</clus>
<clus scale="   91.871">  7  8 -1 -1</clus>
<clus scale="  208.102">  1  5  2 -1</clus>
<clus scale="   52.959">  1  5  2 -1</clus>
</clustering>
</event>
<event>
 9    1  0.6270443E-005  0.2250696E+03  0.7546771E-02  0.1159222E+00
          1   -1    0    0  502    0 -0.00000000000E+00  0.00000000000E+00  0.27611889269E+03  0.27611889269E+03  0.00000000000E+00 0. -1.
         21   -1    0    0  501  502  0.00000000000E+00 -0.00000000000E+00 -0.57133607018E+03  0.57133607018E+03  0.00000000000E+00 0. -1.
        -24    2    1    2    0    0  0.17421568013E+02  0.79467911826E+02 -0.10306264316E+03  0.15241994869E+03  0.77403309364E+02 0.  0.
         23    2    1    2    0    0 -0.10596474960E+03  0.11363754549E+03  0.18726572856E+03  0.26019096336E+03  0.92135033600E+02 0.  0.
         13    1    3    3    0    0 -0.12450560875E+02  0.46953577886E+02 -0.96156216041E+02  0.10772962836E+03  0.00000000000E+00 0. -1.
        -14    1    3    3    0    0  0.29872128888E+02  0.32514333940E+02 -0.69064271222E+01  0.44690320333E+02  0.00000000000E+00 0.  1.
        -11    1    4    4    0    0  0.98909692669E+01  0.43928824773E+02  0.54500794887E+02  0.70695894946E+02  0.00000000000E+00 0.  1.
         11    1    4    4    0    0 -0.11585571887E+03  0.69708720713E+02  0.13276493367E+03  0.18949506841E+03  0.00000000000E+00 0. -1.
          2    1    1    2  501    0  0.88543181590E+02 -0.19310545731E+03 -0.37942026288E+03  0.43484405082E+03  0.00000000000E+00 0. -1.
<scales pt_clust_5="13000.00000" pt_clust_6="13000.00000" pt_clust_7="13000.00000" pt_clust_8="13000.00000" pt_clust_9="205.34715"></scales>
<clustering>
<clus scale="   77.403">  5  6 -1 -1</clus>
<clus scale="   92.135">  7  8 -1 -1</clus>
<clus scale="  112.294">  1  5  2 -1</clus>
<clus scale="  205.347">  2  9  1 -1</clus>
<clus scale="  205.347">  2  5  1 -1</clus>
</clustering>
</event>
<event>
 9    1  0.6270443E-005  0.9990922E+02  0.7546771E-02  0.1285775E+00
          1   -1    0    0  502    0 -0.00000000000E+00  0.00000000000E+00  0.13120208682E+03  0.13120208682E+03  0.00000000000E+00 0. -1.
         21   -1    0    0  501  502  0.00000000000E+00 -0.00000000000E+00 -0.98494013768E+02  0.98494013768E+02  0.00000000000E+00 0.  1.
        -24    2    1    2    0    0  0.16701977676E+02 -0.46628166795E+02  0.33559513174E+02  0.10117450875E+03  0.81589817373E+02 0.  0.
         23    2    1    2    0    0 -0.60289553462E+01  0.20327235221E+02 -0.16869454928E+02  0.95929733877E+02  0.92023858525E+02 0.  0.
         11    1    3    3    0    0  0.48944011183E+02 -0.18405609626E+02  0.14400782293E+02  0.54237120379E+02  0.00000000000E+00 0. -1.
        -12    1    3    3    0    0 -0.32242033508E+02 -0.28222557169E+02  0.19158730881E+02  0.46937388368E+02  0.00000000000E+00 0.  1.
        -11    1    4    4    0    0  0.30958212115E+02  0.28335061898E+02 -0.34360016424E+02  0.54239260308E+02  0.00000000000E+00 0.  1.
         11    1    4    4    0    0 -0.36987167462E+02 -0.80078266769E+01  0.17490561496E+02  0.41690473569E+02  0.00000000000E+00 0. -1.
          2    1    1    2  501    0 -0.10673022329E+02  0.26300931574E+02  0.16018014810E+02  0.32591857967E+02  0.00000000000E+00 0. -1.
<scales pt_clust_5="13000.00000" pt_clust_6="13000.00000" pt_clust_7="13000.00000" pt_clust_8="13000.00000" pt_clust_9="28.38403"></scales>
<clustering>
<clus scale="   28.384">  2  9  1 -1</clus>
<clus scale="   81.590">  5  6 -1 -1</clus>
<clus scale="   90.390">  1  5  2 -1</clus>
<clus scale="   92.024">  7  8 -1 -1</clus>
<clus scale="   28.384">  2  5  1 -1</clus>
</clustering>
</event>
<event>
 9    1  0.6270443E-005  0.2182146E+03  0.7546771E-02  0.1137925E+00
         -2   -1    0    0    0  501 -0.00000000000E+00  0.00000000000E+00  0.23856901963E+03  0.23856901963E+03  0.00000000000E+00 0.  1.
         21   -1    0    0  501  502  0.00000000000E+00 -0.00000000000E+00 -0.11160705014E+04  0.11160705014E+04  0.00000000000E+00 0. -1.
        -24    2    1    2    0    0  0.18656382853E+03 -0.37822049344E+02  0.68881515808E+01  0.20447235016E+03  0.74329844724E+02 0.  0.
         23    2    1    2    0    0  0.15824957546E+03  0.92756430457E+02 -0.74773638829E+03  0.77521626847E+03  0.90575233919E+02 0.  0.
         13    1    3    3    0    0  0.18385114684E+03 -0.18505610975E+02  0.78040986286E+01  0.18494487229E+03  0.00000000000E+00 0. -1.
        -14    1    3    3    0    0  0.27126816968E+01 -0.19316438369E+02 -0.91594704785E+00  0.19527477877E+02  0.00000000000E+00 0.  1.
        -13    1    4    4    0    0  0.11371631974E+03  0.29346337970E+02 -0.55880176775E+03  0.57100965366E+03  0.00000000000E+00 0. -1.
         13    1    4    4    0    0  0.44533255718E+02  0.63410092487E+02 -0.18893462054E+03  0.20420661481E+03  0.00000000000E+00 0.  1.
         -1    1    1    2    0  502 -0.34481340399E+03 -0.54934381113E+02 -0.13665324502E+03  0.37495090235E+03  0.00000000000E+00 0.  1.
<scales pt_clust_5="13000.00000" pt_clust_6="13000.00000" pt_clust_7="13000.00000" pt_clust_8="13000.00000" pt_clust_9="198.52908"></scales>
<clustering>
<clus scale="   74.330">  5  6 -1 -1</clus>
<clus scale="   90.575">  7  8 -1 -1</clus>
<clus scale="  204.356">  1  5  2 -1</clus>
<clus scale="  198.529">  2  9  1 -1</clus>
<clus scale="  198.529">  2  5  1 -1</clus>
</clustering>
</event>
<event>
 9    1  0.6270443E-005  0.1936005E+03  0.7546771E-02  0.1199764E+00
         21   -1    0    0  501  502  0.00000000000E+00  0.00000000000E+00  0.88178352629E+03  0.88178352629E+03  0.00000000000E+00 0.  1.
         -2   -1    0    0    0  501 -0.00000000000E+00 -0.00000000000E+00 -0.10821380116E+03  0.10821380116E+03  0.00000000000E+00 0.  1.
        -24    2    1    2    0    0  0.69864733292E+01 -0.81905719400E+01  0.76195163332E+02  0.10404414531E+03  0.70025602322E+02 0.  0.
         23    2    1    2    0    0  0.45057703567E+02 -0.16311535187E+03  0.67928755363E+03  0.70600470132E+03  0.91510890642E+02 0.  0.
         11    1    3    3    0    0  0.32313406540E+02 -0.24562097883E+02  0.46457179881E+02  0.61690537825E+02  0.00000000000E+00 0. -1.
        -12    1    3    3    0    0 -0.25326933211E+02  0.16371525943E+02  0.29737983452E+02  0.42353607489E+02  0.00000000000E+00 0.  1.
        -11    1    4    4    0    0  0.66458121725E+02 -0.69025958160E+02  0.34805947946E+03  0.36100784768E+03  0.00000000000E+00 0.  1.
         11    1    4    4    0    0 -0.21400418158E+02 -0.94089393711E+02  0.33122807417E+03  0.34499685364E+03  0.00000000000E+00 0. -1.
         -1    1    1    2    0  502 -0.52044176896E+02  0.17130592381E+03  0.18087008171E+02  0.17994848081E+03  0.00000000000E+00 0.  1.
<scales pt_clust_5="13000.00000" pt_clust_6="13000.00000" pt_clust_7="13000.00000" pt_clust_8="13000.00000" pt_clust_9="170.60753"></scales>
<clustering>
<clus scale="   70.026">  5  6 -1 -1</clus>
<clus scale="   70.848">  2  5  1 -1</clus>
<clus scale="   91.511">  7  8 -1 -1</clus>
<clus scale="  170.608">  1  9  2 -1</clus>
<clus scale="  170.608">  1  5  2 -1</clus>
</clustering>
</event>
<event>
 9    1  0.6270443E-005  0.1590584E+03  0.7546771E-02  0.1191208E+00
          3   -1    0    0  502    0 -0.00000000000E+00  0.00000000000E+00  0.33893313909E+03  0.33893313909E+03  0.00000000000E+00 0. -1.
         21   -1    0    0  501  502  0.00000000000E+00 -0.00000000000E+00 -0.11451082635E+03  0.11451082635E+03  0.00000000000E+00 0.  1.
         23    2    1    2    0    0 -0.85094384530E+02 -0.86308547630E+02  0.11460509213E+03  0.19131471976E+03  0.93684444712E+02 0.  0.
        -24    2    1    2    0    0  0.62818838074E+02  0.13228135968E+03  0.37174037368E+02  0.17332197408E+03  0.84935464395E+02 0.  0.
         13    1    4    4    0    0 -0.13217795474E+02  0.35727537625E+02  0.32922355645E+02  0.50349265766E+02  0.00000000000E+00 0. -1.
        -14    1    4    4    0    0  0.76036633548E+02  0.96553822050E+02  0.42516817231E+01  0.12297270832E+03  0.00000000000E+00 0.  1.
        -11    1    3    3    0    0 -0.78326194168E+02 -0.12957080195E+02  0.55420827846E+02  0.96821210379E+02  0.00000000000E+00 0. -1.
         11    1    3    3    0    0 -0.67681903613E+01 -0.73351467435E+02  0.59184264288E+02  0.94493509380E+02  0.00000000000E+00 0.  1.
          4    1    1    2  501    0  0.22275546456E+02 -0.45972812045E+02  0.72643183242E+02  0.88807271598E+02  0.00000000000E+00 0. -1.
<scales pt_clust_5="13000.00000" pt_clust_6="13000.00000" pt_clust_7="13000.00000" pt_clust_8="13000.00000" pt_clust_9="51.08524"></scales>
<clustering>
<clus scale="   51.085">  2  9  1 -1</clus>
<clus scale="   84.935">  5  6 -1 -1</clus>
<clus scale="   93.684">  7  8 -1 -1</clus>
<clus scale="  154.068">  2  5  1 -1</clus>
<clus scale="   51.085">  2  5  1 -1</clus>
</clustering>
</event>
<event>
 9    1  0.6270443E-005  0.1333835E+03  0.7546771E-02  0.1224475E+00
         -2   -1    0    0    0  501 -0.00000000000E+00  0.00000000000E+00  0.19984610837E+03  0.19984610837E+03  0.00000000000E+00 0.  1.
         21   -1    0    0  501  502  0.00000000000E+00 -0.00000000000E+00 -0.14933392589E+03  0.14933392589E+03  0.00000000000E+00 0.  1.
         23    2    1    2    0    0  0.16013724012E+01  0.88970944427E+02  0.78770773663E+02  0.14872363978E+03  0.89417520102E+02 0.  0.
        -24    2    1    2    0    0  0.45211435745E+01 -0.12788720488E+03 -0.44300264027E+02  0.15792057666E+03  0.81245413586E+02 0.  0.
         11    1    4    4    0    0 -0.36144735453E+02 -0.48366931002E+02 -0.57919152566E+01  0.60657630995E+02  0.00000000000E+00 0. -1.
        -12    1    4    4    0    0  0.40665879027E+02 -0.79520273878E+02 -0.38508348771E+02  0.97262945666E+02  0.00000000000E+00 0.  1.
        -13    1    3    3    0    0  0.43914234284E+02  0.38941167398E+02  0.50235881607E+02  0.77256186108E+02  0.00000000000E+00 0.  1.
         13    1    3    3    0    0 -0.42312861883E+02  0.50029777028E+02  0.28534892056E+02  0.71467453675E+02  0.00000000000E+00 0. -1.
         -1    1    1    2    0  502 -0.61225159757E+01  0.38916260453E+02  0.16041672845E+02  0.42535817815E+02  0.00000000000E+00 0.  1.
<scales pt_clust_5="13000.00000" pt_clust_6="13000.00000" pt_clust_7="13000.00000" pt_clust_8="13000.00000" pt_clust_9="39.39495"></scales>
<clustering>
<clus scale="   39.395">  2  9  1 -1</clus>
<clus scale="   81.245">  5  6 -1 -1</clus>
<clus scale="   89.418">  7  8 -1 -1</clus>
<clus scale="  128.049">  2  5  1 -1</clus>
<clus scale="   39.395">  2  5  1 -1</clus>
</clustering>
</event>
<event>
 9    1  0.6270443E-005  0.9568746E+02  0.7546771E-02  0.1289906E+00
         21   -1    0    0  501  502  0.00000000000E+00  0.00000000000E+00  0.11488439515E+03  0.11488439515E+03  0.00000000000E+00 0. -1.
          3   -1    0    0  502    0 -0.00000000000E+00 -0.00000000000E+00 -0.19226715409E+03  0.19226715409E+03  0.00000000000E+00 0. -1.
         23    2    1    2    0    0 -0.39510270713E+02 -0.25341652064E+02 -0.11846953112E+03  0.15152024469E+03  0.81976179017E+02 0.  0.
        -24    2    1    2    0    0  0.38121243649E+02  0.54582608677E+02  0.59710664960E+02  0.12093530590E+03  0.81409423992E+02 0.  0.
         11    1    4    4    0    0  0.34042469788E+02  0.27775472434E+02  0.77087806151E+02  0.88729343936E+02  0.00000000000E+00 0. -1.
        -12    1    4    4    0    0  0.40787738606E+01  0.26807136244E+02 -0.17377141190E+02  0.32205961960E+02  0.00000000000E+00 0.  1.
        -13    1    3    3    0    0 -0.54229102999E+02  0.10053999131E+02 -0.80362794298E+02  0.97468236970E+02  0.00000000000E+00 0. -1.
         13    1    3    3    0    0  0.14718832286E+02 -0.35395651196E+02 -0.38106736821E+02  0.54052007720E+02  0.00000000000E+00 0.  1.
          4    1    1    2  501    0  0.13890270643E+01 -0.29240956613E+02 -0.18623892781E+02  0.34695998648E+02  0.00000000000E+00 0. -1.
<scales pt_clust_5="13000.00000" pt_clust_6="13000.00000" pt_clust_7="13000.00000" pt_clust_8="13000.00000" pt_clust_9="29.27394"></scales>
<clustering>
<clus scale="   29.274">  1  9  2 -1</clus>
<clus scale="   81.409">  5  6 -1 -1</clus>
<clus scale="   81.976">  7  8 -1 -1</clus>
<clus scale="   95.202">  1  5  2 -1</clus>
<clus scale="   29.274">  1  5  2 -1</clus>
</clustering>
</event>
<event>
 9    1  0.6270443E-005  0.9978009E+03  0.7546771E-02  0.9310960E-01
         -2   -1    0    0    0  501 -0.00000000000E+00  0.00000000000E+00  0.91634413771E+03  0.91634413771E+03  0.00000000000E+00 0.  1.
         21   -1    0    0  501  502  0.00000000000E+00 -0.00000000000E+00 -0.98666813199E+03  0.98666813199E+03  0.00000000000E+00 0.  1.
        -24    2    1    2    0    0  0.30527658417E+03 -0.52994550970E+03 -0.24994214090E+03  0.66571235160E+03  0.81644504934E+02 0.  0.
         23    2    1    2    0    0 -0.83742368568E+01 -0.31179387712E+03  0.10922929491E+03  0.34196155211E+03  0.87869873111E+02 0.  0.
         13    1    3    3    0    0  0.13904815250E+03 -0.31847816999E+03 -0.12729947013E+03  0.37009172994E+03  0.00000000000E+00 0. -1.
        -14    1    3    3    0    0  0.16622843167E+03 -0.21146733971E+03 -0.12264267077E+03  0.29562062166E+03  0.00000000000E+00 0.  1.
        -11    1    4    4    0    0  0.15335989723E+01 -0.17472846170E+03  0.10625659213E+03  0.20450635840E+03  0.00000000000E+00 0.  1.
         11    1    4    4    0    0 -0.99078358291E+01 -0.13706541543E+03  0.29727027753E+01  0.13745519372E+03  0.00000000000E+00 0. -1.
         -1    1    1    2    0  502 -0.29690234732E+03  0.84173938682E+03  0.70388851709E+02  0.89533836599E+03  0.00000000000E+00 0.  1.
<scales pt_clust_5="13000.00000" pt_clust_6="13000.00000" pt_clust_7="13000.00000" pt_clust_8="13000.00000" pt_clust_9="892.56764"></scales>
<clustering>
<clus scale="   81.645">  5  6 -1 -1</clus>
<clus scale="   87.870">  7  8 -1 -1</clus>
<clus scale="  304.142">  5  7 -1 -1</clus>
<clus scale="  892.568">  2  9  1 -1</clus>
<clus scale="  892.568">  2  5  1 -1</clus>
</clustering>
</event>
<event>
 9    1  0.6270443E-005  0.2052035E+03  0.7546771E-02  0.1147756E+00
         21   -1    0    0  501  502  0.00000000000E+00  0.00000000000E+00  0.18760125536E+03  0.18760125536E+03  0.00000000000E+00 0. -1.
          1   -1    0    0  502    0 -0.00000000000E+00 -0.00000000000E+00 -0.38256117172E+03  0.38256117172E+03  0.00000000000E+00 0. -1.
        -24    2    1    2    0    0 -0.14470993160E+03 -0.38930827740E+02 -0.24205125880E+02  0.17158416699E+03  0.79991653255E+02 0.  0.
         23    2    1    2    0    0  0.15672170301E+03  0.15365317712E+03 -0.96385945833E+02  0.26133313211E+03  0.10408537049E+03 0.  0.
         13    1    3    3    0    0 -0.65586023076E+02 -0.34419692426E+02  0.25146999033E+02  0.78221564866E+02  0.00000000000E+00 0. -1.
        -14    1    3    3    0    0 -0.79123908529E+02 -0.45111353139E+01 -0.49352124914E+02  0.93362602128E+02  0.00000000000E+00 0.  1.
        -11    1    4    4    0    0  0.83778627215E+02  0.42758186127E+02 -0.87232839031E+02  0.12828362742E+03  0.00000000000E+00 0.  1.
         11    1    4    4    0    0  0.72943075791E+02  0.11089499099E+03 -0.91531068019E+01  0.13304950469E+03  0.00000000000E+00 0. -1.
          2    1    1    2  501    0 -0.12011771402E+02 -0.11472234938E+03 -0.74368844646E+02  0.13724512798E+03  0.00000000000E+00 0. -1.
<scales pt_clust_5="13000.00000" pt_clust_6="13000.00000" pt_clust_7="13000.00000" pt_clust_8="13000.00000" pt_clust_9="115.34953"></scales>
<clustering>
<clus scale="   79.992">  5  6 -1 -1</clus>
<clus scale="  104.085">  7  8 -1 -1</clus>
<clus scale="  115.350">  1  9  2 -1</clus>
<clus scale="  194.096">  2  5  1 -1</clus>
<clus scale="  115.350">  1  5  2 -1</clus>
</clustering>
</event>
<event>
 9    1  0.6270443E-005  0.9920549E+02  0.7546771E-02  0.1287290E+00
         -2   -1    0    0    0  501 -0.00000000000E+00  0.00000000000E+00  0.34015650489E+03  0.34015650489E+03  0.00000000000E+00 0.  1.
         21   -1    0    0  501  502  0.00000000000E+00 -0.00000000000E+00 -0.48317607679E+02  0.48317607679E+02  0.00000000000E+00 0. -1.
         23    2    1    2    0    0 -0.49595413910E+02  0.14028028258E+02  0.17550769972E+03  0.20470841569E+03  0.91902623125E+02 0.  0.
        -24    2    1    2    0    0  0.25693116464E+02  0.12163596104E+02  0.12027609139E+03  0.14808820820E+03  0.81582411975E+02 0.  0.
         11    1    4    4    0    0  0.89487705272E+01  0.39989284722E+02  0.26381424066E+02  0.48736053618E+02  0.00000000000E+00 0. -1.
        -12    1    4    4    0    0  0.16744345937E+02 -0.27825688617E+02  0.93894667328E+02  0.99352154585E+02  0.00000000000E+00 0.  1.
        -13    1    3    3    0    0 -0.37541474523E+02 -0.25741749685E+02  0.14807608367E+03  0.15491457821E+03  0.00000000000E+00 0.  1.
         13    1    3    3    0    0 -0.12053939387E+02  0.39769777943E+02  0.27431616047E+02  0.49793837484E+02  0.00000000000E+00 0. -1.
         -1    1    1    2    0  502  0.23902297446E+02 -0.26191624362E+02 -0.39448939055E+01  0.35677488671E+02  0.00000000000E+00 0.  1.
<scales pt_clust_5="13000.00000" pt_clust_6="13000.00000" pt_clust_7="13000.00000" pt_clust_8="13000.00000" pt_clust_9="35.45872"></scales>
<clustering>
<clus scale="   35.459">  2  9  1 -1</clus>
<clus scale="   81.582">  5  6 -1 -1</clus>
<clus scale="   89.729">  2  5  1 -1</clus>
<clus scale="   91.903">  7  8 -1 -1</clus>
<clus scale="   35.459">  2  5  1 -1</clus>
</clustering>
</event>
<event>
 9    1  0.6270443E-005  0.2839523E+03  0.7546771E-02  0.1103216E+00
          1   -1    0    0  502    0 -0.00000000000E+00  0.00000000000E+00  0.13778086416E+04  0.13778086416E+04  0.00000000000E+00 0. -1.
         21   -1    0    0  501  502  0.00000000000E+00 -0.00000000000E+00 -0.17306859366E+03  0.17306859366E+03  0.00000000000E+00 0. -1.
        -24    2    1    2    0    0  0.11714531047E+03  0.17284590671E+03  0.14430580335E+02  0.22126781684E+03  0.71780734806E+02 0.  0.
         23    2    1    2    0    0 -0.19482665350E+03  0.14788761024E+03  0.57906360421E+03  0.63496858643E+03  0.89678748078E+02 0.  0.
         11    1    3    3    0    0  0.91637842040E+02  0.16914288852E+03  0.23809971584E+02  0.19383943246E+03  0.00000000000E+00 0. -1.
        -12    1    3    3    0    0  0.25507468433E+02  0.37030181918E+01 -0.93793912489E+01  0.27428384381E+02  0.00000000000E+00 0.  1.
        -11    1    4    4    0    0 -0.25716374461E+02  0.68601355428E+02  0.14623268991E+03  0.16355878906E+03  0.00000000000E+00 0.  1.
         11    1    4    4    0    0 -0.16911027904E+03  0.79286254811E+02  0.43283091430E+03  0.47140979737E+03  0.00000000000E+00 0. -1.
          2    1    1    2  501    0  0.77681343030E+02 -0.32073351695E+03  0.61124586339E+03  0.69464083198E+03  0.00000000000E+00 0. -1.
<scales pt_clust_5="13000.00000" pt_clust_6="13000.00000" pt_clust_7="13000.00000" pt_clust_8="13000.00000" pt_clust_9="269.41919"></scales>
<clustering>
<clus scale="   71.781">  5  6 -1 -1</clus>
<clus scale="   89.679">  7  8 -1 -1</clus>
<clus scale="  220.797">  1  5  2 -1</clus>
<clus scale="  269.419">  2  9  1 -1</clus>
<clus scale="  269.419">  2  5  1 -1</clus>
</clustering>
</event>
<event>
 9    1  0.6270443E-005  0.1097612E+03  0.7546771E-02  0.1265881E+00
          1   -1    0    0  502    0 -0.00000000000E+00  0.00000000000E+00  0.68921515939E+03  0.68921515939E+03  0.00000000000E+00 0. -1.
         21   -1    0    0  501  502  0.00000000000E+00 -0.00000000000E+00 -0.42990739529E+02  0.42990739529E+02  0.00000000000E+00 0. -1.
        -24    2    1    2    0    0  0.14252232496E+02 -0.78431002539E+02  0.37061335807E+03  0.38758564961E+03  0.80708279075E+02 0.  0.
         23    2    1    2    0    0 -0.56511653355E+02  0.63743512690E+01  0.21646810048E+03  0.24226835868E+03  0.92743300419E+02 0.  0.
         11    1    3    3    0    0  0.24118632936E+02 -0.63107812911E+02  0.36043326457E+03  0.36671029807E+03  0.00000000000E+00 0. -1.
        -12    1    3    3    0    0 -0.98664004403E+01 -0.15323189628E+02  0.10180093503E+02  0.20875351536E+02  0.00000000000E+00 0.  1.
        -13    1    4    4    0    0  0.13152486121E+02  0.23263335933E+02  0.11480903088E+03  0.11787826035E+03  0.00000000000E+00 0.  1.
         13    1    4    4    0    0 -0.69664139476E+02 -0.16888984664E+02  0.10165906959E+03  0.12439009833E+03  0.00000000000E+00 0. -1.
          2    1    1    2  501    0  0.42259420859E+02  0.72056651270E+02  0.59142961315E+02  0.10235189064E+03  0.00000000000E+00 0. -1.
<scales pt_clust_5="13000.00000" pt_clust_6="13000.00000" pt_clust_7="13000.00000" pt_clust_8="13000.00000" pt_clust_9="83.53454"></scales>
<clustering>
<clus scale="   80.708">  5  6 -1 -1</clus>
<clus scale="   83.535">  2  9  1 -1</clus>
<clus scale="   92.743">  7  8 -1 -1</clus>
<clus scale="   99.800">  1  5  2 -1</clus>
<clus scale="   83.535">  2  5  1 -1</clus>
</clustering>
</event>
<event>
 9    1  0.6270443E-005  0.1859923E+03  0.7546771E-02  0.1163397E+00
          1   -1    0    0  502    0 -0.00000000000E+00  0.00000000000E+00  0.12623999069E+03  0.12623999069E+03  0.00000000000E+00 0. -1.
         21   -1    0    0  501  502  0.00000000000E+00 -0.00000000000E+00 -0.48921933993E+03  0.48921933993E+03  0.00000000000E+00 0. -1.
         23    2    1    2    0    0 -0.14855028284E+03  0.64558802263E+02 -0.61512654855E+02  0.19654577750E+03  0.92797685653E+02 0.  0.
        -24    2    1    2    0    0  0.16925939440E+03  0.17339266190E+00 -0.29620986265E+03  0.35074641557E+03  0.81449325635E+02 0.  0.
         11    1    4    4    0    0  0.16274901058E+03  0.17976870754E+02 -0.23317453454E+03  0.28492239625E+03  0.00000000000E+00 0. -1.
        -12    1    4    4    0    0  0.65103838225E+01 -0.17803478092E+02 -0.63035328108E+02  0.65824019320E+02  0.00000000000E+00 0.  1.
        -11    1    3    3    0    0 -0.90488016771E+02  0.57238776751E+02  0.59503396106E+01  0.10723695858E+03  0.00000000000E+00 0.  1.
         11    1    3    3    0    0 -0.58062266073E+02  0.73200255114E+01 -0.67462994466E+02  0.89308818922E+02  0.00000000000E+00 0. -1.
          2    1    1    2  501    0 -0.20709111557E+02 -0.64732194924E+02 -0.52568317321E+01  0.68167137545E+02  0.00000000000E+00 0. -1.
<scales pt_clust_5="13000.00000" pt_clust_6="13000.00000" pt_clust_7="13000.00000" pt_clust_8="13000.00000" pt_clust_9="67.96417"></scales>
<clustering>
<clus scale="   67.964">  2  9  1 -1</clus>
<clus scale="   81.449">  5  6 -1 -1</clus>
<clus scale="   92.798">  7  8 -1 -1</clus>
<clus scale="  180.598">  2  5  1 -1</clus>
<clus scale="   67.964">  2  5  1 -1</clus>
</clustering>
</event>
<event>
 9    1  0.6270443E-005  0.1046683E+03  0.7546771E-02  0.1274237E+00
         21   -1    0    0  501  502  0.00000000000E+00  0.00000000000E+00  0.79684792967E+02  0.79684792967E+02  0.00000000000E+00 0.  1.
          1   -1    0    0  502    0 -0.00000000000E+00 -0.00000000000E+00 -0.34724523521E+03  0.34724523521E+03  0.00000000000E+00 0. -1.
         23    2    1    2    0    0 -0.29243205612E+02  0.50686716197E+02 -0.19388699657E+03  0.22126633406E+03  0.89119666040E+02 0.  0.
        -24    2    1    2    0    0  0.31207586486E+02 -0.25267469067E+02  0.32753022014E+02  0.96226086593E+02  0.81082309061E+02 0.  0.
         11    1    4    4    0    0 -0.17819803937E+02  0.14454178367E+02  0.22800281157E+02  0.32346893289E+02  0.00000000000E+00 0. -1.
        -12    1    4    4    0    0  0.49027390423E+02 -0.39721647435E+02  0.99527408574E+01  0.63879193304E+02  0.00000000000E+00 0.  1.
        -13    1    3    3    0    0 -0.18268881265E+02  0.76279286814E+02 -0.13512682645E+03  0.15624193050E+03  0.00000000000E+00 0. -1.
         13    1    3    3    0    0 -0.10974324347E+02 -0.25592570617E+02 -0.58760170119E+02  0.65024403558E+02  0.00000000000E+00 0.  1.
          2    1    1    2  501    0 -0.19643808745E+01 -0.25419247129E+02 -0.10642646769E+03  0.10943760753E+03  0.00000000000E+00 0. -1.
<scales pt_clust_5="13000.00000" pt_clust_6="13000.00000" pt_clust_7="13000.00000" pt_clust_8="13000.00000" pt_clust_9="25.49505"></scales>
<clustering>
<clus scale="   25.495">  1  9  2 -1</clus>
<clus scale="   81.082">  5  6 -1 -1</clus>
<clus scale="   89.120">  7  8 -1 -1</clus>
<clus scale="   97.916">  1  5  2 -1</clus>
<clus scale="   25.495">  1  5  2 -1</clus>
</clustering>
</event>
<event>
 9    1  0.6270443E-005  0.9813162E+02  0.7546771E-02  0.1291402E+00
          1   -1    0    0  502    0 -0.00000000000E+00  0.00000000000E+00  0.41927818012E+03  0.41927818012E+03  0.00000000000E+00 0. -1.
         21   -1    0    0  501  502  0.00000000000E+00 -0.00000000000E+00 -0.30639373017E+02  0.30639373017E+02  0.00000000000E+00 0.  1.
         23    2    1    2    0    0 -0.12870494646E+02  0.14888665806E+02  0.19331722215E+03  0.21523505093E+03  0.92559476914E+02 0.  0.
        -24    2    1    2    0    0  0.46624858176E+02 -0.22847514803E+02  0.13310058712E+03  0.16344941364E+03  0.79398099453E+02 0.  0.
         11    1    4    4    0    0  0.40912417676E+02 -0.12402516175E+02  0.14218579740E+03  0.14847373273E+03  0.00000000000E+00 0. -1.
        -12    1    4    4    0    0  0.57124405005E+01 -0.10444998628E+02 -0.90852102876E+01  0.14975680912E+02  0.00000000000E+00 0.  1.
        -13    1    3    3    0    0 -0.45256457795E+02 -0.16827081880E+02  0.11536304715E+03  0.12505970696E+03  0.00000000000E+00 0. -1.
         13    1    3    3    0    0  0.32385963149E+02  0.31715747686E+02  0.77954175007E+02  0.90175343977E+02  0.00000000000E+00 0.  1.
          2    1    1    2  501    0 -0.33754363530E+02  0.79588489967E+01  0.62220997830E+02  0.71233088559E+02  0.00000000000E+00 0. -1.
<scales pt_clust_5="13000.00000" pt_clust_6="13000.00000" pt_clust_7="13000.00000" pt_clust_8="13000.00000" pt_clust_9="34.67999"></scales>
<clustering>
<clus scale="   34.680">  2  9  1 -1</clus>
<clus scale="   79.398">  5  6 -1 -1</clus>
<clus scale="   85.829">  2  5  1 -1</clus>
<clus scale="   92.559">  7  8 -1 -1</clus>
<clus scale="   34.680">  2  5  1 -1</clus>
</clustering>
</event>
<event>
 9    1  0.6270443E-005  0.1444718E+03  0.7546771E-02  0.1209803E+00
         21   -1    0    0  501  502  0.00000000000E+00  0.00000000000E+00  0.91114911144E+02  0.91114911144E+02  0.00000000000E+00 0.  1.
          1   -1    0    0  502    0 -0.00000000000E+00 -0.00000000000E+00 -0.70757683944E+03  0.70757683944E+03  0.00000000000E+00 0. -1.
        -24    2    1    2    0    0 -0.96758558027E+02  0.58909931985E+02 -0.60019004217E+03  0.61606700397E+03  0.80485203732E+02 0.  0.
         23    2    1    2    0    0  0.92481299812E+02 -0.38481064011E+02 -0.48283635832E+02  0.14440975344E+03  0.92137312184E+02 0.  0.
         11    1    3    3    0    0 -0.16984811344E+02  0.54510567412E+02 -0.20055143383E+03  0.20852041480E+03  0.00000000000E+00 0. -1.
        -12    1    3    3    0    0 -0.79773746683E+02  0.43993645727E+01 -0.39963860834E+03  0.40754658917E+03  0.00000000000E+00 0.  1.
        -11    1    4    4    0    0  0.59180973467E+02 -0.28187980729E+02 -0.75647025485E+02  0.10009706461E+03  0.00000000000E+00 0. -1.
         11    1    4    4    0    0  0.33300326345E+02 -0.10293083282E+02  0.27363389654E+02  0.44312688832E+02  0.00000000000E+00 0.  1.
          2    1    1    2  501    0  0.42772582151E+01 -0.20428867974E+02  0.32011749705E+02  0.38214993179E+02  0.00000000000E+00 0. -1.
<scales pt_clust_5="13000.00000" pt_clust_6="13000.00000" pt_clust_7="13000.00000" pt_clust_8="13000.00000" pt_clust_9="20.87184"></scales>
<clustering>
<clus scale="   20.872">  1  9  2 -1</clus>
<clus scale="   80.485">  5  6 -1 -1</clus>
<clus scale="   92.137">  7  8 -1 -1</clus>
<clus scale="  137.334">  2  5  1 -1</clus>
<clus scale="   20.872">  1  5  2 -1</clus>
</clustering>
</event>
<event>
 9    1  0.6270443E-005  0.9428852E+02  0.7546771E-02  0.1299746E+00
          1   -1    0    0  502    0 -0.00000000000E+00  0.00000000000E+00  0.15300125763E+03  0.15300125763E+03  0.00000000000E+00 0. -1.
         21   -1    0    0  501  502  0.00000000000E+00 -0.00000000000E+00 -0.93237249399E+02  0.93237249399E+02  0.00000000000E+00 0.  1.
        -24    2    1    2    0    0  0.20310129505E+02  0.66196075626E+01  0.27571786690E+02  0.87615814277E+02  0.80374168271E+02 0.  0.
         23    2    1    2    0    0 -0.77526302147E+01 -0.23242746065E+02 -0.24349565623E+02  0.98364969448E+02  0.92100148472E+02 0.  0.
         11    1    3    3    0    0  0.12868623851E+02 -0.35132189671E+02  0.25259080680E+02  0.45143032549E+02  0.00000000000E+00 0. -1.
        -12    1    3    3    0    0  0.74415056541E+01  0.41751797234E+02  0.23127060099E+01  0.42472781728E+02  0.00000000000E+00 0.  1.
        -13    1    4    4    0    0  0.12960433079E+02 -0.26588003096E+02 -0.54278204887E+02  0.61814385543E+02  0.00000000000E+00 0.  1.
         13    1    4    4    0    0 -0.20713063294E+02  0.33452570307E+01  0.29928639264E+02  0.36550583905E+02  0.00000000000E+00 0. -1.
          2    1    1    2  501    0 -0.12557499291E+02  0.16623138503E+02  0.56541787168E+02  0.60257723308E+02  0.00000000000E+00 0. -1.
<scales pt_clust_5="13000.00000" pt_clust_6="13000.00000" pt_clust_7="13000.00000" pt_clust_8="13000.00000" pt_clust_9="20.83315"></scales>
<clustering>
<clus scale="   20.833">  2  9  1 -1</clus>
<clus scale="   80.374">  5  6 -1 -1</clus>
<clus scale="   82.873">  1  5  2 -1</clus>
<clus scale="   92.100">  7  8 -1 -1</clus>
<clus scale="   20.833">  2  5  1 -1</clus>
</clustering>
</event>
<event>
 9    1  0.6270443E-005  0.1968418E+03  0.7546771E-02  0.1191404E+00
         21   -1    0    0  501  502  0.00000000000E+00  0.00000000000E+00  0.16537123523E+03  0.16537123523E+03  0.00000000000E+00 0. -1.
          1   -1    0    0  502    0 -0.00000000000E+00 -0.00000000000E+00 -0.47901926375E+03  0.47901926375E+03  0.00000000000E+00 0. -1.
        -24    2    1    2    0    0 -0.91470105291E+01 -0.83329325130E+01 -0.17339616914E+03  0.19135625488E+03  0.79986744189E+02 0.  0.
         23    2    1    2    0    0  0.17546952829E+03  0.16107851807E+02  0.44749041814E+02  0.20413875855E+03  0.92850082127E+02 0.  0.
         11    1    3    3    0    0 -0.31711446966E+01 -0.44212061594E+02 -0.10250486784E+03  0.11167815579E+03  0.00000000000E+00 0. -1.
        -12    1    3    3    0    0 -0.59758658325E+01  0.35879129082E+02 -0.70891301294E+02  0.79678099094E+02  0.00000000000E+00 0.  1.
        -11    1    4    4    0    0  0.10316309583E+03  0.14986534115E+02  0.72179996027E+02  0.12679579004E+03  0.00000000000E+00 0.  1.
         11    1    4    4    0    0  0.72306432462E+02  0.11213176919E+01 -0.27430954213E+02  0.77342968509E+02  0.00000000000E+00 0. -1.
          2    1    1    2  501    0 -0.16632251776E+03 -0.77749192941E+01 -0.18500090120E+03  0.24889548555E+03  0.00000000000E+00 0. -1.
<scales pt_clust_5="13000.00000" pt_clust_6="13000.00000" pt_clust_7="13000.00000" pt_clust_8="13000.00000" pt_clust_9="173.56722"></scales>
<clustering>
<clus scale="   79.987">  5  6 -1 -1</clus>
<clus scale="   80.938">  2  5  1 -1</clus>
<clus scale="   92.850">  7  8 -1 -1</clus>
<clus scale="  173.567">  1  9  2 -1</clus>
<clus scale="  173.567">  1  5  2 -1</clus>
</clustering>
</event>
<event>
 9    1  0.6270443E-005  0.1025149E+03  0.7546771E-02  0.1278198E+00
          1   -1    0    0  502    0 -0.00000000000E+00  0.00000000000E+00  0.45791543350E+03  0.45791543350E+03  0.00000000000E+00 0. -1.
         21   -1    0    0  501  502  0.00000000000E+00 -0.00000000000E+00 -0.85791497491E+02  0.85791497491E+02  0.00000000000E+00 0. -1.
         23    2    1    2    0    0  0.15552930899E+02  0.50306548994E+02  0.33203404572E+03  0.34746289918E+03  0.87813531195E+02 0.  0.
        -24    2    1    2    0    0 -0.41311829977E+02 -0.41365326603E+02  0.93213058852E+02  0.13653191095E+03  0.80836444915E+02 0.  0.
         13    1    4    4    0    0 -0.31358992663E+02 -0.18049264147E+02  0.10314284303E+03  0.10930511619E+03  0.00000000000E+00 0. -1.
        -14    1    4    4    0    0 -0.99528373136E+01 -0.23316062455E+02 -0.99297841796E+01  0.27226794759E+02  0.00000000000E+00 0.  1.
        -11    1    3    3    0    0  0.30741238532E+02  0.68365821783E+02  0.28692098336E+03  0.29655110863E+03  0.00000000000E+00 0. -1.
         11    1    3    3    0    0 -0.15188307632E+02 -0.18059272789E+02  0.45113062358E+02  0.50911790557E+02  0.00000000000E+00 0.  1.
          2    1    1    2  501    0  0.25758899077E+02 -0.89412223910E+01 -0.53123168560E+02  0.59712120858E+02  0.00000000000E+00 0. -1.
<scales pt_clust_5="13000.00000" pt_clust_6="13000.00000" pt_clust_7="13000.00000" pt_clust_8="13000.00000" pt_clust_9="27.26658"></scales>
<clustering>
<clus scale="   27.267">  2  9  1 -1</clus>
<clus scale="   80.836">  5  6 -1 -1</clus>
<clus scale="   87.814">  7  8 -1 -1</clus>
<clus scale="   96.606">  2  5  1 -1</clus>
<clus scale="   27.267">  2  5  1 -1</clus>
</clustering>
</event>
<event>
 9    1  0.6270443E-005  0.1021479E+03  0.7546771E-02  0.1289207E+00
          1   -1    0    0  502    0 -0.00000000000E+00  0.00000000000E+00  0.68618147715E+02  0.68618147715E+02  0.00000000000E+00 0. -1.
         21   -1    0    0  501  502  0.00000000000E+00 -0.00000000000E+00 -0.20867493805E+03  0.20867493805E+03  0.00000000000E+00 0.  1.
         23    2    1    2    0    0  0.45452391505E+01  0.69051990081E+01  0.10303187323E+01  0.10223040715E+03  0.10189040002E+03 0.  0.
        -24    2    1    2    0    0 -0.13712278881E+02  0.13431887876E+02 -0.11338021652E+03  0.13949157216E+03  0.78958109152E+02 0.  0.
         11    1    4    4    0    0  0.20038891399E+02 -0.93099603454E+01 -0.35704823156E+01  0.22382602041E+02  0.00000000000E+00 0. -1.
        -12    1    4    4    0    0 -0.33751170280E+02  0.22741848221E+02 -0.10980973420E+03  0.11710897012E+03  0.00000000000E+00 0.  1.
        -13    1    3    3    0    0  0.36546777221E+02 -0.24007278692E+02  0.26334834262E+02  0.51044488939E+02  0.00000000000E+00 0. -1.
         13    1    3    3    0    0 -0.32001538071E+02  0.30912477700E+02 -0.25304515530E+02  0.51185918206E+02  0.00000000000E+00 0.  1.
          2    1    1    2  501    0  0.91670397302E+01 -0.20337086884E+02 -0.27706892552E+02  0.35571106466E+02  0.00000000000E+00 0. -1.
<scales pt_clust_5="13000.00000" pt_clust_6="13000.00000" pt_clust_7="13000.00000" pt_clust_8="13000.00000" pt_clust_9="22.30766"></scales>
<clustering>
<clus scale="   22.308">  2  9  1 -1</clus>
<clus scale="   78.958">  5  6 -1 -1</clus>
<clus scale="   79.290">  2  5  1 -1</clus>
<clus scale="  101.890">  7  8 -1 -1</clus>
<clus scale="   22.308">  2  5  1 -1</clus>
</clustering>
</event>
<event>
 9    1  0.6270443E-005  0.2558608E+03  0.7546771E-02  0.1110363E+00
          1   -1    0    0  502    0 -0.00000000000E+00  0.00000000000E+00  0.92043199178E+03  0.92043199178E+03  0.00000000000E+00 0. -1.
         21   -1    0    0  501  502  0.00000000000E+00 -0.00000000000E+00 -0.12449212869E+03  0.12449212869E+03  0.00000000000E+00 0. -1.
         23    2    1    2    0    0  0.21435405461E+03  0.89936967756E+02  0.22715138093E+03  0.33780730250E+03  0.92085312972E+02 0.  0.
        -24    2    1    2    0    0 -0.24963017320E+03 -0.29277867751E+02  0.19724078392E+03  0.32900093227E+03  0.78519231324E+02 0.  0.
         13    1    4    4    0    0 -0.25396869112E+03 -0.34729572357E+02  0.19134122843E+03  0.31987138816E+03  0.00000000000E+00 0. -1.
        -14    1    4    4    0    0  0.43385179219E+01  0.54517046054E+01  0.58995554860E+01  0.91295441176E+01  0.00000000000E+00 0.  1.
        -13    1    3    3    0    0  0.19792137829E+03  0.47449891531E+02  0.17367284276E+03  0.26755676128E+03  0.00000000000E+00 0. -1.
         13    1    3    3    0    0  0.16432676315E+02  0.42487076225E+02  0.53478538170E+02  0.70250541221E+02  0.00000000000E+00 0.  1.
          2    1    1    2  501    0  0.35276118585E+02 -0.60659100004E+02  0.37154769823E+03  0.37811588570E+03  0.00000000000E+00 0. -1.
<scales pt_clust_5="13000.00000" pt_clust_6="13000.00000" pt_clust_7="13000.00000" pt_clust_8="13000.00000" pt_clust_9="70.17076"></scales>
<clustering>
<clus scale="   70.171">  2  9  1 -1</clus>
<clus scale="   78.519">  5  6 -1 -1</clus>
<clus scale="   92.085">  7  8 -1 -1</clus>
<clus scale="  251.297">  2  5  1 -1</clus>
<clus scale="   70.171">  2  5  1 -1</clus>
</clustering>
</event>
<event>
 9    1  0.6270443E-005  0.1007085E+03  0.7546771E-02  0.1284512E+00
          3   -1    0    0  502    0 -0.00000000000E+00  0.00000000000E+00  0.98136810087E+02  0.98136810087E+02  0.00000000000E+00 0. -1.
         21   -1    0    0  501  502  0.00000000000E+00 -0.00000000000E+00 -0.26348095508E+03  0.26348095508E+03  0.00000000000E+00 0. -1.
        -24    2    1    2    0    0 -0.31406782509E+02  0.16540523291E+02  0.17551306461E+02  0.88123541049E+02  0.78725696123E+02 0.  0.
         23    2    1    2    0    0  0.94254691988E+02  0.17390476878E+02 -0.12394911592E+03  0.18088837673E+03  0.90392731176E+02 0.  0.
         13    1    3    3    0    0 -0.32444842225E+02 -0.15215912762E+02 -0.18284186173E+02  0.40230625799E+02  0.00000000000E+00 0. -1.
        -14    1    3    3    0    0  0.10380597155E+01  0.31756436053E+02  0.35835492634E+02  0.47892915249E+02  0.00000000000E+00 0.  1.
        -11    1    4    4    0    0  0.11135883673E+03  0.68731231480E+01 -0.10747875298E+03  0.15491840652E+03  0.00000000000E+00 0. -1.
         11    1    4    4    0    0 -0.17104144739E+02  0.10517353730E+02 -0.16470362948E+02  0.25969970204E+02  0.00000000000E+00 0.  1.
          4    1    1    2  501    0 -0.62847909479E+02 -0.33931000169E+02 -0.58946335532E+02  0.92605847391E+02  0.00000000000E+00 0. -1.
<scales pt_clust_5="13000.00000" pt_clust_6="13000.00000" pt_clust_7="13000.00000" pt_clust_8="13000.00000" pt_clust_9="71.42249"></scales>
<clustering>
<clus scale="   71.422">  2  9  1 -1</clus>
<clus scale="   78.726">  5  6 -1 -1</clus>
<clus scale="   90.383">  1  5  2 -1</clus>
<clus scale="   90.393">  7  8 -1 -1</clus>
<clus scale="   71.422">  2  5  1 -1</clus>
</clustering>
</event>
<event>
 9    1  0.6270443E-005  0.1031020E+03  0.7546771E-02  0.1277852E+00
          1   -1    0    0  502    0 -0.00000000000E+00  0.00000000000E+00  0.93263222202E+02  0.93263222202E+02  0.00000000000E+00 0. -1.
         21   -1    0    0  501  502  0.00000000000E+00 -0.00000000000E+00 -0.13690682948E+03  0.13690682948E+03  0.00000000000E+00 0.  1.
         23    2    1    2    0    0  0.60428378490E+01  0.51445712455E+02  0.14988654916E+01  0.10381850508E+03  0.89960314472E+02 0.  0.
        -24    2    1    2    0    0  0.15781019143E+02 -0.48664194107E+02 -0.36826355588E+02  0.10283186584E+03  0.81246340299E+02 0.  0.
         13    1    4    4    0    0  0.20477822129E+02 -0.44775693960E+01  0.21155157741E+02  0.29781378845E+02  0.00000000000E+00 0. -1.
        -14    1    4    4    0    0 -0.46968029856E+01 -0.44186624711E+02 -0.57981513329E+02  0.73050486991E+02  0.00000000000E+00 0.  1.
        -13    1    3    3    0    0  0.43662666559E+02  0.90814105996E+01  0.12030448006E+02  0.46191256194E+02  0.00000000000E+00 0.  1.
         13    1    3    3    0    0 -0.37619828710E+02  0.42364301855E+02 -0.10531582515E+02  0.57627248886E+02  0.00000000000E+00 0. -1.
          2    1    1    2  501    0 -0.21823856992E+02 -0.27815183483E+01 -0.83161171814E+01  0.23519680766E+02  0.00000000000E+00 0. -1.
<scales pt_clust_5="13000.00000" pt_clust_6="13000.00000" pt_clust_7="13000.00000" pt_clust_8="13000.00000" pt_clust_9="22.00040"></scales>
<clustering>
<clus scale="   22.000">  2  9  1 -1</clus>
<clus scale="   81.246">  5  6 -1 -1</clus>
<clus scale="   89.960">  7  8 -1 -1</clus>
<clus scale="   95.594">  2  5  1 -1</clus>
<clus scale="   22.000">  2  5  1 -1</clus>
</clustering>
</event>
<event>
 9    1  0.6270443E-005  0.1623894E+03  0.7546771E-02  0.1187613E+00
          3   -1    0    0  502    0 -0.00000000000E+00  0.00000000000E+00  0.75632306581E+03  0.75632306581E+03  0.00000000000E+00 0. -1.
         21   -1    0    0  501  502  0.00000000000E+00 -0.00000000000E+00 -0.59041695067E+02  0.59041695067E+02  0.00000000000E+00 0. -1.
         23    2    1    2    0    0 -0.83796397975E+02 -0.87760324050E+02  0.42615435108E+03  0.45232837834E+03  0.90938001498E+02 0.  0.
        -24    2    1    2    0    0  0.13214430248E+03  0.10805133024E+03  0.21923252489E+03  0.28926454923E+03  0.80460380479E+02 0.  0.
         11    1    4    4    0    0  0.13967736104E+03  0.90561829029E+02  0.21035403147E+03  0.26825366469E+03  0.00000000000E+00 0. -1.
        -12    1    4    4    0    0 -0.75330585568E+01  0.17489501206E+02  0.88784934168E+01  0.21010884537E+02  0.00000000000E+00 0.  1.
        -11    1    3    3    0    0 -0.95728923033E+02 -0.51836798871E+02  0.25913183530E+03  0.28107007754E+03  0.00000000000E+00 0. -1.
         11    1    3    3    0    0  0.11932525058E+02 -0.35923525179E+02  0.16702251578E+03  0.17125830080E+03  0.00000000000E+00 0.  1.
          4    1    1    2  501    0 -0.48347904505E+02 -0.20291006185E+02  0.51894494778E+02  0.73771833313E+02  0.00000000000E+00 0. -1.
<scales pt_clust_5="13000.00000" pt_clust_6="13000.00000" pt_clust_7="13000.00000" pt_clust_8="13000.00000" pt_clust_9="52.43324"></scales>
<clustering>
<clus scale="   52.433">  2  9  1 -1</clus>
<clus scale="   80.460">  5  6 -1 -1</clus>
<clus scale="   90.938">  7  8 -1 -1</clus>
<clus scale="  156.762">  2  5  1 -1</clus>
<clus scale="   52.433">  2  5  1 -1</clus>
</clustering>
</event>
<event>
 9    1  0.6270443E-005  0.1910088E+03  0.7546771E-02  0.1188590E+00
         21   -1    0    0  501  502  0.00000000000E+00  0.00000000000E+00  0.15034922919E+03  0.15034922919E+03  0.00000000000E+00 0. -1.
          1   -1    0    0  502    0 -0.00000000000E+00 -0.00000000000E+00 -0.54974475844E+03  0.54974475844E+03  0.00000000000E+00 0. -1.
         23    2    1    2    0    0  0.28216229455E+02  0.22346961896E+01  0.17427011960E+02  0.95860479054E+02  0.89913187169E+02 0.  0.
        -24    2    1    2    0    0 -0.13048951965E+03 -0.13726906208E+03 -0.37818059320E+03  0.43048856332E+03  0.80184362185E+02 0.  0.
         11    1    4    4    0    0 -0.56932584901E+02 -0.43400752925E+02 -0.22647964514E+03  0.23752468133E+03  0.00000000000E+00 0. -1.
        -12    1    4    4    0    0 -0.73556934746E+02 -0.93868309151E+02 -0.15170094806E+03  0.19296388199E+03  0.00000000000E+00 0.  1.
        -13    1    3    3    0    0  0.23956990591E+02 -0.41687807619E+02 -0.86975289041E+00  0.48089158574E+02  0.00000000000E+00 0.  1.
         13    1    3    3    0    0  0.42592388640E+01  0.43922503808E+02  0.18296764851E+02  0.47771320481E+02  0.00000000000E+00 0. -1.
          2    1    1    2  501    0  0.10227329019E+03  0.13503436589E+03 -0.38641948011E+02  0.17374494526E+03  0.00000000000E+00 0. -1.
<scales pt_clust_5="13000.00000" pt_clust_6="13000.00000" pt_clust_7="13000.00000" pt_clust_8="13000.00000" pt_clust_9="173.36328"></scales>
<clustering>
<clus scale="   80.184">  5  6 -1 -1</clus>
<clus scale="   89.913">  7  8 -1 -1</clus>
<clus scale="   94.263">  2  7  1 -1</clus>
<clus scale="  173.363">  1  9  2 -1</clus>
<clus scale="  173.363">  1  5  2 -1</clus>
</clustering>
</event>
<event>
 9    1  0.6270443E-005  0.1857725E+03  0.7546771E-02  0.1163654E+00
          1   -1    0    0  502    0 -0.00000000000E+00  0.00000000000E+00  0.89917996535E+03  0.89917996535E+03  0.00000000000E+00 0. -1.
         21   -1    0    0  501  502  0.00000000000E+00 -0.00000000000E+00 -0.71212493662E+02  0.71212493662E+02  0.00000000000E+00 0. -1.
        -24    2    1    2    0    0 -0.93335431554E+02 -0.18576532746E+03  0.39740743139E+03  0.45573698925E+03  0.80890525877E+02 0.  0.
         23    2    1    2    0    0  0.86065706662E+02  0.76146822299E+02  0.13780418186E+03  0.20196543439E+03  0.92705985461E+02 0.  0.
         13    1    3    3    0    0 -0.72409743131E+02 -0.17465090758E+03  0.29322380766E+03  0.34889298044E+03  0.00000000000E+00 0. -1.
        -14    1    3    3    0    0 -0.20925688423E+02 -0.11114419871E+02  0.10418362373E+03  0.10684400881E+03  0.00000000000E+00 0.  1.
        -11    1    4    4    0    0  0.30883007472E+02  0.77947381290E+02  0.11478995373E+03  0.14214882299E+03  0.00000000000E+00 0.  1.
         11    1    4    4    0    0  0.55182699190E+02 -0.18005589911E+01  0.23014228127E+02  0.59816611395E+02  0.00000000000E+00 0. -1.
          2    1    1    2  501    0  0.72697248916E+01  0.10961850516E+03  0.29275585844E+03  0.31269003537E+03  0.00000000000E+00 0. -1.
<scales pt_clust_5="13000.00000" pt_clust_6="13000.00000" pt_clust_7="13000.00000" pt_clust_8="13000.00000" pt_clust_9="109.85935"></scales>
<clustering>
<clus scale="   80.891">  5  6 -1 -1</clus>
<clus scale="   92.706">  7  8 -1 -1</clus>
<clus scale="  109.859">  2  9  1 -1</clus>
<clus scale="  180.167">  1  5  2 -1</clus>
<clus scale="  109.859">  2  5  1 -1</clus>
</clustering>
</event>
<event>
 9    1  0.6270443E-005  0.1362568E+03  0.7546771E-02  0.1221691E+00
         21   -1    0    0  501  502  0.00000000000E+00  0.00000000000E+00  0.22610128540E+03  0.22610128540E+03  0.00000000000E+00 0. -1.
          1   -1    0    0  502    0 -0.00000000000E+00 -0.00000000000E+00 -0.28392853467E+03  0.28392853467E+03  0.00000000000E+00 0. -1.
         23    2    1    2    0    0  0.53241611942E+02  0.10281722450E+03 -0.58268604720E+02  0.15912674607E+03  0.92304063417E+02 0.  0.
        -24    2    1    2    0    0  0.17369274765E+02 -0.61925444937E+02  0.14966495751E+03  0.18082744856E+03  0.78501682848E+02 0.  0.
         11    1    4    4    0    0  0.45545611201E+02 -0.56269602217E+02  0.11371189197E+03  0.13480009350E+03  0.00000000000E+00 0. -1.
        -12    1    4    4    0    0 -0.28176336436E+02 -0.56558427200E+01  0.35953065541E+02  0.46027355058E+02  0.00000000000E+00 0.  1.
        -13    1    3    3    0    0 -0.22875873604E+02  0.73126307790E+01 -0.48881926419E+00  0.24021221999E+02  0.00000000000E+00 0.  1.
         13    1    3    3    0    0  0.76117485546E+02  0.95504593718E+02 -0.57779785456E+02  0.13510552407E+03  0.00000000000E+00 0. -1.
          2    1    1    2  501    0 -0.70610886707E+02 -0.40891779560E+02 -0.14922360206E+03  0.17007562544E+03  0.00000000000E+00 0. -1.
<scales pt_clust_5="13000.00000" pt_clust_6="13000.00000" pt_clust_7="13000.00000" pt_clust_8="13000.00000" pt_clust_9="81.59682"></scales>
<clustering>
<clus scale="   78.502">  5  6 -1 -1</clus>
<clus scale="   81.597">  1  9  2 -1</clus>
<clus scale="   92.304">  7  8 -1 -1</clus>
<clus scale="  127.312">  1  5  2 -1</clus>
<clus scale="   81.597">  1  5  2 -1</clus>
</clustering>
</event>
<event>
 9    1  0.6270443E-005  0.1016593E+03  0.7546771E-02  0.1281713E+00
         21   -1    0    0  501  502  0.00000000000E+00  0.00000000000E+00  0.20971485659E+03  0.20971485659E+03  0.00000000000E+00 0.  1.
          1   -1    0    0  502    0 -0.00000000000E+00 -0.00000000000E+00 -0.19942967237E+03  0.19942967237E+03  0.00000000000E+00 0. -1.
         23    2    1    2    0    0 -0.50813366842E+02  0.58881433423E+01 -0.98983120425E+02  0.14385034592E+03  0.90986787010E+02 0.  0.
        -24    2    1    2    0    0 -0.23495694312E+01 -0.14345427428E+02  0.16716548047E+03  0.18623783341E+03  0.80801738647E+02 0.  0.
         11    1    4    4    0    0  0.28471941897E+02  0.37649058067E+01  0.20518210800E+02  0.35296217440E+02  0.00000000000E+00 0. -1.
        -12    1    4    4    0    0 -0.30821511328E+02 -0.18110333235E+02  0.14664726967E+03  0.15094161597E+03  0.00000000000E+00 0.  1.
        -13    1    3    3    0    0 -0.57261532916E+02 -0.15475732186E+02 -0.10512499829E+03  0.12070479155E+03  0.00000000000E+00 0. -1.
         13    1    3    3    0    0  0.64481660740E+01  0.21363875528E+02  0.61418778632E+01  0.23145554368E+02  0.00000000000E+00 0.  1.
          2    1    1    2  501    0  0.53162936273E+02  0.84572840857E+01 -0.57897175823E+02  0.79056349622E+02  0.00000000000E+00 0. -1.
<scales pt_clust_5="13000.00000" pt_clust_6="13000.00000" pt_clust_7="13000.00000" pt_clust_8="13000.00000" pt_clust_9="53.83146"></scales>
<clustering>
<clus scale="   53.831">  1  9  2 -1</clus>
<clus scale="   80.802">  5  6 -1 -1</clus>
<clus scale="   90.987">  7  8 -1 -1</clus>
<clus scale="   92.655">  1  5  2 -1</clus>
<clus scale="   53.831">  1  5  2 -1</clus>
</clustering>
</event>
<event>
 9    1  0.6270443E-005  0.1277779E+03  0.7546771E-02  0.1231813E+00
         21   -1    0    0  501  502  0.00000000000E+00  0.00000000000E+00  0.47333713468E+03  0.47333713468E+03  0.00000000000E+00 0.  1.
         -2   -1    0    0    0  501 -0.00000000000E+00 -0.00000000000E+00 -0.15294409134E+03  0.15294409134E+03  0.00000000000E+00 0.  1.
        -24    2    1    2    0    0  0.83957358594E+02  0.29409840828E+02  0.88677864366E+01  0.12081339952E+03  0.81261694955E+02 0.  0.
         23    2    1    2    0    0 -0.14478611588E+03 -0.61706863987E+02  0.37366554863E+03  0.41270656695E+03  0.77006569550E+02 0.  0.
         13    1    3    3    0    0  0.55632174541E+02  0.47974092302E+02 -0.20195259633E+02  0.76185962539E+02  0.00000000000E+00 0. -1.
        -14    1    3    3    0    0  0.28325184053E+02 -0.18564251474E+02  0.29063046069E+02  0.44627436978E+02  0.00000000000E+00 0.  1.
        -11    1    4    4    0    0 -0.59955726382E+02 -0.21406255852E+02  0.68947591902E+02  0.93843952094E+02  0.00000000000E+00 0.  1.
         11    1    4    4    0    0 -0.84830389498E+02 -0.40300608136E+02  0.30471795673E+03  0.31886261485E+03  0.00000000000E+00 0. -1.
         -1    1    1    2    0  502  0.60828757287E+02  0.32297023159E+02 -0.62140291727E+02  0.92761259553E+02  0.00000000000E+00 0.  1.
<scales pt_clust_5="13000.00000" pt_clust_6="13000.00000" pt_clust_7="13000.00000" pt_clust_8="13000.00000" pt_clust_9="68.87119"></scales>
<clustering>
<clus scale="   68.871">  1  9  2 -1</clus>
<clus scale="   77.007">  7  8 -1 -1</clus>
<clus scale="   81.262">  5  6 -1 -1</clus>
<clus scale="  125.115">  1  7  2 -1</clus>
<clus scale="   68.871">  1  5  2 -1</clus>
</clustering>
</event>
<event>
 9    1  0.6270443E-005  0.9855559E+02  0.7546771E-02  0.1289442E+00
         21   -1    0    0  501  502  0.00000000000E+00  0.00000000000E+00  0.79027000541E+02  0.79027000541E+02  0.00000000000E+00 0.  1.
          1   -1    0    0  502    0 -0.00000000000E+00 -0.00000000000E+00 -0.21126671811E+03  0.21126671811E+03  0.00000000000E+00 0. -1.
         23    2    1    2    0    0 -0.12533543507E+02 -0.47759874206E+02 -0.11263240292E+03  0.15320691829E+03  0.91368519341E+02 0.  0.
        -24    2    1    2    0    0  0.20168591262E+02  0.22702992829E+01  0.90422893314E+01  0.82787673399E+02  0.79750294910E+02 0.  0.
         11    1    4    4    0    0  0.38016566637E+02 -0.27309792980E+02 -0.96826272555E+00  0.46819031004E+02  0.00000000000E+00 0. -1.
        -12    1    4    4    0    0 -0.17847975375E+02  0.29580092263E+02  0.10010552057E+02  0.35968642395E+02  0.00000000000E+00 0.  1.
        -11    1    3    3    0    0  0.26029342942E+02 -0.58289969165E+02 -0.67062427948E+02  0.92588424987E+02  0.00000000000E+00 0. -1.
         11    1    3    3    0    0 -0.38562886449E+02  0.10530094958E+02 -0.45569974977E+02  0.60618493304E+02  0.00000000000E+00 0.  1.
          2    1    1    2  501    0 -0.76350477545E+01  0.45489574924E+02 -0.28649603978E+02  0.54299126964E+02  0.00000000000E+00 0. -1.
<scales pt_clust_5="13000.00000" pt_clust_6="13000.00000" pt_clust_7="13000.00000" pt_clust_8="13000.00000" pt_clust_9="46.12589"></scales>
<clustering>
<clus scale="   46.126">  1  9  2 -1</clus>
<clus scale="   79.750">  5  6 -1 -1</clus>
<clus scale="   87.893">  1  5  2 -1</clus>
<clus scale="   91.369">  7  8 -1 -1</clus>
<clus scale="   46.126">  1  5  2 -1</clus>
</clustering>
</event>
<event>
 9    1  0.6270443E-005  0.7700552E+03  0.7546771E-02  0.9604402E-01
         21   -1    0    0  501  502  0.00000000000E+00  0.00000000000E+00  0.15873005677E+04  0.15873005677E+04  0.00000000000E+00 0.  1.
         -2   -1    0    0    0  501 -0.00000000000E+00 -0.00000000000E+00 -0.38561252353E+03  0.38561252353E+03  0.00000000000E+00 0.  1.
        -24    2    1    2    0    0  0.18183417028E+03 -0.45987308953E+03  0.26922827124E+03  0.57089842500E+03  0.94309202468E+02 0.  0.
         23    2    1    2    0    0  0.15000294177E+03 -0.18992789205E+03  0.65154266933E+02  0.26862328399E+03  0.96643176097E+02 0.  0.
         11    1    3    3    0    0  0.86258391524E+02 -0.11219352939E+03  0.94880794486E+02  0.17038269662E+03  0.00000000000E+00 0. -1.
        -12    1    3    3    0    0  0.95575778753E+02 -0.34767956014E+03  0.17434747676E+03  0.40051572837E+03  0.00000000000E+00 0.  1.
        -13    1    4    4    0    0  0.12232874742E+03 -0.80086438187E+02  0.24364234881E+02  0.14822879602E+03  0.00000000000E+00 0.  1.
         13    1    4    4    0    0  0.27674194341E+02 -0.10984145387E+03  0.40790032052E+02  0.12039448798E+03  0.00000000000E+00 0. -1.
         -1    1    1    2    0  502 -0.33183711204E+03  0.64980098158E+03  0.86730550595E+03  0.11333913822E+04  0.00000000000E+00 0.  1.
<scales pt_clust_5="13000.00000" pt_clust_6="13000.00000" pt_clust_7="13000.00000" pt_clust_8="13000.00000" pt_clust_9="729.62811"></scales>
<clustering>
<clus scale="   94.309">  5  6 -1 -1</clus>
<clus scale="   96.643">  7  8 -1 -1</clus>
<clus scale="  139.263">  5  7 -1 -1</clus>
<clus scale="  729.628">  1  9  2 -1</clus>
<clus scale="  729.628">  1  5  2 -1</clus>
</clustering>
</event>
<event>
 9    1  0.6270443E-005  0.9967025E+02  0.7546771E-02  0.1284123E+00
         21   -1    0    0  501  502  0.00000000000E+00  0.00000000000E+00  0.48319040947E+03  0.48319040947E+03  0.00000000000E+00 0. -1.
          1   -1    0    0  502    0 -0.00000000000E+00 -0.00000000000E+00 -0.69189189324E+02  0.69189189324E+02  0.00000000000E+00 0. -1.
         23    2    1    2    0    0  0.54383767330E+01  0.31410713500E+02  0.30585576500E+02  0.99326408942E+02  0.88960941763E+02 0.  0.
        -24    2    1    2    0    0 -0.73038129643E+02 -0.89967956146E+02  0.29393769480E+03  0.32654239747E+03  0.82472828286E+02 0.  0.
         11    1    4    4    0    0 -0.19446447408E+02 -0.82897248387E+02  0.21112376620E+03  0.22764745279E+03  0.00000000000E+00 0. -1.
        -12    1    4    4    0    0 -0.53591682235E+02 -0.70707077589E+01  0.82813928597E+02  0.98894944677E+02  0.00000000000E+00 0.  1.
        -11    1    3    3    0    0  0.27958265721E+01 -0.30258704124E+02 -0.11346202945E+00  0.30387805039E+02  0.00000000000E+00 0.  1.
         11    1    3    3    0    0  0.26425501609E+01  0.61669417624E+02  0.30699038529E+02  0.68938603902E+02  0.00000000000E+00 0. -1.
          2    1    1    2  501    0  0.67599752910E+02  0.58557242646E+02  0.89477948846E+02  0.12651079238E+03  0.00000000000E+00 0. -1.
<scales pt_clust_5="13000.00000" pt_clust_6="13000.00000" pt_clust_7="13000.00000" pt_clust_8="13000.00000" pt_clust_9="89.43537"></scales>
<clustering>
<clus scale="   82.473">  5  6 -1 -1</clus>
<clus scale="   88.961">  7  8 -1 -1</clus>
<clus scale="   89.435">  1  9  2 -1</clus>
<clus scale="   93.925">  1  5  2 -1</clus>
<clus scale="   89.435">  1  5  2 -1</clus>
</clustering>
</event>
<event>
 9    1  0.6270443E-005  0.1632857E+03  0.7546771E-02  0.1186560E+00
         -2   -1    0    0    0  501 -0.00000000000E+00  0.00000000000E+00  0.38777354251E+03  0.38777354251E+03  0.00000000000E+00 0.  1.
         21   -1    0    0  501  502  0.00000000000E+00 -0.00000000000E+00 -0.35612262991E+03  0.35612262991E+03  0.00000000000E+00 0.  1.
         23    2    1    2    0    0  0.60576742256E+02  0.13150603634E+03  0.31409985356E+03  0.35760227633E+03  0.90869635948E+02 0.  0.
        -24    2    1    2    0    0 -0.41558515603E+02 -0.91759064572E+02 -0.33307599898E+02  0.13328614416E+03  0.80678149859E+02 0.  0.
         11    1    4    4    0    0 -0.13189858281E+01 -0.67264612398E+02 -0.49442223951E+02  0.83491324782E+02  0.00000000000E+00 0. -1.
        -12    1    4    4    0    0 -0.40239529775E+02 -0.24494452174E+02  0.16134624053E+02  0.49794819381E+02  0.00000000000E+00 0.  1.
        -13    1    3    3    0    0 -0.12477998088E+02  0.49572557635E+02  0.49596292770E+02  0.71224512376E+02  0.00000000000E+00 0. -1.
         13    1    3    3    0    0  0.73054740344E+02  0.81933478705E+02  0.26450356079E+03  0.28637776396E+03  0.00000000000E+00 0.  1.
         -1    1    1    2    0  502 -0.19018226653E+02 -0.39746971768E+02 -0.24914134105E+03  0.25300775192E+03  0.00000000000E+00 0.  1.
<scales pt_clust_5="13000.00000" pt_clust_6="13000.00000" pt_clust_7="13000.00000" pt_clust_8="13000.00000" pt_clust_9="44.06262"></scales>
<clustering>
<clus scale="   44.063">  2  9  1 -1</clus>
<clus scale="   80.678">  5  6 -1 -1</clus>
<clus scale="   90.870">  7  8 -1 -1</clus>
<clus scale="  157.841">  2  5  1 -1</clus>
<clus scale="   44.063">  2  5  1 -1</clus>
</clustering>
</event>
<event>
 9    1  0.6270443E-005  0.9136183E+02  0.7546771E-02  0.1305725E+00
         21   -1    0    0  501  502  0.00000000000E+00  0.00000000000E+00  0.20206287099E+03  0.20206287099E+03  0.00000000000E+00 0.  1.
         -4   -1    0    0    0  501 -0.00000000000E+00 -0.00000000000E+00 -0.98543839925E+02  0.98543839925E+02  0.00000000000E+00 0.  1.
         23    2    1    2    0    0  0.48796268456E-01  0.33919043631E+01 -0.49301222323E+02  0.10379978038E+03  0.91281304149E+02 0.  0.
        -24    2    1    2    0    0 -0.12964987093E+02  0.23044208173E+02  0.76041274164E+02  0.11458340786E+03  0.81534995917E+02 0.  0.
         11    1    4    4    0    0 -0.48633613401E+01 -0.30754091954E+02  0.31231570586E+02  0.44100764809E+02  0.00000000000E+00 0. -1.
        -12    1    4    4    0    0 -0.81016257534E+01  0.53798300128E+02  0.44809703578E+02  0.70482643049E+02  0.00000000000E+00 0.  1.
        -11    1    3    3    0    0  0.45153105857E+02  0.53391860428E+01 -0.18186931045E+02  0.48970137196E+02  0.00000000000E+00 0. -1.
         11    1    3    3    0    0 -0.45104309589E+02 -0.19472816798E+01 -0.31114291279E+02  0.54829643179E+02  0.00000000000E+00 0.  1.
         -3    1    1    2    0  502  0.12916190825E+02 -0.26436112536E+02  0.76778979221E+02  0.82223522678E+02  0.00000000000E+00 0.  1.
<scales pt_clust_5="13000.00000" pt_clust_6="13000.00000" pt_clust_7="13000.00000" pt_clust_8="13000.00000" pt_clust_9="29.42271"></scales>
<clustering>
<clus scale="   29.423">  1  9  2 -1</clus>
<clus scale="   81.535">  5  6 -1 -1</clus>
<clus scale="   81.625">  1  5  2 -1</clus>
<clus scale="   91.281">  7  8 -1 -1</clus>
<clus scale="   29.423">  1  5  2 -1</clus>
</clustering>
</event>
<event>
 9    1  0.6270443E-005  0.1061446E+03  0.7546771E-02  0.1271061E+00
         -2   -1    0    0    0  501 -0.00000000000E+00  0.00000000000E+00  0.46688437309E+03  0.46688437309E+03  0.00000000000E+00 0.  1.
         21   -1    0    0  501  502  0.00000000000E+00 -0.00000000000E+00 -0.64379352379E+02  0.64379352379E+02  0.00000000000E+00 0. -1.
        -24    2    1    2    0    0 -0.47314680433E+02  0.47782881766E+02  0.36264810062E+03  0.37731558839E+03  0.79570884039E+02 0.  0.
         23    2    1    2    0    0  0.50237521737E+00 -0.41051926091E+02  0.44718699186E+02  0.10640516094E+03  0.87388690351E+02 0.  0.
         13    1    3    3    0    0 -0.66307215459E+02  0.36887224832E+02  0.32521181288E+03  0.33394615945E+03  0.00000000000E+00 0. -1.
        -14    1    3    3    0    0  0.18992535026E+02  0.10895656934E+02  0.37436287741E+02  0.43369428940E+02  0.00000000000E+00 0.  1.
        -11    1    4    4    0    0 -0.27989590464E+02 -0.50521692394E+02  0.49420514161E+02  0.76014773542E+02  0.00000000000E+00 0. -1.
         11    1    4    4    0    0  0.28491965681E+02  0.94697663024E+01 -0.47018149750E+01  0.30390387399E+02  0.00000000000E+00 0.  1.
         -1    1    1    2    0  502  0.46812305216E+02 -0.67309556749E+01 -0.48617790942E+01  0.47542976136E+02  0.00000000000E+00 0.  1.
<scales pt_clust_5="13000.00000" pt_clust_6="13000.00000" pt_clust_7="13000.00000" pt_clust_8="13000.00000" pt_clust_9="47.29374"></scales>
<clustering>
<clus scale="   47.294">  2  9  1 -1</clus>
<clus scale="   79.571">  5  6 -1 -1</clus>
<clus scale="   87.389">  7  8 -1 -1</clus>
<clus scale="   99.807">  1  5  2 -1</clus>
<clus scale="   47.294">  2  5  1 -1</clus>
</clustering>
</event>
<event>
 9    1  0.6270443E-005  0.1203074E+03  0.7546771E-02  0.1246283E+00
         21   -1    0    0  501  502  0.00000000000E+00  0.00000000000E+00  0.31218418540E+02  0.31218418540E+02  0.00000000000E+00 0.  1.
         -2   -1    0    0    0  501 -0.00000000000E+00 -0.00000000000E+00 -0.12807400684E+04  0.12807400684E+04  0.00000000000E+00 0.  1.
         23    2    1    2    0    0 -0.40863244698E+02 -0.28425697640E+02 -0.17913157008E+03  0.20585828165E+03  0.88383752297E+02 0.  0.
        -24    2    1    2    0    0  0.12559971184E+03 -0.10062602518E+02 -0.34992687341E+03  0.37965072333E+03  0.76218838919E+02 0.  0.
         13    1    4    4    0    0  0.11424142556E+03 -0.19983130190E+02 -0.34470405007E+03  0.36369123022E+03  0.00000000000E+00 0. -1.
        -14    1    4    4    0    0  0.11358286283E+02  0.99205276723E+01 -0.52228233385E+01  0.15959493106E+02  0.00000000000E+00 0.  1.
        -11    1    3    3    0    0 -0.27387710472E+02  0.30315687764E+02 -0.80434610583E+02  0.90215598370E+02  0.00000000000E+00 0. -1.
         11    1    3    3    0    0 -0.13475534226E+02 -0.58741385404E+02 -0.98696959494E+02  0.11564268328E+03  0.00000000000E+00 0.  1.
         -1    1    1    2    0  502 -0.84736467140E+02  0.38488300158E+02 -0.72046320640E+03  0.72644948200E+03  0.00000000000E+00 0.  1.
<scales pt_clust_5="13000.00000" pt_clust_6="13000.00000" pt_clust_7="13000.00000" pt_clust_8="13000.00000" pt_clust_9="93.06786"></scales>
<clustering>
<clus scale="   76.219">  5  6 -1 -1</clus>
<clus scale="   88.384">  7  8 -1 -1</clus>
<clus scale="   93.068">  1  9  2 -1</clus>
<clus scale="  111.676">  1  5  2 -1</clus>
<clus scale="   93.068">  1  5  2 -1</clus>
</clustering>
</event>
<event>
 9    1  0.6270443E-005  0.1777800E+03  0.7546771E-02  0.1170603E+00
         21   -1    0    0  501  502  0.00000000000E+00  0.00000000000E+00  0.26294910464E+03  0.26294910464E+03  0.00000000000E+00 0. -1.
          1   -1    0    0  502    0 -0.00000000000E+00 -0.00000000000E+00 -0.19360502149E+03  0.19360502149E+03  0.00000000000E+00 0. -1.
         23    2    1    2    0    0 -0.98084287636E+02  0.61368957352E+02  0.49062739426E+02  0.15476431078E+03  0.90322550243E+02 0.  0.
        -24    2    1    2    0    0  0.14683347714E+03 -0.13205547893E+03  0.19138998048E+02  0.21591564715E+03  0.85173622169E+02 0.  0.
         11    1    4    4    0    0  0.60662664373E+02 -0.49071642622E+01  0.12772067613E+02  0.62186532473E+02  0.00000000000E+00 0. -1.
        -12    1    4    4    0    0  0.86170812764E+02 -0.12714831467E+03  0.63669304348E+01  0.15372911468E+03  0.00000000000E+00 0.  1.
        -13    1    3    3    0    0 -0.64030958937E+02  0.43180561585E+02  0.75476230848E+02  0.10798697155E+03  0.00000000000E+00 0.  1.
         13    1    3    3    0    0 -0.34053328699E+02  0.18188395767E+02 -0.26413491422E+02  0.46777339227E+02  0.00000000000E+00 0. -1.
          2    1    1    2  501    0 -0.48749189500E+02  0.70686521582E+02  0.11423456741E+01  0.85874168199E+02  0.00000000000E+00 0. -1.
<scales pt_clust_5="13000.00000" pt_clust_6="13000.00000" pt_clust_7="13000.00000" pt_clust_8="13000.00000" pt_clust_9="85.86661"></scales>
<clustering>
<clus scale="   85.174">  5  6 -1 -1</clus>
<clus scale="   85.867">  1  9  2 -1</clus>
<clus scale="   90.323">  7  8 -1 -1</clus>
<clus scale="  175.220">  1  5  2 -1</clus>
<clus scale="   85.867">  1  5  2 -1</clus>
</clustering>
</event>
<event>
 9    1  0.6270443E-005  0.1136029E+03  0.7546771E-02  0.1257795E+00
          3   -1    0    0  502    0 -0.00000000000E+00  0.00000000000E+00  0.23508199962E+03  0.23508199962E+03  0.00000000000E+00 0. -1.
         21   -1    0    0  501  502  0.00000000000E+00 -0.00000000000E+00 -0.17400014033E+03  0.17400014033E+03  0.00000000000E+00 0. -1.
         23    2    1    2    0    0  0.30986055876E+02 -0.63138386196E+02  0.19067791100E+03  0.22256951521E+03  0.90733300869E+02 0.  0.
        -24    2    1    2    0    0 -0.25954113431E+01  0.60251875100E+02 -0.76566369081E+02  0.12629213086E+03  0.80313565667E+02 0.  0.
         13    1    4    4    0    0 -0.11938380184E+02  0.19925560545E+02  0.13713761636E+02  0.26974434983E+02  0.00000000000E+00 0. -1.
        -14    1    4    4    0    0  0.93429688414E+01  0.40326314555E+02 -0.90280130716E+02  0.99317695878E+02  0.00000000000E+00 0.  1.
        -11    1    3    3    0    0  0.28052123275E+02  0.13785543429E+01  0.85943214903E+01  0.29371489479E+02  0.00000000000E+00 0.  1.
         11    1    3    3    0    0  0.29339326008E+01 -0.64516940539E+02  0.18208358951E+03  0.19319802573E+03  0.00000000000E+00 0. -1.
          4    1    1    2  501    0 -0.28390644533E+02  0.28865110961E+01 -0.53029682632E+02  0.60220493882E+02  0.00000000000E+00 0. -1.
<scales pt_clust_5="13000.00000" pt_clust_6="13000.00000" pt_clust_7="13000.00000" pt_clust_8="13000.00000" pt_clust_9="28.53700"></scales>
<clustering>
<clus scale="   28.537">  2  9  1 -1</clus>
<clus scale="   80.314">  5  6 -1 -1</clus>
<clus scale="   90.733">  7  8 -1 -1</clus>
<clus scale="  105.467">  2  5  1 -1</clus>
<clus scale="   28.537">  2  5  1 -1</clus>
</clustering>
</event>
<event>
 9    1  0.6270443E-005  0.1615883E+03  0.7546771E-02  0.1197563E+00
          1   -1    0    0  502    0 -0.00000000000E+00  0.00000000000E+00  0.78517465036E+03  0.78517465036E+03  0.00000000000E+00 0. -1.
         21   -1    0    0  501  502  0.00000000000E+00 -0.00000000000E+00 -0.65530554155E+02  0.65530554155E+02  0.00000000000E+00 0. -1.
         23    2    1    2    0    0 -0.75373040194E+01 -0.87563738053E+02  0.13107337766E+03  0.18308624936E+03  0.92823085491E+02 0.  0.
        -24    2    1    2    0    0  0.13204979896E+03 -0.55816323651E+01  0.34996635936E+03  0.38281821490E+03  0.81271329199E+02 0.  0.
         13    1    4    4    0    0  0.54386327369E+02  0.32768023998E+01  0.25026804840E+03  0.25613025220E+03  0.00000000000E+00 0. -1.
        -14    1    4    4    0    0  0.77663471594E+02 -0.88584347649E+01  0.99698310959E+02  0.12668796271E+03  0.00000000000E+00 0.  1.
        -13    1    3    3    0    0 -0.25451662395E+02 -0.13791986921E+02  0.94472168064E+02  0.98807877017E+02  0.00000000000E+00 0.  1.
         13    1    3    3    0    0  0.17914358376E+02 -0.73771751132E+02  0.36601209597E+02  0.84278372345E+02  0.00000000000E+00 0. -1.
          2    1    1    2  501    0 -0.12451249494E+03  0.93145370418E+02  0.23860435918E+03  0.28480074025E+03  0.00000000000E+00 0. -1.
<scales pt_clust_5="13000.00000" pt_clust_6="13000.00000" pt_clust_7="13000.00000" pt_clust_8="13000.00000" pt_clust_9="139.66300"></scales>
<clustering>
<clus scale="   81.271">  5  6 -1 -1</clus>
<clus scale="   92.823">  7  8 -1 -1</clus>
<clus scale="  127.829">  1  7  2 -1</clus>
<clus scale="  139.663">  2  9  1 -1</clus>
<clus scale="  139.663">  2  5  1 -1</clus>
</clustering>
</event>
<event>
 9    1  0.6270443E-005  0.1819921E+03  0.7546771E-02  0.1166662E+00
          3   -1    0    0  502    0 -0.00000000000E+00  0.00000000000E+00  0.14374714383E+03  0.14374714383E+03  0.00000000000E+00 0. -1.
         21   -1    0    0  501  502  0.00000000000E+00 -0.00000000000E+00 -0.34154210210E+03  0.34154210210E+03  0.00000000000E+00 0. -1.
         23    2    1    2    0    0 -0.45579942643E+01 -0.14001799416E+03 -0.59982120312E+02  0.17654450524E+03  0.89130766702E+02 0.  0.
        -24    2    1    2    0    0 -0.44728588495E+02  0.18516646435E+03 -0.11930519432E+03  0.23938996816E+03  0.82380588219E+02 0.  0.
         11    1    4    4    0    0 -0.67872887908E+02  0.12711365173E+03 -0.72500212425E+02  0.16130991963E+03  0.00000000000E+00 0. -1.
        -12    1    4    4    0    0  0.23144299412E+02  0.58052812620E+02 -0.46804981898E+02  0.78080048532E+02  0.00000000000E+00 0.  1.
        -11    1    3    3    0    0  0.33770473023E+02 -0.19735252517E+02 -0.74935503378E+01  0.39825599014E+02  0.00000000000E+00 0.  1.
         11    1    3    3    0    0 -0.38328467288E+02 -0.12028274164E+03 -0.52488569975E+02  0.13671890622E+03  0.00000000000E+00 0. -1.
          4    1    1    2  501    0  0.49286582760E+02 -0.45148470192E+02 -0.18507643630E+02  0.69354772536E+02  0.00000000000E+00 0. -1.
<scales pt_clust_5="13000.00000" pt_clust_6="13000.00000" pt_clust_7="13000.00000" pt_clust_8="13000.00000" pt_clust_9="66.83978"></scales>
<clustering>
<clus scale="   66.840">  2  9  1 -1</clus>
<clus scale="   82.381">  5  6 -1 -1</clus>
<clus scale="   89.131">  7  8 -1 -1</clus>
<clus scale="  178.783">  2  5  1 -1</clus>
<clus scale="   66.840">  2  5  1 -1</clus>
</clustering>
</event>
<event>
 9    1  0.6270443E-005  0.1435610E+03  0.7546771E-02  0.1211146E+00
          1   -1    0    0  502    0 -0.00000000000E+00  0.00000000000E+00  0.31788518844E+03  0.31788518844E+03  0.00000000000E+00 0. -1.
         21   -1    0    0  501  502  0.00000000000E+00 -0.00000000000E+00 -0.15814098281E+03  0.15814098281E+03  0.00000000000E+00 0.  1.
        -24    2    1    2    0    0  0.99356586713E+02  0.36733057257E+02  0.71772967763E+02  0.15143105335E+03  0.80987382958E+02 0.  0.
         23    2    1    2    0    0 -0.12045984106E+03 -0.14960888553E+02 -0.66763184807E+02  0.16691786452E+03  0.93112024775E+02 0.  0.
         13    1    3    3    0    0  0.60294717438E+02  0.58866319313E+02  0.64119394789E+02  0.10588670024E+03  0.00000000000E+00 0. -1.
        -14    1    3    3    0    0  0.39061869276E+02 -0.22133262056E+02  0.76535729740E+01  0.45544353106E+02  0.00000000000E+00 0.  1.
        -13    1    4    4    0    0 -0.39604632252E+02  0.22825465372E+02 -0.62677106238E+02  0.77575436910E+02  0.00000000000E+00 0.  1.
         13    1    4    4    0    0 -0.80855208807E+02 -0.37786353925E+02 -0.40860785685E+01  0.89342427615E+02  0.00000000000E+00 0. -1.
          2    1    1    2  501    0  0.21103254346E+02 -0.21772168704E+02  0.15473442267E+03  0.15767725338E+03  0.00000000000E+00 0. -1.
<scales pt_clust_5="13000.00000" pt_clust_6="13000.00000" pt_clust_7="13000.00000" pt_clust_8="13000.00000" pt_clust_9="30.32121"></scales>
<clustering>
<clus scale="   30.321">  2  9  1 -1</clus>
<clus scale="   80.987">  5  6 -1 -1</clus>
<clus scale="   93.112">  7  8 -1 -1</clus>
<clus scale="  136.011">  1  5  2 -1</clus>
<clus scale="   30.321">  2  5  1 -1</clus>
</clustering>
</event>
<event>
 9    1  0.6270443E-005  0.1842503E+03  0.7546771E-02  0.1189522E+00
         21   -1    0    0  501  502  0.00000000000E+00  0.00000000000E+00  0.27206970451E+03  0.27206970451E+03  0.00000000000E+00 0. -1.
          1   -1    0    0  502    0 -0.00000000000E+00 -0.00000000000E+00 -0.51596101938E+03  0.51596101938E+03  0.00000000000E+00 0. -1.
        -24    2    1    2    0    0  0.30260417505E+02  0.39398705379E+02 -0.27918978946E+03  0.29754180625E+03  0.90090160794E+02 0.  0.
         23    2    1    2    0    0 -0.17237078282E+02 -0.16708732053E+03  0.20368043812E+03  0.27876627963E+03  0.89496526374E+02 0.  0.
         13    1    3    3    0    0 -0.25359412731E+02 -0.40079282061E+01 -0.35280290046E+02  0.43633269054E+02  0.00000000000E+00 0. -1.
        -14    1    3    3    0    0  0.55619830235E+02  0.43406633585E+02 -0.24390949942E+03  0.25390853720E+03  0.00000000000E+00 0.  1.
        -11    1    4    4    0    0  0.57645359930E+01 -0.13028219543E+03  0.19486884436E+03  0.23447931001E+03  0.00000000000E+00 0. -1.
         11    1    4    4    0    0 -0.23001614275E+02 -0.36805125101E+02  0.88115937616E+01  0.44286969614E+02  0.00000000000E+00 0.  1.
          2    1    1    2  501    0 -0.13023339223E+02  0.12768861515E+03 -0.16838196353E+03  0.21172263801E+03  0.00000000000E+00 0. -1.
<scales pt_clust_5="13000.00000" pt_clust_6="13000.00000" pt_clust_7="13000.00000" pt_clust_8="13000.00000" pt_clust_9="161.05460"></scales>
<clustering>
<clus scale="   89.497">  7  8 -1 -1</clus>
<clus scale="   90.090">  5  6 -1 -1</clus>
<clus scale="  102.879">  2  5  1 -1</clus>
<clus scale="  161.055">  1  9  2 -1</clus>
<clus scale="  161.055">  1  5  2 -1</clus>
</clustering>
</event>
<event>
 9    1  0.6270443E-005  0.2746343E+03  0.7546771E-02  0.1099007E+00
          1   -1    0    0  502    0 -0.00000000000E+00  0.00000000000E+00  0.84871229057E+03  0.84871229057E+03  0.00000000000E+00 0. -1.
         21   -1    0    0  501  502  0.00000000000E+00 -0.00000000000E+00 -0.24548492321E+03  0.24548492321E+03  0.00000000000E+00 0. -1.
         23    2    1    2    0    0 -0.18267378407E+03 -0.19907773538E+03  0.54670343900E+03  0.61646669000E+03  0.90248953256E+02 0.  0.
        -24    2    1    2    0    0  0.16327198473E+03  0.17663820225E+03  0.20482808504E+03  0.32648871292E+03  0.82350104753E+02 0.  0.
         11    1    4    4    0    0  0.34598418198E+02  0.72913653518E+02  0.30523660703E+02  0.86285255252E+02  0.00000000000E+00 0. -1.
        -12    1    4    4    0    0  0.12867356653E+03  0.10372454874E+03  0.17430442434E+03  0.24020345767E+03  0.00000000000E+00 0.  1.
        -11    1    3    3    0    0 -0.13323198253E+03 -0.19374496629E+03  0.45126921131E+03  0.50885339166E+03  0.00000000000E+00 0. -1.
         11    1    3    3    0    0 -0.49441801541E+02 -0.53327690922E+01  0.95434227691E+02  0.10761329835E+03  0.00000000000E+00 0.  1.
          2    1    1    2  501    0  0.19401799338E+02  0.22439533125E+02 -0.14830415667E+03  0.15124181086E+03  0.00000000000E+00 0. -1.
<scales pt_clust_5="13000.00000" pt_clust_6="13000.00000" pt_clust_7="13000.00000" pt_clust_8="13000.00000" pt_clust_9="29.66416"></scales>
<clustering>
<clus scale="   29.664">  2  9  1 -1</clus>
<clus scale="   82.350">  5  6 -1 -1</clus>
<clus scale="   90.249">  7  8 -1 -1</clus>
<clus scale="  272.141">  2  5  1 -1</clus>
<clus scale="   29.664">  2  5  1 -1</clus>
</clustering>
</event>
<event>
 9    1  0.6270443E-005  0.9303755E+02  0.7546771E-02  0.1301952E+00
         -2   -1    0    0    0  501 -0.00000000000E+00  0.00000000000E+00  0.14693886975E+03  0.14693886975E+03  0.00000000000E+00 0.  1.
         21   -1    0    0  501  502  0.00000000000E+00 -0.00000000000E+00 -0.15168114202E+03  0.15168114202E+03  0.00000000000E+00 0.  1.
         23    2    1    2    0    0  0.13150940775E+02 -0.21378932974E+02  0.41945198057E+02  0.10240094119E+03  0.89980815168E+02 0.  0.
        -24    2    1    2    0    0 -0.49230348898E+02 -0.53176804885E+02 -0.34753691450E+02  0.11253695292E+03  0.78774024095E+02 0.  0.
         11    1    4    4    0    0 -0.36274208501E+02  0.71382089223E+01  0.75524062733E+01  0.37733421121E+02  0.00000000000E+00 0. -1.
        -12    1    4    4    0    0 -0.12956140397E+02 -0.60315013807E+02 -0.42306097724E+02  0.74803531796E+02  0.00000000000E+00 0.  1.
        -11    1    3    3    0    0 -0.77205416342E+01  0.31636281999E+02  0.16319286157E+01  0.32605586835E+02  0.00000000000E+00 0.  1.
         11    1    3    3    0    0  0.20871482409E+02 -0.53015214973E+02  0.40313269441E+02  0.69795354356E+02  0.00000000000E+00 0. -1.
         -1    1    1    2    0  502  0.36079408122E+02  0.74555737858E+02 -0.11933778876E+02  0.83682117662E+02  0.00000000000E+00 0.  1.
<scales pt_clust_5="13000.00000" pt_clust_6="13000.00000" pt_clust_7="13000.00000" pt_clust_8="13000.00000" pt_clust_9="82.82682"></scales>
<clustering>
<clus scale="   78.774">  5  6 -1 -1</clus>
<clus scale="   82.827">  2  9  1 -1</clus>
<clus scale="   82.827">  2  5  1 -1</clus>
<clus scale="   89.981">  7  8 -1 -1</clus>
<clus scale="   82.827">  2  5  1 -1</clus>
</clustering>
</event>
<event>
 9    1  0.6270443E-005  0.1092217E+03  0.7546771E-02  0.1269791E+00
         21   -1    0    0  501  502  0.00000000000E+00  0.00000000000E+00  0.10357240237E+03  0.10357240237E+03  0.00000000000E+00 0. -1.
         -2   -1    0    0    0  501 -0.00000000000E+00 -0.00000000000E+00 -0.28759751158E+03  0.28759751158E+03  0.00000000000E+00 0.  1.
        -24    2    1    2    0    0 -0.24415353751E+02  0.53765184695E+02 -0.20187519335E+03  0.22388651487E+03  0.76712275864E+02 0.  0.
         23    2    1    2    0    0  0.39002778450E+02 -0.32745903063E+01  0.40140787712E+02  0.11019602265E+03  0.94868018331E+02 0.  0.
         13    1    3    3    0    0  0.27275105518E+02  0.26196595630E+02 -0.89384985246E+02  0.97056007496E+02  0.00000000000E+00 0. -1.
        -14    1    3    3    0    0 -0.51690459269E+02  0.27568589065E+02 -0.11249020810E+03  0.12683050738E+03  0.00000000000E+00 0.  1.
        -13    1    4    4    0    0  0.32604357327E+02 -0.28611450967E+02 -0.17603455583E+02  0.46813896351E+02  0.00000000000E+00 0.  1.
         13    1    4    4    0    0  0.63984211233E+01  0.25336860660E+02  0.57744243295E+02  0.63382126303E+02  0.00000000000E+00 0. -1.
         -1    1    1    2    0  502 -0.14587424699E+02 -0.50490594389E+02 -0.22290703577E+02  0.57087376424E+02  0.00000000000E+00 0.  1.
<scales pt_clust_5="13000.00000" pt_clust_6="13000.00000" pt_clust_7="13000.00000" pt_clust_8="13000.00000" pt_clust_9="52.55562"></scales>
<clustering>
<clus scale="   52.556">  1  9  2 -1</clus>
<clus scale="   76.712">  5  6 -1 -1</clus>
<clus scale="   93.884">  2  5  1 -1</clus>
<clus scale="   94.868">  7  8 -1 -1</clus>
<clus scale="   52.556">  1  5  2 -1</clus>
</clustering>
</event>
<event>
 9    1  0.6270443E-005  0.1303629E+03  0.7546771E-02  0.1253889E+00
         21   -1    0    0  501  502  0.00000000000E+00  0.00000000000E+00  0.17044476870E+03  0.17044476870E+03  0.00000000000E+00 0. -1.
          3   -1    0    0  502    0 -0.00000000000E+00 -0.00000000000E+00 -0.19179072371E+03  0.19179072371E+03  0.00000000000E+00 0. -1.
        -24    2    1    2    0    0  0.41089018503E+00 -0.10263137173E+02 -0.20811820445E+02  0.78223219714E+02  0.74701000106E+02 0.  0.
         23    2    1    2    0    0  0.86424063180E+02  0.41757759072E+02 -0.86077272434E+02  0.15811609018E+03  0.91534539956E+02 0.  0.
         11    1    3    3    0    0  0.49108364452E+01  0.27666894852E+02 -0.27647582090E+02  0.39420327000E+02  0.00000000000E+00 0. -1.
        -12    1    3    3    0    0 -0.44999462602E+01 -0.37930032025E+02  0.68357616441E+01  0.38802892715E+02  0.00000000000E+00 0.  1.
        -11    1    4    4    0    0  0.21031523212E+02 -0.26275149541E+02 -0.56486283218E+01  0.34126462664E+02  0.00000000000E+00 0.  1.
         11    1    4    4    0    0  0.65392539967E+02  0.68032908613E+02 -0.80428644112E+02  0.12398962752E+03  0.00000000000E+00 0. -1.
          4    1    1    2  501    0 -0.86834953365E+02 -0.31494621898E+02  0.85543137867E+02  0.12589618251E+03  0.00000000000E+00 0. -1.
<scales pt_clust_5="13000.00000" pt_clust_6="13000.00000" pt_clust_7="13000.00000" pt_clust_8="13000.00000" pt_clust_9="92.82188"></scales>
<clustering>
<clus scale="   74.701">  5  6 -1 -1</clus>
<clus scale="   75.404">  2  5  1 -1</clus>
<clus scale="   91.535">  7  8 -1 -1</clus>
<clus scale="   92.822">  1  9  2 -1</clus>
<clus scale="   92.822">  1  5  2 -1</clus>
</clustering>
</event>
<event>
 9    1  0.6270443E-005  0.1075493E+03  0.7546771E-02  0.1270067E+00
          1   -1    0    0  502    0 -0.00000000000E+00  0.00000000000E+00  0.33172097742E+03  0.33172097742E+03  0.00000000000E+00 0. -1.
         21   -1    0    0  501  502  0.00000000000E+00 -0.00000000000E+00 -0.96026949044E+02  0.96026949044E+02  0.00000000000E+00 0. -1.
         23    2    1    2    0    0  0.39465006827E+02 -0.65382297069E+02  0.22405493433E+03  0.25374303981E+03  0.91392478475E+02 0.  0.
        -24    2    1    2    0    0  0.32509634389E+02  0.19754773044E+02  0.86058756040E+01  0.88732263025E+02  0.79700853323E+02 0.  0.
         11    1    4    4    0    0  0.90864439269E+00 -0.26238447259E+02 -0.12491129583E+02  0.29074216540E+02  0.00000000000E+00 0. -1.
        -12    1    4    4    0    0  0.31600989996E+02  0.45993220302E+02  0.21097005187E+02  0.59658046484E+02  0.00000000000E+00 0.  1.
        -11    1    3    3    0    0  0.21826621334E+02  0.21385943604E+02  0.57350243272E+02  0.64983154633E+02  0.00000000000E+00 0.  1.
         11    1    3    3    0    0  0.17638385493E+02 -0.86768240673E+02  0.16670469106E+03  0.18875988518E+03  0.00000000000E+00 0. -1.
          2    1    1    2  501    0 -0.71974641216E+02  0.45627524025E+02  0.30332184465E+01  0.85272623631E+02  0.00000000000E+00 0. -1.
<scales pt_clust_5="13000.00000" pt_clust_6="13000.00000" pt_clust_7="13000.00000" pt_clust_8="13000.00000" pt_clust_9="85.21866"></scales>
<clustering>
<clus scale="   79.701">  5  6 -1 -1</clus>
<clus scale="   85.219">  2  9  1 -1</clus>
<clus scale="   91.392">  7  8 -1 -1</clus>
<clus scale="   97.808">  2  5  1 -1</clus>
<clus scale="   85.219">  2  5  1 -1</clus>
</clustering>
</event>
<event>
 9    1  0.6270443E-005  0.1178695E+03  0.7546771E-02  0.1250125E+00
         -2   -1    0    0    0  501 -0.00000000000E+00  0.00000000000E+00  0.40795012293E+03  0.40795012293E+03  0.00000000000E+00 0.  1.
         21   -1    0    0  501  502  0.00000000000E+00 -0.00000000000E+00 -0.85527847781E+02  0.85527847781E+02  0.00000000000E+00 0. -1.
        -24    2    1    2    0    0  0.35607530552E+02  0.82274737932E+02  0.28335517067E+03  0.30814595359E+03  0.81404835428E+02 0.  0.
         23    2    1    2    0    0  0.23793296891E+02 -0.27200383498E+02  0.96142820787E+01  0.99139723015E+02  0.91816493181E+02 0.  0.
         13    1    3    3    0    0 -0.21788309366E+02  0.63094692423E+01  0.30887156508E+02  0.38321746624E+02  0.00000000000E+00 0. -1.
        -14    1    3    3    0    0  0.57395839917E+02  0.75965268689E+02  0.25246801417E+03  0.26982420696E+03  0.00000000000E+00 0.  1.
        -11    1    4    4    0    0 -0.35434281094E+02 -0.13037406657E+02  0.46105078015E+01  0.38037074430E+02  0.00000000000E+00 0.  1.
         11    1    4    4    0    0  0.59227577985E+02 -0.14162976841E+02  0.50037742772E+01  0.61102648584E+02  0.00000000000E+00 0. -1.
         -1    1    1    2    0  502 -0.59400827443E+02 -0.55074354434E+02  0.29452822400E+02  0.86192294113E+02  0.00000000000E+00 0.  1.
<scales pt_clust_5="13000.00000" pt_clust_6="13000.00000" pt_clust_7="13000.00000" pt_clust_8="13000.00000" pt_clust_9="81.00397"></scales>
<clustering>
<clus scale="   81.004">  2  9  1 -1</clus>
<clus scale="   81.405">  5  6 -1 -1</clus>
<clus scale="   91.816">  7  8 -1 -1</clus>
<clus scale="  109.953">  1  5  2 -1</clus>
<clus scale="   81.004">  2  5  1 -1</clus>
</clustering>
</event>
<event>
 9    1  0.6270443E-005  0.1350339E+03  0.7546771E-02  0.1223768E+00
          1   -1    0    0  502    0 -0.00000000000E+00  0.00000000000E+00  0.84369254740E+03  0.84369254740E+03  0.00000000000E+00 0. -1.
         21   -1    0    0  501  502  0.00000000000E+00 -0.00000000000E+00 -0.25069953125E+02  0.25069953125E+02  0.00000000000E+00 0. -1.
         23    2    1    2    0    0  0.11053176939E+03  0.25901429522E+01  0.47025687657E+03  0.49205731866E+03  0.93567590527E+02 0.  0.
        -24    2    1    2    0    0 -0.84031021101E+02 -0.77492550818E+01  0.29756647465E+03  0.31917719570E+03  0.78784592114E+02 0.  0.
         11    1    4    4    0    0 -0.74459522968E+02  0.10546235913E+02  0.12876030635E+03  0.14911291072E+03  0.00000000000E+00 0. -1.
        -12    1    4    4    0    0 -0.95714981331E+01 -0.18295490994E+02  0.16880616830E+03  0.17006428498E+03  0.00000000000E+00 0.  1.
        -13    1    3    3    0    0  0.83298973898E+02  0.33170781848E+02  0.40659149819E+03  0.41636001996E+03  0.00000000000E+00 0. -1.
         13    1    3    3    0    0  0.27232795496E+02 -0.30580638896E+02  0.63665378381E+02  0.75697298698E+02  0.00000000000E+00 0.  1.
          2    1    1    2  501    0 -0.26500748293E+02  0.51591121296E+01  0.50799243046E+02  0.57527986164E+02  0.00000000000E+00 0. -1.
<scales pt_clust_5="13000.00000" pt_clust_6="13000.00000" pt_clust_7="13000.00000" pt_clust_8="13000.00000" pt_clust_9="26.99826"></scales>
<clustering>
<clus scale="   26.998">  2  9  1 -1</clus>
<clus scale="   78.785">  5  6 -1 -1</clus>
<clus scale="   93.568">  7  8 -1 -1</clus>
<clus scale="  125.245">  2  5  1 -1</clus>
<clus scale="   26.998">  2  5  1 -1</clus>
</clustering>
</event>
<event>
 9    1  0.6270443E-005  0.2392177E+03  0.7546771E-02  0.1137041E+00
          3   -1    0    0  502    0 -0.00000000000E+00  0.00000000000E+00  0.69572278771E+03  0.69572278771E+03  0.00000000000E+00 0. -1.
         21   -1    0    0  501  502  0.00000000000E+00 -0.00000000000E+00 -0.15558197510E+03  0.15558197510E+03  0.00000000000E+00 0. -1.
        -24    2    1    2    0    0 -0.78385639444E+02  0.11149998216E+03  0.49660817972E+02  0.16607167250E+03  0.80852019582E+02 0.  0.
         23    2    1    2    0    0  0.86530408883E+02  0.15861671923E+03  0.24776842542E+03  0.32200000335E+03  0.98224407572E+02 0.  0.
         11    1    3    3    0    0 -0.50431858923E+02  0.49859897540E+02 -0.14976989808E+02  0.72482356480E+02  0.00000000000E+00 0. -1.
        -12    1    3    3    0    0 -0.27953780521E+02  0.61640084622E+02  0.64637807780E+02  0.93589316015E+02  0.00000000000E+00 0.  1.
        -11    1    4    4    0    0  0.10216385125E+03  0.10778937848E+03  0.20808948783E+03  0.25565061619E+03  0.00000000000E+00 0. -1.
         11    1    4    4    0    0 -0.15633442369E+02  0.50827340747E+02  0.39678937595E+02  0.66349387159E+02  0.00000000000E+00 0.  1.
          4    1    1    2  501    0 -0.81447694386E+01 -0.27011670139E+03  0.24271156921E+03  0.36323308697E+03  0.00000000000E+00 0. -1.
<scales pt_clust_5="13000.00000" pt_clust_6="13000.00000" pt_clust_7="13000.00000" pt_clust_8="13000.00000" pt_clust_9="218.12176"></scales>
<clustering>
<clus scale="   80.852">  5  6 -1 -1</clus>
<clus scale="   98.224">  7  8 -1 -1</clus>
<clus scale="  158.473">  1  5  2 -1</clus>
<clus scale="  218.122">  2  9  1 -1</clus>
<clus scale="  218.122">  2  5  1 -1</clus>
</clustering>
</event>
<event>
 9    1  0.6270443E-005  0.1887398E+03  0.7546771E-02  0.1160930E+00
         -4   -1    0    0    0  501 -0.00000000000E+00  0.00000000000E+00  0.64908178398E+03  0.64908178398E+03  0.00000000000E+00 0.  1.
         21   -1    0    0  501  502  0.00000000000E+00 -0.00000000000E+00 -0.11929945728E+03  0.11929945728E+03  0.00000000000E+00 0.  1.
         23    2    1    2    0    0  0.14070856908E+03 -0.35073304697E+02  0.14063626749E+03  0.22153077023E+03  0.90930106719E+02 0.  0.
        -24    2    1    2    0    0 -0.15769185745E+03  0.14393876290E+03  0.12244954652E+03  0.25828999218E+03  0.78324576257E+02 0.  0.
         11    1    4    4    0    0 -0.42875436874E+02  0.33364027230E+02  0.73775670638E+02  0.91620472484E+02  0.00000000000E+00 0. -1.
        -12    1    4    4    0    0 -0.11481642057E+03  0.11057473567E+03  0.48673875884E+02  0.16666951969E+03  0.00000000000E+00 0.  1.
        -11    1    3    3    0    0  0.13191123400E+03  0.66778763685E+00  0.12433804215E+03  0.18127594524E+03  0.00000000000E+00 0.  1.
         11    1    3    3    0    0  0.87973350831E+01 -0.35741092334E+02  0.16298225342E+02  0.40254824991E+02  0.00000000000E+00 0. -1.
         -3    1    1    2    0  502  0.16983288362E+02 -0.10886545820E+03  0.26669651269E+03  0.28856047885E+03  0.00000000000E+00 0.  1.
<scales pt_clust_5="13000.00000" pt_clust_6="13000.00000" pt_clust_7="13000.00000" pt_clust_8="13000.00000" pt_clust_9="110.18227"></scales>
<clustering>
<clus scale="   78.325">  5  6 -1 -1</clus>
<clus scale="   90.930">  7  8 -1 -1</clus>
<clus scale="  110.182">  2  9  1 -1</clus>
<clus scale="  183.000">  2  5  1 -1</clus>
<clus scale="  110.182">  2  5  1 -1</clus>
</clustering>
</event>
<event>
 9    1  0.6270443E-005  0.1214757E+03  0.7546771E-02  0.1244342E+00
         -2   -1    0    0    0  501 -0.00000000000E+00  0.00000000000E+00  0.13627943010E+03  0.13627943010E+03  0.00000000000E+00 0.  1.
         21   -1    0    0  501  502  0.00000000000E+00 -0.00000000000E+00 -0.16615084238E+03  0.16615084238E+03  0.00000000000E+00 0.  1.
         23    2    1    2    0    0 -0.92681432421E+02 -0.64940022148E+01 -0.13382233405E+02  0.13141613929E+03  0.91973352201E+02 0.  0.
        -24    2    1    2    0    0  0.58716842321E+02  0.35412630462E+02 -0.48494502234E+02  0.11611221006E+03  0.80178591971E+02 0.  0.
         11    1    4    4    0    0  0.27811746106E+02  0.14571583433E+02  0.20636158829E+02  0.37572267917E+02  0.00000000000E+00 0. -1.
        -12    1    4    4    0    0  0.30905096215E+02  0.20841047029E+02 -0.69130661063E+02  0.78539942146E+02  0.00000000000E+00 0.  1.
        -11    1    3    3    0    0 -0.70282882931E+01 -0.37015831936E+02  0.67710888373E+01  0.38280756188E+02  0.00000000000E+00 0. -1.
         11    1    3    3    0    0 -0.85653144128E+02  0.30521829721E+02 -0.20153322242E+02  0.93135383104E+02  0.00000000000E+00 0.  1.
         -1    1    1    2    0  502  0.33964590100E+02 -0.28918628247E+02  0.32005323354E+02  0.54901923130E+02  0.00000000000E+00 0.  1.
<scales pt_clust_5="13000.00000" pt_clust_6="13000.00000" pt_clust_7="13000.00000" pt_clust_8="13000.00000" pt_clust_9="44.60810"></scales>
<clustering>
<clus scale="   44.608">  2  9  1 -1</clus>
<clus scale="   80.179">  5  6 -1 -1</clus>
<clus scale="   91.973">  7  8 -1 -1</clus>
<clus scale="  112.809">  2  5  1 -1</clus>
<clus scale="   44.608">  2  5  1 -1</clus>
</clustering>
</event>
<event>
 9    1  0.6270443E-005  0.1053259E+03  0.7546771E-02  0.1277579E+00
         -4   -1    0    0    0  501 -0.00000000000E+00  0.00000000000E+00  0.37963875227E+03  0.37963875227E+03  0.00000000000E+00 0.  1.
         21   -1    0    0  501  502  0.00000000000E+00 -0.00000000000E+00 -0.13357600988E+03  0.13357600988E+03  0.00000000000E+00 0.  1.
        -24    2    1    2    0    0 -0.52601777937E+01  0.44772762726E+02  0.54009286274E+02  0.10507624468E+03  0.78049628057E+02 0.  0.
         23    2    1    2    0    0  0.12281005497E+02  0.47628501234E+02 -0.73467183911E+02  0.12691174796E+03  0.91048709127E+02 0.  0.
         13    1    3    3    0    0  0.17826280709E+02  0.43943574197E+02  0.12018706970E+01  0.47436889551E+02  0.00000000000E+00 0. -1.
        -14    1    3    3    0    0 -0.23086458503E+02  0.82918852890E+00  0.52807415577E+02  0.57639355129E+02  0.00000000000E+00 0.  1.
        -11    1    4    4    0    0  0.31013636259E+02  0.65249091838E+02 -0.70636788166E+02  0.10103883146E+03  0.00000000000E+00 0.  1.
         11    1    4    4    0    0 -0.18732630762E+02 -0.17620590605E+02 -0.28303957453E+01  0.25872916508E+02  0.00000000000E+00 0. -1.
         -3    1    1    2    0  502 -0.70208277030E+01 -0.92401263959E+02  0.26552064003E+03  0.28122676951E+03  0.00000000000E+00 0.  1.
<scales pt_clust_5="13000.00000" pt_clust_6="13000.00000" pt_clust_7="13000.00000" pt_clust_8="13000.00000" pt_clust_9="52.94981"></scales>
<clustering>
<clus scale="   78.050">  5  6 -1 -1</clus>
<clus scale="   90.133">  1  5  2 -1</clus>
<clus scale="   52.950">  2  9  1 -1</clus>
<clus scale="   91.049">  7  8 -1 -1</clus>
<clus scale="   52.950">  2  5  1 -1</clus>
</clustering>
</event>
<event>
 9    1  0.6270443E-005  0.9786453E+02  0.7546771E-02  0.1290447E+00
         21   -1    0    0  501  502  0.00000000000E+00  0.00000000000E+00  0.35276432071E+02  0.35276432071E+02  0.00000000000E+00 0. -1.
          1   -1    0    0  502    0 -0.00000000000E+00 -0.00000000000E+00 -0.63992208125E+03  0.63992208125E+03  0.00000000000E+00 0. -1.
         23    2    1    2    0    0 -0.25838514527E+02  0.41899157181E+00 -0.45794483908E+03  0.46792303861E+03  0.92578021354E+02 0.  0.
        -24    2    1    2    0    0  0.58347157875E+02  0.24406294725E+02 -0.89668979418E+02  0.13709188373E+03  0.82180293622E+02 0.  0.
         13    1    4    4    0    0  0.27603242567E+02  0.13880710823E+02  0.98284027553E+01  0.32422378597E+02  0.00000000000E+00 0. -1.
        -14    1    4    4    0    0  0.30743915308E+02  0.10525583902E+02 -0.99497382173E+02  0.10466950513E+03  0.00000000000E+00 0.  1.
        -13    1    3    3    0    0 -0.50725115544E+02 -0.28149356422E+02 -0.26144397192E+03  0.26780286419E+03  0.00000000000E+00 0.  1.
         13    1    3    3    0    0  0.24886601017E+02  0.28568347994E+02 -0.19650086716E+03  0.20012017443E+03  0.00000000000E+00 0. -1.
          2    1    1    2  501    0 -0.32508643348E+02 -0.24825286297E+02 -0.57031830679E+02  0.70183590978E+02  0.00000000000E+00 0. -1.
<scales pt_clust_5="13000.00000" pt_clust_6="13000.00000" pt_clust_7="13000.00000" pt_clust_8="13000.00000" pt_clust_9="40.90363"></scales>
<clustering>
<clus scale="   40.904">  1  9  2 -1</clus>
<clus scale="   82.180">  5  6 -1 -1</clus>
<clus scale="   88.093">  1  5  2 -1</clus>
<clus scale="   92.578">  7  8 -1 -1</clus>
<clus scale="   40.904">  1  5  2 -1</clus>
</clustering>
</event>
<event>
 9    1  0.6270443E-005  0.1115242E+03  0.7546771E-02  0.1273608E+00
          3   -1    0    0  502    0 -0.00000000000E+00  0.00000000000E+00  0.81803830821E+02  0.81803830821E+02  0.00000000000E+00 0. -1.
         21   -1    0    0  501  502  0.00000000000E+00 -0.00000000000E+00 -0.16681539684E+03  0.16681539684E+03  0.00000000000E+00 0.  1.
        -24    2    1    2    0    0 -0.63068871075E+01 -0.22639876054E+02  0.28991229801E+01  0.83658256019E+02  0.80236887236E+02 0.  0.
         23    2    1    2    0    0  0.49667019875E+01 -0.40432417087E+01 -0.82049534591E+02  0.13760886019E+03  0.11028624731E+03 0.  0.
         11    1    3    3    0    0 -0.35917263171E+02 -0.27972754278E+02 -0.15852815317E+02  0.48206187664E+02  0.00000000000E+00 0. -1.
        -12    1    3    3    0    0  0.29610376064E+02  0.53328782241E+01  0.18751938297E+02  0.35452068355E+02  0.00000000000E+00 0.  1.
        -11    1    4    4    0    0 -0.12066814692E+02 -0.53334967100E+02 -0.24428365170E+02  0.59891332906E+02  0.00000000000E+00 0.  1.
         11    1    4    4    0    0  0.17033516680E+02  0.49291725391E+02 -0.57621169421E+02  0.77717527289E+02  0.00000000000E+00 0. -1.
          4    1    1    2  501    0  0.13401851200E+01  0.26683117763E+02 -0.58611544108E+01  0.27352111449E+02  0.00000000000E+00 0. -1.
<scales pt_clust_5="13000.00000" pt_clust_6="13000.00000" pt_clust_7="13000.00000" pt_clust_8="13000.00000" pt_clust_9="26.71677"></scales>
<clustering>
<clus scale="   26.717">  2  9  1 -1</clus>
<clus scale="   80.237">  5  6 -1 -1</clus>
<clus scale="   81.930">  1  5  2 -1</clus>
<clus scale="  110.286">  7  8 -1 -1</clus>
<clus scale="   26.717">  2  5  1 -1</clus>
</clustering>
</event>
<event>
 9    1  0.6270443E-005  0.1600170E+03  0.7546771E-02  0.1197297E+00
          1   -1    0    0  502    0 -0.00000000000E+00  0.00000000000E+00  0.28163746799E+03  0.28163746799E+03  0.00000000000E+00 0. -1.
         21   -1    0    0  501  502  0.00000000000E+00 -0.00000000000E+00 -0.22016264009E+03  0.22016264009E+03  0.00000000000E+00 0. -1.
         23    2    1    2    0    0  0.64668108724E+01  0.98574742254E+02 -0.81811914347E+02  0.15563612746E+03  0.88151094080E+02 0.  0.
        -24    2    1    2    0    0  0.12972663511E+03 -0.93927857903E+02  0.78229865230E+02  0.19515853201E+03  0.79470110441E+02 0.  0.
         13    1    4    4    0    0  0.12324116085E+03 -0.98919968079E+02  0.89203906690E+02  0.18146867714E+03  0.00000000000E+00 0. -1.
        -14    1    4    4    0    0  0.64854742564E+01  0.49921101752E+01 -0.10974041461E+02  0.13689854868E+02  0.00000000000E+00 0.  1.
        -11    1    3    3    0    0 -0.45448664623E+01  0.29495779345E+02  0.17170633978E+02  0.34430908811E+02  0.00000000000E+00 0.  1.
         11    1    3    3    0    0  0.11011677335E+02  0.69078962909E+02 -0.98982548325E+02  0.12120521865E+03  0.00000000000E+00 0. -1.
          2    1    1    2  501    0 -0.13619344598E+03 -0.46468843511E+01  0.65056877025E+02  0.15100544861E+03  0.00000000000E+00 0. -1.
<scales pt_clust_5="13000.00000" pt_clust_6="13000.00000" pt_clust_7="13000.00000" pt_clust_8="13000.00000" pt_clust_9="138.88818"></scales>
<clustering>
<clus scale="   79.470">  5  6 -1 -1</clus>
<clus scale="   88.151">  7  8 -1 -1</clus>
<clus scale="  132.399">  1  7  2 -1</clus>
<clus scale="  138.888">  2  9  1 -1</clus>
<clus scale="  138.888">  2  5  1 -1</clus>
</clustering>
</event>
<event>
 9    1  0.6270443E-005  0.3075889E+03  0.7546771E-02  0.1125631E+00
          1   -1    0    0  502    0 -0.00000000000E+00  0.00000000000E+00  0.31199314584E+03  0.31199314584E+03  0.00000000000E+00 0. -1.
         21   -1    0    0  501  502  0.00000000000E+00 -0.00000000000E+00 -0.47322278437E+03  0.47322278437E+03  0.00000000000E+00 0. -1.
         23    2    1    2    0    0 -0.29898039282E+02 -0.20244482015E+02 -0.10861943294E+03  0.14669127813E+03  0.91741038048E+02 0.  0.
        -24    2    1    2    0    0  0.26895334836E+03  0.15307612173E+03 -0.14312862045E+03  0.35045301388E+03  0.81014259928E+02 0.  0.
         13    1    4    4    0    0  0.15150581555E+03  0.73916569375E+02 -0.34773195846E+02  0.17212450878E+03  0.00000000000E+00 0. -1.
        -14    1    4    4    0    0  0.11744753281E+03  0.79159552359E+02 -0.10835542460E+03  0.17832850510E+03  0.00000000000E+00 0.  1.
        -13    1    3    3    0    0 -0.31593066947E+02  0.23578565438E+02 -0.91466844648E+02  0.99600473378E+02  0.00000000000E+00 0.  1.
         13    1    3    3    0    0  0.16950276643E+01 -0.43823047454E+02 -0.17152588288E+02  0.47090804749E+02  0.00000000000E+00 0. -1.
          2    1    1    2  501    0 -0.23905530907E+03 -0.13283163972E+03  0.90518414857E+02  0.28807163820E+03  0.00000000000E+00 0. -1.
<scales pt_clust_5="13000.00000" pt_clust_6="13000.00000" pt_clust_7="13000.00000" pt_clust_8="13000.00000" pt_clust_9="296.72836"></scales>
<clustering>
<clus scale="   81.014">  5  6 -1 -1</clus>
<clus scale="   91.741">  7  8 -1 -1</clus>
<clus scale="   98.591">  1  7  2 -1</clus>
<clus scale="  296.728">  2  9  1 -1</clus>
<clus scale="  296.728">  2  5  1 -1</clus>
</clustering>
</event>
<event>
 9    1  0.6270443E-005  0.9113801E+02  0.7546771E-02  0.1309180E+00
         21   -1    0    0  501  502  0.00000000000E+00  0.00000000000E+00  0.14293589438E+03  0.14293589438E+03  0.00000000000E+00 0. -1.
          1   -1    0    0  502    0 -0.00000000000E+00 -0.00000000000E+00 -0.13161040384E+03  0.13161040384E+03  0.00000000000E+00 0. -1.
         23    2    1    2    0    0  0.64441647321E+01 -0.47531625647E+01 -0.82444187135E+02  0.12296331403E+03  0.90878010491E+02 0.  0.
        -24    2    1    2    0    0 -0.77424448530E+01 -0.18465772597E+02  0.32157245080E+02  0.85727867981E+02  0.76904152863E+02 0.  0.
         11    1    4    4    0    0 -0.37155246722E+02  0.44078322535E+01  0.30768083044E+02  0.48441885578E+02  0.00000000000E+00 0. -1.
        -12    1    4    4    0    0  0.29412801869E+02 -0.22873604851E+02  0.13891620361E+01  0.37285982404E+02  0.00000000000E+00 0.  1.
        -13    1    3    3    0    0 -0.10607914486E+02  0.26887831362E+02  0.41543458390E+01  0.29201745058E+02  0.00000000000E+00 0.  1.
         13    1    3    3    0    0  0.17052079218E+02 -0.31640993926E+02 -0.86598532974E+02  0.93761568969E+02  0.00000000000E+00 0. -1.
          2    1    1    2  501    0  0.12982801209E+01  0.23218935162E+02  0.61612432598E+02  0.65855116217E+02  0.00000000000E+00 0. -1.
<scales pt_clust_5="13000.00000" pt_clust_6="13000.00000" pt_clust_7="13000.00000" pt_clust_8="13000.00000" pt_clust_9="23.25520"></scales>
<clustering>
<clus scale="   23.255">  1  9  2 -1</clus>
<clus scale="   76.904">  5  6 -1 -1</clus>
<clus scale="   77.211">  1  5  2 -1</clus>
<clus scale="   90.878">  7  8 -1 -1</clus>
<clus scale="   23.255">  1  5  2 -1</clus>
</clustering>
</event>
<event>
 9    1  0.6270443E-005  0.9333411E+02  0.7546771E-02  0.1301793E+00
         21   -1    0    0  501  502  0.00000000000E+00  0.00000000000E+00  0.15863745191E+03  0.15863745191E+03  0.00000000000E+00 0.  1.
         -2   -1    0    0    0  501 -0.00000000000E+00 -0.00000000000E+00 -0.89353571795E+02  0.89353571795E+02  0.00000000000E+00 0.  1.
        -24    2    1    2    0    0 -0.10850775227E+02  0.13423448948E+02  0.24814222756E+02  0.86120017089E+02  0.80641077545E+02 0.  0.
         23    2    1    2    0    0  0.25333483726E+02  0.17111887930E+02  0.70018270681E+02  0.11950489649E+03  0.91892654495E+02 0.  0.
         11    1    3    3    0    0 -0.28316917375E+02 -0.66175321614E+01  0.44417319305E+02  0.53089902955E+02  0.00000000000E+00 0. -1.
        -12    1    3    3    0    0  0.17466142148E+02  0.20040981110E+02 -0.19603096549E+02  0.33030114134E+02  0.00000000000E+00 0.  1.
        -11    1    4    4    0    0  0.53367795854E+02  0.34403335527E+02  0.51225085100E+02  0.81582599083E+02  0.00000000000E+00 0.  1.
         11    1    4    4    0    0 -0.28034312127E+02 -0.17291447598E+02  0.18793185581E+02  0.37922297409E+02  0.00000000000E+00 0. -1.
         -1    1    1    2    0  502 -0.14482708500E+02 -0.30535336878E+02 -0.25548613326E+02  0.42366110119E+02  0.00000000000E+00 0.  1.
<scales pt_clust_5="13000.00000" pt_clust_6="13000.00000" pt_clust_7="13000.00000" pt_clust_8="13000.00000" pt_clust_9="33.79581"></scales>
<clustering>
<clus scale="   33.796">  1  9  2 -1</clus>
<clus scale="   80.641">  5  6 -1 -1</clus>
<clus scale="   82.280">  2  5  1 -1</clus>
<clus scale="   91.893">  7  8 -1 -1</clus>
<clus scale="   33.796">  1  5  2 -1</clus>
</clustering>
</event>
<event>
 9    1  0.6270443E-005  0.9775191E+02  0.7546771E-02  0.1290003E+00
         21   -1    0    0  501  502  0.00000000000E+00  0.00000000000E+00  0.11256994987E+03  0.11256994987E+03  0.00000000000E+00 0. -1.
          1   -1    0    0  502    0 -0.00000000000E+00 -0.00000000000E+00 -0.58005274085E+03  0.58005274085E+03  0.00000000000E+00 0. -1.
         23    2    1    2    0    0  0.53088288285E+01  0.33132247722E+02 -0.23712122329E+03  0.25615036784E+03  0.90887880962E+02 0.  0.
        -24    2    1    2    0    0 -0.56930446457E+02 -0.50492975717E+02  0.69688544016E+02  0.13151944813E+03  0.81549100165E+02 0.  0.
         11    1    4    4    0    0 -0.77949621658E+02 -0.43000948003E+02  0.58804662075E+02  0.10669214276E+03  0.00000000000E+00 0. -1.
        -12    1    4    4    0    0  0.21019175202E+02 -0.74920277136E+01  0.10883881941E+02  0.24827305362E+02  0.00000000000E+00 0.  1.
        -11    1    3    3    0    0 -0.40608759589E+02  0.29994484635E+02 -0.13523481745E+03  0.14435094843E+03  0.00000000000E+00 0. -1.
         11    1    3    3    0    0  0.45917588417E+02  0.31377630871E+01 -0.10188640584E+03  0.11179941940E+03  0.00000000000E+00 0.  1.
          2    1    1    2  501    0  0.51621617628E+02  0.17360727995E+02 -0.30005011171E+03  0.30495287475E+03  0.00000000000E+00 0. -1.
<scales pt_clust_5="13000.00000" pt_clust_6="13000.00000" pt_clust_7="13000.00000" pt_clust_8="13000.00000" pt_clust_9="54.46273"></scales>
<clustering>
<clus scale="   54.463">  1  9  2 -1</clus>
<clus scale="   81.549">  5  6 -1 -1</clus>
<clus scale="   89.135">  1  5  2 -1</clus>
<clus scale="   90.888">  7  8 -1 -1</clus>
<clus scale="   54.463">  1  5  2 -1</clus>
</clustering>
</event>
<event>
 9    1  0.6270443E-005  0.9931724E+02  0.7546771E-02  0.1290139E+00
         21   -1    0    0  501  502  0.00000000000E+00  0.00000000000E+00  0.26433982487E+03  0.26433982487E+03  0.00000000000E+00 0.  1.
          3   -1    0    0  502    0 -0.00000000000E+00 -0.00000000000E+00 -0.18111118102E+03  0.18111118102E+03  0.00000000000E+00 0. -1.
         23    2    1    2    0    0 -0.71237993831E+01  0.10141838516E+02 -0.45217992624E+02  0.96443970518E+02  0.84280289429E+02 0.  0.
        -24    2    1    2    0    0  0.75983495159E+01  0.35579038480E+02  0.22152102928E+03  0.24530811355E+03  0.98898439152E+02 0.  0.
         13    1    4    4    0    0 -0.28763350084E+02  0.51101476202E+02  0.85643365875E+02  0.10379536260E+03  0.00000000000E+00 0. -1.
        -14    1    4    4    0    0  0.36361699600E+02 -0.15522437722E+02  0.13587766341E+03  0.14151275096E+03  0.00000000000E+00 0.  1.
        -13    1    3    3    0    0  0.33716331212E+02 -0.10473174144E+02 -0.52458306380E+01  0.35693096057E+02  0.00000000000E+00 0.  1.
         13    1    3    3    0    0 -0.40840130595E+02  0.20615012660E+02 -0.39972161986E+02  0.60750874461E+02  0.00000000000E+00 0. -1.
          4    1    1    2  501    0 -0.47455013284E+00 -0.45720876996E+02 -0.93074392804E+02  0.10369892182E+03  0.00000000000E+00 0. -1.
<scales pt_clust_5="13000.00000" pt_clust_6="13000.00000" pt_clust_7="13000.00000" pt_clust_8="13000.00000" pt_clust_9="45.72336"></scales>
<clustering>
<clus scale="   45.723">  1  9  2 -1</clus>
<clus scale="   84.280">  7  8 -1 -1</clus>
<clus scale="   84.771">  2  7  1 -1</clus>
<clus scale="   98.898">  5  6 -1 -1</clus>
<clus scale="   45.723">  1  5  2 -1</clus>
</clustering>
</event>
<event>
 9    1  0.6270443E-005  0.1895028E+03  0.7546771E-02  0.1183349E+00
         21   -1    0    0  501  502  0.00000000000E+00  0.00000000000E+00  0.70628194818E+02  0.70628194818E+02  0.00000000000E+00 0. -1.
          1   -1    0    0  502    0 -0.00000000000E+00 -0.00000000000E+00 -0.95474614080E+03  0.95474614080E+03  0.00000000000E+00 0. -1.
        -24    2    1    2    0    0 -0.17676585499E+02 -0.70313330821E+02 -0.43324823485E+03  0.44661990814E+03  0.80677649824E+02 0.  0.
         23    2    1    2    0    0  0.17553552947E+03  0.41313357181E+02 -0.24832420493E+03  0.32032624258E+03  0.91784940739E+02 0.  0.
         11    1    3    3    0    0 -0.19342894846E+02 -0.83965229403E+02 -0.41454080053E+03  0.42340097146E+03  0.00000000000E+00 0. -1.
        -12    1    3    3    0    0  0.16663093467E+01  0.13651898582E+02 -0.18707434322E+02  0.23218936682E+02  0.00000000000E+00 0.  1.
        -11    1    4    4    0    0  0.53225997873E+02  0.58146204699E+02 -0.93141254537E+02  0.12202164262E+03  0.00000000000E+00 0. -1.
         11    1    4    4    0    0  0.12230953160E+03 -0.16832847519E+02 -0.15518295039E+03  0.19830459997E+03  0.00000000000E+00 0.  1.
          2    1    1    2  501    0 -0.15785894397E+03  0.28999973640E+02 -0.20254550621E+03  0.25842818490E+03  0.00000000000E+00 0. -1.
<scales pt_clust_5="13000.00000" pt_clust_6="13000.00000" pt_clust_7="13000.00000" pt_clust_8="13000.00000" pt_clust_9="165.79149"></scales>
<clustering>
<clus scale="   80.678">  5  6 -1 -1</clus>
<clus scale="   91.785">  7  8 -1 -1</clus>
<clus scale="  108.468">  2  5  1 -1</clus>
<clus scale="  165.791">  1  9  2 -1</clus>
<clus scale="  165.791">  1  5  2 -1</clus>
</clustering>
</event>
<event>
 9    1  0.6270443E-005  0.1294643E+03  0.7546771E-02  0.1230995E+00
         21   -1    0    0  501  502  0.00000000000E+00  0.00000000000E+00  0.30891105047E+03  0.30891105047E+03  0.00000000000E+00 0. -1.
          1   -1    0    0  502    0 -0.00000000000E+00 -0.00000000000E+00 -0.26533982676E+03  0.26533982676E+03  0.00000000000E+00 0. -1.
        -24    2    1    2    0    0  0.87766837276E+02 -0.24508144046E+02 -0.11182847137E+03  0.16546457126E+03  0.81050912911E+02 0.  0.
         23    2    1    2    0    0 -0.58060528638E+02  0.12794669229E+03  0.22502308028E+03  0.28060903106E+03  0.91458518461E+02 0.  0.
         11    1    3    3    0    0  0.91837546252E+02 -0.46587354463E+01 -0.11236431798E+03  0.14519496779E+03  0.00000000000E+00 0. -1.
        -12    1    3    3    0    0 -0.40707089758E+01 -0.19849408599E+02  0.53584660492E+00  0.20269603471E+02  0.00000000000E+00 0.  1.
        -11    1    4    4    0    0  0.19472748515E+02  0.59920339412E+02  0.10398336542E+03  0.12158196945E+03  0.00000000000E+00 0. -1.
         11    1    4    4    0    0 -0.77533277153E+02  0.68026352877E+02  0.12103971486E+03  0.15902706161E+03  0.00000000000E+00 0.  1.
          2    1    1    2  501    0 -0.29706308638E+02 -0.10343854824E+03 -0.69623385199E+02  0.12817727491E+03  0.00000000000E+00 0. -1.
<scales pt_clust_5="13000.00000" pt_clust_6="13000.00000" pt_clust_7="13000.00000" pt_clust_8="13000.00000" pt_clust_9="107.61975"></scales>
<clustering>
<clus scale="   81.051">  5  6 -1 -1</clus>
<clus scale="   91.459">  7  8 -1 -1</clus>
<clus scale="  107.620">  1  9  2 -1</clus>
<clus scale="  122.334">  2  5  1 -1</clus>
<clus scale="  107.620">  1  5  2 -1</clus>
</clustering>
</event>
<event>
 9    1  0.6270443E-005  0.1553992E+03  0.7546771E-02  0.1194572E+00
         21   -1    0    0  501  502  0.00000000000E+00  0.00000000000E+00  0.76641124228E+02  0.76641124228E+02  0.00000000000E+00 0.  1.
          1   -1    0    0  502    0 -0.00000000000E+00 -0.00000000000E+00 -0.81479696363E+03  0.81479696363E+03  0.00000000000E+00 0. -1.
        -24    2    1    2    0    0  0.13039675769E+03  0.28376290666E+02 -0.65779219607E+03  0.67680072668E+03  0.86948962819E+02 0.  0.
         23    2    1    2    0    0 -0.77263947430E+02 -0.62784290957E+02 -0.43178862177E+02  0.14122268989E+03  0.90376154137E+02 0.  0.
         13    1    3    3    0    0  0.11763937683E+03  0.10350610583E+02 -0.37518081638E+03  0.39332785701E+03  0.00000000000E+00 0. -1.
        -14    1    3    3    0    0  0.12757380864E+02  0.18025680083E+02 -0.28261137969E+03  0.28347286967E+03  0.00000000000E+00 0.  1.
        -13    1    4    4    0    0 -0.39010192121E+02 -0.11309074576E+02 -0.62237032301E+02  0.74317820520E+02  0.00000000000E+00 0. -1.
         13    1    4    4    0    0 -0.38253755309E+02 -0.51475216381E+02  0.19058170124E+02  0.66904869368E+02  0.00000000000E+00 0.  1.
          2    1    1    2  501    0 -0.53132810264E+02  0.34408000291E+02 -0.37184781149E+02  0.73414671284E+02  0.00000000000E+00 0. -1.
<scales pt_clust_5="13000.00000" pt_clust_6="13000.00000" pt_clust_7="13000.00000" pt_clust_8="13000.00000" pt_clust_9="63.30092"></scales>
<clustering>
<clus scale="   63.301">  1  9  2 -1</clus>
<clus scale="   86.949">  5  6 -1 -1</clus>
<clus scale="   90.376">  7  8 -1 -1</clus>
<clus scale="  153.431">  2  5  1 -1</clus>
<clus scale="   63.301">  1  5  2 -1</clus>
</clustering>
</event>
<event>
 9    1  0.6270443E-005  0.1525838E+03  0.7546771E-02  0.1214719E+00
         21   -1    0    0  501  502  0.00000000000E+00  0.00000000000E+00  0.10640759667E+04  0.10640759667E+04  0.00000000000E+00 0. -1.
         -4   -1    0    0    0  501 -0.00000000000E+00 -0.00000000000E+00 -0.40486451664E+02  0.40486451664E+02  0.00000000000E+00 0.  1.
         23    2    1    2    0    0  0.57032940471E+01  0.44337776510E+02  0.14161051916E+03  0.17629039214E+03  0.95007353581E+02 0.  0.
        -24    2    1    2    0    0  0.12048335920E+03  0.20646968094E+02  0.49163965942E+03  0.51292772799E+03  0.80266819409E+02 0.  0.
         11    1    4    4    0    0  0.96130680473E+02  0.32796681889E+02  0.46051229620E+03  0.47158064530E+03  0.00000000000E+00 0. -1.
        -12    1    4    4    0    0  0.24352678723E+02 -0.12149713795E+02  0.31127363215E+02  0.41347082690E+02  0.00000000000E+00 0.  1.
        -13    1    3    3    0    0 -0.34381832734E+02 -0.77044590027E+01  0.74334685076E+02  0.82262473316E+02  0.00000000000E+00 0.  1.
         13    1    3    3    0    0  0.40085126782E+02  0.52042235513E+02  0.67275834084E+02  0.94027918822E+02  0.00000000000E+00 0. -1.
         -3    1    1    2    0  502 -0.12618665324E+03 -0.64984744605E+02  0.39033933649E+03  0.41534429826E+03  0.00000000000E+00 0.  1.
<scales pt_clust_5="13000.00000" pt_clust_6="13000.00000" pt_clust_7="13000.00000" pt_clust_8="13000.00000" pt_clust_9="129.76541"></scales>
<clustering>
<clus scale="   80.267">  5  6 -1 -1</clus>
<clus scale="   95.007">  7  8 -1 -1</clus>
<clus scale="  104.999">  2  7  1 -1</clus>
<clus scale="  129.765">  1  9  2 -1</clus>
<clus scale="  129.765">  1  5  2 -1</clus>
</clustering>
</event>
<event>
 9    1  0.6270443E-005  0.9852409E+02  0.7546771E-02  0.1289034E+00
         21   -1    0    0  501  502  0.00000000000E+00  0.00000000000E+00  0.15782830374E+03  0.15782830374E+03  0.00000000000E+00 0. -1.
          1   -1    0    0  502    0 -0.00000000000E+00 -0.00000000000E+00 -0.30304847504E+03  0.30304847504E+03  0.00000000000E+00 0. -1.
         23    2    1    2    0    0  0.99444287795E+01  0.32816408243E+02 -0.25248654964E+03  0.27080808953E+03  0.91715621863E+02 0.  0.
        -24    2    1    2    0    0 -0.33787931207E+02 -0.37547343693E+02  0.17494437360E+02  0.97063873541E+02  0.81017978836E+02 0.  0.
         11    1    4    4    0    0 -0.37802990367E+02  0.15432499062E+02  0.16166127025E+02  0.43915507181E+02  0.00000000000E+00 0. -1.
        -12    1    4    4    0    0  0.40150591606E+01 -0.52979842755E+02  0.13283103347E+01  0.53148366360E+02  0.00000000000E+00 0.  1.
        -13    1    3    3    0    0  0.36572806562E+02  0.14293156199E+01 -0.39378132045E+02  0.53761049156E+02  0.00000000000E+00 0.  1.
         13    1    3    3    0    0 -0.26628377783E+02  0.31387092624E+02 -0.21310841760E+03  0.21704704038E+03  0.00000000000E+00 0. -1.
          2    1    1    2  501    0  0.23843502427E+02  0.47309354493E+01  0.89771940982E+02  0.93004815713E+02  0.00000000000E+00 0. -1.
<scales pt_clust_5="13000.00000" pt_clust_6="13000.00000" pt_clust_7="13000.00000" pt_clust_8="13000.00000" pt_clust_9="24.30832"></scales>
<clustering>
<clus scale="   24.308">  1  9  2 -1</clus>
<clus scale="   81.018">  5  6 -1 -1</clus>
<clus scale="   88.652">  1  5  2 -1</clus>
<clus scale="   91.716">  7  8 -1 -1</clus>
<clus scale="   24.308">  1  5  2 -1</clus>
</clustering>
</event>
<event>
 9    1  0.6270443E-005  0.1259375E+03  0.7546771E-02  0.1235172E+00
          1   -1    0    0  502    0 -0.00000000000E+00  0.00000000000E+00  0.60932133562E+03  0.60932133562E+03  0.00000000000E+00 0. -1.
         21   -1    0    0  501  502  0.00000000000E+00 -0.00000000000E+00 -0.67142454081E+02  0.67142454081E+02  0.00000000000E+00 0. -1.
         23    2    1    2    0    0  0.81358006715E+02  0.46273137771E+02  0.38153177316E+03  0.40362488527E+03  0.92661888281E+02 0.  0.
        -24    2    1    2    0    0 -0.67035412709E+02  0.24175281101E+02  0.19289895376E+02  0.11425145825E+03  0.87195784729E+02 0.  0.
         11    1    4    4    0    0 -0.68304233557E+02  0.51315657501E+02  0.14036528088E+02  0.86578225596E+02  0.00000000000E+00 0. -1.
        -12    1    4    4    0    0  0.12688208483E+01 -0.27140376400E+02  0.52533672878E+01  0.27673232651E+02  0.00000000000E+00 0.  1.
        -11    1    3    3    0    0  0.27518101597E+02  0.61977633366E+02  0.13855318871E+03  0.15425776822E+03  0.00000000000E+00 0. -1.
         11    1    3    3    0    0  0.53839905118E+02 -0.15704495595E+02  0.24297858445E+03  0.24936711705E+03  0.00000000000E+00 0.  1.
          2    1    1    2  501    0 -0.14322594006E+02 -0.70448418871E+02  0.14135721300E+03  0.15858744619E+03  0.00000000000E+00 0. -1.
<scales pt_clust_5="13000.00000" pt_clust_6="13000.00000" pt_clust_7="13000.00000" pt_clust_8="13000.00000" pt_clust_9="71.88965"></scales>
<clustering>
<clus scale="   71.890">  2  9  1 -1</clus>
<clus scale="   87.196">  5  6 -1 -1</clus>
<clus scale="   92.662">  7  8 -1 -1</clus>
<clus scale="  121.972">  2  5  1 -1</clus>
<clus scale="   71.890">  2  5  1 -1</clus>
</clustering>
</event>
<event>
 9    1  0.6270443E-005  0.1357196E+03  0.7546771E-02  0.1230494E+00
         -2   -1    0    0    0  501 -0.00000000000E+00  0.00000000000E+00  0.34463388767E+03  0.34463388767E+03  0.00000000000E+00 0.  1.
         21   -1    0    0  501  502  0.00000000000E+00 -0.00000000000E+00 -0.87817703508E+02  0.87817703508E+02  0.00000000000E+00 0. -1.
        -24    2    1    2    0    0 -0.63545942170E+02 -0.18326758006E+02  0.19996378572E+03  0.22522718794E+03  0.79798582478E+02 0.  0.
         23    2    1    2    0    0  0.86334582119E+02  0.26300310368E+02  0.85699628086E+02  0.16960708931E+03  0.11522487621E+03 0.  0.
         13    1    3    3    0    0 -0.33997610425E+02  0.31061744716E+02  0.91958516633E+02  0.10284472899E+03  0.00000000000E+00 0. -1.
        -14    1    3    3    0    0 -0.29548331745E+02 -0.49388502722E+02  0.10800526908E+03  0.12238245896E+03  0.00000000000E+00 0.  1.
        -11    1    4    4    0    0  0.82470380308E+02  0.65405941488E+02  0.50058014265E+02  0.11655516120E+03  0.00000000000E+00 0. -1.
         11    1    4    4    0    0  0.38642018102E+01 -0.39105631120E+02  0.35641613822E+02  0.53051928115E+02  0.00000000000E+00 0.  1.
         -1    1    1    2    0  502 -0.22788639948E+02 -0.79735523621E+01 -0.28847229646E+02  0.37617313915E+02  0.00000000000E+00 0.  1.
<scales pt_clust_5="13000.00000" pt_clust_6="13000.00000" pt_clust_7="13000.00000" pt_clust_8="13000.00000" pt_clust_9="24.14331"></scales>
<clustering>
<clus scale="   24.143">  2  9  1 -1</clus>
<clus scale="   79.799">  5  6 -1 -1</clus>
<clus scale="  107.289">  1  5  2 -1</clus>
<clus scale="  115.225">  7  8 -1 -1</clus>
<clus scale="   24.143">  2  5  1 -1</clus>
</clustering>
</event>
<event>
 9    1  0.6270443E-005  0.1817392E+03  0.7546771E-02  0.1168053E+00
         21   -1    0    0  501  502  0.00000000000E+00  0.00000000000E+00  0.13489947579E+03  0.13489947579E+03  0.00000000000E+00 0. -1.
          1   -1    0    0  502    0 -0.00000000000E+00 -0.00000000000E+00 -0.42501490685E+03  0.42501490685E+03  0.00000000000E+00 0. -1.
        -24    2    1    2    0    0 -0.33739684754E+02  0.16124783118E+03 -0.16941127665E+03  0.24735128897E+03  0.73097538329E+02 0.  0.
         23    2    1    2    0    0 -0.32723967795E+02 -0.15399994187E+03 -0.15389050650E+03  0.23792206626E+03  0.90209652805E+02 0.  0.
         13    1    3    3    0    0 -0.52992482149E+02  0.12469763792E+03 -0.10766055592E+03  0.17305634738E+03  0.00000000000E+00 0. -1.
        -14    1    3    3    0    0  0.19252797394E+02  0.36550193259E+02 -0.61750720730E+02  0.74294941587E+02  0.00000000000E+00 0.  1.
        -13    1    4    4    0    0  0.23750866110E+02 -0.82785607380E+01 -0.20221225531E+02  0.32272839523E+02  0.00000000000E+00 0.  1.
         13    1    4    4    0    0 -0.56474833905E+02 -0.14572138113E+03 -0.13366928097E+03  0.20564922674E+03  0.00000000000E+00 0. -1.
          2    1    1    2  501    0  0.66463652549E+02 -0.72478893125E+01  0.33186352081E+02  0.74641027418E+02  0.00000000000E+00 0. -1.
<scales pt_clust_5="13000.00000" pt_clust_6="13000.00000" pt_clust_7="13000.00000" pt_clust_8="13000.00000" pt_clust_9="66.85768"></scales>
<clustering>
<clus scale="   66.858">  1  9  2 -1</clus>
<clus scale="   73.098">  5  6 -1 -1</clus>
<clus scale="   90.210">  7  8 -1 -1</clus>
<clus scale="  173.881">  2  5  1 -1</clus>
<clus scale="   66.858">  1  5  2 -1</clus>
</clustering>
</event>
<event>
 9    1  0.6270443E-005  0.1820151E+03  0.7546771E-02  0.1177332E+00
         21   -1    0    0  501  502  0.00000000000E+00  0.00000000000E+00  0.24727246303E+03  0.24727246303E+03  0.00000000000E+00 0. -1.
          1   -1    0    0  502    0 -0.00000000000E+00 -0.00000000000E+00 -0.25951431141E+03  0.25951431141E+03  0.00000000000E+00 0. -1.
        -24    2    1    2    0    0 -0.83991233148E+02 -0.76622860926E+02 -0.24675367957E+02  0.14228492734E+03  0.81917865581E+02 0.  0.
         23    2    1    2    0    0 -0.58612274371E+02  0.15902118125E+03 -0.28438510448E+02  0.19480869348E+03  0.91752620600E+02 0.  0.
         13    1    3    3    0    0 -0.69730515826E+02 -0.33159033672E+02 -0.48021530028E+02  0.90928178788E+02  0.00000000000E+00 0. -1.
        -14    1    3    3    0    0 -0.14260717322E+02 -0.43463827254E+02  0.23346162071E+02  0.51356748549E+02  0.00000000000E+00 0.  1.
        -11    1    4    4    0    0 -0.41906056257E+02  0.10620833435E+02 -0.31571825279E+01  0.43346135414E+02  0.00000000000E+00 0.  1.
         11    1    4    4    0    0 -0.16706218114E+02  0.14840034781E+03 -0.25281327920E+02  0.15146255807E+03  0.00000000000E+00 0. -1.
          2    1    1    2  501    0  0.14260350752E+03 -0.82398320324E+02  0.40872030027E+02  0.16969315363E+03  0.00000000000E+00 0. -1.
<scales pt_clust_5="13000.00000" pt_clust_6="13000.00000" pt_clust_7="13000.00000" pt_clust_8="13000.00000" pt_clust_9="157.19719"></scales>
<clustering>
<clus scale="   81.918">  5  6 -1 -1</clus>
<clus scale="   91.753">  7  8 -1 -1</clus>
<clus scale="  140.129">  2  5  1 -1</clus>
<clus scale="  157.197">  1  9  2 -1</clus>
<clus scale="  157.197">  1  5  2 -1</clus>
</clustering>
</event>
<event>
 9    1  0.6270443E-005  0.2046629E+03  0.7546771E-02  0.1148061E+00
          1   -1    0    0  502    0 -0.00000000000E+00  0.00000000000E+00  0.30362689124E+03  0.30362689124E+03  0.00000000000E+00 0. -1.
         21   -1    0    0  501  502  0.00000000000E+00 -0.00000000000E+00 -0.19825518935E+03  0.19825518935E+03  0.00000000000E+00 0. -1.
         23    2    1    2    0    0  0.11515879087E+03  0.13622539933E+03  0.17052835774E+03  0.26769616024E+03  0.10374202077E+03 0.  0.
        -24    2    1    2    0    0 -0.13377769661E+03 -0.10992048483E+03 -0.64871605643E+02  0.20195715321E+03  0.81236576864E+02 0.  0.
         13    1    4    4    0    0 -0.12623360127E+03 -0.58494079144E+02 -0.50767819068E+02  0.14810081309E+03  0.00000000000E+00 0. -1.
        -14    1    4    4    0    0 -0.75440953400E+01 -0.51426405684E+02 -0.14103786575E+02  0.53856340126E+02  0.00000000000E+00 0.  1.
        -11    1    3    3    0    0  0.80922829554E+02  0.14236972320E+03  0.16501063105E+03  0.23247828025E+03  0.00000000000E+00 0. -1.
         11    1    3    3    0    0  0.34235961317E+02 -0.61443238655E+01  0.55177266880E+01  0.35217879988E+02  0.00000000000E+00 0.  1.
          2    1    1    2  501    0  0.18618905736E+02 -0.26304914504E+02 -0.28505020362E+00  0.32228767142E+02  0.00000000000E+00 0. -1.
<scales pt_clust_5="13000.00000" pt_clust_6="13000.00000" pt_clust_7="13000.00000" pt_clust_8="13000.00000" pt_clust_9="32.22751"></scales>
<clustering>
<clus scale="   32.228">  2  9  1 -1</clus>
<clus scale="   81.237">  5  6 -1 -1</clus>
<clus scale="  103.742">  7  8 -1 -1</clus>
<clus scale="  194.226">  2  5  1 -1</clus>
<clus scale="   32.228">  2  5  1 -1</clus>
</clustering>
</event>
<event>
 9    1  0.6270443E-005  0.1538575E+03  0.7546771E-02  0.1197858E+00
         21   -1    0    0  501  502  0.00000000000E+00  0.00000000000E+00  0.15941743719E+03  0.15941743719E+03  0.00000000000E+00 0. -1.
         -4   -1    0    0    0  501 -0.00000000000E+00 -0.00000000000E+00 -0.32175651534E+03  0.32175651534E+03  0.00000000000E+00 0.  1.
        -24    2    1    2    0    0 -0.13069973714E+03  0.13128921718E+02 -0.20487249781E+03  0.25654509195E+03  0.81165595966E+02 0.  0.
         23    2    1    2    0    0  0.81404402062E+02 -0.51886207098E+01  0.92229177520E+02  0.15418209494E+03  0.92802471694E+02 0.  0.
         11    1    3    3    0    0 -0.44391797513E+02  0.41860629228E+02 -0.10511777636E+03  0.12154295896E+03  0.00000000000E+00 0. -1.
        -12    1    3    3    0    0 -0.86307939629E+02 -0.28731707510E+02 -0.99754721451E+02  0.13500213299E+03  0.00000000000E+00 0.  1.
        -11    1    4    4    0    0  0.16610230589E+02 -0.18416991812E+02 -0.14423997640E+02  0.28690365204E+02  0.00000000000E+00 0.  1.
         11    1    4    4    0    0  0.64794171473E+02  0.13228371102E+02  0.10665317516E+03  0.12549172973E+03  0.00000000000E+00 0. -1.
         -3    1    1    2    0  502  0.49295335079E+02 -0.79403010086E+01 -0.49695757860E+02  0.70446765645E+02  0.00000000000E+00 0.  1.
<scales pt_clust_5="13000.00000" pt_clust_6="13000.00000" pt_clust_7="13000.00000" pt_clust_8="13000.00000" pt_clust_9="49.93076"></scales>
<clustering>
<clus scale="   49.931">  1  9  2 -1</clus>
<clus scale="   81.166">  5  6 -1 -1</clus>
<clus scale="   92.802">  7  8 -1 -1</clus>
<clus scale="  147.132">  2  5  1 -1</clus>
<clus scale="   49.931">  1  5  2 -1</clus>
</clustering>
</event>
<event>
 9    1  0.6270443E-005  0.2049219E+03  0.7546771E-02  0.1154945E+00
         21   -1    0    0  501  502  0.00000000000E+00  0.00000000000E+00  0.70402234445E+03  0.70402234445E+03  0.00000000000E+00 0.  1.
         -4   -1    0    0    0  501 -0.00000000000E+00 -0.00000000000E+00 -0.15181541805E+03  0.15181541805E+03  0.00000000000E+00 0.  1.
         23    2    1    2    0    0 -0.53969790711E+02 -0.12524193240E+03  0.21085302791E+03  0.26739287581E+03  0.91878565057E+02 0.  0.
        -24    2    1    2    0    0 -0.17221479937E+03  0.73765355274E+02  0.28591061824E+03  0.34994276068E+03  0.74938570629E+02 0.  0.
         11    1    4    4    0    0 -0.99664074727E+02  0.16601036364E+02  0.98997652169E+02  0.14145337513E+03  0.00000000000E+00 0. -1.
        -12    1    4    4    0    0 -0.72550724646E+02  0.57164318910E+02  0.18691296607E+03  0.20848938555E+03  0.00000000000E+00 0.  1.
        -11    1    3    3    0    0  0.25812829494E+02 -0.24432306700E+02  0.52950470830E+02  0.63772973416E+02  0.00000000000E+00 0. -1.
         11    1    3    3    0    0 -0.79782620205E+02 -0.10080962570E+03  0.15790255708E+03  0.20361990239E+03  0.00000000000E+00 0.  1.
         -3    1    1    2    0  502  0.22618459008E+03  0.51476577121E+02  0.55443280250E+02  0.23850212600E+03  0.00000000000E+00 0.  1.
<scales pt_clust_5="13000.00000" pt_clust_6="13000.00000" pt_clust_7="13000.00000" pt_clust_8="13000.00000" pt_clust_9="190.72819"></scales>
<clustering>
<clus scale="   74.939">  5  6 -1 -1</clus>
<clus scale="   91.879">  7  8 -1 -1</clus>
<clus scale="  164.438">  2  7  1 -1</clus>
<clus scale="  190.728">  1  9  2 -1</clus>
<clus scale="  190.728">  1  5  2 -1</clus>
</clustering>
</event>
<event>
 9    1  0.6270443E-005  0.1116949E+03  0.7546771E-02  0.1260565E+00
          1   -1    0    0  502    0 -0.00000000000E+00  0.00000000000E+00  0.15615103355E+03  0.15615103355E+03  0.00000000000E+00 0. -1.
         21   -1    0    0  501  502  0.00000000000E+00 -0.00000000000E+00 -0.25270755613E+03  0.25270755613E+03  0.00000000000E+00 0.  1.
         23    2    1    2    0    0 -0.63863073064E+02  0.35387386966E+02  0.10500582583E+03  0.15700689079E+03  0.91072394509E+02 0.  0.
        -24    2    1    2    0    0  0.37706989815E+02 -0.50610241558E+00 -0.74797041547E+02  0.11779839708E+03  0.82823859541E+02 0.  0.
         13    1    4    4    0    0  0.20981777735E+02 -0.41253695760E+02 -0.45470767615E+02  0.64882147917E+02  0.00000000000E+00 0. -1.
        -14    1    4    4    0    0  0.16725212079E+02  0.40747593345E+02 -0.29326273932E+02  0.52916249161E+02  0.00000000000E+00 0.  1.
        -11    1    3    3    0    0 -0.19737916638E+02  0.16218554820E+02 -0.13653194995E+02  0.28966128620E+02  0.00000000000E+00 0.  1.
         11    1    3    3    0    0 -0.44125156426E+02  0.19168832146E+02  0.11865902082E+03  0.12804076217E+03  0.00000000000E+00 0. -1.
          2    1    1    2  501    0  0.26156083249E+02 -0.34881284550E+02 -0.12676530686E+03  0.13405330181E+03  0.00000000000E+00 0. -1.
<scales pt_clust_5="13000.00000" pt_clust_6="13000.00000" pt_clust_7="13000.00000" pt_clust_8="13000.00000" pt_clust_9="43.59868"></scales>
<clustering>
<clus scale="   43.599">  2  9  1 -1</clus>
<clus scale="   82.824">  5  6 -1 -1</clus>
<clus scale="   91.072">  7  8 -1 -1</clus>
<clus scale="  105.078">  2  5  1 -1</clus>
<clus scale="   43.599">  2  5  1 -1</clus>
</clustering>
</event>
<event>
 9    1  0.6270443E-005  0.1104946E+03  0.7546771E-02  0.1264102E+00
          1   -1    0    0  502    0 -0.00000000000E+00  0.00000000000E+00  0.21007787323E+03  0.21007787323E+03  0.00000000000E+00 0. -1.
         21   -1    0    0  501  502  0.00000000000E+00 -0.00000000000E+00 -0.40065773484E+03  0.40065773484E+03  0.00000000000E+00 0. -1.
        -24    2    1    2    0    0 -0.38297757222E+02  0.51736159844E+02  0.16277177683E+03  0.19261179123E+03  0.80382226547E+02 0.  0.
         23    2    1    2    0    0  0.61147108808E+02 -0.53057589182E+01 -0.71365877053E+02  0.13142912797E+03  0.91724627435E+02 0.  0.
         11    1    3    3    0    0 -0.58042852637E+02  0.48138498615E+02  0.15236482083E+03  0.17000390118E+03  0.00000000000E+00 0. -1.
        -12    1    3    3    0    0  0.19745095415E+02  0.35976612287E+01  0.10406956005E+02  0.22607890051E+02  0.00000000000E+00 0.  1.
        -13    1    4    4    0    0  0.47283235516E+02 -0.33140309948E+02 -0.80456490481E+02  0.99031466539E+02  0.00000000000E+00 0.  1.
         13    1    4    4    0    0  0.13863873292E+02  0.27834551030E+02  0.90906134286E+01  0.32397661431E+02  0.00000000000E+00 0. -1.
          2    1    1    2  501    0 -0.22849351586E+02 -0.46430400926E+02 -0.28198576139E+03  0.28669468887E+03  0.00000000000E+00 0. -1.
<scales pt_clust_5="13000.00000" pt_clust_6="13000.00000" pt_clust_7="13000.00000" pt_clust_8="13000.00000" pt_clust_9="51.74819"></scales>
<clustering>
<clus scale="   51.748">  2  9  1 -1</clus>
<clus scale="   80.382">  5  6 -1 -1</clus>
<clus scale="   91.725">  7  8 -1 -1</clus>
<clus scale="  101.277">  1  5  2 -1</clus>
<clus scale="   51.748">  2  5  1 -1</clus>
</clustering>
</event>
<event>
 9    1  0.6270443E-005  0.1015704E+03  0.7546771E-02  0.1284768E+00
          1   -1    0    0  502    0 -0.00000000000E+00  0.00000000000E+00  0.74028859693E+02  0.74028859693E+02  0.00000000000E+00 0. -1.
         21   -1    0    0  501  502  0.00000000000E+00 -0.00000000000E+00 -0.66503782336E+03  0.66503782336E+03  0.00000000000E+00 0. -1.
         23    2    1    2    0    0  0.30193404733E+02  0.96677639703E+01  0.14890352956E+02  0.91954628074E+02  0.85022489163E+02 0.  0.
        -24    2    1    2    0    0  0.58402889699E+02 -0.29046980526E+02 -0.21307004106E+03  0.24394993230E+03  0.99287977472E+02 0.  0.
         11    1    4    4    0    0  0.74893878066E+02 -0.38650156587E+02 -0.20766590223E+03  0.22411616301E+03  0.00000000000E+00 0. -1.
        -12    1    4    4    0    0 -0.16490988367E+02  0.96031760601E+01 -0.54041388342E+01  0.19833769291E+02  0.00000000000E+00 0.  1.
        -11    1    3    3    0    0  0.28361686217E+02 -0.21166810646E+02  0.39078986771E+02  0.52721782264E+02  0.00000000000E+00 0.  1.
         11    1    3    3    0    0  0.18317185165E+01  0.30834574617E+02 -0.24188633815E+02  0.39232845810E+02  0.00000000000E+00 0. -1.
          2    1    1    2  501    0 -0.88596294432E+02  0.19379216556E+02 -0.39282927556E+03  0.40316212267E+03  0.00000000000E+00 0. -1.
<scales pt_clust_5="13000.00000" pt_clust_6="13000.00000" pt_clust_7="13000.00000" pt_clust_8="13000.00000" pt_clust_9="90.69100"></scales>
<clustering>
<clus scale="   85.022">  7  8 -1 -1</clus>
<clus scale="   90.691">  2  9  1 -1</clus>
<clus scale="   87.677">  1  7  2 -1</clus>
<clus scale="   99.288">  5  6 -1 -1</clus>
<clus scale="   90.691">  2  5  1 -1</clus>
</clustering>
</event>
<event>
 9    1  0.6270443E-005  0.1159520E+03  0.7546771E-02  0.1265286E+00
         21   -1    0    0  501  502  0.00000000000E+00  0.00000000000E+00  0.11371140364E+03  0.11371140364E+03  0.00000000000E+00 0.  1.
          3   -1    0    0  502    0 -0.00000000000E+00 -0.00000000000E+00 -0.18419761621E+03  0.18419761621E+03  0.00000000000E+00 0. -1.
        -24    2    1    2    0    0  0.36204396462E+02 -0.28232633948E+02 -0.23765963197E+02  0.88875639063E+02  0.72292587928E+02 0.  0.
         23    2    1    2    0    0 -0.12553165419E+02 -0.57728845325E+02 -0.27075249866E+01  0.10960563538E+03  0.92281434056E+02 0.  0.
         13    1    3    3    0    0  0.48983703626E+02 -0.36758114123E+02 -0.80202413253E+00  0.61247084972E+02  0.00000000000E+00 0. -1.
        -14    1    3    3    0    0 -0.12779307165E+02  0.85254801745E+01 -0.22963939065E+02  0.27628554091E+02  0.00000000000E+00 0.  1.
        -11    1    4    4    0    0 -0.43300180981E+02 -0.45439518629E+02  0.23864163794E+02  0.67150233356E+02  0.00000000000E+00 0.  1.
         11    1    4    4    0    0  0.30747015562E+02 -0.12289326696E+02 -0.26571688780E+02  0.42455402027E+02  0.00000000000E+00 0. -1.
          4    1    1    2  501    0 -0.23651231042E+02  0.85961479274E+02 -0.44012724379E+02  0.99427745404E+02  0.00000000000E+00 0. -1.
<scales pt_clust_5="13000.00000" pt_clust_6="13000.00000" pt_clust_7="13000.00000" pt_clust_8="13000.00000" pt_clust_9="70.20690"></scales>
<clustering>
<clus scale="   72.293">  5  6 -1 -1</clus>
<clus scale="   85.639">  2  5  1 -1</clus>
<clus scale="   70.207">  1  9  2 -1</clus>
<clus scale="   92.281">  7  8 -1 -1</clus>
<clus scale="   70.207">  1  5  2 -1</clus>
</clustering>
</event>
<event>
 9    1  0.6270443E-005  0.1110160E+03  0.7546771E-02  0.1265323E+00
          1   -1    0    0  502    0 -0.00000000000E+00  0.00000000000E+00  0.27490927997E+03  0.27490927997E+03  0.00000000000E+00 0. -1.
         21   -1    0    0  501  502  0.00000000000E+00 -0.00000000000E+00 -0.85547219521E+02  0.85547219521E+02  0.00000000000E+00 0.  1.
         23    2    1    2    0    0  0.21790134585E+02 -0.56018445660E+02  0.21163517548E+03  0.23983896487E+03  0.95500813334E+02 0.  0.
        -24    2    1    2    0    0 -0.43084600781E+01  0.46207870106E+02 -0.18222378448E+01  0.91980238760E+02  0.79393410832E+02 0.  0.
         13    1    4    4    0    0  0.28166564701E+02  0.87559078472E+01  0.22179174760E+02  0.36904431744E+02  0.00000000000E+00 0. -1.
        -14    1    4    4    0    0 -0.32475024779E+02  0.37451962259E+02 -0.24001412605E+02  0.55075807016E+02  0.00000000000E+00 0.  1.
        -13    1    3    3    0    0 -0.30566881202E+02 -0.14994245560E+02  0.26581001433E+02  0.43193879931E+02  0.00000000000E+00 0.  1.
         13    1    3    3    0    0  0.52357015788E+02 -0.41024200101E+02  0.18505417405E+03  0.19664508494E+03  0.00000000000E+00 0. -1.
          2    1    1    2  501    0 -0.17481674507E+02  0.98105755543E+01 -0.20450877193E+02  0.28637295861E+02  0.00000000000E+00 0. -1.
<scales pt_clust_5="13000.00000" pt_clust_6="13000.00000" pt_clust_7="13000.00000" pt_clust_8="13000.00000" pt_clust_9="20.04635"></scales>
<clustering>
<clus scale="   20.046">  2  9  1 -1</clus>
<clus scale="   79.393">  5  6 -1 -1</clus>
<clus scale="   95.501">  7  8 -1 -1</clus>
<clus scale="   97.506">  2  5  1 -1</clus>
<clus scale="   20.046">  2  5  1 -1</clus>
</clustering>
</event>
<event>
 9    1  0.6270443E-005  0.9594264E+02  0.7546771E-02  0.1296330E+00
         21   -1    0    0  501  502  0.00000000000E+00  0.00000000000E+00  0.10802906946E+03  0.10802906946E+03  0.00000000000E+00 0. -1.
         -4   -1    0    0    0  501 -0.00000000000E+00 -0.00000000000E+00 -0.12195209196E+03  0.12195209196E+03  0.00000000000E+00 0.  1.
         23    2    1    2    0    0 -0.33803121254E+02  0.24163081952E+02 -0.42528003669E+02  0.10925255067E+03  0.91656877520E+02 0.  0.
        -24    2    1    2    0    0 -0.38277019481E+00 -0.15950061475E+02  0.10327695114E+02  0.81103012131E+02  0.78844697452E+02 0.  0.
         13    1    4    4    0    0 -0.11531278884E+02 -0.16866999283E+02  0.42437795427E+02  0.47100239258E+02  0.00000000000E+00 0. -1.
        -14    1    4    4    0    0  0.11148508689E+02  0.91693780781E+00 -0.32110100313E+02  0.34002772873E+02  0.00000000000E+00 0.  1.
        -13    1    3    3    0    0  0.74012382538E+01  0.37469385111E+02 -0.52399761236E+02  0.64841870160E+02  0.00000000000E+00 0.  1.
         13    1    3    3    0    0 -0.41204359508E+02 -0.13306303159E+02  0.98717575667E+01  0.44410680514E+02  0.00000000000E+00 0. -1.
         -3    1    1    2    0  502  0.34185891449E+02 -0.82130204767E+01  0.18277286054E+02  0.39625598608E+02  0.00000000000E+00 0.  1.
<scales pt_clust_5="13000.00000" pt_clust_6="13000.00000" pt_clust_7="13000.00000" pt_clust_8="13000.00000" pt_clust_9="35.15862"></scales>
<clustering>
<clus scale="   35.159">  1  9  2 -1</clus>
<clus scale="   78.845">  5  6 -1 -1</clus>
<clus scale="   83.788">  1  5  2 -1</clus>
<clus scale="   91.657">  7  8 -1 -1</clus>
<clus scale="   35.159">  1  5  2 -1</clus>
</clustering>
</event>
<event>
 9    1  0.6270443E-005  0.9219406E+02  0.7546771E-02  0.1303563E+00
         21   -1    0    0  501  502  0.00000000000E+00  0.00000000000E+00  0.23271039887E+02  0.23271039887E+02  0.00000000000E+00 0.  1.
          1   -1    0    0  502    0 -0.00000000000E+00 -0.00000000000E+00 -0.59193849470E+03  0.59193849470E+03  0.00000000000E+00 0. -1.
        -24    2    1    2    0    0  0.12543236568E+02 -0.20816829816E+01 -0.38494830869E+03  0.39366735550E+03  0.81407126454E+02 0.  0.
         23    2    1    2    0    0 -0.18685826006E+02 -0.23012825323E+02 -0.12577783038E+03  0.15810195665E+03  0.91090152375E+02 0.  0.
         13    1    3    3    0    0  0.19900397437E+02  0.36990550233E+02 -0.22198942052E+03  0.22592837238E+03  0.00000000000E+00 0. -1.
        -14    1    3    3    0    0 -0.73571608690E+01 -0.39072233215E+02 -0.16295888817E+03  0.16773898312E+03  0.00000000000E+00 0.  1.
        -13    1    4    4    0    0  0.52965195327E+01  0.33476823898E+02 -0.52900926935E+02  0.62827214867E+02  0.00000000000E+00 0. -1.
         13    1    4    4    0    0 -0.23982345538E+02 -0.56489649221E+02 -0.72876903442E+02  0.95274741783E+02  0.00000000000E+00 0.  1.
          2    1    1    2  501    0  0.61425894374E+01  0.25094508304E+02 -0.57941315744E+02  0.63440222432E+02  0.00000000000E+00 0. -1.
<scales pt_clust_5="13000.00000" pt_clust_6="13000.00000" pt_clust_7="13000.00000" pt_clust_8="13000.00000" pt_clust_9="25.83536"></scales>
<clustering>
<clus scale="   25.835">  1  9  2 -1</clus>
<clus scale="   81.407">  5  6 -1 -1</clus>
<clus scale="   82.640">  2  5  1 -1</clus>
<clus scale="   91.090">  7  8 -1 -1</clus>
<clus scale="   25.835">  1  5  2 -1</clus>
</clustering>
</event>
<event>
 9    1  0.6270443E-005  0.9857934E+02  0.7546771E-02  0.1287116E+00
          1   -1    0    0  502    0 -0.00000000000E+00  0.00000000000E+00  0.31289932445E+03  0.31289932445E+03  0.00000000000E+00 0. -1.
         21   -1    0    0  501  502  0.00000000000E+00 -0.00000000000E+00 -0.91392264855E+02  0.91392264855E+02  0.00000000000E+00 0.  1.
        -24    2    1    2    0    0 -0.33241532327E+02  0.36693897579E+01  0.26225301913E+03  0.27811942289E+03  0.86344099096E+02 0.  0.
         23    2    1    2    0    0  0.10757348544E+02  0.63270888152E+01 -0.36470899391E+02  0.10119729418E+03  0.93568227756E+02 0.  0.
         11    1    3    3    0    0 -0.61168563528E+02 -0.78921214836E+00  0.20969378011E+03  0.21843465255E+03  0.00000000000E+00 0. -1.
        -12    1    3    3    0    0  0.27927031201E+02  0.44586019062E+01  0.52559239026E+02  0.59684770333E+02  0.00000000000E+00 0.  1.
        -11    1    4    4    0    0 -0.39886177697E+02  0.11729367676E+02 -0.26491649996E+02  0.49297999522E+02  0.00000000000E+00 0.  1.
         11    1    4    4    0    0  0.50643526241E+02 -0.54022788603E+01 -0.99792493944E+01  0.51899294653E+02  0.00000000000E+00 0. -1.
          2    1    1    2  501    0  0.22484183783E+02 -0.99964785731E+01 -0.42750601504E+01  0.24974872243E+02  0.00000000000E+00 0. -1.
<scales pt_clust_5="13000.00000" pt_clust_6="13000.00000" pt_clust_7="13000.00000" pt_clust_8="13000.00000" pt_clust_9="24.60626"></scales>
<clustering>
<clus scale="   24.606">  2  9  1 -1</clus>
<clus scale="   86.344">  5  6 -1 -1</clus>
<clus scale="   91.751">  1  5  2 -1</clus>
<clus scale="   93.568">  7  8 -1 -1</clus>
<clus scale="   24.606">  2  5  1 -1</clus>
</clustering>
</event>
<event>
 9    1  0.6270443E-005  0.1433525E+03  0.7546771E-02  0.1210418E+00
         21   -1    0    0  501  502  0.00000000000E+00  0.00000000000E+00  0.18121233135E+03  0.18121233135E+03  0.00000000000E+00 0.  1.
          1   -1    0    0  502    0 -0.00000000000E+00 -0.00000000000E+00 -0.43159805322E+03  0.43159805322E+03  0.00000000000E+00 0. -1.
         23    2    1    2    0    0  0.63356439678E+02 -0.92528332991E+02 -0.37889653265E+03  0.40527111303E+03  0.90036446758E+02 0.  0.
        -24    2    1    2    0    0 -0.77307185569E+02  0.73672430515E+02  0.12477203022E+03  0.18378749584E+03  0.82497006870E+02 0.  0.
         11    1    4    4    0    0 -0.18316726158E+01  0.57293698555E+02  0.60099453197E+02  0.83053399649E+02  0.00000000000E+00 0. -1.
        -12    1    4    4    0    0 -0.75475512953E+02  0.16378731960E+02  0.64672577022E+02  0.10073409619E+03  0.00000000000E+00 0.  1.
        -13    1    3    3    0    0  0.83711202448E+02 -0.67986672893E+02 -0.32739433149E+03  0.34469813083E+03  0.00000000000E+00 0. -1.
         13    1    3    3    0    0 -0.20354762770E+02 -0.24541660098E+02 -0.51502201162E+02  0.60572982198E+02  0.00000000000E+00 0.  1.
          2    1    1    2  501    0  0.13950745891E+02  0.18855902477E+02  0.37387805615E+01  0.23751775707E+02  0.00000000000E+00 0. -1.
<scales pt_clust_5="13000.00000" pt_clust_6="13000.00000" pt_clust_7="13000.00000" pt_clust_8="13000.00000" pt_clust_9="23.45567"></scales>
<clustering>
<clus scale="   23.456">  1  9  2 -1</clus>
<clus scale="   82.497">  5  6 -1 -1</clus>
<clus scale="   90.036">  7  8 -1 -1</clus>
<clus scale="  138.741">  1  5  2 -1</clus>
<clus scale="   23.456">  1  5  2 -1</clus>
</clustering>
</event>
<event>
 9    1  0.6270443E-005  0.9429620E+02  0.7546771E-02  0.1297227E+00
         -2   -1    0    0    0  501 -0.00000000000E+00  0.00000000000E+00  0.10641387444E+04  0.10641387444E+04  0.00000000000E+00 0.  1.
         21   -1    0    0  501  502  0.00000000000E+00 -0.00000000000E+00 -0.30295943246E+02  0.30295943246E+02  0.00000000000E+00 0. -1.
        -24    2    1    2    0    0 -0.32886512728E+02  0.12499436372E+02  0.86021106471E+03  0.86472698032E+03  0.80943906564E+02 0.  0.
         23    2    1    2    0    0  0.90127679989E+01  0.35164383064E+02  0.98497363342E+02  0.13758295825E+03  0.88935797031E+02 0.  0.
         11    1    3    3    0    0  0.19238313771E+01  0.31358384599E+02  0.14238384593E+03  0.14580880972E+03  0.00000000000E+00 0. -1.
        -12    1    3    3    0    0 -0.34810344105E+02 -0.18858948227E+02  0.71782721879E+03  0.71891817060E+03  0.00000000000E+00 0.  1.
        -11    1    4    4    0    0 -0.17044061209E+02 -0.16612684347E+02  0.59512520826E+00  0.23808306906E+02  0.00000000000E+00 0.  1.
         11    1    4    4    0    0  0.26056829208E+02  0.51777067411E+02  0.97902238134E+02  0.11377465135E+03  0.00000000000E+00 0. -1.
         -1    1    1    2    0  502  0.23873744729E+02 -0.47663819436E+02  0.75134373104E+02  0.92124749076E+02  0.00000000000E+00 0.  1.
<scales pt_clust_5="13000.00000" pt_clust_6="13000.00000" pt_clust_7="13000.00000" pt_clust_8="13000.00000" pt_clust_9="53.30849"></scales>
<clustering>
<clus scale="   53.308">  2  9  1 -1</clus>
<clus scale="   80.944">  5  6 -1 -1</clus>
<clus scale="   86.799">  1  5  2 -1</clus>
<clus scale="   88.936">  7  8 -1 -1</clus>
<clus scale="   53.308">  2  5  1 -1</clus>
</clustering>
</event>
<event>
 9    1  0.6270443E-005  0.1309633E+03  0.7546771E-02  0.1229195E+00
         -2   -1    0    0    0  501 -0.00000000000E+00  0.00000000000E+00  0.60676154338E+03  0.60676154338E+03  0.00000000000E+00 0.  1.
         21   -1    0    0  501  502  0.00000000000E+00 -0.00000000000E+00 -0.48400582584E+02  0.48400582584E+02  0.00000000000E+00 0.  1.
         23    2    1    2    0    0 -0.55910931491E+02  0.10966796933E+03  0.27655808093E+03  0.31599094272E+03  0.90624544128E+02 0.  0.
        -24    2    1    2    0    0  0.37640795946E+02 -0.48052596466E+02  0.80060953229E+02  0.12744008730E+03  0.78136662790E+02 0.  0.
         13    1    4    4    0    0  0.39007204376E+02 -0.53107145092E+02  0.22481271636E+02  0.69622829786E+02  0.00000000000E+00 0. -1.
        -14    1    4    4    0    0 -0.13664084305E+01  0.50545486260E+01  0.57579681593E+02  0.57817257512E+02  0.00000000000E+00 0.  1.
        -11    1    3    3    0    0 -0.66716739381E+02  0.53424513378E+02  0.10654914904E+03  0.13659437435E+03  0.00000000000E+00 0.  1.
         11    1    3    3    0    0  0.10805807890E+02  0.56243455951E+02  0.17000893188E+03  0.17939656836E+03  0.00000000000E+00 0. -1.
         -1    1    1    2    0  502  0.18270135546E+02 -0.61615372863E+02  0.20174192664E+03  0.21173109595E+03  0.00000000000E+00 0.  1.
<scales pt_clust_5="13000.00000" pt_clust_6="13000.00000" pt_clust_7="13000.00000" pt_clust_8="13000.00000" pt_clust_9="64.26707"></scales>
<clustering>
<clus scale="   64.267">  2  9  1 -1</clus>
<clus scale="   78.137">  5  6 -1 -1</clus>
<clus scale="   90.625">  7  8 -1 -1</clus>
<clus scale="  122.654">  2  5  1 -1</clus>
<clus scale="   64.267">  2  5  1 -1</clus>
</clustering>
</event>
<event>
 9    1  0.6270443E-005  0.1035920E+03  0.7546771E-02  0.1277504E+00
         21   -1    0    0  501  502  0.00000000000E+00  0.00000000000E+00  0.39522895800E+02  0.39522895800E+02  0.00000000000E+00 0.  1.
          1   -1    0    0  502    0 -0.00000000000E+00 -0.00000000000E+00 -0.51487086844E+03  0.51487086844E+03  0.00000000000E+00 0. -1.
        -24    2    1    2    0    0  0.38566918328E+02  0.11820658689E+02 -0.29455014465E+03  0.30811693981E+03  0.80926668782E+02 0.  0.
         23    2    1    2    0    0 -0.74684363582E+02 -0.74173992575E+01 -0.17247826078E+03  0.20895292131E+03  0.90993411345E+02 0.  0.
         11    1    3    3    0    0  0.53569854856E+02 -0.13916153466E+02 -0.23624684909E+03  0.24264369429E+03  0.00000000000E+00 0. -1.
        -12    1    3    3    0    0 -0.15002936528E+02  0.25736812155E+02 -0.58303295567E+02  0.65473245516E+02  0.00000000000E+00 0.  1.
        -13    1    4    4    0    0 -0.27316629330E+02 -0.40008517610E+02 -0.12609049895E+03  0.13507662138E+03  0.00000000000E+00 0. -1.
         13    1    4    4    0    0 -0.47367734251E+02  0.32591118353E+02 -0.46387761832E+02  0.73876299930E+02  0.00000000000E+00 0.  1.
          2    1    1    2  501    0  0.36117445254E+02 -0.44032594317E+01 -0.83195672037E+01  0.37323903115E+02  0.00000000000E+00 0. -1.
<scales pt_clust_5="13000.00000" pt_clust_6="13000.00000" pt_clust_7="13000.00000" pt_clust_8="13000.00000" pt_clust_9="36.38487"></scales>
<clustering>
<clus scale="   36.385">  1  9  2 -1</clus>
<clus scale="   80.927">  5  6 -1 -1</clus>
<clus scale="   90.993">  7  8 -1 -1</clus>
<clus scale="   94.872">  2  5  1 -1</clus>
<clus scale="   36.385">  1  5  2 -1</clus>
</clustering>
</event>
<event>
 9    1  0.6270443E-005  0.2300238E+03  0.7546771E-02  0.1126623E+00
         21   -1    0    0  501  502  0.00000000000E+00  0.00000000000E+00  0.27937241920E+02  0.27937241920E+02  0.00000000000E+00 0. -1.
          1   -1    0    0  502    0 -0.00000000000E+00 -0.00000000000E+00 -0.14698620227E+04  0.14698620227E+04  0.00000000000E+00 0. -1.
        -24    2    1    2    0    0 -0.91050575122E+02  0.27850272859E+02 -0.27716580311E+03  0.30435790378E+03  0.82140162236E+02 0.  0.
         23    2    1    2    0    0 -0.39779630412E+02 -0.24632072622E+02 -0.27043710794E+03  0.28959485497E+03  0.92410998679E+02 0.  0.
         13    1    3    3    0    0 -0.76176759383E+02  0.55454811926E+02 -0.21459649101E+03  0.23437104938E+03  0.00000000000E+00 0. -1.
        -14    1    3    3    0    0 -0.14873815739E+02 -0.27604539066E+02 -0.62569312103E+02  0.69986854400E+02  0.00000000000E+00 0.  1.
        -13    1    4    4    0    0  0.18737977496E+02 -0.27502255047E+02 -0.17077567723E+03  0.17398798167E+03  0.00000000000E+00 0.  1.
         13    1    4    4    0    0 -0.58517607907E+02  0.28701824250E+01 -0.99661430711E+02  0.11560687330E+03  0.00000000000E+00 0. -1.
          2    1    1    2  501    0  0.13083020553E+03 -0.32182002374E+01 -0.89432186970E+03  0.90384650584E+03  0.00000000000E+00 0. -1.
<scales pt_clust_5="13000.00000" pt_clust_6="13000.00000" pt_clust_7="13000.00000" pt_clust_8="13000.00000" pt_clust_9="130.86985"></scales>
<clustering>
<clus scale="   82.140">  5  6 -1 -1</clus>
<clus scale="   92.411">  7  8 -1 -1</clus>
<clus scale="  100.179">  5  7 -1 -1</clus>
<clus scale="  130.870">  1  9  2 -1</clus>
<clus scale="  130.870">  1  5  2 -1</clus>
</clustering>
</event>
<event>
 9    1  0.6270443E-005  0.1006637E+03  0.7546771E-02  0.1279999E+00
          1   -1    0    0  502    0 -0.00000000000E+00  0.00000000000E+00  0.62270594471E+03  0.62270594471E+03  0.00000000000E+00 0. -1.
         21   -1    0    0  501  502  0.00000000000E+00 -0.00000000000E+00 -0.60303651529E+02  0.60303651529E+02  0.00000000000E+00 0. -1.
         23    2    1    2    0    0 -0.55215483567E+02  0.31270288366E+02  0.17028607091E+03  0.20297946008E+03  0.90425299051E+02 0.  0.
        -24    2    1    2    0    0 -0.10065911100E+02 -0.89039932023E+01  0.76916446561E+01  0.89461105739E+02  0.88110864150E+02 0.  0.
         13    1    4    4    0    0  0.30782004946E+02  0.18103460745E+02  0.17104297195E+02  0.39595758635E+02  0.00000000000E+00 0. -1.
        -14    1    4    4    0    0 -0.40847916046E+02 -0.27007453947E+02 -0.94126525386E+01  0.49865347104E+02  0.00000000000E+00 0.  1.
        -13    1    3    3    0    0 -0.73600795598E+02  0.53913972669E+01  0.88398361698E+02  0.11515387370E+03  0.00000000000E+00 0. -1.
         13    1    3    3    0    0  0.18385312031E+02  0.25878891099E+02  0.81887709217E+02  0.87825586385E+02  0.00000000000E+00 0.  1.
          2    1    1    2  501    0  0.65281394667E+02 -0.22366295164E+02  0.38442457762E+03  0.39056903042E+03  0.00000000000E+00 0. -1.
<scales pt_clust_5="13000.00000" pt_clust_6="13000.00000" pt_clust_7="13000.00000" pt_clust_8="13000.00000" pt_clust_9="69.00664"></scales>
<clustering>
<clus scale="   69.007">  2  9  1 -1</clus>
<clus scale="   88.111">  5  6 -1 -1</clus>
<clus scale="   90.425">  7  8 -1 -1</clus>
<clus scale="   98.590">  2  5  1 -1</clus>
<clus scale="   69.007">  2  5  1 -1</clus>
</clustering>
</event>
<event>
 9    1  0.6270443E-005  0.9787630E+02  0.7546771E-02  0.1285838E+00
          3   -1    0    0  502    0 -0.00000000000E+00  0.00000000000E+00  0.11122048180E+03  0.11122048180E+03  0.00000000000E+00 0. -1.
         21   -1    0    0  501  502  0.00000000000E+00 -0.00000000000E+00 -0.21855119769E+03  0.21855119769E+03  0.00000000000E+00 0. -1.
         23    2    1    2    0    0  0.24335419612E+02 -0.53914186910E+02  0.17802719868E+02  0.10231255006E+03  0.81559603164E+02 0.  0.
        -24    2    1    2    0    0  0.54957279613E+02  0.43515050282E+02 -0.62021729912E+02  0.12558390374E+03  0.83730279555E+02 0.  0.
         11    1    4    4    0    0  0.70410165246E+02  0.43132082562E+02 -0.26295322974E+02  0.86656863123E+02  0.00000000000E+00 0. -1.
        -12    1    4    4    0    0 -0.15452885633E+02  0.38296771959E+00 -0.35726406938E+02  0.38927040619E+02  0.00000000000E+00 0.  1.
        -13    1    3    3    0    0  0.15912614696E+02 -0.74627251376E+02  0.22316596446E+02  0.79501373770E+02  0.00000000000E+00 0. -1.
         13    1    3    3    0    0  0.84228049157E+01  0.20713064466E+02 -0.45138765780E+01  0.22811176295E+02  0.00000000000E+00 0.  1.
          4    1    1    2  501    0 -0.79292699225E+02  0.10399136628E+02 -0.63111705850E+02  0.10187522568E+03  0.00000000000E+00 0. -1.
<scales pt_clust_5="13000.00000" pt_clust_6="13000.00000" pt_clust_7="13000.00000" pt_clust_8="13000.00000" pt_clust_9="79.97171"></scales>
<clustering>
<clus scale="   79.972">  2  9  1 -1</clus>
<clus scale="   81.560">  7  8 -1 -1</clus>
<clus scale="   83.730">  5  6 -1 -1</clus>
<clus scale="   96.026">  1  7  2 -1</clus>
<clus scale="   79.972">  2  5  1 -1</clus>
</clustering>
</event>
<event>
 9    1  0.6270443E-005  0.1065940E+03  0.7546771E-02  0.1271915E+00
          1   -1    0    0  502    0 -0.00000000000E+00  0.00000000000E+00  0.78115915363E+03  0.78115915363E+03  0.00000000000E+00 0. -1.
         21   -1    0    0  501  502  0.00000000000E+00 -0.00000000000E+00 -0.45321041518E+02  0.45321041518E+02  0.00000000000E+00 0.  1.
        -24    2    1    2    0    0  0.28671507254E+02  0.53616649932E+02  0.39395592965E+03  0.40633004288E+03  0.78778352115E+02 0.  0.
         23    2    1    2    0    0  0.44152107483E+02 -0.54034440811E+02  0.59967876358E+02  0.12898159387E+03  0.90393450945E+02 0.  0.
         11    1    3    3    0    0 -0.11896676576E+02  0.57045326634E+02  0.25211530279E+03  0.25876210330E+03  0.00000000000E+00 0. -1.
        -12    1    3    3    0    0  0.40568183830E+02 -0.34286767014E+01  0.14184062686E+03  0.14756793958E+03  0.00000000000E+00 0.  1.
        -13    1    4    4    0    0  0.18223757691E+01 -0.48835447893E+02 -0.72212627731E+01  0.49400087656E+02  0.00000000000E+00 0.  1.
         13    1    4    4    0    0  0.42329731713E+02 -0.51989929171E+01  0.67189139131E+02  0.79581506215E+02  0.00000000000E+00 0. -1.
          2    1    1    2  501    0 -0.72823614737E+02  0.41779087817E+00  0.28191430611E+03  0.29116855840E+03  0.00000000000E+00 0. -1.
<scales pt_clust_5="13000.00000" pt_clust_6="13000.00000" pt_clust_7="13000.00000" pt_clust_8="13000.00000" pt_clust_9="72.82485"></scales>
<clustering>
<clus scale="   72.825">  2  9  1 -1</clus>
<clus scale="   78.778">  5  6 -1 -1</clus>
<clus scale="   90.393">  7  8 -1 -1</clus>
<clus scale="   96.940">  1  5  2 -1</clus>
<clus scale="   72.825">  2  5  1 -1</clus>
</clustering>
</event>
<event>
 9    1  0.6270443E-005  0.9075934E+02  0.7546771E-02  0.1302800E+00
         21   -1    0    0  501  502  0.00000000000E+00  0.00000000000E+00  0.36595990611E+02  0.36595990611E+02  0.00000000000E+00 0.  1.
          1   -1    0    0  502    0 -0.00000000000E+00 -0.00000000000E+00 -0.59787734475E+03  0.59787734475E+03  0.00000000000E+00 0. -1.
         23    2    1    2    0    0 -0.27523111973E+02  0.43581329487E+02 -0.26986372791E+03  0.28834395217E+03  0.87515422294E+02 0.  0.
        -24    2    1    2    0    0  0.12236296043E+01  0.40232241872E+02 -0.93141928771E+02  0.12926622422E+03  0.80088746232E+02 0.  0.
         13    1    4    4    0    0 -0.11090381231E+02  0.34699594167E+02 -0.10509844716E+03  0.11123282783E+03  0.00000000000E+00 0. -1.
        -14    1    4    4    0    0  0.12314010835E+02  0.55326477053E+01  0.11956518387E+02  0.18033396392E+02  0.00000000000E+00 0.  1.
        -11    1    3    3    0    0 -0.52051639722E+02  0.43964206832E+02 -0.13447415634E+03  0.15074987032E+03  0.00000000000E+00 0.  1.
         11    1    3    3    0    0  0.24528527749E+02 -0.38287734450E+00 -0.13538957157E+03  0.13759408184E+03  0.00000000000E+00 0. -1.
          2    1    1    2  501    0  0.26299482369E+02 -0.83813571359E+02 -0.19827569746E+03  0.21686315897E+03  0.00000000000E+00 0. -1.
<scales pt_clust_5="13000.00000" pt_clust_6="13000.00000" pt_clust_7="13000.00000" pt_clust_8="13000.00000" pt_clust_9="87.84296"></scales>
<clustering>
<clus scale="   80.089">  5  6 -1 -1</clus>
<clus scale="   87.515">  7  8 -1 -1</clus>
<clus scale="   87.843">  1  9  2 -1</clus>
<clus scale="   87.843">  1  5  2 -1</clus>
<clus scale="   87.843">  1  5  2 -1</clus>
</clustering>
</event>
<event>
 9    1  0.6270443E-005  0.1354870E+03  0.7546771E-02  0.1224826E+00
         21   -1    0    0  501  502  0.00000000000E+00  0.00000000000E+00  0.31823844684E+03  0.31823844684E+03  0.00000000000E+00 0. -1.
          1   -1    0    0  502    0 -0.00000000000E+00 -0.00000000000E+00 -0.63911174030E+02  0.63911174030E+02  0.00000000000E+00 0. -1.
        -24    2    1    2    0    0  0.94000467593E+02 -0.31397312585E+02  0.73525372618E+02  0.14700007903E+03  0.79882186192E+02 0.  0.
         23    2    1    2    0    0 -0.76419580060E+02  0.17633920237E+02  0.16195056103E+03  0.20592811881E+03  0.10013739832E+03 0.  0.
         13    1    3    3    0    0  0.43976349159E+02 -0.47248156810E+02  0.11176394069E+02  0.65507399519E+02  0.00000000000E+00 0. -1.
        -14    1    3    3    0    0  0.50024118433E+02  0.15850844225E+02  0.62348978549E+02  0.81492679511E+02  0.00000000000E+00 0.  1.
        -11    1    4    4    0    0 -0.28661683758E+02  0.36545433370E+02  0.12793171074E+02  0.48173914541E+02  0.00000000000E+00 0.  1.
         11    1    4    4    0    0 -0.47757896302E+02 -0.18911513133E+02  0.14915738995E+03  0.15775420427E+03  0.00000000000E+00 0. -1.
          2    1    1    2  501    0 -0.17580887533E+02  0.13763392348E+02  0.18851339166E+02  0.29221423027E+02  0.00000000000E+00 0. -1.
<scales pt_clust_5="13000.00000" pt_clust_6="13000.00000" pt_clust_7="13000.00000" pt_clust_8="13000.00000" pt_clust_9="22.32754"></scales>
<clustering>
<clus scale="   22.328">  1  9  2 -1</clus>
<clus scale="   79.882">  5  6 -1 -1</clus>
<clus scale="  100.137">  7  8 -1 -1</clus>
<clus scale="  121.286">  2  5  1 -1</clus>
<clus scale="   22.328">  1  5  2 -1</clus>
</clustering>
</event>
<event>
 9    1  0.6270443E-005  0.1244795E+03  0.7546771E-02  0.1237873E+00
         21   -1    0    0  501  502  0.00000000000E+00  0.00000000000E+00  0.74840556316E+02  0.74840556316E+02  0.00000000000E+00 0. -1.
          1   -1    0    0  502    0 -0.00000000000E+00 -0.00000000000E+00 -0.31809750735E+03  0.31809750735E+03  0.00000000000E+00 0. -1.
        -24    2    1    2    0    0 -0.74247120367E+02 -0.35041126743E+02 -0.11787717064E+03  0.16568854190E+03  0.82566034846E+02 0.  0.
         23    2    1    2    0    0  0.10082974343E+03 -0.12015995648E+02 -0.92442257353E+02  0.16395742874E+03  0.89584854646E+02 0.  0.
         13    1    3    3    0    0 -0.55038262791E+02 -0.55258698173E+02 -0.11311617375E+03  0.13739724473E+03  0.00000000000E+00 0. -1.
        -14    1    3    3    0    0 -0.19208857576E+02  0.20217571430E+02 -0.47609968910E+01  0.28291297166E+02  0.00000000000E+00 0.  1.
        -13    1    4    4    0    0 -0.42819917132E+01 -0.20534429811E+02 -0.42239632395E+02  0.47161263825E+02  0.00000000000E+00 0.  1.
         13    1    4    4    0    0  0.10511173514E+03  0.85184341635E+01 -0.50202624958E+02  0.11679616491E+03  0.00000000000E+00 0. -1.
          2    1    1    2  501    0 -0.26582623063E+02  0.47057122391E+02 -0.32937523032E+02  0.63292093030E+02  0.00000000000E+00 0. -1.
<scales pt_clust_5="13000.00000" pt_clust_6="13000.00000" pt_clust_7="13000.00000" pt_clust_8="13000.00000" pt_clust_9="54.04636"></scales>
<clustering>
<clus scale="   54.046">  1  9  2 -1</clus>
<clus scale="   82.566">  5  6 -1 -1</clus>
<clus scale="   89.585">  7  8 -1 -1</clus>
<clus scale="  119.528">  2  5  1 -1</clus>
<clus scale="   54.046">  1  5  2 -1</clus>
</clustering>
</event>
<event>
 9    1  0.6270443E-005  0.1943639E+03  0.7546771E-02  0.1186982E+00
         -4   -1    0    0    0  501 -0.00000000000E+00  0.00000000000E+00  0.91239731572E+02  0.91239731572E+02  0.00000000000E+00 0.  1.
         21   -1    0    0  501  502  0.00000000000E+00 -0.00000000000E+00 -0.90586752432E+03  0.90586752432E+03  0.00000000000E+00 0.  1.
         23    2    1    2    0    0  0.34036450242E+01  0.17555522630E+02 -0.21149126770E+03  0.23092095165E+03  0.90973339072E+02 0.  0.
        -24    2    1    2    0    0 -0.54300289220E+02  0.15502183359E+03 -0.57352436296E+02  0.19150927860E+03  0.80038812728E+02 0.  0.
         13    1    4    4    0    0 -0.14715315645E+02  0.81687139820E+02 -0.68256067485E+02  0.10746264502E+03  0.00000000000E+00 0. -1.
        -14    1    4    4    0    0 -0.39584973575E+02  0.73334693766E+02  0.10903631189E+02  0.84046633578E+02  0.00000000000E+00 0.  1.
        -11    1    3    3    0    0 -0.36808230136E+02 -0.10032775054E+02 -0.54472573352E+02  0.66503861757E+02  0.00000000000E+00 0. -1.
         11    1    3    3    0    0  0.40211875160E+02  0.27588297684E+02 -0.15701869435E+03  0.16441708989E+03  0.00000000000E+00 0.  1.
         -3    1    1    2    0  502  0.50896644196E+02 -0.17257735622E+03 -0.54578408875E+03  0.57467702564E+03  0.00000000000E+00 0.  1.
<scales pt_clust_5="13000.00000" pt_clust_6="13000.00000" pt_clust_7="13000.00000" pt_clust_8="13000.00000" pt_clust_9="177.11891"></scales>
<clustering>
<clus scale="   80.039">  5  6 -1 -1</clus>
<clus scale="   90.973">  7  8 -1 -1</clus>
<clus scale="   92.714">  1  7  2 -1</clus>
<clus scale="  177.119">  2  9  1 -1</clus>
<clus scale="  177.119">  2  5  1 -1</clus>
</clustering>
</event>
<event>
 9    1  0.6270443E-005  0.1491009E+03  0.7546771E-02  0.1229650E+00
         21   -1    0    0  501  502  0.00000000000E+00  0.00000000000E+00  0.56348649424E+02  0.56348649424E+02  0.00000000000E+00 0. -1.
          1   -1    0    0  502    0 -0.00000000000E+00 -0.00000000000E+00 -0.82093033737E+03  0.82093033737E+03  0.00000000000E+00 0. -1.
        -24    2    1    2    0    0 -0.12017148294E+02 -0.10031681166E+02 -0.46603518446E+03  0.47325311689E+03  0.80837324391E+02 0.  0.
         23    2    1    2    0    0  0.88436075077E+02 -0.77802163568E+02 -0.12527220783E+03  0.19527094616E+03  0.92539182669E+02 0.  0.
         11    1    3    3    0    0 -0.34993299224E+02 -0.21423541444E+02 -0.13188009655E+03  0.13811538287E+03  0.00000000000E+00 0. -1.
        -12    1    3    3    0    0  0.22976150930E+02  0.11391860278E+02 -0.33415508791E+03  0.33513773402E+03  0.00000000000E+00 0.  1.
        -11    1    4    4    0    0  0.92422323198E+02 -0.49989229558E+02 -0.12959817743E+03  0.16684272981E+03  0.00000000000E+00 0. -1.
         11    1    4    4    0    0 -0.39862481207E+01 -0.27812934010E+02  0.43259695926E+01  0.28428216357E+02  0.00000000000E+00 0.  1.
          2    1    1    2  501    0 -0.76418926783E+02  0.87833844733E+02 -0.17327429566E+03  0.20875492375E+03  0.00000000000E+00 0. -1.
<scales pt_clust_5="13000.00000" pt_clust_6="13000.00000" pt_clust_7="13000.00000" pt_clust_8="13000.00000" pt_clust_9="116.90841"></scales>
<clustering>
<clus scale="   80.837">  5  6 -1 -1</clus>
<clus scale="   82.339">  2  5  1 -1</clus>
<clus scale="   92.539">  7  8 -1 -1</clus>
<clus scale="  116.908">  1  9  2 -1</clus>
<clus scale="  116.908">  1  5  2 -1</clus>
</clustering>
</event>
<event>
 9    1  0.6270443E-005  0.1242783E+03  0.7546771E-02  0.1237654E+00
         21   -1    0    0  501  502  0.00000000000E+00  0.00000000000E+00  0.48290055842E+03  0.48290055842E+03  0.00000000000E+00 0.  1.
         -4   -1    0    0    0  501 -0.00000000000E+00 -0.00000000000E+00 -0.65415151533E+02  0.65415151533E+02  0.00000000000E+00 0.  1.
        -24    2    1    2    0    0  0.75926561517E+01 -0.88274474061E+02  0.16673418905E+02  0.12389448220E+03  0.84981225126E+02 0.  0.
         23    2    1    2    0    0  0.61173184416E+01  0.73045583338E+02  0.30307043279E+03  0.32455484639E+03  0.90061547011E+02 0.  0.
         11    1    3    3    0    0 -0.38175322274E+02 -0.32864489014E+02  0.12527160003E+02  0.51907221141E+02  0.00000000000E+00 0. -1.
        -12    1    3    3    0    0  0.45767978426E+02 -0.55409985047E+02  0.41462589018E+01  0.71987261061E+02  0.00000000000E+00 0.  1.
        -13    1    4    4    0    0  0.28717178138E+02  0.79232076642E+02  0.27683762866E+03  0.28938118621E+03  0.00000000000E+00 0.  1.
         13    1    4    4    0    0 -0.22599859696E+02 -0.61864933042E+01  0.26232804132E+02  0.35173660178E+02  0.00000000000E+00 0. -1.
         -3    1    1    2    0  502 -0.13709974593E+02  0.15228890723E+02  0.97741555194E+02  0.99866381369E+02  0.00000000000E+00 0.  1.
<scales pt_clust_5="13000.00000" pt_clust_6="13000.00000" pt_clust_7="13000.00000" pt_clust_8="13000.00000" pt_clust_9="20.49104"></scales>
<clustering>
<clus scale="   20.491">  1  9  2 -1</clus>
<clus scale="   84.981">  5  6 -1 -1</clus>
<clus scale="   90.062">  7  8 -1 -1</clus>
<clus scale="  120.648">  2  5  1 -1</clus>
<clus scale="   20.491">  1  5  2 -1</clus>
</clustering>
</event>
<event>
 9    1  0.6270443E-005  0.1032272E+03  0.7546771E-02  0.1279701E+00
         21   -1    0    0  501  502  0.00000000000E+00  0.00000000000E+00  0.70274318849E+03  0.70274318849E+03  0.00000000000E+00 0. -1.
          1   -1    0    0  502    0 -0.00000000000E+00 -0.00000000000E+00 -0.42126461609E+02  0.42126461609E+02  0.00000000000E+00 0. -1.
         23    2    1    2    0    0  0.37372655689E+02  0.35748110272E+02  0.41733501652E+02  0.11331032538E+03  0.91776368940E+02 0.  0.
        -24    2    1    2    0    0 -0.33442653295E+01 -0.34270685709E+02  0.34527270311E+03  0.35583694270E+03  0.78873482657E+02 0.  0.
         11    1    4    4    0    0  0.33917183880E+02 -0.30336393535E+02  0.14114510891E+03  0.14829906913E+03  0.00000000000E+00 0. -1.
        -12    1    4    4    0    0 -0.37261449209E+02 -0.39342921738E+01  0.20412759421E+03  0.20753787358E+03  0.00000000000E+00 0.  1.
        -13    1    3    3    0    0  0.20150523361E+02  0.55946746118E+02  0.57265856198E+02  0.82555801001E+02  0.00000000000E+00 0.  1.
         13    1    3    3    0    0  0.17222132327E+02 -0.20198635845E+02 -0.15532354546E+02  0.30754524377E+02  0.00000000000E+00 0. -1.
          2    1    1    2  501    0 -0.34028390359E+02 -0.14774245632E+01  0.27361052212E+03  0.27572238202E+03  0.00000000000E+00 0. -1.
<scales pt_clust_5="13000.00000" pt_clust_6="13000.00000" pt_clust_7="13000.00000" pt_clust_8="13000.00000" pt_clust_9="34.06045"></scales>
<clustering>
<clus scale="   34.060">  1  9  2 -1</clus>
<clus scale="   78.873">  5  6 -1 -1</clus>
<clus scale="   91.776">  7  8 -1 -1</clus>
<clus scale="   91.946">  1  5  2 -1</clus>
<clus scale="   34.060">  1  5  2 -1</clus>
</clustering>
</event>
<event>
 9    1  0.6270443E-005  0.1434745E+03  0.7546771E-02  0.1221754E+00
         21   -1    0    0  501  502  0.00000000000E+00  0.00000000000E+00  0.18186593665E+03  0.18186593665E+03  0.00000000000E+00 0. -1.
          1   -1    0    0  502    0 -0.00000000000E+00 -0.00000000000E+00 -0.27760219934E+03  0.27760219934E+03  0.00000000000E+00 0. -1.
         23    2    1    2    0    0  0.55529406901E+02 -0.24160100785E+02 -0.71986639551E+02  0.13054493949E+03  0.90513421391E+02 0.  0.
        -24    2    1    2    0    0  0.68870897268E+02 -0.78602077987E+02  0.61641393434E+02  0.14636600881E+03  0.81864888669E+02 0.  0.
         11    1    4    4    0    0  0.65591684949E+02 -0.95290077448E+02  0.55229380302E+02  0.12819029777E+03  0.00000000000E+00 0. -1.
        -12    1    4    4    0    0  0.32792123188E+01  0.16687999460E+02  0.64120131324E+01  0.18175711040E+02  0.00000000000E+00 0.  1.
        -11    1    3    3    0    0  0.74952035596E+02 -0.38157358237E+02 -0.48911514559E+02  0.97294027999E+02  0.00000000000E+00 0. -1.
         11    1    3    3    0    0 -0.19422628695E+02  0.13997257452E+02 -0.23075124991E+02  0.33250911491E+02  0.00000000000E+00 0.  1.
          2    1    1    2  501    0 -0.12440030417E+03  0.10276217877E+03 -0.85391016577E+02  0.18255718769E+03  0.00000000000E+00 0. -1.
<scales pt_clust_5="13000.00000" pt_clust_6="13000.00000" pt_clust_7="13000.00000" pt_clust_8="13000.00000" pt_clust_9="117.82647"></scales>
<clustering>
<clus scale="   81.865">  5  6 -1 -1</clus>
<clus scale="   90.513">  7  8 -1 -1</clus>
<clus scale="  108.903">  2  7  1 -1</clus>
<clus scale="  117.826">  1  9  2 -1</clus>
<clus scale="  117.826">  1  5  2 -1</clus>
</clustering>
</event>
<event>
 9    1  0.6270443E-005  0.1207788E+03  0.7546771E-02  0.1245106E+00
         -2   -1    0    0    0  501 -0.00000000000E+00  0.00000000000E+00  0.37605256372E+03  0.37605256372E+03  0.00000000000E+00 0.  1.
         21   -1    0    0  501  502  0.00000000000E+00 -0.00000000000E+00 -0.96360935907E+02  0.96360935907E+02  0.00000000000E+00 0. -1.
         23    2    1    2    0    0  0.10980082541E+03 -0.12451875710E+02  0.12012830963E+03  0.18727405955E+03  0.91812265709E+02 0.  0.
        -24    2    1    2    0    0 -0.19732812242E+02  0.52065393364E+02  0.10535751463E+01  0.98573590000E+02  0.81335438523E+02 0.  0.
         11    1    4    4    0    0 -0.18052016836E+02  0.73363059466E+02 -0.66960773920E+01  0.75847552752E+02  0.00000000000E+00 0. -1.
        -12    1    4    4    0    0 -0.16807954059E+01 -0.21297666101E+02  0.77496525383E+01  0.22726037248E+02  0.00000000000E+00 0.  1.
        -11    1    3    3    0    0  0.10735322308E+03  0.12966503689E+02  0.12027565705E+03  0.16173768393E+03  0.00000000000E+00 0. -1.
         11    1    3    3    0    0  0.24476023386E+01 -0.25418379399E+02 -0.14734742601E+00  0.25536375619E+02  0.00000000000E+00 0.  1.
         -1    1    1    2    0  502 -0.90068013173E+02 -0.39613517655E+02  0.15850974304E+03  0.18656585008E+03  0.00000000000E+00 0.  1.
<scales pt_clust_5="13000.00000" pt_clust_6="13000.00000" pt_clust_7="13000.00000" pt_clust_8="13000.00000" pt_clust_9="98.39455"></scales>
<clustering>
<clus scale="   81.335">  5  6 -1 -1</clus>
<clus scale="   91.812">  7  8 -1 -1</clus>
<clus scale="   98.395">  2  9  1 -1</clus>
<clus scale="  113.020">  2  5  1 -1</clus>
<clus scale="   98.395">  2  5  1 -1</clus>
</clustering>
</event>
<event>
 9    1  0.6270443E-005  0.1788997E+03  0.7546771E-02  0.1170194E+00
         21   -1    0    0  501  502  0.00000000000E+00  0.00000000000E+00  0.19061964641E+03  0.19061964641E+03  0.00000000000E+00 0. -1.
          1   -1    0    0  502    0 -0.00000000000E+00 -0.00000000000E+00 -0.34532351265E+03  0.34532351265E+03  0.00000000000E+00 0. -1.
         23    2    1    2    0    0  0.15601166974E+03 -0.73794496619E+01 -0.23963257133E+03  0.29909223885E+03  0.87397372531E+02 0.  0.
        -24    2    1    2    0    0 -0.15248671736E+03  0.49088968477E+02  0.55726845302E+02  0.18581311203E+03  0.75888770685E+02 0.  0.
         13    1    4    4    0    0 -0.12376517297E+03  0.54806641568E+02  0.15768932283E+02  0.13627268701E+03  0.00000000000E+00 0. -1.
        -14    1    4    4    0    0 -0.28721544394E+02 -0.57176730919E+01  0.39957913019E+02  0.49540425016E+02  0.00000000000E+00 0.  1.
        -13    1    3    3    0    0  0.64970942077E+02 -0.21104472836E+01 -0.17673813972E+03  0.18831369396E+03  0.00000000000E+00 0.  1.
         13    1    3    3    0    0  0.91040727663E+02 -0.52690023783E+01 -0.62894431606E+02  0.11077854488E+03  0.00000000000E+00 0. -1.
          2    1    1    2  501    0 -0.35249523753E+01 -0.41709518815E+02  0.29201859788E+02  0.51037808182E+02  0.00000000000E+00 0. -1.
<scales pt_clust_5="13000.00000" pt_clust_6="13000.00000" pt_clust_7="13000.00000" pt_clust_8="13000.00000" pt_clust_9="41.85820"></scales>
<clustering>
<clus scale="   41.858">  1  9  2 -1</clus>
<clus scale="   75.889">  5  6 -1 -1</clus>
<clus scale="   87.397">  7  8 -1 -1</clus>
<clus scale="  173.568">  1  5  2 -1</clus>
<clus scale="   41.858">  1  5  2 -1</clus>
</clustering>
</event>
<event>
 9    1  0.6270443E-005  0.1227036E+03  0.7546771E-02  0.1241978E+00
         21   -1    0    0  501  502  0.00000000000E+00  0.00000000000E+00  0.18839951988E+03  0.18839951988E+03  0.00000000000E+00 0.  1.
          3   -1    0    0  502    0 -0.00000000000E+00 -0.00000000000E+00 -0.13694500262E+03  0.13694500262E+03  0.00000000000E+00 0. -1.
        -24    2    1    2    0    0 -0.38206846436E+02  0.68106116447E+02 -0.29472311523E+02  0.11257080718E+03  0.75533855131E+02 0.  0.
         23    2    1    2    0    0  0.49988266948E+02 -0.86922907065E+02  0.41595493735E+01  0.13286070844E+03  0.87064616190E+02 0.  0.
         11    1    3    3    0    0 -0.35247048834E+02 -0.33862377212E+01 -0.60760729059E+00  0.35414548480E+02  0.00000000000E+00 0. -1.
        -12    1    3    3    0    0 -0.29597976017E+01  0.71492354168E+02 -0.28864704233E+02  0.77156258702E+02  0.00000000000E+00 0.  1.
        -13    1    4    4    0    0  0.36125898659E+02 -0.49808545478E+02  0.44794240097E+02  0.76108446985E+02  0.00000000000E+00 0.  1.
         13    1    4    4    0    0  0.13862368289E+02 -0.37114361587E+02 -0.40634690724E+02  0.56752261460E+02  0.00000000000E+00 0. -1.
          4    1    1    2  501    0 -0.11781420512E+02  0.18816790617E+02  0.76767279414E+02  0.79913006870E+02  0.00000000000E+00 0. -1.
<scales pt_clust_5="13000.00000" pt_clust_6="13000.00000" pt_clust_7="13000.00000" pt_clust_8="13000.00000" pt_clust_9="22.20075"></scales>
<clustering>
<clus scale="   22.201">  1  9  2 -1</clus>
<clus scale="   75.534">  5  6 -1 -1</clus>
<clus scale="   87.065">  7  8 -1 -1</clus>
<clus scale="  114.810">  2  5  1 -1</clus>
<clus scale="   22.201">  1  5  2 -1</clus>
</clustering>
</event>
<event>
 9    1  0.6270443E-005  0.9750478E+02  0.7546771E-02  0.1292159E+00
         21   -1    0    0  501  502  0.00000000000E+00  0.00000000000E+00  0.49776675500E+02  0.49776675500E+02  0.00000000000E+00 0.  1.
          3   -1    0    0  502    0 -0.00000000000E+00 -0.00000000000E+00 -0.34080736629E+03  0.34080736629E+03  0.00000000000E+00 0. -1.
         23    2    1    2    0    0 -0.11165909710E+02  0.37655777228E+02 -0.19542598553E+03  0.21936533576E+03  0.91581655444E+02 0.  0.
        -24    2    1    2    0    0  0.35948737759E+02 -0.33084049165E+01 -0.28482640519E+02  0.91850563014E+02  0.79511054738E+02 0.  0.
         13    1    4    4    0    0 -0.25435646685E+02 -0.38634242755E+01 -0.11334697467E+02  0.28113582768E+02  0.00000000000E+00 0. -1.
        -14    1    4    4    0    0  0.61384384444E+02  0.55501935897E+00 -0.17147943052E+02  0.63736980246E+02  0.00000000000E+00 0.  1.
        -13    1    3    3    0    0 -0.50121795678E+02  0.28605025640E+02 -0.93524331783E+02  0.10989650827E+03  0.00000000000E+00 0. -1.
         13    1    3    3    0    0  0.38955885969E+02  0.90507515872E+01 -0.10190165375E+03  0.10946882749E+03  0.00000000000E+00 0.  1.
          4    1    1    2  501    0 -0.24782828049E+02 -0.34347372311E+02 -0.67122064736E+02  0.79368143012E+02  0.00000000000E+00 0. -1.
<scales pt_clust_5="13000.00000" pt_clust_6="13000.00000" pt_clust_7="13000.00000" pt_clust_8="13000.00000" pt_clust_9="42.35484"></scales>
<clustering>
<clus scale="   42.355">  1  9  2 -1</clus>
<clus scale="   79.511">  5  6 -1 -1</clus>
<clus scale="   86.267">  1  5  2 -1</clus>
<clus scale="   91.582">  7  8 -1 -1</clus>
<clus scale="   42.355">  1  5  2 -1</clus>
</clustering>
</event>
<event>
 9    1  0.6270443E-005  0.9756964E+02  0.7546771E-02  0.1293522E+00
         21   -1    0    0  501  502  0.00000000000E+00  0.00000000000E+00  0.17989233699E+03  0.17989233699E+03  0.00000000000E+00 0.  1.
         -4   -1    0    0    0  501 -0.00000000000E+00 -0.00000000000E+00 -0.12313797003E+03  0.12313797003E+03  0.00000000000E+00 0.  1.
        -24    2    1    2    0    0 -0.23067857096E+01 -0.25168959653E+02 -0.51863087194E+02  0.97733426751E+02  0.78887547186E+02 0.  0.
         23    2    1    2    0    0  0.30634179391E+02  0.30522858218E+02  0.10856312312E+02  0.10337364289E+03  0.93263887472E+02 0.  0.
         11    1    3    3    0    0 -0.26458287373E+02 -0.68566601553E+00 -0.57109772718E+02  0.62944715811E+02  0.00000000000E+00 0. -1.
        -12    1    3    3    0    0  0.24151501664E+02 -0.24483293637E+02  0.52466855238E+01  0.34788710941E+02  0.00000000000E+00 0.  1.
        -13    1    4    4    0    0  0.43536167847E+02 -0.21024012020E+02  0.13420322970E+02  0.50174815006E+02  0.00000000000E+00 0.  1.
         13    1    4    4    0    0 -0.12901988457E+02  0.51546870238E+02 -0.25640106580E+01  0.53198827883E+02  0.00000000000E+00 0. -1.
         -3    1    1    2    0  502 -0.28327393681E+02 -0.53538985651E+01  0.97761141848E+02  0.10192323738E+03  0.00000000000E+00 0.  1.
<scales pt_clust_5="13000.00000" pt_clust_6="13000.00000" pt_clust_7="13000.00000" pt_clust_8="13000.00000" pt_clust_9="28.82890"></scales>
<clustering>
<clus scale="   28.829">  1  9  2 -1</clus>
<clus scale="   78.888">  5  6 -1 -1</clus>
<clus scale="   83.934">  2  5  1 -1</clus>
<clus scale="   93.264">  7  8 -1 -1</clus>
<clus scale="   28.829">  1  5  2 -1</clus>
</clustering>
</event>
<event>
 9    1  0.6270443E-005  0.1013741E+03  0.7546771E-02  0.1283009E+00
         21   -1    0    0  501  502  0.00000000000E+00  0.00000000000E+00  0.18804360469E+03  0.18804360469E+03  0.00000000000E+00 0. -1.
          3   -1    0    0  502    0 -0.00000000000E+00 -0.00000000000E+00 -0.21485693782E+03  0.21485693782E+03  0.00000000000E+00 0. -1.
         23    2    1    2    0    0 -0.36585618848E+02 -0.18914412633E+02 -0.16527657016E+03  0.19328260057E+03  0.91354017592E+02 0.  0.
        -24    2    1    2    0    0  0.57590336056E+02  0.14377748446E+02  0.37433434734E+02  0.10632805658E+03  0.79881331504E+02 0.  0.
         11    1    4    4    0    0  0.36666163749E+02 -0.13442204779E+02 -0.16288956437E+02  0.42313479356E+02  0.00000000000E+00 0. -1.
        -12    1    4    4    0    0  0.20924172306E+02  0.27819953225E+02  0.53722391171E+02  0.64014577224E+02  0.00000000000E+00 0.  1.
        -11    1    3    3    0    0  0.24777423475E+02 -0.55047727717E+01 -0.98037945664E+02  0.10127024256E+03  0.00000000000E+00 0.  1.
         11    1    3    3    0    0 -0.61363042323E+02 -0.13409639862E+02 -0.67238624492E+02  0.92012358018E+02  0.00000000000E+00 0. -1.
          4    1    1    2  501    0 -0.21004717207E+02  0.45366641874E+01  0.10102980229E+03  0.10328988536E+03  0.00000000000E+00 0. -1.
<scales pt_clust_5="13000.00000" pt_clust_6="13000.00000" pt_clust_7="13000.00000" pt_clust_8="13000.00000" pt_clust_9="21.48905"></scales>
<clustering>
<clus scale="   21.489">  1  9  2 -1</clus>
<clus scale="   79.881">  5  6 -1 -1</clus>
<clus scale="   91.171">  1  5  2 -1</clus>
<clus scale="   91.354">  7  8 -1 -1</clus>
<clus scale="   21.489">  1  5  2 -1</clus>
</clustering>
</event>
<event>
 9    1  0.6270443E-005  0.2338918E+03  0.7546771E-02  0.1124124E+00
         21   -1    0    0  501  502  0.00000000000E+00  0.00000000000E+00  0.11689227193E+03  0.11689227193E+03  0.00000000000E+00 0. -1.
          1   -1    0    0  502    0 -0.00000000000E+00 -0.00000000000E+00 -0.56025804767E+03  0.56025804767E+03  0.00000000000E+00 0. -1.
         23    2    1    2    0    0  0.18786421181E+03 -0.82785439006E+02 -0.18373183703E+03  0.28649843252E+03  0.78597537572E+02 0.  0.
        -24    2    1    2    0    0 -0.22132992390E+03  0.81570710243E+02 -0.19126717963E+03  0.31452407875E+03  0.81862971656E+02 0.  0.
         13    1    4    4    0    0 -0.12746709864E+03  0.80295171262E+02 -0.14791457025E+03  0.21112530842E+03  0.00000000000E+00 0. -1.
        -14    1    4    4    0    0 -0.93862825265E+02  0.12755389806E+01 -0.43352609377E+02  0.10339877033E+03  0.00000000000E+00 0.  1.
        -13    1    3    3    0    0  0.74937587581E+02 -0.66847127419E+02 -0.11769397497E+03  0.15471280561E+03  0.00000000000E+00 0. -1.
         13    1    3    3    0    0  0.11292662423E+03 -0.15938311587E+02 -0.66037862060E+02  0.13178562691E+03  0.00000000000E+00 0.  1.
          2    1    1    2  501    0  0.33465712096E+02  0.12147287629E+01 -0.68366759080E+02  0.76127808318E+02  0.00000000000E+00 0. -1.
<scales pt_clust_5="13000.00000" pt_clust_6="13000.00000" pt_clust_7="13000.00000" pt_clust_8="13000.00000" pt_clust_9="33.48777"></scales>
<clustering>
<clus scale="   33.488">  1  9  2 -1</clus>
<clus scale="   78.598">  7  8 -1 -1</clus>
<clus scale="   81.863">  5  6 -1 -1</clus>
<clus scale="  232.769">  2  7  1 -1</clus>
<clus scale="   33.488">  1  5  2 -1</clus>
</clustering>
</event>
<event>
 9    1  0.6270443E-005  0.2023605E+03  0.7546771E-02  0.1164899E+00
         21   -1    0    0  501  502  0.00000000000E+00  0.00000000000E+00  0.95448274058E+02  0.95448274058E+02  0.00000000000E+00 0. -1.
          1   -1    0    0  502    0 -0.00000000000E+00 -0.00000000000E+00 -0.92672641564E+03  0.92672641564E+03  0.00000000000E+00 0. -1.
         23    2    1    2    0    0 -0.59934766028E+00  0.99382673729E+02 -0.19626762768E+03  0.23846360958E+03  0.92014326940E+02 0.  0.
        -24    2    1    2    0    0 -0.10174899894E+03  0.78520304700E+02 -0.53356969665E+03  0.55476808899E+03  0.80948837801E+02 0.  0.
         13    1    4    4    0    0 -0.52170971376E+02  0.57606130457E+02 -0.16614513087E+03  0.18342431963E+03  0.00000000000E+00 0. -1.
        -14    1    4    4    0    0 -0.49578027560E+02  0.20914174243E+02 -0.36742456578E+03  0.37134376936E+03  0.00000000000E+00 0.  1.
        -11    1    3    3    0    0  0.20003944575E+02  0.70158768011E+02 -0.51386999735E+02  0.89235835118E+02  0.00000000000E+00 0.  1.
         11    1    3    3    0    0 -0.20603292236E+02  0.29223905718E+02 -0.14488062795E+03  0.14922777446E+03  0.00000000000E+00 0. -1.
          2    1    1    2  501    0  0.10234834660E+03 -0.17790297843E+03 -0.10144081725E+03  0.22894299114E+03  0.00000000000E+00 0. -1.
<scales pt_clust_5="13000.00000" pt_clust_6="13000.00000" pt_clust_7="13000.00000" pt_clust_8="13000.00000" pt_clust_9="185.46449"></scales>
<clustering>
<clus scale="   80.949">  5  6 -1 -1</clus>
<clus scale="   92.014">  7  8 -1 -1</clus>
<clus scale="  135.440">  2  7  1 -1</clus>
<clus scale="  185.464">  1  9  2 -1</clus>
<clus scale="  185.464">  1  5  2 -1</clus>
</clustering>
</event>
<event>
 9    1  0.6270443E-005  0.1031787E+03  0.7546771E-02  0.1279168E+00
         21   -1    0    0  501  502  0.00000000000E+00  0.00000000000E+00  0.19625483184E+03  0.19625483184E+03  0.00000000000E+00 0.  1.
          1   -1    0    0  502    0 -0.00000000000E+00 -0.00000000000E+00 -0.27066253579E+03  0.27066253579E+03  0.00000000000E+00 0. -1.
        -24    2    1    2    0    0 -0.43782758121E+02 -0.10379017040E+02 -0.22725222615E+03  0.24522531421E+03  0.80419068234E+02 0.  0.
         23    2    1    2    0    0  0.73256851751E+02  0.29049978872E+02  0.13843082456E+03  0.18394179925E+03  0.91983828583E+02 0.  0.
         11    1    3    3    0    0 -0.36319552776E+02  0.27355787808E+02 -0.17195545378E+03  0.17786547480E+03  0.00000000000E+00 0. -1.
        -12    1    3    3    0    0 -0.74632053447E+01 -0.37734804848E+02 -0.55296772367E+02  0.67359839408E+02  0.00000000000E+00 0.  1.
        -11    1    4    4    0    0  0.49754395439E+02  0.62228763427E+02  0.81419353608E+02  0.11391676788E+03  0.00000000000E+00 0.  1.
         11    1    4    4    0    0  0.23502456312E+02 -0.33178784555E+02  0.57011470953E+02  0.70025031364E+02  0.00000000000E+00 0. -1.
          2    1    1    2  501    0 -0.29474093630E+02 -0.18670961832E+02  0.14413697639E+02  0.37750254181E+02  0.00000000000E+00 0. -1.
<scales pt_clust_5="13000.00000" pt_clust_6="13000.00000" pt_clust_7="13000.00000" pt_clust_8="13000.00000" pt_clust_9="34.89021"></scales>
<clustering>
<clus scale="   34.890">  1  9  2 -1</clus>
<clus scale="   80.419">  5  6 -1 -1</clus>
<clus scale="   91.984">  7  8 -1 -1</clus>
<clus scale="   93.016">  2  5  1 -1</clus>
<clus scale="   34.890">  1  5  2 -1</clus>
</clustering>
</event>
<event>
 9    1  0.6270443E-005  0.1159396E+03  0.7546771E-02  0.1253355E+00
         21   -1    0    0  501  502  0.00000000000E+00  0.00000000000E+00  0.33352740212E+03  0.33352740212E+03  0.00000000000E+00 0. -1.
          1   -1    0    0  502    0 -0.00000000000E+00 -0.00000000000E+00 -0.92486732348E+02  0.92486732348E+02  0.00000000000E+00 0. -1.
         23    2    1    2    0    0 -0.70694274447E+02 -0.19786032882E+02  0.11903492964E+03  0.16692022113E+03  0.91125617761E+02 0.  0.
        -24    2    1    2    0    0  0.68876615115E+02 -0.56154475243E+02  0.13623349547E+03  0.18181070894E+03  0.81229646046E+02 0.  0.
         13    1    4    4    0    0  0.65787022917E+02 -0.64941895717E+02  0.72715781380E+02  0.11761363469E+03  0.00000000000E+00 0. -1.
        -14    1    4    4    0    0  0.30895921978E+01  0.87874204738E+01  0.63517714090E+02  0.64197074246E+02  0.00000000000E+00 0.  1.
        -13    1    3    3    0    0 -0.25393204257E+02  0.34462737268E+02  0.65540163918E+02  0.78281595339E+02  0.00000000000E+00 0. -1.
         13    1    3    3    0    0 -0.45301070190E+02 -0.54248770150E+02  0.53494765718E+02  0.88638625792E+02  0.00000000000E+00 0.  1.
          2    1    1    2  501    0  0.18176593319E+01  0.75940508125E+02 -0.14227755337E+02  0.77283204396E+02  0.00000000000E+00 0. -1.
<scales pt_clust_5="13000.00000" pt_clust_6="13000.00000" pt_clust_7="13000.00000" pt_clust_8="13000.00000" pt_clust_9="75.96230"></scales>
<clustering>
<clus scale="   75.962">  1  9  2 -1</clus>
<clus scale="   81.230">  5  6 -1 -1</clus>
<clus scale="   91.126">  7  8 -1 -1</clus>
<clus scale="  108.335">  1  5  2 -1</clus>
<clus scale="   75.962">  1  5  2 -1</clus>
</clustering>
</event>
<event>
 9    1  0.6270443E-005  0.9639081E+02  0.7546771E-02  0.1295584E+00
         21   -1    0    0  501  502  0.00000000000E+00  0.00000000000E+00  0.45132261578E+03  0.45132261578E+03  0.00000000000E+00 0. -1.
          1   -1    0    0  502    0 -0.00000000000E+00 -0.00000000000E+00 -0.66669475952E+02  0.66669475952E+02  0.00000000000E+00 0. -1.
        -24    2    1    2    0    0  0.16884964677E+02  0.23234756621E+02 -0.10609535827E+02  0.86804974988E+02  0.81225522373E+02 0.  0.
         23    2    1    2    0    0  0.42862252801E+02  0.84788275390E+01  0.21811652333E+03  0.24156580808E+03  0.94181519691E+02 0.  0.
         11    1    3    3    0    0  0.18079266540E+02 -0.16714376824E+02 -0.32860542391E+02  0.41061484598E+02  0.00000000000E+00 0. -1.
        -12    1    3    3    0    0 -0.11943018632E+01  0.39949133445E+02  0.22251006563E+02  0.45743490389E+02  0.00000000000E+00 0.  1.
        -11    1    4    4    0    0 -0.10264461206E+01 -0.34339917474E+02  0.37657089573E+02  0.50973914102E+02  0.00000000000E+00 0.  1.
         11    1    4    4    0    0  0.43888698921E+02  0.42818745013E+02  0.18045943375E+03  0.19059189397E+03  0.00000000000E+00 0. -1.
          2    1    1    2  501    0 -0.59747217478E+02 -0.31713584160E+02  0.17714615233E+03  0.18962130867E+03  0.00000000000E+00 0. -1.
<scales pt_clust_5="13000.00000" pt_clust_6="13000.00000" pt_clust_7="13000.00000" pt_clust_8="13000.00000" pt_clust_9="67.64230"></scales>
<clustering>
<clus scale="   67.642">  1  9  2 -1</clus>
<clus scale="   81.226">  5  6 -1 -1</clus>
<clus scale="   83.777">  2  5  1 -1</clus>
<clus scale="   94.182">  7  8 -1 -1</clus>
<clus scale="   67.642">  1  5  2 -1</clus>
</clustering>
</event>
<event>
 9    1  0.6270443E-005  0.9391588E+02  0.7546771E-02  0.1300274E+00
         -2   -1    0    0    0  501 -0.00000000000E+00  0.00000000000E+00  0.13855432575E+03  0.13855432575E+03  0.00000000000E+00 0.  1.
         21   -1    0    0  501  502  0.00000000000E+00 -0.00000000000E+00 -0.28376318002E+03  0.28376318002E+03  0.00000000000E+00 0.  1.
        -24    2    1    2    0    0 -0.59844534885E+01 -0.20457786750E+02  0.96477594807E+02  0.12794663516E+03  0.81290100428E+02 0.  0.
         23    2    1    2    0    0  0.38384685692E+01 -0.78946901898E+01 -0.60037935957E+02  0.11051046020E+03  0.92363131633E+02 0.  0.
         13    1    3    3    0    0  0.32681871705E+02 -0.21139329074E+02  0.72937511362E+02  0.82673191154E+02  0.00000000000E+00 0. -1.
        -14    1    3    3    0    0 -0.38666325193E+02  0.68154232405E+00  0.23540083445E+02  0.45273444009E+02  0.00000000000E+00 0.  1.
        -11    1    4    4    0    0 -0.10282904850E+01 -0.41435133615E+02 -0.64144960923E+02  0.76370830104E+02  0.00000000000E+00 0.  1.
         11    1    4    4    0    0  0.48667590543E+01  0.33540443426E+02  0.41070249659E+01  0.34139630094E+02  0.00000000000E+00 0. -1.
         -1    1    1    2    0  502  0.21459849193E+01  0.28352476940E+02 -0.18164851312E+03  0.18386041041E+03  0.00000000000E+00 0.  1.
<scales pt_clust_5="13000.00000" pt_clust_6="13000.00000" pt_clust_7="13000.00000" pt_clust_8="13000.00000" pt_clust_9="28.43358"></scales>
<clustering>
<clus scale="   28.434">  2  9  1 -1</clus>
<clus scale="   81.290">  5  6 -1 -1</clus>
<clus scale="   83.050">  1  5  2 -1</clus>
<clus scale="   92.363">  7  8 -1 -1</clus>
<clus scale="   28.434">  2  5  1 -1</clus>
</clustering>
</event>
<event>
 9    1  0.6270443E-005  0.1471490E+03  0.7546771E-02  0.1205357E+00
         21   -1    0    0  501  502  0.00000000000E+00  0.00000000000E+00  0.16972157439E+03  0.16972157439E+03  0.00000000000E+00 0. -1.
         -2   -1    0    0    0  501 -0.00000000000E+00 -0.00000000000E+00 -0.34889319904E+03  0.34889319904E+03  0.00000000000E+00 0.  1.
        -24    2    1    2    0    0  0.75065612874E+02 -0.88546441184E+02 -0.22656781365E+03  0.26748866251E+03  0.82109024521E+02 0.  0.
         23    2    1    2    0    0 -0.96228637138E+02  0.74420270484E+02 -0.43300083331E+02  0.15692825473E+03  0.89181010607E+02 0.  0.
         11    1    3    3    0    0  0.68706436477E+02 -0.84618839501E+02 -0.23325078715E+03  0.25746233146E+03  0.00000000000E+00 0. -1.
        -12    1    3    3    0    0  0.63591763970E+01 -0.39276016826E+01  0.66829735079E+01  0.10026331050E+02  0.00000000000E+00 0.  1.
        -11    1    4    4    0    0 -0.86144455979E+02  0.48817959194E+02  0.73482965607E+01  0.99287753012E+02  0.00000000000E+00 0. -1.
         11    1    4    4    0    0 -0.10084181159E+02  0.25602311290E+02 -0.50648379892E+02  0.57640501722E+02  0.00000000000E+00 0.  1.
         -1    1    1    2    0  502  0.21163024264E+02  0.14126170700E+02  0.90696272328E+02  0.94197856179E+02  0.00000000000E+00 0.  1.
<scales pt_clust_5="13000.00000" pt_clust_6="13000.00000" pt_clust_7="13000.00000" pt_clust_8="13000.00000" pt_clust_9="25.44449"></scales>
<clustering>
<clus scale="   25.444">  1  9  2 -1</clus>
<clus scale="   82.109">  5  6 -1 -1</clus>
<clus scale="   89.181">  7  8 -1 -1</clus>
<clus scale="  142.974">  2  5  1 -1</clus>
<clus scale="   25.444">  1  5  2 -1</clus>
</clustering>
</event>
<event>
 9    1  0.6270443E-005  0.6009504E+03  0.7546771E-02  0.9903436E-01
          1   -1    0    0  502    0 -0.00000000000E+00  0.00000000000E+00  0.42726448538E+03  0.42726448538E+03  0.00000000000E+00 0. -1.
         21   -1    0    0  501  502  0.00000000000E+00 -0.00000000000E+00 -0.88484743418E+03  0.88484743418E+03  0.00000000000E+00 0.  1.
        -24    2    1    2    0    0 -0.42678304142E+02  0.42797417493E+03 -0.41765106851E+03  0.60474092505E+03  0.79346325393E+02 0.  0.
         23    2    1    2    0    0 -0.10066420953E+03  0.78848688396E+02 -0.85041691778E+02  0.17873937787E+03  0.91461888893E+02 0.  0.
         13    1    3    3    0    0 -0.35622494174E+02  0.37923441199E+03 -0.32894835443E+03  0.50328393696E+03  0.00000000000E+00 0. -1.
        -14    1    3    3    0    0 -0.70558099681E+01  0.48739762944E+02 -0.88702714083E+02  0.10145698809E+03  0.00000000000E+00 0.  1.
        -13    1    4    4    0    0 -0.40235205363E+02  0.11440738927E+01 -0.67736785309E+02  0.78793735409E+02  0.00000000000E+00 0.  1.
         13    1    4    4    0    0 -0.60429004167E+02  0.77704614503E+02 -0.17304906470E+02  0.99945642465E+02  0.00000000000E+00 0. -1.
          2    1    1    2  501    0  0.14334251367E+03 -0.50682286333E+03  0.45109811497E+02  0.52863161664E+03  0.00000000000E+00 0. -1.
<scales pt_clust_5="13000.00000" pt_clust_6="13000.00000" pt_clust_7="13000.00000" pt_clust_8="13000.00000" pt_clust_9="526.70368"></scales>
<clustering>
<clus scale="   79.346">  5  6 -1 -1</clus>
<clus scale="   91.462">  7  8 -1 -1</clus>
<clus scale="  141.326">  5  7 -1 -1</clus>
<clus scale="  526.704">  2  9  1 -1</clus>
<clus scale="  526.704">  2  5  1 -1</clus>
</clustering>
</event>
<event>
 9    1  0.6270443E-005  0.1100407E+03  0.7546771E-02  0.1266138E+00
         21   -1    0    0  501  502  0.00000000000E+00  0.00000000000E+00  0.42467804263E+02  0.42467804263E+02  0.00000000000E+00 0. -1.
          1   -1    0    0  502    0 -0.00000000000E+00 -0.00000000000E+00 -0.70634347751E+03  0.70634347751E+03  0.00000000000E+00 0. -1.
        -24    2    1    2    0    0 -0.55097124600E+02 -0.29990485290E+02 -0.58564958413E+03  0.59422959304E+03  0.78665440341E+02 0.  0.
         23    2    1    2    0    0  0.39680882110E+02  0.10930916549E+02 -0.81186504495E+02  0.12988975174E+03  0.92660896578E+02 0.  0.
         11    1    3    3    0    0 -0.31056942999E+02  0.16994560922E+02 -0.10757907902E+03  0.11325461162E+03  0.00000000000E+00 0. -1.
        -12    1    3    3    0    0 -0.24040181601E+02 -0.46985046212E+02 -0.47807050510E+03  0.48097498142E+03  0.00000000000E+00 0.  1.
        -13    1    4    4    0    0  0.43866359574E+02  0.36462937154E+02 -0.15230177928E+02  0.59040338819E+02  0.00000000000E+00 0.  1.
         13    1    4    4    0    0 -0.41854774637E+01 -0.25532020604E+02 -0.65956326567E+02  0.70849412926E+02  0.00000000000E+00 0. -1.
          2    1    1    2  501    0  0.15416242490E+02  0.19059568741E+02  0.29604153773E+01  0.24691936989E+02  0.00000000000E+00 0. -1.
<scales pt_clust_5="13000.00000" pt_clust_6="13000.00000" pt_clust_7="13000.00000" pt_clust_8="13000.00000" pt_clust_9="24.51383"></scales>
<clustering>
<clus scale="   24.514">  1  9  2 -1</clus>
<clus scale="   78.665">  5  6 -1 -1</clus>
<clus scale="   92.661">  7  8 -1 -1</clus>
<clus scale="   98.545">  2  5  1 -1</clus>
<clus scale="   24.514">  1  5  2 -1</clus>
</clustering>
</event>
<event>
 9    1  0.6270443E-005  0.1045253E+03  0.7546771E-02  0.1276631E+00
         21   -1    0    0  501  502  0.00000000000E+00  0.00000000000E+00  0.37983872912E+03  0.37983872912E+03  0.00000000000E+00 0.  1.
          1   -1    0    0  502    0 -0.00000000000E+00 -0.00000000000E+00 -0.53442902754E+02  0.53442902754E+02  0.00000000000E+00 0. -1.
         23    2    1    2    0    0 -0.36822259830E+02 -0.61887443957E+02  0.11287183592E+03  0.16212263751E+03  0.91420805679E+02 0.  0.
        -24    2    1    2    0    0 -0.32549319205E+02  0.39076455125E+02  0.12491340738E+03  0.15633481302E+03  0.79061918099E+02 0.  0.
         13    1    4    4    0    0 -0.51409008634E+02  0.37058397028E+02  0.55057333801E+02  0.83949514378E+02  0.00000000000E+00 0. -1.
        -14    1    4    4    0    0  0.18859689429E+02  0.20180580964E+01  0.69856073578E+02  0.72385298643E+02  0.00000000000E+00 0.  1.
        -11    1    3    3    0    0  0.22397200220E+02 -0.34996961412E+01  0.58562858253E+02  0.62797219823E+02  0.00000000000E+00 0. -1.
         11    1    3    3    0    0 -0.59219460050E+02 -0.58387747816E+02  0.54308977668E+02  0.99325417688E+02  0.00000000000E+00 0.  1.
          2    1    1    2  501    0  0.69371579036E+02  0.22810988832E+02  0.88610583066E+02  0.11482418134E+03  0.00000000000E+00 0. -1.
<scales pt_clust_5="13000.00000" pt_clust_6="13000.00000" pt_clust_7="13000.00000" pt_clust_8="13000.00000" pt_clust_9="73.02573"></scales>
<clustering>
<clus scale="   73.026">  1  9  2 -1</clus>
<clus scale="   79.062">  5  6 -1 -1</clus>
<clus scale="   91.421">  7  8 -1 -1</clus>
<clus scale="   93.907">  1  5  2 -1</clus>
<clus scale="   73.026">  1  5  2 -1</clus>
</clustering>
</event>
<event>
 9    1  0.6270443E-005  0.1148774E+03  0.7546771E-02  0.1256814E+00
         21   -1    0    0  501  502  0.00000000000E+00  0.00000000000E+00  0.13415690024E+03  0.13415690024E+03  0.00000000000E+00 0.  1.
          1   -1    0    0  502    0 -0.00000000000E+00 -0.00000000000E+00 -0.17682906742E+03  0.17682906742E+03  0.00000000000E+00 0. -1.
         23    2    1    2    0    0  0.62838582243E+02  0.32029436083E+02 -0.90159762550E+02  0.14646251053E+03  0.91366908746E+02 0.  0.
        -24    2    1    2    0    0 -0.73445120459E+02  0.18601101194E+01  0.65081808425E+02  0.12489321201E+03  0.77233586544E+02 0.  0.
         11    1    4    4    0    0 -0.57204546794E+02  0.57862239481E+01 -0.21062859435E+00  0.57496825355E+02  0.00000000000E+00 0. -1.
        -12    1    4    4    0    0 -0.16240573665E+02 -0.39261138287E+01  0.65292437019E+02  0.67396386659E+02  0.00000000000E+00 0.  1.
        -13    1    3    3    0    0  0.25282933509E+02  0.41576591337E+02 -0.95658886036E+02  0.10732409865E+03  0.00000000000E+00 0.  1.
         13    1    3    3    0    0  0.37555648734E+02 -0.95471552545E+01  0.54991234851E+01  0.39138411879E+02  0.00000000000E+00 0. -1.
          2    1    1    2  501    0  0.10606538216E+02 -0.33889546202E+02 -0.17594213050E+02  0.39630245111E+02  0.00000000000E+00 0. -1.
<scales pt_clust_5="13000.00000" pt_clust_6="13000.00000" pt_clust_7="13000.00000" pt_clust_8="13000.00000" pt_clust_9="35.51058"></scales>
<clustering>
<clus scale="   35.511">  1  9  2 -1</clus>
<clus scale="   77.234">  5  6 -1 -1</clus>
<clus scale="   91.367">  7  8 -1 -1</clus>
<clus scale="  103.990">  1  5  2 -1</clus>
<clus scale="   35.511">  1  5  2 -1</clus>
</clustering>
</event>
<event>
 9    1  0.6270443E-005  0.1097380E+03  0.7546771E-02  0.1265770E+00
         -2   -1    0    0    0  501 -0.00000000000E+00  0.00000000000E+00  0.25373456665E+03  0.25373456665E+03  0.00000000000E+00 0.  1.
         21   -1    0    0  501  502  0.00000000000E+00 -0.00000000000E+00 -0.12098984299E+03  0.12098984299E+03  0.00000000000E+00 0. -1.
         23    2    1    2    0    0  0.64792226230E+02 -0.74004957643E+01  0.19840527568E+03  0.22780244828E+03  0.90975282939E+02 0.  0.
        -24    2    1    2    0    0 -0.38515635166E+02 -0.12165311378E+02 -0.71066285776E+02  0.11371801575E+03  0.79056442990E+02 0.  0.
         13    1    4    4    0    0 -0.37174872429E+02 -0.39275267491E+02 -0.67267938406E+02  0.86310447305E+02  0.00000000000E+00 0. -1.
        -14    1    4    4    0    0 -0.13407627360E+01  0.27109956113E+02 -0.37983473705E+01  0.27407568442E+02  0.00000000000E+00 0.  1.
        -13    1    3    3    0    0 -0.19097706897E+02  0.94088811984E+01  0.17038829112E+02  0.27268501089E+02  0.00000000000E+00 0. -1.
         13    1    3    3    0    0  0.83889933127E+02 -0.16809376963E+02  0.18136644657E+03  0.20053394719E+03  0.00000000000E+00 0.  1.
         -1    1    1    2    0  502 -0.26276591064E+02  0.19565807143E+02  0.54057337537E+01  0.33203945617E+02  0.00000000000E+00 0.  1.
<scales pt_clust_5="13000.00000" pt_clust_6="13000.00000" pt_clust_7="13000.00000" pt_clust_8="13000.00000" pt_clust_9="32.76095"></scales>
<clustering>
<clus scale="   32.761">  2  9  1 -1</clus>
<clus scale="   79.056">  5  6 -1 -1</clus>
<clus scale="   90.975">  7  8 -1 -1</clus>
<clus scale="  100.079">  2  5  1 -1</clus>
<clus scale="   32.761">  2  5  1 -1</clus>
</clustering>
</event>
<event>
 9    1  0.6270443E-005  0.9634054E+02  0.7546771E-02  0.1294139E+00
          1   -1    0    0  502    0 -0.00000000000E+00  0.00000000000E+00  0.20679616525E+03  0.20679616525E+03  0.00000000000E+00 0. -1.
         21   -1    0    0  501  502  0.00000000000E+00 -0.00000000000E+00 -0.34407734495E+03  0.34407734495E+03  0.00000000000E+00 0. -1.
        -24    2    1    2    0    0  0.42176741032E+02 -0.37495459151E+01  0.12519981068E+03  0.15456236340E+03  0.80134855127E+02 0.  0.
         23    2    1    2    0    0  0.14579072604E+02 -0.63831732614E+02  0.74463804291E+01  0.11232305356E+03  0.90961422224E+02 0.  0.
         13    1    3    3    0    0  0.60401355164E+02  0.15887435953E+02  0.99239681937E+02  0.11725719081E+03  0.00000000000E+00 0. -1.
        -14    1    3    3    0    0 -0.18224614132E+02 -0.19636981868E+02  0.25960128747E+02  0.37305172587E+02  0.00000000000E+00 0.  1.
        -11    1    4    4    0    0  0.26647357825E+02 -0.44118689125E+01  0.36241815348E+02  0.45199728385E+02  0.00000000000E+00 0.  1.
         11    1    4    4    0    0 -0.12068285221E+02 -0.59419863702E+02 -0.28795434919E+02  0.67123325176E+02  0.00000000000E+00 0. -1.
          2    1    1    2  501    0 -0.56755813636E+02  0.67581278529E+02 -0.26992737082E+03  0.28398809324E+03  0.00000000000E+00 0. -1.
<scales pt_clust_5="13000.00000" pt_clust_6="13000.00000" pt_clust_7="13000.00000" pt_clust_8="13000.00000" pt_clust_9="88.25220"></scales>
<clustering>
<clus scale="   80.135">  5  6 -1 -1</clus>
<clus scale="   88.252">  2  9  1 -1</clus>
<clus scale="   86.192">  1  5  2 -1</clus>
<clus scale="   90.961">  7  8 -1 -1</clus>
<clus scale="   88.252">  2  5  1 -1</clus>
</clustering>
</event>
<event>
 9    1  0.6270443E-005  0.1311249E+03  0.7546771E-02  0.1228790E+00
         21   -1    0    0  501  502  0.00000000000E+00  0.00000000000E+00  0.12550713646E+03  0.12550713646E+03  0.00000000000E+00 0.  1.
         -2   -1    0    0    0  501 -0.00000000000E+00 -0.00000000000E+00 -0.22126778992E+03  0.22126778992E+03  0.00000000000E+00 0.  1.
         23    2    1    2    0    0  0.58875138210E+02 -0.81911398040E+02 -0.11281066783E+03  0.17695764100E+03  0.91716960817E+02 0.  0.
        -24    2    1    2    0    0 -0.10179810347E+02  0.87202470875E+02  0.28832306148E+01  0.11882779461E+03  0.80023948215E+02 0.  0.
         13    1    4    4    0    0 -0.30228760243E+02  0.14859018908E+01  0.54899587960E+01  0.30759153074E+02  0.00000000000E+00 0. -1.
        -14    1    4    4    0    0  0.20048949895E+02  0.85716568984E+02 -0.26067281812E+01  0.88068641536E+02  0.00000000000E+00 0.  1.
        -13    1    3    3    0    0  0.28683932414E+02 -0.41869567516E+02  0.29122105860E+01  0.50836105606E+02  0.00000000000E+00 0. -1.
         13    1    3    3    0    0  0.30191205797E+02 -0.40041830524E+02 -0.11572287842E+03  0.12612153539E+03  0.00000000000E+00 0.  1.
         -1    1    1    2    0  502 -0.48695327863E+02 -0.52910728343E+01  0.14166783759E+02  0.50989490775E+02  0.00000000000E+00 0.  1.
<scales pt_clust_5="13000.00000" pt_clust_6="13000.00000" pt_clust_7="13000.00000" pt_clust_8="13000.00000" pt_clust_9="48.98194"></scales>
<clustering>
<clus scale="   48.982">  1  9  2 -1</clus>
<clus scale="   80.024">  5  6 -1 -1</clus>
<clus scale="   91.717">  7  8 -1 -1</clus>
<clus scale="  123.230">  1  5  2 -1</clus>
<clus scale="   48.982">  1  5  2 -1</clus>
</clustering>
</event>
<event>
 9    1  0.6270443E-005  0.1058375E+03  0.7546771E-02  0.1270135E+00
         21   -1    0    0  501  502  0.00000000000E+00  0.00000000000E+00  0.15941933382E+03  0.15941933382E+03  0.00000000000E+00 0. -1.
          3   -1    0    0  502    0 -0.00000000000E+00 -0.00000000000E+00 -0.62910739299E+03  0.62910739299E+03  0.00000000000E+00 0. -1.
         23    2    1    2    0    0  0.24544377179E+02 -0.72561556267E+02 -0.44306640650E+03  0.45601752146E+03  0.76003509207E+02 0.  0.
        -24    2    1    2    0    0 -0.58954848900E+02  0.27905738470E+02 -0.15835616089E+03  0.18921858011E+03  0.80452426430E+02 0.  0.
         13    1    4    4    0    0 -0.23790531664E+02 -0.21989203713E+02 -0.98645333100E+02  0.10382878319E+03  0.00000000000E+00 0. -1.
        -14    1    4    4    0    0 -0.35164317237E+02  0.49894942183E+02 -0.59710827788E+02  0.85389796916E+02  0.00000000000E+00 0.  1.
        -13    1    3    3    0    0  0.47412631649E+02 -0.33948927327E+02 -0.18174969200E+03  0.19087545114E+03  0.00000000000E+00 0. -1.
         13    1    3    3    0    0 -0.22868254470E+02 -0.38612628940E+02 -0.26131671450E+03  0.26514207032E+03  0.00000000000E+00 0.  1.
          4    1    1    2  501    0  0.34410471722E+02  0.44655817797E+02  0.13173450821E+03  0.14329062524E+03  0.00000000000E+00 0. -1.
<scales pt_clust_5="13000.00000" pt_clust_6="13000.00000" pt_clust_7="13000.00000" pt_clust_8="13000.00000" pt_clust_9="56.37573"></scales>
<clustering>
<clus scale="   56.376">  1  9  2 -1</clus>
<clus scale="   76.004">  7  8 -1 -1</clus>
<clus scale="   80.452">  5  6 -1 -1</clus>
<clus scale="  102.496">  2  7  1 -1</clus>
<clus scale="   56.376">  1  5  2 -1</clus>
</clustering>
</event>
<event>
 9    1  0.6270443E-005  0.1212724E+03  0.7546771E-02  0.1244904E+00
          1   -1    0    0  502    0 -0.00000000000E+00  0.00000000000E+00  0.26354986220E+03  0.26354986220E+03  0.00000000000E+00 0. -1.
         21   -1    0    0  501  502  0.00000000000E+00 -0.00000000000E+00 -0.82799822424E+02  0.82799822424E+02  0.00000000000E+00 0. -1.
         23    2    1    2    0    0 -0.86895364261E+01  0.86279577972E+02  0.17208973398E+03  0.21441887042E+03  0.94026069951E+02 0.  0.
        -24    2    1    2    0    0  0.12460585263E+02 -0.53352500574E+02  0.60671860282E+01  0.98687205718E+02  0.81857182480E+02 0.  0.
         11    1    4    4    0    0 -0.16954343410E+02 -0.63581947764E+02 -0.40878749897E+01  0.65930452477E+02  0.00000000000E+00 0. -1.
        -12    1    4    4    0    0  0.29414928672E+02  0.10229447190E+02  0.10155061018E+02  0.32756753241E+02  0.00000000000E+00 0.  1.
        -11    1    3    3    0    0  0.32474725476E+02  0.18991205286E+02  0.10265506280E+03  0.10933131112E+03  0.00000000000E+00 0.  1.
         11    1    3    3    0    0 -0.41164261902E+02  0.67288372686E+02  0.69434671183E+02  0.10508755930E+03  0.00000000000E+00 0. -1.
          2    1    1    2  501    0 -0.37710488366E+01 -0.32927077398E+02  0.25931197677E+01  0.33243608490E+02  0.00000000000E+00 0. -1.
<scales pt_clust_5="13000.00000" pt_clust_6="13000.00000" pt_clust_7="13000.00000" pt_clust_8="13000.00000" pt_clust_9="33.14232"></scales>
<clustering>
<clus scale="   33.142">  2  9  1 -1</clus>
<clus scale="   81.857">  5  6 -1 -1</clus>
<clus scale="   94.026">  7  8 -1 -1</clus>
<clus scale="  112.101">  2  5  1 -1</clus>
<clus scale="   33.142">  2  5  1 -1</clus>
</clustering>
</event>
<event>
 9    1  0.6270443E-005  0.1441091E+03  0.7546771E-02  0.1210201E+00
          1   -1    0    0  502    0 -0.00000000000E+00  0.00000000000E+00  0.80424800156E+03  0.80424800156E+03  0.00000000000E+00 0. -1.
         21   -1    0    0  501  502  0.00000000000E+00 -0.00000000000E+00 -0.94951324711E+02  0.94951324711E+02  0.00000000000E+00 0. -1.
        -24    2    1    2    0    0 -0.41849705534E+02 -0.10677390408E+03  0.24054183006E+03  0.27828733596E+03  0.80196040434E+02 0.  0.
         23    2    1    2    0    0 -0.33436817684E+02  0.11348115100E+03  0.35526173488E+01  0.14960936777E+03  0.91511471546E+02 0.  0.
         11    1    3    3    0    0 -0.65716311261E+02 -0.73633236611E+02  0.16019380173E+03  0.18815563029E+03  0.00000000000E+00 0. -1.
        -12    1    3    3    0    0  0.23866605727E+02 -0.33140667464E+02  0.80348028333E+02  0.90131705664E+02  0.00000000000E+00 0.  1.
        -13    1    4    4    0    0 -0.33375781083E+02  0.16788167418E+02  0.31598550595E+02  0.48931112065E+02  0.00000000000E+00 0.  1.
         13    1    4    4    0    0 -0.61036600163E-01  0.96692983586E+02 -0.28045933246E+02  0.10067825571E+03  0.00000000000E+00 0. -1.
          2    1    1    2  501    0  0.75286523218E+02 -0.67072469287E+01  0.46520222944E+03  0.47130262254E+03  0.00000000000E+00 0. -1.
<scales pt_clust_5="13000.00000" pt_clust_6="13000.00000" pt_clust_7="13000.00000" pt_clust_8="13000.00000" pt_clust_9="75.58474"></scales>
<clustering>
<clus scale="   75.585">  2  9  1 -1</clus>
<clus scale="   80.196">  5  6 -1 -1</clus>
<clus scale="   91.511">  7  8 -1 -1</clus>
<clus scale="  137.202">  1  5  2 -1</clus>
<clus scale="   75.585">  2  5  1 -1</clus>
</clustering>
</event>
<event>
 9    1  0.6270443E-005  0.1014578E+03  0.7546771E-02  0.1278163E+00
         21   -1    0    0  501  502  0.00000000000E+00  0.00000000000E+00  0.23781702141E+03  0.23781702141E+03  0.00000000000E+00 0.  1.
         -2   -1    0    0    0  501 -0.00000000000E+00 -0.00000000000E+00 -0.25256669688E+03  0.25256669688E+03  0.00000000000E+00 0.  1.
        -24    2    1    2    0    0  0.63813219807E+02  0.44300605123E+02 -0.18056383993E+03  0.21223905956E+03  0.80046533192E+02 0.  0.
         23    2    1    2    0    0 -0.17968144823E+02 -0.85758862275E+01 -0.17041683265E+02  0.86274162062E+02  0.82197396662E+02 0.  0.
         11    1    3    3    0    0 -0.81676890507E+01  0.28246639959E+02 -0.20037519707E+02  0.35582102375E+02  0.00000000000E+00 0. -1.
        -12    1    3    3    0    0  0.71980908857E+02  0.16053965164E+02 -0.16052632023E+03  0.17665695719E+03  0.00000000000E+00 0.  1.
        -11    1    4    4    0    0 -0.35565986082E+02 -0.28970590661E+02  0.11227332491E+02  0.47225919621E+02  0.00000000000E+00 0. -1.
         11    1    4    4    0    0  0.17597841259E+02  0.20394704434E+02 -0.28269015756E+02  0.39048242441E+02  0.00000000000E+00 0.  1.
         -1    1    1    2    0  502 -0.45845074984E+02 -0.35724718895E+02  0.18285584773E+03  0.19187049666E+03  0.00000000000E+00 0.  1.
<scales pt_clust_5="13000.00000" pt_clust_6="13000.00000" pt_clust_7="13000.00000" pt_clust_8="13000.00000" pt_clust_9="58.12079"></scales>
<clustering>
<clus scale="   58.121">  1  9  2 -1</clus>
<clus scale="   80.047">  5  6 -1 -1</clus>
<clus scale="   82.197">  7  8 -1 -1</clus>
<clus scale="   99.723">  2  5  1 -1</clus>
<clus scale="   58.121">  1  5  2 -1</clus>
</clustering>
</event>
<event>
 9    1  0.6270443E-005  0.1289237E+03  0.7546771E-02  0.1231478E+00
         21   -1    0    0  501  502  0.00000000000E+00  0.00000000000E+00  0.30394711670E+03  0.30394711670E+03  0.00000000000E+00 0.  1.
          1   -1    0    0  502    0 -0.00000000000E+00 -0.00000000000E+00 -0.78540879020E+02  0.78540879020E+02  0.00000000000E+00 0. -1.
         23    2    1    2    0    0  0.31214947596E+02  0.73430465201E+02  0.11752740188E+03  0.16810864041E+03  0.89896710801E+02 0.  0.
        -24    2    1    2    0    0 -0.50577056486E+02 -0.93338589303E+02  0.12416637532E+03  0.18218450154E+03  0.80645972900E+02 0.  0.
         11    1    4    4    0    0 -0.70655317894E+02 -0.86663720757E+02  0.99393890570E+02  0.14960588199E+03  0.00000000000E+00 0. -1.
        -12    1    4    4    0    0  0.20078261408E+02 -0.66748685465E+01  0.24772484755E+02  0.32578619556E+02  0.00000000000E+00 0.  1.
        -13    1    3    3    0    0  0.34876298606E+02  0.60383591601E+01  0.34518975241E+01  0.35563092980E+02  0.00000000000E+00 0. -1.
         13    1    3    3    0    0 -0.36613510100E+01  0.67392106041E+02  0.11407550436E+03  0.13254554743E+03  0.00000000000E+00 0.  1.
          2    1    1    2  501    0  0.19362108891E+02  0.19908124102E+02 -0.16287539522E+02  0.32194853776E+02  0.00000000000E+00 0. -1.
<scales pt_clust_5="13000.00000" pt_clust_6="13000.00000" pt_clust_7="13000.00000" pt_clust_8="13000.00000" pt_clust_9="27.77095"></scales>
<clustering>
<clus scale="   27.771">  1  9  2 -1</clus>
<clus scale="   80.646">  5  6 -1 -1</clus>
<clus scale="   89.897">  7  8 -1 -1</clus>
<clus scale="  122.653">  1  5  2 -1</clus>
<clus scale="   27.771">  1  5  2 -1</clus>
</clustering>
</event>
<event>
 9    1  0.6270443E-005  0.1914542E+03  0.7546771E-02  0.1194328E+00
          1   -1    0    0  502    0 -0.00000000000E+00  0.00000000000E+00  0.87846954530E+03  0.87846954530E+03  0.00000000000E+00 0. -1.
         21   -1    0    0  501  502  0.00000000000E+00 -0.00000000000E+00 -0.63748852011E+02  0.63748852011E+02  0.00000000000E+00 0.  1.
        -24    2    1    2    0    0 -0.21773592154E+01 -0.14391084114E+02  0.29344032714E+03  0.30481368103E+03  0.81193043762E+02 0.  0.
         23    2    1    2    0    0 -0.10375554555E+03  0.13841732694E+03  0.21561884552E+03  0.29094655948E+03  0.90740532823E+02 0.  0.
         11    1    3    3    0    0  0.80352025440E+01  0.23495993244E+02  0.32301749347E+02  0.40743455785E+02  0.00000000000E+00 0. -1.
        -12    1    3    3    0    0 -0.10212561759E+02 -0.37887077358E+02  0.26113857779E+03  0.26407022525E+03  0.00000000000E+00 0.  1.
        -11    1    4    4    0    0 -0.29481701290E+02  0.22320961921E+02  0.11361995436E+03  0.11948594094E+03  0.00000000000E+00 0. -1.
         11    1    4    4    0    0 -0.74273844263E+02  0.11609636502E+03  0.10199889116E+03  0.17146061854E+03  0.00000000000E+00 0.  1.
          2    1    1    2  501    0  0.10593290477E+03 -0.12402624283E+03  0.30566152063E+03  0.34645815680E+03  0.00000000000E+00 0. -1.
<scales pt_clust_5="13000.00000" pt_clust_6="13000.00000" pt_clust_7="13000.00000" pt_clust_8="13000.00000" pt_clust_9="168.58493"></scales>
<clustering>
<clus scale="   81.193">  5  6 -1 -1</clus>
<clus scale="   82.487">  1  5  2 -1</clus>
<clus scale="   90.741">  7  8 -1 -1</clus>
<clus scale="  168.585">  2  9  1 -1</clus>
<clus scale="  168.585">  2  5  1 -1</clus>
</clustering>
</event>
<event>
 9    1  0.6270443E-005  0.1315644E+03  0.7546771E-02  0.1230038E+00
          1   -1    0    0  502    0 -0.00000000000E+00  0.00000000000E+00  0.87754235242E+03  0.87754235242E+03  0.00000000000E+00 0. -1.
         21   -1    0    0  501  502  0.00000000000E+00 -0.00000000000E+00 -0.30702885546E+02  0.30702885546E+02  0.00000000000E+00 0. -1.
        -24    2    1    2    0    0  0.54715047358E+02 -0.59476009955E+02  0.41002399062E+03  0.42553094200E+03  0.80160947806E+02 0.  0.
         23    2    1    2    0    0 -0.34732356461E+02  0.97276872380E+02  0.40535487934E+03  0.42962962497E+03  0.97979130247E+02 0.  0.
         13    1    3    3    0    0  0.47520409246E+02 -0.49628082701E+02  0.40727310072E+03  0.41302846689E+03  0.00000000000E+00 0. -1.
        -14    1    3    3    0    0  0.71946381128E+01 -0.98479272539E+01  0.27508898926E+01  0.12502475114E+02  0.00000000000E+00 0.  1.
        -11    1    4    4    0    0 -0.89321870778E+01 -0.20136280160E+02  0.56467613578E+02  0.60612252292E+02  0.00000000000E+00 0.  1.
         11    1    4    4    0    0 -0.25800169383E+02  0.11741315254E+03  0.34888726576E+03  0.36901737268E+03  0.00000000000E+00 0. -1.
          2    1    1    2  501    0 -0.19982690898E+02 -0.37800862425E+02  0.31460596914E+02  0.53084670987E+02  0.00000000000E+00 0. -1.
<scales pt_clust_5="13000.00000" pt_clust_6="13000.00000" pt_clust_7="13000.00000" pt_clust_8="13000.00000" pt_clust_9="42.75761"></scales>
<clustering>
<clus scale="   42.758">  2  9  1 -1</clus>
<clus scale="   80.161">  5  6 -1 -1</clus>
<clus scale="   97.979">  7  8 -1 -1</clus>
<clus scale="  118.891">  1  5  2 -1</clus>
<clus scale="   42.758">  2  5  1 -1</clus>
</clustering>
</event>
<event>
 9    1  0.6270443E-005  0.1150625E+03  0.7546771E-02  0.1255775E+00
         21   -1    0    0  501  502  0.00000000000E+00  0.00000000000E+00  0.19355974632E+03  0.19355974632E+03  0.00000000000E+00 0. -1.
          1   -1    0    0  502    0 -0.00000000000E+00 -0.00000000000E+00 -0.12479023946E+03  0.12479023946E+03  0.00000000000E+00 0. -1.
         23    2    1    2    0    0 -0.34356100130E+02  0.70807184241E+02  0.34959698925E+00  0.12212827622E+03  0.93387336815E+02 0.  0.
        -24    2    1    2    0    0 -0.37655275893E+02 -0.63073238504E+02  0.27795315206E+02  0.11318069629E+03  0.81493173012E+02 0.  0.
         13    1    4    4    0    0 -0.34715794967E+02 -0.44962945730E+02 -0.21378885650E+02  0.60695219421E+02  0.00000000000E+00 0. -1.
        -14    1    4    4    0    0 -0.29394809268E+01 -0.18110292774E+02  0.49174200856E+02  0.52485476870E+02  0.00000000000E+00 0.  1.
        -13    1    3    3    0    0 -0.41289708962E+02 -0.60003492609E+01 -0.13337311629E+02  0.43803289134E+02  0.00000000000E+00 0.  1.
         13    1    3    3    0    0  0.69336088325E+01  0.76807533502E+02  0.13686908618E+02  0.78324987083E+02  0.00000000000E+00 0. -1.
          2    1    1    2  501    0  0.72011376023E+02 -0.77339457369E+01  0.40624594669E+02  0.83041013273E+02  0.00000000000E+00 0. -1.
<scales pt_clust_5="13000.00000" pt_clust_6="13000.00000" pt_clust_7="13000.00000" pt_clust_8="13000.00000" pt_clust_9="72.42549"></scales>
<clustering>
<clus scale="   72.425">  1  9  2 -1</clus>
<clus scale="   81.493">  5  6 -1 -1</clus>
<clus scale="   93.387">  7  8 -1 -1</clus>
<clus scale="  105.638">  1  5  2 -1</clus>
<clus scale="   72.425">  1  5  2 -1</clus>
</clustering>
</event>
<event>
 9    1  0.6270443E-005  0.2615233E+03  0.7546771E-02  0.1106231E+00
         21   -1    0    0  501  502  0.00000000000E+00  0.00000000000E+00  0.17810622840E+03  0.17810622840E+03  0.00000000000E+00 0. -1.
          1   -1    0    0  502    0 -0.00000000000E+00 -0.00000000000E+00 -0.26867726925E+03  0.26867726925E+03  0.00000000000E+00 0. -1.
        -24    2    1    2    0    0  0.88300248567E+02  0.44516605014E+02 -0.51346837840E+02  0.13759080717E+03  0.80722180618E+02 0.  0.
         23    2    1    2    0    0  0.20018207144E+02  0.93431986322E+02 -0.14219257167E+02  0.13202624609E+03  0.89991542362E+02 0.  0.
         13    1    3    3    0    0  0.66798395001E+02  0.68130507734E+02 -0.42502648466E+02  0.10445222250E+03  0.00000000000E+00 0. -1.
        -14    1    3    3    0    0  0.21501853566E+02 -0.23613902720E+02 -0.88441893738E+01  0.33138584673E+02  0.00000000000E+00 0.  1.
        -13    1    4    4    0    0  0.46754433199E+02  0.42359351001E+02  0.18492954110E+02  0.65744056710E+02  0.00000000000E+00 0.  1.
         13    1    4    4    0    0 -0.26736226055E+02  0.51072635321E+02 -0.32712211277E+02  0.66282189380E+02  0.00000000000E+00 0. -1.
          2    1    1    2  501    0 -0.10831845571E+03 -0.13794859134E+03 -0.25004945847E+02  0.17716644439E+03  0.00000000000E+00 0. -1.
<scales pt_clust_5="13000.00000" pt_clust_6="13000.00000" pt_clust_7="13000.00000" pt_clust_8="13000.00000" pt_clust_9="175.39299"></scales>
<clustering>
<clus scale="   80.722">  5  6 -1 -1</clus>
<clus scale="   89.992">  7  8 -1 -1</clus>
<clus scale="  127.256">  5  7 -1 -1</clus>
<clus scale="  175.393">  1  9  2 -1</clus>
<clus scale="  175.393">  1  5  2 -1</clus>
</clustering>
</event>
<event>
 9    1  0.6270443E-005  0.9821372E+02  0.7546771E-02  0.1289699E+00
          1   -1    0    0  502    0 -0.00000000000E+00  0.00000000000E+00  0.27983169568E+03  0.27983169568E+03  0.00000000000E+00 0. -1.
         21   -1    0    0  501  502  0.00000000000E+00 -0.00000000000E+00 -0.14188467364E+03  0.14188467364E+03  0.00000000000E+00 0. -1.
        -24    2    1    2    0    0  0.11104923024E+02  0.48420830960E+02  0.20116872084E+03  0.22197584864E+03  0.79602304932E+02 0.  0.
         23    2    1    2    0    0  0.19636638691E+02 -0.34074187476E+01  0.25144155629E+02  0.95914824802E+02  0.90389252529E+02 0.  0.
         13    1    3    3    0    0 -0.24650579876E+02  0.48884852565E+02  0.91541267279E+02  0.10666388102E+03  0.00000000000E+00 0. -1.
        -14    1    3    3    0    0  0.35755502900E+02 -0.46402160516E+00  0.10962745356E+03  0.11531196763E+03  0.00000000000E+00 0.  1.
        -11    1    4    4    0    0 -0.25777842419E+02  0.26223403588E+02  0.18858790207E+02  0.41325754967E+02  0.00000000000E+00 0.  1.
         11    1    4    4    0    0  0.45414481111E+02 -0.29630822336E+02  0.62853654222E+01  0.54589069834E+02  0.00000000000E+00 0. -1.
          2    1    1    2  501    0 -0.30741561715E+02 -0.45013412212E+02 -0.88365854430E+02  0.10382569588E+03  0.00000000000E+00 0. -1.
<scales pt_clust_5="13000.00000" pt_clust_6="13000.00000" pt_clust_7="13000.00000" pt_clust_8="13000.00000" pt_clust_9="54.50918"></scales>
<clustering>
<clus scale="   54.509">  2  9  1 -1</clus>
<clus scale="   79.602">  5  6 -1 -1</clus>
<clus scale="   88.387">  1  5  2 -1</clus>
<clus scale="   90.389">  7  8 -1 -1</clus>
<clus scale="   54.509">  2  5  1 -1</clus>
</clustering>
</event>
<event>
 9    1  0.6270443E-005  0.1579136E+03  0.7546771E-02  0.1212572E+00
          1   -1    0    0  502    0 -0.00000000000E+00  0.00000000000E+00  0.19182395987E+03  0.19182395987E+03  0.00000000000E+00 0. -1.
         21   -1    0    0  501  502  0.00000000000E+00 -0.00000000000E+00 -0.54916488424E+03  0.54916488424E+03  0.00000000000E+00 0.  1.
        -24    2    1    2    0    0 -0.13917021255E+02  0.27251130031E+02 -0.22719726035E+02  0.10170854911E+03  0.94298120041E+02 0.  0.
         23    2    1    2    0    0 -0.11274187054E+03 -0.64042134150E+02 -0.44188261430E+03  0.46927716499E+03  0.90270086063E+02 0.  0.
         13    1    3    3    0    0 -0.30847486333E+02  0.12858000622E+02  0.29739875714E+02  0.44736515293E+02  0.00000000000E+00 0. -1.
        -14    1    3    3    0    0  0.16930465078E+02  0.14393129410E+02 -0.52459601750E+02  0.56972033821E+02  0.00000000000E+00 0.  1.
        -11    1    4    4    0    0 -0.64751440762E+02 -0.77399183073E+02 -0.22257161302E+03  0.24437983866E+03  0.00000000000E+00 0.  1.
         11    1    4    4    0    0 -0.47990429781E+02  0.13357048924E+02 -0.21931100129E+03  0.22489732634E+03  0.00000000000E+00 0. -1.
          2    1    1    2  501    0  0.12665889180E+03  0.36791004118E+02  0.10726141597E+03  0.17000313001E+03  0.00000000000E+00 0. -1.
<scales pt_clust_5="13000.00000" pt_clust_6="13000.00000" pt_clust_7="13000.00000" pt_clust_8="13000.00000" pt_clust_9="129.56862"></scales>
<clustering>
<clus scale="   90.270">  7  8 -1 -1</clus>
<clus scale="   94.298">  5  6 -1 -1</clus>
<clus scale="   99.139">  1  5  2 -1</clus>
<clus scale="  129.569">  2  9  1 -1</clus>
<clus scale="  129.569">  2  5  1 -1</clus>
</clustering>
</event>
<event>
 9    1  0.6270443E-005  0.1089322E+03  0.7546771E-02  0.1266984E+00
         -4   -1    0    0    0  501 -0.00000000000E+00  0.00000000000E+00  0.34939914115E+03  0.34939914115E+03  0.00000000000E+00 0.  1.
         21   -1    0    0  501  502  0.00000000000E+00 -0.00000000000E+00 -0.92467530462E+02  0.92467530462E+02  0.00000000000E+00 0.  1.
         23    2    1    2    0    0 -0.54593602932E+02 -0.54178061641E+02  0.21255888847E+03  0.24390952728E+03  0.91623428149E+02 0.  0.
        -24    2    1    2    0    0 -0.30000224139E+02  0.50787377161E+02  0.52483972134E+02  0.11290771931E+03  0.80710684686E+02 0.  0.
         11    1    4    4    0    0  0.16184181061E+02  0.28340742512E+02 -0.79631958006E+01  0.33593718015E+02  0.00000000000E+00 0. -1.
        -12    1    4    4    0    0 -0.46184405200E+02  0.22446634649E+02  0.60447167934E+02  0.79314001298E+02  0.00000000000E+00 0.  1.
        -13    1    3    3    0    0 -0.85705256104E+01 -0.69291460993E+02  0.10697250518E+03  0.12774144723E+03  0.00000000000E+00 0. -1.
         13    1    3    3    0    0 -0.46023077321E+02  0.15113399353E+02  0.10558638330E+03  0.11616808005E+03  0.00000000000E+00 0.  1.
         -3    1    1    2    0  502  0.84593827070E+02  0.33906844801E+01 -0.81112499226E+01  0.85049425012E+02  0.00000000000E+00 0.  1.
<scales pt_clust_5="13000.00000" pt_clust_6="13000.00000" pt_clust_7="13000.00000" pt_clust_8="13000.00000" pt_clust_9="84.66175"></scales>
<clustering>
<clus scale="   80.711">  5  6 -1 -1</clus>
<clus scale="   84.662">  2  9  1 -1</clus>
<clus scale="   91.623">  7  8 -1 -1</clus>
<clus scale="   99.928">  2  5  1 -1</clus>
<clus scale="   84.662">  2  5  1 -1</clus>
</clustering>
</event>
<event>
 9    1  0.6270443E-005  0.9990429E+02  0.7546771E-02  0.1286430E+00
          1   -1    0    0  502    0 -0.00000000000E+00  0.00000000000E+00  0.17479810571E+04  0.17479810571E+04  0.00000000000E+00 0. -1.
         21   -1    0    0  501  502  0.00000000000E+00 -0.00000000000E+00 -0.81800164900E+02  0.81800164900E+02  0.00000000000E+00 0. -1.
        -24    2    1    2    0    0 -0.29122904881E+02  0.17902440556E+02  0.14796962270E+04  0.14823649766E+04  0.82075324135E+02 0.  0.
         23    2    1    2    0    0  0.10853266103E+03  0.11086559785E+02  0.11275459352E+01  0.14369208583E+03  0.93508790245E+02 0.  0.
         13    1    3    3    0    0 -0.37383878017E+01  0.20712650591E+02  0.89778532959E+02  0.92212658665E+02  0.00000000000E+00 0. -1.
        -14    1    3    3    0    0 -0.25384517079E+02 -0.28102100354E+01  0.13899176940E+04  0.13901523180E+04  0.00000000000E+00 0.  1.
        -11    1    4    4    0    0  0.11980228579E+03 -0.83787811194E+01  0.74568648588E+01  0.12032620864E+03  0.00000000000E+00 0. -1.
         11    1    4    4    0    0 -0.11269624759E+02  0.19465340904E+02 -0.63293189236E+01  0.23365877188E+02  0.00000000000E+00 0.  1.
          2    1    1    2  501    0 -0.79409756146E+02 -0.28989000341E+02  0.18535711930E+03  0.20372415956E+03  0.00000000000E+00 0. -1.
<scales pt_clust_5="13000.00000" pt_clust_6="13000.00000" pt_clust_7="13000.00000" pt_clust_8="13000.00000" pt_clust_9="84.53562"></scales>
<clustering>
<clus scale="   82.075">  5  6 -1 -1</clus>
<clus scale="   84.536">  2  9  1 -1</clus>
<clus scale="   89.294">  1  5  2 -1</clus>
<clus scale="   93.509">  7  8 -1 -1</clus>
<clus scale="   84.536">  2  5  1 -1</clus>
</clustering>
</event>
<event>
 9    1  0.6270443E-005  0.1312867E+03  0.7546771E-02  0.1241234E+00
         21   -1    0    0  501  502  0.00000000000E+00  0.00000000000E+00  0.41885555623E+03  0.41885555623E+03  0.00000000000E+00 0. -1.
          1   -1    0    0  502    0 -0.00000000000E+00 -0.00000000000E+00 -0.11874557056E+03  0.11874557056E+03  0.00000000000E+00 0. -1.
         23    2    1    2    0    0 -0.17235178104E+02  0.15868733956E+02 -0.40131222315E+02  0.10327303373E+03  0.92227633653E+02 0.  0.
        -24    2    1    2    0    0  0.69239269722E+02  0.78024630391E+02  0.28489589189E+03  0.31356595733E+03  0.79221341587E+02 0.  0.
         11    1    4    4    0    0  0.54059097385E+02  0.21657948961E+02  0.21372655085E+03  0.22151860261E+03  0.00000000000E+00 0. -1.
        -12    1    4    4    0    0  0.15180172337E+02  0.56366681430E+02  0.71169341036E+02  0.92047354721E+02  0.00000000000E+00 0.  1.
        -13    1    3    3    0    0 -0.24108694299E+01  0.38314026731E+02  0.15562058248E+02  0.41424082279E+02  0.00000000000E+00 0. -1.
         13    1    3    3    0    0 -0.14824308674E+02 -0.22445292776E+02 -0.55693280563E+02  0.61848951448E+02  0.00000000000E+00 0.  1.
          2    1    1    2  501    0 -0.52004091618E+02 -0.93893364347E+02  0.55345316098E+02  0.12076213574E+03  0.00000000000E+00 0. -1.
<scales pt_clust_5="13000.00000" pt_clust_6="13000.00000" pt_clust_7="13000.00000" pt_clust_8="13000.00000" pt_clust_9="104.69097"></scales>
<clustering>
<clus scale="   79.221">  5  6 -1 -1</clus>
<clus scale="   92.228">  7  8 -1 -1</clus>
<clus scale="   95.157">  2  7  1 -1</clus>
<clus scale="  104.691">  1  9  2 -1</clus>
<clus scale="  104.691">  1  5  2 -1</clus>
</clustering>
</event>
<event>
 9    1  0.6270443E-005  0.1787955E+03  0.7546771E-02  0.1202814E+00
          1   -1    0    0  502    0 -0.00000000000E+00  0.00000000000E+00  0.18238757761E+03  0.18238757761E+03  0.00000000000E+00 0. -1.
         21   -1    0    0  501  502  0.00000000000E+00 -0.00000000000E+00 -0.27310942691E+03  0.27310942691E+03  0.00000000000E+00 0.  1.
        -24    2    1    2    0    0  0.11239169154E+02  0.16793241412E+02  0.36892304544E+02  0.91921374965E+02  0.81732277348E+02 0.  0.
         23    2    1    2    0    0 -0.86306746023E+02 -0.13708134996E+03 -0.11994227599E+03  0.22157834837E+03  0.92036210149E+02 0.  0.
         13    1    3    3    0    0  0.34324456008E+02  0.39071155791E+02  0.25030920576E+02  0.57717159320E+02  0.00000000000E+00 0. -1.
        -14    1    3    3    0    0 -0.23085286855E+02 -0.22277914379E+02  0.11861383968E+02  0.34204215645E+02  0.00000000000E+00 0.  1.
        -13    1    4    4    0    0 -0.13000682217E+02 -0.10561035837E+03 -0.64523612209E+02  0.12444220371E+03  0.00000000000E+00 0.  1.
         13    1    4    4    0    0 -0.73306063806E+02 -0.31470991593E+02 -0.55418663779E+02  0.97136144651E+02  0.00000000000E+00 0. -1.
          2    1    1    2  501    0  0.75067576870E+02  0.12028810855E+03 -0.76718778471E+01  0.14199728119E+03  0.00000000000E+00 0. -1.
<scales pt_clust_5="13000.00000" pt_clust_6="13000.00000" pt_clust_7="13000.00000" pt_clust_8="13000.00000" pt_clust_9="153.28789"></scales>
<clustering>
<clus scale="   81.732">  5  6 -1 -1</clus>
<clus scale="   84.193">  1  5  2 -1</clus>
<clus scale="   92.036">  7  8 -1 -1</clus>
<clus scale="  153.288">  2  9  1 -1</clus>
<clus scale="  153.288">  2  5  1 -1</clus>
</clustering>
</event>
<event>
 9    1  0.6270443E-005  0.9275659E+02  0.7546771E-02  0.1303266E+00
          1   -1    0    0  502    0 -0.00000000000E+00  0.00000000000E+00  0.21614339006E+03  0.21614339006E+03  0.00000000000E+00 0. -1.
         21   -1    0    0  501  502  0.00000000000E+00 -0.00000000000E+00 -0.11399140339E+03  0.11399140339E+03  0.00000000000E+00 0.  1.
        -24    2    1    2    0    0 -0.11876184557E+02  0.18383020998E+02  0.16112353929E+03  0.18098858823E+03  0.79480154355E+02 0.  0.
         23    2    1    2    0    0 -0.21256377755E+02  0.71515606710E+00 -0.59840791390E+02  0.11089358925E+03  0.90907220714E+02 0.  0.
         13    1    3    3    0    0 -0.20644394924E+02 -0.10978781268E+02  0.78240131504E+01  0.24656436517E+02  0.00000000000E+00 0. -1.
        -14    1    3    3    0    0  0.87682103669E+01  0.29361802266E+02  0.15329952614E+03  0.15633215172E+03  0.00000000000E+00 0.  1.
        -11    1    4    4    0    0 -0.34600959509E+01  0.40711880827E+02 -0.52466914979E+02  0.66499674224E+02  0.00000000000E+00 0.  1.
         11    1    4    4    0    0 -0.17796281804E+02 -0.39996724760E+02 -0.73738764111E+01  0.44393915021E+02  0.00000000000E+00 0. -1.
          2    1    1    2  501    0  0.33132562312E+02 -0.19098177065E+02  0.86923876326E+00  0.38252615970E+02  0.00000000000E+00 0. -1.
<scales pt_clust_5="13000.00000" pt_clust_6="13000.00000" pt_clust_7="13000.00000" pt_clust_8="13000.00000" pt_clust_9="38.24274"></scales>
<clustering>
<clus scale="   38.243">  2  9  1 -1</clus>
<clus scale="   79.480">  5  6 -1 -1</clus>
<clus scale="   81.589">  1  5  2 -1</clus>
<clus scale="   90.907">  7  8 -1 -1</clus>
<clus scale="   38.243">  2  5  1 -1</clus>
</clustering>
</event>
<event>
 9    1  0.6270443E-005  0.9690274E+02  0.7546771E-02  0.1292856E+00
         21   -1    0    0  501  502  0.00000000000E+00  0.00000000000E+00  0.82065940260E+02  0.82065940260E+02  0.00000000000E+00 0. -1.
          1   -1    0    0  502    0 -0.00000000000E+00 -0.00000000000E+00 -0.35880180205E+03  0.35880180205E+03  0.00000000000E+00 0. -1.
         23    2    1    2    0    0 -0.16093972911E+02  0.15330283454E+02 -0.22902986489E+03  0.24753257732E+03  0.91234117895E+02 0.  0.
        -24    2    1    2    0    0  0.64330098629E+02 -0.12805251617E+02 -0.83540105833E+02  0.13319214401E+03  0.80367044768E+02 0.  0.
         11    1    4    4    0    0  0.62306017954E+02  0.14237061929E+02 -0.84630664971E+02  0.10605226664E+03  0.00000000000E+00 0. -1.
        -12    1    4    4    0    0  0.20240806748E+01 -0.27042313546E+02  0.10905591382E+01  0.27139877372E+02  0.00000000000E+00 0.  1.
        -11    1    3    3    0    0 -0.57440505849E+01  0.53711847457E+02 -0.12540513507E+03  0.13654451499E+03  0.00000000000E+00 0. -1.
         11    1    3    3    0    0 -0.10349922327E+02 -0.38381564003E+02 -0.10362472982E+03  0.11098806233E+03  0.00000000000E+00 0.  1.
          2    1    1    2  501    0 -0.48236125718E+02 -0.25250318366E+01  0.35834108931E+02  0.60143020983E+02  0.00000000000E+00 0. -1.
<scales pt_clust_5="13000.00000" pt_clust_6="13000.00000" pt_clust_7="13000.00000" pt_clust_8="13000.00000" pt_clust_9="48.30217"></scales>
<clustering>
<clus scale="   48.302">  1  9  2 -1</clus>
<clus scale="   80.367">  5  6 -1 -1</clus>
<clus scale="   86.749">  1  5  2 -1</clus>
<clus scale="   91.234">  7  8 -1 -1</clus>
<clus scale="   48.302">  1  5  2 -1</clus>
</clustering>
</event>
<event>
 9    1  0.6270443E-005  0.1033452E+03  0.7546771E-02  0.1274609E+00
          1   -1    0    0  502    0 -0.00000000000E+00  0.00000000000E+00  0.26386491119E+03  0.26386491119E+03  0.00000000000E+00 0. -1.
         21   -1    0    0  501  502  0.00000000000E+00 -0.00000000000E+00 -0.18389554626E+03  0.18389554626E+03  0.00000000000E+00 0. -1.
         23    2    1    2    0    0  0.42139682882E+01 -0.61746396939E+02  0.18291228805E+03  0.21307718173E+03  0.90081103407E+02 0.  0.
        -24    2    1    2    0    0  0.30032063722E+02 -0.54366319345E+00  0.13378604469E+02  0.98361817090E+02  0.92702964260E+02 0.  0.
         11    1    4    4    0    0 -0.32197937976E+02 -0.11184901845E+02  0.14825106479E+01  0.34117547933E+02  0.00000000000E+00 0. -1.
        -12    1    4    4    0    0  0.62230001698E+02  0.10641238651E+02  0.11896093821E+02  0.64244269157E+02  0.00000000000E+00 0.  1.
        -11    1    3    3    0    0 -0.33181824338E+02  0.89424555345E+00  0.82778326117E+02  0.89185673828E+02  0.00000000000E+00 0.  1.
         11    1    3    3    0    0  0.37395792626E+02 -0.62640642492E+02  0.10013396193E+03  0.12389150790E+03  0.00000000000E+00 0. -1.
          2    1    1    2  501    0 -0.34246032010E+02  0.62290060132E+02 -0.11632152760E+03  0.13632145863E+03  0.00000000000E+00 0. -1.
<scales pt_clust_5="13000.00000" pt_clust_6="13000.00000" pt_clust_7="13000.00000" pt_clust_8="13000.00000" pt_clust_9="71.08335"></scales>
<clustering>
<clus scale="   71.083">  2  9  1 -1</clus>
<clus scale="   90.081">  7  8 -1 -1</clus>
<clus scale="   92.703">  5  6 -1 -1</clus>
<clus scale="  101.000">  1  7  2 -1</clus>
<clus scale="   71.083">  2  5  1 -1</clus>
</clustering>
</event>
<event>
 9    1  0.6270443E-005  0.1668682E+03  0.7546771E-02  0.1202342E+00
          3   -1    0    0  502    0 -0.00000000000E+00  0.00000000000E+00  0.53999069533E+03  0.53999069533E+03  0.00000000000E+00 0. -1.
         21   -1    0    0  501  502  0.00000000000E+00 -0.00000000000E+00 -0.89330662275E+02  0.89330662275E+02  0.00000000000E+00 0. -1.
        -24    2    1    2    0    0 -0.66660144236E+02 -0.20878561456E+01  0.12380462207E+03  0.16209548383E+03  0.80619026654E+02 0.  0.
         23    2    1    2    0    0  0.30470840439E+02 -0.13728006961E+03  0.25796851519E+03  0.30760604778E+03  0.91101241344E+02 0.  0.
         11    1    3    3    0    0 -0.71616030179E+02 -0.11112841760E+02  0.51127298188E+02  0.88692455432E+02  0.00000000000E+00 0. -1.
        -12    1    3    3    0    0  0.49558859432E+01  0.90249856141E+01  0.72677323887E+02  0.73403028399E+02  0.00000000000E+00 0.  1.
        -11    1    4    4    0    0 -0.48349672975E+01 -0.11251486157E+03  0.23031831559E+03  0.25637764622E+03  0.00000000000E+00 0. -1.
         11    1    4    4    0    0  0.35305807737E+02 -0.24765208035E+02  0.27650199598E+02  0.51228401563E+02  0.00000000000E+00 0.  1.
          4    1    1    2  501    0  0.36189303797E+02  0.13936792575E+03  0.68886895788E+02  0.15961982599E+03  0.00000000000E+00 0. -1.
<scales pt_clust_5="13000.00000" pt_clust_6="13000.00000" pt_clust_7="13000.00000" pt_clust_8="13000.00000" pt_clust_9="139.80541"></scales>
<clustering>
<clus scale="   80.619">  5  6 -1 -1</clus>
<clus scale="   91.101">  7  8 -1 -1</clus>
<clus scale="  104.630">  1  5  2 -1</clus>
<clus scale="  139.805">  2  9  1 -1</clus>
<clus scale="  139.805">  2  5  1 -1</clus>
</clustering>
</event>
<event>
 9    1  0.6270443E-005  0.1679032E+03  0.7546771E-02  0.1200761E+00
         21   -1    0    0  501  502  0.00000000000E+00  0.00000000000E+00  0.95318860200E+02  0.95318860200E+02  0.00000000000E+00 0. -1.
          1   -1    0    0  502    0 -0.00000000000E+00 -0.00000000000E+00 -0.92267631099E+03  0.92267631099E+03  0.00000000000E+00 0. -1.
        -24    2    1    2    0    0  0.20983195983E+02  0.57721834800E+02 -0.26903901260E+02  0.10963782704E+03  0.86744040076E+02 0.  0.
         23    2    1    2    0    0 -0.14408144263E+03 -0.29325798590E+02 -0.10599132987E+03  0.20249808924E+03  0.90287593646E+02 0.  0.
         11    1    3    3    0    0  0.47368838631E+02  0.56661942579E+02 -0.35397575442E+02  0.81898540629E+02  0.00000000000E+00 0. -1.
        -12    1    3    3    0    0 -0.26385642648E+02  0.10598922207E+01  0.84936741820E+01  0.27739286410E+02  0.00000000000E+00 0.  1.
        -13    1    4    4    0    0 -0.95042091624E+02  0.66831842004E+01 -0.10481473707E+03  0.14164671983E+03  0.00000000000E+00 0.  1.
         13    1    4    4    0    0 -0.49039351006E+02 -0.36008982790E+02 -0.11765927954E+01  0.60851369412E+02  0.00000000000E+00 0. -1.
          2    1    1    2  501    0  0.12309824665E+03 -0.28396036210E+02 -0.69446221967E+03  0.70585925491E+03  0.00000000000E+00 0. -1.
<scales pt_clust_5="13000.00000" pt_clust_6="13000.00000" pt_clust_7="13000.00000" pt_clust_8="13000.00000" pt_clust_9="141.56152"></scales>
<clustering>
<clus scale="   86.744">  5  6 -1 -1</clus>
<clus scale="   90.288">  7  8 -1 -1</clus>
<clus scale="  106.286">  2  5  1 -1</clus>
<clus scale="  141.562">  1  9  2 -1</clus>
<clus scale="  141.562">  1  5  2 -1</clus>
</clustering>
</event>
<event>
 9    1  0.6270443E-005  0.1530074E+03  0.7546771E-02  0.1199330E+00
         21   -1    0    0  501  502  0.00000000000E+00  0.00000000000E+00  0.54312058929E+02  0.54312058929E+02  0.00000000000E+00 0.  1.
          1   -1    0    0  502    0 -0.00000000000E+00 -0.00000000000E+00 -0.81878379085E+03  0.81878379085E+03  0.00000000000E+00 0. -1.
        -24    2    1    2    0    0 -0.11825091745E+03  0.55600290555E+02 -0.61401680932E+03  0.63297694506E+03  0.81046277346E+02 0.  0.
         23    2    1    2    0    0  0.63199192692E+02 -0.52564029303E+02 -0.73422576432E+02  0.14538826745E+03  0.94814336721E+02 0.  0.
         11    1    3    3    0    0 -0.99508522914E+02  0.18207880156E+02 -0.52455319387E+03  0.53421861277E+03  0.00000000000E+00 0. -1.
        -12    1    3    3    0    0 -0.18742394531E+02  0.37392410400E+02 -0.89463615447E+02  0.98758332292E+02  0.00000000000E+00 0.  1.
        -13    1    4    4    0    0 -0.71079426740E+01  0.19066734837E+02 -0.29480089480E+02  0.35820928271E+02  0.00000000000E+00 0. -1.
         13    1    4    4    0    0  0.70307135366E+02 -0.71630764141E+02 -0.43942486952E+02  0.10956733918E+03  0.00000000000E+00 0.  1.
          2    1    1    2  501    0  0.55051724753E+02 -0.30362612521E+01 -0.77032346179E+02  0.94730637275E+02  0.00000000000E+00 0. -1.
<scales pt_clust_5="13000.00000" pt_clust_6="13000.00000" pt_clust_7="13000.00000" pt_clust_8="13000.00000" pt_clust_9="55.13539"></scales>
<clustering>
<clus scale="   55.135">  1  9  2 -1</clus>
<clus scale="   81.046">  5  6 -1 -1</clus>
<clus scale="   94.814">  7  8 -1 -1</clus>
<clus scale="  144.879">  2  5  1 -1</clus>
<clus scale="   55.135">  1  5  2 -1</clus>
</clustering>
</event>
<event>
 9    1  0.6270443E-005  0.1035522E+03  0.7546771E-02  0.1277666E+00
         21   -1    0    0  501  502  0.00000000000E+00  0.00000000000E+00  0.99699527708E+02  0.99699527708E+02  0.00000000000E+00 0.  1.
         -2   -1    0    0    0  501 -0.00000000000E+00 -0.00000000000E+00 -0.34227037887E+03  0.34227037887E+03  0.00000000000E+00 0.  1.
         23    2    1    2    0    0 -0.59045264093E+02  0.11032368019E+02 -0.16972203164E+03  0.20147211476E+03  0.90428914870E+02 0.  0.
        -24    2    1    2    0    0 -0.11162276515E+02 -0.66951452717E+02  0.24764683644E+02  0.10789146169E+03  0.80126053882E+02 0.  0.
         11    1    4    4    0    0  0.26061485382E+02 -0.44971420099E+02  0.35999568971E+02  0.63226565716E+02  0.00000000000E+00 0. -1.
        -12    1    4    4    0    0 -0.37223761897E+02 -0.21980032618E+02 -0.11234885328E+02  0.44664895970E+02  0.00000000000E+00 0.  1.
        -13    1    3    3    0    0 -0.34387273627E+02 -0.30763691613E+02 -0.13252831165E+03  0.14033047672E+03  0.00000000000E+00 0.  1.
         13    1    3    3    0    0 -0.24657990466E+02  0.41796059632E+02 -0.37193719992E+02  0.61141638034E+02  0.00000000000E+00 0. -1.
         -1    1    1    2    0  502  0.70207540609E+02  0.55919084698E+02 -0.97613503167E+02  0.13260633014E+03  0.00000000000E+00 0.  1.
<scales pt_clust_5="13000.00000" pt_clust_6="13000.00000" pt_clust_7="13000.00000" pt_clust_8="13000.00000" pt_clust_9="89.75551"></scales>
<clustering>
<clus scale="   80.126">  5  6 -1 -1</clus>
<clus scale="   89.756">  1  9  2 -1</clus>
<clus scale="   90.429">  7  8 -1 -1</clus>
<clus scale="   94.688">  1  5  2 -1</clus>
<clus scale="   89.756">  1  5  2 -1</clus>
</clustering>
</event>
<event>
 9    1  0.6270443E-005  0.9466379E+02  0.7546771E-02  0.1294444E+00
          1   -1    0    0  502    0 -0.00000000000E+00  0.00000000000E+00  0.75848192410E+02  0.75848192410E+02  0.00000000000E+00 0. -1.
         21   -1    0    0  501  502  0.00000000000E+00 -0.00000000000E+00 -0.18686795957E+03  0.18686795957E+03  0.00000000000E+00 0.  1.
        -24    2    1    2    0    0 -0.88611083578E+01 -0.29484165202E+02 -0.19465696971E+02  0.87696614885E+02  0.79774354680E+02 0.  0.
         23    2    1    2    0    0  0.16602928547E+02  0.64772302703E+02 -0.87054811237E+02  0.13861305747E+03  0.84640008904E+02 0.  0.
         11    1    3    3    0    0  0.24991410602E+02 -0.21421910411E+02 -0.36332033300E+02  0.49025355616E+02  0.00000000000E+00 0. -1.
        -12    1    3    3    0    0 -0.33852518960E+02 -0.80622547915E+01  0.16866336329E+02  0.38671259269E+02  0.00000000000E+00 0.  1.
        -11    1    4    4    0    0  0.48088032434E+02  0.29577800624E+02 -0.66161353330E+02  0.86974880441E+02  0.00000000000E+00 0.  1.
         11    1    4    4    0    0 -0.31485103887E+02  0.35194502078E+02 -0.20893457907E+02  0.51638177027E+02  0.00000000000E+00 0. -1.
          2    1    1    2  501    0 -0.77418201894E+01 -0.35288137500E+02 -0.44992589564E+01  0.36406479633E+02  0.00000000000E+00 0. -1.
<scales pt_clust_5="13000.00000" pt_clust_6="13000.00000" pt_clust_7="13000.00000" pt_clust_8="13000.00000" pt_clust_9="36.12741"></scales>
<clustering>
<clus scale="   36.127">  2  9  1 -1</clus>
<clus scale="   79.774">  5  6 -1 -1</clus>
<clus scale="   84.640">  7  8 -1 -1</clus>
<clus scale="   90.340">  1  5  2 -1</clus>
<clus scale="   36.127">  2  5  1 -1</clus>
</clustering>
</event>
<event>
 9    1  0.6270443E-005  0.1729846E+03  0.7546771E-02  0.1176045E+00
          1   -1    0    0  502    0 -0.00000000000E+00  0.00000000000E+00  0.79410158197E+03  0.79410158197E+03  0.00000000000E+00 0. -1.
         21   -1    0    0  501  502  0.00000000000E+00 -0.00000000000E+00 -0.12712192683E+03  0.12712192683E+03  0.00000000000E+00 0.  1.
        -24    2    1    2    0    0 -0.14017895633E+03  0.29661018346E+02  0.63174202034E+03  0.65282339443E+03  0.80935086577E+02 0.  0.
         23    2    1    2    0    0  0.17037087975E+03 -0.23858160681E+02  0.83114253402E+02  0.21150199485E+03  0.90717507739E+02 0.  0.
         11    1    3    3    0    0 -0.12777784680E+03  0.24557543357E+02  0.62382572515E+03  0.63725096032E+03  0.00000000000E+00 0. -1.
        -12    1    3    3    0    0 -0.12401109525E+02  0.51034749886E+01  0.79162951881E+01  0.15572434104E+02  0.00000000000E+00 0.  1.
        -13    1    4    4    0    0  0.60073669454E+02  0.22793776477E+02 -0.24801663399E+01  0.64300491700E+02  0.00000000000E+00 0. -1.
         13    1    4    4    0    0  0.11029721029E+03 -0.46651937157E+02  0.85594419742E+02  0.14720150315E+03  0.00000000000E+00 0.  1.
          2    1    1    2  501    0 -0.30191923420E+02 -0.58028576650E+01 -0.47876618602E+02  0.56898119526E+02  0.00000000000E+00 0. -1.
<scales pt_clust_5="13000.00000" pt_clust_6="13000.00000" pt_clust_7="13000.00000" pt_clust_8="13000.00000" pt_clust_9="30.74452"></scales>
<clustering>
<clus scale="   30.745">  2  9  1 -1</clus>
<clus scale="   80.935">  5  6 -1 -1</clus>
<clus scale="   90.718">  7  8 -1 -1</clus>
<clus scale="  168.061">  1  5  2 -1</clus>
<clus scale="   30.745">  2  5  1 -1</clus>
</clustering>
</event>
<event>
 9    1  0.6270443E-005  0.1307564E+03  0.7546771E-02  0.1228962E+00
         21   -1    0    0  501  502  0.00000000000E+00  0.00000000000E+00  0.23231288829E+03  0.23231288829E+03  0.00000000000E+00 0.  1.
          1   -1    0    0  502    0 -0.00000000000E+00 -0.00000000000E+00 -0.15647096364E+03  0.15647096364E+03  0.00000000000E+00 0. -1.
        -24    2    1    2    0    0  0.16942197609E+02  0.82475931270E+02 -0.78607123861E+02  0.15205041062E+03  0.99251852114E+02 0.  0.
         23    2    1    2    0    0  0.19171299145E+02 -0.91765813771E+02  0.77619155253E+02  0.15133251004E+03  0.89934932281E+02 0.  0.
         11    1    3    3    0    0 -0.25080480910E+02  0.73026050150E+02 -0.76854888450E+02  0.10894268402E+03  0.00000000000E+00 0. -1.
        -12    1    3    3    0    0  0.42022678520E+02  0.94498811199E+01 -0.17522354107E+01  0.43107726594E+02  0.00000000000E+00 0.  1.
        -11    1    4    4    0    0  0.13371706001E+02 -0.60828315901E+02 -0.54315096805E+01  0.62517100334E+02  0.00000000000E+00 0. -1.
         11    1    4    4    0    0  0.57995931438E+01 -0.30937497870E+02  0.83050664933E+02  0.88815409704E+02  0.00000000000E+00 0.  1.
          2    1    1    2  501    0 -0.36113496755E+02  0.92898825011E+01  0.76829893257E+02  0.85400931275E+02  0.00000000000E+00 0. -1.
<scales pt_clust_5="13000.00000" pt_clust_6="13000.00000" pt_clust_7="13000.00000" pt_clust_8="13000.00000" pt_clust_9="37.28923"></scales>
<clustering>
<clus scale="   37.289">  1  9  2 -1</clus>
<clus scale="   89.935">  7  8 -1 -1</clus>
<clus scale="   99.252">  5  6 -1 -1</clus>
<clus scale="  123.833">  1  7  2 -1</clus>
<clus scale="   37.289">  1  5  2 -1</clus>
</clustering>
</event>
<event>
 9    1  0.6270443E-005  0.9485118E+02  0.7546771E-02  0.1295606E+00
          1   -1    0    0  502    0 -0.00000000000E+00  0.00000000000E+00  0.97460872233E+02  0.97460872233E+02  0.00000000000E+00 0. -1.
         21   -1    0    0  501  502  0.00000000000E+00 -0.00000000000E+00 -0.24856575763E+03  0.24856575763E+03  0.00000000000E+00 0. -1.
         23    2    1    2    0    0 -0.16817549834E+02  0.11333905366E+02  0.17088461097E+02  0.94869857738E+02  0.91087798366E+02 0.  0.
        -24    2    1    2    0    0  0.51227839135E+02  0.52377441423E+02 -0.80202803681E+02  0.13720266143E+03  0.83811650224E+02 0.  0.
         11    1    4    4    0    0 -0.17612306842E+02  0.35107655092E+02 -0.19702781974E+02  0.43942467112E+02  0.00000000000E+00 0. -1.
        -12    1    4    4    0    0  0.68840145977E+02  0.17269786330E+02 -0.60500021707E+02  0.93260194320E+02  0.00000000000E+00 0.  1.
        -13    1    3    3    0    0  0.13362285657E+02  0.23196769075E+02  0.44816977835E+02  0.52203469959E+02  0.00000000000E+00 0. -1.
         13    1    3    3    0    0 -0.30179835490E+02 -0.11862863709E+02 -0.27728516738E+02  0.42666387779E+02  0.00000000000E+00 0.  1.
          2    1    1    2  501    0 -0.34410289301E+02 -0.63711346788E+02 -0.87990542810E+02  0.11395411069E+03  0.00000000000E+00 0. -1.
<scales pt_clust_5="13000.00000" pt_clust_6="13000.00000" pt_clust_7="13000.00000" pt_clust_8="13000.00000" pt_clust_9="72.40997"></scales>
<clustering>
<clus scale="   72.410">  2  9  1 -1</clus>
<clus scale="   83.812">  5  6 -1 -1</clus>
<clus scale="   87.887">  2  5  1 -1</clus>
<clus scale="   91.088">  7  8 -1 -1</clus>
<clus scale="   72.410">  2  5  1 -1</clus>
</clustering>
</event>
<event>
 9    1  0.6270443E-005  0.9523285E+02  0.7546771E-02  0.1291117E+00
         -2   -1    0    0    0  501 -0.00000000000E+00  0.00000000000E+00  0.42755801265E+03  0.42755801265E+03  0.00000000000E+00 0.  1.
         21   -1    0    0  501  502  0.00000000000E+00 -0.00000000000E+00 -0.45062997989E+02  0.45062997989E+02  0.00000000000E+00 0. -1.
        -24    2    1    2    0    0  0.16855558331E+02 -0.28124168909E+02  0.30160088392E+03  0.31623640237E+03  0.89259678914E+02 0.  0.
         23    2    1    2    0    0  0.58656925567E+01  0.30559627820E+02  0.90624712299E+02  0.13154772200E+03  0.90131390104E+02 0.  0.
         13    1    3    3    0    0  0.47973675672E+02  0.66038492004E+01  0.14935037260E+03  0.15700515335E+03  0.00000000000E+00 0. -1.
        -14    1    3    3    0    0 -0.31118117341E+02 -0.34728018110E+02  0.15225051132E+03  0.15923124902E+03  0.00000000000E+00 0.  1.
        -11    1    4    4    0    0  0.20022068429E+02  0.53411996670E+02  0.28306426505E+02  0.63678712251E+02  0.00000000000E+00 0. -1.
         11    1    4    4    0    0 -0.14156375872E+02 -0.22852368850E+02  0.62318285794E+02  0.67869009748E+02  0.00000000000E+00 0.  1.
         -1    1    1    2    0  502 -0.22721250887E+02 -0.24354589105E+01 -0.97305815586E+01  0.24836886267E+02  0.00000000000E+00 0.  1.
<scales pt_clust_5="13000.00000" pt_clust_6="13000.00000" pt_clust_7="13000.00000" pt_clust_8="13000.00000" pt_clust_9="22.85140"></scales>
<clustering>
<clus scale="   22.851">  2  9  1 -1</clus>
<clus scale="   89.260">  5  6 -1 -1</clus>
<clus scale="   90.131">  7  8 -1 -1</clus>
<clus scale="   94.408">  1  5  2 -1</clus>
<clus scale="   22.851">  2  5  1 -1</clus>
</clustering>
</event>
<event>
 9    1  0.6270443E-005  0.9399821E+02  0.7546771E-02  0.1297998E+00
          3   -1    0    0  502    0 -0.00000000000E+00  0.00000000000E+00  0.12914154341E+03  0.12914154341E+03  0.00000000000E+00 0. -1.
         21   -1    0    0  501  502  0.00000000000E+00 -0.00000000000E+00 -0.39053583824E+03  0.39053583824E+03  0.00000000000E+00 0. -1.
        -24    2    1    2    0    0  0.27973842691E+02 -0.21772712065E+02  0.64485817010E+02  0.11073382497E+03  0.82746435156E+02 0.  0.
         23    2    1    2    0    0  0.22400647000E+02  0.18449406241E+02 -0.17912176578E+02  0.96865228823E+02  0.90663426521E+02 0.  0.
         11    1    3    3    0    0  0.39155258591E+02  0.18662305477E+02  0.50365387180E+02  0.66468700505E+02  0.00000000000E+00 0. -1.
        -12    1    3    3    0    0 -0.11181415900E+02 -0.40435017542E+02  0.14120429830E+02  0.44265124463E+02  0.00000000000E+00 0.  1.
        -13    1    4    4    0    0  0.10704794151E+01  0.20503010362E+02  0.34553104861E+02  0.40192492030E+02  0.00000000000E+00 0.  1.
         13    1    4    4    0    0  0.21330167585E+02 -0.20536041213E+01 -0.52465281439E+02  0.56672736793E+02  0.00000000000E+00 0. -1.
          4    1    1    2  501    0 -0.50374489691E+02  0.33233058247E+01 -0.30796793526E+03  0.31207832787E+03  0.00000000000E+00 0. -1.
<scales pt_clust_5="13000.00000" pt_clust_6="13000.00000" pt_clust_7="13000.00000" pt_clust_8="13000.00000" pt_clust_9="50.48399"></scales>
<clustering>
<clus scale="   50.484">  2  9  1 -1</clus>
<clus scale="   82.746">  5  6 -1 -1</clus>
<clus scale="   86.387">  1  5  2 -1</clus>
<clus scale="   90.663">  7  8 -1 -1</clus>
<clus scale="   50.484">  2  5  1 -1</clus>
</clustering>
</event>
<event>
 9    1  0.6270443E-005  0.1437884E+03  0.7546771E-02  0.1228928E+00
         21   -1    0    0  501  502  0.00000000000E+00  0.00000000000E+00  0.14515164409E+03  0.14515164409E+03  0.00000000000E+00 0. -1.
          1   -1    0    0  502    0 -0.00000000000E+00 -0.00000000000E+00 -0.26641859237E+03  0.26641859237E+03  0.00000000000E+00 0. -1.
         23    2    1    2    0    0  0.20199684903E+02 -0.10616485497E+02 -0.10866706332E+03  0.14315148397E+03  0.90349763025E+02 0.  0.
        -24    2    1    2    0    0 -0.55042217455E+02 -0.10487485025E+03 -0.31034830743E+02  0.14638556876E+03  0.80232126386E+02 0.  0.
         11    1    4    4    0    0 -0.47558528208E+02 -0.11839225880E+03 -0.28435202512E+02  0.13071763955E+03  0.00000000000E+00 0. -1.
        -12    1    4    4    0    0 -0.74836892468E+01  0.13517408549E+02 -0.25996282306E+01  0.15667929205E+02  0.00000000000E+00 0.  1.
        -13    1    3    3    0    0  0.14126595598E+02 -0.41871218622E+02 -0.10123043503E+03  0.11045524265E+03  0.00000000000E+00 0. -1.
         13    1    3    3    0    0  0.60730893048E+01  0.31254733125E+02 -0.74366282882E+01  0.32696241324E+02  0.00000000000E+00 0.  1.
          2    1    1    2  501    0  0.34842532551E+02  0.11549133575E+03  0.18434945773E+02  0.12203318374E+03  0.00000000000E+00 0. -1.
<scales pt_clust_5="13000.00000" pt_clust_6="13000.00000" pt_clust_7="13000.00000" pt_clust_8="13000.00000" pt_clust_9="119.32277"></scales>
<clustering>
<clus scale="   80.232">  5  6 -1 -1</clus>
<clus scale="   90.350">  7  8 -1 -1</clus>
<clus scale="   93.187">  2  7  1 -1</clus>
<clus scale="  119.323">  1  9  2 -1</clus>
<clus scale="  119.323">  1  5  2 -1</clus>
</clustering>
</event>
<event>
 9    1  0.6270443E-005  0.1945496E+03  0.7546771E-02  0.1155513E+00
         21   -1    0    0  501  502  0.00000000000E+00  0.00000000000E+00  0.11932900626E+04  0.11932900626E+04  0.00000000000E+00 0.  1.
          1   -1    0    0  502    0 -0.00000000000E+00 -0.00000000000E+00 -0.58657136237E+02  0.58657136237E+02  0.00000000000E+00 0. -1.
        -24    2    1    2    0    0 -0.38704082809E+02  0.14381779290E+03  0.36952847995E+03  0.40618399372E+03  0.79073229830E+02 0.  0.
         23    2    1    2    0    0 -0.44787225040E+02 -0.21796622058E+03  0.60174050596E+03  0.64788302709E+03  0.90253041160E+02 0.  0.
         13    1    3    3    0    0 -0.17132160922E+02  0.11043791285E+02  0.10806327687E+02  0.23070608615E+02  0.00000000000E+00 0. -1.
        -14    1    3    3    0    0 -0.21571921888E+02  0.13277400161E+03  0.35872215227E+03  0.38311338510E+03  0.00000000000E+00 0.  1.
        -13    1    4    4    0    0 -0.31173544832E+02 -0.68578468856E+02  0.31944342784E+03  0.32820557563E+03  0.00000000000E+00 0.  1.
         13    1    4    4    0    0 -0.13613680208E+02 -0.14938775173E+03  0.28229707812E+03  0.31967745146E+03  0.00000000000E+00 0. -1.
          2    1    1    2  501    0  0.83491307849E+02  0.74148427681E+02  0.16336394040E+03  0.19788017798E+03  0.00000000000E+00 0. -1.
<scales pt_clust_5="13000.00000" pt_clust_6="13000.00000" pt_clust_7="13000.00000" pt_clust_8="13000.00000" pt_clust_9="111.66378"></scales>
<clustering>
<clus scale="   79.073">  5  6 -1 -1</clus>
<clus scale="   90.253">  7  8 -1 -1</clus>
<clus scale="  111.664">  1  9  2 -1</clus>
<clus scale="  189.622">  2  5  1 -1</clus>
<clus scale="  111.664">  1  5  2 -1</clus>
</clustering>
</event>
<event>
 9    1  0.6270443E-005  0.1025359E+03  0.7546771E-02  0.1280100E+00
         21   -1    0    0  501  502  0.00000000000E+00  0.00000000000E+00  0.41464525720E+02  0.41464525720E+02  0.00000000000E+00 0.  1.
         -2   -1    0    0    0  501 -0.00000000000E+00 -0.00000000000E+00 -0.75032330534E+03  0.75032330534E+03  0.00000000000E+00 0.  1.
        -24    2    1    2    0    0  0.50150211818E+02 -0.38438640841E+02 -0.54924981297E+03  0.55869936261E+03  0.80480108554E+02 0.  0.
         23    2    1    2    0    0  0.11396281777E+02 -0.47038175024E+01 -0.10804161312E+03  0.14193785388E+03  0.91221505487E+02 0.  0.
         13    1    3    3    0    0 -0.16357210160E+02 -0.27805937554E+02 -0.12295396825E+03  0.12711572207E+03  0.00000000000E+00 0. -1.
        -14    1    3    3    0    0  0.66507421978E+02 -0.10632703287E+02 -0.42629584472E+03  0.43158364054E+03  0.00000000000E+00 0.  1.
        -11    1    4    4    0    0  0.48396546041E+02 -0.19456941242E+02 -0.58786913526E+02  0.78591980717E+02  0.00000000000E+00 0.  1.
         11    1    4    4    0    0 -0.37000264263E+02  0.14753123740E+02 -0.49254699590E+02  0.63345873167E+02  0.00000000000E+00 0. -1.
         -1    1    1    2    0  502 -0.61546493596E+02  0.43142458344E+02 -0.51567353532E+02  0.91150614568E+02  0.00000000000E+00 0.  1.
<scales pt_clust_5="13000.00000" pt_clust_6="13000.00000" pt_clust_7="13000.00000" pt_clust_8="13000.00000" pt_clust_9="75.16144"></scales>
<clustering>
<clus scale="   75.161">  1  9  2 -1</clus>
<clus scale="   80.480">  5  6 -1 -1</clus>
<clus scale="   91.222">  7  8 -1 -1</clus>
<clus scale="   93.109">  2  5  1 -1</clus>
<clus scale="   75.161">  1  5  2 -1</clus>
</clustering>
</event>
<event>
 9    1  0.6270443E-005  0.1078389E+03  0.7546771E-02  0.1268764E+00
         21   -1    0    0  501  502  0.00000000000E+00  0.00000000000E+00  0.24328088678E+03  0.24328088678E+03  0.00000000000E+00 0. -1.
          1   -1    0    0  502    0 -0.00000000000E+00 -0.00000000000E+00 -0.10535197012E+03  0.10535197012E+03  0.00000000000E+00 0. -1.
         23    2    1    2    0    0  0.20052079197E+02  0.65105893964E+02 -0.51462188839E+01  0.11348753483E+03  0.90620492623E+02 0.  0.
        -24    2    1    2    0    0  0.50076535351E+02 -0.41563342201E+02  0.11813289996E+03  0.15707875152E+03  0.80518204880E+02 0.  0.
         11    1    4    4    0    0  0.56100198458E+02 -0.58085390767E+02  0.73843932577E+02  0.10942609957E+03  0.00000000000E+00 0. -1.
        -12    1    4    4    0    0 -0.60236631077E+01  0.16522048566E+02  0.44288967384E+02  0.47652651951E+02  0.00000000000E+00 0.  1.
        -13    1    3    3    0    0  0.15403116113E+02 -0.20088365771E+02 -0.11756547251E+02  0.27910837118E+02  0.00000000000E+00 0.  1.
         13    1    3    3    0    0  0.46489630843E+01  0.85194259736E+02  0.66103283670E+01  0.85576697709E+02  0.00000000000E+00 0. -1.
          2    1    1    2  501    0 -0.70128614548E+02 -0.23542551763E+02  0.24942235580E+02  0.78066570551E+02  0.00000000000E+00 0. -1.
<scales pt_clust_5="13000.00000" pt_clust_6="13000.00000" pt_clust_7="13000.00000" pt_clust_8="13000.00000" pt_clust_9="73.97486"></scales>
<clustering>
<clus scale="   73.975">  1  9  2 -1</clus>
<clus scale="   80.518">  5  6 -1 -1</clus>
<clus scale="   90.620">  7  8 -1 -1</clus>
<clus scale="   99.500">  1  5  2 -1</clus>
<clus scale="   73.975">  1  5  2 -1</clus>
</clustering>
</event>
<event>
 9    1  0.6270443E-005  0.1040863E+03  0.7546771E-02  0.1277181E+00
         21   -1    0    0  501  502  0.00000000000E+00  0.00000000000E+00  0.41496054673E+03  0.41496054673E+03  0.00000000000E+00 0. -1.
          1   -1    0    0  502    0 -0.00000000000E+00 -0.00000000000E+00 -0.42322899282E+02  0.42322899282E+02  0.00000000000E+00 0. -1.
        -24    2    1    2    0    0 -0.16094145777E+02  0.41890396910E+02  0.63606892315E+02  0.11243682261E+03  0.81131839911E+02 0.  0.
         23    2    1    2    0    0 -0.11386920377E+02 -0.62252700649E+02  0.27324478110E+03  0.29534441792E+03  0.92523262495E+02 0.  0.
         13    1    3    3    0    0 -0.24515841554E+02  0.11016411049E+02  0.74047719552E+02  0.78774694987E+02  0.00000000000E+00 0. -1.
        -14    1    3    3    0    0  0.84216957771E+01  0.30873985862E+02 -0.10440827237E+02  0.33662127624E+02  0.00000000000E+00 0.  1.
        -11    1    4    4    0    0 -0.29828201817E+02 -0.20560964696E+02  0.27702474005E+02  0.45605942145E+02  0.00000000000E+00 0. -1.
         11    1    4    4    0    0  0.18441281440E+02 -0.41691735953E+02  0.24554230709E+03  0.24973847577E+03  0.00000000000E+00 0.  1.
          2    1    1    2  501    0  0.27481066154E+02  0.20362303739E+02  0.35785974039E+02  0.49502205491E+02  0.00000000000E+00 0. -1.
<scales pt_clust_5="13000.00000" pt_clust_6="13000.00000" pt_clust_7="13000.00000" pt_clust_8="13000.00000" pt_clust_9="34.20283"></scales>
<clustering>
<clus scale="   34.203">  1  9  2 -1</clus>
<clus scale="   81.132">  5  6 -1 -1</clus>
<clus scale="   92.523">  7  8 -1 -1</clus>
<clus scale="   94.105">  2  5  1 -1</clus>
<clus scale="   34.203">  1  5  2 -1</clus>
</clustering>
</event>
<event>
 9    1  0.6270443E-005  0.9452027E+02  0.7546771E-02  0.1292484E+00
         21   -1    0    0  501  502  0.00000000000E+00  0.00000000000E+00  0.23742848130E+03  0.23742848130E+03  0.00000000000E+00 0. -1.
         -2   -1    0    0    0  501 -0.00000000000E+00 -0.00000000000E+00 -0.11255432957E+03  0.11255432957E+03  0.00000000000E+00 0.  1.
         23    2    1    2    0    0 -0.96618599479E+01 -0.13758483151E+02 -0.64104755315E+02  0.11411137054E+03  0.92894229291E+02 0.  0.
        -24    2    1    2    0    0  0.40869498178E+02 -0.10435393680E+02  0.13560258446E+03  0.16947646935E+03  0.92493239911E+02 0.  0.
         13    1    4    4    0    0  0.31439532245E+02 -0.48221333851E+02  0.10576355090E+03  0.12041457522E+03  0.00000000000E+00 0. -1.
        -14    1    4    4    0    0  0.94299659331E+01  0.37785940171E+02  0.29839033559E+02  0.49061894132E+02  0.00000000000E+00 0.  1.
        -13    1    3    3    0    0 -0.45636194867E+02 -0.25246854901E+02 -0.53879962718E+02  0.74987441261E+02  0.00000000000E+00 0.  1.
         13    1    3    3    0    0  0.35974334919E+02  0.11488371750E+02 -0.10224792597E+02  0.39123929276E+02  0.00000000000E+00 0. -1.
         -1    1    1    2    0  502 -0.31207638230E+02  0.24193876831E+02  0.53376322577E+02  0.66394970983E+02  0.00000000000E+00 0.  1.
<scales pt_clust_5="13000.00000" pt_clust_6="13000.00000" pt_clust_7="13000.00000" pt_clust_8="13000.00000" pt_clust_9="39.48747"></scales>
<clustering>
<clus scale="   39.487">  1  9  2 -1</clus>
<clus scale="   92.493">  5  6 -1 -1</clus>
<clus scale="   92.894">  7  8 -1 -1</clus>
<clus scale="   94.126">  1  5  2 -1</clus>
<clus scale="   39.487">  1  5  2 -1</clus>
</clustering>
</event>
<event>
 9    1  0.6270443E-005  0.1185468E+03  0.7546771E-02  0.1248981E+00
         21   -1    0    0  501  502  0.00000000000E+00  0.00000000000E+00  0.13746765661E+03  0.13746765661E+03  0.00000000000E+00 0. -1.
         -4   -1    0    0    0  501 -0.00000000000E+00 -0.00000000000E+00 -0.32303792408E+03  0.32303792408E+03  0.00000000000E+00 0.  1.
        -24    2    1    2    0    0  0.28496918112E+02 -0.72711771958E+02 -0.26401663411E+03  0.28628225145E+03  0.78445320343E+02 0.  0.
         23    2    1    2    0    0  0.60006187593E+00  0.81867614677E+02  0.45779103571E+02  0.12952865644E+03  0.89326816290E+02 0.  0.
         11    1    3    3    0    0 -0.22741638572E+02 -0.35018013903E+02 -0.64188963320E+02  0.76574580865E+02  0.00000000000E+00 0. -1.
        -12    1    3    3    0    0  0.51238556684E+02 -0.37693758056E+02 -0.19982767079E+03  0.20970767058E+03  0.00000000000E+00 0.  1.
        -11    1    4    4    0    0 -0.20713369242E+02 -0.38156405281E+01 -0.11777452695E+02  0.24131124507E+02  0.00000000000E+00 0.  1.
         11    1    4    4    0    0  0.21313431118E+02  0.85683255205E+02  0.57556556266E+02  0.10539753193E+03  0.00000000000E+00 0. -1.
         -3    1    1    2    0  502 -0.29096979987E+02 -0.91558427185E+01  0.32667263067E+02  0.44694672798E+02  0.00000000000E+00 0.  1.
<scales pt_clust_5="13000.00000" pt_clust_6="13000.00000" pt_clust_7="13000.00000" pt_clust_8="13000.00000" pt_clust_9="30.50350"></scales>
<clustering>
<clus scale="   30.504">  1  9  2 -1</clus>
<clus scale="   78.445">  5  6 -1 -1</clus>
<clus scale="   89.327">  7  8 -1 -1</clus>
<clus scale="  110.579">  2  5  1 -1</clus>
<clus scale="   30.504">  1  5  2 -1</clus>
</clustering>
</event>
<event>
 9    1  0.6270443E-005  0.1253681E+03  0.7546771E-02  0.1236862E+00
         21   -1    0    0  501  502  0.00000000000E+00  0.00000000000E+00  0.70800915923E+03  0.70800915923E+03  0.00000000000E+00 0. -1.
          1   -1    0    0  502    0 -0.00000000000E+00 -0.00000000000E+00 -0.30474929978E+02  0.30474929978E+02  0.00000000000E+00 0. -1.
        -24    2    1    2    0    0  0.53203612656E+02 -0.55211662168E+02  0.21373755169E+03  0.24094768679E+03  0.80579741429E+02 0.  0.
         23    2    1    2    0    0 -0.91502506970E+02  0.59944168497E+02  0.37733420657E+03  0.40285292544E+03  0.89125551729E+02 0.  0.
         13    1    3    3    0    0  0.27565188588E+02 -0.73335877083E+02  0.13357594639E+03  0.15485646239E+03  0.00000000000E+00 0. -1.
        -14    1    3    3    0    0  0.25638424068E+02  0.18124214915E+02  0.80161605299E+02  0.86091224403E+02  0.00000000000E+00 0.  1.
        -13    1    4    4    0    0 -0.79507165284E+02 -0.42465320355E+00  0.21762020991E+03  0.23168971799E+03  0.00000000000E+00 0. -1.
         13    1    4    4    0    0 -0.11995341686E+02  0.60368821701E+02  0.15971399666E+03  0.17116320745E+03  0.00000000000E+00 0.  1.
          2    1    1    2  501    0  0.38298894314E+02 -0.47325063288E+01  0.86462470996E+02  0.94683476978E+02  0.00000000000E+00 0. -1.
<scales pt_clust_5="13000.00000" pt_clust_6="13000.00000" pt_clust_7="13000.00000" pt_clust_8="13000.00000" pt_clust_9="38.59020"></scales>
<clustering>
<clus scale="   38.590">  1  9  2 -1</clus>
<clus scale="   80.580">  5  6 -1 -1</clus>
<clus scale="   89.126">  7  8 -1 -1</clus>
<clus scale="  119.444">  2  5  1 -1</clus>
<clus scale="   38.590">  1  5  2 -1</clus>
</clustering>
</event>
<event>
 9    1  0.6270443E-005  0.1127035E+03  0.7546771E-02  0.1259818E+00
         21   -1    0    0  501  502  0.00000000000E+00  0.00000000000E+00  0.12178441773E+03  0.12178441773E+03  0.00000000000E+00 0. -1.
          1   -1    0    0  502    0 -0.00000000000E+00 -0.00000000000E+00 -0.13825562239E+03  0.13825562239E+03  0.00000000000E+00 0. -1.
         23    2    1    2    0    0  0.16066569631E+02 -0.74127448208E+02 -0.42418511628E+02  0.12516774402E+03  0.90081189912E+02 0.  0.
        -24    2    1    2    0    0 -0.30558402667E+02  0.51328055331E+02  0.20208772974E+01  0.98784908039E+02  0.78651057677E+02 0.  0.
         13    1    4    4    0    0 -0.36448567891E+02  0.67315275847E+02  0.14181931055E+02  0.77852242306E+02  0.00000000000E+00 0. -1.
        -14    1    4    4    0    0  0.58901652240E+01 -0.15987220516E+02 -0.12161053757E+02  0.20932665733E+02  0.00000000000E+00 0.  1.
        -13    1    3    3    0    0  0.18022938939E+02 -0.19978360350E+02 -0.61973698090E+02  0.67562567042E+02  0.00000000000E+00 0.  1.
         13    1    3    3    0    0 -0.19563693087E+01 -0.54149087858E+02  0.19555186462E+02  0.57605176975E+02  0.00000000000E+00 0. -1.
          2    1    1    2  501    0  0.14491833036E+02  0.22799392877E+02  0.23926429667E+02  0.36087388059E+02  0.00000000000E+00 0. -1.
<scales pt_clust_5="13000.00000" pt_clust_6="13000.00000" pt_clust_7="13000.00000" pt_clust_8="13000.00000" pt_clust_9="27.01528"></scales>
<clustering>
<clus scale="   27.015">  1  9  2 -1</clus>
<clus scale="   78.651">  5  6 -1 -1</clus>
<clus scale="   90.081">  7  8 -1 -1</clus>
<clus scale="  103.795">  1  5  2 -1</clus>
<clus scale="   27.015">  1  5  2 -1</clus>
</clustering>
</event>
<event>
 9    1  0.6270443E-005  0.1549933E+03  0.7546771E-02  0.1197488E+00
         21   -1    0    0  501  502  0.00000000000E+00  0.00000000000E+00  0.99151394450E+03  0.99151394450E+03  0.00000000000E+00 0. -1.
          1   -1    0    0  502    0 -0.00000000000E+00 -0.00000000000E+00 -0.78613447487E+02  0.78613447487E+02  0.00000000000E+00 0. -1.
        -24    2    1    2    0    0 -0.92743318114E+02  0.32966891878E+02  0.75840515731E+02  0.14872073370E+03  0.81718625732E+02 0.  0.
         23    2    1    2    0    0  0.17056265802E+03 -0.86951063833E+01  0.20580262422E+03  0.28490778156E+03  0.98236951654E+02 0.  0.
         13    1    3    3    0    0 -0.56332588041E+02  0.40988418470E+02  0.64706526791E+01  0.69966279522E+02  0.00000000000E+00 0. -1.
        -14    1    3    3    0    0 -0.36410730074E+02 -0.80215265920E+01  0.69369863052E+02  0.78754454180E+02  0.00000000000E+00 0.  1.
        -13    1    4    4    0    0  0.59480318532E+02 -0.46025930873E+02  0.51506365469E+02  0.91154814953E+02  0.00000000000E+00 0.  1.
         13    1    4    4    0    0  0.11108233948E+03  0.37330824489E+02  0.15429625875E+03  0.19375296660E+03  0.00000000000E+00 0. -1.
          2    1    1    2  501    0 -0.77819339902E+02 -0.24271785495E+02  0.63125735706E+03  0.63649887673E+03  0.00000000000E+00 0. -1.
<scales pt_clust_5="13000.00000" pt_clust_6="13000.00000" pt_clust_7="13000.00000" pt_clust_8="13000.00000" pt_clust_9="81.51668"></scales>
<clustering>
<clus scale="   81.517">  1  9  2 -1</clus>
<clus scale="   81.719">  5  6 -1 -1</clus>
<clus scale="   98.237">  7  8 -1 -1</clus>
<clus scale="  145.087">  2  5  1 -1</clus>
<clus scale="   81.517">  1  5  2 -1</clus>
</clustering>
</event>
<event>
 9    1  0.6270443E-005  0.2589834E+03  0.7546771E-02  0.1108311E+00
          1   -1    0    0  502    0 -0.00000000000E+00  0.00000000000E+00  0.17526136004E+04  0.17526136004E+04  0.00000000000E+00 0. -1.
         21   -1    0    0  501  502  0.00000000000E+00 -0.00000000000E+00 -0.12513321737E+03  0.12513321737E+03  0.00000000000E+00 0. -1.
        -24    2    1    2    0    0  0.83217366859E+02 -0.22769423705E+03  0.73560607594E+03  0.77865953242E+03  0.80153432476E+02 0.  0.
         23    2    1    2    0    0 -0.25552043576E+03  0.14973352727E+03  0.17120010644E+03  0.35401177019E+03  0.91126476463E+02 0.  0.
         11    1    3    3    0    0  0.74948976820E+02 -0.14526117772E+03  0.38244888054E+03  0.41591502150E+03  0.00000000000E+00 0. -1.
        -12    1    3    3    0    0  0.82683900395E+01 -0.82433059329E+02  0.35315719540E+03  0.36274451092E+03  0.00000000000E+00 0.  1.
        -11    1    4    4    0    0 -0.21144402418E+03  0.15637915216E+03  0.13022192614E+03  0.29346339574E+03  0.00000000000E+00 0. -1.
         11    1    4    4    0    0 -0.44076411579E+02 -0.66456248974E+01  0.40978180304E+02  0.60548374454E+02  0.00000000000E+00 0.  1.
          2    1    1    2  501    0  0.17230306890E+03  0.77960709781E+02  0.72067420062E+03  0.74507551514E+03  0.00000000000E+00 0. -1.
<scales pt_clust_5="13000.00000" pt_clust_6="13000.00000" pt_clust_7="13000.00000" pt_clust_8="13000.00000" pt_clust_9="189.11969"></scales>
<clustering>
<clus scale="   80.153">  5  6 -1 -1</clus>
<clus scale="   91.126">  7  8 -1 -1</clus>
<clus scale="  189.120">  2  9  1 -1</clus>
<clus scale="  255.329">  1  5  2 -1</clus>
<clus scale="  189.120">  2  5  1 -1</clus>
</clustering>
</event>
<event>
 9    1  0.6270443E-005  0.9245036E+02  0.7546771E-02  0.1306192E+00
         21   -1    0    0  501  502  0.00000000000E+00  0.00000000000E+00  0.43180435363E+03  0.43180435363E+03  0.00000000000E+00 0. -1.
          3   -1    0    0  502    0 -0.00000000000E+00 -0.00000000000E+00 -0.61700576305E+02  0.61700576305E+02  0.00000000000E+00 0. -1.
        -24    2    1    2    0    0 -0.23670923759E+02 -0.14686857066E+02  0.13747186179E+02  0.82561280832E+02  0.76494206073E+02 0.  0.
         23    2    1    2    0    0  0.11207703688E+01 -0.27824489870E+02  0.64243837601E+02  0.11489367896E+03  0.91092416989E+02 0.  0.
         11    1    3    3    0    0 -0.12232930920E+02 -0.36188762996E+02 -0.18261112565E+02  0.42340753396E+02  0.00000000000E+00 0. -1.
        -12    1    3    3    0    0 -0.11437992839E+02  0.21501905930E+02  0.32008298744E+02  0.40220527436E+02  0.00000000000E+00 0.  1.
        -13    1    4    4    0    0 -0.36631132197E+02  0.95558622036E+01  0.43989686369E+02  0.58036599274E+02  0.00000000000E+00 0.  1.
         13    1    4    4    0    0  0.37751902565E+02 -0.37380352074E+02  0.20254151232E+02  0.56857079688E+02  0.00000000000E+00 0. -1.
          4    1    1    2  501    0  0.22550153390E+02  0.42511346937E+02  0.29211275355E+03  0.29604997014E+03  0.00000000000E+00 0. -1.
<scales pt_clust_5="13000.00000" pt_clust_6="13000.00000" pt_clust_7="13000.00000" pt_clust_8="13000.00000" pt_clust_9="48.12197"></scales>
<clustering>
<clus scale="   48.122">  1  9  2 -1</clus>
<clus scale="   76.494">  5  6 -1 -1</clus>
<clus scale="   78.106">  2  5  1 -1</clus>
<clus scale="   91.092">  7  8 -1 -1</clus>
<clus scale="   48.122">  1  5  2 -1</clus>
</clustering>
</event>
<event>
 9    1  0.6270443E-005  0.1209469E+03  0.7546771E-02  0.1244329E+00
         -2   -1    0    0    0  501 -0.00000000000E+00  0.00000000000E+00  0.52237302148E+02  0.52237302148E+02  0.00000000000E+00 0.  1.
         21   -1    0    0  501  502  0.00000000000E+00 -0.00000000000E+00 -0.48131371065E+03  0.48131371065E+03  0.00000000000E+00 0.  1.
        -24    2    1    2    0    0  0.60246855783E+02 -0.32343201951E+02 -0.73555611706E+02  0.12880627706E+03  0.80652728734E+02 0.  0.
         23    2    1    2    0    0 -0.10262107708E+03  0.51898206520E+02 -0.25196513710E+03  0.29115887619E+03  0.89791712134E+02 0.  0.
         11    1    3    3    0    0  0.28339147671E+02  0.20975667751E+02 -0.52418355818E+02  0.63172541147E+02  0.00000000000E+00 0. -1.
        -12    1    3    3    0    0  0.31907708112E+02 -0.53318869702E+02 -0.21137255888E+02  0.65633735912E+02  0.00000000000E+00 0.  1.
        -13    1    4    4    0    0 -0.78349486096E+02  0.91798640770E+01 -0.21689293753E+03  0.23079310698E+03  0.00000000000E+00 0.  1.
         13    1    4    4    0    0 -0.24271590988E+02  0.42718342443E+02 -0.35072199566E+02  0.60365769213E+02  0.00000000000E+00 0. -1.
         -1    1    1    2    0  502  0.42374221301E+02 -0.19555004570E+02 -0.10355565970E+03  0.11358585955E+03  0.00000000000E+00 0.  1.
<scales pt_clust_5="13000.00000" pt_clust_6="13000.00000" pt_clust_7="13000.00000" pt_clust_8="13000.00000" pt_clust_9="46.66876"></scales>
<clustering>
<clus scale="   46.669">  2  9  1 -1</clus>
<clus scale="   80.653">  5  6 -1 -1</clus>
<clus scale="   89.792">  7  8 -1 -1</clus>
<clus scale="  114.326">  1  5  2 -1</clus>
<clus scale="   46.669">  2  5  1 -1</clus>
</clustering>
</event>
<event>
 9    1  0.6270443E-005  0.1965060E+03  0.7546771E-02  0.1153650E+00
         21   -1    0    0  501  502  0.00000000000E+00  0.00000000000E+00  0.32327836817E+03  0.32327836817E+03  0.00000000000E+00 0.  1.
          3   -1    0    0  502    0 -0.00000000000E+00 -0.00000000000E+00 -0.24249954812E+03  0.24249954812E+03  0.00000000000E+00 0. -1.
        -24    2    1    2    0    0 -0.14110075336E+03 -0.11739412704E+03 -0.10642440920E+03  0.22662253667E+03  0.79629238267E+02 0.  0.
         23    2    1    2    0    0  0.13894558224E+03  0.79940261074E+02  0.40811848729E+02  0.18803333250E+03  0.89412566056E+02 0.  0.
         13    1    3    3    0    0 -0.68134122277E+02 -0.81066000402E+01 -0.33949234232E+02  0.76554072966E+02  0.00000000000E+00 0. -1.
        -14    1    3    3    0    0 -0.72966631088E+02 -0.10928752700E+03 -0.72475174965E+02  0.15006846370E+03  0.00000000000E+00 0.  1.
        -11    1    4    4    0    0  0.11126379548E+03  0.90443615921E+02  0.76684449993E+01  0.14359138169E+03  0.00000000000E+00 0. -1.
         11    1    4    4    0    0  0.27681786762E+02 -0.10503354847E+02  0.33143403730E+02  0.44441950814E+02  0.00000000000E+00 0.  1.
          4    1    1    2  501    0  0.21551711219E+01  0.37453865970E+02  0.14639138051E+03  0.15112204713E+03  0.00000000000E+00 0. -1.
<scales pt_clust_5="13000.00000" pt_clust_6="13000.00000" pt_clust_7="13000.00000" pt_clust_8="13000.00000" pt_clust_9="37.51582"></scales>
<clustering>
<clus scale="   37.516">  1  9  2 -1</clus>
<clus scale="   79.629">  5  6 -1 -1</clus>
<clus scale="   89.413">  7  8 -1 -1</clus>
<clus scale="  192.252">  2  5  1 -1</clus>
<clus scale="   37.516">  1  5  2 -1</clus>
</clustering>
</event>
<event>
 9    1  0.6270443E-005  0.8206766E+02  0.7546771E-02  0.1329165E+00
         21   -1    0    0  501  502  0.00000000000E+00  0.00000000000E+00  0.26387604026E+03  0.26387604026E+03  0.00000000000E+00 0. -1.
          1   -1    0    0  502    0 -0.00000000000E+00 -0.00000000000E+00 -0.76761473032E+02  0.76761473032E+02  0.00000000000E+00 0. -1.
        -24    2    1    2    0    0 -0.30006015398E+02 -0.47841371885E+00 -0.14329029727E+02  0.87508611169E+02  0.80943474697E+02 0.  0.
         23    2    1    2    0    0 -0.19158587511E+02 -0.14188694564E+02  0.45636003431E+02  0.89091441632E+02  0.72706737199E+02 0.  0.
         13    1    3    3    0    0 -0.46977466824E+02  0.10910931454E+02 -0.34105088325E+02  0.59068501454E+02  0.00000000000E+00 0. -1.
        -14    1    3    3    0    0  0.16971451426E+02 -0.11389345172E+02  0.19776058598E+02  0.28440109715E+02  0.00000000000E+00 0.  1.
        -13    1    4    4    0    0 -0.28091733240E+02 -0.38920709750E+02  0.39317661006E+02  0.62047123953E+02  0.00000000000E+00 0.  1.
         13    1    4    4    0    0  0.89331457290E+01  0.24732015186E+02  0.63183424250E+01  0.27044317680E+02  0.00000000000E+00 0. -1.
          2    1    1    2  501    0  0.49164602909E+02  0.14667108283E+02  0.15580759353E+03  0.16403746049E+03  0.00000000000E+00 0. -1.
<scales pt_clust_5="13000.00000" pt_clust_6="13000.00000" pt_clust_7="13000.00000" pt_clust_8="13000.00000" pt_clust_9="51.30577"></scales>
<clustering>
<clus scale="   51.306">  1  9  2 -1</clus>
<clus scale="   72.707">  7  8 -1 -1</clus>
<clus scale="   73.956">  1  7  2 -1</clus>
<clus scale="   80.943">  5  6 -1 -1</clus>
<clus scale="   51.306">  1  5  2 -1</clus>
</clustering>
</event>
<event>
 9    1  0.6270443E-005  0.1176658E+03  0.7546771E-02  0.1248934E+00
         -4   -1    0    0    0  501 -0.00000000000E+00  0.00000000000E+00  0.73453229416E+02  0.73453229416E+02  0.00000000000E+00 0.  1.
         21   -1    0    0  501  502  0.00000000000E+00 -0.00000000000E+00 -0.39604429197E+03  0.39604429197E+03  0.00000000000E+00 0. -1.
        -24    2    1    2    0    0  0.72504305963E+02 -0.50224443850E+02 -0.74444318431E+02  0.14387610676E+03  0.85901154853E+02 0.  0.
         23    2    1    2    0    0  0.10045952593E+02  0.80632751561E+02 -0.13542889232E+03  0.18263706415E+03  0.91721047424E+02 0.  0.
         13    1    3    3    0    0  0.54369634917E+02  0.24530826898E+01 -0.47221318469E+01  0.54629418310E+02  0.00000000000E+00 0. -1.
        -14    1    3    3    0    0  0.18134671046E+02 -0.52677526540E+02 -0.69722186585E+02  0.89246688445E+02  0.00000000000E+00 0.  1.
        -11    1    4    4    0    0 -0.25782670996E+02  0.46099527691E+02 -0.19195285576E+02  0.56199391147E+02  0.00000000000E+00 0.  1.
         11    1    4    4    0    0  0.35828623588E+02  0.34533223870E+02 -0.11623360674E+03  0.12643767301E+03  0.00000000000E+00 0. -1.
         -3    1    1    2    0  502 -0.82550258556E+02 -0.30408307711E+02 -0.11271785180E+03  0.14298435047E+03  0.00000000000E+00 0.  1.
<scales pt_clust_5="13000.00000" pt_clust_6="13000.00000" pt_clust_7="13000.00000" pt_clust_8="13000.00000" pt_clust_9="87.97278"></scales>
<clustering>
<clus scale="   85.901">  5  6 -1 -1</clus>
<clus scale="   87.973">  2  9  1 -1</clus>
<clus scale="   91.721">  7  8 -1 -1</clus>
<clus scale="  113.188">  1  5  2 -1</clus>
<clus scale="   87.973">  2  5  1 -1</clus>
</clustering>
</event>
<event>
 9    1  0.6270443E-005  0.1418000E+03  0.7546771E-02  0.1213218E+00
          1   -1    0    0  502    0 -0.00000000000E+00  0.00000000000E+00  0.37193629142E+03  0.37193629142E+03  0.00000000000E+00 0. -1.
         21   -1    0    0  501  502  0.00000000000E+00 -0.00000000000E+00 -0.10244462182E+03  0.10244462182E+03  0.00000000000E+00 0. -1.
        -24    2    1    2    0    0 -0.10588573361E+03  0.13193204998E+02  0.23677467657E+03  0.27193161552E+03  0.80614557074E+02 0.  0.
         23    2    1    2    0    0  0.11188908330E+03 -0.37071143164E+02 -0.13784633034E+02  0.14983183518E+03  0.91466529983E+02 0.  0.
         11    1    3    3    0    0 -0.96225251047E+02  0.88790317302E+01  0.11725085841E+03  0.15194044867E+03  0.00000000000E+00 0. -1.
        -12    1    3    3    0    0 -0.96604825655E+01  0.43141732679E+01  0.11952381816E+03  0.11999116685E+03  0.00000000000E+00 0.  1.
        -13    1    4    4    0    0  0.32204425142E+02  0.23953987719E+02  0.18780914476E+02  0.44312992168E+02  0.00000000000E+00 0.  1.
         13    1    4    4    0    0  0.79684658162E+02 -0.61025130883E+02 -0.32565547510E+02  0.10551884301E+03  0.00000000000E+00 0. -1.
          2    1    1    2  501    0 -0.60033496907E+01  0.23877938166E+02  0.46501626062E+02  0.52617462547E+02  0.00000000000E+00 0. -1.
<scales pt_clust_5="13000.00000" pt_clust_6="13000.00000" pt_clust_7="13000.00000" pt_clust_8="13000.00000" pt_clust_9="24.62106"></scales>
<clustering>
<clus scale="   24.621">  2  9  1 -1</clus>
<clus scale="   80.615">  5  6 -1 -1</clus>
<clus scale="   91.467">  7  8 -1 -1</clus>
<clus scale="  135.055">  1  5  2 -1</clus>
<clus scale="   24.621">  2  5  1 -1</clus>
</clustering>
</event>
<event>
 9    1  0.6270443E-005  0.3690027E+03  0.7546771E-02  0.1097934E+00
         21   -1    0    0  501  502  0.00000000000E+00  0.00000000000E+00  0.41923144920E+03  0.41923144920E+03  0.00000000000E+00 0. -1.
          1   -1    0    0  502    0 -0.00000000000E+00 -0.00000000000E+00 -0.44461413975E+03  0.44461413975E+03  0.00000000000E+00 0. -1.
        -24    2    1    2    0    0 -0.20302489755E+02  0.45651395455E+02 -0.84482359337E+02  0.14299539427E+03  0.10399121476E+03 0.  0.
         23    2    1    2    0    0 -0.13798546346E+03 -0.33790515104E+03  0.30850767052E+02  0.38728560688E+03  0.12577158760E+03 0.  0.
         11    1    3    3    0    0 -0.40559920699E+02  0.66010008178E+02 -0.33347918244E+02  0.84347566639E+02  0.00000000000E+00 0. -1.
        -12    1    3    3    0    0  0.20257430945E+02 -0.20358612723E+02 -0.51134441093E+02  0.58647827635E+02  0.00000000000E+00 0.  1.
        -11    1    4    4    0    0 -0.11013971003E+03 -0.17534418594E+03 -0.34427081443E+02  0.20990846387E+03  0.00000000000E+00 0. -1.
         11    1    4    4    0    0 -0.27845753424E+02 -0.16256096510E+03  0.65277848495E+02  0.17737714301E+03  0.00000000000E+00 0.  1.
          2    1    1    2  501    0  0.15828795321E+03  0.29225375558E+03  0.28248901735E+02  0.33356458780E+03  0.00000000000E+00 0. -1.
<scales pt_clust_5="13000.00000" pt_clust_6="13000.00000" pt_clust_7="13000.00000" pt_clust_8="13000.00000" pt_clust_9="346.90701"></scales>
<clustering>
<clus scale="  103.991">  5  6 -1 -1</clus>
<clus scale="  115.371">  2  5  1 -1</clus>
<clus scale="  125.772">  7  8 -1 -1</clus>
<clus scale="  346.907">  1  9  2 -1</clus>
<clus scale="  346.907">  1  5  2 -1</clus>
</clustering>
</event>
<event>
 9    1  0.6270443E-005  0.9228940E+02  0.7546771E-02  0.1303316E+00
         21   -1    0    0  501  502  0.00000000000E+00  0.00000000000E+00  0.12414817495E+03  0.12414817495E+03  0.00000000000E+00 0.  1.
         -2   -1    0    0    0  501 -0.00000000000E+00 -0.00000000000E+00 -0.20000096511E+03  0.20000096511E+03  0.00000000000E+00 0.  1.
         23    2    1    2    0    0 -0.18760518393E+02 -0.24444806676E+02 -0.13071750147E+03  0.16169179334E+03  0.90042574467E+02 0.  0.
        -24    2    1    2    0    0 -0.24273268493E+01 -0.19763560207E+00 -0.18350793273E+02  0.82353134232E+02  0.80245598812E+02 0.  0.
         13    1    4    4    0    0  0.24874476877E+02  0.20477610444E+01 -0.40196681675E+02  0.47314967430E+02  0.00000000000E+00 0. -1.
        -14    1    4    4    0    0 -0.27301803726E+02 -0.22453966465E+01  0.21845888402E+02  0.35038166802E+02  0.00000000000E+00 0.  1.
        -11    1    3    3    0    0 -0.36668651600E+02 -0.41770963033E+02 -0.42348896008E+02  0.69877266375E+02  0.00000000000E+00 0. -1.
         11    1    3    3    0    0  0.17908133208E+02  0.17326156357E+02 -0.88368605466E+02  0.91814526961E+02  0.00000000000E+00 0.  1.
         -1    1    1    2    0  502  0.21187845242E+02  0.24642442278E+02  0.73215504591E+02  0.80104212498E+02  0.00000000000E+00 0.  1.
<scales pt_clust_5="13000.00000" pt_clust_6="13000.00000" pt_clust_7="13000.00000" pt_clust_8="13000.00000" pt_clust_9="32.49884"></scales>
<clustering>
<clus scale="   32.499">  1  9  2 -1</clus>
<clus scale="   80.246">  5  6 -1 -1</clus>
<clus scale="   82.759">  1  5  2 -1</clus>
<clus scale="   90.043">  7  8 -1 -1</clus>
<clus scale="   32.499">  1  5  2 -1</clus>
</clustering>
</event>
<event>
 9    1  0.6270443E-005  0.1116859E+03  0.7546771E-02  0.1264207E+00
          3   -1    0    0  502    0 -0.00000000000E+00  0.00000000000E+00  0.14472427462E+03  0.14472427462E+03  0.00000000000E+00 0. -1.
         21   -1    0    0  501  502  0.00000000000E+00 -0.00000000000E+00 -0.13340227059E+03  0.13340227059E+03  0.00000000000E+00 0.  1.
        -24    2    1    2    0    0  0.51353687015E+02  0.22788480142E+02 -0.14323219005E+02  0.93598146066E+02  0.73477495514E+02 0.  0.
         23    2    1    2    0    0 -0.54318190285E+02 -0.57831695914E+02 -0.24533586630E+02  0.12325256222E+03  0.91073192387E+02 0.  0.
         11    1    3    3    0    0  0.19114211230E+02  0.42939839614E+02  0.10542095605E+02  0.48169686284E+02  0.00000000000E+00 0. -1.
        -12    1    3    3    0    0  0.32239475785E+02 -0.20151359472E+02 -0.24865314610E+02  0.45428459781E+02  0.00000000000E+00 0.  1.
        -13    1    4    4    0    0 -0.60286953271E+02 -0.28116418353E+02  0.19929108647E+02  0.69442199613E+02  0.00000000000E+00 0. -1.
         13    1    4    4    0    0  0.59687629858E+01 -0.29715277560E+02 -0.44462695277E+02  0.53810362602E+02  0.00000000000E+00 0.  1.
          4    1    1    2  501    0  0.29645032693E+01  0.35043215772E+02  0.50178809673E+02  0.61275836930E+02  0.00000000000E+00 0. -1.
<scales pt_clust_5="13000.00000" pt_clust_6="13000.00000" pt_clust_7="13000.00000" pt_clust_8="13000.00000" pt_clust_9="35.16840"></scales>
<clustering>
<clus scale="   35.168">  2  9  1 -1</clus>
<clus scale="   73.477">  5  6 -1 -1</clus>
<clus scale="   91.073">  7  8 -1 -1</clus>
<clus scale="   97.869">  1  5  2 -1</clus>
<clus scale="   35.168">  2  5  1 -1</clus>
</clustering>
</event>
<event>
 9    1  0.6270443E-005  0.1005512E+03  0.7546771E-02  0.1284166E+00
          1   -1    0    0  502    0 -0.00000000000E+00  0.00000000000E+00  0.17964320627E+03  0.17964320627E+03  0.00000000000E+00 0. -1.
         21   -1    0    0  501  502  0.00000000000E+00 -0.00000000000E+00 -0.19887001645E+03  0.19887001645E+03  0.00000000000E+00 0. -1.
         23    2    1    2    0    0 -0.23541904580E+02  0.46878415481E+02  0.10737584474E+03  0.15008702852E+03  0.90800534079E+02 0.  0.
        -24    2    1    2    0    0 -0.60103492179E+02 -0.22322365811E+02 -0.67915469946E+02  0.12333700515E+03  0.80553013569E+02 0.  0.
         13    1    4    4    0    0 -0.49522354552E+01 -0.43304884510E+02 -0.23802341736E+02  0.49662753956E+02  0.00000000000E+00 0. -1.
        -14    1    4    4    0    0 -0.55151256724E+02  0.20982518699E+02 -0.44113128210E+02  0.73674251198E+02  0.00000000000E+00 0.  1.
        -13    1    3    3    0    0  0.24618269621E+02 -0.12235138593E+02  0.38698892628E+02  0.47469591384E+02  0.00000000000E+00 0.  1.
         13    1    3    3    0    0 -0.48160174201E+02  0.59113554074E+02  0.68676952109E+02  0.10261743714E+03  0.00000000000E+00 0. -1.
          2    1    1    2  501    0  0.83645396759E+02 -0.24556049670E+02 -0.58687184966E+02  0.10508918904E+03  0.00000000000E+00 0. -1.
<scales pt_clust_5="13000.00000" pt_clust_6="13000.00000" pt_clust_7="13000.00000" pt_clust_8="13000.00000" pt_clust_9="87.17541"></scales>
<clustering>
<clus scale="   80.553">  5  6 -1 -1</clus>
<clus scale="   87.175">  2  9  1 -1</clus>
<clus scale="   90.801">  7  8 -1 -1</clus>
<clus scale="   91.404">  2  5  1 -1</clus>
<clus scale="   87.175">  2  5  1 -1</clus>
</clustering>
</event>
<event>
 9    1  0.6270443E-005  0.1508204E+03  0.7546771E-02  0.1202470E+00
          1   -1    0    0  502    0 -0.00000000000E+00  0.00000000000E+00  0.21057043019E+03  0.21057043019E+03  0.00000000000E+00 0. -1.
         21   -1    0    0  501  502  0.00000000000E+00 -0.00000000000E+00 -0.24371626915E+03  0.24371626915E+03  0.00000000000E+00 0. -1.
        -24    2    1    2    0    0 -0.58655391348E+02  0.75620193703E+02  0.34474841151E+02  0.12872451198E+03  0.78883564076E+02 0.  0.
         23    2    1    2    0    0  0.16680501739E+03 -0.85053822559E+02 -0.45306173018E+02  0.21473226273E+03  0.94864265060E+02 0.  0.
         11    1    3    3    0    0 -0.33370435524E+02  0.88883141539E+02  0.31439998057E+02  0.10001136083E+03  0.00000000000E+00 0. -1.
        -12    1    3    3    0    0 -0.25284955824E+02 -0.13262947835E+02  0.30348430937E+01  0.28713151149E+02  0.00000000000E+00 0.  1.
        -11    1    4    4    0    0  0.62425894628E+02 -0.50462441604E+02 -0.64667303787E+02  0.10307914683E+03  0.00000000000E+00 0. -1.
         11    1    4    4    0    0  0.10437912276E+03 -0.34591380955E+02  0.19361130769E+02  0.11165311590E+03  0.00000000000E+00 0.  1.
          2    1    1    2  501    0 -0.10814962604E+03  0.94336288556E+01 -0.22314507099E+02  0.11082992463E+03  0.00000000000E+00 0. -1.
<scales pt_clust_5="13000.00000" pt_clust_6="13000.00000" pt_clust_7="13000.00000" pt_clust_8="13000.00000" pt_clust_9="108.56028"></scales>
<clustering>
<clus scale="   78.884">  5  6 -1 -1</clus>
<clus scale="   94.864">  7  8 -1 -1</clus>
<clus scale="  108.560">  2  9  1 -1</clus>
<clus scale="  141.316">  1  5  2 -1</clus>
<clus scale="  108.560">  2  5  1 -1</clus>
</clustering>
</event>
<event>
 9    1  0.6270443E-005  0.9771913E+02  0.7546771E-02  0.1291072E+00
         21   -1    0    0  501  502  0.00000000000E+00  0.00000000000E+00  0.17018654325E+02  0.17018654325E+02  0.00000000000E+00 0. -1.
          3   -1    0    0  502    0 -0.00000000000E+00 -0.00000000000E+00 -0.13198349453E+04  0.13198349453E+04  0.00000000000E+00 0. -1.
        -24    2    1    2    0    0 -0.84966474563E+01  0.11028327359E+02 -0.54685906523E+03  0.55283974001E+03  0.79894454705E+02 0.  0.
         23    2    1    2    0    0  0.19079474955E+02 -0.83289508176E+02 -0.58394394464E+03  0.59713891917E+03  0.91012030855E+02 0.  0.
         11    1    3    3    0    0 -0.38437193705E+02 -0.12803019255E+02 -0.21519781059E+03  0.21897815609E+03  0.00000000000E+00 0. -1.
        -12    1    3    3    0    0  0.29940546248E+02  0.23831346614E+02 -0.33166125464E+03  0.33386158392E+03  0.00000000000E+00 0.  1.
        -11    1    4    4    0    0 -0.12386608052E+02 -0.90671252372E+02 -0.39603593982E+03  0.40647160995E+03  0.00000000000E+00 0. -1.
         11    1    4    4    0    0  0.31466083007E+02  0.73817441967E+01 -0.18790800482E+03  0.19066730922E+03  0.00000000000E+00 0.  1.
          4    1    1    2  501    0 -0.10582827499E+02  0.72261180816E+02 -0.17201328110E+03  0.18687494045E+03  0.00000000000E+00 0. -1.
<scales pt_clust_5="13000.00000" pt_clust_6="13000.00000" pt_clust_7="13000.00000" pt_clust_8="13000.00000" pt_clust_9="73.03201"></scales>
<clustering>
<clus scale="   73.032">  1  9  2 -1</clus>
<clus scale="   79.894">  5  6 -1 -1</clus>
<clus scale="   87.458">  2  5  1 -1</clus>
<clus scale="   91.012">  7  8 -1 -1</clus>
<clus scale="   73.032">  1  5  2 -1</clus>
</clustering>
</event>
<event>
 9    1  0.6270443E-005  0.1149558E+03  0.7546771E-02  0.1255611E+00
         21   -1    0    0  501  502  0.00000000000E+00  0.00000000000E+00  0.19551253668E+03  0.19551253668E+03  0.00000000000E+00 0. -1.
          1   -1    0    0  502    0 -0.00000000000E+00 -0.00000000000E+00 -0.29212116819E+03  0.29212116819E+03  0.00000000000E+00 0. -1.
        -24    2    1    2    0    0  0.55207549106E+02 -0.14496286183E+02 -0.16570144831E+03  0.19264940715E+03  0.79992551599E+02 0.  0.
         23    2    1    2    0    0 -0.13848932806E+03  0.46923428017E+02 -0.14063548765E+02  0.17290909398E+03  0.91206739292E+02 0.  0.
         13    1    3    3    0    0 -0.61074234018E+01 -0.20660160649E+02 -0.10109889304E+03  0.10336889780E+03  0.00000000000E+00 0. -1.
        -14    1    3    3    0    0  0.61314972508E+02  0.61638744655E+01 -0.64602555274E+02  0.89280509351E+02  0.00000000000E+00 0.  1.
        -11    1    4    4    0    0 -0.12207789793E+03  0.35789545840E+01 -0.26393343835E+02  0.12494971259E+03  0.00000000000E+00 0. -1.
         11    1    4    4    0    0 -0.16411430134E+02  0.43344473433E+02  0.12329795071E+02  0.47959381384E+02  0.00000000000E+00 0.  1.
          2    1    1    2  501    0  0.83281778954E+02 -0.32427141834E+02  0.83156365574E+02  0.12207520374E+03  0.00000000000E+00 0. -1.
<scales pt_clust_5="13000.00000" pt_clust_6="13000.00000" pt_clust_7="13000.00000" pt_clust_8="13000.00000" pt_clust_9="89.37211"></scales>
<clustering>
<clus scale="   79.993">  5  6 -1 -1</clus>
<clus scale="   89.372">  1  9  2 -1</clus>
<clus scale="   91.207">  7  8 -1 -1</clus>
<clus scale="  106.278">  2  5  1 -1</clus>
<clus scale="   89.372">  1  5  2 -1</clus>
</clustering>
</event>
<event>
 9    1  0.6270443E-005  0.8955622E+02  0.7546771E-02  0.1305755E+00
         21   -1    0    0  501  502  0.00000000000E+00  0.00000000000E+00  0.35260270000E+03  0.35260270000E+03  0.00000000000E+00 0.  1.
          1   -1    0    0  502    0 -0.00000000000E+00 -0.00000000000E+00 -0.77047791602E+02  0.77047791602E+02  0.00000000000E+00 0. -1.
        -24    2    1    2    0    0 -0.28359832629E+02 -0.12621459656E+02 -0.21864657519E+02  0.89776911465E+02  0.81352622780E+02 0.  0.
         23    2    1    2    0    0 -0.11323123521E+02  0.58769068310E+02  0.18173163366E+03  0.20915236356E+03  0.84476671301E+02 0.  0.
         11    1    3    3    0    0 -0.28764595572E+02 -0.39250155792E+02  0.84884756287E+01  0.49396668983E+02  0.00000000000E+00 0. -1.
        -12    1    3    3    0    0  0.40476294308E+00  0.26628696137E+02 -0.30353133148E+02  0.40380242481E+02  0.00000000000E+00 0.  1.
        -13    1    4    4    0    0  0.70361865401E+01  0.76168666663E+02  0.15164900530E+03  0.16984874009E+03  0.00000000000E+00 0.  1.
         13    1    4    4    0    0 -0.18359310061E+02 -0.17399598352E+02  0.30082628356E+02  0.39303623466E+02  0.00000000000E+00 0. -1.
          2    1    1    2  501    0  0.39682956150E+02 -0.46147608655E+02  0.11568793225E+03  0.13072121657E+03  0.00000000000E+00 0. -1.
<scales pt_clust_5="13000.00000" pt_clust_6="13000.00000" pt_clust_7="13000.00000" pt_clust_8="13000.00000" pt_clust_9="60.86328"></scales>
<clustering>
<clus scale="   60.863">  1  9  2 -1</clus>
<clus scale="   81.353">  5  6 -1 -1</clus>
<clus scale="   84.477">  7  8 -1 -1</clus>
<clus scale="   86.616">  2  5  1 -1</clus>
<clus scale="   60.863">  1  5  2 -1</clus>
</clustering>
</event>
<event>
 9    1  0.6270443E-005  0.9397752E+02  0.7546771E-02  0.1300918E+00
         21   -1    0    0  501  502  0.00000000000E+00  0.00000000000E+00  0.26798832318E+03  0.26798832318E+03  0.00000000000E+00 0. -1.
          1   -1    0    0  502    0 -0.00000000000E+00 -0.00000000000E+00 -0.14922063182E+03  0.14922063182E+03  0.00000000000E+00 0. -1.
        -24    2    1    2    0    0  0.18247248165E+02  0.11801404327E+02 -0.11177625704E+03  0.13911776088E+03  0.79922365724E+02 0.  0.
         23    2    1    2    0    0  0.25975440810E+01  0.35524513740E+02  0.11610191647E+03  0.15250765000E+03  0.92250690982E+02 0.  0.
         13    1    3    3    0    0  0.14811601411E+02  0.18228225486E+02 -0.12328138742E+03  0.12549881364E+03  0.00000000000E+00 0. -1.
        -14    1    3    3    0    0  0.34356467542E+01 -0.64268211593E+01  0.11505130377E+02  0.13618947236E+02  0.00000000000E+00 0.  1.
        -11    1    4    4    0    0 -0.19603174618E+02  0.49807739866E+02  0.27742022828E+02  0.60288599554E+02  0.00000000000E+00 0.  1.
         11    1    4    4    0    0  0.22200718699E+02 -0.14283226126E+02  0.88359893646E+02  0.92219050442E+02  0.00000000000E+00 0. -1.
          2    1    1    2  501    0 -0.20844792246E+02 -0.47325918067E+02  0.11444203193E+03  0.12558354413E+03  0.00000000000E+00 0. -1.
<scales pt_clust_5="13000.00000" pt_clust_6="13000.00000" pt_clust_7="13000.00000" pt_clust_8="13000.00000" pt_clust_9="51.71313"></scales>
<clustering>
<clus scale="   51.713">  1  9  2 -1</clus>
<clus scale="   79.922">  5  6 -1 -1</clus>
<clus scale="   81.910">  2  5  1 -1</clus>
<clus scale="   92.251">  7  8 -1 -1</clus>
<clus scale="   51.713">  1  5  2 -1</clus>
</clustering>
</event>
<event>
 9    1  0.6270443E-005  0.1390789E+03  0.7546771E-02  0.1217011E+00
          1   -1    0    0  502    0 -0.00000000000E+00  0.00000000000E+00  0.41792156590E+02  0.41792156590E+02  0.00000000000E+00 0. -1.
         21   -1    0    0  501  502  0.00000000000E+00 -0.00000000000E+00 -0.13184661711E+04  0.13184661711E+04  0.00000000000E+00 0. -1.
        -24    2    1    2    0    0 -0.26524272626E+02 -0.91058406340E+02 -0.13411272539E+03  0.18298524173E+03  0.80636252234E+02 0.  0.
         23    2    1    2    0    0  0.90089905983E+02  0.14181251570E+03 -0.93413522522E+03  0.95353664844E+03  0.91632636964E+02 0.  0.
         11    1    3    3    0    0 -0.48971524466E+02 -0.76214365678E+02 -0.12539771933E+03  0.15469785958E+03  0.00000000000E+00 0. -1.
        -12    1    3    3    0    0  0.22447251840E+02 -0.14844040662E+02 -0.87150060642E+01  0.28287382153E+02  0.00000000000E+00 0.  1.
        -11    1    4    4    0    0 -0.19019523312E+02  0.20541904782E+02 -0.15485425623E+03  0.15736439493E+03  0.00000000000E+00 0.  1.
         11    1    4    4    0    0  0.10910942930E+03  0.12127061092E+03 -0.77928096899E+03  0.79617225351E+03  0.00000000000E+00 0. -1.
          2    1    1    2  501    0 -0.63565633358E+02 -0.50754109364E+02 -0.20842606386E+03  0.22373643748E+03  0.00000000000E+00 0. -1.
<scales pt_clust_5="13000.00000" pt_clust_6="13000.00000" pt_clust_7="13000.00000" pt_clust_8="13000.00000" pt_clust_9="81.34234"></scales>
<clustering>
<clus scale="   80.636">  5  6 -1 -1</clus>
<clus scale="   81.342">  2  9  1 -1</clus>
<clus scale="   91.633">  7  8 -1 -1</clus>
<clus scale="  132.093">  1  5  2 -1</clus>
<clus scale="   81.342">  2  5  1 -1</clus>
</clustering>
</event>
<event>
 9    1  0.6270443E-005  0.1112008E+03  0.7546771E-02  0.1263009E+00
         21   -1    0    0  501  502  0.00000000000E+00  0.00000000000E+00  0.34201776311E+02  0.34201776311E+02  0.00000000000E+00 0.  1.
          3   -1    0    0  502    0 -0.00000000000E+00 -0.00000000000E+00 -0.48924884055E+03  0.48924884055E+03  0.00000000000E+00 0. -1.
         23    2    1    2    0    0 -0.15488395104E+02 -0.76175139580E+02 -0.27506181140E+03  0.30019172979E+03  0.91725308764E+02 0.  0.
        -24    2    1    2    0    0  0.25967443117E+02  0.38295010648E+02 -0.11574838271E+03  0.14795224660E+03  0.79695440476E+02 0.  0.
         11    1    4    4    0    0  0.40210748537E+02 -0.28387095164E+01 -0.86719815646E+02  0.95631004362E+02  0.00000000000E+00 0. -1.
        -12    1    4    4    0    0 -0.14243305420E+02  0.41133720164E+02 -0.29028567060E+02  0.52321242239E+02  0.00000000000E+00 0.  1.
        -13    1    3    3    0    0  0.24330709002E+02  0.85814660944E+00 -0.12078571955E+03  0.12321489303E+03  0.00000000000E+00 0.  1.
         13    1    3    3    0    0 -0.39819104106E+02 -0.77033286189E+02 -0.15427609185E+03  0.17697683676E+03  0.00000000000E+00 0. -1.
          4    1    1    2  501    0 -0.10479048013E+02  0.37880128932E+02 -0.64236870131E+02  0.75306640473E+02  0.00000000000E+00 0. -1.
<scales pt_clust_5="13000.00000" pt_clust_6="13000.00000" pt_clust_7="13000.00000" pt_clust_8="13000.00000" pt_clust_9="39.30286"></scales>
<clustering>
<clus scale="   39.303">  1  9  2 -1</clus>
<clus scale="   79.695">  5  6 -1 -1</clus>
<clus scale="   91.725">  7  8 -1 -1</clus>
<clus scale="  101.506">  1  5  2 -1</clus>
<clus scale="   39.303">  1  5  2 -1</clus>
</clustering>
</event>
<event>
 9    1  0.6270443E-005  0.1067241E+03  0.7546771E-02  0.1267490E+00
          1   -1    0    0  502    0 -0.00000000000E+00  0.00000000000E+00  0.88771268860E+03  0.88771268860E+03  0.00000000000E+00 0. -1.
         21   -1    0    0  501  502  0.00000000000E+00 -0.00000000000E+00 -0.23388267780E+02  0.23388267780E+02  0.00000000000E+00 0.  1.
        -24    2    1    2    0    0 -0.33356633168E+02  0.37151846239E+02  0.54496950736E+03  0.55448289252E+03  0.89255753281E+02 0.  0.
         23    2    1    2    0    0  0.71557686690E+02 -0.31055322939E+02  0.23464497245E+03  0.26349308229E+03  0.91024203974E+02 0.  0.
         13    1    3    3    0    0 -0.39887856993E+02  0.62157106633E+02  0.34262166446E+03  0.35049130089E+03  0.00000000000E+00 0. -1.
        -14    1    3    3    0    0  0.65312238243E+01 -0.25005260393E+02  0.20234784290E+03  0.20399159164E+03  0.00000000000E+00 0.  1.
        -11    1    4    4    0    0  0.82850582508E+01  0.30146173374E+02  0.73475172534E+02  0.79850077885E+02  0.00000000000E+00 0. -1.
         11    1    4    4    0    0  0.63272628439E+02 -0.61201496313E+02  0.16116979992E+03  0.18364300440E+03  0.00000000000E+00 0.  1.
          2    1    1    2  501    0 -0.38201053521E+02 -0.60965233005E+01  0.84709941009E+02  0.93124981569E+02  0.00000000000E+00 0. -1.
<scales pt_clust_5="13000.00000" pt_clust_6="13000.00000" pt_clust_7="13000.00000" pt_clust_8="13000.00000" pt_clust_9="38.68447"></scales>
<clustering>
<clus scale="   38.684">  2  9  1 -1</clus>
<clus scale="   89.256">  5  6 -1 -1</clus>
<clus scale="   91.024">  7  8 -1 -1</clus>
<clus scale="  105.220">  1  5  2 -1</clus>
<clus scale="   38.684">  2  5  1 -1</clus>
</clustering>
</event>
<event>
 9    1  0.6270443E-005  0.1019034E+03  0.7546771E-02  0.1281953E+00
         -2   -1    0    0    0  501 -0.00000000000E+00  0.00000000000E+00  0.18912305695E+03  0.18912305695E+03  0.00000000000E+00 0.  1.
         21   -1    0    0  501  502  0.00000000000E+00 -0.00000000000E+00 -0.19187685786E+03  0.19187685786E+03  0.00000000000E+00 0. -1.
         23    2    1    2    0    0 -0.17229880587E+02  0.44022777048E+02  0.14912368837E+03  0.18143663956E+03  0.91904875044E+02 0.  0.
        -24    2    1    2    0    0  0.19616546616E+02 -0.21833869613E+02 -0.58591517160E+02  0.10364499554E+03  0.80298147265E+02 0.  0.
         13    1    4    4    0    0  0.38580035303E+02  0.82094928397E+01 -0.55354534824E+02  0.67970136253E+02  0.00000000000E+00 0. -1.
        -14    1    4    4    0    0 -0.18963488686E+02 -0.30043362452E+02 -0.32369823365E+01  0.35674859288E+02  0.00000000000E+00 0.  1.
        -11    1    3    3    0    0 -0.27912368502E+02 -0.47125676575E+01  0.12078511931E+03  0.12405786414E+03  0.00000000000E+00 0.  1.
         11    1    3    3    0    0  0.10682487916E+02  0.48735344706E+02  0.28338569063E+02  0.57378775416E+02  0.00000000000E+00 0. -1.
         -1    1    1    2    0  502 -0.23866660297E+01 -0.22188907436E+02 -0.93285972124E+02  0.95918279713E+02  0.00000000000E+00 0.  1.
<scales pt_clust_5="13000.00000" pt_clust_6="13000.00000" pt_clust_7="13000.00000" pt_clust_8="13000.00000" pt_clust_9="22.31689"></scales>
<clustering>
<clus scale="   22.317">  2  9  1 -1</clus>
<clus scale="   80.298">  5  6 -1 -1</clus>
<clus scale="   91.573">  2  5  1 -1</clus>
<clus scale="   91.905">  7  8 -1 -1</clus>
<clus scale="   22.317">  2  5  1 -1</clus>
</clustering>
</event>
<event>
 9    1  0.6270443E-005  0.9386590E+02  0.7546771E-02  0.1298965E+00
         21   -1    0    0  501  502  0.00000000000E+00  0.00000000000E+00  0.20151964930E+03  0.20151964930E+03  0.00000000000E+00 0.  1.
          1   -1    0    0  502    0 -0.00000000000E+00 -0.00000000000E+00 -0.10471841700E+03  0.10471841700E+03  0.00000000000E+00 0. -1.
         23    2    1    2    0    0  0.25724058488E+02 -0.19432267798E+02 -0.47713798195E+02  0.10692995711E+03  0.90100327258E+02 0.  0.
        -24    2    1    2    0    0  0.21916864310E+02  0.24960244974E+02  0.10784621505E+03  0.13893578041E+03  0.81049257897E+02 0.  0.
         13    1    4    4    0    0  0.22527420064E+02  0.42602199065E+02  0.25117051894E+02  0.54344257431E+02  0.00000000000E+00 0. -1.
        -14    1    4    4    0    0 -0.61055575438E+00 -0.17641954090E+02  0.82729163158E+02  0.84591522975E+02  0.00000000000E+00 0.  1.
        -13    1    3    3    0    0  0.42737914151E+02  0.19334355879E+02 -0.44195241669E+02  0.64448165291E+02  0.00000000000E+00 0.  1.
         13    1    3    3    0    0 -0.17013855664E+02 -0.38766623677E+02 -0.35185565265E+01  0.42481791816E+02  0.00000000000E+00 0. -1.
          2    1    1    2  501    0 -0.47640922797E+02 -0.55279771766E+01  0.36668815443E+02  0.60372328783E+02  0.00000000000E+00 0. -1.
<scales pt_clust_5="13000.00000" pt_clust_6="13000.00000" pt_clust_7="13000.00000" pt_clust_8="13000.00000" pt_clust_9="47.96057"></scales>
<clustering>
<clus scale="   47.961">  1  9  2 -1</clus>
<clus scale="   81.049">  5  6 -1 -1</clus>
<clus scale="   85.216">  1  5  2 -1</clus>
<clus scale="   90.100">  7  8 -1 -1</clus>
<clus scale="   47.961">  1  5  2 -1</clus>
</clustering>
</event>
<event>
 9    1  0.6270443E-005  0.1414872E+03  0.7546771E-02  0.1214443E+00
         21   -1    0    0  501  502  0.00000000000E+00  0.00000000000E+00  0.61027713352E+03  0.61027713352E+03  0.00000000000E+00 0.  1.
          3   -1    0    0  502    0 -0.00000000000E+00 -0.00000000000E+00 -0.31057438565E+03  0.31057438565E+03  0.00000000000E+00 0. -1.
        -24    2    1    2    0    0  0.21500416724E+02 -0.10115906765E+03 -0.27752088714E+03  0.30747652993E+03  0.82635033569E+02 0.  0.
         23    2    1    2    0    0  0.30393630352E+02  0.11496870973E+03  0.40505065555E+03  0.43302191002E+03  0.96438394879E+02 0.  0.
         13    1    3    3    0    0  0.39526113950E+02 -0.10354952293E+03 -0.20884339410E+03  0.23643261332E+03  0.00000000000E+00 0. -1.
        -14    1    3    3    0    0 -0.18025697226E+02  0.23904552836E+01 -0.68677493034E+02  0.71043916604E+02  0.00000000000E+00 0.  1.
        -11    1    4    4    0    0  0.31558698425E+02  0.76180382848E+02  0.37495101971E+03  0.38391101750E+03  0.00000000000E+00 0.  1.
         11    1    4    4    0    0 -0.11650680734E+01  0.38788326879E+02  0.30099635845E+02  0.49110892515E+02  0.00000000000E+00 0. -1.
          4    1    1    2  501    0 -0.51894047076E+02 -0.13809642081E+02  0.17217297945E+03  0.18035307924E+03  0.00000000000E+00 0. -1.
<scales pt_clust_5="13000.00000" pt_clust_6="13000.00000" pt_clust_7="13000.00000" pt_clust_8="13000.00000" pt_clust_9="53.70008"></scales>
<clustering>
<clus scale="   53.700">  1  9  2 -1</clus>
<clus scale="   82.635">  5  6 -1 -1</clus>
<clus scale="   96.438">  7  8 -1 -1</clus>
<clus scale="  132.464">  2  5  1 -1</clus>
<clus scale="   53.700">  1  5  2 -1</clus>
</clustering>
</event>
<event>
 9    1  0.6270443E-005  0.1277684E+03  0.7546771E-02  0.1242586E+00
         -2   -1    0    0    0  501 -0.00000000000E+00  0.00000000000E+00  0.67994961409E+03  0.67994961409E+03  0.00000000000E+00 0.  1.
         21   -1    0    0  501  502  0.00000000000E+00 -0.00000000000E+00 -0.86947514562E+02  0.86947514562E+02  0.00000000000E+00 0.  1.
        -24    2    1    2    0    0 -0.44128428691E+02  0.31916851304E+02  0.51949765514E+03  0.52911963450E+03  0.84402430658E+02 0.  0.
         23    2    1    2    0    0 -0.40020230296E+02  0.47340660847E+02  0.49134024197E+02  0.11963915397E+03  0.89758664356E+02 0.  0.
         13    1    3    3    0    0 -0.25416822150E+02 -0.21243423157E+02  0.89295156007E+02  0.95241392062E+02  0.00000000000E+00 0. -1.
        -14    1    3    3    0    0 -0.18711606540E+02  0.53160274461E+02  0.43020249913E+03  0.43387824243E+03  0.00000000000E+00 0.  1.
        -13    1    4    4    0    0  0.21816287708E+02  0.15223872411E+02 -0.98283691926E+01  0.28360422098E+02  0.00000000000E+00 0. -1.
         13    1    4    4    0    0 -0.61836518005E+02  0.32116788436E+02  0.58962393390E+02  0.91278731875E+02  0.00000000000E+00 0.  1.
         -1    1    1    2    0  502  0.84148658987E+02 -0.79257512151E+02  0.24370420199E+02  0.11813834019E+03  0.00000000000E+00 0.  1.
<scales pt_clust_5="13000.00000" pt_clust_6="13000.00000" pt_clust_7="13000.00000" pt_clust_8="13000.00000" pt_clust_9="90.92945"></scales>
<clustering>
<clus scale="   84.402">  5  6 -1 -1</clus>
<clus scale="   89.759">  7  8 -1 -1</clus>
<clus scale="  100.448">  1  5  2 -1</clus>
<clus scale="   90.929">  2  9  1 -1</clus>
<clus scale="   90.929">  2  5  1 -1</clus>
</clustering>
</event>
<event>
 9    1  0.6270443E-005  0.1180601E+03  0.7546771E-02  0.1248380E+00
          3   -1    0    0  502    0 -0.00000000000E+00  0.00000000000E+00  0.35317013339E+03  0.35317013339E+03  0.00000000000E+00 0. -1.
         21   -1    0    0  501  502  0.00000000000E+00 -0.00000000000E+00 -0.11282207638E+03  0.11282207638E+03  0.00000000000E+00 0. -1.
        -24    2    1    2    0    0 -0.65636765878E+02 -0.35021020705E+02  0.23214921594E+03  0.25704599996E+03  0.81515217645E+02 0.  0.
         23    2    1    2    0    0  0.64487954616E+02  0.73836374296E+02  0.59543937673E+02  0.14457020196E+03  0.88003160860E+02 0.  0.
         13    1    3    3    0    0 -0.21426406816E+02 -0.50579304751E+02  0.17339796421E+03  0.18189065663E+03  0.00000000000E+00 0. -1.
        -14    1    3    3    0    0 -0.44210359062E+02  0.15558284046E+02  0.58751251732E+02  0.75155343329E+02  0.00000000000E+00 0.  1.
        -13    1    4    4    0    0  0.78721262979E+02  0.37772143353E+02  0.20797661942E+02  0.89756976334E+02  0.00000000000E+00 0.  1.
         13    1    4    4    0    0 -0.14233308362E+02  0.36064230943E+02  0.38746275731E+02  0.54813225626E+02  0.00000000000E+00 0. -1.
          4    1    1    2  501    0  0.11488112619E+01 -0.38815353591E+02 -0.51345096599E+02  0.64376007848E+02  0.00000000000E+00 0. -1.
<scales pt_clust_5="13000.00000" pt_clust_6="13000.00000" pt_clust_7="13000.00000" pt_clust_8="13000.00000" pt_clust_9="38.83235"></scales>
<clustering>
<clus scale="   38.832">  2  9  1 -1</clus>
<clus scale="   81.515">  5  6 -1 -1</clus>
<clus scale="   88.003">  7  8 -1 -1</clus>
<clus scale="  113.306">  1  5  2 -1</clus>
<clus scale="   38.832">  2  5  1 -1</clus>
</clustering>
</event>
<event>
 9    1  0.6270443E-005  0.1069292E+03  0.7546771E-02  0.1272060E+00
          1   -1    0    0  502    0 -0.00000000000E+00  0.00000000000E+00  0.40656130034E+03  0.40656130034E+03  0.00000000000E+00 0. -1.
         21   -1    0    0  501  502  0.00000000000E+00 -0.00000000000E+00 -0.42724010940E+02  0.42724010940E+02  0.00000000000E+00 0. -1.
         23    2    1    2    0    0  0.29720279044E+02 -0.67704834059E+02  0.23193856746E+03  0.26066437801E+03  0.93183578743E+02 0.  0.
        -24    2    1    2    0    0 -0.21060748603E+02  0.18536051271E+02  0.84453160635E+02  0.11974686009E+03  0.80123865559E+02 0.  0.
         11    1    4    4    0    0 -0.24868357783E+02  0.48418615347E+02  0.49153922897E+02  0.73341023085E+02  0.00000000000E+00 0. -1.
        -12    1    4    4    0    0  0.38076091797E+01 -0.29882564076E+02  0.35299237738E+02  0.46405837006E+02  0.00000000000E+00 0.  1.
        -13    1    3    3    0    0  0.39421238375E+01 -0.86680884054E+02  0.17556155103E+03  0.19583404760E+03  0.00000000000E+00 0. -1.
         13    1    3    3    0    0  0.25778155207E+02  0.18976049995E+02  0.56377016438E+02  0.64830330415E+02  0.00000000000E+00 0.  1.
          2    1    1    2  501    0 -0.86595304409E+01  0.49168782787E+02  0.47445561303E+02  0.68874073174E+02  0.00000000000E+00 0. -1.
<scales pt_clust_5="13000.00000" pt_clust_6="13000.00000" pt_clust_7="13000.00000" pt_clust_8="13000.00000" pt_clust_9="49.92551"></scales>
<clustering>
<clus scale="   49.926">  2  9  1 -1</clus>
<clus scale="   80.124">  5  6 -1 -1</clus>
<clus scale="   93.184">  7  8 -1 -1</clus>
<clus scale="   95.763">  2  5  1 -1</clus>
<clus scale="   49.926">  2  5  1 -1</clus>
</clustering>
</event>
<event>
 9    1  0.6270443E-005  0.9516517E+02  0.7546771E-02  0.1296331E+00
          1   -1    0    0  502    0 -0.00000000000E+00  0.00000000000E+00  0.30160755447E+03  0.30160755447E+03  0.00000000000E+00 0. -1.
         21   -1    0    0  501  502  0.00000000000E+00 -0.00000000000E+00 -0.40347740785E+02  0.40347740785E+02  0.00000000000E+00 0.  1.
         23    2    1    2    0    0  0.30847844138E+02 -0.26618798397E+02  0.16622548426E+03  0.19391479369E+03  0.91169543603E+02 0.  0.
        -24    2    1    2    0    0 -0.76841261068E+01  0.59279307122E+01  0.74748393033E+02  0.11094347939E+03  0.81406063668E+02 0.  0.
         13    1    4    4    0    0  0.55392403886E+01  0.32433722141E+02  0.74365885558E+02  0.81319828153E+02  0.00000000000E+00 0. -1.
        -14    1    4    4    0    0 -0.13223366495E+02 -0.26505791429E+02  0.38250747437E+00  0.29623651238E+02  0.00000000000E+00 0.  1.
        -11    1    3    3    0    0  0.10601017873E+02 -0.43092853891E+02  0.26321140181E+02  0.51596298868E+02  0.00000000000E+00 0.  1.
         11    1    3    3    0    0  0.20246826265E+02  0.16474055494E+02  0.13990434407E+03  0.14231849482E+03  0.00000000000E+00 0. -1.
          2    1    1    2  501    0 -0.23163718031E+02  0.20690867685E+02  0.20285936400E+02  0.37097022174E+02  0.00000000000E+00 0. -1.
<scales pt_clust_5="13000.00000" pt_clust_6="13000.00000" pt_clust_7="13000.00000" pt_clust_8="13000.00000" pt_clust_9="31.05913"></scales>
<clustering>
<clus scale="   31.059">  2  9  1 -1</clus>
<clus scale="   81.406">  5  6 -1 -1</clus>
<clus scale="   85.857">  2  5  1 -1</clus>
<clus scale="   91.170">  7  8 -1 -1</clus>
<clus scale="   31.059">  2  5  1 -1</clus>
</clustering>
</event>
<event>
 9    1  0.6270443E-005  0.1192785E+03  0.7546771E-02  0.1248901E+00
         21   -1    0    0  501  502  0.00000000000E+00  0.00000000000E+00  0.25182792462E+03  0.25182792462E+03  0.00000000000E+00 0. -1.
          1   -1    0    0  502    0 -0.00000000000E+00 -0.00000000000E+00 -0.19794449730E+03  0.19794449730E+03  0.00000000000E+00 0. -1.
         23    2    1    2    0    0 -0.76567843957E+02 -0.14456898347E+02 -0.14365229456E+03  0.18879726221E+03  0.94534585449E+02 0.  0.
        -24    2    1    2    0    0  0.48938685274E+02  0.29137837508E+02  0.51221299152E+02  0.11135293314E+03  0.80819835072E+02 0.  0.
         11    1    4    4    0    0  0.28155604394E+02  0.39542687844E+02  0.67380684707E+02  0.83045282180E+02  0.00000000000E+00 0. -1.
        -12    1    4    4    0    0  0.20783080879E+02 -0.10404850336E+02 -0.16159385555E+02  0.28307650960E+02  0.00000000000E+00 0.  1.
        -11    1    3    3    0    0  0.81761520776E+00 -0.38541188398E+02 -0.28312561224E+02  0.47829831913E+02  0.00000000000E+00 0.  1.
         11    1    3    3    0    0 -0.77385459164E+02  0.24084290051E+02 -0.11533973334E+03  0.14096743030E+03  0.00000000000E+00 0. -1.
          2    1    1    2  501    0  0.27629158683E+02 -0.14680939161E+02  0.14631442273E+03  0.14962222657E+03  0.00000000000E+00 0. -1.
<scales pt_clust_5="13000.00000" pt_clust_6="13000.00000" pt_clust_7="13000.00000" pt_clust_8="13000.00000" pt_clust_9="31.28738"></scales>
<clustering>
<clus scale="   31.287">  1  9  2 -1</clus>
<clus scale="   80.820">  5  6 -1 -1</clus>
<clus scale="   94.535">  7  8 -1 -1</clus>
<clus scale="  108.731">  1  5  2 -1</clus>
<clus scale="   31.287">  1  5  2 -1</clus>
</clustering>
</event>
<event>
 9    1  0.6270443E-005  0.9574432E+02  0.7546771E-02  0.1293988E+00
         -2   -1    0    0    0  501 -0.00000000000E+00  0.00000000000E+00  0.13858127672E+04  0.13858127672E+04  0.00000000000E+00 0.  1.
         21   -1    0    0  501  502  0.00000000000E+00 -0.00000000000E+00 -0.19990386043E+02  0.19990386043E+02  0.00000000000E+00 0.  1.
        -24    2    1    2    0    0  0.24063070164E+02  0.93133253891E+01  0.78433780550E+03  0.78901459940E+03  0.81807551937E+02 0.  0.
         23    2    1    2    0    0 -0.36495859278E+02 -0.79888807168E+02  0.28078313683E+03  0.30766587887E+03  0.90027517094E+02 0.  0.
         13    1    3    3    0    0 -0.12498398155E+02  0.25408365934E+02  0.11315707107E+03  0.11664612187E+03  0.00000000000E+00 0. -1.
        -14    1    3    3    0    0  0.36561468320E+02 -0.16095040545E+02  0.67118073444E+03  0.67236847753E+03  0.00000000000E+00 0.  1.
        -11    1    4    4    0    0 -0.19120054304E+02  0.17474760353E+02  0.44011371871E+02  0.51068038732E+02  0.00000000000E+00 0. -1.
         11    1    4    4    0    0 -0.17375804974E+02 -0.97363567521E+02  0.23677176496E+03  0.25659784013E+03  0.00000000000E+00 0.  1.
         -1    1    1    2    0  502  0.12432789113E+02  0.70575481779E+02  0.30070143884E+03  0.30912267499E+03  0.00000000000E+00 0.  1.
<scales pt_clust_5="13000.00000" pt_clust_6="13000.00000" pt_clust_7="13000.00000" pt_clust_8="13000.00000" pt_clust_9="71.66225"></scales>
<clustering>
<clus scale="   71.662">  2  9  1 -1</clus>
<clus scale="   81.808">  5  6 -1 -1</clus>
<clus scale="   88.060">  1  5  2 -1</clus>
<clus scale="   90.028">  7  8 -1 -1</clus>
<clus scale="   71.662">  2  5  1 -1</clus>
</clustering>
</event>
<event>
 9    1  0.6270443E-005  0.1382980E+03  0.7546771E-02  0.1239010E+00
         21   -1    0    0  501  502  0.00000000000E+00  0.00000000000E+00  0.92696345282E+02  0.92696345282E+02  0.00000000000E+00 0. -1.
          3   -1    0    0  502    0 -0.00000000000E+00 -0.00000000000E+00 -0.39303877036E+03  0.39303877036E+03  0.00000000000E+00 0. -1.
        -24    2    1    2    0    0 -0.21020990389E+02  0.13624027134E+02 -0.19637417913E+03  0.21404693936E+03  0.81398881239E+02 0.  0.
         23    2    1    2    0    0 -0.55364939321E+02 -0.83314259412E+02 -0.97351869209E+02  0.16807681024E+03  0.93626307071E+02 0.  0.
         13    1    3    3    0    0 -0.43279232469E+02  0.30933254187E+02 -0.15584543068E+03  0.16467469885E+03  0.00000000000E+00 0. -1.
        -14    1    3    3    0    0  0.22258242080E+02 -0.17309227053E+02 -0.40528748446E+02  0.49372240503E+02  0.00000000000E+00 0.  1.
        -13    1    4    4    0    0 -0.63828932676E+02 -0.48272071068E+02 -0.10419739375E+03  0.13138273233E+03  0.00000000000E+00 0. -1.
         13    1    4    4    0    0  0.84639933554E+01 -0.35042188344E+02  0.68455245381E+01  0.36694077910E+02  0.00000000000E+00 0.  1.
          4    1    1    2  501    0  0.76385929710E+02  0.69690232278E+02 -0.66163767428E+01  0.10361136605E+03  0.00000000000E+00 0. -1.
<scales pt_clust_5="13000.00000" pt_clust_6="13000.00000" pt_clust_7="13000.00000" pt_clust_8="13000.00000" pt_clust_9="101.78627"></scales>
<clustering>
<clus scale="   81.399">  5  6 -1 -1</clus>
<clus scale="   85.166">  2  5  1 -1</clus>
<clus scale="   93.626">  7  8 -1 -1</clus>
<clus scale="  101.786">  1  9  2 -1</clus>
<clus scale="  101.786">  1  5  2 -1</clus>
</clustering>
</event>
<event>
 9    1  0.6270443E-005  0.9360831E+02  0.7546771E-02  0.1302427E+00
         21   -1    0    0  501  502  0.00000000000E+00  0.00000000000E+00  0.22255604499E+03  0.22255604499E+03  0.00000000000E+00 0.  1.
          3   -1    0    0  502    0 -0.00000000000E+00 -0.00000000000E+00 -0.76287932154E+02  0.76287932154E+02  0.00000000000E+00 0. -1.
         23    2    1    2    0    0  0.30605466312E+02  0.49700300860E+00 -0.11201456303E+02  0.97287821779E+02  0.91665184574E+02 0.  0.
        -24    2    1    2    0    0  0.12950755337E+02  0.12420029358E+02  0.10078208678E+03  0.12890999356E+03  0.78350355644E+02 0.  0.
         11    1    4    4    0    0  0.44081665370E+02 -0.42333161737E+01  0.47012355462E+02  0.64585414404E+02  0.00000000000E+00 0. -1.
        -12    1    4    4    0    0 -0.31130910033E+02  0.16653345532E+02  0.53769731321E+02  0.64324579153E+02  0.00000000000E+00 0.  1.
        -11    1    3    3    0    0  0.62013483651E+02 -0.11396857495E+02 -0.68795908453E+01  0.63426250760E+02  0.00000000000E+00 0. -1.
         11    1    3    3    0    0 -0.31408017339E+02  0.11893860504E+02 -0.43218654577E+01  0.33861571019E+02  0.00000000000E+00 0.  1.
          4    1    1    2  501    0 -0.43556221649E+02 -0.12917032367E+02  0.56687482357E+02  0.72646161809E+02  0.00000000000E+00 0. -1.
<scales pt_clust_5="13000.00000" pt_clust_6="13000.00000" pt_clust_7="13000.00000" pt_clust_8="13000.00000" pt_clust_9="45.43120"></scales>
<clustering>
<clus scale="   45.431">  1  9  2 -1</clus>
<clus scale="   78.350">  5  6 -1 -1</clus>
<clus scale="   80.615">  1  5  2 -1</clus>
<clus scale="   91.665">  7  8 -1 -1</clus>
<clus scale="   45.431">  1  5  2 -1</clus>
</clustering>
</event>
<event>
 9    1  0.6270443E-005  0.1096682E+03  0.7546771E-02  0.1265709E+00
          1   -1    0    0  502    0 -0.00000000000E+00  0.00000000000E+00  0.98670831221E+03  0.98670831221E+03  0.00000000000E+00 0. -1.
         21   -1    0    0  501  502  0.00000000000E+00 -0.00000000000E+00 -0.22213496052E+02  0.22213496052E+02  0.00000000000E+00 0. -1.
        -24    2    1    2    0    0  0.21100940627E+02  0.59680543000E+02  0.57066798176E+03  0.57988789920E+03  0.81246620322E+02 0.  0.
         23    2    1    2    0    0  0.25105037063E+02 -0.52804278953E+02  0.18397577272E+03  0.21404613391E+03  0.92466792593E+02 0.  0.
         11    1    3    3    0    0  0.38944187408E+02  0.65258994218E+02  0.33649960552E+03  0.34497444916E+03  0.00000000000E+00 0. -1.
        -12    1    3    3    0    0 -0.17843246781E+02 -0.55784512177E+01  0.23416837625E+03  0.23491345004E+03  0.00000000000E+00 0.  1.
        -11    1    4    4    0    0  0.57707256688E+01 -0.76692451004E+02  0.11285694766E+03  0.13657131452E+03  0.00000000000E+00 0. -1.
         11    1    4    4    0    0  0.19334311394E+02  0.23888172050E+02  0.71118825065E+02  0.77474819391E+02  0.00000000000E+00 0.  1.
          2    1    1    2  501    0 -0.46205977689E+02 -0.68762640470E+01  0.20985106167E+03  0.21498777515E+03  0.00000000000E+00 0. -1.
<scales pt_clust_5="13000.00000" pt_clust_6="13000.00000" pt_clust_7="13000.00000" pt_clust_8="13000.00000" pt_clust_9="46.71485"></scales>
<clustering>
<clus scale="   46.715">  2  9  1 -1</clus>
<clus scale="   81.247">  5  6 -1 -1</clus>
<clus scale="   92.467">  7  8 -1 -1</clus>
<clus scale="  100.389">  1  5  2 -1</clus>
<clus scale="   46.715">  2  5  1 -1</clus>
</clustering>
</event>
<event>
 9    1  0.6270443E-005  0.1048853E+03  0.7546771E-02  0.1277141E+00
          1   -1    0    0  502    0 -0.00000000000E+00  0.00000000000E+00  0.17379017649E+03  0.17379017649E+03  0.00000000000E+00 0. -1.
         21   -1    0    0  501  502  0.00000000000E+00 -0.00000000000E+00 -0.17181312266E+03  0.17181312266E+03  0.00000000000E+00 0. -1.
         23    2    1    2    0    0  0.74056032499E+01 -0.45783235546E+02  0.11452588532E+03  0.15601718445E+03  0.95258783419E+02 0.  0.
        -24    2    1    2    0    0 -0.46097206381E+02  0.23768265834E+02 -0.39200327758E+02  0.10378575315E+03  0.80900766145E+02 0.  0.
         13    1    4    4    0    0 -0.26847840771E+02  0.24805411673E+02 -0.63195984120E+02  0.73005803956E+02  0.00000000000E+00 0. -1.
        -14    1    4    4    0    0 -0.19249365610E+02 -0.10371458396E+01  0.23995656362E+02  0.30779949190E+02  0.00000000000E+00 0.  1.
        -11    1    3    3    0    0  0.38617805348E+02 -0.38651877422E+02  0.23413414131E+02  0.59443170166E+02  0.00000000000E+00 0. -1.
         11    1    3    3    0    0 -0.31212202098E+02 -0.71313581233E+01  0.91112471185E+02  0.96574014279E+02  0.00000000000E+00 0.  1.
          2    1    1    2  501    0  0.38691603131E+02  0.22014969712E+02 -0.73348503728E+02  0.85800361558E+02  0.00000000000E+00 0. -1.
<scales pt_clust_5="13000.00000" pt_clust_6="13000.00000" pt_clust_7="13000.00000" pt_clust_8="13000.00000" pt_clust_9="44.51628"></scales>
<clustering>
<clus scale="   44.516">  2  9  1 -1</clus>
<clus scale="   80.901">  5  6 -1 -1</clus>
<clus scale="   92.041">  2  5  1 -1</clus>
<clus scale="   95.259">  7  8 -1 -1</clus>
<clus scale="   44.516">  2  5  1 -1</clus>
</clustering>
</event>
<event>
 9    1  0.6270443E-005  0.9365100E+02  0.7546771E-02  0.1299631E+00
         21   -1    0    0  501  502  0.00000000000E+00  0.00000000000E+00  0.18920042743E+03  0.18920042743E+03  0.00000000000E+00 0.  1.
          1   -1    0    0  502    0 -0.00000000000E+00 -0.00000000000E+00 -0.16201612023E+03  0.16201612023E+03  0.00000000000E+00 0. -1.
         23    2    1    2    0    0 -0.21912209382E+02  0.15723533737E+01 -0.12590759240E+03  0.15680647560E+03  0.90845647943E+02 0.  0.
        -24    2    1    2    0    0  0.25240697726E+02 -0.21556233502E+02  0.81622122356E+02  0.12012438462E+03  0.81645164579E+02 0.  0.
         11    1    4    4    0    0  0.31211035853E+02  0.11825442025E+02  0.79412324732E+02  0.86141088671E+02  0.00000000000E+00 0. -1.
        -12    1    4    4    0    0 -0.59703381269E+01 -0.33381675527E+02  0.22097976245E+01  0.33983295954E+02  0.00000000000E+00 0.  1.
        -13    1    3    3    0    0 -0.30137783269E+02  0.32497191136E+02 -0.24868784584E+02  0.50821352390E+02  0.00000000000E+00 0.  1.
         13    1    3    3    0    0  0.82255738862E+01 -0.30924837762E+02 -0.10103880782E+03  0.10598512321E+03  0.00000000000E+00 0. -1.
          2    1    1    2  501    0 -0.33284883434E+01  0.19983880128E+02  0.71469777237E+02  0.74285687436E+02  0.00000000000E+00 0. -1.
<scales pt_clust_5="13000.00000" pt_clust_6="13000.00000" pt_clust_7="13000.00000" pt_clust_8="13000.00000" pt_clust_9="20.25918"></scales>
<clustering>
<clus scale="   20.259">  1  9  2 -1</clus>
<clus scale="   81.645">  5  6 -1 -1</clus>
<clus scale="   84.756">  1  5  2 -1</clus>
<clus scale="   90.846">  7  8 -1 -1</clus>
<clus scale="   20.259">  1  5  2 -1</clus>
</clustering>
</event>
<event>
 9    1  0.6270443E-005  0.2730209E+03  0.7546771E-02  0.1099563E+00
         21   -1    0    0  501  502  0.00000000000E+00  0.00000000000E+00  0.15667444538E+03  0.15667444538E+03  0.00000000000E+00 0. -1.
          1   -1    0    0  502    0 -0.00000000000E+00 -0.00000000000E+00 -0.36928707227E+03  0.36928707227E+03  0.00000000000E+00 0. -1.
        -24    2    1    2    0    0  0.16294729673E+03 -0.22576955331E+02 -0.14088136060E+03  0.23079856668E+03  0.79742587095E+02 0.  0.
         23    2    1    2    0    0  0.26321773267E+02 -0.39845265274E+01 -0.51025435047E+02  0.10292085198E+03  0.85325228098E+02 0.  0.
         13    1    3    3    0    0  0.16725269043E+03 -0.33916773025E+02 -0.13248273630E+03  0.21604510030E+03  0.00000000000E+00 0. -1.
        -14    1    3    3    0    0 -0.43053936964E+01  0.11339817694E+02 -0.83986243003E+01  0.14753466384E+02  0.00000000000E+00 0.  1.
        -13    1    4    4    0    0 -0.36788022616E+01 -0.20866403878E+02  0.16680383360E+02  0.26966193389E+02  0.00000000000E+00 0.  1.
         13    1    4    4    0    0  0.30000575529E+02  0.16881877350E+02 -0.67705818406E+02  0.75954658587E+02  0.00000000000E+00 0. -1.
          2    1    1    2  501    0 -0.18926907000E+03  0.26561481858E+02 -0.20705831251E+02  0.19224209899E+03  0.00000000000E+00 0. -1.
<scales pt_clust_5="13000.00000" pt_clust_6="13000.00000" pt_clust_7="13000.00000" pt_clust_8="13000.00000" pt_clust_9="191.12376"></scales>
<clustering>
<clus scale="   79.743">  5  6 -1 -1</clus>
<clus scale="   85.325">  7  8 -1 -1</clus>
<clus scale="   85.344">  5  7 -1 -1</clus>
<clus scale="  191.124">  1  9  2 -1</clus>
<clus scale="  191.124">  1  5  2 -1</clus>
</clustering>
</event>
<event>
 9    1  0.6270443E-005  0.9409602E+02  0.7546771E-02  0.1296673E+00
         21   -1    0    0  501  502  0.00000000000E+00  0.00000000000E+00  0.21097840328E+02  0.21097840328E+02  0.00000000000E+00 0. -1.
          1   -1    0    0  502    0 -0.00000000000E+00 -0.00000000000E+00 -0.12614686346E+04  0.12614686346E+04  0.00000000000E+00 0. -1.
        -24    2    1    2    0    0 -0.25176190230E+02  0.44731309565E+02 -0.43696227517E+03  0.44745112558E+03  0.81496927869E+02 0.  0.
         23    2    1    2    0    0  0.32215225741E+02  0.40288003477E+02 -0.18782885775E+03  0.21365243728E+03  0.87788041078E+02 0.  0.
         11    1    3    3    0    0 -0.30972743577E+02  0.12871495610E+02 -0.57184158797E+02  0.66294903735E+02  0.00000000000E+00 0. -1.
        -12    1    3    3    0    0  0.57965533472E+01  0.31859813955E+02 -0.37977811637E+03  0.38115622185E+03  0.00000000000E+00 0.  1.
        -13    1    4    4    0    0  0.26801322983E+02  0.67657770810E+02 -0.14920011364E+03  0.16600168305E+03  0.00000000000E+00 0. -1.
         13    1    4    4    0    0  0.54139027572E+01 -0.27369767333E+02 -0.38628744114E+02  0.47650754230E+02  0.00000000000E+00 0.  1.
          2    1    1    2  501    0 -0.70390355106E+01 -0.85019313042E+02 -0.61557966131E+03  0.62146291203E+03  0.00000000000E+00 0. -1.
<scales pt_clust_5="13000.00000" pt_clust_6="13000.00000" pt_clust_7="13000.00000" pt_clust_8="13000.00000" pt_clust_9="85.31025"></scales>
<clustering>
<clus scale="   81.497">  5  6 -1 -1</clus>
<clus scale="   85.310">  1  9  2 -1</clus>
<clus scale="   87.788">  7  8 -1 -1</clus>
<clus scale="   88.256">  2  5  1 -1</clus>
<clus scale="   85.310">  1  5  2 -1</clus>
</clustering>
</event>
<event>
 9    1  0.6270443E-005  0.1015827E+03  0.7546771E-02  0.1277158E+00
         21   -1    0    0  501  502  0.00000000000E+00  0.00000000000E+00  0.16457703025E+03  0.16457703025E+03  0.00000000000E+00 0. -1.
          1   -1    0    0  502    0 -0.00000000000E+00 -0.00000000000E+00 -0.15723301695E+03  0.15723301695E+03  0.00000000000E+00 0. -1.
        -24    2    1    2    0    0 -0.20828760218E+02 -0.49873599308E+02 -0.78937521261E+02  0.13086523844E+03  0.89293701959E+02 0.  0.
         23    2    1    2    0    0 -0.10242217725E+02  0.40664932598E+02  0.19351782651E+00  0.98959202073E+02  0.89634516000E+02 0.  0.
         13    1    3    3    0    0 -0.19622877836E+02 -0.73567197635E+02 -0.74891315420E+02  0.10679840368E+03  0.00000000000E+00 0. -1.
        -14    1    3    3    0    0 -0.12058823823E+01  0.23693598327E+02 -0.40462058417E+01  0.24066834767E+02  0.00000000000E+00 0.  1.
        -13    1    4    4    0    0  0.27064335689E+02  0.41634056965E+02 -0.23309054257E+02  0.54856038647E+02  0.00000000000E+00 0.  1.
         13    1    4    4    0    0 -0.37306553414E+02 -0.96912436684E+00  0.23502572083E+02  0.44103163426E+02  0.00000000000E+00 0. -1.
          2    1    1    2  501    0  0.31070977943E+02  0.92086667098E+01  0.86088016729E+02  0.91985606685E+02  0.00000000000E+00 0. -1.
<scales pt_clust_5="13000.00000" pt_clust_6="13000.00000" pt_clust_7="13000.00000" pt_clust_8="13000.00000" pt_clust_9="32.40687"></scales>
<clustering>
<clus scale="   32.407">  1  9  2 -1</clus>
<clus scale="   89.294">  5  6 -1 -1</clus>
<clus scale="   89.635">  7  8 -1 -1</clus>
<clus scale="  101.282">  2  5  1 -1</clus>
<clus scale="   32.407">  1  5  2 -1</clus>
</clustering>
</event>
<event>
 9    1  0.6270443E-005  0.1821007E+03  0.7546771E-02  0.1191210E+00
         21   -1    0    0  501  502  0.00000000000E+00  0.00000000000E+00  0.19909279147E+03  0.19909279147E+03  0.00000000000E+00 0.  1.
          1   -1    0    0  502    0 -0.00000000000E+00 -0.00000000000E+00 -0.35305492038E+03  0.35305492038E+03  0.00000000000E+00 0. -1.
        -24    2    1    2    0    0 -0.14310324255E+02 -0.57014721455E+02 -0.39574731146E+01  0.10274192225E+03  0.84171118267E+02 0.  0.
         23    2    1    2    0    0 -0.44654489680E+02  0.16383315160E+03  0.64292006283E+02  0.20280877891E+03  0.90347184338E+02 0.  0.
         11    1    3    3    0    0  0.26381100959E+02  0.63791507502E+01 -0.38425138435E+01  0.27412058747E+02  0.00000000000E+00 0. -1.
        -12    1    3    3    0    0 -0.40691425214E+02 -0.63393872205E+02 -0.11495927113E+00  0.75329863499E+02  0.00000000000E+00 0.  1.
        -11    1    4    4    0    0 -0.68869025250E+02  0.14712903011E+03  0.49143565236E+02  0.16972031152E+03  0.00000000000E+00 0.  1.
         11    1    4    4    0    0  0.24214535570E+02  0.16704121496E+02  0.15148441048E+02  0.33088467387E+02  0.00000000000E+00 0. -1.
          2    1    1    2  501    0  0.58964813934E+02 -0.10681843015E+03 -0.21429666208E+03  0.24659701069E+03  0.00000000000E+00 0. -1.
<scales pt_clust_5="13000.00000" pt_clust_6="13000.00000" pt_clust_7="13000.00000" pt_clust_8="13000.00000" pt_clust_9="158.10778"></scales>
<clustering>
<clus scale="   84.171">  5  6 -1 -1</clus>
<clus scale="   90.347">  7  8 -1 -1</clus>
<clus scale="  102.666">  2  5  1 -1</clus>
<clus scale="  158.108">  1  9  2 -1</clus>
<clus scale="  158.108">  1  5  2 -1</clus>
</clustering>
</event>
<event>
 9    1  0.6270443E-005  0.1837311E+03  0.7546771E-02  0.1178786E+00
         21   -1    0    0  501  502  0.00000000000E+00  0.00000000000E+00  0.75123422709E+02  0.75123422709E+02  0.00000000000E+00 0. -1.
          1   -1    0    0  502    0 -0.00000000000E+00 -0.00000000000E+00 -0.11874547504E+04  0.11874547504E+04  0.00000000000E+00 0. -1.
        -24    2    1    2    0    0 -0.51606649498E+02  0.88947537969E+02 -0.30880049696E+03  0.33576839786E+03  0.82509146721E+02 0.  0.
         23    2    1    2    0    0  0.13498534568E+03  0.79254327173E+02 -0.12114265218E+03  0.21906864981E+03  0.93878854015E+02 0.  0.
         11    1    3    3    0    0 -0.43497799058E+02  0.76084323673E+02 -0.30834248483E+03  0.32055572181E+03  0.00000000000E+00 0. -1.
        -12    1    3    3    0    0 -0.81088504406E+01  0.12863214296E+02 -0.45801213116E+00  0.15212676050E+02  0.00000000000E+00 0.  1.
        -13    1    4    4    0    0  0.12345415239E+02 -0.19067506811E+02 -0.29100117590E+02  0.36916066112E+02  0.00000000000E+00 0.  1.
         13    1    4    4    0    0  0.12263993044E+03  0.98321833984E+02 -0.92042534590E+02  0.18215258370E+03  0.00000000000E+00 0. -1.
          2    1    1    2  501    0 -0.83378696177E+02 -0.16820186514E+03 -0.68238817858E+03  0.70774112547E+03  0.00000000000E+00 0. -1.
<scales pt_clust_5="13000.00000" pt_clust_6="13000.00000" pt_clust_7="13000.00000" pt_clust_8="13000.00000" pt_clust_9="157.93634"></scales>
<clustering>
<clus scale="   82.509">  5  6 -1 -1</clus>
<clus scale="   93.879">  7  8 -1 -1</clus>
<clus scale="  131.843">  2  5  1 -1</clus>
<clus scale="  157.936">  1  9  2 -1</clus>
<clus scale="  157.936">  1  5  2 -1</clus>
</clustering>
</event>
<event>
 9    1  0.6270443E-005  0.1105133E+03  0.7546771E-02  0.1267787E+00
          1   -1    0    0  502    0 -0.00000000000E+00  0.00000000000E+00  0.74538494316E+02  0.74538494316E+02  0.00000000000E+00 0. -1.
         21   -1    0    0  501  502  0.00000000000E+00 -0.00000000000E+00 -0.20591142374E+03  0.20591142374E+03  0.00000000000E+00 0.  1.
         23    2    1    2    0    0  0.12356703111E+01 -0.30815365906E+02 -0.99981094787E+01  0.92746423928E+02  0.86895473422E+02 0.  0.
        -24    2    1    2    0    0 -0.21749223639E+02  0.47499616807E+02 -0.96984170225E+02  0.15173025558E+03  0.10434030313E+03 0.  0.
         13    1    4    4    0    0  0.33621362947E+02 -0.10813662133E+02 -0.20961915050E+02  0.41069857776E+02  0.00000000000E+00 0. -1.
        -14    1    4    4    0    0 -0.55370586586E+02  0.58313278939E+02 -0.76022255174E+02  0.11066039780E+03  0.00000000000E+00 0.  1.
        -13    1    3    3    0    0  0.27507839108E+02 -0.17035825602E+02  0.29202614314E+02  0.43585470620E+02  0.00000000000E+00 0. -1.
         13    1    3    3    0    0 -0.26272168797E+02 -0.13779540304E+02 -0.39200723793E+02  0.49160953309E+02  0.00000000000E+00 0.  1.
          2    1    1    2  501    0  0.20513553328E+02 -0.16684250900E+02 -0.24390649725E+02  0.35973238556E+02  0.00000000000E+00 0. -1.
<scales pt_clust_5="13000.00000" pt_clust_6="13000.00000" pt_clust_7="13000.00000" pt_clust_8="13000.00000" pt_clust_9="26.44182"></scales>
<clustering>
<clus scale="   26.442">  2  9  1 -1</clus>
<clus scale="   86.895">  7  8 -1 -1</clus>
<clus scale="   94.218">  1  7  2 -1</clus>
<clus scale="  104.340">  5  6 -1 -1</clus>
<clus scale="   26.442">  2  5  1 -1</clus>
</clustering>
</event>
<event>
 9    1  0.6270443E-005  0.9836269E+02  0.7546771E-02  0.1291132E+00
         21   -1    0    0  501  502  0.00000000000E+00  0.00000000000E+00  0.16768939380E+03  0.16768939380E+03  0.00000000000E+00 0. -1.
         -2   -1    0    0    0  501 -0.00000000000E+00 -0.00000000000E+00 -0.10569594657E+03  0.10569594657E+03  0.00000000000E+00 0.  1.
         23    2    1    2    0    0  0.40836609597E+02 -0.26009620775E+02 -0.24419264559E+02  0.10682459423E+03  0.92038385436E+02 0.  0.
        -24    2    1    2    0    0  0.36020739391E+01  0.61438878010E+01  0.87797169705E+02  0.11786412753E+03  0.78312752826E+02 0.  0.
         13    1    4    4    0    0 -0.27119621484E+02  0.28492906568E+02  0.33929952858E+02  0.51947678438E+02  0.00000000000E+00 0. -1.
        -14    1    4    4    0    0  0.30721695423E+02 -0.22349018767E+02  0.53867216847E+02  0.65916449087E+02  0.00000000000E+00 0.  1.
        -11    1    3    3    0    0 -0.20138527359E+02 -0.31809149358E+02 -0.25660965417E+02  0.45561687998E+02  0.00000000000E+00 0. -1.
         11    1    3    3    0    0  0.60975136956E+02  0.57995285821E+01  0.12417008582E+01  0.61262906229E+02  0.00000000000E+00 0.  1.
         -1    1    1    2    0  502 -0.44438683536E+02  0.19865732974E+02 -0.13844579222E+01  0.48696618617E+02  0.00000000000E+00 0.  1.
<scales pt_clust_5="13000.00000" pt_clust_6="13000.00000" pt_clust_7="13000.00000" pt_clust_8="13000.00000" pt_clust_9="48.67696"></scales>
<clustering>
<clus scale="   48.677">  1  9  2 -1</clus>
<clus scale="   78.313">  5  6 -1 -1</clus>
<clus scale="   85.657">  1  5  2 -1</clus>
<clus scale="   92.038">  7  8 -1 -1</clus>
<clus scale="   48.677">  1  5  2 -1</clus>
</clustering>
</event>
<event>
 9    1  0.6270443E-005  0.2426986E+03  0.7546771E-02  0.1119964E+00
         21   -1    0    0  501  502  0.00000000000E+00  0.00000000000E+00  0.16232584386E+03  0.16232584386E+03  0.00000000000E+00 0. -1.
          1   -1    0    0  502    0 -0.00000000000E+00 -0.00000000000E+00 -0.13851175664E+04  0.13851175664E+04  0.00000000000E+00 0. -1.
         23    2    1    2    0    0 -0.18321517138E+03 -0.90671417377E+02 -0.66863827788E+03  0.70763237886E+03  0.10898317305E+03 0.  0.
        -24    2    1    2    0    0  0.19219944166E+03  0.26600934574E+03 -0.98996946820E+02  0.35196726157E+03  0.79868393872E+02 0.  0.
         11    1    4    4    0    0  0.18199118375E+03  0.20108725636E+03 -0.89293933311E+02  0.28553508044E+03  0.00000000000E+00 0. -1.
        -12    1    4    4    0    0  0.10208257915E+02  0.64922089380E+02 -0.97030135092E+01  0.66432181135E+02  0.00000000000E+00 0.  1.
        -13    1    3    3    0    0 -0.19036224832E+03 -0.62261040421E+02 -0.61077866568E+03  0.64277896760E+03  0.00000000000E+00 0. -1.
         13    1    3    3    0    0  0.71470769438E+01 -0.28410376957E+02 -0.57859612204E+02  0.64853411260E+02  0.00000000000E+00 0.  1.
          2    1    1    2  501    0 -0.89842702849E+01 -0.17533792837E+03 -0.45515649780E+03  0.48784376979E+03  0.00000000000E+00 0. -1.
<scales pt_clust_5="13000.00000" pt_clust_6="13000.00000" pt_clust_7="13000.00000" pt_clust_8="13000.00000" pt_clust_9="175.56804"></scales>
<clustering>
<clus scale="   79.868">  5  6 -1 -1</clus>
<clus scale="  108.983">  7  8 -1 -1</clus>
<clus scale="  175.568">  1  9  2 -1</clus>
<clus scale="  231.094">  1  5  2 -1</clus>
<clus scale="  175.568">  1  5  2 -1</clus>
</clustering>
</event>
<event>
 9    1  0.6270443E-005  0.1377023E+03  0.7546771E-02  0.1219170E+00
         21   -1    0    0  501  502  0.00000000000E+00  0.00000000000E+00  0.57709730640E+02  0.57709730640E+02  0.00000000000E+00 0.  1.
          1   -1    0    0  502    0 -0.00000000000E+00 -0.00000000000E+00 -0.82549283602E+03  0.82549283602E+03  0.00000000000E+00 0. -1.
        -24    2    1    2    0    0 -0.72454327706E+02 -0.81341852252E+02 -0.62039095852E+03  0.63484991657E+03  0.79267576143E+02 0.  0.
         23    2    1    2    0    0  0.81143432180E+02  0.19119751445E+02 -0.51974921680E+02  0.13410932544E+03  0.91291276721E+02 0.  0.
         13    1    3    3    0    0 -0.31901826401E+02 -0.83950416219E+02 -0.49368587871E+03  0.50178794898E+03  0.00000000000E+00 0. -1.
        -14    1    3    3    0    0 -0.40552501305E+02  0.26085639667E+01 -0.12670507982E+03  0.13306196759E+03  0.00000000000E+00 0.  1.
        -11    1    4    4    0    0 -0.65971002146E+01  0.19867678712E+02  0.13252859353E+02  0.24776696101E+02  0.00000000000E+00 0. -1.
         11    1    4    4    0    0  0.87740532395E+02 -0.74792726692E+00 -0.65227781032E+02  0.10933262934E+03  0.00000000000E+00 0.  1.
          2    1    1    2  501    0 -0.86891044740E+01  0.62222100807E+02 -0.95417225183E+02  0.11424332465E+03  0.00000000000E+00 0. -1.
<scales pt_clust_5="13000.00000" pt_clust_6="13000.00000" pt_clust_7="13000.00000" pt_clust_8="13000.00000" pt_clust_9="62.82587"></scales>
<clustering>
<clus scale="   62.826">  1  9  2 -1</clus>
<clus scale="   79.268">  5  6 -1 -1</clus>
<clus scale="   91.291">  7  8 -1 -1</clus>
<clus scale="  130.043">  2  5  1 -1</clus>
<clus scale="   62.826">  1  5  2 -1</clus>
</clustering>
</event>
<event>
 9    1  0.6270443E-005  0.1110981E+03  0.7546771E-02  0.1262905E+00
         21   -1    0    0  501  502  0.00000000000E+00  0.00000000000E+00  0.39731133619E+02  0.39731133619E+02  0.00000000000E+00 0.  1.
          1   -1    0    0  502    0 -0.00000000000E+00 -0.00000000000E+00 -0.98932224891E+03  0.98932224891E+03  0.00000000000E+00 0. -1.
        -24    2    1    2    0    0  0.10790403089E+02  0.83761269608E+02 -0.33949885500E+03  0.35878581012E+03  0.79595237978E+02 0.  0.
         23    2    1    2    0    0 -0.42563188674E+02  0.18036035673E+01 -0.69800051328E+02  0.12232001243E+03  0.90968457499E+02 0.  0.
         13    1    3    3    0    0  0.36638505197E+02  0.29648706497E+02 -0.83762989201E+02  0.96112768246E+02  0.00000000000E+00 0. -1.
        -14    1    3    3    0    0 -0.25848102108E+02  0.54112563111E+02 -0.25573586580E+03  0.26267304187E+03  0.00000000000E+00 0.  1.
        -13    1    4    4    0    0  0.23521998927E+02  0.72012934598E+00  0.33079945370E+01  0.23764381912E+02  0.00000000000E+00 0. -1.
         13    1    4    4    0    0 -0.66085187601E+02  0.10834742213E+01 -0.73108045865E+02  0.98555630519E+02  0.00000000000E+00 0.  1.
          2    1    1    2  501    0  0.31772785585E+02 -0.85564873175E+02 -0.54029220896E+03  0.54794755998E+03  0.00000000000E+00 0. -1.
<scales pt_clust_5="13000.00000" pt_clust_6="13000.00000" pt_clust_7="13000.00000" pt_clust_8="13000.00000" pt_clust_9="91.27358"></scales>
<clustering>
<clus scale="   79.595">  5  6 -1 -1</clus>
<clus scale="   90.968">  7  8 -1 -1</clus>
<clus scale="   91.274">  1  9  2 -1</clus>
<clus scale="  101.995">  2  5  1 -1</clus>
<clus scale="   91.274">  1  5  2 -1</clus>
</clustering>
</event>
<event>
 9    1  0.6270443E-005  0.1021386E+03  0.7546771E-02  0.1281779E+00
          1   -1    0    0  502    0 -0.00000000000E+00  0.00000000000E+00  0.53808801753E+02  0.53808801753E+02  0.00000000000E+00 0. -1.
         21   -1    0    0  501  502  0.00000000000E+00 -0.00000000000E+00 -0.50950218300E+03  0.50950218300E+03  0.00000000000E+00 0. -1.
        -24    2    1    2    0    0 -0.34367595728E+02 -0.33726005519E+02 -0.17201309850E+02  0.94173803953E+02  0.79083785987E+02 0.  0.
         23    2    1    2    0    0  0.51211095179E+02 -0.16446179069E+02 -0.35293363939E+03  0.36853302150E+03  0.91440587554E+02 0.  0.
         13    1    3    3    0    0 -0.41179435944E+02 -0.19647688261E+01  0.19121352358E+02  0.45444827838E+02  0.00000000000E+00 0. -1.
        -14    1    3    3    0    0  0.68118402163E+01 -0.31761236692E+02 -0.36322662207E+02  0.48728976115E+02  0.00000000000E+00 0.  1.
        -13    1    4    4    0    0  0.65523206295E+01 -0.48094052289E+02 -0.20851058963E+03  0.21408558279E+03  0.00000000000E+00 0. -1.
         13    1    4    4    0    0  0.44658774549E+02  0.31647873221E+02 -0.14442304976E+03  0.15444743871E+03  0.00000000000E+00 0.  1.
          2    1    1    2  501    0 -0.16843499451E+02  0.50172184587E+02 -0.85558432014E+02  0.10060415930E+03  0.00000000000E+00 0. -1.
<scales pt_clust_5="13000.00000" pt_clust_6="13000.00000" pt_clust_7="13000.00000" pt_clust_8="13000.00000" pt_clust_9="52.92402"></scales>
<clustering>
<clus scale="   52.924">  2  9  1 -1</clus>
<clus scale="   79.084">  5  6 -1 -1</clus>
<clus scale="   91.242">  1  5  2 -1</clus>
<clus scale="   91.441">  7  8 -1 -1</clus>
<clus scale="   52.924">  2  5  1 -1</clus>
</clustering>
</event>
<event>
 9    1  0.6270443E-005  0.2154653E+03  0.7546771E-02  0.1155792E+00
          1   -1    0    0  502    0 -0.00000000000E+00  0.00000000000E+00  0.73708085760E+03  0.73708085760E+03  0.00000000000E+00 0. -1.
         21   -1    0    0  501  502  0.00000000000E+00 -0.00000000000E+00 -0.23699584253E+03  0.23699584253E+03  0.00000000000E+00 0. -1.
         23    2    1    2    0    0  0.20380141375E+02 -0.10310161741E+03  0.47354569966E+03  0.49343364218E+03  0.90476162034E+02 0.  0.
        -24    2    1    2    0    0 -0.21218751203E+03  0.11145653749E+03  0.10445471293E+03  0.27344585406E+03  0.80098364759E+02 0.  0.
         13    1    4    4    0    0 -0.21152407822E+03  0.10181708651E+03  0.11301150116E+03  0.26053935243E+03  0.00000000000E+00 0. -1.
        -14    1    4    4    0    0 -0.66343381318E+00  0.96394509813E+01 -0.85567882220E+01  0.12906501630E+02  0.00000000000E+00 0.  1.
        -11    1    3    3    0    0 -0.13788658047E+02 -0.10014252633E+03  0.39493809590E+03  0.40766990601E+03  0.00000000000E+00 0. -1.
         11    1    3    3    0    0  0.34168799422E+02 -0.29590910812E+01  0.78607603754E+02  0.85763736171E+02  0.00000000000E+00 0.  1.
          2    1    1    2  501    0  0.19180737065E+03 -0.83549200778E+01 -0.77915397528E+02  0.20719720389E+03  0.00000000000E+00 0. -1.
<scales pt_clust_5="13000.00000" pt_clust_6="13000.00000" pt_clust_7="13000.00000" pt_clust_8="13000.00000" pt_clust_9="200.02386"></scales>
<clustering>
<clus scale="   80.098">  5  6 -1 -1</clus>
<clus scale="   90.476">  7  8 -1 -1</clus>
<clus scale="  138.677">  1  7  2 -1</clus>
<clus scale="  200.024">  2  9  1 -1</clus>
<clus scale="  200.024">  2  5  1 -1</clus>
</clustering>
</event>
<event>
 9    1  0.6270443E-005  0.1826429E+03  0.7546771E-02  0.1198751E+00
          1   -1    0    0  502    0 -0.00000000000E+00  0.00000000000E+00  0.41731261184E+03  0.41731261184E+03  0.00000000000E+00 0. -1.
         21   -1    0    0  501  502  0.00000000000E+00 -0.00000000000E+00 -0.14427808396E+03  0.14427808396E+03  0.00000000000E+00 0.  1.
        -24    2    1    2    0    0  0.78950680398E+01 -0.28007321162E+02  0.19116911986E+03  0.20972928249E+03  0.81203432235E+02 0.  0.
         23    2    1    2    0    0 -0.12086590308E+02 -0.14222245482E+03  0.61339758299E+02  0.18034742617E+03  0.91593208581E+02 0.  0.
         13    1    3    3    0    0 -0.14449516312E+02 -0.50483251639E+02  0.14018984511E+03  0.14970150263E+03  0.00000000000E+00 0. -1.
        -14    1    3    3    0    0  0.22344584351E+02  0.22475930477E+02  0.50979274751E+02  0.60027779859E+02  0.00000000000E+00 0.  1.
        -11    1    4    4    0    0 -0.36845622360E+02 -0.15281537056E+02  0.94475471966E+01  0.40992455524E+02  0.00000000000E+00 0. -1.
         11    1    4    4    0    0  0.24759032052E+02 -0.12694091776E+03  0.51892211103E+02  0.13935497064E+03  0.00000000000E+00 0.  1.
          2    1    1    2  501    0  0.41915222682E+01  0.17022977598E+03  0.20525649720E+02  0.17151398714E+03  0.00000000000E+00 0. -1.
<scales pt_clust_5="13000.00000" pt_clust_6="13000.00000" pt_clust_7="13000.00000" pt_clust_8="13000.00000" pt_clust_9="158.01617"></scales>
<clustering>
<clus scale="   81.203">  5  6 -1 -1</clus>
<clus scale="   86.260">  1  5  2 -1</clus>
<clus scale="   91.593">  7  8 -1 -1</clus>
<clus scale="  158.016">  2  9  1 -1</clus>
<clus scale="  158.016">  2  5  1 -1</clus>
</clustering>
</event>
<event>
 9    1  0.6270443E-005  0.1357566E+03  0.7546771E-02  0.1226654E+00
         -2   -1    0    0    0  501 -0.00000000000E+00  0.00000000000E+00  0.27534176324E+03  0.27534176324E+03  0.00000000000E+00 0.  1.
         21   -1    0    0  501  502  0.00000000000E+00 -0.00000000000E+00 -0.16566017926E+03  0.16566017926E+03  0.00000000000E+00 0. -1.
         23    2    1    2    0    0 -0.72360724706E+02 -0.14598578764E+01 -0.59265200615E+02  0.13032355608E+03  0.90739515096E+02 0.  0.
        -24    2    1    2    0    0  0.36206884904E+00 -0.96354323245E+02  0.13425583160E+03  0.18436574773E+03  0.81742363036E+02 0.  0.
         11    1    4    4    0    0  0.22045462053E+02 -0.15212433694E+02  0.94273495232E+00  0.26801292604E+02  0.00000000000E+00 0. -1.
        -12    1    4    4    0    0 -0.21683393204E+02 -0.81141889552E+02  0.13331309665E+03  0.15756445512E+03  0.00000000000E+00 0.  1.
        -11    1    3    3    0    0 -0.20310019964E+02  0.41589569542E+02 -0.36827928408E+02  0.59147996724E+02  0.00000000000E+00 0.  1.
         11    1    3    3    0    0 -0.52050704742E+02 -0.43049427419E+02 -0.22437272207E+02  0.71175559353E+02  0.00000000000E+00 0. -1.
         -1    1    1    2    0  502  0.71998655857E+02  0.97814181122E+02  0.34690953001E+02  0.12631263869E+03  0.00000000000E+00 0.  1.
<scales pt_clust_5="13000.00000" pt_clust_6="13000.00000" pt_clust_7="13000.00000" pt_clust_8="13000.00000" pt_clust_9="108.38844"></scales>
<clustering>
<clus scale="   81.742">  5  6 -1 -1</clus>
<clus scale="   90.740">  7  8 -1 -1</clus>
<clus scale="  116.068">  1  7  2 -1</clus>
<clus scale="  108.388">  2  9  1 -1</clus>
<clus scale="  108.388">  2  5  1 -1</clus>
</clustering>
</event>
<event>
 9    1  0.6270443E-005  0.1475609E+03  0.7546771E-02  0.1205789E+00
          1   -1    0    0  502    0 -0.00000000000E+00  0.00000000000E+00  0.10563406718E+03  0.10563406718E+03  0.00000000000E+00 0. -1.
         21   -1    0    0  501  502  0.00000000000E+00 -0.00000000000E+00 -0.91114731509E+03  0.91114731509E+03  0.00000000000E+00 0. -1.
        -24    2    1    2    0    0 -0.63283459017E+02  0.10077567034E+03  0.42260437989E+02  0.15114167396E+03  0.83050159966E+02 0.  0.
         23    2    1    2    0    0  0.37154737478E+02 -0.41135153391E+02 -0.55369857711E+03  0.56444231298E+03  0.94553873669E+02 0.  0.
         11    1    3    3    0    0 -0.77736799501E+02  0.10427536846E+03  0.40167072817E+02  0.13612404712E+03  0.00000000000E+00 0. -1.
        -12    1    3    3    0    0  0.14453340484E+02 -0.34996981272E+01  0.20933651714E+01  0.15017626839E+02  0.00000000000E+00 0.  1.
        -11    1    4    4    0    0 -0.15791711074E+02  0.20126548211E+02 -0.83780973844E+02  0.87599701254E+02  0.00000000000E+00 0. -1.
         11    1    4    4    0    0  0.52946448553E+02 -0.61261701602E+02 -0.46991760326E+03  0.47684261172E+03  0.00000000000E+00 0.  1.
          2    1    1    2  501    0  0.26128721539E+02 -0.59640516945E+02 -0.29407510878E+03  0.30119739534E+03  0.00000000000E+00 0. -1.
<scales pt_clust_5="13000.00000" pt_clust_6="13000.00000" pt_clust_7="13000.00000" pt_clust_8="13000.00000" pt_clust_9="65.11299"></scales>
<clustering>
<clus scale="   65.113">  2  9  1 -1</clus>
<clus scale="   83.050">  5  6 -1 -1</clus>
<clus scale="   94.554">  7  8 -1 -1</clus>
<clus scale="  140.468">  1  5  2 -1</clus>
<clus scale="   65.113">  2  5  1 -1</clus>
</clustering>
</event>
<event>
 9    1  0.6270443E-005  0.1122630E+03  0.7546771E-02  0.1261371E+00
         21   -1    0    0  501  502  0.00000000000E+00  0.00000000000E+00  0.13305817058E+03  0.13305817058E+03  0.00000000000E+00 0. -1.
          1   -1    0    0  502    0 -0.00000000000E+00 -0.00000000000E+00 -0.13545673010E+03  0.13545673010E+03  0.00000000000E+00 0. -1.
        -24    2    1    2    0    0  0.57210013046E+01 -0.53453285217E+02 -0.22666011036E+02  0.99721684766E+02  0.80874487942E+02 0.  0.
         23    2    1    2    0    0  0.36466388924E+01  0.81008941752E+02  0.43784106781E+02  0.13137530624E+03  0.93630531682E+02 0.  0.
         13    1    3    3    0    0 -0.24074986379E+02 -0.51955230630E+02  0.69521990443E+01  0.57682614629E+02  0.00000000000E+00 0. -1.
        -14    1    3    3    0    0  0.29795987684E+02 -0.14980545873E+01 -0.29618210080E+02  0.42039070136E+02  0.00000000000E+00 0.  1.
        -11    1    4    4    0    0 -0.30914729192E+02 -0.37058423228E+01  0.32512058789E+01  0.31305336414E+02  0.00000000000E+00 0.  1.
         11    1    4    4    0    0  0.34561368084E+02  0.84714784074E+02  0.40532900902E+02  0.10006996982E+03  0.00000000000E+00 0. -1.
          2    1    1    2  501    0 -0.93676401970E+01 -0.27555656535E+02 -0.23516655260E+02  0.37417909676E+02  0.00000000000E+00 0. -1.
<scales pt_clust_5="13000.00000" pt_clust_6="13000.00000" pt_clust_7="13000.00000" pt_clust_8="13000.00000" pt_clust_9="29.10443"></scales>
<clustering>
<clus scale="   29.104">  1  9  2 -1</clus>
<clus scale="   80.874">  5  6 -1 -1</clus>
<clus scale="   93.631">  7  8 -1 -1</clus>
<clus scale="  101.868">  2  5  1 -1</clus>
<clus scale="   29.104">  1  5  2 -1</clus>
</clustering>
</event>
<event>
 9    1  0.6270443E-005  0.1423426E+03  0.7546771E-02  0.1212836E+00
         21   -1    0    0  501  502  0.00000000000E+00  0.00000000000E+00  0.66300385955E+02  0.66300385955E+02  0.00000000000E+00 0.  1.
          1   -1    0    0  502    0 -0.00000000000E+00 -0.00000000000E+00 -0.79117432302E+03  0.79117432302E+03  0.00000000000E+00 0. -1.
         23    2    1    2    0    0  0.38096649784E+02 -0.95818671578E+02 -0.29245120723E+03  0.32363982260E+03  0.92641532883E+02 0.  0.
        -24    2    1    2    0    0  0.80146656766E+02  0.13623247952E+03 -0.18252237237E+03  0.25443384114E+03  0.80245797621E+02 0.  0.
         13    1    4    4    0    0 -0.13382240273E+02  0.37078631854E+02 -0.27810645602E+02  0.48242525884E+02  0.00000000000E+00 0. -1.
        -14    1    4    4    0    0  0.93528897039E+02  0.99153847664E+02 -0.15471172676E+03  0.20619131525E+03  0.00000000000E+00 0.  1.
        -11    1    3    3    0    0  0.22884268206E+02 -0.55263163860E+02 -0.51813848316E+02  0.79135212696E+02  0.00000000000E+00 0. -1.
         11    1    3    3    0    0  0.15212381578E+02 -0.40555507718E+02 -0.24063735891E+03  0.24450460990E+03  0.00000000000E+00 0.  1.
          2    1    1    2  501    0 -0.11824330655E+03 -0.40413807940E+02 -0.24990035747E+03  0.27940104524E+03  0.00000000000E+00 0. -1.
<scales pt_clust_5="13000.00000" pt_clust_6="13000.00000" pt_clust_7="13000.00000" pt_clust_8="13000.00000" pt_clust_9="124.95908"></scales>
<clustering>
<clus scale="   80.246">  5  6 -1 -1</clus>
<clus scale="   92.642">  7  8 -1 -1</clus>
<clus scale="  124.959">  1  9  2 -1</clus>
<clus scale="  134.604">  1  5  2 -1</clus>
<clus scale="  124.959">  1  5  2 -1</clus>
</clustering>
</event>
<event>
 9    1  0.6270443E-005  0.1391294E+03  0.7546771E-02  0.1223683E+00
          3   -1    0    0  502    0 -0.00000000000E+00  0.00000000000E+00  0.10614610743E+03  0.10614610743E+03  0.00000000000E+00 0. -1.
         21   -1    0    0  501  502  0.00000000000E+00 -0.00000000000E+00 -0.24561474196E+03  0.24561474196E+03  0.00000000000E+00 0. -1.
        -24    2    1    2    0    0  0.58685300591E+02  0.96795359940E+02 -0.48211083947E+02  0.13532113489E+03  0.56339992207E+02 0.  0.
         23    2    1    2    0    0 -0.79912328319E+02 -0.42348731031E+02 -0.85588018582E+02  0.15772714601E+03  0.96815021692E+02 0.  0.
         13    1    3    3    0    0  0.55563799660E+02  0.98199516920E+02 -0.56622340092E+02  0.12624012973E+03  0.00000000000E+00 0. -1.
        -14    1    3    3    0    0  0.31215009314E+01 -0.14041569800E+01  0.84112561449E+01  0.90810051659E+01  0.00000000000E+00 0.  1.
        -11    1    4    4    0    0 -0.38124132171E+02 -0.65723183470E+02 -0.78631693559E+02  0.10934317323E+03  0.00000000000E+00 0.  1.
         11    1    4    4    0    0 -0.41788196147E+02  0.23374452439E+02 -0.69563250222E+01  0.48383972779E+02  0.00000000000E+00 0. -1.
          4    1    1    2  501    0  0.21227027728E+02 -0.54446628910E+02 -0.56695320032E+01  0.58712568492E+02  0.00000000000E+00 0. -1.
<scales pt_clust_5="13000.00000" pt_clust_6="13000.00000" pt_clust_7="13000.00000" pt_clust_8="13000.00000" pt_clust_9="58.43822"></scales>
<clustering>
<clus scale="   56.340">  5  6 -1 -1</clus>
<clus scale="   58.438">  2  9  1 -1</clus>
<clus scale="   96.815">  7  8 -1 -1</clus>
<clus scale="  114.709">  1  5  2 -1</clus>
<clus scale="   58.438">  2  5  1 -1</clus>
</clustering>
</event>
<event>
 9    1  0.6270443E-005  0.9451109E+02  0.7546771E-02  0.1297962E+00
         21   -1    0    0  501  502  0.00000000000E+00  0.00000000000E+00  0.64324208070E+02  0.64324208070E+02  0.00000000000E+00 0.  1.
          1   -1    0    0  502    0 -0.00000000000E+00 -0.00000000000E+00 -0.35120873614E+03  0.35120873614E+03  0.00000000000E+00 0. -1.
         23    2    1    2    0    0  0.26537505308E+02 -0.16589855578E+02 -0.28048007617E+03  0.29621050993E+03  0.89956270310E+02 0.  0.
        -24    2    1    2    0    0 -0.70634364402E-01  0.30954212852E+02 -0.16991042333E+02  0.87402128598E+02  0.79951662155E+02 0.  0.
         13    1    4    4    0    0  0.35052655380E+02 -0.50530217554E+01 -0.79252681984E+01  0.36290929363E+02  0.00000000000E+00 0. -1.
        -14    1    4    4    0    0 -0.35123289744E+02  0.36007234607E+02 -0.90657741348E+01  0.51111199234E+02  0.00000000000E+00 0.  1.
        -11    1    3    3    0    0 -0.14948138538E+02  0.28769230949E+02 -0.12177923467E+03  0.12602102004E+03  0.00000000000E+00 0. -1.
         11    1    3    3    0    0  0.41485643846E+02 -0.45359086527E+02 -0.15870084151E+03  0.17018948989E+03  0.00000000000E+00 0.  1.
          2    1    1    2  501    0 -0.26466870943E+02 -0.14364357274E+02  0.10586590439E+02  0.31920305677E+02  0.00000000000E+00 0. -1.
<scales pt_clust_5="13000.00000" pt_clust_6="13000.00000" pt_clust_7="13000.00000" pt_clust_8="13000.00000" pt_clust_9="30.11362"></scales>
<clustering>
<clus scale="   30.114">  1  9  2 -1</clus>
<clus scale="   79.952">  5  6 -1 -1</clus>
<clus scale="   85.044">  1  5  2 -1</clus>
<clus scale="   89.956">  7  8 -1 -1</clus>
<clus scale="   30.114">  1  5  2 -1</clus>
</clustering>
</event>
<event>
 9    1  0.6270443E-005  0.9717411E+02  0.7546771E-02  0.1292373E+00
         21   -1    0    0  501  502  0.00000000000E+00  0.00000000000E+00  0.11032236161E+03  0.11032236161E+03  0.00000000000E+00 0. -1.
          1   -1    0    0  502    0 -0.00000000000E+00 -0.00000000000E+00 -0.23657150442E+03  0.23657150442E+03  0.00000000000E+00 0. -1.
        -24    2    1    2    0    0  0.24763816501E+01 -0.33337428685E+02 -0.15445248492E+03  0.17673922444E+03  0.79143330367E+02 0.  0.
         23    2    1    2    0    0  0.16446348137E+02  0.43187135236E+02 -0.31867461866E+02  0.10640836396E+03  0.90396868186E+02 0.  0.
         13    1    3    3    0    0  0.20081269605E+02  0.19736986847E+02 -0.35595927236E+02  0.45385857649E+02  0.00000000000E+00 0. -1.
        -14    1    3    3    0    0 -0.17604887954E+02 -0.53074415532E+02 -0.11885655768E+03  0.13135336679E+03  0.00000000000E+00 0.  1.
        -13    1    4    4    0    0 -0.25568121259E+02  0.26647300281E+02 -0.46097773549E+02  0.59066167670E+02  0.00000000000E+00 0.  1.
         13    1    4    4    0    0  0.42014469395E+02  0.16539834956E+02  0.14230311684E+02  0.47342196290E+02  0.00000000000E+00 0. -1.
          2    1    1    2  501    0 -0.18922729787E+02 -0.98497065516E+01  0.60070803975E+02  0.63746277632E+02  0.00000000000E+00 0. -1.
<scales pt_clust_5="13000.00000" pt_clust_6="13000.00000" pt_clust_7="13000.00000" pt_clust_8="13000.00000" pt_clust_9="21.33275"></scales>
<clustering>
<clus scale="   21.333">  1  9  2 -1</clus>
<clus scale="   79.143">  5  6 -1 -1</clus>
<clus scale="   86.804">  2  5  1 -1</clus>
<clus scale="   90.397">  7  8 -1 -1</clus>
<clus scale="   21.333">  1  5  2 -1</clus>
</clustering>
</event>
<event>
 9    1  0.6270443E-005  0.2057344E+03  0.7546771E-02  0.1148301E+00
          1   -1    0    0  502    0 -0.00000000000E+00  0.00000000000E+00  0.19694850760E+04  0.19694850760E+04  0.00000000000E+00 0. -1.
         21   -1    0    0  501  502  0.00000000000E+00 -0.00000000000E+00 -0.52341392007E+02  0.52341392007E+02  0.00000000000E+00 0.  1.
         23    2    1    2    0    0 -0.35993154042E+02 -0.16083508014E+03  0.46150910474E+03  0.49913483120E+03  0.94770754007E+02 0.  0.
        -24    2    1    2    0    0  0.17849009694E+03 -0.32298969899E+02  0.52161166863E+03  0.55832400069E+03  0.82128063029E+02 0.  0.
         11    1    4    4    0    0  0.13553865474E+03  0.13509417774E+02  0.34828872351E+03  0.37397629099E+03  0.00000000000E+00 0. -1.
        -12    1    4    4    0    0  0.42951442198E+02 -0.45808387673E+02  0.17332294512E+03  0.18434770970E+03  0.00000000000E+00 0.  1.
        -11    1    3    3    0    0  0.14318499031E+02 -0.84712516049E+02  0.13420139512E+03  0.15934630288E+03  0.00000000000E+00 0.  1.
         11    1    3    3    0    0 -0.50311653073E+02 -0.76122564095E+02  0.32730770962E+03  0.33978852831E+03  0.00000000000E+00 0. -1.
          2    1    1    2  501    0 -0.14249694289E+03  0.19313405004E+03  0.93402291067E+03  0.96436763616E+03  0.00000000000E+00 0. -1.
<scales pt_clust_5="13000.00000" pt_clust_6="13000.00000" pt_clust_7="13000.00000" pt_clust_8="13000.00000" pt_clust_9="188.63096"></scales>
<clustering>
<clus scale="   82.128">  5  6 -1 -1</clus>
<clus scale="   94.771">  7  8 -1 -1</clus>
<clus scale="  190.118">  1  7  2 -1</clus>
<clus scale="  188.631">  2  9  1 -1</clus>
<clus scale="  188.631">  2  5  1 -1</clus>
</clustering>
</event>
<event>
 9    1  0.6270443E-005  0.1003965E+03  0.7546771E-02  0.1281521E+00
          1   -1    0    0  502    0 -0.00000000000E+00  0.00000000000E+00  0.14604661800E+03  0.14604661800E+03  0.00000000000E+00 0. -1.
         21   -1    0    0  501  502  0.00000000000E+00 -0.00000000000E+00 -0.47030262381E+03  0.47030262381E+03  0.00000000000E+00 0.  1.
        -24    2    1    2    0    0  0.31837099536E+02  0.41520042492E+02  0.11545471853E+03  0.14994683593E+03  0.80104598733E+02 0.  0.
         23    2    1    2    0    0 -0.57259407438E+02 -0.64781161409E+02 -0.34535967686E+03  0.36595593481E+03  0.84706559387E+02 0.  0.
         13    1    3    3    0    0  0.11403271225E+02  0.25214190245E+02  0.12022856367E+03  0.12337219097E+03  0.00000000000E+00 0. -1.
        -14    1    3    3    0    0  0.20433828310E+02  0.16305852247E+02 -0.47738451375E+01  0.26574644952E+02  0.00000000000E+00 0.  1.
        -13    1    4    4    0    0 -0.39127826756E+02 -0.44173688865E+02 -0.32846701935E+03  0.33372576229E+03  0.00000000000E+00 0.  1.
         13    1    4    4    0    0 -0.18131580682E+02 -0.20607472544E+02 -0.16892657515E+02  0.32230172519E+02  0.00000000000E+00 0. -1.
          2    1    1    2  501    0  0.25422307903E+02  0.23261118916E+02 -0.94351047474E+02  0.10044647108E+03  0.00000000000E+00 0. -1.
<scales pt_clust_5="13000.00000" pt_clust_6="13000.00000" pt_clust_7="13000.00000" pt_clust_8="13000.00000" pt_clust_9="34.45828"></scales>
<clustering>
<clus scale="   34.458">  2  9  1 -1</clus>
<clus scale="   80.105">  5  6 -1 -1</clus>
<clus scale="   84.707">  7  8 -1 -1</clus>
<clus scale="   96.545">  1  5  2 -1</clus>
<clus scale="   34.458">  2  5  1 -1</clus>
</clustering>
</event>
<event>
 9    1  0.6270443E-005  0.1568929E+03  0.7546771E-02  0.1197375E+00
          1   -1    0    0  502    0 -0.00000000000E+00  0.00000000000E+00  0.23249941012E+03  0.23249941012E+03  0.00000000000E+00 0. -1.
         21   -1    0    0  501  502  0.00000000000E+00 -0.00000000000E+00 -0.17168247209E+03  0.17168247209E+03  0.00000000000E+00 0.  1.
        -24    2    1    2    0    0  0.77219665282E+02 -0.85849026473E+02  0.14982032887E+03  0.20543107551E+03  0.80142771294E+02 0.  0.
         23    2    1    2    0    0 -0.60537962691E+02  0.97495782458E+02 -0.72875318062E+02  0.17278850985E+03  0.10665263536E+03 0.  0.
         11    1    3    3    0    0  0.73595542607E+02 -0.94087077560E+02  0.15449620100E+03  0.19528890952E+03  0.00000000000E+00 0. -1.
        -12    1    3    3    0    0  0.36241226749E+01  0.82380510878E+01 -0.46758721330E+01  0.10142165996E+02  0.00000000000E+00 0.  1.
        -13    1    4    4    0    0 -0.97106731436E+01 -0.20466257477E+02  0.41317854508E+01  0.23026865159E+02  0.00000000000E+00 0. -1.
         13    1    4    4    0    0 -0.50827289547E+02  0.11796203994E+03 -0.77007103513E+02  0.14976164469E+03  0.00000000000E+00 0.  1.
          2    1    1    2  501    0 -0.16681702592E+02 -0.11646755986E+02 -0.16128072777E+02  0.25962296852E+02  0.00000000000E+00 0. -1.
<scales pt_clust_5="13000.00000" pt_clust_6="13000.00000" pt_clust_7="13000.00000" pt_clust_8="13000.00000" pt_clust_9="20.34517"></scales>
<clustering>
<clus scale="   20.345">  2  9  1 -1</clus>
<clus scale="   80.143">  5  6 -1 -1</clus>
<clus scale="  106.653">  7  8 -1 -1</clus>
<clus scale="  140.226">  1  5  2 -1</clus>
<clus scale="   20.345">  2  5  1 -1</clus>
</clustering>
</event>
<event>
 9    1  0.6270443E-005  0.8216580E+02  0.7546771E-02  0.1323875E+00
         21   -1    0    0  501  502  0.00000000000E+00  0.00000000000E+00  0.36297067558E+03  0.36297067558E+03  0.00000000000E+00 0.  1.
          1   -1    0    0  502    0 -0.00000000000E+00 -0.00000000000E+00 -0.53027901035E+03  0.53027901035E+03  0.00000000000E+00 0. -1.
         23    2    1    2    0    0 -0.72856102016E+01  0.99481432557E+01  0.71513753287E+02  0.10944969050E+03  0.81932729546E+02 0.  0.
        -24    2    1    2    0    0 -0.43594343473E+02  0.41025396082E+02  0.26055665478E+03  0.27925445716E+03  0.80682907674E+02 0.  0.
         11    1    4    4    0    0 -0.21827347738E+02 -0.14905267786E+02  0.25756616398E+02  0.36905330310E+02  0.00000000000E+00 0. -1.
        -12    1    4    4    0    0 -0.21766995735E+02  0.55930663868E+02  0.23480003838E+03  0.24234912685E+03  0.00000000000E+00 0.  1.
        -11    1    3    3    0    0  0.25244338519E+02  0.29844894936E+02  0.55974814303E+02  0.68272792657E+02  0.00000000000E+00 0.  1.
         11    1    3    3    0    0 -0.32529948720E+02 -0.19896751680E+02  0.15538938985E+02  0.41176897842E+02  0.00000000000E+00 0. -1.
          2    1    1    2  501    0  0.50879953675E+02 -0.50973539338E+02 -0.49937874283E+03  0.50454553827E+03  0.00000000000E+00 0. -1.
<scales pt_clust_5="13000.00000" pt_clust_6="13000.00000" pt_clust_7="13000.00000" pt_clust_8="13000.00000" pt_clust_9="72.02136"></scales>
<clustering>
<clus scale="   72.021">  1  9  2 -1</clus>
<clus scale="   80.683">  5  6 -1 -1</clus>
<clus scale="   80.920">  1  5  2 -1</clus>
<clus scale="   81.933">  7  8 -1 -1</clus>
<clus scale="   72.021">  1  5  2 -1</clus>
</clustering>
</event>
<event>
 9    1  0.6270443E-005  0.1563089E+03  0.7546771E-02  0.1217866E+00
          3   -1    0    0  502    0 -0.00000000000E+00  0.00000000000E+00  0.17994226749E+03  0.17994226749E+03  0.00000000000E+00 0. -1.
         21   -1    0    0  501  502  0.00000000000E+00 -0.00000000000E+00 -0.28165678038E+03  0.28165678038E+03  0.00000000000E+00 0.  1.
         23    2    1    2    0    0 -0.61984732710E+01 -0.85611564020E+01  0.14028858992E+02  0.92456579100E+02  0.90772769400E+02 0.  0.
        -24    2    1    2    0    0  0.11340803830E+03 -0.70448971994E+02 -0.16478623092E+03  0.22722103541E+03  0.81550329404E+02 0.  0.
         13    1    4    4    0    0 -0.34597375688E+01 -0.33681694755E+02 -0.38536377122E+02  0.51297940576E+02  0.00000000000E+00 0. -1.
        -14    1    4    4    0    0  0.11686777587E+03 -0.36767277239E+02 -0.12624985380E+03  0.17592309483E+03  0.00000000000E+00 0.  1.
        -11    1    3    3    0    0  0.36210143993E+02 -0.17454430992E+02 -0.11948009889E+02  0.41935505596E+02  0.00000000000E+00 0.  1.
         11    1    3    3    0    0 -0.42408617264E+02  0.88932745902E+01  0.25976868881E+02  0.50521073505E+02  0.00000000000E+00 0. -1.
          4    1    1    2  501    0 -0.10720956503E+03  0.79010128396E+02  0.49042859041E+02  0.14192143335E+03  0.00000000000E+00 0. -1.
<scales pt_clust_5="13000.00000" pt_clust_6="13000.00000" pt_clust_7="13000.00000" pt_clust_8="13000.00000" pt_clust_9="133.34934"></scales>
<clustering>
<clus scale="   81.550">  5  6 -1 -1</clus>
<clus scale="   90.773">  7  8 -1 -1</clus>
<clus scale="   91.386">  1  7  2 -1</clus>
<clus scale="  133.349">  2  9  1 -1</clus>
<clus scale="  133.349">  2  5  1 -1</clus>
</clustering>
</event>
<event>
 9    1  0.6270443E-005  0.2974255E+03  0.7546771E-02  0.1088441E+00
          1   -1    0    0  502    0 -0.00000000000E+00  0.00000000000E+00  0.12057586329E+04  0.12057586329E+04  0.00000000000E+00 0. -1.
         21   -1    0    0  501  502  0.00000000000E+00 -0.00000000000E+00 -0.86870081354E+02  0.86870081354E+02  0.00000000000E+00 0.  1.
         23    2    1    2    0    0  0.28025414529E+03  0.55259844605E+02  0.68524435807E+03  0.75235397499E+03  0.12198621661E+03 0.  0.
        -24    2    1    2    0    0 -0.23765446777E+03 -0.86031595534E+02  0.32326338134E+03  0.41802271732E+03  0.79766515544E+02 0.  0.
         13    1    4    4    0    0 -0.11544274701E+03 -0.24767084400E+02  0.20814882233E+03  0.23930392505E+03  0.00000000000E+00 0. -1.
        -14    1    4    4    0    0 -0.12221172077E+03 -0.61264511134E+02  0.11511455901E+03  0.17871879228E+03  0.00000000000E+00 0.  1.
        -11    1    3    3    0    0  0.13433086127E+03  0.80333349905E+02  0.42548280586E+03  0.45335840731E+03  0.00000000000E+00 0.  1.
         11    1    3    3    0    0  0.14592328402E+03 -0.25073505300E+02  0.25976155221E+03  0.29899556768E+03  0.00000000000E+00 0. -1.
          2    1    1    2  501    0 -0.42599677512E+02  0.30771750929E+02  0.11038081212E+03  0.12225202192E+03  0.00000000000E+00 0. -1.
<scales pt_clust_5="13000.00000" pt_clust_6="13000.00000" pt_clust_7="13000.00000" pt_clust_8="13000.00000" pt_clust_9="52.55127"></scales>
<clustering>
<clus scale="   52.551">  2  9  1 -1</clus>
<clus scale="   79.767">  5  6 -1 -1</clus>
<clus scale="  121.986">  7  8 -1 -1</clus>
<clus scale="  282.744">  2  5  1 -1</clus>
<clus scale="   52.551">  2  5  1 -1</clus>
</clustering>
</event>
<event>
 9    1  0.6270443E-005  0.4023134E+03  0.7546771E-02  0.1100690E+00
         21   -1    0    0  501  502  0.00000000000E+00  0.00000000000E+00  0.12567715009E+03  0.12567715009E+03  0.00000000000E+00 0. -1.
          1   -1    0    0  502    0 -0.00000000000E+00 -0.00000000000E+00 -0.16530854474E+04  0.16530854474E+04  0.00000000000E+00 0. -1.
        -24    2    1    2    0    0  0.66978247194E+01 -0.15122001343E+02 -0.14136745206E+03  0.16386564315E+03  0.81201334498E+02 0.  0.
         23    2    1    2    0    0 -0.18114416770E+03  0.35923766924E+03 -0.93046579331E+03  0.10179080538E+04  0.92224188232E+02 0.  0.
         11    1    3    3    0    0  0.25228271937E+02 -0.36768316845E+01 -0.52665959196E+01  0.26033091033E+02  0.00000000000E+00 0. -1.
        -12    1    3    3    0    0 -0.18530447218E+02 -0.11445169659E+02 -0.13610085614E+03  0.13783255212E+03  0.00000000000E+00 0.  1.
        -11    1    4    4    0    0 -0.35047817253E+02  0.10603692592E+03 -0.17219078287E+03  0.20523607105E+03  0.00000000000E+00 0.  1.
         11    1    4    4    0    0 -0.14609635045E+03  0.25320074332E+03 -0.75827501043E+03  0.81267198271E+03  0.00000000000E+00 0. -1.
          2    1    1    2  501    0  0.17444634298E+03 -0.34411566790E+03 -0.45557505195E+03  0.59698890060E+03  0.00000000000E+00 0. -1.
<scales pt_clust_5="13000.00000" pt_clust_6="13000.00000" pt_clust_7="13000.00000" pt_clust_8="13000.00000" pt_clust_9="391.60025"></scales>
<clustering>
<clus scale="   81.201">  5  6 -1 -1</clus>
<clus scale="   82.869">  2  5  1 -1</clus>
<clus scale="   92.224">  7  8 -1 -1</clus>
<clus scale="  391.600">  1  9  2 -1</clus>
<clus scale="  391.600">  1  5  2 -1</clus>
</clustering>
</event>
<event>
 9    1  0.6270443E-005  0.1008070E+03  0.7546771E-02  0.1285319E+00
          1   -1    0    0  502    0 -0.00000000000E+00  0.00000000000E+00  0.48118467495E+03  0.48118467495E+03  0.00000000000E+00 0. -1.
         21   -1    0    0  501  502  0.00000000000E+00 -0.00000000000E+00 -0.52592677403E+02  0.52592677403E+02  0.00000000000E+00 0. -1.
         23    2    1    2    0    0  0.11920855742E+02  0.41794593198E+02  0.36905207471E+03  0.38260717115E+03  0.91103889855E+02 0.  0.
        -24    2    1    2    0    0  0.20866068555E+02 -0.46753647469E+02  0.70057170927E+02  0.11638243722E+03  0.77560093643E+02 0.  0.
         11    1    4    4    0    0  0.45140261615E+02 -0.42464245624E+02  0.67443322614E+02  0.91593979826E+02  0.00000000000E+00 0. -1.
        -12    1    4    4    0    0 -0.24274193060E+02 -0.42894018448E+01  0.26138483128E+01  0.24788457392E+02  0.00000000000E+00 0.  1.
        -13    1    3    3    0    0 -0.23437322546E+02 -0.16100562040E+02  0.16875548778E+03  0.17113430644E+03  0.00000000000E+00 0.  1.
         13    1    3    3    0    0  0.35358178288E+02  0.57895155238E+02  0.20029658693E+03  0.21147286471E+03  0.00000000000E+00 0. -1.
          2    1    1    2  501    0 -0.32786924297E+02  0.49590542714E+01 -0.10517248089E+02  0.34787743984E+02  0.00000000000E+00 0. -1.
<scales pt_clust_5="13000.00000" pt_clust_6="13000.00000" pt_clust_7="13000.00000" pt_clust_8="13000.00000" pt_clust_9="33.15983"></scales>
<clustering>
<clus scale="   33.160">  2  9  1 -1</clus>
<clus scale="   77.560">  5  6 -1 -1</clus>
<clus scale="   88.756">  2  5  1 -1</clus>
<clus scale="   91.104">  7  8 -1 -1</clus>
<clus scale="   33.160">  2  5  1 -1</clus>
</clustering>
</event>
<event>
 9    1  0.6270443E-005  0.1288943E+03  0.7546771E-02  0.1230705E+00
          1   -1    0    0  502    0 -0.00000000000E+00  0.00000000000E+00  0.60617581474E+03  0.60617581474E+03  0.00000000000E+00 0. -1.
         21   -1    0    0  501  502  0.00000000000E+00 -0.00000000000E+00 -0.70208963395E+02  0.70208963395E+02  0.00000000000E+00 0. -1.
         23    2    1    2    0    0  0.12418874003E+02 -0.68379168439E+02  0.23486630259E+03  0.27032424352E+03  0.11438128096E+03 0.  0.
        -24    2    1    2    0    0 -0.10524909855E+03 -0.14891598896E+02  0.90110221482E+02  0.16097200064E+03  0.80579156816E+02 0.  0.
         11    1    4    4    0    0 -0.11877703423E+03 -0.14028418717E+02  0.77953667539E+02  0.14276398242E+03  0.00000000000E+00 0. -1.
        -12    1    4    4    0    0  0.13527935687E+02 -0.86318017891E+00  0.12156553943E+02  0.18208018226E+02  0.00000000000E+00 0.  1.
        -11    1    3    3    0    0  0.41515588223E+02 -0.87129975487E+02  0.19463561398E+03  0.21725146472E+03  0.00000000000E+00 0. -1.
         11    1    3    3    0    0 -0.29096714221E+02  0.18750807048E+02  0.40230688604E+02  0.53072778794E+02  0.00000000000E+00 0.  1.
          2    1    1    2  501    0  0.92830224544E+02  0.83270767334E+02  0.21099032728E+03  0.24508853397E+03  0.00000000000E+00 0. -1.
<scales pt_clust_5="13000.00000" pt_clust_6="13000.00000" pt_clust_7="13000.00000" pt_clust_8="13000.00000" pt_clust_9="124.70560"></scales>
<clustering>
<clus scale="   80.579">  5  6 -1 -1</clus>
<clus scale="  114.381">  7  8 -1 -1</clus>
<clus scale="  124.706">  2  9  1 -1</clus>
<clus scale="  124.706">  2  5  1 -1</clus>
<clus scale="  124.706">  2  5  1 -1</clus>
</clustering>
</event>
<event>
 9    1  0.6270443E-005  0.3099041E+03  0.7546771E-02  0.1108063E+00
          1   -1    0    0  502    0 -0.00000000000E+00  0.00000000000E+00  0.20021408682E+03  0.20021408682E+03  0.00000000000E+00 0. -1.
         21   -1    0    0  501  502  0.00000000000E+00 -0.00000000000E+00 -0.91572777146E+03  0.91572777146E+03  0.00000000000E+00 0. -1.
         23    2    1    2    0    0  0.10873539171E+03 -0.24681253590E+02 -0.29636085785E+03  0.33214430315E+03  0.10028723926E+03 0.  0.
        -24    2    1    2    0    0  0.20185132174E+03  0.13498251610E+03 -0.49906284812E+01  0.25449537151E+03  0.76018103138E+02 0.  0.
         13    1    4    4    0    0  0.20700772088E+03  0.13595149297E+03 -0.91073230226E+01  0.24782644789E+03  0.00000000000E+00 0. -1.
        -14    1    4    4    0    0 -0.51563991361E+01 -0.96897686737E+00  0.41166945414E+01  0.66689236139E+01  0.00000000000E+00 0.  1.
        -11    1    3    3    0    0  0.24200941791E+02 -0.23873100774E+02 -0.12922960946E+02  0.36367752801E+02  0.00000000000E+00 0. -1.
         11    1    3    3    0    0  0.84534449921E+02 -0.80815281537E+00 -0.28343789691E+03  0.29577655035E+03  0.00000000000E+00 0.  1.
          2    1    1    2  501    0 -0.31058671345E+03 -0.11030126251E+03 -0.41416219831E+03  0.52930218363E+03  0.00000000000E+00 0. -1.
<scales pt_clust_5="13000.00000" pt_clust_6="13000.00000" pt_clust_7="13000.00000" pt_clust_8="13000.00000" pt_clust_9="300.43598"></scales>
<clustering>
<clus scale="   76.018">  5  6 -1 -1</clus>
<clus scale="  100.287">  7  8 -1 -1</clus>
<clus scale="  149.967">  1  7  2 -1</clus>
<clus scale="  300.436">  2  9  1 -1</clus>
<clus scale="  300.436">  2  5  1 -1</clus>
</clustering>
</event>
<event>
 9    1  0.6270443E-005  0.2613913E+03  0.7546771E-02  0.1106911E+00
         -2   -1    0    0    0  501 -0.00000000000E+00  0.00000000000E+00  0.54679181599E+03  0.54679181599E+03  0.00000000000E+00 0.  1.
         21   -1    0    0  501  502  0.00000000000E+00 -0.00000000000E+00 -0.20795276814E+03  0.20795276814E+03  0.00000000000E+00 0.  1.
        -24    2    1    2    0    0 -0.25614217182E+03  0.18792501689E+02  0.32864726627E+03  0.42470120993E+03  0.80000761147E+02 0.  0.
         23    2    1    2    0    0  0.22187823386E+03  0.34283196881E+02  0.59580672027E+02  0.24985416219E+03  0.92043237856E+02 0.  0.
         11    1    3    3    0    0 -0.84407935384E+02 -0.10456812582E+02  0.58406617092E+02  0.10317643823E+03  0.00000000000E+00 0. -1.
        -12    1    3    3    0    0 -0.17173423644E+03  0.29249314271E+02  0.27024064918E+03  0.32152477170E+03  0.00000000000E+00 0.  1.
        -13    1    4    4    0    0  0.26181060067E+02  0.37850393054E+02  0.30471568637E+01  0.46123587518E+02  0.00000000000E+00 0.  1.
         13    1    4    4    0    0  0.19569717380E+03 -0.35671961732E+01  0.56533515164E+02  0.20373057467E+03  0.00000000000E+00 0. -1.
         -1    1    1    2    0  502  0.34263937957E+02 -0.53075698571E+02 -0.49388890452E+02  0.80189212013E+02  0.00000000000E+00 0.  1.
<scales pt_clust_5="13000.00000" pt_clust_6="13000.00000" pt_clust_7="13000.00000" pt_clust_8="13000.00000" pt_clust_9="63.17474"></scales>
<clustering>
<clus scale="   63.175">  2  9  1 -1</clus>
<clus scale="   80.001">  5  6 -1 -1</clus>
<clus scale="   92.043">  7  8 -1 -1</clus>
<clus scale="  257.398">  1  5  2 -1</clus>
<clus scale="   63.175">  2  5  1 -1</clus>
</clustering>
</event>
<event>
 9    1  0.6270443E-005  0.9512736E+02  0.7546771E-02  0.1299395E+00
         -2   -1    0    0    0  501 -0.00000000000E+00  0.00000000000E+00  0.20212795252E+03  0.20212795252E+03  0.00000000000E+00 0.  1.
         21   -1    0    0  501  502  0.00000000000E+00 -0.00000000000E+00 -0.19662350256E+03  0.19662350256E+03  0.00000000000E+00 0. -1.
        -24    2    1    2    0    0 -0.17940784353E+02 -0.14121603293E+02  0.17290920086E+03  0.19089999533E+03  0.77613948834E+02 0.  0.
         23    2    1    2    0    0  0.27924793738E+02  0.32287116945E+02 -0.12819150133E+03  0.16349669369E+03  0.92064411191E+02 0.  0.
         11    1    3    3    0    0  0.21158411481E+02  0.84764744999E+01  0.11615868578E+03  0.11837385386E+03  0.00000000000E+00 0. -1.
        -12    1    3    3    0    0 -0.39099195834E+02 -0.22598077792E+02  0.56750515082E+02  0.72526141472E+02  0.00000000000E+00 0.  1.
        -13    1    4    4    0    0  0.28269744667E+02  0.58429317322E+01 -0.13344660429E+03  0.13653319930E+03  0.00000000000E+00 0. -1.
         13    1    4    4    0    0 -0.34495092853E+00  0.26444185212E+02  0.52551029568E+01  0.26963494391E+02  0.00000000000E+00 0.  1.
         -1    1    1    2    0  502 -0.99840093856E+01 -0.18165513652E+02 -0.39213249570E+02  0.44354766051E+02  0.00000000000E+00 0.  1.
<scales pt_clust_5="13000.00000" pt_clust_6="13000.00000" pt_clust_7="13000.00000" pt_clust_8="13000.00000" pt_clust_9="20.72839"></scales>
<clustering>
<clus scale="   20.728">  2  9  1 -1</clus>
<clus scale="   77.614">  5  6 -1 -1</clus>
<clus scale="   81.224">  1  5  2 -1</clus>
<clus scale="   92.064">  7  8 -1 -1</clus>
<clus scale="   20.728">  2  5  1 -1</clus>
</clustering>
</event>
<event>
 9    1  0.6270443E-005  0.1841422E+03  0.7546771E-02  0.1177491E+00
         21   -1    0    0  501  502  0.00000000000E+00  0.00000000000E+00  0.49389730359E+03  0.49389730359E+03  0.00000000000E+00 0. -1.
         -2   -1    0    0    0  501 -0.00000000000E+00 -0.00000000000E+00 -0.15147952145E+03  0.15147952145E+03  0.00000000000E+00 0.  1.
        -24    2    1    2    0    0  0.10223720202E+03  0.37475720448E+02  0.21838722634E+03  0.25666376686E+03  0.79538880384E+02 0.  0.
         23    2    1    2    0    0  0.52551581959E+02 -0.14503005050E+03  0.79656331053E+02  0.19507273856E+03  0.88954246332E+02 0.  0.
         11    1    3    3    0    0  0.94713212209E+02  0.44063629099E+02  0.12570695777E+03  0.16344551144E+03  0.00000000000E+00 0. -1.
        -12    1    3    3    0    0  0.75239898060E+01 -0.65879086508E+01  0.92680268566E+02  0.93218255425E+02  0.00000000000E+00 0.  1.
        -13    1    4    4    0    0  0.53513004168E+02 -0.30121793744E+02  0.14976806790E+02  0.63208138836E+02  0.00000000000E+00 0.  1.
         13    1    4    4    0    0 -0.96142220854E+00 -0.11490825675E+03  0.64679524263E+02  0.13186459973E+03  0.00000000000E+00 0. -1.
         -1    1    1    2    0  502 -0.15478878397E+03  0.10755433005E+03  0.44374224750E+02  0.19364031961E+03  0.00000000000E+00 0.  1.
<scales pt_clust_5="13000.00000" pt_clust_6="13000.00000" pt_clust_7="13000.00000" pt_clust_8="13000.00000" pt_clust_9="161.23130"></scales>
<clustering>
<clus scale="   79.539">  5  6 -1 -1</clus>
<clus scale="   88.954">  7  8 -1 -1</clus>
<clus scale="  134.846">  2  5  1 -1</clus>
<clus scale="  161.231">  1  9  2 -1</clus>
<clus scale="  161.231">  1  5  2 -1</clus>
</clustering>
</event>
<event>
 9    1  0.6270443E-005  0.2048918E+03  0.7546771E-02  0.1172477E+00
          1   -1    0    0  502    0 -0.00000000000E+00  0.00000000000E+00  0.43570293817E+03  0.43570293817E+03  0.00000000000E+00 0. -1.
         21   -1    0    0  501  502  0.00000000000E+00 -0.00000000000E+00 -0.17716750289E+03  0.17716750289E+03  0.00000000000E+00 0. -1.
         23    2    1    2    0    0 -0.30902005225E+02 -0.55580318616E+02 -0.34739178222E+02  0.11504245651E+03  0.89352395335E+02 0.  0.
        -24    2    1    2    0    0  0.16047134019E+03 -0.90285902797E+02  0.19149535475E+03  0.27777302636E+03  0.81146706746E+02 0.  0.
         13    1    4    4    0    0  0.76152078835E+02 -0.22036794550E+02  0.13219502029E+03  0.15414370832E+03  0.00000000000E+00 0. -1.
        -14    1    4    4    0    0  0.84319261356E+02 -0.68249108247E+02  0.59300334459E+02  0.12362931804E+03  0.00000000000E+00 0.  1.
        -13    1    3    3    0    0 -0.29603105202E+02  0.11482700508E+02  0.11282124050E+02  0.33696922287E+02  0.00000000000E+00 0.  1.
         13    1    3    3    0    0 -0.12989000238E+01 -0.67063019125E+02 -0.46021302272E+02  0.81345534224E+02  0.00000000000E+00 0. -1.
          2    1    1    2  501    0 -0.12956933497E+03  0.14586622141E+03  0.10177925876E+03  0.22005495820E+03  0.00000000000E+00 0. -1.
<scales pt_clust_5="13000.00000" pt_clust_6="13000.00000" pt_clust_7="13000.00000" pt_clust_8="13000.00000" pt_clust_9="188.13785"></scales>
<clustering>
<clus scale="   81.147">  5  6 -1 -1</clus>
<clus scale="   89.352">  7  8 -1 -1</clus>
<clus scale="  109.672">  1  7  2 -1</clus>
<clus scale="  188.138">  2  9  1 -1</clus>
<clus scale="  188.138">  2  5  1 -1</clus>
</clustering>
</event>
<event>
 9    1  0.6270443E-005  0.1228184E+03  0.7546771E-02  0.1241054E+00
          1   -1    0    0  502    0 -0.00000000000E+00  0.00000000000E+00  0.21123522828E+03  0.21123522828E+03  0.00000000000E+00 0. -1.
         21   -1    0    0  501  502  0.00000000000E+00 -0.00000000000E+00 -0.17544551750E+03  0.17544551750E+03  0.00000000000E+00 0. -1.
        -24    2    1    2    0    0  0.64948377008E+02  0.56207393110E+02  0.26932242972E+02  0.12220093663E+03  0.82644784981E+02 0.  0.
         23    2    1    2    0    0 -0.10673589055E+03  0.43712458560E+02 -0.28831177848E+02  0.14980371287E+03  0.91140475139E+02 0.  0.
         13    1    3    3    0    0  0.15280186694E+02  0.36916235906E+02  0.50115809313E+02  0.64092799298E+02  0.00000000000E+00 0. -1.
        -14    1    3    3    0    0  0.49668190315E+02  0.19291157204E+02 -0.23183566341E+02  0.58108137328E+02  0.00000000000E+00 0.  1.
        -11    1    4    4    0    0 -0.12287786880E+03  0.31888712133E+02 -0.23617070533E+02  0.12912639785E+03  0.00000000000E+00 0. -1.
         11    1    4    4    0    0  0.16141978247E+02  0.11823746427E+02 -0.52141073148E+01  0.20677315018E+02  0.00000000000E+00 0.  1.
          2    1    1    2  501    0  0.41787513542E+02 -0.99919851670E+02  0.37688645658E+02  0.11467609628E+03  0.00000000000E+00 0. -1.
<scales pt_clust_5="13000.00000" pt_clust_6="13000.00000" pt_clust_7="13000.00000" pt_clust_8="13000.00000" pt_clust_9="108.30598"></scales>
<clustering>
<clus scale="   82.645">  5  6 -1 -1</clus>
<clus scale="   91.140">  7  8 -1 -1</clus>
<clus scale="  108.306">  2  9  1 -1</clus>
<clus scale="  116.653">  1  5  2 -1</clus>
<clus scale="  108.306">  2  5  1 -1</clus>
</clustering>
</event>
<event>
 9    1  0.6270443E-005  0.2079718E+03  0.7546771E-02  0.1143881E+00
          1   -1    0    0  502    0 -0.00000000000E+00  0.00000000000E+00  0.13791408047E+04  0.13791408047E+04  0.00000000000E+00 0. -1.
         21   -1    0    0  501  502  0.00000000000E+00 -0.00000000000E+00 -0.64107184152E+02  0.64107184152E+02  0.00000000000E+00 0. -1.
         23    2    1    2    0    0 -0.97537229643E+02 -0.17691705029E+03  0.92560673076E+03  0.95177950837E+03  0.91231895071E+02 0.  0.
        -24    2    1    2    0    0  0.18629743783E+02  0.14243596281E+03  0.11002182061E+03  0.19909452575E+03  0.83058764265E+02 0.  0.
         11    1    4    4    0    0 -0.62878701259E+01  0.13663313944E+03  0.10632794053E+03  0.17324486440E+03  0.00000000000E+00 0. -1.
        -12    1    4    4    0    0  0.24917613909E+02  0.58028233649E+01  0.36938800764E+01  0.25849661351E+02  0.00000000000E+00 0.  1.
        -13    1    3    3    0    0 -0.61848762252E+02 -0.14560364557E+03  0.83104527384E+03  0.84596804796E+03  0.00000000000E+00 0. -1.
         13    1    3    3    0    0 -0.35688467391E+02 -0.31313404721E+02  0.94561456921E+02  0.10581146041E+03  0.00000000000E+00 0.  1.
          2    1    1    2  501    0  0.78907485860E+02  0.34481087485E+02  0.27940506914E+03  0.29237395469E+03  0.00000000000E+00 0. -1.
<scales pt_clust_5="13000.00000" pt_clust_6="13000.00000" pt_clust_7="13000.00000" pt_clust_8="13000.00000" pt_clust_9="86.11239"></scales>
<clustering>
<clus scale="   83.059">  5  6 -1 -1</clus>
<clus scale="   86.112">  2  9  1 -1</clus>
<clus scale="   91.232">  7  8 -1 -1</clus>
<clus scale="  204.518">  2  5  1 -1</clus>
<clus scale="   86.112">  2  5  1 -1</clus>
</clustering>
</event>
<event>
 9    1  0.6270443E-005  0.1155478E+03  0.7546771E-02  0.1253446E+00
          1   -1    0    0  502    0 -0.00000000000E+00  0.00000000000E+00  0.45061636371E+03  0.45061636371E+03  0.00000000000E+00 0. -1.
         21   -1    0    0  501  502  0.00000000000E+00 -0.00000000000E+00 -0.41934272128E+02  0.41934272128E+02  0.00000000000E+00 0. -1.
         23    2    1    2    0    0  0.80089796860E+02 -0.15736115853E+02  0.28371299092E+03  0.30882213149E+03  0.90642411615E+02 0.  0.
        -24    2    1    2    0    0 -0.54732565378E+02  0.18025918035E+02  0.12195584324E+03  0.15809040569E+03  0.82454601057E+02 0.  0.
         13    1    4    4    0    0 -0.46971549968E+02 -0.27802009988E+00  0.15010045791E+02  0.49312323776E+02  0.00000000000E+00 0. -1.
        -14    1    4    4    0    0 -0.77610154097E+01  0.18303938135E+02  0.10694579745E+03  0.10877808191E+03  0.00000000000E+00 0.  1.
        -13    1    3    3    0    0  0.90349123678E+02 -0.35315969634E+02  0.25317712764E+03  0.27112513683E+03  0.00000000000E+00 0. -1.
         13    1    3    3    0    0 -0.10259326818E+02  0.19579853780E+02  0.30535863276E+02  0.37696994666E+02  0.00000000000E+00 0.  1.
          2    1    1    2  501    0 -0.25357231482E+02 -0.22898021816E+01  0.30132574250E+01  0.25638098657E+02  0.00000000000E+00 0. -1.
<scales pt_clust_5="13000.00000" pt_clust_6="13000.00000" pt_clust_7="13000.00000" pt_clust_8="13000.00000" pt_clust_9="25.46041"></scales>
<clustering>
<clus scale="   25.460">  2  9  1 -1</clus>
<clus scale="   82.455">  5  6 -1 -1</clus>
<clus scale="   90.642">  7  8 -1 -1</clus>
<clus scale="  109.243">  2  5  1 -1</clus>
<clus scale="   25.460">  2  5  1 -1</clus>
</clustering>
</event>
<event>
 9    1  0.6270443E-005  0.1483959E+03  0.7546771E-02  0.1204197E+00
          1   -1    0    0  502    0 -0.00000000000E+00  0.00000000000E+00  0.17312430622E+03  0.17312430622E+03  0.00000000000E+00 0. -1.
         21   -1    0    0  501  502  0.00000000000E+00 -0.00000000000E+00 -0.32305616081E+03  0.32305616081E+03  0.00000000000E+00 0. -1.
        -24    2    1    2    0    0  0.10970269310E+03  0.49616188052E+02  0.39047427112E+02  0.15009023849E+03  0.80659352431E+02 0.  0.
         23    2    1    2    0    0 -0.13477024786E+03  0.60749465225E+02 -0.14070209522E+03  0.22304695787E+03  0.89996380936E+02 0.  0.
         11    1    3    3    0    0  0.53270585958E+02  0.22735186947E+02 -0.22717225153E+02  0.62215081552E+02  0.00000000000E+00 0. -1.
        -12    1    3    3    0    0  0.56432107145E+02  0.26881001105E+02  0.61764652265E+02  0.87875156937E+02  0.00000000000E+00 0.  1.
        -13    1    4    4    0    0 -0.52064471676E+02 -0.20222024524E+02 -0.59828285963E+02  0.81847805639E+02  0.00000000000E+00 0.  1.
         13    1    4    4    0    0 -0.82705776181E+02  0.80971489749E+02 -0.80873809260E+02  0.14119915223E+03  0.00000000000E+00 0. -1.
          2    1    1    2  501    0  0.25067554753E+02 -0.11036565328E+03 -0.48277186483E+02  0.12304327068E+03  0.00000000000E+00 0. -1.
<scales pt_clust_5="13000.00000" pt_clust_6="13000.00000" pt_clust_7="13000.00000" pt_clust_8="13000.00000" pt_clust_9="113.17667"></scales>
<clustering>
<clus scale="   80.659">  5  6 -1 -1</clus>
<clus scale="   89.996">  7  8 -1 -1</clus>
<clus scale="  113.177">  2  9  1 -1</clus>
<clus scale="  142.926">  1  5  2 -1</clus>
<clus scale="  113.177">  2  5  1 -1</clus>
</clustering>
</event>
<event>
 9    1  0.6270443E-005  0.2619765E+03  0.7546771E-02  0.1135053E+00
         21   -1    0    0  501  502  0.00000000000E+00  0.00000000000E+00  0.27998052643E+03  0.27998052643E+03  0.00000000000E+00 0. -1.
          1   -1    0    0  502    0 -0.00000000000E+00 -0.00000000000E+00 -0.38771185517E+03  0.38771185517E+03  0.00000000000E+00 0. -1.
        -24    2    1    2    0    0  0.47012525859E+02 -0.84389082677E+02 -0.27247317175E+02  0.12952606437E+03  0.81871180498E+02 0.  0.
         23    2    1    2    0    0 -0.90402738954E+02 -0.18518271921E+03 -0.13163821552E+03  0.26037427352E+03  0.89447458450E+02 0.  0.
         13    1    3    3    0    0  0.48307834561E+02 -0.89034199856E+02  0.56692655168E+00  0.10129687572E+03  0.00000000000E+00 0. -1.
        -14    1    3    3    0    0 -0.12953087016E+01  0.46451171786E+01 -0.27814243727E+02  0.28229188659E+02  0.00000000000E+00 0.  1.
        -11    1    4    4    0    0 -0.68353593092E+02 -0.14310199497E+03 -0.50650348383E+02  0.16648078701E+03  0.00000000000E+00 0.  1.
         11    1    4    4    0    0 -0.22049145862E+02 -0.42080724238E+02 -0.80987867135E+02  0.93893486509E+02  0.00000000000E+00 0. -1.
          2    1    1    2  501    0  0.43390213095E+02  0.26957180188E+03  0.51154203958E+02  0.27779204371E+03  0.00000000000E+00 0. -1.
<scales pt_clust_5="13000.00000" pt_clust_6="13000.00000" pt_clust_7="13000.00000" pt_clust_8="13000.00000" pt_clust_9="246.23332"></scales>
<clustering>
<clus scale="   81.871">  5  6 -1 -1</clus>
<clus scale="   89.447">  7  8 -1 -1</clus>
<clus scale="  126.628">  2  5  1 -1</clus>
<clus scale="  246.233">  1  9  2 -1</clus>
<clus scale="  246.233">  1  5  2 -1</clus>
</clustering>
</event>
<event>
 9    1  0.6270443E-005  0.1971857E+03  0.7546771E-02  0.1176763E+00
          1   -1    0    0  502    0 -0.00000000000E+00  0.00000000000E+00  0.49897243203E+03  0.49897243203E+03  0.00000000000E+00 0. -1.
         21   -1    0    0  501  502  0.00000000000E+00 -0.00000000000E+00 -0.18277488649E+03  0.18277488649E+03  0.00000000000E+00 0. -1.
        -24    2    1    2    0    0 -0.79774706217E+02  0.57920151928E+01  0.99894621741E+01  0.11208442703E+03  0.77881822241E+02 0.  0.
         23    2    1    2    0    0  0.23769141097E+03 -0.35983498102E+02  0.31721064831E+03  0.40850995881E+03  0.92009630237E+02 0.  0.
         11    1    3    3    0    0 -0.54769307624E+02 -0.72597691936E+00  0.43373689211E+02  0.69867596322E+02  0.00000000000E+00 0. -1.
        -12    1    3    3    0    0 -0.25005398593E+02  0.65179921122E+01 -0.33384227037E+02  0.42216830706E+02  0.00000000000E+00 0.  1.
        -11    1    4    4    0    0  0.15460657790E+03  0.71006563407E+01  0.14284437596E+03  0.21061369612E+03  0.00000000000E+00 0. -1.
         11    1    4    4    0    0  0.83084833067E+02 -0.43084154442E+02  0.17436627235E+03  0.19789626268E+03  0.00000000000E+00 0.  1.
          2    1    1    2  501    0 -0.15791670475E+03  0.30191482909E+02 -0.11002564947E+02  0.16115293269E+03  0.00000000000E+00 0. -1.
<scales pt_clust_5="13000.00000" pt_clust_6="13000.00000" pt_clust_7="13000.00000" pt_clust_8="13000.00000" pt_clust_9="174.40310"></scales>
<clustering>
<clus scale="   77.882">  5  6 -1 -1</clus>
<clus scale="   92.010">  7  8 -1 -1</clus>
<clus scale="  111.638">  1  5  2 -1</clus>
<clus scale="  174.403">  2  9  1 -1</clus>
<clus scale="  174.403">  2  5  1 -1</clus>
</clustering>
</event>
<event>
 9    1  0.6270443E-005  0.8950247E+02  0.7546771E-02  0.1308800E+00
         21   -1    0    0  501  502  0.00000000000E+00  0.00000000000E+00  0.44360853322E+03  0.44360853322E+03  0.00000000000E+00 0.  1.
         -2   -1    0    0    0  501 -0.00000000000E+00 -0.00000000000E+00 -0.25030006721E+02  0.25030006721E+02  0.00000000000E+00 0.  1.
        -24    2    1    2    0    0 -0.15557813966E+02  0.60698998788E+01  0.10851056504E+03  0.13564469135E+03  0.79662100821E+02 0.  0.
         23    2    1    2    0    0  0.76511322236E+01 -0.32523049528E+02  0.22824753522E+03  0.24664069640E+03  0.87283487625E+02 0.  0.
         13    1    3    3    0    0 -0.24196677310E+02  0.34628982018E+02  0.92712036667E+02  0.10188310621E+03  0.00000000000E+00 0. -1.
        -14    1    3    3    0    0  0.86388633436E+01 -0.28559082139E+02  0.15798528372E+02  0.33761585141E+02  0.00000000000E+00 0.  1.
        -13    1    4    4    0    0 -0.19027868796E+02  0.17337172345E+02  0.25807562718E+02  0.36450893395E+02  0.00000000000E+00 0. -1.
         13    1    4    4    0    0  0.26679001020E+02 -0.49860221874E+02  0.20243997250E+03  0.21018980301E+03  0.00000000000E+00 0.  1.
         -1    1    1    2    0  502  0.79066817428E+01  0.26453149649E+02  0.81820426242E+02  0.86353152189E+02  0.00000000000E+00 0.  1.
<scales pt_clust_5="13000.00000" pt_clust_6="13000.00000" pt_clust_7="13000.00000" pt_clust_8="13000.00000" pt_clust_9="27.60950"></scales>
<clustering>
<clus scale="   27.610">  1  9  2 -1</clus>
<clus scale="   79.662">  5  6 -1 -1</clus>
<clus scale="   82.087">  2  5  1 -1</clus>
<clus scale="   87.283">  7  8 -1 -1</clus>
<clus scale="   27.610">  1  5  2 -1</clus>
</clustering>
</event>
<event>
 9    1  0.6270443E-005  0.1434744E+03  0.7546771E-02  0.1210979E+00
          1   -1    0    0  502    0 -0.00000000000E+00  0.00000000000E+00  0.72382372057E+03  0.72382372057E+03  0.00000000000E+00 0. -1.
         21   -1    0    0  501  502  0.00000000000E+00 -0.00000000000E+00 -0.93466128348E+02  0.93466128348E+02  0.00000000000E+00 0.  1.
         23    2    1    2    0    0  0.11113860394E+03 -0.14729827890E+02  0.64187135507E+03  0.65836626552E+03  0.94226036724E+02 0.  0.
        -24    2    1    2    0    0 -0.71868224628E+02  0.25977224594E+02 -0.24812429145E+02  0.11596405420E+03  0.83619060731E+02 0.  0.
         13    1    4    4    0    0 -0.23074395458E+02  0.52700714612E+02 -0.10001448342E+02  0.58393681296E+02  0.00000000000E+00 0. -1.
        -14    1    4    4    0    0 -0.48793829170E+02 -0.26723490018E+02 -0.14810980804E+02  0.57570372903E+02  0.00000000000E+00 0.  1.
        -11    1    3    3    0    0  0.25013328882E+02 -0.46637973109E+02  0.18867561112E+03  0.19595727439E+03  0.00000000000E+00 0.  1.
         11    1    3    3    0    0  0.86125275060E+02  0.31908145218E+02  0.45319574395E+03  0.46240899112E+03  0.00000000000E+00 0. -1.
          2    1    1    2  501    0 -0.39270379315E+02 -0.11247396703E+02  0.13298666302E+02  0.42959529205E+02  0.00000000000E+00 0. -1.
<scales pt_clust_5="13000.00000" pt_clust_6="13000.00000" pt_clust_7="13000.00000" pt_clust_8="13000.00000" pt_clust_9="40.84932"></scales>
<clustering>
<clus scale="   40.849">  2  9  1 -1</clus>
<clus scale="   83.619">  5  6 -1 -1</clus>
<clus scale="   94.226">  7  8 -1 -1</clus>
<clus scale="  136.742">  2  5  1 -1</clus>
<clus scale="   40.849">  2  5  1 -1</clus>
</clustering>
</event>
<event>
 9    1  0.6270443E-005  0.9722914E+02  0.7546771E-02  0.1292494E+00
         21   -1    0    0  501  502  0.00000000000E+00  0.00000000000E+00  0.10188297472E+03  0.10188297472E+03  0.00000000000E+00 0.  1.
          1   -1    0    0  502    0 -0.00000000000E+00 -0.00000000000E+00 -0.25215848703E+03  0.25215848703E+03  0.00000000000E+00 0. -1.
         23    2    1    2    0    0 -0.33362340255E+02 -0.15524012067E+02 -0.14384670295E+03  0.17497672421E+03  0.92579367948E+02 0.  0.
        -24    2    1    2    0    0  0.15908051904E+02 -0.56642942838E+02  0.15919770343E+02  0.10152648519E+03  0.81195437178E+02 0.  0.
         13    1    4    4    0    0  0.38846149312E+02 -0.55993965732E+02 -0.77145917438E+01  0.68584709962E+02  0.00000000000E+00 0. -1.
        -14    1    4    4    0    0 -0.22938097408E+02 -0.64897710597E+00  0.23634362086E+02  0.32941775229E+02  0.00000000000E+00 0.  1.
        -11    1    3    3    0    0 -0.49955648207E+02 -0.39592994036E+02 -0.12465023434E+03  0.14000304598E+03  0.00000000000E+00 0.  1.
         11    1    3    3    0    0  0.16593307951E+02  0.24068981969E+02 -0.19196468611E+02  0.34973678230E+02  0.00000000000E+00 0. -1.
          2    1    1    2  501    0  0.17454288351E+02  0.72166954905E+02 -0.22348579706E+02  0.77538252346E+02  0.00000000000E+00 0. -1.
<scales pt_clust_5="13000.00000" pt_clust_6="13000.00000" pt_clust_7="13000.00000" pt_clust_8="13000.00000" pt_clust_9="74.24770"></scales>
<clustering>
<clus scale="   74.248">  1  9  2 -1</clus>
<clus scale="   81.195">  5  6 -1 -1</clus>
<clus scale="   86.460">  1  5  2 -1</clus>
<clus scale="   92.579">  7  8 -1 -1</clus>
<clus scale="   74.248">  1  5  2 -1</clus>
</clustering>
</event>
<event>
 9    1  0.6270443E-005  0.1584565E+03  0.7546771E-02  0.1192976E+00
          1   -1    0    0  502    0 -0.00000000000E+00  0.00000000000E+00  0.31765681965E+03  0.31765681965E+03  0.00000000000E+00 0. -1.
         21   -1    0    0  501  502  0.00000000000E+00 -0.00000000000E+00 -0.14406542055E+03  0.14406542055E+03  0.00000000000E+00 0.  1.
         23    2    1    2    0    0 -0.13916618228E+03  0.26414586700E+01  0.19238918954E+03  0.24575192540E+03  0.63294588971E+02 0.  0.
        -24    2    1    2    0    0  0.12606729079E+03  0.41407560171E+02  0.18420905821E+02  0.15683379165E+03  0.81547290493E+02 0.  0.
         11    1    4    4    0    0  0.27398867861E+02 -0.24734869286E+02  0.26917097971E+01  0.37010228590E+02  0.00000000000E+00 0. -1.
        -12    1    4    4    0    0  0.98668422926E+02  0.66142429457E+02  0.15729196023E+02  0.11982356306E+03  0.00000000000E+00 0.  1.
        -11    1    3    3    0    0 -0.18410481963E+02  0.22892316274E+02  0.26455248541E+02  0.39533329810E+02  0.00000000000E+00 0.  1.
         11    1    3    3    0    0 -0.12075570031E+03 -0.20250857604E+02  0.16593394100E+03  0.20621859559E+03  0.00000000000E+00 0. -1.
          2    1    1    2  501    0  0.13098891490E+02 -0.44049018841E+02 -0.37218696263E+02  0.59136523153E+02  0.00000000000E+00 0. -1.
<scales pt_clust_5="13000.00000" pt_clust_6="13000.00000" pt_clust_7="13000.00000" pt_clust_8="13000.00000" pt_clust_9="45.95538"></scales>
<clustering>
<clus scale="   45.955">  2  9  1 -1</clus>
<clus scale="   63.295">  7  8 -1 -1</clus>
<clus scale="   81.547">  5  6 -1 -1</clus>
<clus scale="  149.882">  1  7  2 -1</clus>
<clus scale="   45.955">  2  5  1 -1</clus>
</clustering>
</event>
<event>
 9    1  0.6270443E-005  0.9666535E+02  0.7546771E-02  0.1296969E+00
         21   -1    0    0  501  502  0.00000000000E+00  0.00000000000E+00  0.36268664886E+02  0.36268664886E+02  0.00000000000E+00 0.  1.
         -2   -1    0    0    0  501 -0.00000000000E+00 -0.00000000000E+00 -0.38512968132E+03  0.38512968132E+03  0.00000000000E+00 0.  1.
        -24    2    1    2    0    0 -0.82658763743E+00 -0.31411869324E+02 -0.26596708170E+03  0.27839107987E+03  0.75998131717E+02 0.  0.
         23    2    1    2    0    0  0.12381246248E+02  0.14193195633E+02 -0.75760862900E+02  0.12107843661E+03  0.92550188568E+02 0.  0.
         13    1    3    3    0    0 -0.20971270764E+02 -0.48467160422E+02 -0.20959449333E+03  0.21614511669E+03  0.00000000000E+00 0. -1.
        -14    1    3    3    0    0  0.20144683126E+02  0.17055291097E+02 -0.56372588368E+02  0.62245963178E+02  0.00000000000E+00 0.  1.
        -11    1    4    4    0    0  0.16859452090E+02 -0.34804631224E+02 -0.56001213181E+02  0.68056883246E+02  0.00000000000E+00 0.  1.
         11    1    4    4    0    0 -0.44782058416E+01  0.48997826857E+02 -0.19759649719E+02  0.53021553366E+02  0.00000000000E+00 0. -1.
         -1    1    1    2    0  502 -0.11554658611E+02  0.17218673691E+02 -0.71330718402E+01  0.21928829726E+02  0.00000000000E+00 0.  1.
<scales pt_clust_5="13000.00000" pt_clust_6="13000.00000" pt_clust_7="13000.00000" pt_clust_8="13000.00000" pt_clust_9="20.73627"></scales>
<clustering>
<clus scale="   20.736">  1  9  2 -1</clus>
<clus scale="   75.998">  5  6 -1 -1</clus>
<clus scale="   80.959">  2  5  1 -1</clus>
<clus scale="   92.550">  7  8 -1 -1</clus>
<clus scale="   20.736">  1  5  2 -1</clus>
</clustering>
</event>
<event>
 9    1  0.6270443E-005  0.1641526E+03  0.7546771E-02  0.1185818E+00
          1   -1    0    0  502    0 -0.00000000000E+00  0.00000000000E+00  0.10836408341E+04  0.10836408341E+04  0.00000000000E+00 0. -1.
         21   -1    0    0  501  502  0.00000000000E+00 -0.00000000000E+00 -0.54220543386E+02  0.54220543386E+02  0.00000000000E+00 0.  1.
        -24    2    1    2    0    0  0.15382170299E+03  0.98097438583E+02  0.61193871970E+03  0.64359433922E+03  0.80376943488E+02 0.  0.
         23    2    1    2    0    0 -0.92816704175E+02  0.18711301666E+02  0.18969896407E+03  0.23111155627E+03  0.91988048620E+02 0.  0.
         11    1    3    3    0    0  0.73020140848E+02  0.10090582757E+01  0.21977452481E+03  0.23158972543E+03  0.00000000000E+00 0. -1.
        -12    1    3    3    0    0  0.80801562146E+02  0.97088380307E+02  0.39216419488E+03  0.41200461379E+03  0.00000000000E+00 0.  1.
        -11    1    4    4    0    0 -0.28213789843E+02 -0.30527964052E+02  0.27888987313E+02  0.50057668142E+02  0.00000000000E+00 0.  1.
         11    1    4    4    0    0 -0.64602914332E+02  0.49239265718E+02  0.16180997676E+03  0.18105388813E+03  0.00000000000E+00 0. -1.
          2    1    1    2  501    0 -0.61004998819E+02 -0.11680874025E+03  0.22778260700E+03  0.26315548204E+03  0.00000000000E+00 0. -1.
<scales pt_clust_5="13000.00000" pt_clust_6="13000.00000" pt_clust_7="13000.00000" pt_clust_8="13000.00000" pt_clust_9="131.77971"></scales>
<clustering>
<clus scale="   80.377">  5  6 -1 -1</clus>
<clus scale="   91.988">  7  8 -1 -1</clus>
<clus scale="  131.780">  2  9  1 -1</clus>
<clus scale="  157.939">  1  5  2 -1</clus>
<clus scale="  131.780">  2  5  1 -1</clus>
</clustering>
</event>
<event>
 9    1  0.6270443E-005  0.1334662E+03  0.7546771E-02  0.1225022E+00
         21   -1    0    0  501  502  0.00000000000E+00  0.00000000000E+00  0.54819432203E+03  0.54819432203E+03  0.00000000000E+00 0. -1.
         -4   -1    0    0    0  501 -0.00000000000E+00 -0.00000000000E+00 -0.10679979720E+03  0.10679979720E+03  0.00000000000E+00 0.  1.
        -24    2    1    2    0    0  0.95717495796E+02 -0.11540685334E+02 -0.39974475578E+02  0.13169517412E+03  0.80315837599E+02 0.  0.
         23    2    1    2    0    0 -0.10715614554E+03  0.28078468325E+02  0.48229879875E+03  0.50316922829E+03  0.91084033236E+02 0.  0.
         11    1    3    3    0    0  0.55330487653E+01 -0.32402209988E+02 -0.89376751383E+01  0.34064642631E+02  0.00000000000E+00 0. -1.
        -12    1    3    3    0    0  0.90184447031E+02  0.20861524653E+02 -0.31036800440E+02  0.97630531488E+02  0.00000000000E+00 0.  1.
        -11    1    4    4    0    0 -0.24332646408E+02 -0.27798401530E+02  0.72535824764E+02  0.81401932919E+02  0.00000000000E+00 0.  1.
         11    1    4    4    0    0 -0.82823499136E+02  0.55876869855E+02  0.40976297399E+03  0.42176729537E+03  0.00000000000E+00 0. -1.
         -3    1    1    2    0  502  0.11438649748E+02 -0.16537782991E+02 -0.92979834710E+00  0.20129716820E+02  0.00000000000E+00 0.  1.
<scales pt_clust_5="13000.00000" pt_clust_6="13000.00000" pt_clust_7="13000.00000" pt_clust_8="13000.00000" pt_clust_9="20.10824"></scales>
<clustering>
<clus scale="   20.108">  1  9  2 -1</clus>
<clus scale="   80.316">  5  6 -1 -1</clus>
<clus scale="   91.084">  7  8 -1 -1</clus>
<clus scale="  126.363">  2  5  1 -1</clus>
<clus scale="   20.108">  1  5  2 -1</clus>
</clustering>
</event>
<event>
 9    1  0.6270443E-005  0.1065008E+03  0.7546771E-02  0.1271823E+00
          3   -1    0    0  502    0 -0.00000000000E+00  0.00000000000E+00  0.52492017895E+03  0.52492017895E+03  0.00000000000E+00 0. -1.
         21   -1    0    0  501  502  0.00000000000E+00 -0.00000000000E+00 -0.54668380575E+02  0.54668380575E+02  0.00000000000E+00 0. -1.
        -24    2    1    2    0    0 -0.11769348800E+02 -0.75477833472E+02  0.24261793118E+03  0.26679985713E+03  0.80518832068E+02 0.  0.
         23    2    1    2    0    0 -0.16941248859E+02 -0.40448022054E+01  0.29817455478E+02  0.97662040292E+02  0.91353309327E+02 0.  0.
         11    1    3    3    0    0 -0.13807107355E+02 -0.68867352102E+02  0.24817747970E+03  0.25792520200E+03  0.00000000000E+00 0. -1.
        -12    1    3    3    0    0  0.20377585551E+01 -0.66104813697E+01 -0.55595485191E+01  0.88746551259E+01  0.00000000000E+00 0.  1.
        -13    1    4    4    0    0  0.26486444971E+02  0.12053276012E+02 -0.15408710265E+02  0.32927823825E+02  0.00000000000E+00 0. -1.
         13    1    4    4    0    0 -0.43427693830E+02 -0.16098078218E+02  0.45226165743E+02  0.64734216466E+02  0.00000000000E+00 0.  1.
          4    1    1    2  501    0  0.28710597659E+02  0.79522635678E+02  0.19781641172E+03  0.21512666210E+03  0.00000000000E+00 0. -1.
<scales pt_clust_5="13000.00000" pt_clust_6="13000.00000" pt_clust_7="13000.00000" pt_clust_8="13000.00000" pt_clust_9="84.54676"></scales>
<clustering>
<clus scale="   80.519">  5  6 -1 -1</clus>
<clus scale="   84.547">  2  9  1 -1</clus>
<clus scale="   91.353">  7  8 -1 -1</clus>
<clus scale="   97.367">  1  5  2 -1</clus>
<clus scale="   84.547">  2  5  1 -1</clus>
</clustering>
</event>
<event>
 9    1  0.6270443E-005  0.2329702E+03  0.7546771E-02  0.1145927E+00
         21   -1    0    0  501  502  0.00000000000E+00  0.00000000000E+00  0.16829577598E+03  0.16829577598E+03  0.00000000000E+00 0.  1.
          1   -1    0    0  502    0 -0.00000000000E+00 -0.00000000000E+00 -0.11189927879E+04  0.11189927879E+04  0.00000000000E+00 0. -1.
        -24    2    1    2    0    0  0.84510207482E+02 -0.75700249190E+02 -0.17606274715E+03  0.22403837564E+03  0.79514778053E+02 0.  0.
         23    2    1    2    0    0  0.11410715604E+03  0.18325870159E+03  0.21507778774E+02  0.23568760373E+03  0.92097053358E+02 0.  0.
         13    1    3    3    0    0  0.99797960289E+02 -0.59124761025E+02 -0.14740035349E+03  0.18756927908E+03  0.00000000000E+00 0. -1.
        -14    1    3    3    0    0 -0.15287752807E+02 -0.16575488165E+02 -0.28662393661E+02  0.36469096564E+02  0.00000000000E+00 0.  1.
        -13    1    4    4    0    0  0.10437119351E+03  0.14428125432E+03 -0.18446923774E+02  0.17902713588E+03  0.00000000000E+00 0.  1.
         13    1    4    4    0    0  0.97359625308E+01  0.38977447269E+02  0.39954702548E+02  0.56660467857E+02  0.00000000000E+00 0. -1.
          2    1    1    2  501    0 -0.19861736352E+03 -0.10755845240E+03 -0.79614204356E+03  0.82756258453E+03  0.00000000000E+00 0. -1.
<scales pt_clust_5="13000.00000" pt_clust_6="13000.00000" pt_clust_7="13000.00000" pt_clust_8="13000.00000" pt_clust_9="213.99364"></scales>
<clustering>
<clus scale="   79.515">  5  6 -1 -1</clus>
<clus scale="   92.097">  7  8 -1 -1</clus>
<clus scale="  138.546">  2  5  1 -1</clus>
<clus scale="  213.994">  1  9  2 -1</clus>
<clus scale="  213.994">  1  5  2 -1</clus>
</clustering>
</event>
<event>
 9    1  0.6270443E-005  0.1037397E+03  0.7546771E-02  0.1276774E+00
         21   -1    0    0  501  502  0.00000000000E+00  0.00000000000E+00  0.34689481155E+03  0.34689481155E+03  0.00000000000E+00 0. -1.
         -2   -1    0    0    0  501 -0.00000000000E+00 -0.00000000000E+00 -0.15038759124E+03  0.15038759124E+03  0.00000000000E+00 0.  1.
        -24    2    1    2    0    0  0.51840343110E+02  0.19856772531E+02 -0.11524239308E+03  0.15127856604E+03  0.80763127665E+02 0.  0.
         23    2    1    2    0    0  0.36697194521E+01 -0.26996956328E+02  0.19071000879E+03  0.21265116466E+03  0.90043921995E+02 0.  0.
         13    1    3    3    0    0  0.46270212561E+02 -0.16399600555E+02 -0.27711000677E+02  0.56371792834E+02  0.00000000000E+00 0. -1.
        -14    1    3    3    0    0  0.55701305494E+01  0.36256373086E+02 -0.87531392407E+02  0.94906773206E+02  0.00000000000E+00 0.  1.
        -11    1    4    4    0    0 -0.11582430261E+02 -0.44756964005E+02  0.18182661347E+03  0.18761198225E+03  0.00000000000E+00 0. -1.
         11    1    4    4    0    0  0.15252149714E+02  0.17760007677E+02  0.88833953212E+01  0.25039182415E+02  0.00000000000E+00 0.  1.
         -1    1    1    2    0  502 -0.55510062562E+02  0.71401837970E+01  0.12103960460E+03  0.13335267209E+03  0.00000000000E+00 0.  1.
<scales pt_clust_5="13000.00000" pt_clust_6="13000.00000" pt_clust_7="13000.00000" pt_clust_8="13000.00000" pt_clust_9="55.96739"></scales>
<clustering>
<clus scale="   55.967">  1  9  2 -1</clus>
<clus scale="   80.763">  5  6 -1 -1</clus>
<clus scale="   90.044">  7  8 -1 -1</clus>
<clus scale="   95.795">  2  5  1 -1</clus>
<clus scale="   55.967">  1  5  2 -1</clus>
</clustering>
</event>
<event>
 9    1  0.6270443E-005  0.1221705E+03  0.7546771E-02  0.1245046E+00
          3   -1    0    0  502    0 -0.00000000000E+00  0.00000000000E+00  0.26532200668E+03  0.26532200668E+03  0.00000000000E+00 0. -1.
         21   -1    0    0  501  502  0.00000000000E+00 -0.00000000000E+00 -0.71635231506E+02  0.71635231506E+02  0.00000000000E+00 0.  1.
        -24    2    1    2    0    0 -0.76677788322E+02 -0.59203650536E+00  0.10405304385E+03  0.15222011350E+03  0.80399585153E+02 0.  0.
         23    2    1    2    0    0  0.68139501683E+02 -0.23186348423E+02  0.37132354411E+02  0.12647299758E+03  0.97139121522E+02 0.  0.
         11    1    3    3    0    0 -0.57731025085E+02 -0.18805326273E+02  0.10966054580E+03  0.12534730495E+03  0.00000000000E+00 0. -1.
        -12    1    3    3    0    0 -0.18946763238E+02  0.18213289767E+02 -0.56075019552E+01  0.26872808553E+02  0.00000000000E+00 0.  1.
        -13    1    4    4    0    0  0.39765806881E+02  0.96105457629E+01 -0.27026890927E+02  0.49031977524E+02  0.00000000000E+00 0. -1.
         13    1    4    4    0    0  0.28373694802E+02 -0.32796894186E+02  0.64159245338E+02  0.77441020056E+02  0.00000000000E+00 0.  1.
          4    1    1    2  501    0  0.85382866398E+01  0.23778384928E+02  0.52501376922E+02  0.58264127104E+02  0.00000000000E+00 0. -1.
<scales pt_clust_5="13000.00000" pt_clust_6="13000.00000" pt_clust_7="13000.00000" pt_clust_8="13000.00000" pt_clust_9="25.26489"></scales>
<clustering>
<clus scale="   25.265">  2  9  1 -1</clus>
<clus scale="   80.400">  5  6 -1 -1</clus>
<clus scale="   97.139">  7  8 -1 -1</clus>
<clus scale="  109.333">  1  5  2 -1</clus>
<clus scale="   25.265">  2  5  1 -1</clus>
</clustering>
</event>
<event>
 9    1  0.6270443E-005  0.9825832E+02  0.7546771E-02  0.1291775E+00
         21   -1    0    0  501  502  0.00000000000E+00  0.00000000000E+00  0.18358698209E+03  0.18358698209E+03  0.00000000000E+00 0. -1.
          1   -1    0    0  502    0 -0.00000000000E+00 -0.00000000000E+00 -0.35147522807E+03  0.35147522807E+03  0.00000000000E+00 0. -1.
         23    2    1    2    0    0  0.27669334300E+02  0.28055445587E+02 -0.22093282796E+03  0.24247181112E+03  0.91807214465E+02 0.  0.
        -24    2    1    2    0    0 -0.31975500247E+02 -0.62975590448E+01 -0.10419443566E+03  0.13379475251E+03  0.77346386537E+02 0.  0.
         11    1    4    4    0    0  0.10933898869E+01  0.32726137327E+02 -0.42606924088E+02  0.53735886947E+02  0.00000000000E+00 0. -1.
        -12    1    4    4    0    0 -0.33068890134E+02 -0.39023696372E+02 -0.61587511569E+02  0.80058865558E+02  0.00000000000E+00 0.  1.
        -13    1    3    3    0    0  0.58469762341E+02  0.30359927347E+01 -0.15269325908E+03  0.16353336580E+03  0.00000000000E+00 0. -1.
         13    1    3    3    0    0 -0.30800428041E+02  0.25019452852E+02 -0.68239568874E+02  0.78938445315E+02  0.00000000000E+00 0.  1.
          2    1    1    2  501    0  0.43061659469E+01 -0.21757886542E+02  0.15723901764E+03  0.15879564654E+03  0.00000000000E+00 0. -1.
<scales pt_clust_5="13000.00000" pt_clust_6="13000.00000" pt_clust_7="13000.00000" pt_clust_8="13000.00000" pt_clust_9="22.17992"></scales>
<clustering>
<clus scale="   22.180">  1  9  2 -1</clus>
<clus scale="   77.346">  5  6 -1 -1</clus>
<clus scale="   84.903">  1  5  2 -1</clus>
<clus scale="   91.807">  7  8 -1 -1</clus>
<clus scale="   22.180">  1  5  2 -1</clus>
</clustering>
</event>
<event>
 9    1  0.6270443E-005  0.9348067E+02  0.7546771E-02  0.1300684E+00
         -2   -1    0    0    0  501 -0.00000000000E+00  0.00000000000E+00  0.77588079568E+03  0.77588079568E+03  0.00000000000E+00 0.  1.
         21   -1    0    0  501  502  0.00000000000E+00 -0.00000000000E+00 -0.17439754779E+02  0.17439754779E+02  0.00000000000E+00 0.  1.
        -24    2    1    2    0    0 -0.91556880864E+00 -0.23084669543E+02  0.37174898638E+03  0.38095484136E+03  0.79972132935E+02 0.  0.
         23    2    1    2    0    0  0.31025056597E+02  0.20639302220E+02  0.19266661511E+03  0.21600269778E+03  0.90267413484E+02 0.  0.
         13    1    3    3    0    0 -0.17256279485E+02  0.26076101865E+02  0.15183304795E+03  0.15501940756E+03  0.00000000000E+00 0. -1.
        -14    1    3    3    0    0  0.16340710676E+02 -0.49160771408E+02  0.21991593843E+03  0.22593543380E+03  0.00000000000E+00 0.  1.
        -11    1    4    4    0    0  0.24514681364E+02 -0.30348690809E+02  0.44535110276E+02  0.59206323003E+02  0.00000000000E+00 0.  1.
         11    1    4    4    0    0  0.65103752328E+01  0.50987993029E+02  0.14813150484E+03  0.15679637478E+03  0.00000000000E+00 0. -1.
         -1    1    1    2    0  502 -0.30109487788E+02  0.24453673232E+01  0.19402543941E+03  0.19636301132E+03  0.00000000000E+00 0.  1.
<scales pt_clust_5="13000.00000" pt_clust_6="13000.00000" pt_clust_7="13000.00000" pt_clust_8="13000.00000" pt_clust_9="30.20864"></scales>
<clustering>
<clus scale="   30.209">  2  9  1 -1</clus>
<clus scale="   79.972">  5  6 -1 -1</clus>
<clus scale="   83.582">  1  5  2 -1</clus>
<clus scale="   90.267">  7  8 -1 -1</clus>
<clus scale="   30.209">  2  5  1 -1</clus>
</clustering>
</event>
<event>
 9    1  0.7043366E-005  0.9519064E+02  0.7546771E-02  0.1291828E+00
         -4   -1    0    0    0  501 -0.00000000000E+00  0.00000000000E+00  0.14622853273E+03  0.14622853273E+03  0.00000000000E+00 0.  1.
         21   -1    0    0  501  502  0.00000000000E+00 -0.00000000000E+00 -0.32472596897E+03  0.32472596897E+03  0.00000000000E+00 0. -1.
         23    2    1    2    0    0 -0.10835887762E+02 -0.23703472169E+02  0.11000772185E+03  0.14503540369E+03  0.90853169461E+02 0.  0.
        -24    2    1    2    0    0  0.38606536285E+02  0.50593750386E+02 -0.24135117603E+03  0.26494538232E+03  0.88856475395E+02 0.  0.
         11    1    4    4    0    0 -0.33287005814E+01  0.64408041239E+02 -0.12882531812E+03  0.14406747937E+03  0.00000000000E+00 0. -1.
        -12    1    4    4    0    0  0.41935236866E+02 -0.13814290852E+02 -0.11252585791E+03  0.12087790295E+03  0.00000000000E+00 0.  1.
        -13    1    3    3    0    0 -0.51765767982E+00 -0.55766367991E+02  0.89943330157E+02  0.10582985594E+03  0.00000000000E+00 0.  1.
         13    1    3    3    0    0 -0.10318230082E+02  0.32062895822E+02  0.20064391690E+02  0.39205547751E+02  0.00000000000E+00 0. -1.
         -3    1    1    2    0  502 -0.27770648523E+02 -0.26890278217E+02 -0.47153982053E+02  0.60973715693E+02  0.00000000000E+00 0.  1.
<scales pt_clust_5="13000.00000" pt_clust_6="13000.00000" pt_clust_7="13000.00000" pt_clust_8="13000.00000" pt_clust_9="38.65612"></scales>
<clustering>
<clus scale="   38.656">  2  9  1 -1</clus>
<clus scale="   88.856">  5  6 -1 -1</clus>
<clus scale="   90.853">  7  8 -1 -1</clus>
<clus scale="   93.287">  2  5  1 -1</clus>
<clus scale="   38.656">  2  5  1 -1</clus>
</clustering>
</event>
<event>
 9    1  0.6270443E-005  0.9216077E+02  0.7546771E-02  0.1303334E+00
         -2   -1    0    0    0  501 -0.00000000000E+00  0.00000000000E+00  0.15060745167E+02  0.15060745167E+02  0.00000000000E+00 0.  1.
         21   -1    0    0  501  502  0.00000000000E+00 -0.00000000000E+00 -0.11643701501E+04  0.11643701501E+04  0.00000000000E+00 0. -1.
         23    2    1    2    0    0 -0.16680055443E+02  0.75739329584E+01 -0.17333490687E+03  0.19592792978E+03  0.89482819686E+02 0.  0.
        -24    2    1    2    0    0  0.38227909467E+02 -0.13002770662E+02 -0.89662567839E+03  0.90110140315E+03  0.80097980648E+02 0.  0.
         13    1    4    4    0    0  0.37766714916E+02 -0.17397937680E+02 -0.19152311351E+03  0.19598498922E+03  0.00000000000E+00 0. -1.
        -14    1    4    4    0    0  0.46119455105E+00  0.43951670174E+01 -0.70510256487E+03  0.70511641392E+03  0.00000000000E+00 0.  1.
        -13    1    3    3    0    0  0.20451347288E+02 -0.17192175862E+02 -0.13414922623E+02  0.29896298529E+02  0.00000000000E+00 0. -1.
         13    1    3    3    0    0 -0.37131402731E+02  0.24766108821E+02 -0.15991998424E+03  0.16603163125E+03  0.00000000000E+00 0.  1.
         -1    1    1    2    0  502 -0.21547854023E+02  0.54288377037E+01 -0.79348819720E+02  0.82401562381E+02  0.00000000000E+00 0.  1.
<scales pt_clust_5="13000.00000" pt_clust_6="13000.00000" pt_clust_7="13000.00000" pt_clust_8="13000.00000" pt_clust_9="22.22122"></scales>
<clustering>
<clus scale="   22.221">  2  9  1 -1</clus>
<clus scale="   80.098">  5  6 -1 -1</clus>
<clus scale="   83.079">  2  5  1 -1</clus>
<clus scale="   89.483">  7  8 -1 -1</clus>
<clus scale="   22.221">  2  5  1 -1</clus>
</clustering>
</event>
<event>
 9    1  0.6270443E-005  0.1524410E+03  0.7546771E-02  0.1218502E+00
          1   -1    0    0  502    0 -0.00000000000E+00  0.00000000000E+00  0.67870329406E+03  0.67870329406E+03  0.00000000000E+00 0. -1.
         21   -1    0    0  501  502  0.00000000000E+00 -0.00000000000E+00 -0.15522377848E+03  0.15522377848E+03  0.00000000000E+00 0.  1.
        -24    2    1    2    0    0  0.51782880624E+02  0.15671710450E+02 -0.94004043097E+02  0.13522785755E+03  0.80763507268E+02 0.  0.
         23    2    1    2    0    0  0.10706712405E+03 -0.26305944244E+02  0.15762479624E+03  0.21206126711E+03  0.89269439705E+02 0.  0.
         13    1    3    3    0    0 -0.30332372217E+01  0.21383409492E+02  0.47704454798E+01  0.22118044209E+02  0.00000000000E+00 0. -1.
        -14    1    3    3    0    0  0.54816117845E+02 -0.57116990418E+01 -0.98774488577E+02  0.11310981335E+03  0.00000000000E+00 0.  1.
        -11    1    4    4    0    0  0.46673420847E+02  0.32605903992E+02  0.72845735678E+02  0.92455688820E+02  0.00000000000E+00 0.  1.
         11    1    4    4    0    0  0.60393703202E+02 -0.58911848236E+02  0.84779060559E+02  0.11960557829E+03  0.00000000000E+00 0. -1.
          2    1    1    2  501    0 -0.15885000467E+03  0.10634233794E+02  0.45985876244E+03  0.48663794787E+03  0.00000000000E+00 0. -1.
<scales pt_clust_5="13000.00000" pt_clust_6="13000.00000" pt_clust_7="13000.00000" pt_clust_8="13000.00000" pt_clust_9="123.56872"></scales>
<clustering>
<clus scale="   80.764">  5  6 -1 -1</clus>
<clus scale="   89.269">  7  8 -1 -1</clus>
<clus scale="   97.210">  1  5  2 -1</clus>
<clus scale="  123.569">  2  9  1 -1</clus>
<clus scale="  123.569">  2  5  1 -1</clus>
</clustering>
</event>
<event>
 9    1  0.6270443E-005  0.1509422E+03  0.7546771E-02  0.1208820E+00
         -2   -1    0    0    0  501 -0.00000000000E+00  0.00000000000E+00  0.19406774883E+03  0.19406774883E+03  0.00000000000E+00 0.  1.
         21   -1    0    0  501  502  0.00000000000E+00 -0.00000000000E+00 -0.26749655710E+03  0.26749655710E+03  0.00000000000E+00 0. -1.
         23    2    1    2    0    0  0.51158524147E+02 -0.66034419336E+02 -0.11333235721E+03  0.16723440474E+03  0.90251780081E+02 0.  0.
        -24    2    1    2    0    0  0.98234526025E+02  0.62705072456E+02  0.21251280462E+02  0.14374014354E+03  0.81410464489E+02 0.  0.
         11    1    4    4    0    0  0.10886429125E+03  0.49143586140E+02  0.42266139947E+01  0.11951732190E+03  0.00000000000E+00 0. -1.
        -12    1    4    4    0    0 -0.10629765226E+02  0.13561486316E+02  0.17024666467E+02  0.24222821639E+02  0.00000000000E+00 0.  1.
        -13    1    3    3    0    0  0.11932241488E+02  0.18660588453E+02 -0.24308700554E+01  0.22282393892E+02  0.00000000000E+00 0.  1.
         13    1    3    3    0    0  0.39226282659E+02 -0.84695007789E+02 -0.11090148715E+03  0.14495201085E+03  0.00000000000E+00 0. -1.
         -1    1    1    2    0  502 -0.14939305017E+03  0.33293468796E+01  0.18652268484E+02  0.15058975765E+03  0.00000000000E+00 0.  1.
<scales pt_clust_5="13000.00000" pt_clust_6="13000.00000" pt_clust_7="13000.00000" pt_clust_8="13000.00000" pt_clust_9="127.10586"></scales>
<clustering>
<clus scale="   81.410">  5  6 -1 -1</clus>
<clus scale="   90.252">  7  8 -1 -1</clus>
<clus scale="  122.976">  1  7  2 -1</clus>
<clus scale="  127.106">  2  9  1 -1</clus>
<clus scale="  127.106">  2  5  1 -1</clus>
</clustering>
</event>
<event>
 9    1  0.6270443E-005  0.9204994E+02  0.7546771E-02  0.1305264E+00
          1   -1    0    0  502    0 -0.00000000000E+00  0.00000000000E+00  0.58024163119E+03  0.58024163119E+03  0.00000000000E+00 0. -1.
         21   -1    0    0  501  502  0.00000000000E+00 -0.00000000000E+00 -0.27002511262E+02  0.27002511262E+02  0.00000000000E+00 0.  1.
         23    2    1    2    0    0  0.15159403335E+02 -0.82537979958E+00  0.32964842402E+03  0.34228304194E+03  0.90879637881E+02 0.  0.
        -24    2    1    2    0    0  0.17454588914E+02  0.37546863513E+02  0.17151357308E+03  0.19337781630E+03  0.79143189551E+02 0.  0.
         11    1    4    4    0    0  0.30342731865E+02  0.15625732535E+02  0.16304013181E+03  0.16657409605E+03  0.00000000000E+00 0. -1.
        -12    1    4    4    0    0 -0.12888142951E+02  0.21921130978E+02  0.84734412647E+01  0.26803720244E+02  0.00000000000E+00 0.  1.
        -13    1    3    3    0    0  0.46257418623E+02  0.57161037095E+01  0.27616730240E+03  0.28007285041E+03  0.00000000000E+00 0. -1.
         13    1    3    3    0    0 -0.31098015288E+02 -0.65414835090E+01  0.53481121616E+02  0.62210191534E+02  0.00000000000E+00 0.  1.
          2    1    1    2  501    0 -0.32613992249E+02 -0.36721483713E+02  0.52077122834E+02  0.71583284216E+02  0.00000000000E+00 0. -1.
<scales pt_clust_5="13000.00000" pt_clust_6="13000.00000" pt_clust_7="13000.00000" pt_clust_8="13000.00000" pt_clust_9="49.11354"></scales>
<clustering>
<clus scale="   49.114">  2  9  1 -1</clus>
<clus scale="   79.143">  5  6 -1 -1</clus>
<clus scale="   80.484">  2  5  1 -1</clus>
<clus scale="   90.880">  7  8 -1 -1</clus>
<clus scale="   49.114">  2  5  1 -1</clus>
</clustering>
</event>
<event>
 9    1  0.6270443E-005  0.9464211E+02  0.7546771E-02  0.1297047E+00
          1   -1    0    0  502    0 -0.00000000000E+00  0.00000000000E+00  0.40571436794E+03  0.40571436794E+03  0.00000000000E+00 0. -1.
         21   -1    0    0  501  502  0.00000000000E+00 -0.00000000000E+00 -0.84422038007E+02  0.84422038007E+02  0.00000000000E+00 0.  1.
         23    2    1    2    0    0  0.29297315059E+02  0.28705391046E+02  0.30907099254E+03  0.32030097870E+03  0.73386009440E+02 0.  0.
        -24    2    1    2    0    0 -0.62329638197E+02 -0.38235350190E+02  0.47546728579E+02  0.12054204275E+03  0.83203166221E+02 0.  0.
         13    1    4    4    0    0 -0.76709950847E+01 -0.52484521689E+02  0.32035120673E+02  0.61965459242E+02  0.00000000000E+00 0. -1.
        -14    1    4    4    0    0 -0.54658643113E+02  0.14249171499E+02  0.15511607906E+02  0.58576583505E+02  0.00000000000E+00 0.  1.
        -13    1    3    3    0    0 -0.23179192462E+02 -0.41375985151E+00  0.66839958739E+02  0.70746210108E+02  0.00000000000E+00 0.  1.
         13    1    3    3    0    0  0.52476507521E+02  0.29119150898E+02  0.24223103380E+03  0.24955476859E+03  0.00000000000E+00 0. -1.
          2    1    1    2  501    0  0.33032323138E+02  0.95299591434E+01 -0.35325391185E+02  0.49293384501E+02  0.00000000000E+00 0. -1.
<scales pt_clust_5="13000.00000" pt_clust_6="13000.00000" pt_clust_7="13000.00000" pt_clust_8="13000.00000" pt_clust_9="34.37957"></scales>
<clustering>
<clus scale="   34.380">  2  9  1 -1</clus>
<clus scale="   73.386">  7  8 -1 -1</clus>
<clus scale="   83.203">  5  6 -1 -1</clus>
<clus scale="   86.139">  1  7  2 -1</clus>
<clus scale="   34.380">  2  5  1 -1</clus>
</clustering>
</event>
<event>
 9    1  0.6270443E-005  0.1619939E+03  0.7546771E-02  0.1208952E+00
         21   -1    0    0  501  502  0.00000000000E+00  0.00000000000E+00  0.58934641201E+02  0.58934641201E+02  0.00000000000E+00 0. -1.
          1   -1    0    0  502    0 -0.00000000000E+00 -0.00000000000E+00 -0.13282512668E+04  0.13282512668E+04  0.00000000000E+00 0. -1.
        -24    2    1    2    0    0 -0.58120145571E+02 -0.19423349680E+02 -0.27447912663E+03  0.29185622072E+03  0.78013106495E+02 0.  0.
         23    2    1    2    0    0  0.99217574170E+02 -0.96158650613E+02 -0.10199301782E+03  0.19409749469E+03  0.90446938315E+02 0.  0.
         11    1    3    3    0    0 -0.34991317858E+02 -0.35402303490E+02 -0.24896589557E+03  0.25389315189E+03  0.00000000000E+00 0. -1.
        -12    1    3    3    0    0 -0.23128827713E+02  0.15978953811E+02 -0.25513231057E+02  0.37963068833E+02  0.00000000000E+00 0.  1.
        -11    1    4    4    0    0  0.80428214085E+02 -0.50680027180E+02 -0.18001833029E+02  0.96753443185E+02  0.00000000000E+00 0. -1.
         11    1    4    4    0    0  0.18789360085E+02 -0.45478623433E+02 -0.83991184787E+02  0.97344051506E+02  0.00000000000E+00 0.  1.
          2    1    1    2  501    0 -0.41097428599E+02  0.11558200029E+03 -0.89284448119E+03  0.90123219263E+03  0.00000000000E+00 0. -1.
<scales pt_clust_5="13000.00000" pt_clust_6="13000.00000" pt_clust_7="13000.00000" pt_clust_8="13000.00000" pt_clust_9="134.39265"></scales>
<clustering>
<clus scale="   78.013">  5  6 -1 -1</clus>
<clus scale="   90.447">  7  8 -1 -1</clus>
<clus scale="   99.203">  2  5  1 -1</clus>
<clus scale="  134.393">  1  9  2 -1</clus>
<clus scale="  134.393">  1  5  2 -1</clus>
</clustering>
</event>
<event>
 9    1  0.6270443E-005  0.1461501E+03  0.7546771E-02  0.1221704E+00
          3   -1    0    0  502    0 -0.00000000000E+00  0.00000000000E+00  0.31466644526E+03  0.31466644526E+03  0.00000000000E+00 0. -1.
         21   -1    0    0  501  502  0.00000000000E+00 -0.00000000000E+00 -0.13063818126E+03  0.13063818126E+03  0.00000000000E+00 0. -1.
         23    2    1    2    0    0 -0.19111650226E+02 -0.64313649881E+02  0.24858111085E+02  0.10609273669E+03  0.78334171062E+02 0.  0.
        -24    2    1    2    0    0 -0.93775741709E+02  0.99280887305E+02  0.15179837589E+03  0.22080321596E+03  0.84028143743E+02 0.  0.
         13    1    4    4    0    0 -0.99079903031E+02  0.10910751448E+03  0.14835320497E+03  0.20911707325E+03  0.00000000000E+00 0. -1.
        -14    1    4    4    0    0  0.53041613223E+01 -0.98266271715E+01  0.34451709202E+01  0.11686142716E+02  0.00000000000E+00 0.  1.
        -11    1    3    3    0    0  0.16514522469E+02 -0.14960539805E+02 -0.20424766415E+02  0.30227773433E+02  0.00000000000E+00 0.  1.
         11    1    3    3    0    0 -0.35626172695E+02 -0.49353110076E+02  0.45282877500E+02  0.75864963255E+02  0.00000000000E+00 0. -1.
          4    1    1    2  501    0  0.11288739193E+03 -0.34967237424E+02  0.73717770342E+01  0.11840867387E+03  0.00000000000E+00 0. -1.
<scales pt_clust_5="13000.00000" pt_clust_6="13000.00000" pt_clust_7="13000.00000" pt_clust_8="13000.00000" pt_clust_9="119.57897"></scales>
<clustering>
<clus scale="   78.334">  7  8 -1 -1</clus>
<clus scale="   84.028">  5  6 -1 -1</clus>
<clus scale="  103.139">  1  7  2 -1</clus>
<clus scale="  119.579">  2  9  1 -1</clus>
<clus scale="  119.579">  2  5  1 -1</clus>
</clustering>
</event>
<event>
 9    1  0.6270443E-005  0.1296178E+03  0.7546771E-02  0.1231813E+00
          1   -1    0    0  502    0 -0.00000000000E+00  0.00000000000E+00  0.60277566626E+02  0.60277566626E+02  0.00000000000E+00 0. -1.
         21   -1    0    0  501  502  0.00000000000E+00 -0.00000000000E+00 -0.79763664509E+03  0.79763664509E+03  0.00000000000E+00 0.  1.
        -24    2    1    2    0    0  0.66705461074E+02 -0.61368427912E+02 -0.29352444136E+02  0.12469681253E+03  0.80448906750E+02 0.  0.
         23    2    1    2    0    0 -0.17897059310E+02  0.89806400091E+02 -0.54717888495E+03  0.56275759948E+03  0.94371019975E+02 0.  0.
         11    1    3    3    0    0  0.50421276175E+02 -0.62090290356E+02  0.11411806810E+02  0.80794421727E+02  0.00000000000E+00 0. -1.
        -12    1    3    3    0    0  0.16284184899E+02  0.72186244336E+00 -0.40764250945E+02  0.43902390805E+02  0.00000000000E+00 0.  1.
        -11    1    4    4    0    0 -0.35088343757E+02 -0.46487416593E+01 -0.15705806401E+03  0.16099701283E+03  0.00000000000E+00 0. -1.
         11    1    4    4    0    0  0.17191284447E+02  0.94455141751E+02 -0.39012082093E+03  0.40176058666E+03  0.00000000000E+00 0.  1.
          2    1    1    2  501    0 -0.48808401764E+02 -0.28437972179E+02 -0.16082774938E+03  0.17045979971E+03  0.00000000000E+00 0. -1.
<scales pt_clust_5="13000.00000" pt_clust_6="13000.00000" pt_clust_7="13000.00000" pt_clust_8="13000.00000" pt_clust_9="56.48875"></scales>
<clustering>
<clus scale="   56.489">  2  9  1 -1</clus>
<clus scale="   80.449">  5  6 -1 -1</clus>
<clus scale="   94.371">  7  8 -1 -1</clus>
<clus scale="  119.862">  1  5  2 -1</clus>
<clus scale="   56.489">  2  5  1 -1</clus>
</clustering>
</event>
<event>
 9    1  0.6270443E-005  0.1250776E+03  0.7546771E-02  0.1241746E+00
         21   -1    0    0  501  502  0.00000000000E+00  0.00000000000E+00  0.15225971093E+03  0.15225971093E+03  0.00000000000E+00 0. -1.
          3   -1    0    0  502    0 -0.00000000000E+00 -0.00000000000E+00 -0.17978998155E+03  0.17978998155E+03  0.00000000000E+00 0. -1.
        -24    2    1    2    0    0  0.71406116285E+02  0.77216146938E+01 -0.11023417949E+02  0.10946351306E+03  0.81867503763E+02 0.  0.
         23    2    1    2    0    0  0.20024699053E+02  0.55097807562E+02 -0.21295519377E+02  0.11155102672E+03  0.92484460563E+02 0.  0.
         13    1    3    3    0    0  0.10339505831E+02 -0.23048804491E+02 -0.29295875786E+02  0.38683344056E+02  0.00000000000E+00 0. -1.
        -14    1    3    3    0    0  0.61066610455E+02  0.30770419185E+02  0.18272457837E+02  0.70780169007E+02  0.00000000000E+00 0.  1.
        -11    1    4    4    0    0 -0.37043724230E+02  0.17785026917E+02 -0.45666701053E+01  0.41344880736E+02  0.00000000000E+00 0.  1.
         11    1    4    4    0    0  0.57068423283E+02  0.37312780645E+02 -0.16728849271E+02  0.70206145980E+02  0.00000000000E+00 0. -1.
          4    1    1    2  501    0 -0.91430815339E+02 -0.62819422256E+02  0.47886666991E+01  0.11103515270E+03  0.00000000000E+00 0. -1.
<scales pt_clust_5="13000.00000" pt_clust_6="13000.00000" pt_clust_7="13000.00000" pt_clust_8="13000.00000" pt_clust_9="84.20827"></scales>
<clustering>
<clus scale="   81.868">  5  6 -1 -1</clus>
<clus scale="   92.484">  7  8 -1 -1</clus>
<clus scale="  108.907">  2  5  1 -1</clus>
<clus scale="   84.208">  1  9  2 -1</clus>
<clus scale="   84.208">  1  5  2 -1</clus>
</clustering>
</event>
<event>
 9    1  0.6270443E-005  0.1072682E+03  0.7546771E-02  0.1268749E+00
          1   -1    0    0  502    0 -0.00000000000E+00  0.00000000000E+00  0.39013470751E+03  0.39013470751E+03  0.00000000000E+00 0. -1.
         21   -1    0    0  501  502  0.00000000000E+00 -0.00000000000E+00 -0.44892648939E+02  0.44892648939E+02  0.00000000000E+00 0. -1.
         23    2    1    2    0    0  0.47141364226E+02 -0.49177259611E+02  0.17062537808E+03  0.20481202296E+03  0.90522008488E+02 0.  0.
        -24    2    1    2    0    0  0.15675781144E+01  0.55190560597E+02  0.10332180395E+03  0.14366084040E+03  0.83153993368E+02 0.  0.
         13    1    4    4    0    0  0.39070809446E+02  0.11371484798E+02  0.55003566111E+02  0.68419522815E+02  0.00000000000E+00 0. -1.
        -14    1    4    4    0    0 -0.37503231332E+02  0.43819075798E+02  0.48318237835E+02  0.75241317583E+02  0.00000000000E+00 0.  1.
        -13    1    3    3    0    0  0.13211560299E+02  0.20186857575E+02  0.89985168743E+02  0.93163217731E+02  0.00000000000E+00 0.  1.
         13    1    3    3    0    0  0.33929803927E+02 -0.69364117185E+02  0.80640209336E+02  0.11164880523E+03  0.00000000000E+00 0. -1.
          2    1    1    2  501    0 -0.48708942340E+02 -0.60133009859E+01  0.71294876549E+02  0.86554493094E+02  0.00000000000E+00 0. -1.
<scales pt_clust_5="13000.00000" pt_clust_6="13000.00000" pt_clust_7="13000.00000" pt_clust_8="13000.00000" pt_clust_9="49.07875"></scales>
<clustering>
<clus scale="   49.079">  2  9  1 -1</clus>
<clus scale="   83.154">  5  6 -1 -1</clus>
<clus scale="   90.522">  7  8 -1 -1</clus>
<clus scale="  101.128">  2  5  1 -1</clus>
<clus scale="   49.079">  2  5  1 -1</clus>
</clustering>
</event>
<event>
 9    1  0.6270443E-005  0.2145234E+03  0.7546771E-02  0.1172775E+00
         21   -1    0    0  501  502  0.00000000000E+00  0.00000000000E+00  0.10185773108E+03  0.10185773108E+03  0.00000000000E+00 0. -1.
         -4   -1    0    0    0  501 -0.00000000000E+00 -0.00000000000E+00 -0.65833742223E+03  0.65833742223E+03  0.00000000000E+00 0.  1.
        -24    2    1    2    0    0  0.51070020000E+01 -0.49477227998E+02 -0.77708017124E+02  0.12266175852E+03  0.80828791387E+02 0.  0.
         23    2    1    2    0    0 -0.17835982826E+03 -0.64355244377E+02 -0.29914306352E+03  0.36323280915E+03  0.80608159466E+02 0.  0.
         13    1    3    3    0    0  0.27738216472E+02 -0.15747447369E+02  0.32738297947E+01  0.32064134375E+02  0.00000000000E+00 0. -1.
        -14    1    3    3    0    0 -0.22631214472E+02 -0.33729780629E+02 -0.80981846918E+02  0.90597624142E+02  0.00000000000E+00 0.  1.
        -11    1    4    4    0    0 -0.11667193634E+03 -0.62708498999E+02 -0.25503381081E+03  0.28737943773E+03  0.00000000000E+00 0. -1.
         11    1    4    4    0    0 -0.61687891923E+02 -0.16467453779E+01 -0.44109252713E+02  0.75853371416E+02  0.00000000000E+00 0.  1.
         -3    1    1    2    0  502  0.17325282626E+03  0.11383247238E+03 -0.17962861051E+03  0.27430058565E+03  0.00000000000E+00 0.  1.
<scales pt_clust_5="13000.00000" pt_clust_6="13000.00000" pt_clust_7="13000.00000" pt_clust_8="13000.00000" pt_clust_9="198.80296"></scales>
<clustering>
<clus scale="   80.608">  7  8 -1 -1</clus>
<clus scale="   80.829">  5  6 -1 -1</clus>
<clus scale="   94.907">  2  5  1 -1</clus>
<clus scale="  198.803">  1  9  2 -1</clus>
<clus scale="  198.803">  1  5  2 -1</clus>
</clustering>
</event>
<event>
 9    1  0.6270443E-005  0.2311141E+03  0.7546771E-02  0.1125858E+00
         21   -1    0    0  501  502  0.00000000000E+00  0.00000000000E+00  0.10299495115E+03  0.10299495115E+03  0.00000000000E+00 0. -1.
          1   -1    0    0  502    0 -0.00000000000E+00 -0.00000000000E+00 -0.34249365318E+03  0.34249365318E+03  0.00000000000E+00 0. -1.
        -24    2    1    2    0    0 -0.13880076472E+02  0.93275036014E+02 -0.99241854116E+02  0.15827164528E+03  0.79423417351E+02 0.  0.
         23    2    1    2    0    0 -0.51890488130E+02  0.27478904014E+02 -0.91288924827E+02  0.14125416006E+03  0.90395558590E+02 0.  0.
         13    1    3    3    0    0  0.16200460123E+02  0.82172176598E+02 -0.93797498347E+02  0.12574852767E+03  0.00000000000E+00 0. -1.
        -14    1    3    3    0    0 -0.30080536595E+02  0.11102859416E+02 -0.54443557696E+01  0.32523117606E+02  0.00000000000E+00 0.  1.
        -11    1    4    4    0    0 -0.32038120044E+01  0.24180567659E+02 -0.89130855797E+02  0.92408190756E+02  0.00000000000E+00 0.  1.
         11    1    4    4    0    0 -0.48686676126E+02  0.32983363544E+01 -0.21580690301E+01  0.48845969300E+02  0.00000000000E+00 0. -1.
          2    1    1    2  501    0  0.65770564602E+02 -0.12075394003E+03 -0.48967923085E+02  0.14596279900E+03  0.00000000000E+00 0. -1.
<scales pt_clust_5="13000.00000" pt_clust_6="13000.00000" pt_clust_7="13000.00000" pt_clust_8="13000.00000" pt_clust_9="137.50375"></scales>
<clustering>
<clus scale="   79.423">  5  6 -1 -1</clus>
<clus scale="   90.396">  7  8 -1 -1</clus>
<clus scale="  105.047">  5  7 -1 -1</clus>
<clus scale="  137.504">  1  9  2 -1</clus>
<clus scale="  137.504">  1  5  2 -1</clus>
</clustering>
</event>
<event>
 9    1  0.6270443E-005  0.1201414E+03  0.7546771E-02  0.1246520E+00
          1   -1    0    0  502    0 -0.00000000000E+00  0.00000000000E+00  0.49135910894E+03  0.49135910894E+03  0.00000000000E+00 0. -1.
         21   -1    0    0  501  502  0.00000000000E+00 -0.00000000000E+00 -0.90750549569E+02  0.90750549569E+02  0.00000000000E+00 0.  1.
         23    2    1    2    0    0  0.54231559456E+02  0.53707313427E+02  0.37510828726E+03  0.39322825233E+03  0.89981629792E+02 0.  0.
        -24    2    1    2    0    0 -0.76322732646E+02 -0.75610579735E+02 -0.19351931362E+02  0.13429667238E+03  0.78223907335E+02 0.  0.
         11    1    4    4    0    0 -0.56887776092E+02 -0.22252171023E+02  0.21042457090E+02  0.64607764118E+02  0.00000000000E+00 0. -1.
        -12    1    4    4    0    0 -0.19434956554E+02 -0.53358408712E+02 -0.40394388451E+02  0.69688908263E+02  0.00000000000E+00 0.  1.
        -13    1    3    3    0    0  0.49494070441E+02 -0.21342007419E+01  0.90665813333E+02  0.10331750834E+03  0.00000000000E+00 0.  1.
         13    1    3    3    0    0  0.47374890154E+01  0.55841514169E+02  0.28444247393E+03  0.28991074399E+03  0.00000000000E+00 0. -1.
          2    1    1    2  501    0  0.22091173189E+02  0.21903266307E+02  0.44852203469E+02  0.54584733798E+02  0.00000000000E+00 0. -1.
<scales pt_clust_5="13000.00000" pt_clust_6="13000.00000" pt_clust_7="13000.00000" pt_clust_8="13000.00000" pt_clust_9="31.10907"></scales>
<clustering>
<clus scale="   31.109">  2  9  1 -1</clus>
<clus scale="   78.224">  5  6 -1 -1</clus>
<clus scale="   89.982">  7  8 -1 -1</clus>
<clus scale="  111.608">  2  5  1 -1</clus>
<clus scale="   31.109">  2  5  1 -1</clus>
</clustering>
</event>
<event>
 9    1  0.6270443E-005  0.4959534E+03  0.7546771E-02  0.1071599E+00
          1   -1    0    0  502    0 -0.00000000000E+00  0.00000000000E+00  0.59072642176E+03  0.59072642176E+03  0.00000000000E+00 0. -1.
         21   -1    0    0  501  502  0.00000000000E+00 -0.00000000000E+00 -0.53646026145E+03  0.53646026145E+03  0.00000000000E+00 0. -1.
        -24    2    1    2    0    0  0.55289749201E+02 -0.21694104043E+02  0.82874711499E+02  0.12681726258E+03  0.75410939300E+02 0.  0.
         23    2    1    2    0    0  0.40020490748E+03 -0.23239237230E+03 -0.70704701766E+02  0.47710332616E+03  0.91968724580E+02 0.  0.
         13    1    3    3    0    0  0.52242896121E+02  0.16893283113E+02  0.34431942485E+02  0.64809427344E+02  0.00000000000E+00 0. -1.
        -14    1    3    3    0    0  0.30468530806E+01 -0.38587387156E+02  0.48442769014E+02  0.62007835239E+02  0.00000000000E+00 0.  1.
        -13    1    4    4    0    0  0.39105763910E+02  0.47550078946E+01 -0.11627709249E+02  0.41074012386E+02  0.00000000000E+00 0.  1.
         13    1    4    4    0    0  0.36109914357E+03 -0.23714738020E+03 -0.59076992517E+02  0.43602931377E+03  0.00000000000E+00 0. -1.
          2    1    1    2  501    0 -0.45549465668E+03  0.25408647635E+03  0.42096150571E+02  0.52326609447E+03  0.00000000000E+00 0. -1.
<scales pt_clust_5="13000.00000" pt_clust_6="13000.00000" pt_clust_7="13000.00000" pt_clust_8="13000.00000" pt_clust_9="487.35184"></scales>
<clustering>
<clus scale="   75.411">  5  6 -1 -1</clus>
<clus scale="   91.969">  7  8 -1 -1</clus>
<clus scale="   95.992">  1  5  2 -1</clus>
<clus scale="  487.352">  2  9  1 -1</clus>
<clus scale="  487.352">  2  5  1 -1</clus>
</clustering>
</event>
<event>
 9    1  0.6270443E-005  0.1342769E+03  0.7546771E-02  0.1242359E+00
         21   -1    0    0  501  502  0.00000000000E+00  0.00000000000E+00  0.54595725067E+02  0.54595725067E+02  0.00000000000E+00 0. -1.
          1   -1    0    0  502    0 -0.00000000000E+00 -0.00000000000E+00 -0.78932987537E+03  0.78932987537E+03  0.00000000000E+00 0. -1.
        -24    2    1    2    0    0  0.24394543644E+02 -0.79793051498E+01 -0.11981941662E+03  0.14803605400E+03  0.83061529097E+02 0.  0.
         23    2    1    2    0    0 -0.31759072298E+02 -0.94742583010E+02 -0.91489037693E+02  0.16242869331E+03  0.89599334171E+02 0.  0.
         13    1    3    3    0    0  0.47520214063E+02 -0.17304260811E+01 -0.32767713963E+02  0.57748490867E+02  0.00000000000E+00 0. -1.
        -14    1    3    3    0    0 -0.23125670419E+02 -0.62488790687E+01 -0.87051702653E+02  0.90287563135E+02  0.00000000000E+00 0.  1.
        -11    1    4    4    0    0  0.26123678636E+02 -0.52080215237E+02 -0.21558760809E+02  0.62125482471E+02  0.00000000000E+00 0.  1.
         11    1    4    4    0    0 -0.57882750934E+02 -0.42662367774E+02 -0.69930276883E+02  0.10030321084E+03  0.00000000000E+00 0. -1.
          2    1    1    2  501    0  0.73645286540E+01  0.10272188816E+03 -0.52342569599E+03  0.53346085312E+03  0.00000000000E+00 0. -1.
<scales pt_clust_5="13000.00000" pt_clust_6="13000.00000" pt_clust_7="13000.00000" pt_clust_8="13000.00000" pt_clust_9="100.01127"></scales>
<clustering>
<clus scale="   83.062">  5  6 -1 -1</clus>
<clus scale="   86.937">  2  5  1 -1</clus>
<clus scale="   89.599">  7  8 -1 -1</clus>
<clus scale="  100.011">  1  9  2 -1</clus>
<clus scale="  100.011">  1  5  2 -1</clus>
</clustering>
</event>
<event>
 9    1  0.6270443E-005  0.1611284E+03  0.7546771E-02  0.1189248E+00
          1   -1    0    0  502    0 -0.00000000000E+00  0.00000000000E+00  0.87980891101E+03  0.87980891101E+03  0.00000000000E+00 0. -1.
         21   -1    0    0  501  502  0.00000000000E+00 -0.00000000000E+00 -0.46823633391E+02  0.46823633391E+02  0.00000000000E+00 0. -1.
        -24    2    1    2    0    0 -0.99180422887E+02 -0.79038797371E+02  0.38719393887E+03  0.41549964676E+03  0.81467308701E+02 0.  0.
         23    2    1    2    0    0  0.13076094892E+03  0.61896137210E+02  0.20460057687E+03  0.26728010590E+03  0.92993017979E+02 0.  0.
         11    1    3    3    0    0 -0.27682635089E+02  0.43567486492E+01  0.26948374948E+02  0.38878328881E+02  0.00000000000E+00 0. -1.
        -12    1    3    3    0    0 -0.71497787799E+02 -0.83395546021E+02  0.36024556392E+03  0.37662131788E+03  0.00000000000E+00 0.  1.
        -13    1    4    4    0    0  0.54973462743E+02 -0.14399585696E+02  0.11104276205E+03  0.12473942712E+03  0.00000000000E+00 0.  1.
         13    1    4    4    0    0  0.75787486175E+02  0.76295722906E+02  0.93557814818E+02  0.14254067878E+03  0.00000000000E+00 0. -1.
          2    1    1    2  501    0 -0.31580526030E+02  0.17142660161E+02  0.24119076187E+03  0.24385279173E+03  0.00000000000E+00 0. -1.
<scales pt_clust_5="13000.00000" pt_clust_6="13000.00000" pt_clust_7="13000.00000" pt_clust_8="13000.00000" pt_clust_9="35.93330"></scales>
<clustering>
<clus scale="   35.933">  2  9  1 -1</clus>
<clus scale="   81.467">  5  6 -1 -1</clus>
<clus scale="   92.993">  7  8 -1 -1</clus>
<clus scale="  154.763">  1  5  2 -1</clus>
<clus scale="   35.933">  2  5  1 -1</clus>
</clustering>
</event>
<event>
 9    1  0.6270443E-005  0.1021216E+03  0.7546771E-02  0.1281204E+00
          1   -1    0    0  502    0 -0.00000000000E+00  0.00000000000E+00  0.37585663716E+03  0.37585663716E+03  0.00000000000E+00 0. -1.
         21   -1    0    0  501  502  0.00000000000E+00 -0.00000000000E+00 -0.62009584349E+02  0.62009584349E+02  0.00000000000E+00 0.  1.
         23    2    1    2    0    0 -0.37906670756E+01 -0.42314971405E+02  0.29056165643E+03  0.30746278633E+03  0.91117302585E+02 0.  0.
        -24    2    1    2    0    0 -0.22197633023E+01  0.61959609059E+02  0.34637694844E+02  0.10693192601E+03  0.79942144036E+02 0.  0.
         13    1    4    4    0    0  0.17623464975E+02 -0.13912774167E+02  0.44009983562E+01  0.22880572311E+02  0.00000000000E+00 0. -1.
        -14    1    4    4    0    0 -0.19843228277E+02  0.75872383226E+02  0.30236696488E+02  0.84051353703E+02  0.00000000000E+00 0.  1.
        -13    1    3    3    0    0  0.10629944279E+02  0.27017279237E+02  0.69010136072E+02  0.74868738292E+02  0.00000000000E+00 0.  1.
         13    1    3    3    0    0 -0.14420611355E+02 -0.69332250643E+02  0.22155152036E+03  0.23259404804E+03  0.00000000000E+00 0. -1.
          2    1    1    2  501    0  0.60104303779E+01 -0.19644637654E+02 -0.11352298464E+02  0.23471509161E+02  0.00000000000E+00 0. -1.
<scales pt_clust_5="13000.00000" pt_clust_6="13000.00000" pt_clust_7="13000.00000" pt_clust_8="13000.00000" pt_clust_9="20.54354"></scales>
<clustering>
<clus scale="   20.544">  2  9  1 -1</clus>
<clus scale="   79.942">  5  6 -1 -1</clus>
<clus scale="   91.117">  7  8 -1 -1</clus>
<clus scale="   92.289">  2  5  1 -1</clus>
<clus scale="   20.544">  2  5  1 -1</clus>
</clustering>
</event>
<event>
 9    1  0.6270443E-005  0.2602006E+03  0.7546771E-02  0.1134730E+00
         21   -1    0    0  501  502  0.00000000000E+00  0.00000000000E+00  0.23099935209E+03  0.23099935209E+03  0.00000000000E+00 0.  1.
          1   -1    0    0  502    0 -0.00000000000E+00 -0.00000000000E+00 -0.47354520744E+03  0.47354520744E+03  0.00000000000E+00 0. -1.
         23    2    1    2    0    0 -0.74738404730E+01  0.90891402652E+02 -0.60098230914E+02  0.14345339629E+03  0.93005237379E+02 0.  0.
        -24    2    1    2    0    0 -0.24331864472E+03 -0.14064781483E+02 -0.32495570353E+02  0.25895738680E+03  0.81247677757E+02 0.  0.
         11    1    4    4    0    0 -0.38220942680E+02  0.14338630440E+01 -0.37013999132E+02  0.53225299946E+02  0.00000000000E+00 0. -1.
        -12    1    4    4    0    0 -0.20509770204E+03 -0.15498644528E+02  0.45184287788E+01  0.20573208685E+03  0.00000000000E+00 0.  1.
        -11    1    3    3    0    0  0.22528887508E+02  0.69361315784E+02 -0.14331918958E-01  0.72928342262E+02  0.00000000000E+00 0.  1.
         11    1    3    3    0    0 -0.30002727981E+02  0.21530086868E+02 -0.60083898996E+02  0.70525054026E+02  0.00000000000E+00 0. -1.
          2    1    1    2  501    0  0.25079248519E+03 -0.76826621168E+02 -0.14995205407E+03  0.30213377644E+03  0.00000000000E+00 0. -1.
<scales pt_clust_5="13000.00000" pt_clust_6="13000.00000" pt_clust_7="13000.00000" pt_clust_8="13000.00000" pt_clust_9="247.19065"></scales>
<clustering>
<clus scale="   81.248">  5  6 -1 -1</clus>
<clus scale="   93.005">  7  8 -1 -1</clus>
<clus scale="  130.258">  2  7  1 -1</clus>
<clus scale="  247.191">  1  9  2 -1</clus>
<clus scale="  247.191">  1  5  2 -1</clus>
</clustering>
</event>
<event>
 9    1  0.6270443E-005  0.1116383E+03  0.7546771E-02  0.1267893E+00
         21   -1    0    0  501  502  0.00000000000E+00  0.00000000000E+00  0.10507704492E+03  0.10507704492E+03  0.00000000000E+00 0.  1.
          3   -1    0    0  502    0 -0.00000000000E+00 -0.00000000000E+00 -0.15274924106E+03  0.15274924106E+03  0.00000000000E+00 0. -1.
         23    2    1    2    0    0 -0.46646160125E+02 -0.12064599793E+02 -0.28689668468E+02  0.10716305093E+03  0.91320335004E+02 0.  0.
        -24    2    1    2    0    0  0.85404954128E+02 -0.44053135168E+01 -0.11575488623E+02  0.10790383393E+03  0.64775245757E+02 0.  0.
         11    1    4    4    0    0  0.30127606270E+02  0.18039378060E+02 -0.29226992632E+02  0.45687076057E+02  0.00000000000E+00 0. -1.
        -12    1    4    4    0    0  0.55277347858E+02 -0.22444691577E+02  0.17651504010E+02  0.62216757871E+02  0.00000000000E+00 0.  1.
        -11    1    3    3    0    0 -0.27616415876E+02  0.36906146201E+02  0.23250525201E+01  0.46153395568E+02  0.00000000000E+00 0.  1.
         11    1    3    3    0    0 -0.19029744249E+02 -0.48970745994E+02 -0.31014720988E+02  0.61009655362E+02  0.00000000000E+00 0. -1.
          4    1    1    2  501    0 -0.38758794003E+02  0.16469913310E+02 -0.74070390519E+01  0.42759401124E+02  0.00000000000E+00 0. -1.
<scales pt_clust_5="13000.00000" pt_clust_6="13000.00000" pt_clust_7="13000.00000" pt_clust_8="13000.00000" pt_clust_9="42.11297"></scales>
<clustering>
<clus scale="   42.113">  1  9  2 -1</clus>
<clus scale="   64.775">  5  6 -1 -1</clus>
<clus scale="   91.212">  1  5  2 -1</clus>
<clus scale="   91.320">  7  8 -1 -1</clus>
<clus scale="   42.113">  1  5  2 -1</clus>
</clustering>
</event>
<event>
 9    1  0.6270443E-005  0.9958374E+02  0.7546771E-02  0.1285899E+00
          1   -1    0    0  502    0 -0.00000000000E+00  0.00000000000E+00  0.18225373358E+03  0.18225373358E+03  0.00000000000E+00 0. -1.
         21   -1    0    0  501  502  0.00000000000E+00 -0.00000000000E+00 -0.11631719921E+03  0.11631719921E+03  0.00000000000E+00 0.  1.
         23    2    1    2    0    0 -0.79951427693E+01 -0.53834029474E+02  0.52321274483E+02  0.11858976109E+03  0.91454855722E+02 0.  0.
        -24    2    1    2    0    0 -0.60389834039E+01  0.62439529301E+01 -0.52113334516E+02  0.97628149864E+02  0.82097501440E+02 0.  0.
         11    1    4    4    0    0 -0.30763108844E+02 -0.24793919399E+02 -0.39796057875E+02  0.56078815316E+02  0.00000000000E+00 0. -1.
        -12    1    4    4    0    0  0.24724125440E+02  0.31037872329E+02 -0.12317276641E+02  0.41549334547E+02  0.00000000000E+00 0.  1.
        -11    1    3    3    0    0  0.22580881066E+02  0.17650154576E+02  0.13229571051E+02  0.31566528102E+02  0.00000000000E+00 0.  1.
         11    1    3    3    0    0 -0.30576023835E+02 -0.71484184050E+02  0.39091703431E+02  0.87023232990E+02  0.00000000000E+00 0. -1.
          2    1    1    2  501    0  0.14034126173E+02  0.47590076544E+02  0.65728594400E+02  0.82353021831E+02  0.00000000000E+00 0. -1.
<scales pt_clust_5="13000.00000" pt_clust_6="13000.00000" pt_clust_7="13000.00000" pt_clust_8="13000.00000" pt_clust_9="49.61627"></scales>
<clustering>
<clus scale="   49.616">  2  9  1 -1</clus>
<clus scale="   82.098">  5  6 -1 -1</clus>
<clus scale="   91.066">  2  5  1 -1</clus>
<clus scale="   91.455">  7  8 -1 -1</clus>
<clus scale="   49.616">  2  5  1 -1</clus>
</clustering>
</event>
<event>
 9    1  0.6270443E-005  0.1204171E+03  0.7546771E-02  0.1245675E+00
         21   -1    0    0  501  502  0.00000000000E+00  0.00000000000E+00  0.24344329671E+03  0.24344329671E+03  0.00000000000E+00 0.  1.
         -4   -1    0    0    0  501 -0.00000000000E+00 -0.00000000000E+00 -0.78600920190E+02  0.78600920190E+02  0.00000000000E+00 0.  1.
         23    2    1    2    0    0  0.17689057088E+02 -0.63852359092E+02  0.77434586509E+02  0.13703108777E+03  0.91604461271E+02 0.  0.
        -24    2    1    2    0    0 -0.63797488244E+01  0.92441954986E+02  0.92180429769E+02  0.15389973110E+03  0.81250719157E+02 0.  0.
         13    1    4    4    0    0 -0.10288489430E+02  0.75197416485E+02  0.10675504813E+03  0.13098528453E+03  0.00000000000E+00 0. -1.
        -14    1    4    4    0    0  0.39087406051E+01  0.17244538501E+02 -0.14574618365E+02  0.22914446572E+02  0.00000000000E+00 0.  1.
        -11    1    3    3    0    0 -0.23285774290E+01 -0.78149146918E+02  0.30273718634E+02  0.83840380943E+02  0.00000000000E+00 0.  1.
         11    1    3    3    0    0  0.20017634517E+02  0.14296787825E+02  0.47160867875E+02  0.53190706824E+02  0.00000000000E+00 0. -1.
         -3    1    1    2    0  502 -0.11309308263E+02 -0.28589595894E+02 -0.47726397587E+01  0.31113398031E+02  0.00000000000E+00 0.  1.
<scales pt_clust_5="13000.00000" pt_clust_6="13000.00000" pt_clust_7="13000.00000" pt_clust_8="13000.00000" pt_clust_9="30.74518"></scales>
<clustering>
<clus scale="   30.745">  1  9  2 -1</clus>
<clus scale="   81.251">  5  6 -1 -1</clus>
<clus scale="   91.604">  7  8 -1 -1</clus>
<clus scale="  112.741">  1  5  2 -1</clus>
<clus scale="   30.745">  1  5  2 -1</clus>
</clustering>
</event>
<event>
 9    1  0.6270443E-005  0.1007934E+03  0.7546771E-02  0.1281172E+00
          1   -1    0    0  502    0 -0.00000000000E+00  0.00000000000E+00  0.35524637366E+03  0.35524637366E+03  0.00000000000E+00 0. -1.
         21   -1    0    0  501  502  0.00000000000E+00 -0.00000000000E+00 -0.14385953105E+03  0.14385953105E+03  0.00000000000E+00 0. -1.
         23    2    1    2    0    0 -0.36329374091E+02 -0.35286453092E+02  0.11220565387E+03  0.15071251757E+03  0.86943642663E+02 0.  0.
        -24    2    1    2    0    0 -0.27997341107E+01  0.73389869919E+02 -0.95996910020E+02  0.14571766655E+03  0.81389926238E+02 0.  0.
         13    1    4    4    0    0  0.77160850599E+01  0.89799921785E+02 -0.78315352130E+02  0.11940208667E+03  0.00000000000E+00 0. -1.
        -14    1    4    4    0    0 -0.10515819171E+02 -0.16410051866E+02 -0.17681557890E+02  0.26315579881E+02  0.00000000000E+00 0.  1.
        -11    1    3    3    0    0 -0.55914757724E+02 -0.28453268448E+02  0.37301880912E+02  0.72989581012E+02  0.00000000000E+00 0. -1.
         11    1    3    3    0    0  0.19585383633E+02 -0.68331846431E+01  0.74903772960E+02  0.77722936563E+02  0.00000000000E+00 0.  1.
          2    1    1    2  501    0  0.39129108202E+02 -0.38103416828E+02  0.19517809876E+03  0.20267572059E+03  0.00000000000E+00 0. -1.
<scales pt_clust_5="13000.00000" pt_clust_6="13000.00000" pt_clust_7="13000.00000" pt_clust_8="13000.00000" pt_clust_9="54.61649"></scales>
<clustering>
<clus scale="   54.616">  2  9  1 -1</clus>
<clus scale="   81.390">  5  6 -1 -1</clus>
<clus scale="   86.944">  7  8 -1 -1</clus>
<clus scale="   96.044">  2  5  1 -1</clus>
<clus scale="   54.616">  2  5  1 -1</clus>
</clustering>
</event>
<event>
 9    1  0.6270443E-005  0.1471507E+03  0.7546771E-02  0.1229288E+00
          1   -1    0    0  502    0 -0.00000000000E+00  0.00000000000E+00  0.24238207969E+03  0.24238207969E+03  0.00000000000E+00 0. -1.
         21   -1    0    0  501  502  0.00000000000E+00 -0.00000000000E+00 -0.13871180496E+03  0.13871180496E+03  0.00000000000E+00 0. -1.
        -24    2    1    2    0    0  0.11408200454E+01 -0.11189130006E+02  0.13921165086E+02  0.87416202941E+02  0.85564569762E+02 0.  0.
         23    2    1    2    0    0 -0.47989882640E+02  0.11105776720E+03  0.99792022288E+02  0.18291017990E+03  0.94131980258E+02 0.  0.
         13    1    3    3    0    0  0.37573214175E+02 -0.35612883542E+01 -0.14657725142E+02  0.40487999513E+02  0.00000000000E+00 0. -1.
        -14    1    3    3    0    0 -0.36432394130E+02 -0.76278416513E+01  0.28578890228E+02  0.46928203428E+02  0.00000000000E+00 0.  1.
        -13    1    4    4    0    0  0.13391510134E+02  0.31384597136E+02 -0.84513293798E+01  0.35153242373E+02  0.00000000000E+00 0.  1.
         13    1    4    4    0    0 -0.61381392774E+02  0.79673170067E+02  0.10824335167E+03  0.14775693753E+03  0.00000000000E+00 0. -1.
          2    1    1    2  501    0  0.46849062595E+02 -0.99868637197E+02 -0.10042912647E+02  0.11076750180E+03  0.00000000000E+00 0. -1.
<scales pt_clust_5="13000.00000" pt_clust_6="13000.00000" pt_clust_7="13000.00000" pt_clust_8="13000.00000" pt_clust_9="113.10387"></scales>
<clustering>
<clus scale="   85.565">  5  6 -1 -1</clus>
<clus scale="   86.301">  1  5  2 -1</clus>
<clus scale="   94.132">  7  8 -1 -1</clus>
<clus scale="  113.104">  2  9  1 -1</clus>
<clus scale="  113.104">  2  5  1 -1</clus>
</clustering>
</event>
<event>
 9    1  0.6270443E-005  0.9366071E+02  0.7546771E-02  0.1298860E+00
          1   -1    0    0  502    0 -0.00000000000E+00  0.00000000000E+00  0.36199261705E+03  0.36199261705E+03  0.00000000000E+00 0. -1.
         21   -1    0    0  501  502  0.00000000000E+00 -0.00000000000E+00 -0.93605193386E+02  0.93605193386E+02  0.00000000000E+00 0. -1.
        -24    2    1    2    0    0 -0.31324501571E+02  0.10790433386E+02  0.28636743286E+03  0.29899132519E+03  0.79321170460E+02 0.  0.
         23    2    1    2    0    0  0.43804818301E+02  0.37629537885E+02 -0.18723685666E+02  0.10659843612E+03  0.87623090278E+02 0.  0.
         13    1    3    3    0    0 -0.32397197530E+02 -0.19104646909E+02  0.61111898277E+02  0.71758135792E+02  0.00000000000E+00 0. -1.
        -14    1    3    3    0    0  0.10726959590E+01  0.29895080295E+02  0.22525553458E+03  0.22723318940E+03  0.00000000000E+00 0.  1.
        -13    1    4    4    0    0  0.27206055245E+02  0.62152875107E+01 -0.51297045508E+02  0.58396798873E+02  0.00000000000E+00 0. -1.
         13    1    4    4    0    0  0.16598763057E+02  0.31414250374E+02  0.32573359842E+02  0.48201637244E+02  0.00000000000E+00 0.  1.
          2    1    1    2  501    0 -0.12480316730E+02 -0.48419971271E+02  0.74367647331E+00  0.50008049135E+02  0.00000000000E+00 0. -1.
<scales pt_clust_5="13000.00000" pt_clust_6="13000.00000" pt_clust_7="13000.00000" pt_clust_8="13000.00000" pt_clust_9="50.00252"></scales>
<clustering>
<clus scale="   50.003">  2  9  1 -1</clus>
<clus scale="   79.321">  5  6 -1 -1</clus>
<clus scale="   85.944">  1  5  2 -1</clus>
<clus scale="   87.623">  7  8 -1 -1</clus>
<clus scale="   50.003">  2  5  1 -1</clus>
</clustering>
</event>
<event>
 9    1  0.6270443E-005  0.2385704E+03  0.7546771E-02  0.1120922E+00
         21   -1    0    0  501  502  0.00000000000E+00  0.00000000000E+00  0.68831319551E+02  0.68831319551E+02  0.00000000000E+00 0. -1.
          1   -1    0    0  502    0 -0.00000000000E+00 -0.00000000000E+00 -0.95057189498E+03  0.95057189498E+03  0.00000000000E+00 0. -1.
        -24    2    1    2    0    0  0.21981381145E+02  0.22973333715E+03 -0.51416810941E+03  0.57038528657E+03  0.87806281578E+02 0.  0.
         23    2    1    2    0    0 -0.39517493925E+02 -0.20455955257E+03 -0.32124195614E+03  0.39345039403E+03  0.90557027924E+02 0.  0.
         13    1    3    3    0    0  0.25398366990E+02  0.19005711433E+03 -0.32738775332E+03  0.37940680645E+03  0.00000000000E+00 0. -1.
        -14    1    3    3    0    0 -0.34169858452E+01  0.39676222823E+02 -0.18678035609E+03  0.19097848012E+03  0.00000000000E+00 0.  1.
        -11    1    4    4    0    0 -0.46527085158E+02 -0.50407881024E+02 -0.13628003614E+03  0.15257120428E+03  0.00000000000E+00 0.  1.
         11    1    4    4    0    0  0.70095912337E+01 -0.15415167154E+03 -0.18496191999E+03  0.24087918976E+03  0.00000000000E+00 0. -1.
          2    1    1    2  501    0  0.17536112780E+02 -0.25173784581E+02 -0.46330509878E+02  0.55567533930E+02  0.00000000000E+00 0. -1.
<scales pt_clust_5="13000.00000" pt_clust_6="13000.00000" pt_clust_7="13000.00000" pt_clust_8="13000.00000" pt_clust_9="30.67955"></scales>
<clustering>
<clus scale="   30.680">  1  9  2 -1</clus>
<clus scale="   87.806">  5  6 -1 -1</clus>
<clus scale="   90.557">  7  8 -1 -1</clus>
<clus scale="  237.540">  2  5  1 -1</clus>
<clus scale="   30.680">  1  5  2 -1</clus>
</clustering>
</event>
<event>
 9    1  0.6270443E-005  0.1711313E+03  0.7546771E-02  0.1185490E+00
         -2   -1    0    0    0  501 -0.00000000000E+00  0.00000000000E+00  0.27107406857E+03  0.27107406857E+03  0.00000000000E+00 0.  1.
         21   -1    0    0  501  502  0.00000000000E+00 -0.00000000000E+00 -0.37569449541E+03  0.37569449541E+03  0.00000000000E+00 0.  1.
         23    2    1    2    0    0  0.26441001588E+02 -0.10382709021E+03 -0.98694109153E+02  0.17163083807E+03  0.90760267568E+02 0.  0.
        -24    2    1    2    0    0 -0.16501275619E+03  0.13561133494E+03  0.14184726402E+03  0.27007822032E+03  0.84864332391E+02 0.  0.
         11    1    4    4    0    0  0.81861391990E+01  0.19548752045E+02  0.15943416520E+02  0.26520918382E+02  0.00000000000E+00 0. -1.
        -12    1    4    4    0    0 -0.17319889539E+03  0.11606258289E+03  0.12590384750E+03  0.24355730194E+03  0.00000000000E+00 0.  1.
        -13    1    3    3    0    0  0.17552536588E+02 -0.21529653635E+02 -0.82809678708E+02  0.87344492752E+02  0.00000000000E+00 0. -1.
         13    1    3    3    0    0  0.88884649999E+01 -0.82297436572E+02 -0.15884430444E+02  0.84286345317E+02  0.00000000000E+00 0.  1.
         -1    1    1    2    0  502  0.13857175460E+03 -0.31784244729E+02 -0.14777358171E+03  0.20505950560E+03  0.00000000000E+00 0.  1.
<scales pt_clust_5="13000.00000" pt_clust_6="13000.00000" pt_clust_7="13000.00000" pt_clust_8="13000.00000" pt_clust_9="148.60671"></scales>
<clustering>
<clus scale="   84.864">  5  6 -1 -1</clus>
<clus scale="   90.760">  7  8 -1 -1</clus>
<clus scale="  140.416">  1  7  2 -1</clus>
<clus scale="  148.607">  2  9  1 -1</clus>
<clus scale="  148.607">  2  5  1 -1</clus>
</clustering>
</event>
<event>
 9    1  0.6270443E-005  0.1597954E+03  0.7546771E-02  0.1190534E+00
          1   -1    0    0  502    0 -0.00000000000E+00  0.00000000000E+00  0.86776137593E+03  0.86776137593E+03  0.00000000000E+00 0. -1.
         21   -1    0    0  501  502  0.00000000000E+00 -0.00000000000E+00 -0.87096892136E+02  0.87096892136E+02  0.00000000000E+00 0.  1.
         23    2    1    2    0    0 -0.11775500137E+03  0.74945923618E+02  0.75340480243E+03  0.77166476804E+03  0.91458111198E+02 0.  0.
        -24    2    1    2    0    0  0.69150686080E+02 -0.59789201633E+02  0.43335423117E+02  0.12980309678E+03  0.81328463766E+02 0.  0.
         13    1    4    4    0    0  0.19777531702E+02  0.17652507590E+02 -0.34466705432E+01  0.26732776180E+02  0.00000000000E+00 0. -1.
        -14    1    4    4    0    0  0.49373154378E+02 -0.77441709223E+02  0.46782093660E+02  0.10307032060E+03  0.00000000000E+00 0.  1.
        -11    1    3    3    0    0 -0.74065195985E+02 -0.63746295465E+01  0.31633163401E+03  0.32494921424E+03  0.00000000000E+00 0.  1.
         11    1    3    3    0    0 -0.43689805387E+02  0.81320553164E+02  0.43707316842E+03  0.44671555381E+03  0.00000000000E+00 0. -1.
          2    1    1    2  501    0  0.48604315291E+02 -0.15156721984E+02 -0.16075741748E+02  0.53390403248E+02  0.00000000000E+00 0. -1.
<scales pt_clust_5="13000.00000" pt_clust_6="13000.00000" pt_clust_7="13000.00000" pt_clust_8="13000.00000" pt_clust_9="50.91273"></scales>
<clustering>
<clus scale="   50.913">  2  9  1 -1</clus>
<clus scale="   81.328">  5  6 -1 -1</clus>
<clus scale="   91.458">  7  8 -1 -1</clus>
<clus scale="  154.222">  2  5  1 -1</clus>
<clus scale="   50.913">  2  5  1 -1</clus>
</clustering>
</event>
<event>
 9    1  0.6270443E-005  0.1049817E+03  0.7546771E-02  0.1278556E+00
         21   -1    0    0  501  502  0.00000000000E+00  0.00000000000E+00  0.13953367769E+03  0.13953367769E+03  0.00000000000E+00 0.  1.
          1   -1    0    0  502    0 -0.00000000000E+00 -0.00000000000E+00 -0.15149697005E+03  0.15149697005E+03  0.00000000000E+00 0. -1.
         23    2    1    2    0    0  0.32874383855E+02  0.16630773280E+02 -0.53193282591E+02  0.11714699781E+03  0.97655445572E+02 0.  0.
        -24    2    1    2    0    0 -0.21413766691E+01 -0.64506524824E+02  0.52569629604E+02  0.11587336862E+03  0.80606416369E+02 0.  0.
         13    1    4    4    0    0 -0.20824625298E+02 -0.50628248875E+02 -0.38126219356E+01  0.54876412866E+02  0.00000000000E+00 0. -1.
        -14    1    4    4    0    0  0.18683248629E+02 -0.13878275949E+02  0.56382251540E+02  0.60996955754E+02  0.00000000000E+00 0.  1.
        -11    1    3    3    0    0  0.31040433304E+02  0.52158393084E+02 -0.10538399090E+02  0.61604093404E+02  0.00000000000E+00 0. -1.
         11    1    3    3    0    0  0.18339505510E+01 -0.35527619804E+02 -0.42654883501E+02  0.55542904408E+02  0.00000000000E+00 0.  1.
          2    1    1    2  501    0 -0.30733007186E+02  0.47875751544E+02 -0.11339639365E+02  0.58010281309E+02  0.00000000000E+00 0. -1.
<scales pt_clust_5="13000.00000" pt_clust_6="13000.00000" pt_clust_7="13000.00000" pt_clust_8="13000.00000" pt_clust_9="56.89120"></scales>
<clustering>
<clus scale="   56.891">  1  9  2 -1</clus>
<clus scale="   80.606">  5  6 -1 -1</clus>
<clus scale="   89.342">  1  5  2 -1</clus>
<clus scale="   97.655">  7  8 -1 -1</clus>
<clus scale="   56.891">  1  5  2 -1</clus>
</clustering>
</event>
<event>
 9    1  0.6270443E-005  0.1190968E+03  0.7546771E-02  0.1249567E+00
         21   -1    0    0  501  502  0.00000000000E+00  0.00000000000E+00  0.31265229088E+03  0.31265229088E+03  0.00000000000E+00 0. -1.
          3   -1    0    0  502    0 -0.00000000000E+00 -0.00000000000E+00 -0.83689328298E+02  0.83689328298E+02  0.00000000000E+00 0. -1.
         23    2    1    2    0    0 -0.63519464821E+02 -0.25839842942E+02  0.11279464099E+03  0.16231915877E+03  0.94458765472E+02 0.  0.
        -24    2    1    2    0    0  0.51963346487E+02  0.64027592274E+02  0.14494052959E+03  0.18483213592E+03  0.79721009791E+02 0.  0.
         11    1    4    4    0    0  0.26886992727E+02  0.55144698551E+02  0.14583483208E+03  0.15821392607E+03  0.00000000000E+00 0. -1.
        -12    1    4    4    0    0  0.25076353759E+02  0.88828937229E+01 -0.89430248822E+00  0.26618209851E+02  0.00000000000E+00 0.  1.
        -11    1    3    3    0    0  0.14977891926E+02 -0.16385426195E+02  0.67813650918E+02  0.71354822465E+02  0.00000000000E+00 0.  1.
         11    1    3    3    0    0 -0.78497356747E+02 -0.94544167472E+01  0.44980990073E+02  0.90964336310E+02  0.00000000000E+00 0. -1.
          4    1    1    2  501    0  0.11556118335E+02 -0.38187749332E+02 -0.28772207994E+02  0.49190324484E+02  0.00000000000E+00 0. -1.
<scales pt_clust_5="13000.00000" pt_clust_6="13000.00000" pt_clust_7="13000.00000" pt_clust_8="13000.00000" pt_clust_9="39.89799"></scales>
<clustering>
<clus scale="   39.898">  1  9  2 -1</clus>
<clus scale="   79.721">  5  6 -1 -1</clus>
<clus scale="   94.459">  7  8 -1 -1</clus>
<clus scale="  107.782">  1  5  2 -1</clus>
<clus scale="   39.898">  1  5  2 -1</clus>
</clustering>
</event>
<event>
 9    1  0.6270443E-005  0.1006273E+03  0.7546771E-02  0.1286588E+00
         -2   -1    0    0    0  501 -0.00000000000E+00  0.00000000000E+00  0.11082953945E+03  0.11082953945E+03  0.00000000000E+00 0.  1.
         21   -1    0    0  501  502  0.00000000000E+00 -0.00000000000E+00 -0.30513092866E+03  0.30513092866E+03  0.00000000000E+00 0. -1.
        -24    2    1    2    0    0  0.16940532867E+02  0.31859641165E+02  0.76417261023E+02  0.11655579030E+03  0.80272262211E+02 0.  0.
         23    2    1    2    0    0  0.53454727177E+01 -0.11458006566E+02 -0.22651196118E+03  0.24585914488E+03  0.94758591007E+02 0.  0.
         13    1    3    3    0    0  0.38697385078E+02  0.14103300780E+02  0.78234728542E+02  0.88414158678E+02  0.00000000000E+00 0. -1.
        -14    1    3    3    0    0 -0.21756852211E+02  0.17756340385E+02 -0.18174675189E+01  0.28141631619E+02  0.00000000000E+00 0.  1.
        -13    1    4    4    0    0  0.23947831597E+02 -0.33400515713E+02 -0.20713999259E+03  0.21117781517E+03  0.00000000000E+00 0. -1.
         13    1    4    4    0    0 -0.18602358880E+02  0.21942509148E+02 -0.19371968592E+02  0.34681329713E+02  0.00000000000E+00 0.  1.
         -1    1    1    2    0  502 -0.22286005585E+02 -0.20401634599E+02 -0.44206689052E+02  0.53545532925E+02  0.00000000000E+00 0.  1.
<scales pt_clust_5="13000.00000" pt_clust_6="13000.00000" pt_clust_7="13000.00000" pt_clust_8="13000.00000" pt_clust_9="30.21411"></scales>
<clustering>
<clus scale="   30.214">  2  9  1 -1</clus>
<clus scale="   80.272">  5  6 -1 -1</clus>
<clus scale="   87.122">  1  5  2 -1</clus>
<clus scale="   94.759">  7  8 -1 -1</clus>
<clus scale="   30.214">  2  5  1 -1</clus>
</clustering>
</event>
<event>
 9    1  0.6270443E-005  0.1610277E+03  0.7546771E-02  0.1189348E+00
         21   -1    0    0  501  502  0.00000000000E+00  0.00000000000E+00  0.14081155058E+03  0.14081155058E+03  0.00000000000E+00 0. -1.
          1   -1    0    0  502    0 -0.00000000000E+00 -0.00000000000E+00 -0.29094094452E+03  0.29094094452E+03  0.00000000000E+00 0. -1.
         23    2    1    2    0    0 -0.84150560367E+02 -0.68811723124E+02 -0.69291010803E+02  0.15779003770E+03  0.90994954638E+02 0.  0.
        -24    2    1    2    0    0  0.11054948005E+03  0.11620282996E+03 -0.11231351387E+03  0.21124480581E+03  0.79282768317E+02 0.  0.
         13    1    4    4    0    0  0.12313050689E+03  0.10819457048E+03 -0.10473261734E+03  0.19451505840E+03  0.00000000000E+00 0. -1.
        -14    1    4    4    0    0 -0.12581026838E+02  0.80082594813E+01 -0.75808965262E+01  0.16729747409E+02  0.00000000000E+00 0.  1.
        -13    1    3    3    0    0 -0.45873708638E+02  0.11381778847E+02 -0.45941741664E+02  0.65913471013E+02  0.00000000000E+00 0. -1.
         13    1    3    3    0    0 -0.38276851729E+02 -0.80193501970E+02 -0.23349269139E+02  0.91876566685E+02  0.00000000000E+00 0.  1.
          2    1    1    2  501    0 -0.26398919682E+02 -0.47391106838E+02  0.31475130727E+02  0.62717651598E+02  0.00000000000E+00 0. -1.
<scales pt_clust_5="13000.00000" pt_clust_6="13000.00000" pt_clust_7="13000.00000" pt_clust_8="13000.00000" pt_clust_9="54.24776"></scales>
<clustering>
<clus scale="   54.248">  1  9  2 -1</clus>
<clus scale="   79.283">  5  6 -1 -1</clus>
<clus scale="   90.995">  7  8 -1 -1</clus>
<clus scale="  154.711">  1  5  2 -1</clus>
<clus scale="   54.248">  1  5  2 -1</clus>
</clustering>
</event>
<event>
 9    1  0.6270443E-005  0.9359856E+02  0.7546771E-02  0.1298195E+00
          1   -1    0    0  502    0 -0.00000000000E+00  0.00000000000E+00  0.62272471255E+02  0.62272471255E+02  0.00000000000E+00 0. -1.
         21   -1    0    0  501  502  0.00000000000E+00 -0.00000000000E+00 -0.29685567301E+03  0.29685567301E+03  0.00000000000E+00 0. -1.
        -24    2    1    2    0    0  0.29964478896E+02  0.35693486274E+02 -0.14144362943E+02  0.93514060401E+02  0.79830580178E+02 0.  0.
         23    2    1    2    0    0  0.23158796583E+02 -0.20907562132E+02 -0.12426551330E+03  0.15475374609E+03  0.86794862296E+02 0.  0.
         11    1    3    3    0    0  0.14145465692E+01  0.56846637669E+02 -0.10066584243E+02  0.57748396295E+02  0.00000000000E+00 0. -1.
        -12    1    3    3    0    0  0.28549932327E+02 -0.21153151395E+02 -0.40777786999E+01  0.35765664106E+02  0.00000000000E+00 0.  1.
        -11    1    4    4    0    0 -0.26728753830E+02 -0.27013698030E+02 -0.31971970286E+02  0.49662592024E+02  0.00000000000E+00 0.  1.
         11    1    4    4    0    0  0.49887550413E+02  0.61061358979E+01 -0.92293543010E+02  0.10509115407E+03  0.00000000000E+00 0. -1.
          2    1    1    2  501    0 -0.53123275478E+02 -0.14785924142E+02 -0.96173325519E+02  0.11086033778E+03  0.00000000000E+00 0. -1.
<scales pt_clust_5="13000.00000" pt_clust_6="13000.00000" pt_clust_7="13000.00000" pt_clust_8="13000.00000" pt_clust_9="55.14260"></scales>
<clustering>
<clus scale="   55.143">  2  9  1 -1</clus>
<clus scale="   79.831">  5  6 -1 -1</clus>
<clus scale="   86.795">  7  8 -1 -1</clus>
<clus scale="   87.179">  1  5  2 -1</clus>
<clus scale="   55.143">  2  5  1 -1</clus>
</clustering>
</event>
<event>
 9    1  0.6270443E-005  0.1610263E+03  0.7546771E-02  0.1189027E+00
          3   -1    0    0  502    0 -0.00000000000E+00  0.00000000000E+00  0.33647325944E+03  0.33647325944E+03  0.00000000000E+00 0. -1.
         21   -1    0    0  501  502  0.00000000000E+00 -0.00000000000E+00 -0.17658886038E+03  0.17658886038E+03  0.00000000000E+00 0. -1.
        -24    2    1    2    0    0  0.71888862652E+02 -0.94989253704E+02  0.13896905479E+03  0.20005744812E+03  0.80744148174E+02 0.  0.
         23    2    1    2    0    0 -0.17153131809E+03  0.86396113218E+02  0.16109369879E+02  0.21287696135E+03  0.90386986951E+02 0.  0.
         11    1    3    3    0    0  0.82798829739E+01 -0.53404840115E+02  0.10225525149E+03  0.11565798661E+03  0.00000000000E+00 0. -1.
        -12    1    3    3    0    0  0.63608979678E+02 -0.41584413590E+02  0.36713803299E+02  0.84399461503E+02  0.00000000000E+00 0.  1.
        -11    1    4    4    0    0  0.32790287130E+01  0.21098832687E+02 -0.11477265046E+02  0.24241294994E+02  0.00000000000E+00 0.  1.
         11    1    4    4    0    0 -0.17481034681E+03  0.65297280531E+02  0.27586634925E+02  0.18863566636E+03  0.00000000000E+00 0. -1.
          4    1    1    2  501    0  0.99642455441E+02  0.85931404862E+01  0.48059743872E+01  0.10012771035E+03  0.00000000000E+00 0. -1.
<scales pt_clust_5="13000.00000" pt_clust_6="13000.00000" pt_clust_7="13000.00000" pt_clust_8="13000.00000" pt_clust_9="100.01230"></scales>
<clustering>
<clus scale="   80.744">  5  6 -1 -1</clus>
<clus scale="   90.387">  7  8 -1 -1</clus>
<clus scale="  100.012">  2  9  1 -1</clus>
<clus scale="  155.818">  1  5  2 -1</clus>
<clus scale="  100.012">  2  5  1 -1</clus>
</clustering>
</event>
<event>
 9    1  0.6270443E-005  0.9706058E+02  0.7546771E-02  0.1291204E+00
         21   -1    0    0  501  502  0.00000000000E+00  0.00000000000E+00  0.10254581840E+03  0.10254581840E+03  0.00000000000E+00 0.  1.
         -4   -1    0    0    0  501 -0.00000000000E+00 -0.00000000000E+00 -0.38874748483E+03  0.38874748483E+03  0.00000000000E+00 0.  1.
         23    2    1    2    0    0  0.24135095390E+02 -0.35743535242E+02 -0.12935719174E+03  0.16360438061E+03  0.90404685491E+02 0.  0.
        -24    2    1    2    0    0  0.63431718454E+01  0.11374179372E+01  0.62793392075E+02  0.10326231848E+03  0.81722498616E+02 0.  0.
         11    1    4    4    0    0 -0.18089835321E+02  0.35464763811E+02  0.31891243852E+02  0.51010224941E+02  0.00000000000E+00 0. -1.
        -12    1    4    4    0    0  0.24433007166E+02 -0.34327345874E+02  0.30902148223E+02  0.52252093534E+02  0.00000000000E+00 0.  1.
        -11    1    3    3    0    0  0.10107883052E-01  0.29491662984E+02 -0.50282847113E+02  0.58293421598E+02  0.00000000000E+00 0. -1.
         11    1    3    3    0    0  0.24124987507E+02 -0.65235198226E+02 -0.79074344626E+02  0.10531095901E+03  0.00000000000E+00 0.  1.
         -3    1    1    2    0  502 -0.30478267235E+02  0.34606117305E+02 -0.21963786677E+03  0.22442660414E+03  0.00000000000E+00 0.  1.
<scales pt_clust_5="13000.00000" pt_clust_6="13000.00000" pt_clust_7="13000.00000" pt_clust_8="13000.00000" pt_clust_9="46.11410"></scales>
<clustering>
<clus scale="   46.114">  1  9  2 -1</clus>
<clus scale="   81.722">  5  6 -1 -1</clus>
<clus scale="   89.030">  1  5  2 -1</clus>
<clus scale="   90.405">  7  8 -1 -1</clus>
<clus scale="   46.114">  1  5  2 -1</clus>
</clustering>
</event>
<event>
 9    1  0.6270443E-005  0.1268367E+03  0.7546771E-02  0.1243186E+00
         -2   -1    0    0    0  501 -0.00000000000E+00  0.00000000000E+00  0.62654659187E+03  0.62654659187E+03  0.00000000000E+00 0.  1.
         21   -1    0    0  501  502  0.00000000000E+00 -0.00000000000E+00 -0.16082807506E+03  0.16082807506E+03  0.00000000000E+00 0.  1.
         23    2    1    2    0    0 -0.47830986892E+02  0.21415001452E+02  0.32172884890E+03  0.34442787479E+03  0.11124164294E+03 0.  0.
        -24    2    1    2    0    0  0.71295977802E+02  0.24115740045E+01  0.28145710945E+03  0.30147026059E+03  0.81100440294E+02 0.  0.
         11    1    4    4    0    0  0.83274644687E+02 -0.54929690322E+01  0.17310997426E+03  0.19217674767E+03  0.00000000000E+00 0. -1.
        -12    1    4    4    0    0 -0.11978666885E+02  0.79045430367E+01  0.10834713519E+03  0.10929351292E+03  0.00000000000E+00 0.  1.
        -11    1    3    3    0    0 -0.65728449741E+02  0.52867338316E+02  0.25396186932E+03  0.26760384084E+03  0.00000000000E+00 0.  1.
         11    1    3    3    0    0  0.17897462849E+02 -0.31452336864E+02  0.67766979586E+02  0.76824033953E+02  0.00000000000E+00 0. -1.
         -1    1    1    2    0  502 -0.23464990910E+02 -0.23826575456E+02 -0.13746744154E+03  0.14147653156E+03  0.00000000000E+00 0.  1.
<scales pt_clust_5="13000.00000" pt_clust_6="13000.00000" pt_clust_7="13000.00000" pt_clust_8="13000.00000" pt_clust_9="33.44116"></scales>
<clustering>
<clus scale="   33.441">  2  9  1 -1</clus>
<clus scale="   81.100">  5  6 -1 -1</clus>
<clus scale="  101.440">  2  5  1 -1</clus>
<clus scale="  111.242">  7  8 -1 -1</clus>
<clus scale="   33.441">  2  5  1 -1</clus>
</clustering>
</event>
<event>
 9    1  0.6270443E-005  0.1863228E+03  0.7546771E-02  0.1162055E+00
         -4   -1    0    0    0  501 -0.00000000000E+00  0.00000000000E+00  0.66930684712E+03  0.66930684712E+03  0.00000000000E+00 0.  1.
         21   -1    0    0  501  502  0.00000000000E+00 -0.00000000000E+00 -0.81704963662E+02  0.81704963662E+02  0.00000000000E+00 0.  1.
        -24    2    1    2    0    0  0.13907670302E+03  0.73656913455E+02  0.47052923537E+03  0.50581903176E+03  0.98424902004E+02 0.  0.
         23    2    1    2    0    0 -0.13083903117E+03 -0.95318245230E+02  0.11737041849E+03  0.22201604071E+03  0.96492938828E+02 0.  0.
         11    1    3    3    0    0  0.88543034538E+02 -0.68805753035E+01  0.26184634872E+03  0.27649723619E+03  0.00000000000E+00 0. -1.
        -12    1    3    3    0    0  0.50533668483E+02  0.80537488758E+02  0.20868288665E+03  0.22932179557E+03  0.00000000000E+00 0.  1.
        -13    1    4    4    0    0 -0.11312700179E+03 -0.57434747982E+02  0.12655477439E+03  0.17919983184E+03  0.00000000000E+00 0.  1.
         13    1    4    4    0    0 -0.17712029379E+02 -0.37883497248E+02 -0.91843559023E+01  0.42816208868E+02  0.00000000000E+00 0. -1.
         -3    1    1    2    0  502 -0.82376718506E+01  0.21661331776E+02 -0.29777039300E+00  0.23176738317E+02  0.00000000000E+00 0.  1.
<scales pt_clust_5="13000.00000" pt_clust_6="13000.00000" pt_clust_7="13000.00000" pt_clust_8="13000.00000" pt_clust_9="23.17483"></scales>
<clustering>
<clus scale="   23.175">  2  9  1 -1</clus>
<clus scale="   96.493">  7  8 -1 -1</clus>
<clus scale="   98.425">  5  6 -1 -1</clus>
<clus scale="  185.309">  2  7  1 -1</clus>
<clus scale="   23.175">  2  5  1 -1</clus>
</clustering>
</event>
<event>
 9    1  0.6270443E-005  0.9997679E+02  0.7546771E-02  0.1286005E+00
         -4   -1    0    0    0  501 -0.00000000000E+00  0.00000000000E+00  0.21374250535E+03  0.21374250535E+03  0.00000000000E+00 0.  1.
         21   -1    0    0  501  502  0.00000000000E+00 -0.00000000000E+00 -0.17693315186E+03  0.17693315186E+03  0.00000000000E+00 0.  1.
         23    2    1    2    0    0 -0.37232835256E+02 -0.27734924638E+00  0.18011411927E+03  0.20590475889E+03  0.92570582941E+02 0.  0.
        -24    2    1    2    0    0  0.43377925967E+02 -0.19457544620E+02 -0.12818356132E+03  0.15916076362E+03  0.81491611704E+02 0.  0.
         11    1    4    4    0    0 -0.23794761549E+02 -0.46555598543E+00 -0.24395574407E+02  0.34081541488E+02  0.00000000000E+00 0. -1.
        -12    1    4    4    0    0  0.67172687517E+02 -0.18991988634E+02 -0.10378798691E+03  0.12507922213E+03  0.00000000000E+00 0.  1.
        -13    1    3    3    0    0 -0.46100283363E+02  0.33647853951E+02  0.69865601936E+02  0.90214281217E+02  0.00000000000E+00 0.  1.
         13    1    3    3    0    0  0.88674481069E+01 -0.33925203197E+02  0.11024851734E+03  0.11569047767E+03  0.00000000000E+00 0. -1.
         -3    1    1    2    0  502 -0.61450907115E+01  0.19734893866E+02 -0.15121204458E+02  0.25610134713E+02  0.00000000000E+00 0.  1.
<scales pt_clust_5="13000.00000" pt_clust_6="13000.00000" pt_clust_7="13000.00000" pt_clust_8="13000.00000" pt_clust_9="20.66950"></scales>
<clustering>
<clus scale="   20.669">  2  9  1 -1</clus>
<clus scale="   81.492">  5  6 -1 -1</clus>
<clus scale="   89.816">  2  5  1 -1</clus>
<clus scale="   92.571">  7  8 -1 -1</clus>
<clus scale="   20.669">  2  5  1 -1</clus>
</clustering>
</event>
<event>
 9    1  0.6270443E-005  0.1271305E+03  0.7546771E-02  0.1236898E+00
          1   -1    0    0  502    0 -0.00000000000E+00  0.00000000000E+00  0.97308073473E+02  0.97308073473E+02  0.00000000000E+00 0. -1.
         21   -1    0    0  501  502  0.00000000000E+00 -0.00000000000E+00 -0.54611222421E+03  0.54611222421E+03  0.00000000000E+00 0.  1.
        -24    2    1    2    0    0 -0.50783526113E+02 -0.45285482210E+02 -0.39953846271E+02  0.11314289979E+03  0.81088004772E+02 0.  0.
         23    2    1    2    0    0  0.11336908660E+03  0.10109953359E+03 -0.40813929990E+03  0.44641640433E+03  0.98164415342E+02 0.  0.
         13    1    3    3    0    0  0.41464749634E+01  0.19841412188E+02 -0.11575002601E+02  0.23342141664E+02  0.00000000000E+00 0. -1.
        -14    1    3    3    0    0 -0.54930001077E+02 -0.65126894398E+02 -0.28378843670E+02  0.89800758128E+02  0.00000000000E+00 0.  1.
        -13    1    4    4    0    0  0.49612820935E+01  0.33202563106E+02 -0.19476958654E+03  0.19764163619E+03  0.00000000000E+00 0.  1.
         13    1    4    4    0    0  0.10840780451E+03  0.67896970487E+02 -0.21336971336E+03  0.24877476814E+03  0.00000000000E+00 0. -1.
          2    1    1    2  501    0 -0.62585560491E+02 -0.55814051383E+02 -0.71100456398E+00  0.83860993562E+02  0.00000000000E+00 0. -1.
<scales pt_clust_5="13000.00000" pt_clust_6="13000.00000" pt_clust_7="13000.00000" pt_clust_8="13000.00000" pt_clust_9="83.85802"></scales>
<clustering>
<clus scale="   81.088">  5  6 -1 -1</clus>
<clus scale="   83.858">  2  9  1 -1</clus>
<clus scale="   98.164">  7  8 -1 -1</clus>
<clus scale="  114.460">  1  5  2 -1</clus>
<clus scale="   83.858">  2  5  1 -1</clus>
</clustering>
</event>
<event>
 9    1  0.6270443E-005  0.1326251E+03  0.7546771E-02  0.1225901E+00
         21   -1    0    0  501  502  0.00000000000E+00  0.00000000000E+00  0.31696354872E+03  0.31696354872E+03  0.00000000000E+00 0. -1.
          3   -1    0    0  502    0 -0.00000000000E+00 -0.00000000000E+00 -0.14957265228E+03  0.14957265228E+03  0.00000000000E+00 0. -1.
        -24    2    1    2    0    0  0.26918501169E+02  0.10487975811E+03 -0.90090702554E+02  0.16211481036E+03  0.80252773687E+02 0.  0.
         23    2    1    2    0    0 -0.11772818455E+02 -0.49876321802E+02  0.14166987684E+03  0.17532017183E+03  0.89669180413E+02 0.  0.
         11    1    3    3    0    0  0.46154064556E+00  0.98496244121E+02 -0.92068269406E+02  0.13482688663E+03  0.00000000000E+00 0. -1.
        -12    1    3    3    0    0  0.26456960524E+02  0.63835139905E+01  0.19775668525E+01  0.27287923733E+02  0.00000000000E+00 0.  1.
        -11    1    4    4    0    0 -0.31932537574E+02 -0.12430932390E+01  0.99513053492E+01  0.33470296008E+02  0.00000000000E+00 0.  1.
         11    1    4    4    0    0  0.20159719119E+02 -0.48633228563E+02  0.13171857149E+03  0.14184987582E+03  0.00000000000E+00 0. -1.
          4    1    1    2  501    0 -0.15145682714E+02 -0.55003436309E+02  0.11581172215E+03  0.12910121881E+03  0.00000000000E+00 0. -1.
<scales pt_clust_5="13000.00000" pt_clust_6="13000.00000" pt_clust_7="13000.00000" pt_clust_8="13000.00000" pt_clust_9="57.05059"></scales>
<clustering>
<clus scale="   57.051">  1  9  2 -1</clus>
<clus scale="   80.253">  5  6 -1 -1</clus>
<clus scale="   89.669">  7  8 -1 -1</clus>
<clus scale="  126.449">  2  5  1 -1</clus>
<clus scale="   57.051">  1  5  2 -1</clus>
</clustering>
</event>
<event>
 9    1  0.6270443E-005  0.2625187E+03  0.7546771E-02  0.1105639E+00
          1   -1    0    0  502    0 -0.00000000000E+00  0.00000000000E+00  0.58777710716E+03  0.58777710716E+03  0.00000000000E+00 0. -1.
         21   -1    0    0  501  502  0.00000000000E+00 -0.00000000000E+00 -0.84542875812E+02  0.84542875812E+02  0.00000000000E+00 0. -1.
        -24    2    1    2    0    0  0.31323533335E+01 -0.92629185599E+02  0.20111004423E+03  0.23576798750E+03  0.80940202488E+02 0.  0.
         23    2    1    2    0    0  0.85677025725E+00 -0.90376679866E+02  0.83870873238E+02  0.15169840339E+03  0.88370831691E+02 0.  0.
         13    1    3    3    0    0  0.30889772267E+02 -0.55448113045E+02  0.60447531668E+02  0.87650301515E+02  0.00000000000E+00 0. -1.
        -14    1    3    3    0    0 -0.27757418934E+02 -0.37181072554E+02  0.14066251256E+03  0.14811768599E+03  0.00000000000E+00 0.  1.
        -13    1    4    4    0    0  0.15426672974E+02 -0.35388505095E+02 -0.11821755355E+02  0.40374279332E+02  0.00000000000E+00 0.  1.
         13    1    4    4    0    0 -0.14569902716E+02 -0.54988174771E+02  0.95692628592E+02  0.11132412406E+03  0.00000000000E+00 0. -1.
          2    1    1    2  501    0 -0.39891235908E+01  0.18300586547E+03  0.21825331388E+03  0.28485359208E+03  0.00000000000E+00 0. -1.
<scales pt_clust_5="13000.00000" pt_clust_6="13000.00000" pt_clust_7="13000.00000" pt_clust_8="13000.00000" pt_clust_9="183.04943"></scales>
<clustering>
<clus scale="   80.940">  5  6 -1 -1</clus>
<clus scale="   88.371">  7  8 -1 -1</clus>
<clus scale="  119.833">  5  7 -1 -1</clus>
<clus scale="  183.049">  2  9  1 -1</clus>
<clus scale="  183.049">  2  5  1 -1</clus>
</clustering>
</event>
<event>
 9    1  0.6270443E-005  0.4151298E+03  0.7546771E-02  0.1038663E+00
         21   -1    0    0  501  502  0.00000000000E+00  0.00000000000E+00  0.31610238203E+03  0.31610238203E+03  0.00000000000E+00 0.  1.
          3   -1    0    0  502    0 -0.00000000000E+00 -0.00000000000E+00 -0.61431550441E+03  0.61431550441E+03  0.00000000000E+00 0. -1.
        -24    2    1    2    0    0 -0.19682854234E+02 -0.54180447680E+02 -0.50616895376E+02  0.11118459265E+03  0.80479860106E+02 0.  0.
         23    2    1    2    0    0 -0.30427874190E+02 -0.29299344707E+03 -0.33750626699E+03  0.45712196618E+03  0.90988989171E+02 0.  0.
         13    1    3    3    0    0 -0.21438490370E+02 -0.30437474032E+02 -0.70787667845E+02  0.79980889053E+02  0.00000000000E+00 0. -1.
        -14    1    3    3    0    0  0.17556361365E+01 -0.23742973648E+02  0.20170772469E+02  0.31203703592E+02  0.00000000000E+00 0.  1.
        -13    1    4    4    0    0  0.28632189356E+01 -0.11096199594E+03 -0.19175699951E+03  0.22156603852E+03  0.00000000000E+00 0. -1.
         13    1    4    4    0    0 -0.33291093125E+02 -0.18203145113E+03 -0.14574926748E+03  0.23555592766E+03  0.00000000000E+00 0.  1.
          4    1    1    2  501    0  0.50110728423E+02  0.34717389474E+03  0.89910039989E+02  0.36211132761E+03  0.00000000000E+00 0. -1.
<scales pt_clust_5="13000.00000" pt_clust_6="13000.00000" pt_clust_7="13000.00000" pt_clust_8="13000.00000" pt_clust_9="350.77172"></scales>
<clustering>
<clus scale="   80.480">  5  6 -1 -1</clus>
<clus scale="   90.989">  7  8 -1 -1</clus>
<clus scale="   94.524">  5  7 -1 -1</clus>
<clus scale="  350.772">  1  9  2 -1</clus>
<clus scale="  350.772">  1  5  2 -1</clus>
</clustering>
</event>
<event>
 9    1  0.6270443E-005  0.1799682E+03  0.7546771E-02  0.1193650E+00
          1   -1    0    0  502    0 -0.00000000000E+00  0.00000000000E+00  0.40175952383E+03  0.40175952383E+03  0.00000000000E+00 0. -1.
         21   -1    0    0  501  502  0.00000000000E+00 -0.00000000000E+00 -0.13387792747E+03  0.13387792747E+03  0.00000000000E+00 0. -1.
         23    2    1    2    0    0 -0.17476830458E+02  0.52828442742E+02  0.14299748839E+02  0.10180874559E+03  0.84049115981E+02 0.  0.
        -24    2    1    2    0    0  0.71871944141E+02 -0.17031700207E+03  0.79066818339E+02  0.21653193772E+03  0.80380723705E+02 0.  0.
         13    1    4    4    0    0  0.78470510850E+02 -0.17014406665E+03  0.86688012906E+02  0.20644959693E+03  0.00000000000E+00 0. -1.
        -14    1    4    4    0    0 -0.65985667087E+01 -0.17293541560E+00 -0.76211945667E+01  0.10082340794E+02  0.00000000000E+00 0.  1.
        -11    1    3    3    0    0  0.16442959014E+02  0.63217810144E+02  0.88885538907E+01  0.65923203887E+02  0.00000000000E+00 0.  1.
         11    1    3    3    0    0 -0.33919789472E+02 -0.10389367402E+02  0.54111949481E+01  0.35885541706E+02  0.00000000000E+00 0. -1.
          2    1    1    2  501    0 -0.54395113684E+02  0.11748855933E+03  0.17451502919E+03  0.21729676799E+03  0.00000000000E+00 0. -1.
<scales pt_clust_5="13000.00000" pt_clust_6="13000.00000" pt_clust_7="13000.00000" pt_clust_8="13000.00000" pt_clust_9="161.02021"></scales>
<clustering>
<clus scale="   80.381">  5  6 -1 -1</clus>
<clus scale="   84.049">  7  8 -1 -1</clus>
<clus scale="  100.800">  1  7  2 -1</clus>
<clus scale="  161.020">  2  9  1 -1</clus>
<clus scale="  161.020">  2  5  1 -1</clus>
</clustering>
</event>
<event>
 9    1  0.6270443E-005  0.9099000E+02  0.7546771E-02  0.1304072E+00
          1   -1    0    0  502    0 -0.00000000000E+00  0.00000000000E+00  0.20224639539E+03  0.20224639539E+03  0.00000000000E+00 0. -1.
         21   -1    0    0  501  502  0.00000000000E+00 -0.00000000000E+00 -0.63819894310E+02  0.63819894310E+02  0.00000000000E+00 0.  1.
         23    2    1    2    0    0  0.54341904141E+01  0.45489270953E+02  0.66642485175E+02  0.11678531143E+03  0.84254281417E+02 0.  0.
        -24    2    1    2    0    0  0.28831106165E+02 -0.18099757842E+02  0.34728525913E+02  0.91857940070E+02  0.77929305946E+02 0.  0.
         13    1    4    4    0    0  0.47408391373E+02 -0.25230859412E+02  0.44448042568E+02  0.69712124680E+02  0.00000000000E+00 0. -1.
        -14    1    4    4    0    0 -0.18577285208E+02  0.71311015691E+01 -0.97195166550E+01  0.22145815390E+02  0.00000000000E+00 0.  1.
        -11    1    3    3    0    0  0.42185737354E+02  0.35578219910E+02  0.25682307197E+02  0.60868933546E+02  0.00000000000E+00 0.  1.
         11    1    3    3    0    0 -0.36751546940E+02  0.99110510437E+01  0.40960177978E+02  0.55916377880E+02  0.00000000000E+00 0. -1.
          2    1    1    2  501    0 -0.34265296579E+02 -0.27389513111E+02  0.37055489993E+02  0.57423038205E+02  0.00000000000E+00 0. -1.
<scales pt_clust_5="13000.00000" pt_clust_6="13000.00000" pt_clust_7="13000.00000" pt_clust_8="13000.00000" pt_clust_9="43.86682"></scales>
<clustering>
<clus scale="   43.867">  2  9  1 -1</clus>
<clus scale="   77.929">  5  6 -1 -1</clus>
<clus scale="   84.254">  7  8 -1 -1</clus>
<clus scale="   85.167">  2  5  1 -1</clus>
<clus scale="   43.867">  2  5  1 -1</clus>
</clustering>
</event>
<event>
 9    1  0.6270443E-005  0.1270995E+03  0.7546771E-02  0.1234978E+00
          3   -1    0    0  502    0 -0.00000000000E+00  0.00000000000E+00  0.71826373986E+03  0.71826373986E+03  0.00000000000E+00 0. -1.
         21   -1    0    0  501  502  0.00000000000E+00 -0.00000000000E+00 -0.32973134570E+02  0.32973134570E+02  0.00000000000E+00 0. -1.
        -24    2    1    2    0    0  0.18627911449E+02  0.73978073632E+02  0.32305903580E+03  0.34182126241E+03  0.81577450065E+02 0.  0.
         23    2    1    2    0    0 -0.16743228927E+02 -0.10976241823E+03  0.22455250746E+03  0.26714967981E+03  0.92827790262E+02 0.  0.
         13    1    3    3    0    0  0.26959796612E+02  0.89611112135E+02  0.26029831524E+03  0.27660837834E+03  0.00000000000E+00 0. -1.
        -14    1    3    3    0    0 -0.83318851629E+01 -0.15633038503E+02  0.62760720557E+02  0.65212884065E+02  0.00000000000E+00 0.  1.
        -13    1    4    4    0    0 -0.44428325052E+02 -0.17912012193E+02  0.61299498043E+02  0.77796816825E+02  0.00000000000E+00 0.  1.
         13    1    4    4    0    0  0.27685096125E+02 -0.91850406040E+02  0.16325300942E+03  0.18935286299E+03  0.00000000000E+00 0. -1.
          4    1    1    2  501    0 -0.18846825225E+01  0.35784344601E+02  0.13767906204E+03  0.14226593222E+03  0.00000000000E+00 0. -1.
<scales pt_clust_5="13000.00000" pt_clust_6="13000.00000" pt_clust_7="13000.00000" pt_clust_8="13000.00000" pt_clust_9="35.83396"></scales>
<clustering>
<clus scale="   35.834">  2  9  1 -1</clus>
<clus scale="   81.577">  5  6 -1 -1</clus>
<clus scale="   92.828">  7  8 -1 -1</clus>
<clus scale="  119.131">  1  5  2 -1</clus>
<clus scale="   35.834">  2  5  1 -1</clus>
</clustering>
</event>
<event>
 9    1  0.6270443E-005  0.1081126E+03  0.7546771E-02  0.1272124E+00
          3   -1    0    0  502    0 -0.00000000000E+00  0.00000000000E+00  0.79363207141E+02  0.79363207141E+02  0.00000000000E+00 0. -1.
         21   -1    0    0  501  502  0.00000000000E+00 -0.00000000000E+00 -0.42573109732E+03  0.42573109732E+03  0.00000000000E+00 0. -1.
         23    2    1    2    0    0 -0.11320803788E+02  0.32720481094E+02  0.20876187770E+02  0.11238278183E+03  0.10485839954E+03 0.  0.
        -24    2    1    2    0    0 -0.69151587252E+01  0.10256014999E+02 -0.20137469412E+03  0.22039732694E+03  0.88714198558E+02 0.  0.
         13    1    4    4    0    0  0.38872360679E+02  0.18021348714E+02 -0.87890595438E+02  0.97778250141E+02  0.00000000000E+00 0. -1.
        -14    1    4    4    0    0 -0.45787519404E+02 -0.77653337151E+01 -0.11348409868E+03  0.12261907680E+03  0.00000000000E+00 0.  1.
        -13    1    3    3    0    0 -0.54395441027E+02  0.14723547976E+02 -0.88430515140E+01  0.57042496698E+02  0.00000000000E+00 0. -1.
         13    1    3    3    0    0  0.43074637239E+02  0.17996933118E+02  0.29719239284E+02  0.55340285132E+02  0.00000000000E+00 0.  1.
          4    1    1    2  501    0  0.18235962513E+02 -0.42976496093E+02 -0.16586938383E+03  0.17231419569E+03  0.00000000000E+00 0. -1.
<scales pt_clust_5="13000.00000" pt_clust_6="13000.00000" pt_clust_7="13000.00000" pt_clust_8="13000.00000" pt_clust_9="46.68543"></scales>
<clustering>
<clus scale="   46.685">  2  9  1 -1</clus>
<clus scale="   88.714">  5  6 -1 -1</clus>
<clus scale="   92.538">  2  5  1 -1</clus>
<clus scale="  104.858">  7  8 -1 -1</clus>
<clus scale="   46.685">  2  5  1 -1</clus>
</clustering>
</event>
<event>
 9    1  0.6270443E-005  0.9793129E+02  0.7546771E-02  0.1289093E+00
         21   -1    0    0  501  502  0.00000000000E+00  0.00000000000E+00  0.10843521915E+03  0.10843521915E+03  0.00000000000E+00 0.  1.
         -4   -1    0    0    0  501 -0.00000000000E+00 -0.00000000000E+00 -0.32167393223E+03  0.32167393223E+03  0.00000000000E+00 0.  1.
        -24    2    1    2    0    0  0.35814069602E+02 -0.42116086718E+02 -0.20090167164E+03  0.22344480914E+03  0.80682642009E+02 0.  0.
         23    2    1    2    0    0  0.54911701239E+02  0.19133543828E+02 -0.31565789878E+02  0.11111797895E+03  0.89271600871E+02 0.  0.
         13    1    3    3    0    0  0.32456948246E+02  0.17889223220E+02 -0.89412524633E+02  0.96788828685E+02  0.00000000000E+00 0. -1.
        -14    1    3    3    0    0  0.33571213556E+01 -0.60005309938E+02 -0.11148914701E+03  0.12665598046E+03  0.00000000000E+00 0.  1.
        -11    1    4    4    0    0  0.69570034992E+02  0.39731156402E+02 -0.16859209126E+02  0.81870553255E+02  0.00000000000E+00 0.  1.
         11    1    4    4    0    0 -0.14658333753E+02 -0.20597612574E+02 -0.14706580752E+02  0.29247425692E+02  0.00000000000E+00 0. -1.
         -3    1    1    2    0  502 -0.90725770841E+02  0.22982542891E+02  0.19228748437E+02  0.95546363295E+02  0.00000000000E+00 0.  1.
<scales pt_clust_5="13000.00000" pt_clust_6="13000.00000" pt_clust_7="13000.00000" pt_clust_8="13000.00000" pt_clust_9="93.59147"></scales>
<clustering>
<clus scale="   80.683">  5  6 -1 -1</clus>
<clus scale="   89.272">  7  8 -1 -1</clus>
<clus scale="   93.591">  1  9  2 -1</clus>
<clus scale="   90.171">  2  5  1 -1</clus>
<clus scale="   93.591">  1  5  2 -1</clus>
</clustering>
</event>
<event>
 9    1  0.6270443E-005  0.9343757E+02  0.7546771E-02  0.1301012E+00
         21   -1    0    0  501  502  0.00000000000E+00  0.00000000000E+00  0.27120666856E+03  0.27120666856E+03  0.00000000000E+00 0. -1.
          3   -1    0    0  502    0 -0.00000000000E+00 -0.00000000000E+00 -0.15526338618E+03  0.15526338618E+03  0.00000000000E+00 0. -1.
        -24    2    1    2    0    0 -0.19934955618E+02  0.11040223067E+01 -0.93015018234E+02  0.12425703940E+03  0.79933703164E+02 0.  0.
         23    2    1    2    0    0  0.26488476054E+02  0.62631972942E+02  0.37682469706E+02  0.11934520524E+03  0.90547811081E+02 0.  0.
         13    1    3    3    0    0 -0.48853067062E+02  0.40602790392E+01 -0.76400152674E+02  0.90774948944E+02  0.00000000000E+00 0. -1.
        -14    1    3    3    0    0  0.28918111445E+02 -0.29562567326E+01 -0.16614865560E+02  0.33482090451E+02  0.00000000000E+00 0.  1.
        -13    1    4    4    0    0  0.21161447416E+01  0.26619206796E+02  0.63421428263E+02  0.68813790783E+02  0.00000000000E+00 0.  1.
         13    1    4    4    0    0  0.24372331313E+02  0.36012766146E+02 -0.25738958557E+02  0.50531414454E+02  0.00000000000E+00 0. -1.
          4    1    1    2  501    0 -0.65535204366E+01 -0.63735995248E+02  0.17127583091E+03  0.18286781011E+03  0.00000000000E+00 0. -1.
<scales pt_clust_5="13000.00000" pt_clust_6="13000.00000" pt_clust_7="13000.00000" pt_clust_8="13000.00000" pt_clust_9="64.07204"></scales>
<clustering>
<clus scale="   64.072">  1  9  2 -1</clus>
<clus scale="   79.934">  5  6 -1 -1</clus>
<clus scale="   83.193">  2  5  1 -1</clus>
<clus scale="   90.548">  7  8 -1 -1</clus>
<clus scale="   64.072">  1  5  2 -1</clus>
</clustering>
</event>
<event>
 9    1  0.6270443E-005  0.1269959E+03  0.7546771E-02  0.1248848E+00
          3   -1    0    0  502    0 -0.00000000000E+00  0.00000000000E+00  0.19825148829E+03  0.19825148829E+03  0.00000000000E+00 0. -1.
         21   -1    0    0  501  502  0.00000000000E+00 -0.00000000000E+00 -0.21184692242E+03  0.21184692242E+03  0.00000000000E+00 0. -1.
        -24    2    1    2    0    0 -0.14546335863E+02 -0.35407112574E+02 -0.12783108133E+03  0.15644117580E+03  0.81656577337E+02 0.  0.
         23    2    1    2    0    0 -0.43904075387E+02 -0.56393615105E+02  0.43210550456E+02  0.12370190202E+03  0.91253499841E+02 0.  0.
         11    1    3    3    0    0  0.22836787278E+02 -0.96897838168E+01 -0.10039930077E+03  0.10341871378E+03  0.00000000000E+00 0. -1.
        -12    1    3    3    0    0 -0.37383123141E+02 -0.25717328757E+02 -0.27431780563E+02  0.53022462024E+02  0.00000000000E+00 0.  1.
        -13    1    4    4    0    0 -0.55041788884E+01  0.24851740811E+02  0.14853694544E+02  0.29470956011E+02  0.00000000000E+00 0.  1.
         13    1    4    4    0    0 -0.38399896499E+02 -0.81245355917E+02  0.28356855911E+02  0.94230946012E+02  0.00000000000E+00 0. -1.
          4    1    1    2  501    0  0.58450411250E+02  0.91800727679E+02  0.71025096743E+02  0.12995533288E+03  0.00000000000E+00 0. -1.
<scales pt_clust_5="13000.00000" pt_clust_6="13000.00000" pt_clust_7="13000.00000" pt_clust_8="13000.00000" pt_clust_9="88.32193"></scales>
<clustering>
<clus scale="   81.657">  5  6 -1 -1</clus>
<clus scale="   90.184">  1  5  2 -1</clus>
<clus scale="   88.322">  2  9  1 -1</clus>
<clus scale="   91.253">  7  8 -1 -1</clus>
<clus scale="   88.322">  2  5  1 -1</clus>
</clustering>
</event>
<event>
 9    1  0.6270443E-005  0.3906548E+03  0.7546771E-02  0.1100158E+00
         21   -1    0    0  501  502  0.00000000000E+00  0.00000000000E+00  0.85462631362E+03  0.85462631362E+03  0.00000000000E+00 0.  1.
          3   -1    0    0  502    0 -0.00000000000E+00 -0.00000000000E+00 -0.35523748863E+03  0.35523748863E+03  0.00000000000E+00 0. -1.
         23    2    1    2    0    0 -0.17394794216E+02  0.12634742048E+02 -0.16141103174E+03  0.18567427408E+03  0.89214344788E+02 0.  0.
        -24    2    1    2    0    0  0.75936661648E+02 -0.38119821381E+03  0.43008474101E+03  0.58544626887E+03  0.81829056526E+02 0.  0.
         13    1    4    4    0    0  0.20797421305E+02 -0.13530311997E+02  0.35433436020E+02  0.43256565558E+02  0.00000000000E+00 0. -1.
        -14    1    4    4    0    0  0.55139240343E+02 -0.36766790181E+03  0.39465130499E+03  0.54218970331E+03  0.00000000000E+00 0.  1.
        -13    1    3    3    0    0 -0.38260981588E+02 -0.88819392579E+01 -0.14748238568E+03  0.15262321463E+03  0.00000000000E+00 0.  1.
         13    1    3    3    0    0  0.20866187372E+02  0.21516681306E+02 -0.13928646054E+02  0.33051059450E+02  0.00000000000E+00 0. -1.
          4    1    1    2  501    0 -0.58541867432E+02  0.36856347176E+03  0.23071511572E+03  0.43874325930E+03  0.00000000000E+00 0. -1.
<scales pt_clust_5="13000.00000" pt_clust_6="13000.00000" pt_clust_7="13000.00000" pt_clust_8="13000.00000" pt_clust_9="381.98864"></scales>
<clustering>
<clus scale="   81.829">  5  6 -1 -1</clus>
<clus scale="   89.214">  7  8 -1 -1</clus>
<clus scale="   91.768">  2  7  1 -1</clus>
<clus scale="  381.989">  1  9  2 -1</clus>
<clus scale="  381.989">  1  5  2 -1</clus>
</clustering>
</event>
<event>
 9    1  0.6270443E-005  0.1496241E+03  0.7546771E-02  0.1231379E+00
          1   -1    0    0  502    0 -0.00000000000E+00  0.00000000000E+00  0.77333149395E+03  0.77333149395E+03  0.00000000000E+00 0. -1.
         21   -1    0    0  501  502  0.00000000000E+00 -0.00000000000E+00 -0.51056710824E+02  0.51056710824E+02  0.00000000000E+00 0.  1.
        -24    2    1    2    0    0  0.85681148553E+01 -0.29807610726E+01  0.36393466510E+02  0.86638496595E+02  0.78098957476E+02 0.  0.
         23    2    1    2    0    0 -0.97330336661E+02  0.80267064188E+02  0.40646255263E+03  0.43455546296E+03  0.87810293629E+02 0.  0.
         13    1    3    3    0    0  0.22028602782E+02  0.20946059174E+01  0.57206929307E+02  0.61337423121E+02  0.00000000000E+00 0. -1.
        -14    1    3    3    0    0 -0.13460487927E+02 -0.50753669900E+01 -0.20813462797E+02  0.25301073473E+02  0.00000000000E+00 0.  1.
        -11    1    4    4    0    0 -0.32533136092E+02  0.69521851269E+02  0.13534863763E+03  0.15559867113E+03  0.00000000000E+00 0. -1.
         11    1    4    4    0    0 -0.64797200569E+02  0.10745212919E+02  0.27111391499E+03  0.27895679183E+03  0.00000000000E+00 0.  1.
          2    1    1    2  501    0  0.88762221806E+02 -0.77286303115E+02  0.27941876399E+03  0.30319424523E+03  0.00000000000E+00 0. -1.
<scales pt_clust_5="13000.00000" pt_clust_6="13000.00000" pt_clust_7="13000.00000" pt_clust_8="13000.00000" pt_clust_9="121.14754"></scales>
<clustering>
<clus scale="   78.099">  5  6 -1 -1</clus>
<clus scale="   78.624">  1  5  2 -1</clus>
<clus scale="   87.810">  7  8 -1 -1</clus>
<clus scale="  121.148">  2  9  1 -1</clus>
<clus scale="  121.148">  2  5  1 -1</clus>
</clustering>
</event>
<event>
 9    1  0.6270443E-005  0.1856402E+03  0.7546771E-02  0.1164318E+00
         21   -1    0    0  501  502  0.00000000000E+00  0.00000000000E+00  0.12298672297E+03  0.12298672297E+03  0.00000000000E+00 0. -1.
          1   -1    0    0  502    0 -0.00000000000E+00 -0.00000000000E+00 -0.88257818727E+03  0.88257818727E+03  0.00000000000E+00 0. -1.
        -24    2    1    2    0    0  0.18742147887E+03 -0.29202573069E+02 -0.57656461645E+03  0.61154391730E+03  0.74696752443E+02 0.  0.
         23    2    1    2    0    0 -0.10914071074E+03  0.70928843195E+02 -0.24039773395E+03  0.28837829869E+03  0.91806193288E+02 0.  0.
         11    1    3    3    0    0  0.10415419987E+03  0.60225946371E+01 -0.39730918390E+03  0.41077847631E+03  0.00000000000E+00 0. -1.
        -12    1    3    3    0    0  0.83267279003E+02 -0.35225167706E+02 -0.17925543256E+03  0.20076544099E+03  0.00000000000E+00 0.  1.
        -11    1    4    4    0    0 -0.18355755934E+02  0.58229014819E+02 -0.57856653958E+02  0.84112688400E+02  0.00000000000E+00 0. -1.
         11    1    4    4    0    0 -0.90784954808E+02  0.12699828376E+02 -0.18254108000E+03  0.20426561029E+03  0.00000000000E+00 0.  1.
          2    1    1    2  501    0 -0.78280768126E+02 -0.41726270126E+02  0.57370886100E+02  0.10564269425E+03  0.00000000000E+00 0. -1.
<scales pt_clust_5="13000.00000" pt_clust_6="13000.00000" pt_clust_7="13000.00000" pt_clust_8="13000.00000" pt_clust_9="88.70716"></scales>
<clustering>
<clus scale="   74.697">  5  6 -1 -1</clus>
<clus scale="   88.707">  1  9  2 -1</clus>
<clus scale="   91.806">  7  8 -1 -1</clus>
<clus scale="  177.802">  2  5  1 -1</clus>
<clus scale="   88.707">  1  5  2 -1</clus>
</clustering>
</event>
<event>
 9    1  0.6270443E-005  0.2854161E+03  0.7546771E-02  0.1092767E+00
         21   -1    0    0  501  502  0.00000000000E+00  0.00000000000E+00  0.37274971664E+03  0.37274971664E+03  0.00000000000E+00 0.  1.
         -4   -1    0    0    0  501 -0.00000000000E+00 -0.00000000000E+00 -0.17401787661E+03  0.17401787661E+03  0.00000000000E+00 0.  1.
        -24    2    1    2    0    0 -0.31532220309E+02 -0.76945344934E+02  0.54515370452E+02  0.12703262920E+03  0.79060079945E+02 0.  0.
         23    2    1    2    0    0 -0.67599725770E+02 -0.11679804172E+03  0.10047471677E+03  0.19775076744E+03  0.10391675439E+03 0.  0.
         11    1    3    3    0    0 -0.48711046212E+02 -0.83154124647E+02  0.43824438283E+02  0.10586763367E+03  0.00000000000E+00 0. -1.
        -12    1    3    3    0    0  0.17178825902E+02  0.62087797134E+01  0.10690932168E+02  0.21164995524E+02  0.00000000000E+00 0.  1.
        -13    1    4    4    0    0 -0.81265246337E+02 -0.56608442979E+02  0.28752836608E+02  0.10312750211E+03  0.00000000000E+00 0.  1.
         13    1    4    4    0    0  0.13665520567E+02 -0.60189598738E+02  0.71721880158E+02  0.94623265331E+02  0.00000000000E+00 0. -1.
         -3    1    1    2    0  502  0.99131946079E+02  0.19374338665E+03  0.43741752805E+02  0.22198419661E+03  0.00000000000E+00 0.  1.
<scales pt_clust_5="13000.00000" pt_clust_6="13000.00000" pt_clust_7="13000.00000" pt_clust_8="13000.00000" pt_clust_9="217.63201"></scales>
<clustering>
<clus scale="   79.060">  5  6 -1 -1</clus>
<clus scale="  103.917">  7  8 -1 -1</clus>
<clus scale="  104.988">  5  7 -1 -1</clus>
<clus scale="  217.632">  1  9  2 -1</clus>
<clus scale="  217.632">  1  5  2 -1</clus>
</clustering>
</event>
<event>
 9    1  0.6270443E-005  0.2100289E+03  0.7546771E-02  0.1156596E+00
          1   -1    0    0  502    0 -0.00000000000E+00  0.00000000000E+00  0.97902718173E+03  0.97902718173E+03  0.00000000000E+00 0. -1.
         21   -1    0    0  501  502  0.00000000000E+00 -0.00000000000E+00 -0.93631527815E+02  0.93631527815E+02  0.00000000000E+00 0. -1.
        -24    2    1    2    0    0 -0.11088008227E+03 -0.53025485400E+02  0.33572136527E+03  0.36646680883E+03  0.80517030048E+02 0.  0.
         23    2    1    2    0    0 -0.13763073623E+03  0.86829797927E+02  0.17896022121E+03  0.25861031235E+03  0.91492619986E+02 0.  0.
         13    1    3    3    0    0 -0.10243845089E+03 -0.65286571174E+02  0.32784382932E+03  0.34962486899E+03  0.00000000000E+00 0. -1.
        -14    1    3    3    0    0 -0.84416313853E+01  0.12261085774E+02  0.78775359532E+01  0.16841939838E+02  0.00000000000E+00 0.  1.
        -13    1    4    4    0    0 -0.87651355581E+02  0.34652261274E+02  0.15695632108E+03  0.18308147386E+03  0.00000000000E+00 0.  1.
         13    1    4    4    0    0 -0.49979380646E+02  0.52177536654E+02  0.22003900138E+02  0.75528838481E+02  0.00000000000E+00 0. -1.
          2    1    1    2  501    0  0.24851081850E+03 -0.33804312527E+02  0.37071406743E+03  0.44758158837E+03  0.00000000000E+00 0. -1.
<scales pt_clust_5="13000.00000" pt_clust_6="13000.00000" pt_clust_7="13000.00000" pt_clust_8="13000.00000" pt_clust_9="189.05365"></scales>
<clustering>
<clus scale="   80.517">  5  6 -1 -1</clus>
<clus scale="   91.493">  7  8 -1 -1</clus>
<clus scale="  146.932">  1  5  2 -1</clus>
<clus scale="  189.054">  2  9  1 -1</clus>
<clus scale="  189.054">  2  5  1 -1</clus>
</clustering>
</event>
<event>
 9    1  0.6270443E-005  0.1071266E+03  0.7546771E-02  0.1271682E+00
         21   -1    0    0  501  502  0.00000000000E+00  0.00000000000E+00  0.38557884042E+02  0.38557884042E+02  0.00000000000E+00 0.  1.
          3   -1    0    0  502    0 -0.00000000000E+00 -0.00000000000E+00 -0.50508513343E+03  0.50508513343E+03  0.00000000000E+00 0. -1.
         23    2    1    2    0    0 -0.46849859501E+02  0.32338254097E+02 -0.17483715429E+03  0.20636274411E+03  0.93685002124E+02 0.  0.
        -24    2    1    2    0    0  0.55922601086E+02  0.16767050307E+02 -0.10784612108E+03  0.14677501795E+03  0.80645203030E+02 0.  0.
         11    1    4    4    0    0  0.32741976224E+02 -0.18089694697E+02 -0.96361388221E+02  0.10336726368E+03  0.00000000000E+00 0. -1.
        -12    1    4    4    0    0  0.23180624862E+02  0.34856745003E+02 -0.11484732863E+02  0.43407754263E+02  0.00000000000E+00 0.  1.
        -13    1    3    3    0    0  0.27684681374E+02  0.80496798861E+01 -0.67919926915E+02  0.73785875350E+02  0.00000000000E+00 0.  1.
         13    1    3    3    0    0 -0.74534540875E+02  0.24288574210E+02 -0.10691722738E+03  0.13257686876E+03  0.00000000000E+00 0. -1.
          4    1    1    2  501    0 -0.90727415856E+01 -0.49105304403E+02 -0.18384397401E+03  0.19050525541E+03  0.00000000000E+00 0. -1.
<scales pt_clust_5="13000.00000" pt_clust_6="13000.00000" pt_clust_7="13000.00000" pt_clust_8="13000.00000" pt_clust_9="49.93644"></scales>
<clustering>
<clus scale="   49.936">  1  9  2 -1</clus>
<clus scale="   80.645">  5  6 -1 -1</clus>
<clus scale="   93.685">  7  8 -1 -1</clus>
<clus scale="   95.932">  1  5  2 -1</clus>
<clus scale="   49.936">  1  5  2 -1</clus>
</clustering>
</event>
<event>
 9    1  0.6270443E-005  0.1796641E+03  0.7546771E-02  0.1187537E+00
         21   -1    0    0  501  502  0.00000000000E+00  0.00000000000E+00  0.61815410972E+03  0.61815410972E+03  0.00000000000E+00 0.  1.
         -4   -1    0    0    0  501 -0.00000000000E+00 -0.00000000000E+00 -0.13145000387E+03  0.13145000387E+03  0.00000000000E+00 0.  1.
         23    2    1    2    0    0 -0.64493485228E+02 -0.34538654416E+02  0.11840995179E+03  0.16572478312E+03  0.89952536207E+02 0.  0.
        -24    2    1    2    0    0  0.33913196230E+02 -0.12985186980E+03 -0.22764275486E+02  0.15857227217E+03  0.81334742227E+02 0.  0.
         13    1    4    4    0    0 -0.50377273737E+01 -0.93026933643E+02  0.13097647084E+02  0.94079420913E+02  0.00000000000E+00 0. -1.
        -14    1    4    4    0    0  0.38950923603E+02 -0.36824936154E+02 -0.35861922570E+02  0.64492851253E+02  0.00000000000E+00 0.  1.
        -11    1    3    3    0    0 -0.78483241422E+02 -0.82132124242E+00  0.70570621917E+02  0.10554859748E+03  0.00000000000E+00 0. -1.
         11    1    3    3    0    0  0.13989756194E+02 -0.33717333174E+02  0.47839329875E+02  0.60176185635E+02  0.00000000000E+00 0.  1.
         -3    1    1    2    0  502  0.30580288998E+02  0.16439052421E+03  0.39105842955E+03  0.42530705831E+03  0.00000000000E+00 0.  1.
<scales pt_clust_5="13000.00000" pt_clust_6="13000.00000" pt_clust_7="13000.00000" pt_clust_8="13000.00000" pt_clust_9="160.19940"></scales>
<clustering>
<clus scale="   81.335">  5  6 -1 -1</clus>
<clus scale="   89.953">  7  8 -1 -1</clus>
<clus scale="  115.947">  2  7  1 -1</clus>
<clus scale="  160.199">  1  9  2 -1</clus>
<clus scale="  160.199">  1  5  2 -1</clus>
</clustering>
</event>
<event>
 9    1  0.6270443E-005  0.1581128E+03  0.7546771E-02  0.1192671E+00
         21   -1    0    0  501  502  0.00000000000E+00  0.00000000000E+00  0.16028113791E+03  0.16028113791E+03  0.00000000000E+00 0.  1.
          1   -1    0    0  502    0 -0.00000000000E+00 -0.00000000000E+00 -0.46695806793E+03  0.46695806793E+03  0.00000000000E+00 0. -1.
        -24    2    1    2    0    0 -0.13646120534E+03 -0.15841946775E+02 -0.36473834616E+03  0.39801323327E+03  0.80671214550E+02 0.  0.
         23    2    1    2    0    0  0.63063788075E+02  0.27825264296E+02  0.92305909486E+02  0.14735127510E+03  0.91873449091E+02 0.  0.
         13    1    3    3    0    0 -0.12459774337E+03 -0.13531636780E+02 -0.22336544579E+03  0.25612462829E+03  0.00000000000E+00 0. -1.
        -14    1    3    3    0    0 -0.11863461973E+02 -0.23103099948E+01 -0.14137290037E+03  0.14188860498E+03  0.00000000000E+00 0.  1.
        -13    1    4    4    0    0 -0.22313381741E+02  0.18467657721E+02  0.23784512938E+02  0.37478586448E+02  0.00000000000E+00 0. -1.
         13    1    4    4    0    0  0.85377169816E+02  0.93576065746E+01  0.68521396548E+02  0.10987268865E+03  0.00000000000E+00 0.  1.
          2    1    1    2  501    0  0.73397417266E+02 -0.11983317521E+02 -0.34244493349E+02  0.81874697464E+02  0.00000000000E+00 0. -1.
<scales pt_clust_5="13000.00000" pt_clust_6="13000.00000" pt_clust_7="13000.00000" pt_clust_8="13000.00000" pt_clust_9="74.36922"></scales>
<clustering>
<clus scale="   74.369">  1  9  2 -1</clus>
<clus scale="   80.671">  5  6 -1 -1</clus>
<clus scale="   91.873">  7  8 -1 -1</clus>
<clus scale="  151.877">  2  5  1 -1</clus>
<clus scale="   74.369">  1  5  2 -1</clus>
</clustering>
</event>
<event>
 9    1  0.6270443E-005  0.2333016E+03  0.7546771E-02  0.1166950E+00
         21   -1    0    0  501  502  0.00000000000E+00  0.00000000000E+00  0.89653110473E+02  0.89653110473E+02  0.00000000000E+00 0. -1.
         -4   -1    0    0    0  501 -0.00000000000E+00 -0.00000000000E+00 -0.11549648222E+04  0.11549648222E+04  0.00000000000E+00 0.  1.
        -24    2    1    2    0    0 -0.16633633177E+02 -0.21943476206E+02 -0.28635547303E+03  0.29850761439E+03  0.79681522413E+02 0.  0.
         23    2    1    2    0    0 -0.68711221629E+02  0.20426394981E+03 -0.13714402798E+03  0.27346820455E+03  0.97628793505E+02 0.  0.
         11    1    3    3    0    0 -0.45847996830E+02 -0.18654422254E+02 -0.22620349001E+03  0.23155570642E+03  0.00000000000E+00 0. -1.
        -12    1    3    3    0    0  0.29214363653E+02 -0.32890539520E+01 -0.60151983015E+02  0.66951907966E+02  0.00000000000E+00 0.  1.
        -11    1    4    4    0    0 -0.44747587250E+01  0.87959598409E+02 -0.84217279691E+01  0.88475080785E+02  0.00000000000E+00 0.  1.
         11    1    4    4    0    0 -0.64236462904E+02  0.11630435140E+03 -0.12872230001E+03  0.18499312377E+03  0.00000000000E+00 0. -1.
         -3    1    1    2    0  502  0.85344854806E+02 -0.18232047360E+03 -0.64181221069E+03  0.67264211370E+03  0.00000000000E+00 0.  1.
<scales pt_clust_5="13000.00000" pt_clust_6="13000.00000" pt_clust_7="13000.00000" pt_clust_8="13000.00000" pt_clust_9="211.89216"></scales>
<clustering>
<clus scale="   79.682">  5  6 -1 -1</clus>
<clus scale="   84.305">  2  5  1 -1</clus>
<clus scale="   97.629">  7  8 -1 -1</clus>
<clus scale="  211.892">  1  9  2 -1</clus>
<clus scale="  211.892">  1  5  2 -1</clus>
</clustering>
</event>
<event>
 9    1  0.6270443E-005  0.1863383E+03  0.7546771E-02  0.1162701E+00
         21   -1    0    0  501  502  0.00000000000E+00  0.00000000000E+00  0.30219013227E+03  0.30219013227E+03  0.00000000000E+00 0.  1.
          3   -1    0    0  502    0 -0.00000000000E+00 -0.00000000000E+00 -0.35359009018E+03  0.35359009018E+03  0.00000000000E+00 0. -1.
        -24    2    1    2    0    0  0.65143259164E+02  0.15086034641E+03 -0.28604503844E+03  0.33952284140E+03  0.80321276649E+02 0.  0.
         23    2    1    2    0    0 -0.88065854059E+02 -0.13592835241E+03  0.20617758902E+03  0.27677564003E+03  0.88676068140E+02 0.  0.
         11    1    3    3    0    0  0.68658071987E+02  0.11859994992E+03 -0.27115764792E+03  0.30381959943E+03  0.00000000000E+00 0. -1.
        -12    1    3    3    0    0 -0.35148128223E+01  0.32260396489E+02 -0.14887390517E+02  0.35703241971E+02  0.00000000000E+00 0.  1.
        -11    1    4    4    0    0 -0.15554492391E+02 -0.70415048694E+02  0.36152304174E+02  0.80667282173E+02  0.00000000000E+00 0. -1.
         11    1    4    4    0    0 -0.72511361668E+02 -0.65513303714E+02  0.17002528485E+03  0.19610835786E+03  0.00000000000E+00 0.  1.
          4    1    1    2  501    0  0.22922594895E+02 -0.14931993998E+02  0.28467491506E+02  0.39481741022E+02  0.00000000000E+00 0. -1.
<scales pt_clust_5="13000.00000" pt_clust_6="13000.00000" pt_clust_7="13000.00000" pt_clust_8="13000.00000" pt_clust_9="27.35708"></scales>
<clustering>
<clus scale="   27.357">  1  9  2 -1</clus>
<clus scale="   80.321">  5  6 -1 -1</clus>
<clus scale="   88.676">  7  8 -1 -1</clus>
<clus scale="  182.510">  2  5  1 -1</clus>
<clus scale="   27.357">  1  5  2 -1</clus>
</clustering>
</event>
<event>
 9    1  0.6270443E-005  0.1903114E+03  0.7546771E-02  0.1192552E+00
         21   -1    0    0  501  502  0.00000000000E+00  0.00000000000E+00  0.73624340924E+03  0.73624340924E+03  0.00000000000E+00 0. -1.
          3   -1    0    0  502    0 -0.00000000000E+00 -0.00000000000E+00 -0.12017503721E+03  0.12017503721E+03  0.00000000000E+00 0. -1.
        -24    2    1    2    0    0  0.21957955016E+02  0.21988881032E+02 -0.11566552238E+02  0.88086737288E+02  0.81607753785E+02 0.  0.
         23    2    1    2    0    0 -0.17640848484E+03  0.35154597769E+02  0.11984935551E+03  0.23450914765E+03  0.90966329189E+02 0.  0.
         13    1    3    3    0    0 -0.94410133056E+01  0.44537410058E+02 -0.17890890207E+02  0.48916230224E+02  0.00000000000E+00 0. -1.
        -14    1    3    3    0    0  0.31398968321E+02 -0.22548529027E+02  0.63243379688E+01  0.39170507064E+02  0.00000000000E+00 0.  1.
        -13    1    4    4    0    0 -0.32448781075E+02  0.38835511229E+02  0.60545365023E+01  0.50968399405E+02  0.00000000000E+00 0.  1.
         13    1    4    4    0    0 -0.14395970377E+03 -0.36809134604E+01  0.11379481901E+03  0.18354074825E+03  0.00000000000E+00 0. -1.
          4    1    1    2  501    0  0.15445052983E+03 -0.57143478800E+02  0.50778556876E+03  0.53382256150E+03  0.00000000000E+00 0. -1.
<scales pt_clust_5="13000.00000" pt_clust_6="13000.00000" pt_clust_7="13000.00000" pt_clust_8="13000.00000" pt_clust_9="167.16331"></scales>
<clustering>
<clus scale="   81.608">  5  6 -1 -1</clus>
<clus scale="   87.324">  2  5  1 -1</clus>
<clus scale="   90.966">  7  8 -1 -1</clus>
<clus scale="  167.163">  1  9  2 -1</clus>
<clus scale="  167.163">  1  5  2 -1</clus>
</clustering>
</event>
<event>
 9    1  0.6270443E-005  0.1498619E+03  0.7546771E-02  0.1219235E+00
         21   -1    0    0  501  502  0.00000000000E+00  0.00000000000E+00  0.28447285271E+03  0.28447285271E+03  0.00000000000E+00 0.  1.
         -4   -1    0    0    0  501 -0.00000000000E+00 -0.00000000000E+00 -0.58455731665E+03  0.58455731665E+03  0.00000000000E+00 0.  1.
         23    2    1    2    0    0  0.38393382979E+02 -0.20382716653E+02 -0.79431987834E+01  0.10106288653E+03  0.90890624552E+02 0.  0.
        -24    2    1    2    0    0 -0.12331583745E+03 -0.73320750833E+02 -0.49911058275E+03  0.52542149021E+03  0.79835081867E+02 0.  0.
         11    1    4    4    0    0 -0.48809559891E+02 -0.31546623911E+01 -0.78115441552E+02  0.92164783081E+02  0.00000000000E+00 0. -1.
        -12    1    4    4    0    0 -0.74506277560E+02 -0.70166088442E+02 -0.42099514119E+03  0.43325670713E+03  0.00000000000E+00 0.  1.
        -13    1    3    3    0    0 -0.24959112556E+02 -0.16561463573E+02  0.15095984099E+02  0.33542929377E+02  0.00000000000E+00 0.  1.
         13    1    3    3    0    0  0.63352495535E+02 -0.38212530798E+01 -0.23039182882E+02  0.67519957150E+02  0.00000000000E+00 0. -1.
         -3    1    1    2    0  502  0.84922454473E+02  0.93703467485E+02  0.20696931760E+03  0.24254579262E+03  0.00000000000E+00 0.  1.
<scales pt_clust_5="13000.00000" pt_clust_6="13000.00000" pt_clust_7="13000.00000" pt_clust_8="13000.00000" pt_clust_9="126.82640"></scales>
<clustering>
<clus scale="   79.835">  5  6 -1 -1</clus>
<clus scale="   90.891">  7  8 -1 -1</clus>
<clus scale="  100.750">  2  7  1 -1</clus>
<clus scale="  126.826">  1  9  2 -1</clus>
<clus scale="  126.826">  1  5  2 -1</clus>
</clustering>
</event>
<event>
 9    1  0.6270443E-005  0.1334839E+03  0.7546771E-02  0.1226126E+00
         21   -1    0    0  501  502  0.00000000000E+00  0.00000000000E+00  0.12761525559E+03  0.12761525559E+03  0.00000000000E+00 0. -1.
          1   -1    0    0  502    0 -0.00000000000E+00 -0.00000000000E+00 -0.22113255033E+03  0.22113255033E+03  0.00000000000E+00 0. -1.
         23    2    1    2    0    0 -0.47324389424E+02  0.57016737656E+02 -0.14735957614E+02  0.12085967186E+03  0.94336661106E+02 0.  0.
        -24    2    1    2    0    0  0.38284990260E+02 -0.11538753365E+03 -0.23805638547E+02  0.14719620139E+03  0.79498363971E+02 0.  0.
         13    1    4    4    0    0 -0.63118953907E+00 -0.68268744377E+02  0.20989275454E+02  0.71425272440E+02  0.00000000000E+00 0. -1.
        -14    1    4    4    0    0  0.38916179799E+02 -0.47118789277E+02 -0.44794914001E+02  0.75770928947E+02  0.00000000000E+00 0.  1.
        -11    1    3    3    0    0 -0.64058745679E+02  0.38825771651E+02  0.20645603937E+02  0.77699449189E+02  0.00000000000E+00 0. -1.
         11    1    3    3    0    0  0.16734356255E+02  0.18190966005E+02 -0.35381561551E+02  0.43160222674E+02  0.00000000000E+00 0.  1.
          2    1    1    2  501    0  0.90393991642E+01  0.58370795998E+02 -0.54975698580E+02  0.80691932664E+02  0.00000000000E+00 0. -1.
<scales pt_clust_5="13000.00000" pt_clust_6="13000.00000" pt_clust_7="13000.00000" pt_clust_8="13000.00000" pt_clust_9="59.06661"></scales>
<clustering>
<clus scale="   59.067">  1  9  2 -1</clus>
<clus scale="   79.498">  5  6 -1 -1</clus>
<clus scale="   94.337">  7  8 -1 -1</clus>
<clus scale="  123.444">  1  5  2 -1</clus>
<clus scale="   59.067">  1  5  2 -1</clus>
</clustering>
</event>
<event>
 9    1  0.6270443E-005  0.1261198E+03  0.7546771E-02  0.1245951E+00
          1   -1    0    0  502    0 -0.00000000000E+00  0.00000000000E+00  0.27614494526E+03  0.27614494526E+03  0.00000000000E+00 0. -1.
         21   -1    0    0  501  502  0.00000000000E+00 -0.00000000000E+00 -0.11691066925E+03  0.11691066925E+03  0.00000000000E+00 0.  1.
         23    2    1    2    0    0  0.24292654146E+02 -0.17702909165E+02 -0.51327651245E+00  0.97587388163E+02  0.92841309972E+02 0.  0.
        -24    2    1    2    0    0 -0.75674216718E+02 -0.66086203483E+02  0.27083783268E+02  0.13036112159E+03  0.78527175801E+02 0.  0.
         13    1    4    4    0    0  0.13159351254E+02 -0.27754679186E+02  0.80867218545E+01  0.31762962905E+02  0.00000000000E+00 0. -1.
        -14    1    4    4    0    0 -0.88833567973E+02 -0.38331524297E+02  0.18997061414E+02  0.98598158685E+02  0.00000000000E+00 0.  1.
        -13    1    3    3    0    0 -0.35355791422E+02 -0.92593562751E-01 -0.14671767228E+01  0.35386341549E+02  0.00000000000E+00 0. -1.
         13    1    3    3    0    0  0.59648445568E+02 -0.17610315602E+02  0.95390021032E+00  0.62201046614E+02  0.00000000000E+00 0.  1.
          2    1    1    2  501    0  0.51381562573E+02  0.83789112648E+02  0.13266376925E+03  0.16510710476E+03  0.00000000000E+00 0. -1.
<scales pt_clust_5="13000.00000" pt_clust_6="13000.00000" pt_clust_7="13000.00000" pt_clust_8="13000.00000" pt_clust_9="98.68994"></scales>
<clustering>
<clus scale="   78.527">  5  6 -1 -1</clus>
<clus scale="   92.841">  7  8 -1 -1</clus>
<clus scale="   97.586">  1  7  2 -1</clus>
<clus scale="   98.690">  2  9  1 -1</clus>
<clus scale="   98.690">  2  5  1 -1</clus>
</clustering>
</event>
<event>
 9    1  0.6270443E-005  0.1404128E+03  0.7546771E-02  0.1213835E+00
         21   -1    0    0  501  502  0.00000000000E+00  0.00000000000E+00  0.49342171023E+03  0.49342171023E+03  0.00000000000E+00 0.  1.
         -4   -1    0    0    0  501 -0.00000000000E+00 -0.00000000000E+00 -0.59674368612E+02  0.59674368612E+02  0.00000000000E+00 0.  1.
         23    2    1    2    0    0  0.44282675705E+02 -0.67076946873E+02  0.16686815734E+03  0.20713420089E+03  0.92732535143E+02 0.  0.
        -24    2    1    2    0    0 -0.49942819085E+02  0.12234568218E+03  0.15927528764E+03  0.22486163478E+03  0.87928302718E+02 0.  0.
         13    1    4    4    0    0  0.16761016964E+02  0.44953238604E+02  0.88187080588E+02  0.10039266175E+03  0.00000000000E+00 0. -1.
        -14    1    4    4    0    0 -0.66703836049E+02  0.77392443572E+02  0.71088207052E+02  0.12446897303E+03  0.00000000000E+00 0.  1.
        -11    1    3    3    0    0  0.59514230461E+02 -0.28294872974E+02  0.14674748205E+03  0.16086443657E+03  0.00000000000E+00 0.  1.
         11    1    3    3    0    0 -0.15231554756E+02 -0.38782073900E+02  0.20120675292E+02  0.46269764323E+02  0.00000000000E+00 0. -1.
         -3    1    1    2    0  502  0.56601433801E+01 -0.55268735302E+02  0.10760389664E+03  0.12110024317E+03  0.00000000000E+00 0.  1.
<scales pt_clust_5="13000.00000" pt_clust_6="13000.00000" pt_clust_7="13000.00000" pt_clust_8="13000.00000" pt_clust_9="55.55781"></scales>
<clustering>
<clus scale="   55.558">  1  9  2 -1</clus>
<clus scale="   87.928">  5  6 -1 -1</clus>
<clus scale="   92.733">  7  8 -1 -1</clus>
<clus scale="  137.287">  1  5  2 -1</clus>
<clus scale="   55.558">  1  5  2 -1</clus>
</clustering>
</event>
<event>
 9    1  0.7929760E-005  0.1592612E+03  0.7546771E-02  0.1191142E+00
         21   -1    0    0  501  502  0.00000000000E+00  0.00000000000E+00  0.11040119817E+03  0.11040119817E+03  0.00000000000E+00 0.  1.
          1   -1    0    0  502    0 -0.00000000000E+00 -0.00000000000E+00 -0.10583606018E+04  0.10583606018E+04  0.00000000000E+00 0. -1.
         23    2    1    2    0    0 -0.11629376793E+03  0.64522186423E+02 -0.44351950082E+03  0.47193692725E+03  0.91255480363E+02 0.  0.
        -24    2    1    2    0    0  0.12872865113E+03  0.84512584962E+00  0.32634043028E+02  0.15564474084E+03  0.81169727897E+02 0.  0.
         11    1    4    4    0    0  0.46295706191E+02 -0.35078770994E+02 -0.47159364822E+01  0.58275660812E+02  0.00000000000E+00 0. -1.
        -12    1    4    4    0    0  0.82432944938E+02  0.35923896844E+02  0.37349979511E+02  0.97369080026E+02  0.00000000000E+00 0.  1.
        -13    1    3    3    0    0 -0.10053209701E+03  0.71150179840E+01 -0.25307331509E+03  0.27240306316E+03  0.00000000000E+00 0. -1.
         13    1    3    3    0    0 -0.15761670912E+02  0.57407168439E+02 -0.19044618573E+03  0.19953386408E+03  0.00000000000E+00 0.  1.
          2    1    1    2  501    0 -0.12434883204E+02 -0.65367312273E+02 -0.53707394580E+03  0.54118013183E+03  0.00000000000E+00 0. -1.
<scales pt_clust_5="13000.00000" pt_clust_6="13000.00000" pt_clust_7="13000.00000" pt_clust_8="13000.00000" pt_clust_9="66.53958"></scales>
<clustering>
<clus scale="   66.540">  1  9  2 -1</clus>
<clus scale="   81.170">  5  6 -1 -1</clus>
<clus scale="   91.255">  7  8 -1 -1</clus>
<clus scale="  153.705">  1  5  2 -1</clus>
<clus scale="   66.540">  1  5  2 -1</clus>
</clustering>
</event>
<event>
 9    1  0.6270443E-005  0.1803266E+03  0.7546771E-02  0.1168598E+00
         -2   -1    0    0    0  501 -0.00000000000E+00  0.00000000000E+00  0.20690719971E+03  0.20690719971E+03  0.00000000000E+00 0.  1.
         21   -1    0    0  501  502  0.00000000000E+00 -0.00000000000E+00 -0.24030813521E+03  0.24030813521E+03  0.00000000000E+00 0. -1.
         23    2    1    2    0    0 -0.48126589413E+01  0.13220135835E+03  0.27733551426E+01  0.16124790549E+03  0.92156577035E+02 0.  0.
        -24    2    1    2    0    0  0.20056532830E+02 -0.19377256582E+03 -0.56905542666E+02  0.21923532254E+03  0.82920528751E+02 0.  0.
         11    1    4    4    0    0 -0.22154899922E+02 -0.14553135060E+03 -0.45882696947E+02  0.15419285158E+03  0.00000000000E+00 0. -1.
        -12    1    4    4    0    0  0.42211432753E+02 -0.48241215218E+02 -0.11022845718E+02  0.65042470959E+02  0.00000000000E+00 0.  1.
        -13    1    3    3    0    0  0.21224238048E+01  0.68458800185E+02  0.47254217563E+02  0.83211015395E+02  0.00000000000E+00 0.  1.
         13    1    3    3    0    0 -0.69350827461E+01  0.63742558165E+02 -0.44480862421E+02  0.78036890096E+02  0.00000000000E+00 0. -1.
         -1    1    1    2    0  502 -0.15243873889E+02  0.61571207472E+02  0.20731252022E+02  0.66732106898E+02  0.00000000000E+00 0.  1.
<scales pt_clust_5="13000.00000" pt_clust_6="13000.00000" pt_clust_7="13000.00000" pt_clust_8="13000.00000" pt_clust_9="63.43022"></scales>
<clustering>
<clus scale="   63.430">  2  9  1 -1</clus>
<clus scale="   82.921">  5  6 -1 -1</clus>
<clus scale="   92.157">  7  8 -1 -1</clus>
<clus scale="  175.786">  2  5  1 -1</clus>
<clus scale="   63.430">  2  5  1 -1</clus>
</clustering>
</event>
<event>
 9    1  0.6270443E-005  0.3576012E+03  0.7546771E-02  0.1110616E+00
          1   -1    0    0  502    0 -0.00000000000E+00  0.00000000000E+00  0.11040130378E+04  0.11040130378E+04  0.00000000000E+00 0. -1.
         21   -1    0    0  501  502  0.00000000000E+00 -0.00000000000E+00 -0.14615067250E+03  0.14615067250E+03  0.00000000000E+00 0.  1.
        -24    2    1    2    0    0  0.14188014688E+02 -0.39038467978E+02  0.16550992084E+03  0.18909542411E+03  0.81475418269E+02 0.  0.
         23    2    1    2    0    0  0.12856984190E+03  0.33873623066E+03  0.38914948998E+03  0.53879328480E+03  0.87111652414E+02 0.  0.
         13    1    3    3    0    0  0.26549505452E+02  0.40257159943E+01  0.12763208180E+03  0.13042634294E+03  0.00000000000E+00 0. -1.
        -14    1    3    3    0    0 -0.12361490764E+02 -0.43064183972E+02  0.37877839038E+02  0.58669081170E+02  0.00000000000E+00 0.  1.
        -11    1    4    4    0    0  0.11404636188E+03  0.20381511382E+03  0.28016945365E+03  0.36474936057E+03  0.00000000000E+00 0.  1.
         11    1    4    4    0    0  0.14523480013E+02  0.13492111684E+03  0.10898003632E+03  0.17404392422E+03  0.00000000000E+00 0. -1.
          2    1    1    2  501    0 -0.14275785658E+03 -0.29969776268E+03  0.40320295450E+03  0.52227500140E+03  0.00000000000E+00 0. -1.
<scales pt_clust_5="13000.00000" pt_clust_6="13000.00000" pt_clust_7="13000.00000" pt_clust_8="13000.00000" pt_clust_9="346.82889"></scales>
<clustering>
<clus scale="   81.475">  5  6 -1 -1</clus>
<clus scale="   87.112">  7  8 -1 -1</clus>
<clus scale="   91.452">  1  5  2 -1</clus>
<clus scale="  346.829">  2  9  1 -1</clus>
<clus scale="  346.829">  2  5  1 -1</clus>
</clustering>
</event>
<event>
 9    1  0.6270443E-005  0.1008318E+03  0.7546771E-02  0.1284283E+00
          1   -1    0    0  502    0 -0.00000000000E+00  0.00000000000E+00  0.46075249276E+03  0.46075249276E+03  0.00000000000E+00 0. -1.
         21   -1    0    0  501  502  0.00000000000E+00 -0.00000000000E+00 -0.11515818726E+03  0.11515818726E+03  0.00000000000E+00 0. -1.
        -24    2    1    2    0    0 -0.31399620687E+02  0.20478135457E+02  0.38898688384E+03  0.39945553504E+03  0.82756501005E+02 0.  0.
         23    2    1    2    0    0  0.47999663559E+02  0.35231253307E+02 -0.16796150138E+02  0.11252966169E+03  0.93997899924E+02 0.  0.
         11    1    3    3    0    0 -0.50635671040E+02  0.31964399485E+02  0.34428170469E+03  0.34945040593E+03  0.00000000000E+00 0. -1.
        -12    1    3    3    0    0  0.19236050353E+02 -0.11486264027E+02  0.44705179150E+02  0.50005129110E+02  0.00000000000E+00 0.  1.
        -13    1    4    4    0    0  0.29531344017E+02  0.66962969143E+02 -0.19428444726E+02  0.75720565109E+02  0.00000000000E+00 0. -1.
         13    1    4    4    0    0  0.18468319543E+02 -0.31731715836E+02  0.26322945874E+01  0.36809096585E+02  0.00000000000E+00 0.  1.
          2    1    1    2  501    0 -0.16600042872E+02 -0.55709388764E+02 -0.26596428209E+02  0.63925483286E+02  0.00000000000E+00 0. -1.
<scales pt_clust_5="13000.00000" pt_clust_6="13000.00000" pt_clust_7="13000.00000" pt_clust_8="13000.00000" pt_clust_9="58.13000"></scales>
<clustering>
<clus scale="   58.130">  2  9  1 -1</clus>
<clus scale="   82.757">  5  6 -1 -1</clus>
<clus scale="   90.444">  1  5  2 -1</clus>
<clus scale="   93.998">  7  8 -1 -1</clus>
<clus scale="   58.130">  2  5  1 -1</clus>
</clustering>
</event>
<event>
 9    1  0.6270443E-005  0.9758978E+02  0.7546771E-02  0.1291743E+00
         21   -1    0    0  501  502  0.00000000000E+00  0.00000000000E+00  0.21666795988E+03  0.21666795988E+03  0.00000000000E+00 0.  1.
         -2   -1    0    0    0  501 -0.00000000000E+00 -0.00000000000E+00 -0.12521919256E+03  0.12521919256E+03  0.00000000000E+00 0.  1.
        -24    2    1    2    0    0 -0.27763561764E+02 -0.12820112873E+02 -0.57650200603E+02  0.10396274563E+03  0.80929204820E+02 0.  0.
         23    2    1    2    0    0  0.49985004926E+02 -0.45804488477E+02  0.12780647901E+03  0.17171257627E+03  0.92488706826E+02 0.  0.
         13    1    3    3    0    0  0.28424846701E+02 -0.88296137208E+01 -0.24883421874E+02  0.38795858962E+02  0.00000000000E+00 0. -1.
        -14    1    3    3    0    0 -0.56188408465E+02 -0.39904991527E+01 -0.32766778729E+02  0.65166886665E+02  0.00000000000E+00 0.  1.
        -11    1    4    4    0    0  0.72451551366E+02 -0.50365343159E+02  0.81847317763E+02  0.12035314085E+03  0.00000000000E+00 0.  1.
         11    1    4    4    0    0 -0.22466546440E+02  0.45608546820E+01  0.45959161251E+02  0.51359435426E+02  0.00000000000E+00 0. -1.
         -1    1    1    2    0  502 -0.22221443162E+02  0.58624601351E+02  0.21292488907E+02  0.66211830541E+02  0.00000000000E+00 0.  1.
<scales pt_clust_5="13000.00000" pt_clust_6="13000.00000" pt_clust_7="13000.00000" pt_clust_8="13000.00000" pt_clust_9="62.69479"></scales>
<clustering>
<clus scale="   62.695">  1  9  2 -1</clus>
<clus scale="   80.929">  5  6 -1 -1</clus>
<clus scale="   86.713">  2  5  1 -1</clus>
<clus scale="   92.489">  7  8 -1 -1</clus>
<clus scale="   62.695">  1  5  2 -1</clus>
</clustering>
</event>
<event>
 9    1  0.6270443E-005  0.9709166E+02  0.7546771E-02  0.1293916E+00
         21   -1    0    0  501  502  0.00000000000E+00  0.00000000000E+00  0.44198067485E+02  0.44198067485E+02  0.00000000000E+00 0.  1.
          1   -1    0    0  502    0 -0.00000000000E+00 -0.00000000000E+00 -0.60724991252E+03  0.60724991252E+03  0.00000000000E+00 0. -1.
        -24    2    1    2    0    0 -0.18052519150E+01 -0.27367909407E+02 -0.43004407551E+03  0.43803660651E+03  0.78650494978E+02 0.  0.
         23    2    1    2    0    0  0.36230164077E+02  0.42178577906E+02 -0.13873065828E+03  0.17550119103E+03  0.91993561102E+02 0.  0.
         13    1    3    3    0    0 -0.38369261496E+02 -0.22680229421E+01 -0.17572746481E+03  0.17988186691E+03  0.00000000000E+00 0. -1.
        -14    1    3    3    0    0  0.36564009581E+02 -0.25099886465E+02 -0.25431661070E+03  0.25815473960E+03  0.00000000000E+00 0.  1.
        -11    1    4    4    0    0 -0.19836083779E+02  0.14070440550E+02 -0.12048967921E+01  0.24349523471E+02  0.00000000000E+00 0. -1.
         11    1    4    4    0    0  0.56066247856E+02  0.28108137356E+02 -0.13752576148E+03  0.15115166756E+03  0.00000000000E+00 0.  1.
          2    1    1    2  501    0 -0.34424912162E+02 -0.14810668499E+02  0.57228887543E+01  0.37910182463E+02  0.00000000000E+00 0. -1.
<scales pt_clust_5="13000.00000" pt_clust_6="13000.00000" pt_clust_7="13000.00000" pt_clust_8="13000.00000" pt_clust_9="37.47573"></scales>
<clustering>
<clus scale="   37.476">  1  9  2 -1</clus>
<clus scale="   78.650">  5  6 -1 -1</clus>
<clus scale="   84.557">  2  5  1 -1</clus>
<clus scale="   91.994">  7  8 -1 -1</clus>
<clus scale="   37.476">  1  5  2 -1</clus>
</clustering>
</event>
<event>
 9    1  0.6270443E-005  0.1252202E+03  0.7546771E-02  0.1238257E+00
         21   -1    0    0  501  502  0.00000000000E+00  0.00000000000E+00  0.18002232823E+03  0.18002232823E+03  0.00000000000E+00 0.  1.
         -2   -1    0    0    0  501 -0.00000000000E+00 -0.00000000000E+00 -0.47585136954E+03  0.47585136954E+03  0.00000000000E+00 0.  1.
        -24    2    1    2    0    0  0.20003783346E+02 -0.96010448400E+02 -0.31223877985E+03  0.33690269741E+03  0.79951324741E+02 0.  0.
         23    2    1    2    0    0  0.22576804273E+01  0.63289115439E+02 -0.12756663739E+03  0.16965437293E+03  0.92188665381E+02 0.  0.
         11    1    3    3    0    0 -0.68552608493E+00 -0.74207720084E+02 -0.29044599746E+03  0.29977680549E+03  0.00000000000E+00 0. -1.
        -12    1    3    3    0    0  0.20689309431E+02 -0.21802728315E+02 -0.21792782390E+02  0.37125891922E+02  0.00000000000E+00 0.  1.
        -11    1    4    4    0    0 -0.93377042396E+01  0.24165541649E+02  0.87630056164E+01  0.27348791401E+02  0.00000000000E+00 0. -1.
         11    1    4    4    0    0  0.11595384667E+02  0.39123573789E+02 -0.13632964300E+03  0.14230558152E+03  0.00000000000E+00 0.  1.
         -1    1    1    2    0  502 -0.22261463773E+02  0.32721332961E+02  0.14397637593E+03  0.14931662743E+03  0.00000000000E+00 0.  1.
<scales pt_clust_5="13000.00000" pt_clust_6="13000.00000" pt_clust_7="13000.00000" pt_clust_8="13000.00000" pt_clust_9="39.57598"></scales>
<clustering>
<clus scale="   39.576">  1  9  2 -1</clus>
<clus scale="   79.951">  5  6 -1 -1</clus>
<clus scale="   92.189">  7  8 -1 -1</clus>
<clus scale="  116.506">  2  5  1 -1</clus>
<clus scale="   39.576">  1  5  2 -1</clus>
</clustering>
</event>
<event>
 9    1  0.6270443E-005  0.9718433E+02  0.7546771E-02  0.1294051E+00
         21   -1    0    0  501  502  0.00000000000E+00  0.00000000000E+00  0.10582096137E+03  0.10582096137E+03  0.00000000000E+00 0. -1.
          3   -1    0    0  502    0 -0.00000000000E+00 -0.00000000000E+00 -0.32424968717E+03  0.32424968717E+03  0.00000000000E+00 0. -1.
         23    2    1    2    0    0  0.10396503369E+01 -0.27941465410E+02 -0.21412496941E+03  0.23585720084E+03  0.94854152793E+02 0.  0.
        -24    2    1    2    0    0 -0.17908457537E+02  0.63474067754E+01 -0.78776126659E+02  0.11485984693E+03  0.81400883781E+02 0.  0.
         13    1    4    4    0    0 -0.29100971003E+02 -0.27267777315E+02 -0.16392422835E+02  0.43117394627E+02  0.00000000000E+00 0. -1.
        -14    1    4    4    0    0  0.11192513466E+02  0.33615184090E+02 -0.62383703824E+02  0.71742452299E+02  0.00000000000E+00 0.  1.
        -11    1    3    3    0    0 -0.42341059482E+02 -0.22970951534E+02 -0.15528907971E+03  0.16258883175E+03  0.00000000000E+00 0. -1.
         11    1    3    3    0    0  0.43380709819E+02 -0.49705138760E+01 -0.58835889694E+02  0.73268369087E+02  0.00000000000E+00 0.  1.
          4    1    1    2  501    0  0.16868807200E+02  0.21594058634E+02  0.74472370259E+02  0.79353600779E+02  0.00000000000E+00 0. -1.
<scales pt_clust_5="13000.00000" pt_clust_6="13000.00000" pt_clust_7="13000.00000" pt_clust_8="13000.00000" pt_clust_9="27.40183"></scales>
<clustering>
<clus scale="   27.402">  1  9  2 -1</clus>
<clus scale="   81.401">  5  6 -1 -1</clus>
<clus scale="   84.105">  1  5  2 -1</clus>
<clus scale="   94.854">  7  8 -1 -1</clus>
<clus scale="   27.402">  1  5  2 -1</clus>
</clustering>
</event>
<event>
 9    1  0.6270443E-005  0.1118824E+03  0.7546771E-02  0.1260254E+00
          1   -1    0    0  502    0 -0.00000000000E+00  0.00000000000E+00  0.65301152798E+03  0.65301152798E+03  0.00000000000E+00 0. -1.
         21   -1    0    0  501  502  0.00000000000E+00 -0.00000000000E+00 -0.63633341453E+02  0.63633341453E+02  0.00000000000E+00 0.  1.
        -24    2    1    2    0    0  0.70678930059E+02 -0.23454004985E+02  0.29017943471E+03  0.31085591345E+03  0.82955970807E+02 0.  0.
         23    2    1    2    0    0  0.31302679182E+01  0.57939296784E+02  0.13867384283E+02  0.10905503080E+03  0.91290386718E+02 0.  0.
         13    1    3    3    0    0  0.81761232142E+02 -0.35929729158E+02  0.19842925118E+03  0.21760057960E+03  0.00000000000E+00 0. -1.
        -14    1    3    3    0    0 -0.11082302082E+02  0.12475724173E+02  0.91750183533E+02  0.93255333849E+02  0.00000000000E+00 0.  1.
        -11    1    4    4    0    0  0.12887939722E+02  0.26738251378E+02 -0.37709733054E+02  0.47990176537E+02  0.00000000000E+00 0.  1.
         11    1    4    4    0    0 -0.97576718040E+01  0.31201045407E+02  0.51577117338E+02  0.61064854265E+02  0.00000000000E+00 0. -1.
          2    1    1    2  501    0 -0.73809197978E+02 -0.34485291800E+02  0.28533136753E+03  0.29673392518E+03  0.00000000000E+00 0. -1.
<scales pt_clust_5="13000.00000" pt_clust_6="13000.00000" pt_clust_7="13000.00000" pt_clust_8="13000.00000" pt_clust_9="81.46803"></scales>
<clustering>
<clus scale="   81.468">  2  9  1 -1</clus>
<clus scale="   82.956">  5  6 -1 -1</clus>
<clus scale="   91.290">  7  8 -1 -1</clus>
<clus scale="  105.192">  1  5  2 -1</clus>
<clus scale="   81.468">  2  5  1 -1</clus>
</clustering>
</event>
<event>
 9    1  0.6270443E-005  0.1454164E+03  0.7546771E-02  0.1227588E+00
          3   -1    0    0  502    0 -0.00000000000E+00  0.00000000000E+00  0.77138819765E+03  0.77138819765E+03  0.00000000000E+00 0. -1.
         21   -1    0    0  501  502  0.00000000000E+00 -0.00000000000E+00 -0.13966127981E+03  0.13966127981E+03  0.00000000000E+00 0. -1.
         23    2    1    2    0    0 -0.25832365828E+01  0.87850010251E+01  0.13002283358E+03  0.15964278453E+03  0.92173922813E+02 0.  0.
        -24    2    1    2    0    0  0.10233829540E+03  0.64209131386E+02 -0.73686834808E+02  0.16288827787E+03  0.80665371649E+02 0.  0.
         13    1    4    4    0    0  0.54352212851E+02  0.73505640943E+02 -0.67462435936E+02  0.11361523910E+03  0.00000000000E+00 0. -1.
        -14    1    4    4    0    0  0.47986082549E+02 -0.92965095569E+01 -0.62243988712E+01  0.49273038770E+02  0.00000000000E+00 0.  1.
        -13    1    3    3    0    0  0.27996791054E+02  0.34314862738E+02  0.34476154868E+02  0.56124285015E+02  0.00000000000E+00 0. -1.
         13    1    3    3    0    0 -0.30580027636E+02 -0.25529861713E+02  0.95546678713E+02  0.10351849952E+03  0.00000000000E+00 0.  1.
          4    1    1    2  501    0 -0.99755058817E+02 -0.72994132411E+02  0.57539091907E+03  0.58851841507E+03  0.00000000000E+00 0. -1.
<scales pt_clust_5="13000.00000" pt_clust_6="13000.00000" pt_clust_7="13000.00000" pt_clust_8="13000.00000" pt_clust_9="120.99194"></scales>
<clustering>
<clus scale="   80.665">  5  6 -1 -1</clus>
<clus scale="   92.174">  7  8 -1 -1</clus>
<clus scale="   92.628">  1  7  2 -1</clus>
<clus scale="  120.992">  2  9  1 -1</clus>
<clus scale="  120.992">  2  5  1 -1</clus>
</clustering>
</event>
<event>
 9    1  0.6270443E-005  0.1052483E+03  0.7546771E-02  0.1275038E+00
          1   -1    0    0  502    0 -0.00000000000E+00  0.00000000000E+00  0.47305177635E+03  0.47305177635E+03  0.00000000000E+00 0. -1.
         21   -1    0    0  501  502  0.00000000000E+00 -0.00000000000E+00 -0.71363787402E+02  0.71363787402E+02  0.00000000000E+00 0. -1.
         23    2    1    2    0    0 -0.42600678610E+02  0.25115523572E+02  0.31693042592E+03  0.33368002551E+03  0.91933982878E+02 0.  0.
        -24    2    1    2    0    0  0.77683786291E+02  0.14551275013E+02  0.18173723903E+01  0.11233150084E+03  0.79803214100E+02 0.  0.
         11    1    4    4    0    0  0.41787322796E+02  0.39249223037E+02 -0.23475939628E+02  0.61949992712E+02  0.00000000000E+00 0. -1.
        -12    1    4    4    0    0  0.35896463494E+02 -0.24697948024E+02  0.25293312019E+02  0.50381508124E+02  0.00000000000E+00 0.  1.
        -13    1    3    3    0    0 -0.67427902805E+02  0.12333481380E+02  0.27417204684E+03  0.28261094832E+03  0.00000000000E+00 0. -1.
         13    1    3    3    0    0  0.24827224195E+02  0.12782042193E+02  0.42758379081E+02  0.51069077195E+02  0.00000000000E+00 0.  1.
          2    1    1    2  501    0 -0.35083107681E+02 -0.39666798585E+02  0.82940190633E+02  0.98404037401E+02  0.00000000000E+00 0. -1.
<scales pt_clust_5="13000.00000" pt_clust_6="13000.00000" pt_clust_7="13000.00000" pt_clust_8="13000.00000" pt_clust_9="52.95547"></scales>
<clustering>
<clus scale="   52.955">  2  9  1 -1</clus>
<clus scale="   79.803">  5  6 -1 -1</clus>
<clus scale="   91.934">  7  8 -1 -1</clus>
<clus scale="   94.836">  2  5  1 -1</clus>
<clus scale="   52.955">  2  5  1 -1</clus>
</clustering>
</event>
<event>
 9    1  0.6270443E-005  0.8963049E+02  0.7546771E-02  0.1307631E+00
          1   -1    0    0  502    0 -0.00000000000E+00  0.00000000000E+00  0.62007192992E+03  0.62007192992E+03  0.00000000000E+00 0. -1.
         21   -1    0    0  501  502  0.00000000000E+00 -0.00000000000E+00 -0.38838834476E+02  0.38838834476E+02  0.00000000000E+00 0. -1.
         23    2    1    2    0    0 -0.20197304798E+02  0.19786668406E+02  0.35931142767E+03  0.37086910762E+03  0.87405660922E+02 0.  0.
        -24    2    1    2    0    0  0.19329406508E+02  0.29438393822E+02  0.22183808711E+03  0.23880887314E+03  0.81100530279E+02 0.  0.
         13    1    4    4    0    0  0.24351613811E+02  0.35664610395E+02  0.22579272413E+03  0.22988544930E+03  0.00000000000E+00 0. -1.
        -14    1    4    4    0    0 -0.50222073037E+01 -0.62262165731E+01 -0.39546370227E+01  0.89234238383E+01  0.00000000000E+00 0.  1.
        -11    1    3    3    0    0 -0.33210594394E+02  0.41106825332E+02  0.31971264588E+03  0.32405075313E+03  0.00000000000E+00 0.  1.
         11    1    3    3    0    0  0.13013289596E+02 -0.21320156926E+02  0.39598781797E+02  0.46818354491E+02  0.00000000000E+00 0. -1.
          2    1    1    2  501    0  0.86789829014E+00 -0.49225062228E+02  0.83580659168E-01  0.49232783636E+02  0.00000000000E+00 0. -1.
<scales pt_clust_5="13000.00000" pt_clust_6="13000.00000" pt_clust_7="13000.00000" pt_clust_8="13000.00000" pt_clust_9="49.23271"></scales>
<clustering>
<clus scale="   49.233">  2  9  1 -1</clus>
<clus scale="   81.101">  5  6 -1 -1</clus>
<clus scale="   83.494">  2  5  1 -1</clus>
<clus scale="   87.406">  7  8 -1 -1</clus>
<clus scale="   49.233">  2  5  1 -1</clus>
</clustering>
</event>
<event>
 9    1  0.6270443E-005  0.1333640E+03  0.7546771E-02  0.1233610E+00
          1   -1    0    0  502    0 -0.00000000000E+00  0.00000000000E+00  0.15342012135E+03  0.15342012135E+03  0.00000000000E+00 0. -1.
         21   -1    0    0  501  502  0.00000000000E+00 -0.00000000000E+00 -0.35786978767E+03  0.35786978767E+03  0.00000000000E+00 0.  1.
         23    2    1    2    0    0  0.22924323760E+02 -0.48078962921E+02  0.80055066918E+02  0.13287434307E+03  0.91704231149E+02 0.  0.
        -24    2    1    2    0    0 -0.20604622789E+02 -0.74061413479E+02 -0.71461306917E+02  0.13283227243E+03  0.81412841532E+02 0.  0.
         13    1    4    4    0    0  0.43970004088E+01 -0.41178993256E+02  0.90065330000E+01  0.42381136545E+02  0.00000000000E+00 0. -1.
        -14    1    4    4    0    0 -0.25001623198E+02 -0.32882420223E+02 -0.80467839917E+02  0.90451135887E+02  0.00000000000E+00 0.  1.
        -13    1    3    3    0    0  0.49718212176E+02 -0.52660654232E+02  0.76693797227E+02  0.10548451858E+03  0.00000000000E+00 0.  1.
         13    1    3    3    0    0 -0.26793888415E+02  0.45816913106E+01  0.33612696911E+01  0.27389824491E+02  0.00000000000E+00 0. -1.
          2    1    1    2  501    0 -0.23197009711E+01  0.12214037640E+03 -0.21304342632E+03  0.24558329352E+03  0.00000000000E+00 0. -1.
<scales pt_clust_5="13000.00000" pt_clust_6="13000.00000" pt_clust_7="13000.00000" pt_clust_8="13000.00000" pt_clust_9="105.63093"></scales>
<clustering>
<clus scale="   81.413">  5  6 -1 -1</clus>
<clus scale="   91.704">  7  8 -1 -1</clus>
<clus scale="  106.051">  1  7  2 -1</clus>
<clus scale="  105.631">  2  9  1 -1</clus>
<clus scale="  105.631">  2  5  1 -1</clus>
</clustering>
</event>
<event>
 9    1  0.6270443E-005  0.1115519E+03  0.7546771E-02  0.1262565E+00
         21   -1    0    0  501  502  0.00000000000E+00  0.00000000000E+00  0.17943850531E+03  0.17943850531E+03  0.00000000000E+00 0.  1.
         -2   -1    0    0    0  501 -0.00000000000E+00 -0.00000000000E+00 -0.15514643007E+03  0.15514643007E+03  0.00000000000E+00 0.  1.
         23    2    1    2    0    0 -0.10335975914E+01 -0.67710973741E+02 -0.75991825853E+02  0.13729209493E+03  0.92133150635E+02 0.  0.
        -24    2    1    2    0    0  0.45592943833E+02  0.46854288732E+02  0.22752678194E+02  0.10546894829E+03  0.79573700358E+02 0.  0.
         13    1    4    4    0    0  0.79600984455E+01  0.47364455591E+02 -0.16789673841E+02  0.50878757536E+02  0.00000000000E+00 0. -1.
        -14    1    4    4    0    0  0.37632845387E+02 -0.51016685915E+00  0.39542352036E+02  0.54590190755E+02  0.00000000000E+00 0.  1.
        -13    1    3    3    0    0  0.30129402465E+02  0.61265626388E+01 -0.37175813989E+02  0.48242686580E+02  0.00000000000E+00 0.  1.
         13    1    3    3    0    0 -0.31163000057E+02 -0.73837536380E+02 -0.38816011863E+02  0.89049408354E+02  0.00000000000E+00 0. -1.
         -1    1    1    2    0  502 -0.44559346242E+02  0.20856685009E+02  0.77531222901E+02  0.91823892161E+02  0.00000000000E+00 0.  1.
<scales pt_clust_5="13000.00000" pt_clust_6="13000.00000" pt_clust_7="13000.00000" pt_clust_8="13000.00000" pt_clust_9="49.19895"></scales>
<clustering>
<clus scale="   49.199">  1  9  2 -1</clus>
<clus scale="   79.574">  5  6 -1 -1</clus>
<clus scale="   92.133">  7  8 -1 -1</clus>
<clus scale="  101.426">  1  5  2 -1</clus>
<clus scale="   49.199">  1  5  2 -1</clus>
</clustering>
</event>
<event>
 9    1  0.6270443E-005  0.1325371E+03  0.7546771E-02  0.1234865E+00
         21   -1    0    0  501  502  0.00000000000E+00  0.00000000000E+00  0.15104083556E+02  0.15104083556E+02  0.00000000000E+00 0. -1.
          1   -1    0    0  502    0 -0.00000000000E+00 -0.00000000000E+00 -0.19652913562E+04  0.19652913562E+04  0.00000000000E+00 0. -1.
        -24    2    1    2    0    0 -0.38294204890E+02  0.29420007456E+02 -0.67958712769E+03  0.68607000656E+03  0.80755227808E+02 0.  0.
         23    2    1    2    0    0  0.10539874789E+03 -0.62536983052E+02 -0.75569891285E+03  0.77401491764E+03  0.11401085717E+03 0.  0.
         11    1    3    3    0    0 -0.40903863748E+02 -0.13799303634E+02 -0.20408576333E+03  0.20860140375E+03  0.00000000000E+00 0. -1.
        -12    1    3    3    0    0  0.26096588575E+01  0.43219311089E+02 -0.47550136436E+03  0.47746860282E+03  0.00000000000E+00 0.  1.
        -11    1    4    4    0    0 -0.83051063557E+01  0.23302752578E+02 -0.99611712545E+02  0.10263764585E+03  0.00000000000E+00 0.  1.
         11    1    4    4    0    0  0.11370385425E+03 -0.85839735630E+02 -0.65608720030E+03  0.67137727179E+03  0.00000000000E+00 0. -1.
          2    1    1    2  501    0 -0.67104543003E+02  0.33116975597E+02 -0.51490123212E+03  0.52031051556E+03  0.00000000000E+00 0. -1.
<scales pt_clust_5="13000.00000" pt_clust_6="13000.00000" pt_clust_7="13000.00000" pt_clust_8="13000.00000" pt_clust_9="74.83154"></scales>
<clustering>
<clus scale="   74.832">  1  9  2 -1</clus>
<clus scale="   80.755">  5  6 -1 -1</clus>
<clus scale="  105.304">  2  5  1 -1</clus>
<clus scale="  114.011">  7  8 -1 -1</clus>
<clus scale="   74.832">  1  5  2 -1</clus>
</clustering>
</event>
<event>
 9    1  0.6270443E-005  0.9910693E+02  0.7546771E-02  0.1286383E+00
         21   -1    0    0  501  502  0.00000000000E+00  0.00000000000E+00  0.16674188634E+03  0.16674188634E+03  0.00000000000E+00 0. -1.
          3   -1    0    0  502    0 -0.00000000000E+00 -0.00000000000E+00 -0.14683432216E+03  0.14683432216E+03  0.00000000000E+00 0. -1.
         23    2    1    2    0    0  0.27503949374E+02  0.19052835826E+02 -0.40962208320E+02  0.10541315775E+03  0.91184173699E+02 0.  0.
        -24    2    1    2    0    0 -0.59864676466E+01 -0.75538832656E+02  0.87237708253E+02  0.14221657325E+03  0.82904661704E+02 0.  0.
         11    1    4    4    0    0  0.39204480279E+01 -0.33793491542E+02  0.92906127942E+02  0.98938963975E+02  0.00000000000E+00 0. -1.
        -12    1    4    4    0    0 -0.99069156745E+01 -0.41745341115E+02 -0.56684196885E+01  0.43277609277E+02  0.00000000000E+00 0.  1.
        -13    1    3    3    0    0  0.88113441357E+01  0.33899487304E+02 -0.63540994733E+02  0.72555310189E+02  0.00000000000E+00 0. -1.
         13    1    3    3    0    0  0.18692605239E+02 -0.14846651478E+02  0.22578786413E+02  0.32857847565E+02  0.00000000000E+00 0.  1.
          4    1    1    2  501    0 -0.21517481728E+02  0.56485996831E+02 -0.26367935751E+02  0.65946477492E+02  0.00000000000E+00 0. -1.
<scales pt_clust_5="13000.00000" pt_clust_6="13000.00000" pt_clust_7="13000.00000" pt_clust_8="13000.00000" pt_clust_9="60.44562"></scales>
<clustering>
<clus scale="   60.446">  1  9  2 -1</clus>
<clus scale="   82.905">  5  6 -1 -1</clus>
<clus scale="   91.184">  7  8 -1 -1</clus>
<clus scale="   91.547">  1  5  2 -1</clus>
<clus scale="   60.446">  1  5  2 -1</clus>
</clustering>
</event>
<event>
 9    1  0.6270443E-005  0.2286014E+03  0.7546771E-02  0.1144491E+00
          1   -1    0    0  502    0 -0.00000000000E+00  0.00000000000E+00  0.10011188752E+04  0.10011188752E+04  0.00000000000E+00 0. -1.
         21   -1    0    0  501  502  0.00000000000E+00 -0.00000000000E+00 -0.11661337373E+03  0.11661337373E+03  0.00000000000E+00 0. -1.
        -24    2    1    2    0    0  0.12234986318E+03  0.42123488349E+02  0.54504735910E+02  0.16125381742E+03  0.79297856875E+02 0.  0.
         23    2    1    2    0    0  0.85794575943E+02 -0.17881100599E+03  0.30118516671E+03  0.37196707781E+03  0.91175200601E+02 0.  0.
         13    1    3    3    0    0  0.98950860707E+02  0.54253720669E+02  0.15109859436E+02  0.11385537709E+03  0.00000000000E+00 0. -1.
        -14    1    3    3    0    0  0.23399002471E+02 -0.12130232320E+02  0.39394876474E+02  0.47398440324E+02  0.00000000000E+00 0.  1.
        -13    1    4    4    0    0  0.27337002927E+02 -0.56962753473E+02  0.17882525802E+03  0.18965900959E+03  0.00000000000E+00 0.  1.
         13    1    4    4    0    0  0.58457573016E+02 -0.12184825252E+03  0.12235990869E+03  0.18230806822E+03  0.00000000000E+00 0. -1.
          2    1    1    2  501    0 -0.20814443912E+03  0.13668751764E+03  0.52881559881E+03  0.58451135366E+03  0.00000000000E+00 0. -1.
<scales pt_clust_5="13000.00000" pt_clust_6="13000.00000" pt_clust_7="13000.00000" pt_clust_8="13000.00000" pt_clust_9="209.63241"></scales>
<clustering>
<clus scale="   79.298">  5  6 -1 -1</clus>
<clus scale="   91.175">  7  8 -1 -1</clus>
<clus scale="  151.763">  1  5  2 -1</clus>
<clus scale="  209.632">  2  9  1 -1</clus>
<clus scale="  209.632">  2  5  1 -1</clus>
</clustering>
</event>
<event>
 9    1  0.6270443E-005  0.1966300E+03  0.7546771E-02  0.1177189E+00
         21   -1    0    0  501  502  0.00000000000E+00  0.00000000000E+00  0.89675522533E+02  0.89675522533E+02  0.00000000000E+00 0. -1.
          1   -1    0    0  502    0 -0.00000000000E+00 -0.00000000000E+00 -0.69484083298E+03  0.69484083298E+03  0.00000000000E+00 0. -1.
        -24    2    1    2    0    0 -0.14659897712E+02  0.75481782009E+02 -0.19292812626E+03  0.22283407781E+03  0.80754890358E+02 0.  0.
         23    2    1    2    0    0  0.16779684790E+03 -0.10377117720E+03 -0.17923192763E+03  0.28142763460E+03  0.90295017883E+02 0.  0.
         11    1    3    3    0    0  0.11502961822E+01  0.90018246796E+02 -0.15502103868E+03  0.17926553035E+03  0.00000000000E+00 0. -1.
        -12    1    3    3    0    0 -0.15810193895E+02 -0.14536464787E+02 -0.37907087576E+02  0.43568547462E+02  0.00000000000E+00 0.  1.
        -13    1    4    4    0    0  0.67094287396E+02 -0.39563437017E+00 -0.88118310259E+02  0.11075484879E+03  0.00000000000E+00 0.  1.
         13    1    4    4    0    0  0.10070256051E+03 -0.10337554283E+03 -0.91113617373E+02  0.17067278581E+03  0.00000000000E+00 0. -1.
          2    1    1    2  501    0 -0.15313695019E+03  0.28289395186E+02 -0.23300525655E+03  0.28025464309E+03  0.00000000000E+00 0. -1.
<scales pt_clust_5="13000.00000" pt_clust_6="13000.00000" pt_clust_7="13000.00000" pt_clust_8="13000.00000" pt_clust_9="174.67170"></scales>
<clustering>
<clus scale="   80.755">  5  6 -1 -1</clus>
<clus scale="   90.295">  7  8 -1 -1</clus>
<clus scale="  111.507">  2  5  1 -1</clus>
<clus scale="  174.672">  1  9  2 -1</clus>
<clus scale="  174.672">  1  5  2 -1</clus>
</clustering>
</event>
<event>
 9    1  0.6270443E-005  0.4168164E+03  0.7546771E-02  0.1038255E+00
         21   -1    0    0  501  502  0.00000000000E+00  0.00000000000E+00  0.20994715327E+04  0.20994715327E+04  0.00000000000E+00 0.  1.
          3   -1    0    0  502    0 -0.00000000000E+00 -0.00000000000E+00 -0.11853848627E+03  0.11853848627E+03  0.00000000000E+00 0. -1.
         23    2    1    2    0    0  0.23314835490E+03  0.30722750329E+03  0.51636213181E+03  0.65094716453E+03  0.91408236329E+02 0.  0.
        -24    2    1    2    0    0 -0.24101476732E+03 -0.38884833796E+03  0.13358501832E+04  0.14144428433E+04  0.82835361464E+02 0.  0.
         13    1    4    4    0    0 -0.17392367024E+02 -0.89806901036E+02  0.25555838494E+03  0.27143666300E+03  0.00000000000E+00 0. -1.
        -14    1    4    4    0    0 -0.22362240030E+03 -0.29904143693E+03  0.10802917982E+04  0.11430061803E+04  0.00000000000E+00 0.  1.
        -11    1    3    3    0    0  0.10154242616E+03  0.11644942076E+03  0.13756322432E+03  0.20686945785E+03  0.00000000000E+00 0.  1.
         11    1    3    3    0    0  0.13160592875E+03  0.19077808253E+03  0.37879890749E+03  0.44407770668E+03  0.00000000000E+00 0. -1.
          4    1    1    2  501    0  0.78664124178E+01  0.81620834677E+02  0.12872073149E+03  0.15262001118E+03  0.00000000000E+00 0. -1.
<scales pt_clust_5="13000.00000" pt_clust_6="13000.00000" pt_clust_7="13000.00000" pt_clust_8="13000.00000" pt_clust_9="81.99907"></scales>
<clustering>
<clus scale="   81.999">  1  9  2 -1</clus>
<clus scale="   82.835">  5  6 -1 -1</clus>
<clus scale="   91.408">  7  8 -1 -1</clus>
<clus scale="  415.021">  1  5  2 -1</clus>
<clus scale="   81.999">  1  5  2 -1</clus>
</clustering>
</event>
<event>
 9    1  0.6270443E-005  0.2167905E+03  0.7546771E-02  0.1146046E+00
          1   -1    0    0  502    0 -0.00000000000E+00  0.00000000000E+00  0.94533297385E+03  0.94533297385E+03  0.00000000000E+00 0. -1.
         21   -1    0    0  501  502  0.00000000000E+00 -0.00000000000E+00 -0.12037538877E+03  0.12037538877E+03  0.00000000000E+00 0.  1.
        -24    2    1    2    0    0 -0.41540515829E+02 -0.14558782483E+03  0.29754514353E+03  0.34340802004E+03  0.80464443043E+02 0.  0.
         23    2    1    2    0    0  0.21030092109E+03  0.21551336548E+02  0.10507877639E+03  0.25088667124E+03  0.84921346214E+02 0.  0.
         13    1    3    3    0    0 -0.25033824959E+02 -0.10786875275E+03  0.27501950090E+03  0.29647611385E+03  0.00000000000E+00 0. -1.
        -14    1    3    3    0    0 -0.16506690870E+02 -0.37719072079E+02  0.22525642631E+02  0.46931906183E+02  0.00000000000E+00 0.  1.
        -11    1    4    4    0    0  0.15648338858E+03  0.49428408578E+02  0.57685269636E+02  0.17394771861E+03  0.00000000000E+00 0. -1.
         11    1    4    4    0    0  0.53817532507E+02 -0.27877072030E+02  0.47393506754E+02  0.76938952635E+02  0.00000000000E+00 0.  1.
          2    1    1    2  501    0 -0.16876040526E+03  0.12403648828E+03  0.42233366516E+03  0.47141367135E+03  0.00000000000E+00 0. -1.
<scales pt_clust_5="13000.00000" pt_clust_6="13000.00000" pt_clust_7="13000.00000" pt_clust_8="13000.00000" pt_clust_9="199.46564"></scales>
<clustering>
<clus scale="   80.464">  5  6 -1 -1</clus>
<clus scale="   84.921">  7  8 -1 -1</clus>
<clus scale="  171.452">  1  5  2 -1</clus>
<clus scale="  199.466">  2  9  1 -1</clus>
<clus scale="  199.466">  2  5  1 -1</clus>
</clustering>
</event>
<event>
 9    1  0.6270443E-005  0.1237165E+03  0.7546771E-02  0.1246892E+00
         21   -1    0    0  501  502  0.00000000000E+00  0.00000000000E+00  0.21534481388E+03  0.21534481388E+03  0.00000000000E+00 0. -1.
          3   -1    0    0  502    0 -0.00000000000E+00 -0.00000000000E+00 -0.26846400847E+03  0.26846400847E+03  0.00000000000E+00 0. -1.
         23    2    1    2    0    0 -0.56462627555E+02  0.84710966824E+01 -0.16857800016E+03  0.20811825852E+03  0.10786509910E+03 0.  0.
        -24    2    1    2    0    0  0.96628702378E+02  0.26000763477E+02  0.16070407459E+03  0.20605754666E+03  0.81368096476E+02 0.  0.
         11    1    4    4    0    0  0.64918853431E+02  0.33600250851E+02  0.44984261901E+02  0.85831335809E+02  0.00000000000E+00 0. -1.
        -12    1    4    4    0    0  0.31709848947E+02 -0.75994873741E+01  0.11571981269E+03  0.12022621086E+03  0.00000000000E+00 0.  1.
        -11    1    3    3    0    0 -0.81653841787E+02 -0.13796698668E+02 -0.14524173175E+03  0.16719108653E+03  0.00000000000E+00 0. -1.
         11    1    3    3    0    0  0.25191214232E+02  0.22267795351E+02 -0.23336268404E+02  0.40927171992E+02  0.00000000000E+00 0.  1.
          4    1    1    2  501    0 -0.40166074824E+02 -0.34471860160E+02 -0.45245269022E+02  0.69633017158E+02  0.00000000000E+00 0. -1.
<scales pt_clust_5="13000.00000" pt_clust_6="13000.00000" pt_clust_7="13000.00000" pt_clust_8="13000.00000" pt_clust_9="52.93038"></scales>
<clustering>
<clus scale="   52.930">  1  9  2 -1</clus>
<clus scale="   81.368">  5  6 -1 -1</clus>
<clus scale="  101.448">  1  5  2 -1</clus>
<clus scale="  107.865">  7  8 -1 -1</clus>
<clus scale="   52.930">  1  5  2 -1</clus>
</clustering>
</event>
<event>
 9    1  0.6270443E-005  0.1220990E+03  0.7546771E-02  0.1242814E+00
         21   -1    0    0  501  502  0.00000000000E+00  0.00000000000E+00  0.36347410894E+03  0.36347410894E+03  0.00000000000E+00 0.  1.
         -2   -1    0    0    0  501 -0.00000000000E+00 -0.00000000000E+00 -0.43225060005E+03  0.43225060005E+03  0.00000000000E+00 0.  1.
         23    2    1    2    0    0 -0.80734447848E+02 -0.24010857785E+02 -0.39345370166E+03  0.41264990798E+03  0.91539930334E+02 0.  0.
        -24    2    1    2    0    0  0.53075733180E+02 -0.37195239439E+02  0.85262051591E+02  0.13441678450E+03  0.81226444117E+02 0.  0.
         13    1    4    4    0    0  0.73353735364E+02 -0.17082991569E+02  0.60192844914E+02  0.96414613372E+02  0.00000000000E+00 0. -1.
        -14    1    4    4    0    0 -0.20278002184E+02 -0.20112247870E+02  0.25069206677E+02  0.38002171127E+02  0.00000000000E+00 0.  1.
        -13    1    3    3    0    0  0.57601541648E+01  0.24115562034E+02 -0.63483590710E+02  0.68153547212E+02  0.00000000000E+00 0. -1.
         13    1    3    3    0    0 -0.86494602013E+02 -0.48126419819E+02 -0.32997011095E+03  0.34449636077E+03  0.00000000000E+00 0.  1.
         -1    1    1    2    0  502  0.27658714668E+02  0.61206097223E+02  0.23941515896E+03  0.24865801651E+03  0.00000000000E+00 0.  1.
<scales pt_clust_5="13000.00000" pt_clust_6="13000.00000" pt_clust_7="13000.00000" pt_clust_8="13000.00000" pt_clust_9="67.16540"></scales>
<clustering>
<clus scale="   67.165">  1  9  2 -1</clus>
<clus scale="   81.226">  5  6 -1 -1</clus>
<clus scale="   91.540">  7  8 -1 -1</clus>
<clus scale="  114.570">  1  5  2 -1</clus>
<clus scale="   67.165">  1  5  2 -1</clus>
</clustering>
</event>
<event>
 9    1  0.6270443E-005  0.1592198E+03  0.7546771E-02  0.1208623E+00
          1   -1    0    0  502    0 -0.00000000000E+00  0.00000000000E+00  0.15357615027E+03  0.15357615027E+03  0.00000000000E+00 0. -1.
         21   -1    0    0  501  502  0.00000000000E+00 -0.00000000000E+00 -0.11024998306E+04  0.11024998306E+04  0.00000000000E+00 0. -1.
         23    2    1    2    0    0  0.79139463702E+01 -0.50118514475E+02  0.70797925769E+02  0.12681877583E+03  0.92174614554E+02 0.  0.
        -24    2    1    2    0    0 -0.12343434871E+02  0.18282806153E+03 -0.15162728460E+03  0.25106634011E+03  0.80405306015E+02 0.  0.
         13    1    4    4    0    0 -0.29449676904E+02  0.14673495154E+03 -0.81631080158E+02  0.17047598870E+03  0.00000000000E+00 0. -1.
        -14    1    4    4    0    0  0.17106242033E+02  0.36093109983E+02 -0.69996204443E+02  0.80590351415E+02  0.00000000000E+00 0.  1.
        -11    1    3    3    0    0 -0.37399840059E+02 -0.40820856468E+02  0.54732103718E+02  0.77850456239E+02  0.00000000000E+00 0.  1.
         11    1    3    3    0    0  0.45313786429E+02 -0.92976580069E+01  0.16065822052E+02  0.48968319586E+02  0.00000000000E+00 0. -1.
          2    1    1    2  501    0  0.44294885009E+01 -0.13270954705E+03 -0.86809432148E+03  0.87819086492E+03  0.00000000000E+00 0. -1.
<scales pt_clust_5="13000.00000" pt_clust_6="13000.00000" pt_clust_7="13000.00000" pt_clust_8="13000.00000" pt_clust_9="137.42613"></scales>
<clustering>
<clus scale="   80.405">  5  6 -1 -1</clus>
<clus scale="   92.175">  7  8 -1 -1</clus>
<clus scale="  105.217">  1  7  2 -1</clus>
<clus scale="  137.426">  2  9  1 -1</clus>
<clus scale="  137.426">  2  5  1 -1</clus>
</clustering>
</event>
<event>
 9    1  0.6270443E-005  0.1163969E+03  0.7546771E-02  0.1253456E+00
         21   -1    0    0  501  502  0.00000000000E+00  0.00000000000E+00  0.93944640401E+02  0.93944640401E+02  0.00000000000E+00 0. -1.
          1   -1    0    0  502    0 -0.00000000000E+00 -0.00000000000E+00 -0.30847009763E+03  0.30847009763E+03  0.00000000000E+00 0. -1.
        -24    2    1    2    0    0  0.57928675105E+02 -0.37391610309E+02 -0.82187928821E+02  0.13318035363E+03  0.78919497139E+02 0.  0.
         23    2    1    2    0    0 -0.21639745781E+02  0.94528380816E+02 -0.15464594242E+02  0.13417595380E+03  0.91433798598E+02 0.  0.
         13    1    3    3    0    0  0.15837350033E+02  0.19038767809E+02 -0.49947039661E+02  0.55749467321E+02  0.00000000000E+00 0. -1.
        -14    1    3    3    0    0  0.42091325072E+02 -0.56430378119E+02 -0.32240889160E+02  0.77430886310E+02  0.00000000000E+00 0.  1.
        -11    1    4    4    0    0  0.44777909092E+00  0.35439963744E+02 -0.50746222054E+02  0.61898066117E+02  0.00000000000E+00 0.  1.
         11    1    4    4    0    0 -0.22087524872E+02  0.59088417071E+02  0.35281627812E+02  0.72277887684E+02  0.00000000000E+00 0. -1.
          2    1    1    2  501    0 -0.36288929324E+02 -0.57136770506E+02 -0.11687293417E+03  0.13505843060E+03  0.00000000000E+00 0. -1.
<scales pt_clust_5="13000.00000" pt_clust_6="13000.00000" pt_clust_7="13000.00000" pt_clust_8="13000.00000" pt_clust_9="67.68679"></scales>
<clustering>
<clus scale="   67.687">  1  9  2 -1</clus>
<clus scale="   78.919">  5  6 -1 -1</clus>
<clus scale="   91.434">  7  8 -1 -1</clus>
<clus scale="  106.848">  2  5  1 -1</clus>
<clus scale="   67.687">  1  5  2 -1</clus>
</clustering>
</event>
<event>
 9    1  0.6270443E-005  0.1617407E+03  0.7546771E-02  0.1188447E+00
          1   -1    0    0  502    0 -0.00000000000E+00  0.00000000000E+00  0.47155159174E+03  0.47155159174E+03  0.00000000000E+00 0. -1.
         21   -1    0    0  501  502  0.00000000000E+00 -0.00000000000E+00 -0.12735542793E+03  0.12735542793E+03  0.00000000000E+00 0. -1.
         23    2    1    2    0    0 -0.35247435752E+02  0.12515523214E+03  0.29743715624E+03  0.33709707635E+03  0.90881038269E+02 0.  0.
        -24    2    1    2    0    0  0.54074876741E+02 -0.13209155182E+03  0.10894633985E+03  0.19646585895E+03  0.79732417563E+02 0.  0.
         11    1    4    4    0    0  0.58713572564E+02 -0.83340824258E+02  0.35024618284E+02  0.10779471451E+03  0.00000000000E+00 0. -1.
        -12    1    4    4    0    0 -0.46386958233E+01 -0.48750727563E+02  0.73921721565E+02  0.88671144439E+02  0.00000000000E+00 0.  1.
        -13    1    3    3    0    0 -0.14666045828E+02  0.12838468780E+03  0.20489495950E+03  0.24223886020E+03  0.00000000000E+00 0.  1.
         13    1    3    3    0    0 -0.20581389924E+02 -0.32294556633E+01  0.92542196738E+02  0.94858216155E+02  0.00000000000E+00 0. -1.
          2    1    1    2  501    0 -0.18827440989E+02  0.69363196851E+01 -0.62187332283E+02  0.65344084364E+02  0.00000000000E+00 0. -1.
<scales pt_clust_5="13000.00000" pt_clust_6="13000.00000" pt_clust_7="13000.00000" pt_clust_8="13000.00000" pt_clust_9="20.06452"></scales>
<clustering>
<clus scale="   20.065">  2  9  1 -1</clus>
<clus scale="   79.732">  5  6 -1 -1</clus>
<clus scale="   90.881">  7  8 -1 -1</clus>
<clus scale="  155.750">  2  5  1 -1</clus>
<clus scale="   20.065">  2  5  1 -1</clus>
</clustering>
</event>
<event>
 9    1  0.6270443E-005  0.2329824E+03  0.7546771E-02  0.1125164E+00
          1   -1    0    0  502    0 -0.00000000000E+00  0.00000000000E+00  0.10889784228E+04  0.10889784228E+04  0.00000000000E+00 0. -1.
         21   -1    0    0  501  502  0.00000000000E+00 -0.00000000000E+00 -0.74885052798E+02  0.74885052798E+02  0.00000000000E+00 0.  1.
         23    2    1    2    0    0  0.12777291786E+03  0.16115006647E+03  0.62225251087E+03  0.66171583749E+03  0.91511747001E+02 0.  0.
        -24    2    1    2    0    0 -0.18764234403E+03 -0.14705008777E+03  0.30564030924E+03  0.39625291496E+03  0.82261755412E+02 0.  0.
         11    1    4    4    0    0 -0.99871743953E+02 -0.33592447954E+02  0.16200022893E+03  0.19325343974E+03  0.00000000000E+00 0. -1.
        -12    1    4    4    0    0 -0.87770600074E+02 -0.11345763981E+03  0.14364008031E+03  0.20299947522E+03  0.00000000000E+00 0.  1.
        -11    1    3    3    0    0  0.53607012606E+02  0.13280436569E+03  0.44537882864E+03  0.46783866060E+03  0.00000000000E+00 0.  1.
         11    1    3    3    0    0  0.74165905255E+02  0.28345700780E+02  0.17687368223E+03  0.19387717689E+03  0.00000000000E+00 0. -1.
          2    1    1    2  501    0  0.59869426166E+02 -0.14099978705E+02  0.86200549944E+02  0.10589472319E+03  0.00000000000E+00 0. -1.
<scales pt_clust_5="13000.00000" pt_clust_6="13000.00000" pt_clust_7="13000.00000" pt_clust_8="13000.00000" pt_clust_9="61.50738"></scales>
<clustering>
<clus scale="   61.507">  2  9  1 -1</clus>
<clus scale="   82.262">  5  6 -1 -1</clus>
<clus scale="   91.512">  7  8 -1 -1</clus>
<clus scale="  229.507">  2  5  1 -1</clus>
<clus scale="   61.507">  2  5  1 -1</clus>
</clustering>
</event>
<event>
 9    1  0.6270443E-005  0.1063946E+03  0.7546771E-02  0.1273435E+00
         21   -1    0    0  501  502  0.00000000000E+00  0.00000000000E+00  0.44660583349E+02  0.44660583349E+02  0.00000000000E+00 0. -1.
         -4   -1    0    0    0  501 -0.00000000000E+00 -0.00000000000E+00 -0.61007543580E+03  0.61007543580E+03  0.00000000000E+00 0.  1.
         23    2    1    2    0    0 -0.41249388642E+02  0.35451318179E+01 -0.10882625348E+03  0.14885939305E+03  0.92746349953E+02 0.  0.
        -24    2    1    2    0    0  0.40603929435E+02 -0.63864607122E+02 -0.11399011745E+03  0.15800800828E+03  0.79027948714E+02 0.  0.
         13    1    4    4    0    0  0.45814801571E+02 -0.10978954678E+02 -0.85723096974E+02  0.97816066388E+02  0.00000000000E+00 0. -1.
        -14    1    4    4    0    0 -0.52108721360E+01 -0.52885652444E+02 -0.28267020473E+02  0.60191941896E+02  0.00000000000E+00 0.  1.
        -13    1    3    3    0    0 -0.50398482302E+02 -0.32445277455E+02 -0.44755345724E+02  0.74804705856E+02  0.00000000000E+00 0. -1.
         13    1    3    3    0    0  0.91490936596E+01  0.35990409273E+02 -0.64070907760E+02  0.74054687195E+02  0.00000000000E+00 0.  1.
         -3    1    1    2    0  502  0.64545920661E+00  0.60319475304E+02 -0.34259848152E+03  0.34786861781E+03  0.00000000000E+00 0.  1.
<scales pt_clust_5="13000.00000" pt_clust_6="13000.00000" pt_clust_7="13000.00000" pt_clust_8="13000.00000" pt_clust_9="60.32296"></scales>
<clustering>
<clus scale="   60.323">  1  9  2 -1</clus>
<clus scale="   79.028">  5  6 -1 -1</clus>
<clus scale="   92.746">  7  8 -1 -1</clus>
<clus scale="   94.675">  1  5  2 -1</clus>
<clus scale="   60.323">  1  5  2 -1</clus>
</clustering>
</event>
<event>
 9    1  0.6270443E-005  0.1315942E+03  0.7546771E-02  0.1226716E+00
         21   -1    0    0  501  502  0.00000000000E+00  0.00000000000E+00  0.32249110663E+03  0.32249110663E+03  0.00000000000E+00 0.  1.
          1   -1    0    0  502    0 -0.00000000000E+00 -0.00000000000E+00 -0.87176951041E+02  0.87176951041E+02  0.00000000000E+00 0. -1.
         23    2    1    2    0    0  0.37386451102E+02  0.10194477633E+03  0.18279525836E+02  0.14060443629E+03  0.87435589389E+02 0.  0.
        -24    2    1    2    0    0 -0.42275277571E+01 -0.81476905993E+02  0.12842781882E+03  0.17226685048E+03  0.80782454318E+02 0.  0.
         11    1    4    4    0    0  0.64068929013E+00 -0.45146540006E+02  0.12787017171E+03  0.13560752697E+03  0.00000000000E+00 0. -1.
        -12    1    4    4    0    0 -0.48682170473E+01 -0.36330365987E+02  0.55764711029E+00  0.36659323510E+02  0.00000000000E+00 0.  1.
        -11    1    3    3    0    0 -0.49643727599E+01  0.83327685479E+02  0.36207743286E+02  0.90989828212E+02  0.00000000000E+00 0.  1.
         11    1    3    3    0    0  0.42350823862E+02  0.18617090854E+02 -0.17928217450E+02  0.49614608077E+02  0.00000000000E+00 0. -1.
          2    1    1    2  501    0 -0.33158923345E+02 -0.20467870340E+02  0.88606810931E+02  0.96796770902E+02  0.00000000000E+00 0. -1.
<scales pt_clust_5="13000.00000" pt_clust_6="13000.00000" pt_clust_7="13000.00000" pt_clust_8="13000.00000" pt_clust_9="38.96727"></scales>
<clustering>
<clus scale="   38.967">  1  9  2 -1</clus>
<clus scale="   80.782">  5  6 -1 -1</clus>
<clus scale="   87.436">  7  8 -1 -1</clus>
<clus scale="  127.271">  1  5  2 -1</clus>
<clus scale="   38.967">  1  5  2 -1</clus>
</clustering>
</event>
<event>
 9    1  0.6270443E-005  0.1619269E+03  0.7546771E-02  0.1188431E+00
         21   -1    0    0  501  502  0.00000000000E+00  0.00000000000E+00  0.14286150934E+03  0.14286150934E+03  0.00000000000E+00 0.  1.
          1   -1    0    0  502    0 -0.00000000000E+00 -0.00000000000E+00 -0.85078399784E+03  0.85078399784E+03  0.00000000000E+00 0. -1.
        -24    2    1    2    0    0 -0.11736884272E+03  0.57232785039E+02 -0.48766288825E+03  0.51161616734E+03  0.82975738514E+02 0.  0.
         23    2    1    2    0    0  0.83463061914E+02 -0.13792196197E+03  0.53559251789E+02  0.19456263051E+03  0.94855012732E+02 0.  0.
         11    1    3    3    0    0 -0.60376830299E+02 -0.15394338093E+02 -0.18823129202E+03  0.19827598589E+03  0.00000000000E+00 0. -1.
        -12    1    3    3    0    0 -0.56992012417E+02  0.72627123132E+02 -0.29943159623E+03  0.31334018145E+03  0.00000000000E+00 0.  1.
        -13    1    4    4    0    0  0.20465572294E+02 -0.12201366953E+01  0.38081481883E+02  0.43249597053E+02  0.00000000000E+00 0. -1.
         13    1    4    4    0    0  0.62997489620E+02 -0.13670182528E+03  0.15477769906E+02  0.15131303346E+03  0.00000000000E+00 0.  1.
          2    1    1    2  501    0  0.33905780802E+02  0.80689176934E+02 -0.27381885203E+03  0.28746670933E+03  0.00000000000E+00 0. -1.
<scales pt_clust_5="13000.00000" pt_clust_6="13000.00000" pt_clust_7="13000.00000" pt_clust_8="13000.00000" pt_clust_9="87.52344"></scales>
<clustering>
<clus scale="   82.976">  5  6 -1 -1</clus>
<clus scale="   87.523">  1  9  2 -1</clus>
<clus scale="   94.855">  7  8 -1 -1</clus>
<clus scale="  155.267">  2  5  1 -1</clus>
<clus scale="   87.523">  1  5  2 -1</clus>
</clustering>
</event>
<event>
 9    1  0.6270443E-005  0.1299658E+03  0.7546771E-02  0.1230024E+00
         21   -1    0    0  501  502  0.00000000000E+00  0.00000000000E+00  0.19812151444E+03  0.19812151444E+03  0.00000000000E+00 0. -1.
          1   -1    0    0  502    0 -0.00000000000E+00 -0.00000000000E+00 -0.11909595184E+03  0.11909595184E+03  0.00000000000E+00 0. -1.
         23    2    1    2    0    0  0.10055231504E+03 -0.31932203637E+02 -0.46479192331E+01  0.13933161439E+03  0.90891484337E+02 0.  0.
        -24    2    1    2    0    0 -0.79039712391E+02  0.93355303033E+01  0.32999338255E+02  0.11837727648E+03  0.81177552325E+02 0.  0.
         11    1    4    4    0    0 -0.37887713068E+02 -0.35670347725E+02  0.88408441307E+01  0.52782696343E+02  0.00000000000E+00 0. -1.
        -12    1    4    4    0    0 -0.41151999323E+02  0.45005878028E+02  0.24158494124E+02  0.65594580140E+02  0.00000000000E+00 0.  1.
        -13    1    3    3    0    0  0.10923758856E+03 -0.11640648135E+02  0.13597827012E+02  0.11069442778E+03  0.00000000000E+00 0. -1.
         13    1    3    3    0    0 -0.86852735125E+01 -0.20291555502E+02 -0.18245746245E+02  0.28637186606E+02  0.00000000000E+00 0.  1.
          2    1    1    2  501    0 -0.21512602653E+02  0.22596673334E+02  0.50674143580E+02  0.59508575401E+02  0.00000000000E+00 0. -1.
<scales pt_clust_5="13000.00000" pt_clust_6="13000.00000" pt_clust_7="13000.00000" pt_clust_8="13000.00000" pt_clust_9="31.19939"></scales>
<clustering>
<clus scale="   31.199">  1  9  2 -1</clus>
<clus scale="   81.178">  5  6 -1 -1</clus>
<clus scale="   90.891">  7  8 -1 -1</clus>
<clus scale="  123.368">  1  5  2 -1</clus>
<clus scale="   31.199">  1  5  2 -1</clus>
</clustering>
</event>
<event>
 9    1  0.6270443E-005  0.1382906E+03  0.7546771E-02  0.1217893E+00
         21   -1    0    0  501  502  0.00000000000E+00  0.00000000000E+00  0.37449483916E+02  0.37449483916E+02  0.00000000000E+00 0.  1.
          3   -1    0    0  502    0 -0.00000000000E+00 -0.00000000000E+00 -0.71234375073E+03  0.71234375073E+03  0.00000000000E+00 0. -1.
         23    2    1    2    0    0 -0.10177605638E+03 -0.11045184116E+02 -0.42905276243E+03  0.45028790287E+03  0.90512765838E+02 0.  0.
        -24    2    1    2    0    0  0.11074028981E+03 -0.71034773406E+01 -0.15700957076E+03  0.20839636500E+03  0.80393833477E+02 0.  0.
         11    1    4    4    0    0  0.19242085550E+02  0.31206190391E+02 -0.55091913544E+02  0.66175547697E+02  0.00000000000E+00 0. -1.
        -12    1    4    4    0    0  0.91498204257E+02 -0.38309667732E+02 -0.10191765721E+03  0.14222081731E+03  0.00000000000E+00 0.  1.
        -13    1    3    3    0    0 -0.81889917131E+01  0.32433053356E+02 -0.10661482350E+03  0.11173935352E+03  0.00000000000E+00 0.  1.
         13    1    3    3    0    0 -0.93587064662E+02 -0.43478237472E+02 -0.32243793893E+03  0.33854854935E+03  0.00000000000E+00 0. -1.
          4    1    1    2  501    0 -0.89642334320E+01  0.18148661457E+02 -0.88831933629E+02  0.91108966771E+02  0.00000000000E+00 0. -1.
<scales pt_clust_5="13000.00000" pt_clust_6="13000.00000" pt_clust_7="13000.00000" pt_clust_8="13000.00000" pt_clust_9="20.24183"></scales>
<clustering>
<clus scale="   20.242">  1  9  2 -1</clus>
<clus scale="   80.394">  5  6 -1 -1</clus>
<clus scale="   90.513">  7  8 -1 -1</clus>
<clus scale="  131.890">  1  5  2 -1</clus>
<clus scale="   20.242">  1  5  2 -1</clus>
</clustering>
</event>
<event>
 9    1  0.6270443E-005  0.5330103E+03  0.7546771E-02  0.1054544E+00
          1   -1    0    0  502    0 -0.00000000000E+00  0.00000000000E+00  0.33632642612E+03  0.33632642612E+03  0.00000000000E+00 0. -1.
         21   -1    0    0  501  502  0.00000000000E+00 -0.00000000000E+00 -0.22105065050E+04  0.22105065050E+04  0.00000000000E+00 0. -1.
        -24    2    1    2    0    0  0.14371064035E+01 -0.85786875629E+02  0.17270003820E+03  0.21277457640E+03  0.89923655746E+02 0.  0.
         23    2    1    2    0    0  0.33562127394E+03 -0.37417802350E+03 -0.12817140011E+04  0.13797757732E+04  0.91321252302E+02 0.  0.
         11    1    3    3    0    0 -0.27803259660E+02 -0.28721697524E+01  0.13797917561E+02  0.31171351204E+02  0.00000000000E+00 0. -1.
        -12    1    3    3    0    0  0.29240366064E+02 -0.82914705877E+02  0.15890212064E+03  0.18160322520E+03  0.00000000000E+00 0.  1.
        -13    1    4    4    0    0  0.28104419393E+02 -0.20459943465E+02 -0.42630717904E+02  0.55007688417E+02  0.00000000000E+00 0.  1.
         13    1    4    4    0    0  0.30751685455E+03 -0.35371808003E+03 -0.12390832832E+04  0.13247680848E+04  0.00000000000E+00 0. -1.
          2    1    1    2  501    0 -0.33705838034E+03  0.45996489913E+03 -0.76516611599E+03  0.95428258144E+03  0.00000000000E+00 0. -1.
<scales pt_clust_5="13000.00000" pt_clust_6="13000.00000" pt_clust_7="13000.00000" pt_clust_8="13000.00000" pt_clust_9="525.12922"></scales>
<clustering>
<clus scale="   89.924">  5  6 -1 -1</clus>
<clus scale="   91.321">  7  8 -1 -1</clus>
<clus scale="  124.289">  1  5  2 -1</clus>
<clus scale="  525.129">  2  9  1 -1</clus>
<clus scale="  525.129">  2  5  1 -1</clus>
</clustering>
</event>
<event>
 9    1  0.6270443E-005  0.1089728E+03  0.7546771E-02  0.1270571E+00
         -2   -1    0    0    0  501 -0.00000000000E+00  0.00000000000E+00  0.28300484605E+02  0.28300484605E+02  0.00000000000E+00 0.  1.
         21   -1    0    0  501  502  0.00000000000E+00 -0.00000000000E+00 -0.69560116726E+03  0.69560116726E+03  0.00000000000E+00 0.  1.
        -24    2    1    2    0    0  0.66226483624E+02  0.27712268097E+02 -0.21566468358E+03  0.23874002763E+03  0.73017998544E+02 0.  0.
         23    2    1    2    0    0 -0.87792168234E+01 -0.53257347728E+02 -0.34665492335E+03  0.36279428457E+03  0.92393924590E+02 0.  0.
         11    1    3    3    0    0 -0.92704540550E+01  0.25067043923E+02 -0.51217900406E+02  0.57771717401E+02  0.00000000000E+00 0. -1.
        -12    1    3    3    0    0  0.75496937679E+02  0.26452241734E+01 -0.16444678317E+03  0.18096831022E+03  0.00000000000E+00 0.  1.
        -13    1    4    4    0    0 -0.41484615055E+02 -0.87986817729E+00 -0.18847907425E+03  0.19299250992E+03  0.00000000000E+00 0.  1.
         13    1    4    4    0    0  0.32705398232E+02 -0.52377479551E+02 -0.15817584910E+03  0.16980177465E+03  0.00000000000E+00 0. -1.
         -1    1    1    2    0  502 -0.57447266801E+02  0.25545079631E+02 -0.10498107573E+03  0.12236733967E+03  0.00000000000E+00 0.  1.
<scales pt_clust_5="13000.00000" pt_clust_6="13000.00000" pt_clust_7="13000.00000" pt_clust_8="13000.00000" pt_clust_9="62.87085"></scales>
<clustering>
<clus scale="   62.871">  2  9  1 -1</clus>
<clus scale="   73.018">  5  6 -1 -1</clus>
<clus scale="   92.394">  7  8 -1 -1</clus>
<clus scale="   93.113">  1  5  2 -1</clus>
<clus scale="   62.871">  2  5  1 -1</clus>
</clustering>
</event>
<event>
 9    1  0.6270443E-005  0.1010035E+03  0.7546771E-02  0.1283625E+00
         21   -1    0    0  501  502  0.00000000000E+00  0.00000000000E+00  0.21428745888E+03  0.21428745888E+03  0.00000000000E+00 0.  1.
          3   -1    0    0  502    0 -0.00000000000E+00 -0.00000000000E+00 -0.11141234304E+03  0.11141234304E+03  0.00000000000E+00 0. -1.
         23    2    1    2    0    0 -0.42753687144E+02 -0.46757986370E+02  0.18586460405E+01  0.11137602524E+03  0.91580442126E+02 0.  0.
        -24    2    1    2    0    0  0.15730301303E+02 -0.22347642267E+02  0.11058650422E+03  0.13950775667E+03  0.80536822401E+02 0.  0.
         11    1    4    4    0    0  0.15322816920E+02  0.29475934822E+02  0.43578364949E+02  0.54796836986E+02  0.00000000000E+00 0. -1.
        -12    1    4    4    0    0  0.40748438319E+00 -0.51823577089E+02  0.67008139268E+02  0.84710919686E+02  0.00000000000E+00 0.  1.
        -13    1    3    3    0    0 -0.49960337085E+02  0.60296840887E+01 -0.19510829735E+02  0.53972815831E+02  0.00000000000E+00 0. -1.
         13    1    3    3    0    0  0.72066499402E+01 -0.52787670459E+02  0.21369475775E+02  0.57403209412E+02  0.00000000000E+00 0.  1.
          4    1    1    2  501    0  0.27023385841E+02  0.69105628638E+02 -0.95700344161E+01  0.74816020012E+02  0.00000000000E+00 0. -1.
<scales pt_clust_5="13000.00000" pt_clust_6="13000.00000" pt_clust_7="13000.00000" pt_clust_8="13000.00000" pt_clust_9="74.20146"></scales>
<clustering>
<clus scale="   74.201">  1  9  2 -1</clus>
<clus scale="   80.537">  5  6 -1 -1</clus>
<clus scale="   91.109">  1  5  2 -1</clus>
<clus scale="   91.580">  7  8 -1 -1</clus>
<clus scale="   74.201">  1  5  2 -1</clus>
</clustering>
</event>
<event>
 9    1  0.6270443E-005  0.1018374E+03  0.7546771E-02  0.1282367E+00
          1   -1    0    0  502    0 -0.00000000000E+00  0.00000000000E+00  0.13320649728E+03  0.13320649728E+03  0.00000000000E+00 0. -1.
         21   -1    0    0  501  502  0.00000000000E+00 -0.00000000000E+00 -0.20321706942E+03  0.20321706942E+03  0.00000000000E+00 0.  1.
         23    2    1    2    0    0  0.38165766595E+02  0.11552018591E+02  0.75679519814E+02  0.12565025104E+03  0.92035433361E+02 0.  0.
        -24    2    1    2    0    0 -0.46885083366E+02 -0.32136960547E+02 -0.45483296845E+02  0.10810312473E+03  0.79915955904E+02 0.  0.
         11    1    4    4    0    0 -0.29365790671E+02 -0.64165574554E+01  0.19653834164E+02  0.35913716999E+02  0.00000000000E+00 0. -1.
        -12    1    4    4    0    0 -0.17519292695E+02 -0.25720403091E+02 -0.65137131009E+02  0.72189407726E+02  0.00000000000E+00 0.  1.
        -13    1    3    3    0    0  0.10346334513E+02  0.38228051914E+02 -0.12310430653E+01  0.39622544820E+02  0.00000000000E+00 0.  1.
         13    1    3    3    0    0  0.27819432081E+02 -0.26676033323E+02  0.76910562879E+02  0.86027706221E+02  0.00000000000E+00 0. -1.
          2    1    1    2  501    0  0.87193167712E+01  0.20584941956E+02 -0.10020679511E+03  0.10267019093E+03  0.00000000000E+00 0. -1.
<scales pt_clust_5="13000.00000" pt_clust_6="13000.00000" pt_clust_7="13000.00000" pt_clust_8="13000.00000" pt_clust_9="22.35545"></scales>
<clustering>
<clus scale="   22.355">  2  9  1 -1</clus>
<clus scale="   79.916">  5  6 -1 -1</clus>
<clus scale="   91.032">  2  5  1 -1</clus>
<clus scale="   92.035">  7  8 -1 -1</clus>
<clus scale="   22.355">  2  5  1 -1</clus>
</clustering>
</event>
<event>
 9    1  0.6270443E-005  0.9657828E+02  0.7546771E-02  0.1293406E+00
         -4   -1    0    0    0  501 -0.00000000000E+00  0.00000000000E+00  0.29856578421E+03  0.29856578421E+03  0.00000000000E+00 0.  1.
         21   -1    0    0  501  502  0.00000000000E+00 -0.00000000000E+00 -0.80229047430E+02  0.80229047430E+02  0.00000000000E+00 0. -1.
        -24    2    1    2    0    0  0.32526977321E+02 -0.30629886600E+02  0.99454487925E+02  0.13435049063E+03  0.78502643000E+02 0.  0.
         23    2    1    2    0    0  0.44072741475E+02  0.46001108869E+02  0.95645774601E+01  0.11007862859E+03  0.89259816112E+02 0.  0.
         13    1    3    3    0    0 -0.22651911084E+02  0.16413121615E+00  0.98393210309E+01  0.24697130464E+02  0.00000000000E+00 0. -1.
        -14    1    3    3    0    0  0.55178888405E+02 -0.30794017816E+02  0.89615166894E+02  0.10965336017E+03  0.00000000000E+00 0.  1.
        -13    1    4    4    0    0  0.66292800673E+02  0.15092182696E+02 -0.74233786824E+01  0.68393098706E+02  0.00000000000E+00 0. -1.
         13    1    4    4    0    0 -0.22220059198E+02  0.30908926173E+02  0.16987956142E+02  0.41685529885E+02  0.00000000000E+00 0.  1.
         -3    1    1    2    0  502 -0.76599718796E+02 -0.15371222269E+02  0.10931767139E+03  0.13436571241E+03  0.00000000000E+00 0.  1.
<scales pt_clust_5="13000.00000" pt_clust_6="13000.00000" pt_clust_7="13000.00000" pt_clust_8="13000.00000" pt_clust_9="78.12680"></scales>
<clustering>
<clus scale="   78.127">  2  9  1 -1</clus>
<clus scale="   78.503">  5  6 -1 -1</clus>
<clus scale="   86.734">  1  5  2 -1</clus>
<clus scale="   89.260">  7  8 -1 -1</clus>
<clus scale="   78.127">  2  5  1 -1</clus>
</clustering>
</event>
<event>
 9    1  0.6270443E-005  0.1237274E+03  0.7546771E-02  0.1251404E+00
         21   -1    0    0  501  502  0.00000000000E+00  0.00000000000E+00  0.68921784106E+03  0.68921784106E+03  0.00000000000E+00 0.  1.
          1   -1    0    0  502    0 -0.00000000000E+00 -0.00000000000E+00 -0.47309468693E+02  0.47309468693E+02  0.00000000000E+00 0. -1.
         23    2    1    2    0    0  0.24379131396E+01 -0.21986238609E+02  0.52642208871E+02  0.10657665023E+03  0.89989122182E+02 0.  0.
        -24    2    1    2    0    0  0.90094432108E+02  0.34592276648E+02  0.39481430767E+03  0.41423633143E+03  0.79998552684E+02 0.  0.
         11    1    4    4    0    0  0.62672078743E+02 -0.14221219999E+02  0.15156679065E+03  0.16462844402E+03  0.00000000000E+00 0. -1.
        -12    1    4    4    0    0  0.27422353365E+02  0.48813496648E+02  0.24324751702E+03  0.24960788741E+03  0.00000000000E+00 0.  1.
        -13    1    3    3    0    0 -0.30325329125E+02 -0.41870928390E+02  0.42516682317E+02  0.66936301855E+02  0.00000000000E+00 0. -1.
         13    1    3    3    0    0  0.32763242265E+02  0.19884689781E+02  0.10125526554E+02  0.39640348376E+02  0.00000000000E+00 0.  1.
          2    1    1    2  501    0 -0.92532345248E+02 -0.12606038039E+02  0.19445185583E+03  0.21571432810E+03  0.00000000000E+00 0. -1.
<scales pt_clust_5="13000.00000" pt_clust_6="13000.00000" pt_clust_7="13000.00000" pt_clust_8="13000.00000" pt_clust_9="94.38599"></scales>
<clustering>
<clus scale="   79.999">  5  6 -1 -1</clus>
<clus scale="   89.989">  7  8 -1 -1</clus>
<clus scale="   92.668">  2  7  1 -1</clus>
<clus scale="   94.386">  1  9  2 -1</clus>
<clus scale="   94.386">  1  5  2 -1</clus>
</clustering>
</event>
<event>
 9    1  0.6270443E-005  0.1815547E+03  0.7546771E-02  0.1167872E+00
         21   -1    0    0  501  502  0.00000000000E+00  0.00000000000E+00  0.15373152010E+03  0.15373152010E+03  0.00000000000E+00 0. -1.
          1   -1    0    0  502    0 -0.00000000000E+00 -0.00000000000E+00 -0.33874886994E+03  0.33874886994E+03  0.00000000000E+00 0. -1.
        -24    2    1    2    0    0 -0.14083475575E+03 -0.46556870788E+02 -0.16253523587E+03  0.23503741850E+03  0.82600935525E+02 0.  0.
         23    2    1    2    0    0  0.16991022355E+03  0.38032585354E+02  0.26013806343E+02  0.20025992723E+03  0.95453437437E+02 0.  0.
         13    1    3    3    0    0 -0.44283366070E+02  0.17999936516E+02 -0.21724523328E+02  0.52506848496E+02  0.00000000000E+00 0. -1.
        -14    1    3    3    0    0 -0.96551389678E+02 -0.64556807304E+02 -0.14081071254E+03  0.18253057000E+03  0.00000000000E+00 0.  1.
        -11    1    4    4    0    0  0.97692705697E+02 -0.26232443546E+02  0.46747208632E+01  0.10126133939E+03  0.00000000000E+00 0.  1.
         11    1    4    4    0    0  0.72217517852E+02  0.64265028900E+02  0.21339085480E+02  0.98998587835E+02  0.00000000000E+00 0. -1.
          2    1    1    2  501    0 -0.29075467800E+02  0.85242854340E+01 -0.48495920308E+02  0.57183044309E+02  0.00000000000E+00 0. -1.
<scales pt_clust_5="13000.00000" pt_clust_6="13000.00000" pt_clust_7="13000.00000" pt_clust_8="13000.00000" pt_clust_9="30.29929"></scales>
<clustering>
<clus scale="   30.299">  1  9  2 -1</clus>
<clus scale="   82.601">  5  6 -1 -1</clus>
<clus scale="   95.453">  7  8 -1 -1</clus>
<clus scale="  175.139">  2  5  1 -1</clus>
<clus scale="   30.299">  1  5  2 -1</clus>
</clustering>
</event>
<event>
 9    1  0.6270443E-005  0.1196816E+03  0.7546771E-02  0.1246772E+00
         21   -1    0    0  501  502  0.00000000000E+00  0.00000000000E+00  0.76787027704E+03  0.76787027704E+03  0.00000000000E+00 0. -1.
         -2   -1    0    0    0  501 -0.00000000000E+00 -0.00000000000E+00 -0.29440398920E+02  0.29440398920E+02  0.00000000000E+00 0.  1.
        -24    2    1    2    0    0  0.26940761906E+02  0.63460316235E+02  0.25675910318E+03  0.27782893517E+03  0.80688684253E+02 0.  0.
         23    2    1    2    0    0  0.20242379562E+02 -0.97879969315E+02  0.36173708164E+03  0.38608364430E+03  0.90645583676E+02 0.  0.
         11    1    3    3    0    0 -0.25262988101E+02  0.37778783121E+02  0.14312554555E+03  0.15016782881E+03  0.00000000000E+00 0. -1.
        -12    1    3    3    0    0  0.52203750006E+02  0.25681533114E+02  0.11363355763E+03  0.12766110636E+03  0.00000000000E+00 0.  1.
        -11    1    4    4    0    0 -0.23873961980E+02 -0.85601628946E+02  0.22689856331E+03  0.24368127333E+03  0.00000000000E+00 0. -1.
         11    1    4    4    0    0  0.44116341542E+02 -0.12278340369E+02  0.13483851832E+03  0.14240237097E+03  0.00000000000E+00 0.  1.
         -1    1    1    2    0  502 -0.47183141468E+02  0.34419653079E+02  0.11993369330E+03  0.13339809649E+03  0.00000000000E+00 0.  1.
<scales pt_clust_5="13000.00000" pt_clust_6="13000.00000" pt_clust_7="13000.00000" pt_clust_8="13000.00000" pt_clust_9="58.40347"></scales>
<clustering>
<clus scale="   58.403">  1  9  2 -1</clus>
<clus scale="   80.689">  5  6 -1 -1</clus>
<clus scale="   90.646">  7  8 -1 -1</clus>
<clus scale="  112.329">  2  5  1 -1</clus>
<clus scale="   58.403">  1  5  2 -1</clus>
</clustering>
</event>
<event>
 9    1  0.6270443E-005  0.3863838E+03  0.7546771E-02  0.1062749E+00
         21   -1    0    0  501  502  0.00000000000E+00  0.00000000000E+00  0.16240564517E+03  0.16240564517E+03  0.00000000000E+00 0. -1.
         -2   -1    0    0    0  501 -0.00000000000E+00 -0.00000000000E+00 -0.20663827771E+04  0.20663827771E+04  0.00000000000E+00 0.  1.
         23    2    1    2    0    0  0.38224751527E+01 -0.24260427753E+03 -0.79125832706E+03  0.83262431349E+03  0.91115643487E+02 0.  0.
        -24    2    1    2    0    0 -0.37046107956E+03  0.18217010619E+01 -0.34766641993E+03  0.51428811575E+03  0.79847331783E+02 0.  0.
         11    1    4    4    0    0 -0.23634687293E+03 -0.35556037469E+02 -0.20400874150E+03  0.31423501198E+03  0.00000000000E+00 0. -1.
        -12    1    4    4    0    0 -0.13411420663E+03  0.37377738531E+02 -0.14365767842E+03  0.20005310377E+03  0.00000000000E+00 0.  1.
        -11    1    3    3    0    0  0.37102167252E+02 -0.18598716772E+03 -0.64487003046E+03  0.67217940578E+03  0.00000000000E+00 0.  1.
         11    1    3    3    0    0 -0.33279692099E+02 -0.56617109811E+02 -0.14638829660E+03  0.16044490771E+03  0.00000000000E+00 0. -1.
         -1    1    1    2    0  502  0.36663860441E+03  0.24078257647E+03 -0.76505238493E+03  0.88187599302E+03  0.00000000000E+00 0.  1.
<scales pt_clust_5="13000.00000" pt_clust_6="13000.00000" pt_clust_7="13000.00000" pt_clust_8="13000.00000" pt_clust_9="378.04368"></scales>
<clustering>
<clus scale="   79.847">  5  6 -1 -1</clus>
<clus scale="   91.116">  7  8 -1 -1</clus>
<clus scale="  259.179">  2  7  1 -1</clus>
<clus scale="  378.044">  1  9  2 -1</clus>
<clus scale="  378.044">  1  5  2 -1</clus>
</clustering>
</event>
<event>
 9    1  0.6270443E-005  0.1381894E+03  0.7546771E-02  0.1218398E+00
         21   -1    0    0  501  502  0.00000000000E+00  0.00000000000E+00  0.63075963215E+03  0.63075963215E+03  0.00000000000E+00 0.  1.
          1   -1    0    0  502    0 -0.00000000000E+00 -0.00000000000E+00 -0.21344706652E+03  0.21344706652E+03  0.00000000000E+00 0. -1.
         23    2    1    2    0    0  0.96983891577E+02  0.68195519295E+02  0.29445773841E+03  0.33063552931E+03  0.92509401967E+02 0.  0.
        -24    2    1    2    0    0 -0.21497452764E+02 -0.99604890506E+02  0.29530071617E+03  0.32272480271E+03  0.81027838575E+02 0.  0.
         11    1    4    4    0    0  0.17848189915E+02 -0.47686459070E+02  0.60599388691E+02  0.79150755977E+02  0.00000000000E+00 0. -1.
        -12    1    4    4    0    0 -0.39345642679E+02 -0.51918431436E+02  0.23470132748E+03  0.24357404674E+03  0.00000000000E+00 0.  1.
        -11    1    3    3    0    0  0.27400995858E+02  0.72359760710E+01  0.77616130316E+01  0.29383950731E+02  0.00000000000E+00 0. -1.
         11    1    3    3    0    0  0.69582895720E+02  0.60959543224E+02  0.28669612538E+03  0.30125157858E+03  0.00000000000E+00 0.  1.
          2    1    1    2  501    0 -0.75486438813E+02  0.31409371211E+02 -0.17244588896E+03  0.19084636665E+03  0.00000000000E+00 0. -1.
<scales pt_clust_5="13000.00000" pt_clust_6="13000.00000" pt_clust_7="13000.00000" pt_clust_8="13000.00000" pt_clust_9="81.76037"></scales>
<clustering>
<clus scale="   81.028">  5  6 -1 -1</clus>
<clus scale="   81.760">  1  9  2 -1</clus>
<clus scale="   92.509">  7  8 -1 -1</clus>
<clus scale="  130.782">  1  5  2 -1</clus>
<clus scale="   81.760">  1  5  2 -1</clus>
</clustering>
</event>
<event>
 9    1  0.6270443E-005  0.2287432E+03  0.7546771E-02  0.1128197E+00
         -4   -1    0    0    0  501 -0.00000000000E+00  0.00000000000E+00  0.97568336521E+03  0.97568336521E+03  0.00000000000E+00 0.  1.
         21   -1    0    0  501  502  0.00000000000E+00 -0.00000000000E+00 -0.94174856467E+02  0.94174856467E+02  0.00000000000E+00 0.  1.
         23    2    1    2    0    0  0.18575728595E+03 -0.94574337668E+02  0.62121607916E+03  0.66140999460E+03  0.90020493888E+02 0.  0.
        -24    2    1    2    0    0 -0.15420189574E+03  0.16362217807E+03  0.20356763814E+03  0.31367983109E+03  0.80030065141E+02 0.  0.
         11    1    4    4    0    0 -0.61499016910E+02  0.91889269499E+02  0.52307104016E+02  0.12231843712E+03  0.00000000000E+00 0. -1.
        -12    1    4    4    0    0 -0.92702878834E+02  0.71732908568E+02  0.15126053413E+03  0.19136139396E+03  0.00000000000E+00 0.  1.
        -11    1    3    3    0    0  0.34668004698E+02 -0.46247078977E+02  0.26871180939E+03  0.27485759834E+03  0.00000000000E+00 0. -1.
         11    1    3    3    0    0  0.15108928125E+03 -0.48327258691E+02  0.35250426977E+03  0.38655239625E+03  0.00000000000E+00 0.  1.
         -3    1    1    2    0  502 -0.31555390207E+02 -0.69047840400E+02  0.56724791449E+02  0.94768395997E+02  0.00000000000E+00 0.  1.
<scales pt_clust_5="13000.00000" pt_clust_6="13000.00000" pt_clust_7="13000.00000" pt_clust_8="13000.00000" pt_clust_9="75.91671"></scales>
<clustering>
<clus scale="   75.917">  2  9  1 -1</clus>
<clus scale="   80.030">  5  6 -1 -1</clus>
<clus scale="   90.020">  7  8 -1 -1</clus>
<clus scale="  224.999">  2  5  1 -1</clus>
<clus scale="   75.917">  2  5  1 -1</clus>
</clustering>
</event>
<event>
 9    1  0.6270443E-005  0.1586953E+03  0.7546771E-02  0.1191685E+00
         21   -1    0    0  501  502  0.00000000000E+00  0.00000000000E+00  0.39018846052E+03  0.39018846052E+03  0.00000000000E+00 0.  1.
         -2   -1    0    0    0  501 -0.00000000000E+00 -0.00000000000E+00 -0.26942354094E+03  0.26942354094E+03  0.00000000000E+00 0.  1.
         23    2    1    2    0    0  0.75378502710E+02  0.10365437509E+03 -0.18288624342E+03  0.24085120846E+03  0.90198550093E+02 0.  0.
        -24    2    1    2    0    0 -0.10533987167E+03 -0.96269456173E+02  0.62211281450E+02  0.17535693712E+03  0.80718740713E+02 0.  0.
         11    1    4    4    0    0 -0.75504087347E+01 -0.23658323161E+02  0.46277040772E+02  0.52519419546E+02  0.00000000000E+00 0. -1.
        -12    1    4    4    0    0 -0.97789462937E+02 -0.72611133012E+02  0.15934240678E+02  0.12283751758E+03  0.00000000000E+00 0.  1.
        -13    1    3    3    0    0 -0.10116533581E+02  0.45284014340E+02 -0.92239941644E+02  0.10325305342E+03  0.00000000000E+00 0. -1.
         13    1    3    3    0    0  0.85495036291E+02  0.58370360753E+02 -0.90646301774E+02  0.13759815504E+03  0.00000000000E+00 0.  1.
         -1    1    1    2    0  502  0.29961368962E+02 -0.73849189191E+01  0.24143988154E+03  0.24340385588E+03  0.00000000000E+00 0.  1.
<scales pt_clust_5="13000.00000" pt_clust_6="13000.00000" pt_clust_7="13000.00000" pt_clust_8="13000.00000" pt_clust_9="30.85807"></scales>
<clustering>
<clus scale="   30.858">  1  9  2 -1</clus>
<clus scale="   80.719">  5  6 -1 -1</clus>
<clus scale="   90.199">  7  8 -1 -1</clus>
<clus scale="  153.506">  1  5  2 -1</clus>
<clus scale="   30.858">  1  5  2 -1</clus>
</clustering>
</event>
<event>
 9    1  0.6270443E-005  0.1188077E+03  0.7546771E-02  0.1261929E+00
         21   -1    0    0  501  502  0.00000000000E+00  0.00000000000E+00  0.48235821598E+02  0.48235821598E+02  0.00000000000E+00 0. -1.
         -2   -1    0    0    0  501 -0.00000000000E+00 -0.00000000000E+00 -0.60355374055E+03  0.60355374055E+03  0.00000000000E+00 0.  1.
         23    2    1    2    0    0 -0.25437758852E+02 -0.22247369673E+01 -0.50467850468E+03  0.51829584771E+03  0.11523091439E+03 0.  0.
        -24    2    1    2    0    0  0.43627376667E+02 -0.20797874239E+02 -0.44720129608E+02  0.10356144500E+03  0.79932367226E+02 0.  0.
         11    1    4    4    0    0  0.62286047040E+02 -0.29301024315E+02 -0.20488483794E+02  0.71818379611E+02  0.00000000000E+00 0. -1.
        -12    1    4    4    0    0 -0.18658670373E+02  0.85031500762E+01 -0.24231645814E+02  0.31743065387E+02  0.00000000000E+00 0.  1.
        -11    1    3    3    0    0  0.18611812240E+02 -0.49747086805E+02 -0.21606102361E+03  0.22249390582E+03  0.00000000000E+00 0. -1.
         11    1    3    3    0    0 -0.44049571092E+02  0.47522349837E+02 -0.28861748107E+03  0.29580194189E+03  0.00000000000E+00 0.  1.
         -1    1    1    2    0  502 -0.18189617815E+02  0.23022611206E+02 -0.59192846596E+01  0.29932269441E+02  0.00000000000E+00 0.  1.
<scales pt_clust_5="13000.00000" pt_clust_6="13000.00000" pt_clust_7="13000.00000" pt_clust_8="13000.00000" pt_clust_9="29.34115"></scales>
<clustering>
<clus scale="   29.341">  1  9  2 -1</clus>
<clus scale="   79.932">  5  6 -1 -1</clus>
<clus scale="   85.008">  1  5  2 -1</clus>
<clus scale="  115.231">  7  8 -1 -1</clus>
<clus scale="   29.341">  1  5  2 -1</clus>
</clustering>
</event>
<event>
 9    1  0.6270443E-005  0.3588344E+03  0.7546771E-02  0.1078390E+00
         21   -1    0    0  501  502  0.00000000000E+00  0.00000000000E+00  0.25051646765E+03  0.25051646765E+03  0.00000000000E+00 0.  1.
          1   -1    0    0  502    0 -0.00000000000E+00 -0.00000000000E+00 -0.10621697048E+04  0.10621697048E+04  0.00000000000E+00 0. -1.
         23    2    1    2    0    0 -0.10095750324E+03 -0.16058613600E+03  0.17985191691E+01  0.21071229950E+03  0.91739380590E+02 0.  0.
        -24    2    1    2    0    0  0.25295795240E+03 -0.21387182247E+03 -0.34355292780E+03  0.48219342130E+03  0.68941998922E+02 0.  0.
         13    1    4    4    0    0  0.13092831325E+03 -0.11450727908E+03 -0.22890448177E+03  0.28749156848E+03  0.00000000000E+00 0. -1.
        -14    1    4    4    0    0  0.12202963915E+03 -0.99364543387E+02 -0.11464844603E+03  0.19470185282E+03  0.00000000000E+00 0.  1.
        -11    1    3    3    0    0 -0.11776122810E+03 -0.14334190826E+03  0.85417814633E+01  0.18570829690E+03  0.00000000000E+00 0.  1.
         11    1    3    3    0    0  0.16803724857E+02 -0.17244227745E+02 -0.67432622943E+01  0.25004002598E+02  0.00000000000E+00 0. -1.
          2    1    1    2  501    0 -0.15200044915E+03  0.37445795847E+03 -0.46989882851E+03  0.61978045164E+03  0.00000000000E+00 0. -1.
<scales pt_clust_5="13000.00000" pt_clust_6="13000.00000" pt_clust_7="13000.00000" pt_clust_8="13000.00000" pt_clust_9="352.14950"></scales>
<clustering>
<clus scale="   68.942">  5  6 -1 -1</clus>
<clus scale="   91.739">  7  8 -1 -1</clus>
<clus scale="  210.705">  2  7  1 -1</clus>
<clus scale="  352.150">  1  9  2 -1</clus>
<clus scale="  352.150">  1  5  2 -1</clus>
</clustering>
</event>
<event>
 9    1  0.6270443E-005  0.1883379E+03  0.7546771E-02  0.1161048E+00
         21   -1    0    0  501  502  0.00000000000E+00  0.00000000000E+00  0.20970070757E+03  0.20970070757E+03  0.00000000000E+00 0. -1.
          1   -1    0    0  502    0 -0.00000000000E+00 -0.00000000000E+00 -0.78610697962E+03  0.78610697962E+03  0.00000000000E+00 0. -1.
        -24    2    1    2    0    0 -0.13176398690E+02  0.16235157424E+03 -0.64321282552E+03  0.66876705383E+03  0.83636010388E+02 0.  0.
         23    2    1    2    0    0 -0.21192323102E+02 -0.16892081853E+03 -0.53752950791E+02  0.20150594463E+03  0.93444681561E+02 0.  0.
         11    1    3    3    0    0 -0.37337598717E+02  0.11898811230E+03 -0.54032956623E+03  0.55453431570E+03  0.00000000000E+00 0. -1.
        -12    1    3    3    0    0  0.24161200027E+02  0.43363461945E+02 -0.10288325929E+03  0.11423273813E+03  0.00000000000E+00 0.  1.
        -11    1    4    4    0    0 -0.23503550142E+02 -0.18233021320E+02 -0.40455917432E+02  0.50214949875E+02  0.00000000000E+00 0. -1.
         11    1    4    4    0    0  0.23112270396E+01 -0.15068779721E+03 -0.13297033359E+02  0.15129099475E+03  0.00000000000E+00 0.  1.
          2    1    1    2  501    0  0.34368721792E+02  0.65692442853E+01  0.12055950426E+03  0.12553468873E+03  0.00000000000E+00 0. -1.
<scales pt_clust_5="13000.00000" pt_clust_6="13000.00000" pt_clust_7="13000.00000" pt_clust_8="13000.00000" pt_clust_9="34.99091"></scales>
<clustering>
<clus scale="   34.991">  1  9  2 -1</clus>
<clus scale="   83.636">  5  6 -1 -1</clus>
<clus scale="   93.445">  7  8 -1 -1</clus>
<clus scale="  183.669">  2  5  1 -1</clus>
<clus scale="   34.991">  1  5  2 -1</clus>
</clustering>
</event>
<event>
 9    1  0.6270443E-005  0.1220800E+03  0.7546771E-02  0.1247412E+00
          1   -1    0    0  502    0 -0.00000000000E+00  0.00000000000E+00  0.52569249985E+03  0.52569249985E+03  0.00000000000E+00 0. -1.
         21   -1    0    0  501  502  0.00000000000E+00 -0.00000000000E+00 -0.64304789079E+02  0.64304789079E+02  0.00000000000E+00 0. -1.
         23    2    1    2    0    0  0.48023176590E+02 -0.22453716780E+02  0.10734313914E+03  0.14980011618E+03  0.90039604613E+02 0.  0.
        -24    2    1    2    0    0  0.41554150452E+02  0.80363299735E+02  0.76723671714E+02  0.14307009750E+03  0.79984521210E+02 0.  0.
         13    1    4    4    0    0  0.63783498744E+02  0.71752723285E+02  0.68161658734E+02  0.11774039125E+03  0.00000000000E+00 0. -1.
        -14    1    4    4    0    0 -0.22229348293E+02  0.86105764506E+01  0.85620129807E+01  0.25329706248E+02  0.00000000000E+00 0.  1.
        -13    1    3    3    0    0  0.49452758567E+02  0.18271699339E+02  0.92426512685E+02  0.10640531271E+03  0.00000000000E+00 0.  1.
         13    1    3    3    0    0 -0.14295819768E+01 -0.40725416119E+02  0.14916626456E+02  0.43394803463E+02  0.00000000000E+00 0. -1.
          2    1    1    2  501    0 -0.89577327042E+02 -0.57909582955E+02  0.27732089992E+03  0.29712707526E+03  0.00000000000E+00 0. -1.
<scales pt_clust_5="13000.00000" pt_clust_6="13000.00000" pt_clust_7="13000.00000" pt_clust_8="13000.00000" pt_clust_9="92.22805"></scales>
<clustering>
<clus scale="   79.985">  5  6 -1 -1</clus>
<clus scale="   90.040">  7  8 -1 -1</clus>
<clus scale="  104.487">  1  7  2 -1</clus>
<clus scale="   92.228">  2  9  1 -1</clus>
<clus scale="   92.228">  2  5  1 -1</clus>
</clustering>
</event>
<event>
 9    1  0.6270443E-005  0.4014494E+03  0.7546771E-02  0.1043448E+00
          1   -1    0    0  502    0 -0.00000000000E+00  0.00000000000E+00  0.43455575345E+03  0.43455575345E+03  0.00000000000E+00 0. -1.
         21   -1    0    0  501  502  0.00000000000E+00 -0.00000000000E+00 -0.80035301374E+03  0.80035301374E+03  0.00000000000E+00 0.  1.
         23    2    1    2    0    0  0.37536100902E+03  0.12275615663E+03  0.26615411852E+03  0.48461060330E+03  0.89690918956E+02 0.  0.
        -24    2    1    2    0    0 -0.35335913201E+03 -0.10902983536E+03 -0.59474537591E+03  0.70494641487E+03  0.80481081565E+02 0.  0.
         11    1    4    4    0    0 -0.30719552937E+03 -0.78331434623E+02 -0.45452277298E+03  0.55416230301E+03  0.00000000000E+00 0. -1.
        -12    1    4    4    0    0 -0.46163602642E+02 -0.30698400736E+02 -0.14022260293E+03  0.15078411186E+03  0.00000000000E+00 0.  1.
        -13    1    3    3    0    0  0.11061595394E+03  0.16334586416E+01  0.10151345102E+03  0.15014505717E+03  0.00000000000E+00 0. -1.
         13    1    3    3    0    0  0.26474505508E+03  0.12112269798E+03  0.16464066750E+03  0.33446554613E+03  0.00000000000E+00 0.  1.
          2    1    1    2  501    0 -0.22001877007E+02 -0.13726321267E+02 -0.37206002895E+02  0.45351749016E+02  0.00000000000E+00 0. -1.
<scales pt_clust_5="13000.00000" pt_clust_6="13000.00000" pt_clust_7="13000.00000" pt_clust_8="13000.00000" pt_clust_9="25.93250"></scales>
<clustering>
<clus scale="   25.932">  2  9  1 -1</clus>
<clus scale="   80.481">  5  6 -1 -1</clus>
<clus scale="   89.691">  7  8 -1 -1</clus>
<clus scale="  399.493">  2  5  1 -1</clus>
<clus scale="   25.932">  2  5  1 -1</clus>
</clustering>
</event>
<event>
 9    1  0.6270443E-005  0.1214173E+03  0.7546771E-02  0.1262550E+00
         -4   -1    0    0    0  501 -0.00000000000E+00  0.00000000000E+00  0.20687868795E+03  0.20687868795E+03  0.00000000000E+00 0.  1.
         21   -1    0    0  501  502  0.00000000000E+00 -0.00000000000E+00 -0.25776235224E+03  0.25776235224E+03  0.00000000000E+00 0. -1.
        -24    2    1    2    0    0 -0.11266252548E+01  0.27573785644E+02 -0.51470937554E+02  0.94021080517E+02  0.73682584303E+02 0.  0.
         23    2    1    2    0    0  0.22591194425E+02  0.77985309968E+02 -0.14608465580E+03  0.18864165006E+03  0.87480711256E+02 0.  0.
         13    1    3    3    0    0  0.30595943753E+02  0.56069641623E+00 -0.40047525762E+01  0.30862018693E+02  0.00000000000E+00 0. -1.
        -14    1    3    3    0    0 -0.31722569008E+02  0.27013089227E+02 -0.47466184978E+02  0.63159061824E+02  0.00000000000E+00 0.  1.
        -11    1    4    4    0    0 -0.15561097841E+02  0.65993893092E+02 -0.12778907825E+03  0.14466302296E+03  0.00000000000E+00 0. -1.
         11    1    4    4    0    0  0.38152292266E+02  0.11991416876E+02 -0.18295577542E+02  0.43978627098E+02  0.00000000000E+00 0.  1.
         -3    1    1    2    0  502 -0.21464569171E+02 -0.10555909561E+03  0.14667192906E+03  0.18197830961E+03  0.00000000000E+00 0.  1.
<scales pt_clust_5="13000.00000" pt_clust_6="13000.00000" pt_clust_7="13000.00000" pt_clust_8="13000.00000" pt_clust_9="84.19801"></scales>
<clustering>
<clus scale="   73.683">  5  6 -1 -1</clus>
<clus scale="   78.681">  1  5  2 -1</clus>
<clus scale="   84.198">  2  9  1 -1</clus>
<clus scale="   87.481">  7  8 -1 -1</clus>
<clus scale="   84.198">  2  5  1 -1</clus>
</clustering>
</event>
<event>
 9    1  0.6611834E-005  0.1239629E+03  0.7546771E-02  0.1238632E+00
         -2   -1    0    0    0  501 -0.00000000000E+00  0.00000000000E+00  0.50137843179E+03  0.50137843179E+03  0.00000000000E+00 0.  1.
         21   -1    0    0  501  502  0.00000000000E+00 -0.00000000000E+00 -0.59926982159E+02  0.59926982159E+02  0.00000000000E+00 0. -1.
        -24    2    1    2    0    0 -0.69763100354E+02 -0.65806107831E+02  0.25368595723E+03  0.28354247335E+03  0.82719014108E+02 0.  0.
         23    2    1    2    0    0  0.42316544796E+02  0.37980357501E+02  0.23081528784E+02  0.10850457695E+03  0.89483455060E+02 0.  0.
         13    1    3    3    0    0 -0.96082543530E+01 -0.18923946010E+02  0.29053170150E+01  0.21421371367E+02  0.00000000000E+00 0. -1.
        -14    1    3    3    0    0 -0.60154846001E+02 -0.46882161821E+02  0.25078064022E+03  0.26212110198E+03  0.00000000000E+00 0.  1.
        -11    1    4    4    0    0  0.61102876027E+02  0.37846140002E+01  0.31109544132E+02  0.68670870811E+02  0.00000000000E+00 0.  1.
         11    1    4    4    0    0 -0.18786331230E+02  0.34195743501E+02 -0.80280153477E+01  0.39833706143E+02  0.00000000000E+00 0. -1.
         -1    1    1    2    0  502  0.27446555558E+02  0.27825750330E+02  0.16468396362E+03  0.16925836365E+03  0.00000000000E+00 0.  1.
<scales pt_clust_5="13000.00000" pt_clust_6="13000.00000" pt_clust_7="13000.00000" pt_clust_8="13000.00000" pt_clust_9="39.08436"></scales>
<clustering>
<clus scale="   39.084">  2  9  1 -1</clus>
<clus scale="   82.719">  5  6 -1 -1</clus>
<clus scale="   89.483">  7  8 -1 -1</clus>
<clus scale="  119.172">  1  5  2 -1</clus>
<clus scale="   39.084">  2  5  1 -1</clus>
</clustering>
</event>
<event>
 9    1  0.6270443E-005  0.1247875E+03  0.7546771E-02  0.1237153E+00
          3   -1    0    0  502    0 -0.00000000000E+00  0.00000000000E+00  0.10545309966E+03  0.10545309966E+03  0.00000000000E+00 0. -1.
         21   -1    0    0  501  502  0.00000000000E+00 -0.00000000000E+00 -0.20348629931E+03  0.20348629931E+03  0.00000000000E+00 0. -1.
         23    2    1    2    0    0 -0.22210159755E+02 -0.63528339596E+02 -0.63275073733E+02  0.13083280020E+03  0.92651743238E+02 0.  0.
        -24    2    1    2    0    0  0.40766722955E+02  0.91119007196E+02 -0.50260330343E+02  0.14141996198E+03  0.86653942019E+02 0.  0.
         11    1    4    4    0    0 -0.44844780743E+01  0.74261133645E+02 -0.55542133999E+02  0.92842636558E+02  0.00000000000E+00 0. -1.
        -12    1    4    4    0    0  0.45251201030E+02  0.16857873551E+02  0.52818036566E+01  0.48577325422E+02  0.00000000000E+00 0.  1.
        -11    1    3    3    0    0 -0.32628529864E+02 -0.39344387626E+01  0.11346538728E+02  0.34768444178E+02  0.00000000000E+00 0.  1.
         11    1    3    3    0    0  0.10418370109E+02 -0.59593900833E+02 -0.74621612461E+02  0.96064356025E+02  0.00000000000E+00 0. -1.
          4    1    1    2  501    0 -0.18556563200E+02 -0.27590667600E+02  0.15502204422E+02  0.36686636782E+02  0.00000000000E+00 0. -1.
<scales pt_clust_5="13000.00000" pt_clust_6="13000.00000" pt_clust_7="13000.00000" pt_clust_8="13000.00000" pt_clust_9="33.25044"></scales>
<clustering>
<clus scale="   33.250">  2  9  1 -1</clus>
<clus scale="   86.654">  5  6 -1 -1</clus>
<clus scale="   92.652">  7  8 -1 -1</clus>
<clus scale="  120.401">  2  5  1 -1</clus>
<clus scale="   33.250">  2  5  1 -1</clus>
</clustering>
</event>
<event>
 9    1  0.6270443E-005  0.1543849E+03  0.7546771E-02  0.1196473E+00
         21   -1    0    0  501  502  0.00000000000E+00  0.00000000000E+00  0.45150414798E+03  0.45150414798E+03  0.00000000000E+00 0.  1.
          1   -1    0    0  502    0 -0.00000000000E+00 -0.00000000000E+00 -0.14899902518E+03  0.14899902518E+03  0.00000000000E+00 0. -1.
        -24    2    1    2    0    0 -0.11984269723E+03 -0.48739294419E+02 -0.82012778479E+02  0.17370555791E+03  0.81912966708E+02 0.  0.
         23    2    1    2    0    0  0.10198123338E+03  0.32930347754E+02  0.22010765007E+03  0.26066608486E+03  0.89525696933E+02 0.  0.
         13    1    3    3    0    0 -0.11337789179E+03 -0.66146801073E+02 -0.82666648703E+02  0.15512485438E+03  0.00000000000E+00 0. -1.
        -14    1    3    3    0    0 -0.64648054375E+01  0.17407506654E+02  0.65387022447E+00  0.18580703526E+02  0.00000000000E+00 0.  1.
        -11    1    4    4    0    0 -0.13203560413E+01  0.30920635155E+02  0.24594731613E+02  0.39531377937E+02  0.00000000000E+00 0. -1.
         11    1    4    4    0    0  0.10330158942E+03  0.20097125983E+01  0.19551291846E+03  0.22113470693E+03  0.00000000000E+00 0.  1.
          2    1    1    2  501    0  0.17861463848E+02  0.15808946665E+02  0.16441025121E+03  0.16613153038E+03  0.00000000000E+00 0. -1.
<scales pt_clust_5="13000.00000" pt_clust_6="13000.00000" pt_clust_7="13000.00000" pt_clust_8="13000.00000" pt_clust_9="23.85277"></scales>
<clustering>
<clus scale="   23.853">  1  9  2 -1</clus>
<clus scale="   81.913">  5  6 -1 -1</clus>
<clus scale="   89.526">  7  8 -1 -1</clus>
<clus scale="  150.099">  2  5  1 -1</clus>
<clus scale="   23.853">  1  5  2 -1</clus>
</clustering>
</event>
<event>
 9    1  0.6270443E-005  0.1270574E+03  0.7546771E-02  0.1234854E+00
         21   -1    0    0  501  502  0.00000000000E+00  0.00000000000E+00  0.57671410583E+02  0.57671410583E+02  0.00000000000E+00 0.  1.
          1   -1    0    0  502    0 -0.00000000000E+00 -0.00000000000E+00 -0.47665877777E+03  0.47665877777E+03  0.00000000000E+00 0. -1.
        -24    2    1    2    0    0 -0.49347164734E+02  0.68286865119E+02 -0.32217366374E+03  0.34244057245E+03  0.79821284372E+02 0.  0.
         23    2    1    2    0    0  0.56579510378E+02 -0.90603290946E+02 -0.92876220341E+02  0.16810236179E+03  0.90676426972E+02 0.  0.
         13    1    3    3    0    0  0.19899724359E+02  0.15864130621E+02 -0.11529263020E+03  0.11806803229E+03  0.00000000000E+00 0. -1.
        -14    1    3    3    0    0 -0.69246889093E+02  0.52422734498E+02 -0.20688103354E+03  0.22437254016E+03  0.00000000000E+00 0.  1.
        -13    1    4    4    0    0  0.39176247311E+00 -0.64019944578E+02 -0.83533486163E+02  0.10524519035E+03  0.00000000000E+00 0. -1.
         13    1    4    4    0    0  0.56187747905E+02 -0.26583346367E+02 -0.93427341774E+01  0.62857171434E+02  0.00000000000E+00 0.  1.
          2    1    1    2  501    0 -0.72323456442E+01  0.22316425827E+02 -0.39374831084E+01  0.23787254117E+02  0.00000000000E+00 0. -1.
<scales pt_clust_5="13000.00000" pt_clust_6="13000.00000" pt_clust_7="13000.00000" pt_clust_8="13000.00000" pt_clust_9="23.45911"></scales>
<clustering>
<clus scale="   23.459">  1  9  2 -1</clus>
<clus scale="   79.821">  5  6 -1 -1</clus>
<clus scale="   90.676">  7  8 -1 -1</clus>
<clus scale="  119.553">  2  5  1 -1</clus>
<clus scale="   23.459">  1  5  2 -1</clus>
</clustering>
</event>
<event>
 9    1  0.6270443E-005  0.2072134E+03  0.7546771E-02  0.1157432E+00
          1   -1    0    0  502    0 -0.00000000000E+00  0.00000000000E+00  0.10169668823E+04  0.10169668823E+04  0.00000000000E+00 0. -1.
         21   -1    0    0  501  502  0.00000000000E+00 -0.00000000000E+00 -0.94924400926E+02  0.94924400926E+02  0.00000000000E+00 0. -1.
        -24    2    1    2    0    0  0.11891295029E+03  0.40216611650E+02  0.49298509565E+03  0.51531121159E+03  0.82180743867E+02 0.  0.
         23    2    1    2    0    0 -0.22771853895E+03  0.72865238327E+02  0.24285619140E+03  0.35307022443E+03  0.92273385872E+02 0.  0.
         11    1    3    3    0    0  0.10278768502E+03  0.45425332418E+02  0.48243293406E+03  0.49534867001E+03  0.00000000000E+00 0. -1.
        -12    1    3    3    0    0  0.16125265271E+02 -0.52087207681E+01  0.10552161583E+02  0.19962541576E+02  0.00000000000E+00 0.  1.
        -11    1    4    4    0    0 -0.12004048114E+03  0.83597983137E+02  0.11876203052E+03  0.18842176039E+03  0.00000000000E+00 0.  1.
         11    1    4    4    0    0 -0.10767805781E+03 -0.10732744810E+02  0.12409416088E+03  0.16464846404E+03  0.00000000000E+00 0. -1.
          2    1    1    2  501    0  0.10880558866E+03 -0.11308184998E+03  0.18620119434E+03  0.24350984722E+03  0.00000000000E+00 0. -1.
<scales pt_clust_5="13000.00000" pt_clust_6="13000.00000" pt_clust_7="13000.00000" pt_clust_8="13000.00000" pt_clust_9="185.53444"></scales>
<clustering>
<clus scale="   82.181">  5  6 -1 -1</clus>
<clus scale="   92.273">  7  8 -1 -1</clus>
<clus scale="  150.038">  1  5  2 -1</clus>
<clus scale="  185.534">  2  9  1 -1</clus>
<clus scale="  185.534">  2  5  1 -1</clus>
</clustering>
</event>
<event>
 9    1  0.6270443E-005  0.1294538E+03  0.7546771E-02  0.1229499E+00
          1   -1    0    0  502    0 -0.00000000000E+00  0.00000000000E+00  0.88199434018E+03  0.88199434018E+03  0.00000000000E+00 0. -1.
         21   -1    0    0  501  502  0.00000000000E+00 -0.00000000000E+00 -0.13112028573E+03  0.13112028573E+03  0.00000000000E+00 0. -1.
        -24    2    1    2    0    0 -0.72403065925E+02  0.65792523229E+02  0.65363420259E+03  0.66601081350E+03  0.82230607646E+02 0.  0.
         23    2    1    2    0    0  0.44622456883E+02 -0.82051098103E+02  0.20117227866E+03  0.23830099610E+03  0.87140878373E+02 0.  0.
         11    1    3    3    0    0 -0.86563751373E+02  0.69850995863E+02  0.60693408751E+03  0.61704248740E+03  0.00000000000E+00 0. -1.
        -12    1    3    3    0    0  0.14160685448E+02 -0.40584726343E+01  0.46700115081E+02  0.48968326100E+02  0.00000000000E+00 0.  1.
        -13    1    4    4    0    0 -0.16840507055E+02 -0.57683418512E+02  0.11426216334E+03  0.12910004423E+03  0.00000000000E+00 0. -1.
         13    1    4    4    0    0  0.61462963937E+02 -0.24367679590E+02  0.86910115319E+02  0.10920095187E+03  0.00000000000E+00 0.  1.
          2    1    1    2  501    0  0.27780609042E+02  0.16258574874E+02 -0.10393242680E+03  0.10880281631E+03  0.00000000000E+00 0. -1.
<scales pt_clust_5="13000.00000" pt_clust_6="13000.00000" pt_clust_7="13000.00000" pt_clust_8="13000.00000" pt_clust_9="32.18856"></scales>
<clustering>
<clus scale="   32.189">  2  9  1 -1</clus>
<clus scale="   82.231">  5  6 -1 -1</clus>
<clus scale="   87.141">  7  8 -1 -1</clus>
<clus scale="  126.201">  1  5  2 -1</clus>
<clus scale="   32.189">  2  5  1 -1</clus>
</clustering>
</event>
<event>
 9    1  0.6270443E-005  0.1394242E+03  0.7546771E-02  0.1214197E+00
          1   -1    0    0  502    0 -0.00000000000E+00  0.00000000000E+00  0.33219352453E+03  0.33219352453E+03  0.00000000000E+00 0. -1.
         21   -1    0    0  501  502  0.00000000000E+00 -0.00000000000E+00 -0.30862874610E+03  0.30862874610E+03  0.00000000000E+00 0. -1.
         23    2    1    2    0    0 -0.10336132823E+03  0.12454632563E+02  0.17473428787E+03  0.22126564716E+03  0.87107595594E+02 0.  0.
        -24    2    1    2    0    0  0.16533466929E+03 -0.90138295252E+01 -0.24432915691E+03  0.30761353952E+03  0.86674972111E+02 0.  0.
         11    1    4    4    0    0  0.82037796091E+02 -0.39910862610E+02 -0.82500046030E+02  0.12300135990E+03  0.00000000000E+00 0. -1.
        -12    1    4    4    0    0  0.83296873197E+02  0.30897033085E+02 -0.16182911088E+03  0.18461217963E+03  0.00000000000E+00 0.  1.
        -11    1    3    3    0    0 -0.10520521778E+03 -0.15790943645E+02  0.12597037783E+03  0.16488186025E+03  0.00000000000E+00 0.  1.
         11    1    3    3    0    0  0.18438895471E+01  0.28245576207E+02  0.48763910045E+02  0.56383786914E+02  0.00000000000E+00 0. -1.
          2    1    1    2  501    0 -0.61973341056E+02 -0.34408030375E+01  0.93159647467E+02  0.11194308395E+03  0.00000000000E+00 0. -1.
<scales pt_clust_5="13000.00000" pt_clust_6="13000.00000" pt_clust_7="13000.00000" pt_clust_8="13000.00000" pt_clust_9="62.06882"></scales>
<clustering>
<clus scale="   62.069">  2  9  1 -1</clus>
<clus scale="   86.675">  5  6 -1 -1</clus>
<clus scale="   87.108">  7  8 -1 -1</clus>
<clus scale="  139.154">  2  5  1 -1</clus>
<clus scale="   62.069">  2  5  1 -1</clus>
</clustering>
</event>
<event>
 9    1  0.6270443E-005  0.1730836E+03  0.7546771E-02  0.1175735E+00
         21   -1    0    0  501  502  0.00000000000E+00  0.00000000000E+00  0.19963343508E+03  0.19963343508E+03  0.00000000000E+00 0.  1.
          1   -1    0    0  502    0 -0.00000000000E+00 -0.00000000000E+00 -0.21696082947E+03  0.21696082947E+03  0.00000000000E+00 0. -1.
        -24    2    1    2    0    0 -0.14540386220E+03  0.23736870946E+02 -0.97100417710E+02  0.19590830268E+03  0.85122557265E+02 0.  0.
         23    2    1    2    0    0  0.14470646667E+03  0.63183488136E+01  0.52210706091E+02  0.17990013191E+03  0.93049538430E+02 0.  0.
         13    1    3    3    0    0 -0.65939442530E+02  0.46727490852E+02 -0.75064396245E+02  0.11030019069E+03  0.00000000000E+00 0. -1.
        -14    1    3    3    0    0 -0.79464419665E+02 -0.22990619906E+02 -0.22036021465E+02  0.85608111989E+02  0.00000000000E+00 0.  1.
        -13    1    4    4    0    0  0.22274870184E+02 -0.76592089031E+01 -0.25106007782E+02  0.34425934258E+02  0.00000000000E+00 0. -1.
         13    1    4    4    0    0  0.12243159648E+03  0.13977557717E+02  0.77316713874E+02  0.14547419765E+03  0.00000000000E+00 0.  1.
          2    1    1    2  501    0  0.69739552809E+00 -0.30055219759E+02  0.27562317223E+02  0.40785829966E+02  0.00000000000E+00 0. -1.
<scales pt_clust_5="13000.00000" pt_clust_6="13000.00000" pt_clust_7="13000.00000" pt_clust_8="13000.00000" pt_clust_9="30.06331"></scales>
<clustering>
<clus scale="   30.063">  1  9  2 -1</clus>
<clus scale="   85.123">  5  6 -1 -1</clus>
<clus scale="   93.050">  7  8 -1 -1</clus>
<clus scale="  168.954">  2  5  1 -1</clus>
<clus scale="   30.063">  1  5  2 -1</clus>
</clustering>
</event>
<event>
 9    1  0.6270443E-005  0.1202834E+03  0.7546771E-02  0.1245425E+00
          3   -1    0    0  502    0 -0.00000000000E+00  0.00000000000E+00  0.10177918769E+04  0.10177918769E+04  0.00000000000E+00 0. -1.
         21   -1    0    0  501  502  0.00000000000E+00 -0.00000000000E+00 -0.24175539873E+02  0.24175539873E+02  0.00000000000E+00 0.  1.
         23    2    1    2    0    0  0.75554191759E+02  0.23853904614E+01  0.64246697466E+03  0.65318836542E+03  0.90427325591E+02 0.  0.
        -24    2    1    2    0    0 -0.84110672869E+02 -0.31240773324E+02  0.33119283487E+03  0.35266659536E+03  0.81452086559E+02 0.  0.
         11    1    4    4    0    0 -0.23140883304E+02  0.27853602638E+02  0.93959978772E+02  0.10069658023E+03  0.00000000000E+00 0. -1.
        -12    1    4    4    0    0 -0.60969789565E+02 -0.59094375961E+02  0.23723285610E+03  0.25197001512E+03  0.00000000000E+00 0.  1.
        -13    1    3    3    0    0  0.41903181992E+02  0.46132223782E+02  0.31562470464E+03  0.32171884140E+03  0.00000000000E+00 0.  1.
         13    1    3    3    0    0  0.33651009767E+02 -0.43746833321E+02  0.32684227001E+03  0.33146952402E+03  0.00000000000E+00 0. -1.
          4    1    1    2  501    0  0.85564811102E+01  0.28855382862E+02  0.19956527531E+02  0.36112456026E+02  0.00000000000E+00 0. -1.
<scales pt_clust_5="13000.00000" pt_clust_6="13000.00000" pt_clust_7="13000.00000" pt_clust_8="13000.00000" pt_clust_9="30.09728"></scales>
<clustering>
<clus scale="   30.097">  2  9  1 -1</clus>
<clus scale="   81.452">  5  6 -1 -1</clus>
<clus scale="   90.427">  7  8 -1 -1</clus>
<clus scale="  113.690">  2  5  1 -1</clus>
<clus scale="   30.097">  2  5  1 -1</clus>
</clustering>
</event>
<event>
 9    1  0.6270443E-005  0.8903254E+02  0.7546771E-02  0.1306062E+00
         -2   -1    0    0    0  501 -0.00000000000E+00  0.00000000000E+00  0.56288813867E+02  0.56288813867E+02  0.00000000000E+00 0.  1.
         21   -1    0    0  501  502  0.00000000000E+00 -0.00000000000E+00 -0.87833017001E+03  0.87833017001E+03  0.00000000000E+00 0.  1.
         23    2    1    2    0    0 -0.21656766784E+02 -0.37096142139E+02  0.17995250526E+01  0.92285093403E+02  0.81658807638E+02 0.  0.
        -24    2    1    2    0    0 -0.35453375263E+02 -0.24871695705E+02 -0.44558869312E+03  0.45480802161E+03  0.80159279086E+02 0.  0.
         11    1    4    4    0    0 -0.16403239495E+02  0.18145235135E+02 -0.42924472703E+02  0.49404718204E+02  0.00000000000E+00 0. -1.
        -12    1    4    4    0    0 -0.19050135768E+02 -0.43016930840E+02 -0.40266422042E+03  0.40540330341E+03  0.00000000000E+00 0.  1.
        -11    1    3    3    0    0 -0.34956641229E+02  0.13015994171E+02 -0.10984990566E+02  0.38885124251E+02  0.00000000000E+00 0. -1.
         11    1    3    3    0    0  0.13299874445E+02 -0.50112136311E+02  0.12784515619E+02  0.53399969152E+02  0.00000000000E+00 0.  1.
         -1    1    1    2    0  502  0.57110142047E+02  0.61967837845E+02 -0.37825218808E+03  0.38752586887E+03  0.00000000000E+00 0.  1.
<scales pt_clust_5="13000.00000" pt_clust_6="13000.00000" pt_clust_7="13000.00000" pt_clust_8="13000.00000" pt_clust_9="84.27088"></scales>
<clustering>
<clus scale="   80.159">  5  6 -1 -1</clus>
<clus scale="   81.659">  7  8 -1 -1</clus>
<clus scale="   84.271">  2  9  1 -1</clus>
<clus scale="   87.659">  2  5  1 -1</clus>
<clus scale="   84.271">  2  5  1 -1</clus>
</clustering>
</event>
<event>
 9    1  0.6270443E-005  0.1512890E+03  0.7546771E-02  0.1222674E+00
         -2   -1    0    0    0  501 -0.00000000000E+00  0.00000000000E+00  0.25990790844E+03  0.25990790844E+03  0.00000000000E+00 0.  1.
         21   -1    0    0  501  502  0.00000000000E+00 -0.00000000000E+00 -0.12816324677E+03  0.12816324677E+03  0.00000000000E+00 0. -1.
        -24    2    1    2    0    0 -0.25052514868E+02  0.37089330097E+02  0.34505720518E+02  0.97428831419E+02  0.79362998526E+02 0.  0.
         23    2    1    2    0    0  0.12542449771E+03  0.20315009463E+02  0.60216767273E+02  0.16923213271E+03  0.94177765131E+02 0.  0.
         13    1    3    3    0    0 -0.30652075158E+02 -0.18064728219E+02  0.11303387938E+02  0.37331631306E+02  0.00000000000E+00 0. -1.
        -14    1    3    3    0    0  0.55995602900E+01  0.55154058317E+02  0.23202332580E+02  0.60097200113E+02  0.00000000000E+00 0.  1.
        -11    1    4    4    0    0  0.25933225477E+02  0.43120389859E+01  0.63166594954E+02  0.68418890534E+02  0.00000000000E+00 0.  1.
         11    1    4    4    0    0  0.99491272229E+02  0.16002970478E+02 -0.29498276804E+01  0.10081324217E+03  0.00000000000E+00 0. -1.
         -1    1    1    2    0  502 -0.10037198284E+03 -0.57404339561E+02  0.37022173882E+02  0.12141019108E+03  0.00000000000E+00 0.  1.
<scales pt_clust_5="13000.00000" pt_clust_6="13000.00000" pt_clust_7="13000.00000" pt_clust_8="13000.00000" pt_clust_9="118.40149"></scales>
<clustering>
<clus scale="   79.363">  5  6 -1 -1</clus>
<clus scale="   91.114">  1  5  2 -1</clus>
<clus scale="   94.178">  7  8 -1 -1</clus>
<clus scale="  118.401">  2  9  1 -1</clus>
<clus scale="  118.401">  2  5  1 -1</clus>
</clustering>
</event>
<event>
 9    1  0.6270443E-005  0.1993767E+03  0.7546771E-02  0.1175990E+00
         21   -1    0    0  501  502  0.00000000000E+00  0.00000000000E+00  0.26903882450E+03  0.26903882450E+03  0.00000000000E+00 0. -1.
          1   -1    0    0  502    0 -0.00000000000E+00 -0.00000000000E+00 -0.22814619070E+03  0.22814619070E+03  0.00000000000E+00 0. -1.
         23    2    1    2    0    0 -0.52985381964E+02  0.38030099456E+02  0.87002677684E+01  0.11024698403E+03  0.88458824671E+02 0.  0.
        -24    2    1    2    0    0  0.19651950057E+03 -0.88318227736E+02  0.35088079187E+02  0.23482187750E+03  0.86545464338E+02 0.  0.
         13    1    4    4    0    0  0.14682428772E+03 -0.22163395509E+02  0.12278732726E+02  0.14899447924E+03  0.00000000000E+00 0. -1.
        -14    1    4    4    0    0  0.49695212850E+02 -0.66154832227E+02  0.22809346462E+02  0.85827398267E+02  0.00000000000E+00 0.  1.
        -13    1    3    3    0    0 -0.13916377274E+02  0.57286249530E+02  0.24599886841E+02  0.63879060530E+02  0.00000000000E+00 0.  1.
         13    1    3    3    0    0 -0.39069004690E+02 -0.19256150074E+02 -0.15899619072E+02  0.46367923501E+02  0.00000000000E+00 0. -1.
          2    1    1    2  501    0 -0.14353411861E+03  0.50288128281E+02 -0.28957131563E+01  0.15211615366E+03  0.00000000000E+00 0. -1.
<scales pt_clust_5="13000.00000" pt_clust_6="13000.00000" pt_clust_7="13000.00000" pt_clust_8="13000.00000" pt_clust_9="179.61333"></scales>
<clustering>
<clus scale="   86.545">  5  6 -1 -1</clus>
<clus scale="   88.459">  7  8 -1 -1</clus>
<clus scale="  109.903">  2  7  1 -1</clus>
<clus scale="  179.613">  1  9  2 -1</clus>
<clus scale="  179.613">  1  5  2 -1</clus>
</clustering>
</event>
<event>
 9    1  0.6270443E-005  0.1166428E+03  0.7546771E-02  0.1252037E+00
          1   -1    0    0  502    0 -0.00000000000E+00  0.00000000000E+00  0.66816881709E+03  0.66816881709E+03  0.00000000000E+00 0. -1.
         21   -1    0    0  501  502  0.00000000000E+00 -0.00000000000E+00 -0.32076484818E+02  0.32076484818E+02  0.00000000000E+00 0.  1.
        -24    2    1    2    0    0  0.24536988029E+02 -0.52534119640E+02  0.26379177185E+03  0.28198554959E+03  0.81042296212E+02 0.  0.
         23    2    1    2    0    0 -0.17102735931E+02  0.10329729232E+03  0.25502199367E+03  0.29025026039E+03  0.90808381876E+02 0.  0.
         13    1    3    3    0    0  0.53573928969E+02 -0.23236359342E+02  0.15564135275E+03  0.16623575111E+03  0.00000000000E+00 0. -1.
        -14    1    3    3    0    0 -0.29036940940E+02 -0.29297760298E+02  0.10815041910E+03  0.11574979848E+03  0.00000000000E+00 0.  1.
        -11    1    4    4    0    0 -0.53648777078E+02  0.61744596985E+02  0.17224032179E+03  0.19067594235E+03  0.00000000000E+00 0.  1.
         11    1    4    4    0    0  0.36546041147E+02  0.41552695340E+02  0.82781671880E+02  0.99574318038E+02  0.00000000000E+00 0. -1.
          2    1    1    2  501    0 -0.74342520977E+01 -0.50763172685E+02  0.11727856675E+03  0.12800949193E+03  0.00000000000E+00 0. -1.
<scales pt_clust_5="13000.00000" pt_clust_6="13000.00000" pt_clust_7="13000.00000" pt_clust_8="13000.00000" pt_clust_9="51.30468"></scales>
<clustering>
<clus scale="   51.305">  2  9  1 -1</clus>
<clus scale="   81.042">  5  6 -1 -1</clus>
<clus scale="   90.808">  7  8 -1 -1</clus>
<clus scale="  109.212">  1  5  2 -1</clus>
<clus scale="   51.305">  2  5  1 -1</clus>
</clustering>
</event>
<event>
 9    1  0.6270443E-005  0.1423875E+03  0.7546771E-02  0.1224458E+00
          1   -1    0    0  502    0 -0.00000000000E+00  0.00000000000E+00  0.20704442632E+03  0.20704442632E+03  0.00000000000E+00 0. -1.
         21   -1    0    0  501  502  0.00000000000E+00 -0.00000000000E+00 -0.27652186440E+03  0.27652186440E+03  0.00000000000E+00 0. -1.
         23    2    1    2    0    0  0.49006243389E+02 -0.12830812270E+01  0.50685401154E+02  0.11686186399E+03  0.93190274049E+02 0.  0.
        -24    2    1    2    0    0  0.98783358630E+02 -0.47119490229E+02 -0.15691601027E+03  0.20690652008E+03  0.78798956038E+02 0.  0.
         13    1    4    4    0    0  0.10112786261E+03 -0.15753729176E+02 -0.10836073635E+03  0.14905392903E+03  0.00000000000E+00 0. -1.
        -14    1    4    4    0    0 -0.23445039811E+01 -0.31365761052E+02 -0.48555273921E+02  0.57852591047E+02  0.00000000000E+00 0.  1.
        -13    1    3    3    0    0 -0.27512595372E+02 -0.75097553361E+01  0.14337883223E+02  0.31920435847E+02  0.00000000000E+00 0.  1.
         13    1    3    3    0    0  0.76518838762E+02  0.62266741090E+01  0.36347517931E+02  0.84941428147E+02  0.00000000000E+00 0. -1.
          2    1    1    2  501    0 -0.14778960202E+03  0.48402571456E+02  0.36753171029E+02  0.15979790665E+03  0.00000000000E+00 0. -1.
<scales pt_clust_5="13000.00000" pt_clust_6="13000.00000" pt_clust_7="13000.00000" pt_clust_8="13000.00000" pt_clust_9="118.59566"></scales>
<clustering>
<clus scale="   78.799">  5  6 -1 -1</clus>
<clus scale="   93.190">  7  8 -1 -1</clus>
<clus scale="  105.298">  1  7  2 -1</clus>
<clus scale="  118.596">  2  9  1 -1</clus>
<clus scale="  118.596">  2  5  1 -1</clus>
</clustering>
</event>
<event>
 9    1  0.6270443E-005  0.9255315E+02  0.7546771E-02  0.1299007E+00
         21   -1    0    0  501  502  0.00000000000E+00  0.00000000000E+00  0.19426999500E+02  0.19426999500E+02  0.00000000000E+00 0. -1.
          1   -1    0    0  502    0 -0.00000000000E+00 -0.00000000000E+00 -0.69893252131E+03  0.69893252131E+03  0.00000000000E+00 0. -1.
         23    2    1    2    0    0  0.42961234418E+01 -0.10484834042E+02 -0.41911921871E+03  0.42917485379E+03  0.91661045214E+02 0.  0.
        -24    2    1    2    0    0  0.23101591482E+02  0.13200598042E+02 -0.23258166653E+03  0.25005529222E+03  0.87894699758E+02 0.  0.
         13    1    4    4    0    0  0.36819772150E+02 -0.18476219254E+02 -0.52696198080E+02  0.66887634068E+02  0.00000000000E+00 0. -1.
        -14    1    4    4    0    0 -0.13718180667E+02  0.31676817297E+02 -0.17988546845E+03  0.18316765816E+03  0.00000000000E+00 0.  1.
        -11    1    3    3    0    0  0.45996629571E+02  0.69361957150E+00 -0.27159062665E+03  0.27545896160E+03  0.00000000000E+00 0. -1.
         11    1    3    3    0    0 -0.41700506129E+02 -0.11178453614E+02 -0.14752859206E+03  0.15371589219E+03  0.00000000000E+00 0.  1.
          2    1    1    2  501    0 -0.27397714924E+02 -0.27157640000E+01 -0.27804636561E+02  0.39129374790E+02  0.00000000000E+00 0. -1.
<scales pt_clust_5="13000.00000" pt_clust_6="13000.00000" pt_clust_7="13000.00000" pt_clust_8="13000.00000" pt_clust_9="27.53198"></scales>
<clustering>
<clus scale="   27.532">  1  9  2 -1</clus>
<clus scale="   87.895">  5  6 -1 -1</clus>
<clus scale="   88.825">  1  5  2 -1</clus>
<clus scale="   91.661">  7  8 -1 -1</clus>
<clus scale="   27.532">  1  5  2 -1</clus>
</clustering>
</event>
<event>
 9    1  0.6270443E-005  0.1723881E+03  0.7546771E-02  0.1177075E+00
         21   -1    0    0  501  502  0.00000000000E+00  0.00000000000E+00  0.37207479039E+03  0.37207479039E+03  0.00000000000E+00 0.  1.
         -4   -1    0    0    0  501 -0.00000000000E+00 -0.00000000000E+00 -0.12323007524E+03  0.12323007524E+03  0.00000000000E+00 0.  1.
         23    2    1    2    0    0 -0.83715206096E+02  0.13394105157E+03  0.97280597716E+02  0.20637414239E+03  0.90434124798E+02 0.  0.
        -24    2    1    2    0    0  0.60749855216E+01 -0.14492854362E+03  0.12361544548E+03  0.20568496001E+03  0.77358491503E+02 0.  0.
         11    1    4    4    0    0  0.31494050870E+02 -0.27958581120E+02  0.17092788300E+02  0.45450202533E+02  0.00000000000E+00 0. -1.
        -12    1    4    4    0    0 -0.25419065349E+02 -0.11696996250E+03  0.10652265718E+03  0.16023475747E+03  0.00000000000E+00 0.  1.
        -11    1    3    3    0    0 -0.27026074179E+02 -0.81136632143E+01  0.22678929201E+02  0.36201851416E+02  0.00000000000E+00 0. -1.
         11    1    3    3    0    0 -0.56689131917E+02  0.14205471479E+03  0.74601668516E+02  0.17017229098E+03  0.00000000000E+00 0.  1.
         -3    1    1    2    0  502  0.77640220574E+02  0.10987492046E+02  0.27948671951E+02  0.83245763232E+02  0.00000000000E+00 0.  1.
<scales pt_clust_5="13000.00000" pt_clust_6="13000.00000" pt_clust_7="13000.00000" pt_clust_8="13000.00000" pt_clust_9="78.41387"></scales>
<clustering>
<clus scale="   77.358">  5  6 -1 -1</clus>
<clus scale="   78.414">  1  9  2 -1</clus>
<clus scale="   90.434">  7  8 -1 -1</clus>
<clus scale="  165.903">  1  5  2 -1</clus>
<clus scale="   78.414">  1  5  2 -1</clus>
</clustering>
</event>
<event>
 9    1  0.6270443E-005  0.1631677E+03  0.7546771E-02  0.1186856E+00
         21   -1    0    0  501  502  0.00000000000E+00  0.00000000000E+00  0.21030945302E+03  0.21030945302E+03  0.00000000000E+00 0. -1.
          1   -1    0    0  502    0 -0.00000000000E+00 -0.00000000000E+00 -0.44624641901E+03  0.44624641901E+03  0.00000000000E+00 0. -1.
        -24    2    1    2    0    0  0.91300772046E+02  0.11769782127E+03 -0.27388813391E+03  0.32191148781E+03  0.80147913121E+02 0.  0.
         23    2    1    2    0    0 -0.13769742367E+03 -0.78523055413E+01 -0.64355853305E+02  0.17752846141E+03  0.91391682170E+02 0.  0.
         13    1    3    3    0    0  0.77322832208E+02  0.34670016187E+02 -0.14550979670E+03  0.16838625639E+03  0.00000000000E+00 0. -1.
        -14    1    3    3    0    0  0.13977939838E+02  0.83027805082E+02 -0.12837833721E+03  0.15352523142E+03  0.00000000000E+00 0.  1.
        -13    1    4    4    0    0 -0.29397236415E+02  0.33313653268E+02 -0.38565097992E+02  0.58832506202E+02  0.00000000000E+00 0.  1.
         13    1    4    4    0    0 -0.10830018725E+03 -0.41165958809E+02 -0.25790755313E+02  0.11869595521E+03  0.00000000000E+00 0. -1.
          2    1    1    2  501    0  0.46396651623E+02 -0.10984551573E+03  0.10230702123E+03  0.15711592281E+03  0.00000000000E+00 0. -1.
<scales pt_clust_5="13000.00000" pt_clust_6="13000.00000" pt_clust_7="13000.00000" pt_clust_8="13000.00000" pt_clust_9="119.24213"></scales>
<clustering>
<clus scale="   80.148">  5  6 -1 -1</clus>
<clus scale="   91.392">  7  8 -1 -1</clus>
<clus scale="  119.242">  1  9  2 -1</clus>
<clus scale="  157.146">  2  5  1 -1</clus>
<clus scale="  119.242">  1  5  2 -1</clus>
</clustering>
</event>
<event>
 9    1  0.6270443E-005  0.1510203E+03  0.7546771E-02  0.1212579E+00
         21   -1    0    0  501  502  0.00000000000E+00  0.00000000000E+00  0.16906594735E+03  0.16906594735E+03  0.00000000000E+00 0. -1.
         -2   -1    0    0    0  501 -0.00000000000E+00 -0.00000000000E+00 -0.32082068012E+03  0.32082068012E+03  0.00000000000E+00 0.  1.
         23    2    1    2    0    0 -0.23783392008E+02 -0.61140869605E+02  0.52789492094E+02  0.12501730391E+03  0.92405303587E+02 0.  0.
        -24    2    1    2    0    0 -0.10939765038E+03  0.70333743456E+02 -0.16783453298E+03  0.22641608069E+03  0.78620161273E+02 0.  0.
         13    1    4    4    0    0 -0.81026631337E+01  0.20360684560E+02  0.24774250315E+01  0.22053304977E+02  0.00000000000E+00 0. -1.
        -14    1    4    4    0    0 -0.10129498725E+03  0.49973058896E+02 -0.17031195801E+03  0.20436277572E+03  0.00000000000E+00 0.  1.
        -13    1    3    3    0    0  0.69336323485E+01 -0.77134879698E+02  0.27692159084E+02  0.82247921544E+02  0.00000000000E+00 0. -1.
         13    1    3    3    0    0 -0.30717024356E+02  0.15994010093E+02  0.25097333010E+02  0.42769382371E+02  0.00000000000E+00 0.  1.
         -1    1    1    2    0  502  0.13318104239E+03 -0.91928738511E+01 -0.36709691886E+02  0.13845324286E+03  0.00000000000E+00 0.  1.
<scales pt_clust_5="13000.00000" pt_clust_6="13000.00000" pt_clust_7="13000.00000" pt_clust_8="13000.00000" pt_clust_9="128.94187"></scales>
<clustering>
<clus scale="   78.620">  5  6 -1 -1</clus>
<clus scale="   92.405">  7  8 -1 -1</clus>
<clus scale="  113.325">  2  7  1 -1</clus>
<clus scale="  128.942">  1  9  2 -1</clus>
<clus scale="  128.942">  1  5  2 -1</clus>
</clustering>
</event>
<event>
 9    1  0.6270443E-005  0.1113301E+03  0.7546771E-02  0.1261736E+00
          1   -1    0    0  502    0 -0.00000000000E+00  0.00000000000E+00  0.11293529386E+03  0.11293529386E+03  0.00000000000E+00 0. -1.
         21   -1    0    0  501  502  0.00000000000E+00 -0.00000000000E+00 -0.24696334755E+03  0.24696334755E+03  0.00000000000E+00 0. -1.
        -24    2    1    2    0    0 -0.50287245238E+02  0.58171534336E+02 -0.29030375669E+02  0.11737041715E+03  0.83787335973E+02 0.  0.
         23    2    1    2    0    0 -0.43408828488E+02 -0.61583519734E+02 -0.84511397740E+02  0.14655800202E+03  0.93060277862E+02 0.  0.
         13    1    3    3    0    0  0.11294928026E+02  0.45211294846E+02 -0.28129948635E+02  0.54432808039E+02  0.00000000000E+00 0. -1.
        -14    1    3    3    0    0 -0.61582173264E+02  0.12960239490E+02 -0.90042703380E+00  0.62937609110E+02  0.00000000000E+00 0.  1.
        -13    1    4    4    0    0  0.29477576920E+02 -0.15415079559E+02 -0.27318949297E+02  0.43045060222E+02  0.00000000000E+00 0.  1.
         13    1    4    4    0    0 -0.72886405408E+02 -0.46168440174E+02 -0.57192448444E+02  0.10351294180E+03  0.00000000000E+00 0. -1.
          2    1    1    2  501    0  0.93696073726E+02  0.34119853975E+01 -0.20486280283E+02  0.95970222235E+02  0.00000000000E+00 0. -1.
<scales pt_clust_5="13000.00000" pt_clust_6="13000.00000" pt_clust_7="13000.00000" pt_clust_8="13000.00000" pt_clust_9="93.75822"></scales>
<clustering>
<clus scale="   83.787">  5  6 -1 -1</clus>
<clus scale="   93.060">  7  8 -1 -1</clus>
<clus scale="   93.758">  2  9  1 -1</clus>
<clus scale="  103.704">  1  5  2 -1</clus>
<clus scale="   93.758">  2  5  1 -1</clus>
</clustering>
</event>
<event>
 9    1  0.6270443E-005  0.1031243E+03  0.7546771E-02  0.1277780E+00
          1   -1    0    0  502    0 -0.00000000000E+00  0.00000000000E+00  0.22173201749E+03  0.22173201749E+03  0.00000000000E+00 0. -1.
         21   -1    0    0  501  502  0.00000000000E+00 -0.00000000000E+00 -0.23028881820E+03  0.23028881820E+03  0.00000000000E+00 0. -1.
        -24    2    1    2    0    0 -0.50635654209E+02 -0.19776831686E+02  0.18104359288E+03  0.20594672455E+03  0.81744591772E+02 0.  0.
         23    2    1    2    0    0  0.52405357772E-01  0.30221411729E+02 -0.78134494373E+02  0.12322297763E+03  0.90363524338E+02 0.  0.
         11    1    3    3    0    0 -0.52136531670E+02 -0.43124669275E+02  0.16272920544E+03  0.17623492655E+03  0.00000000000E+00 0. -1.
        -12    1    3    3    0    0  0.15008774616E+01  0.23347837589E+02  0.18314387442E+02  0.29711798003E+02  0.00000000000E+00 0.  1.
        -13    1    4    4    0    0  0.21535798584E+02 -0.46329270556E+01 -0.79259898699E+02  0.82264124474E+02  0.00000000000E+00 0.  1.
         13    1    4    4    0    0 -0.21483393226E+02  0.34854338784E+02  0.11254043260E+01  0.40958853152E+02  0.00000000000E+00 0. -1.
          2    1    1    2  501    0  0.50583248851E+02 -0.10444580042E+02 -0.11146589922E+03  0.12285113351E+03  0.00000000000E+00 0. -1.
<scales pt_clust_5="13000.00000" pt_clust_6="13000.00000" pt_clust_7="13000.00000" pt_clust_8="13000.00000" pt_clust_9="51.65031"></scales>
<clustering>
<clus scale="   51.650">  2  9  1 -1</clus>
<clus scale="   81.745">  5  6 -1 -1</clus>
<clus scale="   90.364">  7  8 -1 -1</clus>
<clus scale="   95.662">  1  5  2 -1</clus>
<clus scale="   51.650">  2  5  1 -1</clus>
</clustering>
</event>
<event>
 9    1  0.6270443E-005  0.1481140E+03  0.7546771E-02  0.1205232E+00
          1   -1    0    0  502    0 -0.00000000000E+00  0.00000000000E+00  0.18889104342E+04  0.18889104342E+04  0.00000000000E+00 0. -1.
         21   -1    0    0  501  502  0.00000000000E+00 -0.00000000000E+00 -0.22237632731E+02  0.22237632731E+02  0.00000000000E+00 0. -1.
        -24    2    1    2    0    0  0.12331780360E+02 -0.13495447632E+03  0.96615801596E+03  0.97892656278E+03  0.80443272058E+02 0.  0.
         23    2    1    2    0    0 -0.82428072560E+02  0.65671759841E+02  0.46977303568E+03  0.49034817386E+03  0.92991716661E+02 0.  0.
         11    1    3    3    0    0 -0.27680792027E+02 -0.10141833584E+03  0.61865876714E+03  0.62752735020E+03  0.00000000000E+00 0. -1.
        -12    1    3    3    0    0  0.40012572387E+02 -0.33536140472E+02  0.34749924882E+03  0.35139921257E+03  0.00000000000E+00 0.  1.
        -13    1    4    4    0    0 -0.72402286215E+02  0.88779535936E+01  0.16860293731E+03  0.18370590512E+03  0.00000000000E+00 0. -1.
         13    1    4    4    0    0 -0.10025786345E+02  0.56793806247E+02  0.30117009837E+03  0.30664226873E+03  0.00000000000E+00 0.  1.
          2    1    1    2  501    0  0.70096292200E+02  0.69282716475E+02  0.43074174984E+03  0.44187333030E+03  0.00000000000E+00 0. -1.
<scales pt_clust_5="13000.00000" pt_clust_6="13000.00000" pt_clust_7="13000.00000" pt_clust_8="13000.00000" pt_clust_9="98.55752"></scales>
<clustering>
<clus scale="   80.443">  5  6 -1 -1</clus>
<clus scale="   92.992">  7  8 -1 -1</clus>
<clus scale="   98.558">  2  9  1 -1</clus>
<clus scale="  140.575">  1  5  2 -1</clus>
<clus scale="   98.558">  2  5  1 -1</clus>
</clustering>
</event>
<event>
 9    1  0.6270443E-005  0.8987761E+02  0.7546771E-02  0.1306521E+00
         21   -1    0    0  501  502  0.00000000000E+00  0.00000000000E+00  0.36537286221E+02  0.36537286221E+02  0.00000000000E+00 0.  1.
          1   -1    0    0  502    0 -0.00000000000E+00 -0.00000000000E+00 -0.40812391376E+03  0.40812391376E+03  0.00000000000E+00 0. -1.
        -24    2    1    2    0    0 -0.20913085701E+00 -0.24080062026E+02 -0.22242411244E+03  0.23850084643E+03  0.82645476763E+02 0.  0.
         23    2    1    2    0    0 -0.99032424647E+01 -0.41547632646E+01 -0.48596529326E+02  0.10121759321E+03  0.88136497799E+02 0.  0.
         13    1    3    3    0    0  0.19514066870E+02  0.24859367997E+02 -0.61463816911E+02  0.69112862568E+02  0.00000000000E+00 0. -1.
        -14    1    3    3    0    0 -0.19723197727E+02 -0.48939430023E+02 -0.16096029553E+03  0.16938798386E+03  0.00000000000E+00 0.  1.
        -11    1    4    4    0    0  0.33982586041E+01 -0.33223003622E+02  0.96611778908E+01  0.34765708527E+02  0.00000000000E+00 0.  1.
         11    1    4    4    0    0 -0.13301501069E+02  0.29068240357E+02 -0.58257707217E+02  0.66451884686E+02  0.00000000000E+00 0. -1.
          2    1    1    2  501    0  0.10112373322E+02  0.28234825291E+02 -0.10056598577E+03  0.10494276034E+03  0.00000000000E+00 0. -1.
<scales pt_clust_5="13000.00000" pt_clust_6="13000.00000" pt_clust_7="13000.00000" pt_clust_8="13000.00000" pt_clust_9="29.99110"></scales>
<clustering>
<clus scale="   29.991">  1  9  2 -1</clus>
<clus scale="   82.645">  5  6 -1 -1</clus>
<clus scale="   84.500">  2  5  1 -1</clus>
<clus scale="   88.136">  7  8 -1 -1</clus>
<clus scale="   29.991">  1  5  2 -1</clus>
</clustering>
</event>
<event>
 9    1  0.6270443E-005  0.2149133E+03  0.7546771E-02  0.1138295E+00
         21   -1    0    0  501  502  0.00000000000E+00  0.00000000000E+00  0.59477289561E+02  0.59477289561E+02  0.00000000000E+00 0. -1.
          1   -1    0    0  502    0 -0.00000000000E+00 -0.00000000000E+00 -0.10653793642E+04  0.10653793642E+04  0.00000000000E+00 0. -1.
        -24    2    1    2    0    0 -0.15916874760E+03  0.36236649674E+02 -0.33525289940E+03  0.38181748167E+03  0.82111495889E+02 0.  0.
         23    2    1    2    0    0  0.22509069482E+03 -0.50795988624E+02 -0.57483315526E+03  0.62582830587E+03  0.89341248529E+02 0.  0.
         11    1    3    3    0    0 -0.88603552978E+02  0.28282031451E+01 -0.25448426404E+03  0.26948252072E+03  0.00000000000E+00 0. -1.
        -12    1    3    3    0    0 -0.70565194622E+02  0.33408446529E+02 -0.80768635368E+02  0.11233496095E+03  0.00000000000E+00 0.  1.
        -11    1    4    4    0    0  0.93415027059E+02  0.19813502226E+02 -0.26904650316E+03  0.28549074068E+03  0.00000000000E+00 0.  1.
         11    1    4    4    0    0  0.13167566776E+03 -0.70609490850E+02 -0.30578665210E+03  0.34033756519E+03  0.00000000000E+00 0. -1.
          2    1    1    2  501    0 -0.65921947216E+02  0.14559338950E+02 -0.95816019946E+02  0.11721086619E+03  0.00000000000E+00 0. -1.
<scales pt_clust_5="13000.00000" pt_clust_6="13000.00000" pt_clust_7="13000.00000" pt_clust_8="13000.00000" pt_clust_9="67.51057"></scales>
<clustering>
<clus scale="   67.511">  1  9  2 -1</clus>
<clus scale="   82.111">  5  6 -1 -1</clus>
<clus scale="   89.341">  7  8 -1 -1</clus>
<clus scale="  212.010">  2  5  1 -1</clus>
<clus scale="   67.511">  1  5  2 -1</clus>
</clustering>
</event>
<event>
 9    1  0.6270443E-005  0.1048370E+03  0.7546771E-02  0.1278216E+00
         21   -1    0    0  501  502  0.00000000000E+00  0.00000000000E+00  0.22975228942E+03  0.22975228942E+03  0.00000000000E+00 0. -1.
         -4   -1    0    0    0  501 -0.00000000000E+00 -0.00000000000E+00 -0.11876110396E+03  0.11876110396E+03  0.00000000000E+00 0.  1.
         23    2    1    2    0    0  0.59092087934E+02 -0.68336025028E+01 -0.14345960710E+02  0.10819183549E+03  0.89224961184E+02 0.  0.
        -24    2    1    2    0    0 -0.37035118839E+02 -0.71184420483E+02  0.11685977706E+03  0.15880353790E+03  0.71578868447E+02 0.  0.
         13    1    4    4    0    0 -0.33972018878E+02 -0.58516966366E+02  0.12590823082E+03  0.14293780468E+03  0.00000000000E+00 0. -1.
        -14    1    4    4    0    0 -0.30630999606E+01 -0.12667454118E+02 -0.90484537578E+01  0.15865733220E+02  0.00000000000E+00 0.  1.
        -13    1    3    3    0    0  0.24998148234E+02  0.37058909746E+02 -0.25559918945E+02  0.51493491464E+02  0.00000000000E+00 0.  1.
         13    1    3    3    0    0  0.34093939700E+02 -0.43892512249E+02  0.11213958235E+02  0.56698344025E+02  0.00000000000E+00 0. -1.
         -3    1    1    2    0  502 -0.22056969095E+02  0.78018022986E+02  0.84773691165E+01  0.81518019992E+02  0.00000000000E+00 0.  1.
<scales pt_clust_5="13000.00000" pt_clust_6="13000.00000" pt_clust_7="13000.00000" pt_clust_8="13000.00000" pt_clust_9="81.07607"></scales>
<clustering>
<clus scale="   71.579">  5  6 -1 -1</clus>
<clus scale="   81.076">  1  9  2 -1</clus>
<clus scale="   89.225">  7  8 -1 -1</clus>
<clus scale="   90.295">  1  5  2 -1</clus>
<clus scale="   81.076">  1  5  2 -1</clus>
</clustering>
</event>
<event>
 9    1  0.6270443E-005  0.1369532E+03  0.7546771E-02  0.1235031E+00
         21   -1    0    0  501  502  0.00000000000E+00  0.00000000000E+00  0.22954600527E+03  0.22954600527E+03  0.00000000000E+00 0. -1.
          1   -1    0    0  502    0 -0.00000000000E+00 -0.00000000000E+00 -0.19339655956E+03  0.19339655956E+03  0.00000000000E+00 0. -1.
        -24    2    1    2    0    0  0.22657112198E+02  0.51720307680E+02  0.11586910907E+03  0.14991097607E+03  0.76546164820E+02 0.  0.
         23    2    1    2    0    0  0.80980980005E+02 -0.85482489292E+01 -0.10111564000E+03  0.15874043149E+03  0.91340901331E+02 0.  0.
         11    1    3    3    0    0 -0.21657761766E+02  0.34952731946E+02  0.26972627873E+02  0.49175957230E+02  0.00000000000E+00 0. -1.
        -12    1    3    3    0    0  0.44314873963E+02  0.16767575734E+02  0.88896481200E+02  0.10073501884E+03  0.00000000000E+00 0.  1.
        -13    1    4    4    0    0  0.20858077957E+02 -0.16081783207E+02  0.13123604569E+02  0.29426385508E+02  0.00000000000E+00 0.  1.
         13    1    4    4    0    0  0.60122902049E+02  0.75335342776E+01 -0.11423924457E+03  0.12931404599E+03  0.00000000000E+00 0. -1.
          2    1    1    2  501    0 -0.10363809220E+03 -0.43172058751E+02  0.21395976636E+02  0.11429115726E+03  0.00000000000E+00 0. -1.
<scales pt_clust_5="13000.00000" pt_clust_6="13000.00000" pt_clust_7="13000.00000" pt_clust_8="13000.00000" pt_clust_9="102.04422"></scales>
<clustering>
<clus scale="   76.546">  5  6 -1 -1</clus>
<clus scale="   91.341">  7  8 -1 -1</clus>
<clus scale="   95.119">  2  5  1 -1</clus>
<clus scale="  102.044">  1  9  2 -1</clus>
<clus scale="  102.044">  1  5  2 -1</clus>
</clustering>
</event>
<event>
 9    1  0.6270443E-005  0.1419046E+03  0.7546771E-02  0.1212889E+00
         21   -1    0    0  501  502  0.00000000000E+00  0.00000000000E+00  0.22327696241E+03  0.22327696241E+03  0.00000000000E+00 0. -1.
          1   -1    0    0  502    0 -0.00000000000E+00 -0.00000000000E+00 -0.34644305320E+03  0.34644305320E+03  0.00000000000E+00 0. -1.
         23    2    1    2    0    0 -0.56362559512E+02 -0.91779414738E+02 -0.25387580749E+03  0.29017409737E+03  0.90265619525E+02 0.  0.
        -24    2    1    2    0    0  0.40009227525E+02  0.11134866284E+03 -0.34767819425E+01  0.14295747306E+03  0.80159142266E+02 0.  0.
         11    1    4    4    0    0 -0.17906227318E+02  0.91258807669E+01 -0.14748971225E+02  0.24928835286E+02  0.00000000000E+00 0. -1.
        -12    1    4    4    0    0  0.57915454843E+02  0.10222278207E+03  0.11272189282E+02  0.11802863778E+03  0.00000000000E+00 0.  1.
        -11    1    3    3    0    0 -0.34303245508E+02 -0.60570224388E+01 -0.20134658581E+02  0.40234371492E+02  0.00000000000E+00 0.  1.
         11    1    3    3    0    0 -0.22059314004E+02 -0.85722392299E+02 -0.23374114891E+03  0.24993972588E+03  0.00000000000E+00 0. -1.
          2    1    1    2  501    0  0.16353331987E+02 -0.19569248103E+02  0.13418649864E+03  0.13658844518E+03  0.00000000000E+00 0. -1.
<scales pt_clust_5="13000.00000" pt_clust_6="13000.00000" pt_clust_7="13000.00000" pt_clust_8="13000.00000" pt_clust_9="25.50268"></scales>
<clustering>
<clus scale="   25.503">  1  9  2 -1</clus>
<clus scale="   80.159">  5  6 -1 -1</clus>
<clus scale="   90.266">  7  8 -1 -1</clus>
<clus scale="  135.700">  1  5  2 -1</clus>
<clus scale="   25.503">  1  5  2 -1</clus>
</clustering>
</event>
<event>
 9    1  0.6270443E-005  0.1829241E+03  0.7546771E-02  0.1166601E+00
          3   -1    0    0  502    0 -0.00000000000E+00  0.00000000000E+00  0.90843569115E+03  0.90843569115E+03  0.00000000000E+00 0. -1.
         21   -1    0    0  501  502  0.00000000000E+00 -0.00000000000E+00 -0.78783732674E+02  0.78783732674E+02  0.00000000000E+00 0.  1.
         23    2    1    2    0    0  0.44738956268E+02 -0.15870262896E+03  0.62843117646E+03  0.65619247837E+03  0.92058277575E+02 0.  0.
        -24    2    1    2    0    0  0.31290359571E+02  0.14227909594E+03  0.72199861496E+02  0.18037307981E+03  0.78097376241E+02 0.  0.
         13    1    4    4    0    0 -0.60277646823E+01  0.57971443688E+02 -0.71628920237E+01  0.58722476553E+02  0.00000000000E+00 0. -1.
        -14    1    4    4    0    0  0.37318124253E+02  0.84307652250E+02  0.79362753520E+02  0.12165060325E+03  0.00000000000E+00 0.  1.
        -11    1    3    3    0    0 -0.21841549737E+02 -0.87010018298E+02  0.26244445091E+03  0.27735336016E+03  0.00000000000E+00 0.  1.
         11    1    3    3    0    0  0.66580506005E+02 -0.71692610663E+02  0.36598672555E+03  0.37883911821E+03  0.00000000000E+00 0. -1.
          4    1    1    2  501    0 -0.76029315839E+02  0.16423533022E+02  0.12902092051E+03  0.15065386565E+03  0.00000000000E+00 0. -1.
<scales pt_clust_5="13000.00000" pt_clust_6="13000.00000" pt_clust_7="13000.00000" pt_clust_8="13000.00000" pt_clust_9="77.78300"></scales>
<clustering>
<clus scale="   77.783">  2  9  1 -1</clus>
<clus scale="   78.097">  5  6 -1 -1</clus>
<clus scale="   92.058">  7  8 -1 -1</clus>
<clus scale="  176.311">  2  5  1 -1</clus>
<clus scale="   77.783">  2  5  1 -1</clus>
</clustering>
</event>
<event>
 9    1  0.6270443E-005  0.1034440E+03  0.7546771E-02  0.1279583E+00
          1   -1    0    0  502    0 -0.00000000000E+00  0.00000000000E+00  0.19698777434E+03  0.19698777434E+03  0.00000000000E+00 0. -1.
         21   -1    0    0  501  502  0.00000000000E+00 -0.00000000000E+00 -0.13214165174E+03  0.13214165174E+03  0.00000000000E+00 0. -1.
         23    2    1    2    0    0  0.39222340602E+02  0.29563295990E+02  0.14633618349E+03  0.17990604814E+03  0.92409561671E+02 0.  0.
        -24    2    1    2    0    0 -0.39061028782E+02  0.17022610012E+01 -0.78235158133E+02  0.11778843770E+03  0.78896859413E+02 0.  0.
         13    1    4    4    0    0 -0.52511618558E+02  0.39371971064E+01 -0.86916680040E+02  0.10162421401E+03  0.00000000000E+00 0. -1.
        -14    1    4    4    0    0  0.13450589776E+02 -0.22349361052E+01  0.86815219069E+01  0.16164223685E+02  0.00000000000E+00 0.  1.
        -11    1    3    3    0    0 -0.16873670374E+02  0.23385371590E+02  0.10774626892E+03  0.11153857998E+03  0.00000000000E+00 0.  1.
         11    1    3    3    0    0  0.56096010976E+02  0.61779244006E+01  0.38589914566E+02  0.68367468167E+02  0.00000000000E+00 0. -1.
          2    1    1    2  501    0 -0.16131182064E+00 -0.31265556991E+02 -0.32549027555E+01  0.31434940233E+02  0.00000000000E+00 0. -1.
<scales pt_clust_5="13000.00000" pt_clust_6="13000.00000" pt_clust_7="13000.00000" pt_clust_8="13000.00000" pt_clust_9="31.26597"></scales>
<clustering>
<clus scale="   31.266">  2  9  1 -1</clus>
<clus scale="   78.897">  5  6 -1 -1</clus>
<clus scale="   91.574">  2  5  1 -1</clus>
<clus scale="   92.410">  7  8 -1 -1</clus>
<clus scale="   31.266">  2  5  1 -1</clus>
</clustering>
</event>
<event>
 9    1  0.6270443E-005  0.1928321E+03  0.7546771E-02  0.1180949E+00
         21   -1    0    0  501  502  0.00000000000E+00  0.00000000000E+00  0.55384779596E+02  0.55384779596E+02  0.00000000000E+00 0.  1.
         -4   -1    0    0    0  501 -0.00000000000E+00 -0.00000000000E+00 -0.10478397838E+04  0.10478397838E+04  0.00000000000E+00 0.  1.
        -24    2    1    2    0    0  0.83853418221E+01 -0.71543729317E+02 -0.28820307563E+03  0.30799616327E+03  0.81313004022E+02 0.  0.
         23    2    1    2    0    0  0.82093458656E+02  0.18039636395E+03 -0.34131736730E+03  0.40566864198E+03  0.93740694380E+02 0.  0.
         11    1    3    3    0    0  0.28460076633E+02 -0.30360779157E+02 -0.23094636708E+03  0.23466567141E+03  0.00000000000E+00 0. -1.
        -12    1    3    3    0    0 -0.20074734811E+02 -0.41182950159E+02 -0.57256708553E+02  0.73330491856E+02  0.00000000000E+00 0.  1.
        -13    1    4    4    0    0  0.22126184575E+02 -0.27647205500E+01 -0.15634651094E+02  0.27233325878E+02  0.00000000000E+00 0. -1.
         13    1    4    4    0    0  0.59967274082E+02  0.18316108450E+03 -0.32568271621E+03  0.37843531610E+03  0.00000000000E+00 0.  1.
         -3    1    1    2    0  502 -0.90478800478E+02 -0.10885263463E+03 -0.36293456128E+03  0.38955975815E+03  0.00000000000E+00 0.  1.
<scales pt_clust_5="13000.00000" pt_clust_6="13000.00000" pt_clust_7="13000.00000" pt_clust_8="13000.00000" pt_clust_9="168.51391"></scales>
<clustering>
<clus scale="   81.313">  5  6 -1 -1</clus>
<clus scale="   93.741">  7  8 -1 -1</clus>
<clus scale="  108.631">  2  5  1 -1</clus>
<clus scale="  168.514">  1  9  2 -1</clus>
<clus scale="  168.514">  1  5  2 -1</clus>
</clustering>
</event>
<event>
 9    1  0.6270443E-005  0.2025409E+03  0.7546771E-02  0.1168645E+00
         -4   -1    0    0    0  501 -0.00000000000E+00  0.00000000000E+00  0.29591169743E+03  0.29591169743E+03  0.00000000000E+00 0.  1.
         21   -1    0    0  501  502  0.00000000000E+00 -0.00000000000E+00 -0.28168717511E+03  0.28168717511E+03  0.00000000000E+00 0.  1.
        -24    2    1    2    0    0 -0.46866026564E+02 -0.81400338846E+02 -0.78203687595E+02  0.14653712475E+03  0.80838558669E+02 0.  0.
         23    2    1    2    0    0  0.19379812938E+03 -0.20226513784E+02  0.12340910033E+03  0.24974193204E+03  0.95783087044E+02 0.  0.
         11    1    3    3    0    0 -0.97991374246E+01 -0.33012942169E+02 -0.78349844656E+02  0.85583734450E+02  0.00000000000E+00 0. -1.
        -12    1    3    3    0    0 -0.37066889140E+02 -0.48387396677E+02  0.14615706056E+00  0.60953390304E+02  0.00000000000E+00 0.  1.
        -13    1    4    4    0    0  0.88836519977E+02 -0.53076780977E+02  0.37088239354E+02  0.10993002074E+03  0.00000000000E+00 0. -1.
         13    1    4    4    0    0  0.10496160940E+03  0.32850267192E+02  0.86320860974E+02  0.13981191130E+03  0.00000000000E+00 0.  1.
         -3    1    1    2    0  502 -0.14693210281E+03  0.10162685263E+03 -0.30980890406E+02  0.18131981575E+03  0.00000000000E+00 0.  1.
<scales pt_clust_5="13000.00000" pt_clust_6="13000.00000" pt_clust_7="13000.00000" pt_clust_8="13000.00000" pt_clust_9="178.46127"></scales>
<clustering>
<clus scale="   80.839">  5  6 -1 -1</clus>
<clus scale="   95.783">  7  8 -1 -1</clus>
<clus scale="  123.925">  1  5  2 -1</clus>
<clus scale="  178.461">  2  9  1 -1</clus>
<clus scale="  178.461">  2  5  1 -1</clus>
</clustering>
</event>
<event>
 9    1  0.6270443E-005  0.9459466E+02  0.7546771E-02  0.1292506E+00
         21   -1    0    0  501  502  0.00000000000E+00  0.00000000000E+00  0.88369801832E+02  0.88369801832E+02  0.00000000000E+00 0. -1.
          1   -1    0    0  502    0 -0.00000000000E+00 -0.00000000000E+00 -0.30587445906E+03  0.30587445906E+03  0.00000000000E+00 0. -1.
        -24    2    1    2    0    0  0.34349368949E+02  0.49024499911E+02 -0.20469970349E+03  0.22836621054E+03  0.81644820822E+02 0.  0.
         23    2    1    2    0    0  0.28306827137E+01  0.98906683970E+01  0.26792776094E+02  0.85744826869E+02  0.80799037110E+02 0.  0.
         11    1    3    3    0    0  0.37712448614E+02  0.58333292668E+02 -0.92228672296E+02  0.11546051190E+03  0.00000000000E+00 0. -1.
        -12    1    3    3    0    0 -0.33630796651E+01 -0.93087927571E+01 -0.11247103119E+03  0.11290569864E+03  0.00000000000E+00 0.  1.
        -13    1    4    4    0    0 -0.13644169144E+02  0.41512517545E+02  0.50644103460E+01  0.43989779685E+02  0.00000000000E+00 0.  1.
         13    1    4    4    0    0  0.16474851857E+02 -0.31621849148E+02  0.21728365748E+02  0.41755047184E+02  0.00000000000E+00 0. -1.
          2    1    1    2  501    0 -0.37180051663E+02 -0.58915168308E+02 -0.39597729832E+02  0.80133223486E+02  0.00000000000E+00 0. -1.
<scales pt_clust_5="13000.00000" pt_clust_6="13000.00000" pt_clust_7="13000.00000" pt_clust_8="13000.00000" pt_clust_9="69.66601"></scales>
<clustering>
<clus scale="   69.666">  1  9  2 -1</clus>
<clus scale="   80.799">  7  8 -1 -1</clus>
<clus scale="   81.645">  5  6 -1 -1</clus>
<clus scale="   93.866">  1  7  2 -1</clus>
<clus scale="   69.666">  1  5  2 -1</clus>
</clustering>
</event>
<event>
 9    1  0.6270443E-005  0.9967470E+02  0.7546771E-02  0.1282748E+00
          1   -1    0    0  502    0 -0.00000000000E+00  0.00000000000E+00  0.28715007736E+03  0.28715007736E+03  0.00000000000E+00 0. -1.
         21   -1    0    0  501  502  0.00000000000E+00 -0.00000000000E+00 -0.73965796689E+02  0.73965796689E+02  0.00000000000E+00 0.  1.
         23    2    1    2    0    0  0.60058027700E+02  0.14701553220E+02  0.14512094839E+03  0.17903584307E+03  0.84679637972E+02 0.  0.
        -24    2    1    2    0    0 -0.19994618901E+02 -0.17374483335E+02 -0.18186013041E+02  0.86942389374E+02  0.80787316725E+02 0.  0.
         11    1    4    4    0    0 -0.15512782306E+02 -0.41640884250E+02  0.13812544911E+02  0.46533816230E+02  0.00000000000E+00 0. -1.
        -12    1    4    4    0    0 -0.44818365953E+01  0.24266400914E+02 -0.31998557952E+02  0.40408573145E+02  0.00000000000E+00 0.  1.
        -13    1    3    3    0    0 -0.14319188250E+02  0.25939740452E+02  0.40919008020E+02  0.50520040620E+02  0.00000000000E+00 0.  1.
         13    1    3    3    0    0  0.74377215951E+02 -0.11238187232E+02  0.10420194037E+03  0.12851580246E+03  0.00000000000E+00 0. -1.
          2    1    1    2  501    0 -0.40063408800E+02  0.26729301155E+01  0.86249345331E+02  0.95137641604E+02  0.00000000000E+00 0. -1.
<scales pt_clust_5="13000.00000" pt_clust_6="13000.00000" pt_clust_7="13000.00000" pt_clust_8="13000.00000" pt_clust_9="40.15250"></scales>
<clustering>
<clus scale="   40.152">  2  9  1 -1</clus>
<clus scale="   80.787">  5  6 -1 -1</clus>
<clus scale="   84.680">  7  8 -1 -1</clus>
<clus scale="   96.390">  2  5  1 -1</clus>
<clus scale="   40.152">  2  5  1 -1</clus>
</clustering>
</event>
<event>
 9    1  0.6270443E-005  0.9243276E+02  0.7546771E-02  0.1299993E+00
          1   -1    0    0  502    0 -0.00000000000E+00  0.00000000000E+00  0.62163203462E+03  0.62163203462E+03  0.00000000000E+00 0. -1.
         21   -1    0    0  501  502  0.00000000000E+00 -0.00000000000E+00 -0.21589792720E+02  0.21589792720E+02  0.00000000000E+00 0.  1.
         23    2    1    2    0    0 -0.17294015474E+02  0.70158162999E+00  0.22206659678E+03  0.23832517955E+03  0.84768759653E+02 0.  0.
        -24    2    1    2    0    0  0.58783828722E+02  0.16018365124E+02  0.24822452319E+03  0.26765119298E+03  0.79433120631E+02 0.  0.
         11    1    4    4    0    0 -0.76204387482E+01 -0.19122608673E+02  0.26575539708E+02  0.33615540454E+02  0.00000000000E+00 0. -1.
        -12    1    4    4    0    0  0.66404267470E+02  0.35140973798E+02  0.22164898348E+03  0.23403565253E+03  0.00000000000E+00 0.  1.
        -11    1    3    3    0    0 -0.23580328496E+02 -0.36284854153E+02  0.16047236184E+03  0.16620469743E+03  0.00000000000E+00 0.  1.
         11    1    3    3    0    0  0.62863130225E+01  0.36986435783E+02  0.61594234945E+02  0.72120482124E+02  0.00000000000E+00 0. -1.
          2    1    1    2  501    0 -0.41489813248E+02 -0.16719946754E+02  0.12975112193E+03  0.13724545480E+03  0.00000000000E+00 0. -1.
<scales pt_clust_5="13000.00000" pt_clust_6="13000.00000" pt_clust_7="13000.00000" pt_clust_8="13000.00000" pt_clust_9="44.73213"></scales>
<clustering>
<clus scale="   44.732">  2  9  1 -1</clus>
<clus scale="   79.433">  5  6 -1 -1</clus>
<clus scale="   84.769">  7  8 -1 -1</clus>
<clus scale="   87.565">  2  5  1 -1</clus>
<clus scale="   44.732">  2  5  1 -1</clus>
</clustering>
</event>
<event>
 9    1  0.6270443E-005  0.1692604E+03  0.7546771E-02  0.1181164E+00
         21   -1    0    0  501  502  0.00000000000E+00  0.00000000000E+00  0.70269566480E+03  0.70269566480E+03  0.00000000000E+00 0. -1.
         -4   -1    0    0    0  501 -0.00000000000E+00 -0.00000000000E+00 -0.67612155417E+02  0.67612155417E+02  0.00000000000E+00 0.  1.
         23    2    1    2    0    0 -0.68249310528E+02 -0.12549637322E+03  0.90370808789E+02  0.19521378021E+03  0.97643375723E+02 0.  0.
        -24    2    1    2    0    0  0.38739014205E+02  0.11725841238E+03  0.49725301083E+03  0.51860383076E+03  0.80244189889E+02 0.  0.
         11    1    4    4    0    0  0.29243701089E+02  0.10325250550E+03  0.48729146182E+03  0.49896817805E+03  0.00000000000E+00 0. -1.
        -12    1    4    4    0    0  0.94953131164E+01  0.14005906888E+02  0.99615490091E+01  0.19635652716E+02  0.00000000000E+00 0.  1.
        -13    1    3    3    0    0  0.21307367332E+02 -0.53036974815E+02  0.21941970559E+02  0.61223971386E+02  0.00000000000E+00 0. -1.
         13    1    3    3    0    0 -0.89556677860E+02 -0.72459398406E+02  0.68428838230E+02  0.13398980882E+03  0.00000000000E+00 0.  1.
         -3    1    1    2    0  502  0.29510296323E+02  0.82379608367E+01  0.47459689769E+02  0.56490209247E+02  0.00000000000E+00 0.  1.
<scales pt_clust_5="13000.00000" pt_clust_6="13000.00000" pt_clust_7="13000.00000" pt_clust_8="13000.00000" pt_clust_9="30.63856"></scales>
<clustering>
<clus scale="   30.639">  1  9  2 -1</clus>
<clus scale="   80.244">  5  6 -1 -1</clus>
<clus scale="   97.643">  7  8 -1 -1</clus>
<clus scale="  159.856">  1  5  2 -1</clus>
<clus scale="   30.639">  1  5  2 -1</clus>
</clustering>
</event>
<event>
 9    1  0.6270443E-005  0.1146253E+03  0.7546771E-02  0.1259115E+00
          1   -1    0    0  502    0 -0.00000000000E+00  0.00000000000E+00  0.56401283345E+03  0.56401283345E+03  0.00000000000E+00 0. -1.
         21   -1    0    0  501  502  0.00000000000E+00 -0.00000000000E+00 -0.55925710497E+02  0.55925710497E+02  0.00000000000E+00 0. -1.
        -24    2    1    2    0    0 -0.76495746621E+02  0.10372107365E+02  0.14371178902E+03  0.18232801222E+03  0.81432462041E+02 0.  0.
         23    2    1    2    0    0  0.74906745334E+02  0.82830805902E+02  0.11307877494E+03  0.16958204719E+03  0.59154868622E+02 0.  0.
         11    1    3    3    0    0 -0.48322165557E+02  0.11251934266E+02  0.14585169870E+03  0.15405958497E+03  0.00000000000E+00 0. -1.
        -12    1    3    3    0    0 -0.28173581064E+02 -0.87982690086E+00 -0.21399096821E+01  0.28268427243E+02  0.00000000000E+00 0.  1.
        -13    1    4    4    0    0  0.78239814749E+02  0.56127555877E+02  0.10258941083E+03  0.14069953218E+03  0.00000000000E+00 0. -1.
         13    1    4    4    0    0 -0.33330694150E+01  0.26703250025E+02  0.10489364116E+02  0.28882515008E+02  0.00000000000E+00 0.  1.
          2    1    1    2  501    0  0.15890012869E+01 -0.93202913267E+02  0.25129655900E+03  0.26802848455E+03  0.00000000000E+00 0. -1.
<scales pt_clust_5="13000.00000" pt_clust_6="13000.00000" pt_clust_7="13000.00000" pt_clust_8="13000.00000" pt_clust_9="93.21650"></scales>
<clustering>
<clus scale="   59.155">  7  8 -1 -1</clus>
<clus scale="   81.432">  5  6 -1 -1</clus>
<clus scale="   93.217">  2  9  1 -1</clus>
<clus scale="  100.035">  2  7  1 -1</clus>
<clus scale="   93.217">  2  5  1 -1</clus>
</clustering>
</event>
<event>
 9    1  0.6270443E-005  0.1268456E+03  0.7546771E-02  0.1235887E+00
         21   -1    0    0  501  502  0.00000000000E+00  0.00000000000E+00  0.17363009480E+03  0.17363009480E+03  0.00000000000E+00 0. -1.
          1   -1    0    0  502    0 -0.00000000000E+00 -0.00000000000E+00 -0.29769700826E+03  0.29769700826E+03  0.00000000000E+00 0. -1.
        -24    2    1    2    0    0  0.17173871114E+02 -0.89084167956E+02 -0.20360433750E+03  0.23724564815E+03  0.81239402316E+02 0.  0.
         23    2    1    2    0    0 -0.57720972421E+02  0.54080764011E+02 -0.16600739802E+02  0.12402759419E+03  0.94078796047E+02 0.  0.
         13    1    3    3    0    0  0.48125565279E+02 -0.38011858720E+02 -0.90120164497E+02  0.10900741023E+03  0.00000000000E+00 0. -1.
        -14    1    3    3    0    0 -0.30951694165E+02 -0.51072309235E+02 -0.11348417300E+03  0.12823823791E+03  0.00000000000E+00 0.  1.
        -13    1    4    4    0    0 -0.40826955776E+02  0.38082063119E+02  0.36054611906E+02  0.66460656700E+02  0.00000000000E+00 0.  1.
         13    1    4    4    0    0 -0.16894016645E+02  0.15998700892E+02 -0.52655351708E+02  0.57566937491E+02  0.00000000000E+00 0. -1.
          2    1    1    2  501    0  0.40547101307E+02  0.35003403945E+02  0.96138163845E+02  0.11005386072E+03  0.00000000000E+00 0. -1.
<scales pt_clust_5="13000.00000" pt_clust_6="13000.00000" pt_clust_7="13000.00000" pt_clust_8="13000.00000" pt_clust_9="53.56590"></scales>
<clustering>
<clus scale="   53.566">  1  9  2 -1</clus>
<clus scale="   81.239">  5  6 -1 -1</clus>
<clus scale="   94.079">  7  8 -1 -1</clus>
<clus scale="  117.639">  2  5  1 -1</clus>
<clus scale="   53.566">  1  5  2 -1</clus>
</clustering>
</event>
<event>
 9    1  0.6270443E-005  0.1478153E+03  0.7546771E-02  0.1225232E+00
         21   -1    0    0  501  502  0.00000000000E+00  0.00000000000E+00  0.12220999404E+03  0.12220999404E+03  0.00000000000E+00 0. -1.
          1   -1    0    0  502    0 -0.00000000000E+00 -0.00000000000E+00 -0.28250621053E+03  0.28250621053E+03  0.00000000000E+00 0. -1.
         23    2    1    2    0    0 -0.19451917779E+02 -0.85476296317E+00 -0.55145153859E+02  0.10778823117E+03  0.90543950988E+02 0.  0.
        -24    2    1    2    0    0  0.13373372112E+02  0.12432702571E+03 -0.28206811928E+02  0.15131627709E+03  0.80404819943E+02 0.  0.
         13    1    4    4    0    0  0.19534280651E+02  0.67163966202E+02  0.23704289529E+02  0.73854450229E+02  0.00000000000E+00 0. -1.
        -14    1    4    4    0    0 -0.61609085391E+01  0.57163059507E+02 -0.51911101457E+02  0.77461826862E+02  0.00000000000E+00 0.  1.
        -13    1    3    3    0    0 -0.48003837144E+00 -0.42231607664E+02 -0.94268722062E+01  0.43273606763E+02  0.00000000000E+00 0. -1.
         13    1    3    3    0    0 -0.18971879408E+02  0.41376844700E+02 -0.45718281653E+02  0.64514624411E+02  0.00000000000E+00 0.  1.
          2    1    1    2  501    0  0.60785456679E+01 -0.12347226275E+03 -0.76944250703E+02  0.14561169631E+03  0.00000000000E+00 0. -1.
<scales pt_clust_5="13000.00000" pt_clust_6="13000.00000" pt_clust_7="13000.00000" pt_clust_8="13000.00000" pt_clust_9="124.03409"></scales>
<clustering>
<clus scale="   80.405">  5  6 -1 -1</clus>
<clus scale="   90.544">  7  8 -1 -1</clus>
<clus scale="   92.614">  2  7  1 -1</clus>
<clus scale="  124.034">  1  9  2 -1</clus>
<clus scale="  124.034">  1  5  2 -1</clus>
</clustering>
</event>
<event>
 9    1  0.6270443E-005  0.1399586E+03  0.7546771E-02  0.1218539E+00
         -4   -1    0    0    0  501 -0.00000000000E+00  0.00000000000E+00  0.60610483848E+02  0.60610483848E+02  0.00000000000E+00 0.  1.
         21   -1    0    0  501  502  0.00000000000E+00 -0.00000000000E+00 -0.60960563356E+03  0.60960563356E+03  0.00000000000E+00 0. -1.
         23    2    1    2    0    0 -0.84383043941E+02 -0.21738073421E+02 -0.63214672732E+02  0.15019325460E+03  0.10473240635E+03 0.  0.
        -24    2    1    2    0    0  0.11608869655E+03  0.19307380042E+02 -0.44693180995E+03  0.46981952021E+03  0.84456962013E+02 0.  0.
         11    1    4    4    0    0  0.12538856847E+03  0.20979479315E+02 -0.44027144175E+03  0.45825906874E+03  0.00000000000E+00 0. -1.
        -12    1    4    4    0    0 -0.92998719226E+01 -0.16720992724E+01 -0.66603682026E+01  0.11560451477E+02  0.00000000000E+00 0.  1.
        -13    1    3    3    0    0 -0.48847652656E+02 -0.63952353779E+02 -0.30597247862E+02  0.86094066581E+02  0.00000000000E+00 0.  1.
         13    1    3    3    0    0 -0.35535391286E+02  0.42214280358E+02 -0.32617424870E+02  0.64099188023E+02  0.00000000000E+00 0. -1.
         -3    1    1    2    0  502 -0.31705652608E+02  0.24306933781E+01 -0.38848667024E+02  0.50203342590E+02  0.00000000000E+00 0.  1.
<scales pt_clust_5="13000.00000" pt_clust_6="13000.00000" pt_clust_7="13000.00000" pt_clust_8="13000.00000" pt_clust_9="31.79871"></scales>
<clustering>
<clus scale="   31.799">  2  9  1 -1</clus>
<clus scale="   84.457">  5  6 -1 -1</clus>
<clus scale="  104.732">  7  8 -1 -1</clus>
<clus scale="  125.509">  2  5  1 -1</clus>
<clus scale="   31.799">  2  5  1 -1</clus>
</clustering>
</event>
<event>
 9    1  0.6270443E-005  0.1110847E+03  0.7546771E-02  0.1263173E+00
         21   -1    0    0  501  502  0.00000000000E+00  0.00000000000E+00  0.55969114206E+02  0.55969114206E+02  0.00000000000E+00 0. -1.
          1   -1    0    0  502    0 -0.00000000000E+00 -0.00000000000E+00 -0.38485961132E+03  0.38485961132E+03  0.00000000000E+00 0. -1.
         23    2    1    2    0    0 -0.68365255784E+02  0.86890290302E+00 -0.26897109258E+03  0.29265442450E+03  0.92879493662E+02 0.  0.
        -24    2    1    2    0    0  0.37058854776E+02 -0.23169019562E+02 -0.23303762164E+02  0.95088604149E+02  0.81170284730E+02 0.  0.
         11    1    4    4    0    0 -0.20410736134E+02 -0.29242975992E+01  0.12795347519E+02  0.24266655809E+02  0.00000000000E+00 0. -1.
        -12    1    4    4    0    0  0.57469590911E+02 -0.20244721963E+02 -0.36099109683E+02  0.70821948340E+02  0.00000000000E+00 0.  1.
        -13    1    3    3    0    0  0.11991463434E+02 -0.24207543395E+02 -0.10395355464E+03  0.10740643311E+03  0.00000000000E+00 0.  1.
         13    1    3    3    0    0 -0.80356719218E+02  0.25076446298E+02 -0.16501753794E+03  0.18524799138E+03  0.00000000000E+00 0. -1.
          2    1    1    2  501    0  0.31306401008E+02  0.22300116659E+02 -0.36615642367E+02  0.53085696878E+02  0.00000000000E+00 0. -1.
<scales pt_clust_5="13000.00000" pt_clust_6="13000.00000" pt_clust_7="13000.00000" pt_clust_8="13000.00000" pt_clust_9="38.43678"></scales>
<clustering>
<clus scale="   38.437">  1  9  2 -1</clus>
<clus scale="   81.170">  5  6 -1 -1</clus>
<clus scale="   92.879">  7  8 -1 -1</clus>
<clus scale="  101.498">  1  5  2 -1</clus>
<clus scale="   38.437">  1  5  2 -1</clus>
</clustering>
</event>
<event>
 9    1  0.6270443E-005  0.1299963E+03  0.7546771E-02  0.1230090E+00
         21   -1    0    0  501  502  0.00000000000E+00  0.00000000000E+00  0.27886981478E+02  0.27886981478E+02  0.00000000000E+00 0.  1.
          1   -1    0    0  502    0 -0.00000000000E+00 -0.00000000000E+00 -0.77369843340E+03  0.77369843340E+03  0.00000000000E+00 0. -1.
        -24    2    1    2    0    0  0.85010994641E+02 -0.39593602972E+02 -0.37262522796E+03  0.39295011659E+03  0.82253942226E+02 0.  0.
         23    2    1    2    0    0 -0.90994927005E+02  0.89352862967E+01 -0.25213546264E+03  0.28361919274E+03  0.92236862969E+02 0.  0.
         13    1    3    3    0    0  0.34476028611E+02  0.11289208356E+02 -0.46203242421E+02  0.58743360342E+02  0.00000000000E+00 0. -1.
        -14    1    3    3    0    0  0.50534966030E+02 -0.50882811328E+02 -0.32642198554E+03  0.33420675625E+03  0.00000000000E+00 0.  1.
        -11    1    4    4    0    0 -0.82926497285E+02 -0.15483494192E+02 -0.10716357223E+03  0.13638392045E+03  0.00000000000E+00 0.  1.
         11    1    4    4    0    0 -0.80684297201E+01  0.24418780489E+02 -0.14497189040E+03  0.14723527229E+03  0.00000000000E+00 0. -1.
          2    1    1    2  501    0  0.59839323638E+01  0.30658316676E+02 -0.12105076133E+03  0.12501610555E+03  0.00000000000E+00 0. -1.
<scales pt_clust_5="13000.00000" pt_clust_6="13000.00000" pt_clust_7="13000.00000" pt_clust_8="13000.00000" pt_clust_9="31.23685"></scales>
<clustering>
<clus scale="   31.237">  1  9  2 -1</clus>
<clus scale="   82.254">  5  6 -1 -1</clus>
<clus scale="   92.237">  7  8 -1 -1</clus>
<clus scale="  123.114">  2  5  1 -1</clus>
<clus scale="   31.237">  1  5  2 -1</clus>
</clustering>
</event>
<event>
 9    1  0.6270443E-005  0.1257486E+03  0.7546771E-02  0.1237233E+00
          1   -1    0    0  502    0 -0.00000000000E+00  0.00000000000E+00  0.32432193085E+03  0.32432193085E+03  0.00000000000E+00 0. -1.
         21   -1    0    0  501  502  0.00000000000E+00 -0.00000000000E+00 -0.10478653326E+03  0.10478653326E+03  0.00000000000E+00 0. -1.
         23    2    1    2    0    0  0.16872106505E+02  0.81623988992E+02  0.21866972595E+03  0.25045924413E+03  0.89253797501E+02 0.  0.
        -24    2    1    2    0    0 -0.46895416575E+02 -0.10517531748E+03 -0.10001317608E+02  0.13897358922E+03  0.77153124650E+02 0.  0.
         13    1    4    4    0    0 -0.52825446916E+02 -0.89375879577E+02 -0.34344350892E+02  0.10935314413E+03  0.00000000000E+00 0. -1.
        -14    1    4    4    0    0  0.59300303411E+01 -0.15799437900E+02  0.24343033284E+02  0.29620445089E+02  0.00000000000E+00 0.  1.
        -11    1    3    3    0    0  0.38960251936E+02  0.89700087461E+02  0.18680073597E+03  0.21085189561E+03  0.00000000000E+00 0. -1.
         11    1    3    3    0    0 -0.22088145432E+02 -0.80760984693E+01  0.31868989975E+02  0.39607348524E+02  0.00000000000E+00 0.  1.
          2    1    1    2  501    0  0.30023310071E+02  0.23551328485E+02  0.10866989246E+02  0.39675630761E+02  0.00000000000E+00 0. -1.
<scales pt_clust_5="13000.00000" pt_clust_6="13000.00000" pt_clust_7="13000.00000" pt_clust_8="13000.00000" pt_clust_9="38.15841"></scales>
<clustering>
<clus scale="   38.158">  2  9  1 -1</clus>
<clus scale="   77.153">  5  6 -1 -1</clus>
<clus scale="   89.254">  7  8 -1 -1</clus>
<clus scale="  117.470">  2  5  1 -1</clus>
<clus scale="   38.158">  2  5  1 -1</clus>
</clustering>
</event>
<event>
 9    1  0.6270443E-005  0.9394279E+02  0.7546771E-02  0.1301555E+00
         21   -1    0    0  501  502  0.00000000000E+00  0.00000000000E+00  0.91970392657E+02  0.91970392657E+02  0.00000000000E+00 0. -1.
          1   -1    0    0  502    0 -0.00000000000E+00 -0.00000000000E+00 -0.44110789471E+03  0.44110789471E+03  0.00000000000E+00 0. -1.
        -24    2    1    2    0    0 -0.37891570406E+01  0.32001928623E+01 -0.28322732467E+03  0.29434133387E+03  0.79965645345E+02 0.  0.
         23    2    1    2    0    0 -0.30313007824E+02 -0.50372695303E+02 -0.11748494362E+03  0.16096704192E+03  0.93012847138E+02 0.  0.
         11    1    3    3    0    0 -0.18369114198E+02 -0.34804598162E+02 -0.13357241833E+03  0.13924932800E+03  0.00000000000E+00 0. -1.
        -12    1    3    3    0    0  0.14579957157E+02  0.38004791024E+02 -0.14965490634E+03  0.15509200587E+03  0.00000000000E+00 0.  1.
        -11    1    4    4    0    0 -0.52676642621E+02 -0.22804251498E+02 -0.11088330428E+03  0.12485980030E+03  0.00000000000E+00 0. -1.
         11    1    4    4    0    0  0.22363634798E+02 -0.27568443806E+02 -0.66016393382E+01  0.36107241617E+02  0.00000000000E+00 0.  1.
          2    1    1    2  501    0  0.34102164865E+02  0.47172502441E+02  0.51574766236E+02  0.77769911581E+02  0.00000000000E+00 0. -1.
<scales pt_clust_5="13000.00000" pt_clust_6="13000.00000" pt_clust_7="13000.00000" pt_clust_8="13000.00000" pt_clust_9="58.20827"></scales>
<clustering>
<clus scale="   58.208">  1  9  2 -1</clus>
<clus scale="   79.966">  5  6 -1 -1</clus>
<clus scale="   81.045">  2  5  1 -1</clus>
<clus scale="   93.013">  7  8 -1 -1</clus>
<clus scale="   58.208">  1  5  2 -1</clus>
</clustering>
</event>
<event>
 9    1  0.6270443E-005  0.1148717E+03  0.7546771E-02  0.1253698E+00
          1   -1    0    0  502    0 -0.00000000000E+00  0.00000000000E+00  0.41358929187E+02  0.41358929187E+02  0.00000000000E+00 0. -1.
         21   -1    0    0  501  502  0.00000000000E+00 -0.00000000000E+00 -0.53202294467E+03  0.53202294467E+03  0.00000000000E+00 0.  1.
         23    2    1    2    0    0  0.50650031247E+02  0.63058227304E+02 -0.77720084873E+02  0.14155826819E+03  0.86351409969E+02 0.  0.
        -24    2    1    2    0    0 -0.27555014356E+02 -0.55104421549E+02 -0.31847116665E+03  0.33424417156E+03  0.80619514657E+02 0.  0.
         13    1    4    4    0    0 -0.42076549006E+02 -0.18810954143E+02 -0.77866715860E+02  0.90484879459E+02  0.00000000000E+00 0. -1.
        -14    1    4    4    0    0  0.14521534649E+02 -0.36293467406E+02 -0.24060445080E+03  0.24375929210E+03  0.00000000000E+00 0.  1.
        -11    1    3    3    0    0 -0.18144719692E+02  0.36326440001E+02 -0.45620112140E+02  0.61074018432E+02  0.00000000000E+00 0.  1.
         11    1    3    3    0    0  0.68794750939E+02  0.26731787303E+02 -0.32099972734E+02  0.80484249755E+02  0.00000000000E+00 0. -1.
          2    1    1    2  501    0 -0.23095016891E+02 -0.79538057550E+01 -0.94472763958E+02  0.97579434109E+02  0.00000000000E+00 0. -1.
<scales pt_clust_5="13000.00000" pt_clust_6="13000.00000" pt_clust_7="13000.00000" pt_clust_8="13000.00000" pt_clust_9="24.42627"></scales>
<clustering>
<clus scale="   24.426">  2  9  1 -1</clus>
<clus scale="   80.620">  5  6 -1 -1</clus>
<clus scale="   86.351">  7  8 -1 -1</clus>
<clus scale="  110.627">  2  5  1 -1</clus>
<clus scale="   24.426">  2  5  1 -1</clus>
</clustering>
</event>
<event>
 9    1  0.6270443E-005  0.1050628E+03  0.7546771E-02  0.1273432E+00
         -2   -1    0    0    0  501 -0.00000000000E+00  0.00000000000E+00  0.40971621905E+03  0.40971621905E+03  0.00000000000E+00 0.  1.
         21   -1    0    0  501  502  0.00000000000E+00 -0.00000000000E+00 -0.71551668788E+02  0.71551668788E+02  0.00000000000E+00 0.  1.
         23    2    1    2    0    0  0.26874830292E+02  0.50762086311E+02  0.32863611974E+03  0.34560664902E+03  0.90239740334E+02 0.  0.
        -24    2    1    2    0    0  0.60534383830E+01 -0.45450943060E+02  0.27007381543E+02  0.98004992996E+02  0.82299135190E+02 0.  0.
         11    1    4    4    0    0 -0.32148423493E+02 -0.42881631814E+02  0.49615691996E+01  0.53823532484E+02  0.00000000000E+00 0. -1.
        -12    1    4    4    0    0  0.38201861876E+02 -0.25693112451E+01  0.22045812343E+02  0.44181460512E+02  0.00000000000E+00 0.  1.
        -11    1    3    3    0    0  0.56582639443E+02  0.24246840987E+02  0.14198788798E+03  0.15475808449E+03  0.00000000000E+00 0. -1.
         11    1    3    3    0    0 -0.29707809151E+02  0.26515245325E+02  0.18664823177E+03  0.19084856452E+03  0.00000000000E+00 0.  1.
         -1    1    1    2    0  502 -0.32928268675E+02 -0.53111432518E+01 -0.17478951025E+02  0.37656245823E+02  0.00000000000E+00 0.  1.
<scales pt_clust_5="13000.00000" pt_clust_6="13000.00000" pt_clust_7="13000.00000" pt_clust_8="13000.00000" pt_clust_9="33.35385"></scales>
<clustering>
<clus scale="   33.354">  2  9  1 -1</clus>
<clus scale="   82.299">  5  6 -1 -1</clus>
<clus scale="   90.240">  7  8 -1 -1</clus>
<clus scale="   98.327">  2  5  1 -1</clus>
<clus scale="   33.354">  2  5  1 -1</clus>
</clustering>
</event>
<event>
 9    1  0.6270443E-005  0.1306259E+03  0.7546771E-02  0.1229373E+00
          1   -1    0    0  502    0 -0.00000000000E+00  0.00000000000E+00  0.51823527988E+03  0.51823527988E+03  0.00000000000E+00 0. -1.
         21   -1    0    0  501  502  0.00000000000E+00 -0.00000000000E+00 -0.46216402696E+03  0.46216402696E+03  0.00000000000E+00 0. -1.
        -24    2    1    2    0    0 -0.96870010961E+02  0.17371269146E+01  0.48947045548E+03  0.50541957478E+03  0.80503435637E+02 0.  0.
         23    2    1    2    0    0  0.25839015257E+02 -0.21106056818E+02 -0.12813906381E+03  0.16096649969E+03  0.91528542009E+02 0.  0.
         13    1    3    3    0    0 -0.44555160058E+02 -0.29469256215E+02  0.12563784055E+03  0.13652276854E+03  0.00000000000E+00 0. -1.
        -14    1    3    3    0    0 -0.52314850903E+02  0.31206383129E+02  0.36383261493E+03  0.36889680625E+03  0.00000000000E+00 0.  1.
        -11    1    4    4    0    0  0.16735893131E+01  0.35638794972E+02 -0.49826259696E+02  0.61282793372E+02  0.00000000000E+00 0. -1.
         11    1    4    4    0    0  0.24165425944E+02 -0.56744851790E+02 -0.78312804117E+02  0.99683706313E+02  0.00000000000E+00 0.  1.
          2    1    1    2  501    0  0.71030995704E+02  0.19368929903E+02 -0.30526013874E+03  0.31401323237E+03  0.00000000000E+00 0. -1.
<scales pt_clust_5="13000.00000" pt_clust_6="13000.00000" pt_clust_7="13000.00000" pt_clust_8="13000.00000" pt_clust_9="73.62444"></scales>
<clustering>
<clus scale="   73.624">  2  9  1 -1</clus>
<clus scale="   80.503">  5  6 -1 -1</clus>
<clus scale="   91.529">  7  8 -1 -1</clus>
<clus scale="  123.152">  1  5  2 -1</clus>
<clus scale="   73.624">  2  5  1 -1</clus>
</clustering>
</event>
<event>
 9    1  0.6270443E-005  0.9370472E+02  0.7546771E-02  0.1296652E+00
         -2   -1    0    0    0  501 -0.00000000000E+00  0.00000000000E+00  0.24868284002E+03  0.24868284002E+03  0.00000000000E+00 0.  1.
         21   -1    0    0  501  502  0.00000000000E+00 -0.00000000000E+00 -0.24037540866E+03  0.24037540866E+03  0.00000000000E+00 0. -1.
        -24    2    1    2    0    0  0.72314421606E+01  0.29739823785E+01  0.17628078681E+03  0.19737658456E+03  0.88439029876E+02 0.  0.
         23    2    1    2    0    0 -0.32518721123E+01 -0.48175530620E+02  0.12727960043E+02  0.10537014445E+03  0.92786906144E+02 0.  0.
         13    1    3    3    0    0  0.43211364748E+02 -0.15765427799E+02  0.71511173295E+02  0.85027164266E+02  0.00000000000E+00 0. -1.
        -14    1    3    3    0    0 -0.35979922587E+02  0.18739410178E+02  0.10476961352E+03  0.11234942029E+03  0.00000000000E+00 0.  1.
        -13    1    4    4    0    0  0.24263497253E+02  0.22320760030E+01 -0.26363967321E+02  0.35899279033E+02  0.00000000000E+00 0. -1.
         13    1    4    4    0    0 -0.27515369365E+02 -0.50407606623E+02  0.39091927363E+02  0.69470865417E+02  0.00000000000E+00 0.  1.
         -1    1    1    2    0  502 -0.39795700483E+01  0.45201548242E+02 -0.18070131549E+03  0.18631151967E+03  0.00000000000E+00 0.  1.
<scales pt_clust_5="13000.00000" pt_clust_6="13000.00000" pt_clust_7="13000.00000" pt_clust_8="13000.00000" pt_clust_9="45.37639"></scales>
<clustering>
<clus scale="   45.376">  2  9  1 -1</clus>
<clus scale="   88.439">  5  6 -1 -1</clus>
<clus scale="   89.401">  1  5  2 -1</clus>
<clus scale="   92.787">  7  8 -1 -1</clus>
<clus scale="   45.376">  2  5  1 -1</clus>
</clustering>
</event>
<event>
 9    1  0.6270443E-005  0.9988613E+02  0.7546771E-02  0.1286452E+00
         21   -1    0    0  501  502  0.00000000000E+00  0.00000000000E+00  0.18976786283E+03  0.18976786283E+03  0.00000000000E+00 0. -1.
         -2   -1    0    0    0  501 -0.00000000000E+00 -0.00000000000E+00 -0.15165998496E+03  0.15165998496E+03  0.00000000000E+00 0.  1.
         23    2    1    2    0    0  0.16968439215E+02  0.35361767511E+02 -0.10909597008E+03  0.14743521749E+03  0.91086937258E+02 0.  0.
        -24    2    1    2    0    0 -0.57165646620E+01 -0.52798164135E+02  0.82966650183E+02  0.12648670327E+03  0.79341639845E+02 0.  0.
         11    1    4    4    0    0 -0.10679375734E+01 -0.69504297853E+02  0.84099711732E+02  0.10910888792E+03  0.00000000000E+00 0. -1.
        -12    1    4    4    0    0 -0.46486270886E+01  0.16706133718E+02 -0.11330615493E+01  0.17377815343E+02  0.00000000000E+00 0.  1.
        -13    1    3    3    0    0 -0.18931298438E+02 -0.23464553500E+02 -0.36414341826E+02  0.47275613398E+02  0.00000000000E+00 0.  1.
         13    1    3    3    0    0  0.35899737653E+02  0.58826321011E+02 -0.72681628250E+02  0.10015960409E+03  0.00000000000E+00 0. -1.
         -1    1    1    2    0  502 -0.11251874553E+02  0.17436396624E+02  0.64237197759E+02  0.67505927029E+02  0.00000000000E+00 0.  1.
<scales pt_clust_5="13000.00000" pt_clust_6="13000.00000" pt_clust_7="13000.00000" pt_clust_8="13000.00000" pt_clust_9="20.75169"></scales>
<clustering>
<clus scale="   20.752">  1  9  2 -1</clus>
<clus scale="   79.342">  5  6 -1 -1</clus>
<clus scale="   89.306">  1  5  2 -1</clus>
<clus scale="   91.087">  7  8 -1 -1</clus>
<clus scale="   20.752">  1  5  2 -1</clus>
</clustering>
</event>
<event>
 9    1  0.6270443E-005  0.8720747E+02  0.7546771E-02  0.1312065E+00
          1   -1    0    0  502    0 -0.00000000000E+00  0.00000000000E+00  0.72650875933E+03  0.72650875933E+03  0.00000000000E+00 0. -1.
         21   -1    0    0  501  502  0.00000000000E+00 -0.00000000000E+00 -0.17385756100E+02  0.17385756100E+02  0.00000000000E+00 0.  1.
         23    2    1    2    0    0 -0.30504897461E+02 -0.11913588106E+00  0.34949717519E+03  0.35879428604E+03  0.75196417890E+02 0.  0.
        -24    2    1    2    0    0  0.51236277380E+02 -0.15450907715E+02  0.18163126149E+03  0.20522726841E+03  0.79148151466E+02 0.  0.
         13    1    4    4    0    0  0.11459405871E+02  0.29968971809E+02  0.40099559161E+02  0.51355933436E+02  0.00000000000E+00 0. -1.
        -14    1    4    4    0    0  0.39776871509E+02 -0.45419879525E+02  0.14153170233E+03  0.15387133498E+03  0.00000000000E+00 0.  1.
        -11    1    3    3    0    0 -0.40594849800E+02  0.29197906730E+02  0.20538821056E+03  0.21138774000E+03  0.00000000000E+00 0.  1.
         11    1    3    3    0    0  0.10089952339E+02 -0.29317042611E+02  0.14410896464E+03  0.14740654604E+03  0.00000000000E+00 0. -1.
          2    1    1    2  501    0 -0.20731379919E+02  0.15570043597E+02  0.17799456655E+03  0.17987296098E+03  0.00000000000E+00 0. -1.
<scales pt_clust_5="13000.00000" pt_clust_6="13000.00000" pt_clust_7="13000.00000" pt_clust_8="13000.00000" pt_clust_9="25.92715"></scales>
<clustering>
<clus scale="   25.927">  2  9  1 -1</clus>
<clus scale="   75.196">  7  8 -1 -1</clus>
<clus scale="   79.148">  5  6 -1 -1</clus>
<clus scale="   83.637">  1  7  2 -1</clus>
<clus scale="   25.927">  2  5  1 -1</clus>
</clustering>
</event>
<event>
 9    1  0.6270443E-005  0.1216776E+03  0.7546771E-02  0.1254800E+00
          1   -1    0    0  502    0 -0.00000000000E+00  0.00000000000E+00  0.20130419229E+03  0.20130419229E+03  0.00000000000E+00 0. -1.
         21   -1    0    0  501  502  0.00000000000E+00 -0.00000000000E+00 -0.13480490693E+03  0.13480490693E+03  0.00000000000E+00 0.  1.
         23    2    1    2    0    0  0.11888462048E+02 -0.25700231286E+02 -0.35279760773E+02  0.97664906612E+02  0.86555964817E+02 0.  0.
        -24    2    1    2    0    0  0.46801704266E+02 -0.60765920731E+02  0.59854192401E+02  0.12584479462E+03  0.79821622013E+02 0.  0.
         11    1    4    4    0    0  0.60987103110E+02 -0.31021081695E+02  0.14767511935E+02  0.69998669016E+02  0.00000000000E+00 0. -1.
        -12    1    4    4    0    0 -0.14185398844E+02 -0.29744839036E+02  0.45086680466E+02  0.55846125605E+02  0.00000000000E+00 0.  1.
        -11    1    3    3    0    0 -0.32634930494E+02 -0.31692800132E+02 -0.11907930940E+02  0.47024154302E+02  0.00000000000E+00 0. -1.
         11    1    3    3    0    0  0.44523392542E+02  0.59925688468E+01 -0.23371829833E+02  0.50640752310E+02  0.00000000000E+00 0.  1.
          2    1    1    2  501    0 -0.58690166314E+02  0.86466152016E+02  0.41924853731E+02  0.11259939799E+03  0.00000000000E+00 0. -1.
<scales pt_clust_5="13000.00000" pt_clust_6="13000.00000" pt_clust_7="13000.00000" pt_clust_8="13000.00000" pt_clust_9="91.83662"></scales>
<clustering>
<clus scale="   79.822">  5  6 -1 -1</clus>
<clus scale="   86.556">  7  8 -1 -1</clus>
<clus scale="   91.070">  1  7  2 -1</clus>
<clus scale="   91.837">  2  9  1 -1</clus>
<clus scale="   91.837">  2  5  1 -1</clus>
</clustering>
</event>
<event>
 9    1  0.6270443E-005  0.9849915E+02  0.7546771E-02  0.1290287E+00
          1   -1    0    0  502    0 -0.00000000000E+00  0.00000000000E+00  0.38714704181E+02  0.38714704181E+02  0.00000000000E+00 0. -1.
         21   -1    0    0  501  502  0.00000000000E+00 -0.00000000000E+00 -0.47314569103E+03  0.47314569103E+03  0.00000000000E+00 0.  1.
        -24    2    1    2    0    0  0.13926203686E+02 -0.37825346604E+02 -0.13190855399E+03  0.15984774386E+03  0.80788233098E+02 0.  0.
         23    2    1    2    0    0 -0.39182999047E+02 -0.91475754447E+01 -0.27241028225E+03  0.29076640467E+03  0.93374271940E+02 0.  0.
         11    1    3    3    0    0 -0.32889557004E+02 -0.88273456726E+01 -0.38365801321E+02  0.51298924965E+02  0.00000000000E+00 0. -1.
        -12    1    3    3    0    0  0.46815760690E+02 -0.28998000932E+02 -0.93542752670E+02  0.10854881890E+03  0.00000000000E+00 0.  1.
        -13    1    4    4    0    0 -0.31691594542E+02 -0.32522765132E+02 -0.25869087304E+03  0.26264625490E+03  0.00000000000E+00 0.  1.
         13    1    4    4    0    0 -0.74914045050E+01  0.23375189687E+02 -0.13719409206E+02  0.28120149774E+02  0.00000000000E+00 0. -1.
          2    1    1    2  501    0  0.25256795361E+02  0.46972922049E+02 -0.30112150610E+02  0.61246246678E+02  0.00000000000E+00 0. -1.
<scales pt_clust_5="13000.00000" pt_clust_6="13000.00000" pt_clust_7="13000.00000" pt_clust_8="13000.00000" pt_clust_9="53.33258"></scales>
<clustering>
<clus scale="   53.333">  2  9  1 -1</clus>
<clus scale="   80.788">  5  6 -1 -1</clus>
<clus scale="   86.661">  1  5  2 -1</clus>
<clus scale="   93.374">  7  8 -1 -1</clus>
<clus scale="   53.333">  2  5  1 -1</clus>
</clustering>
</event>
<event>
 9    1  0.6270443E-005  0.1249276E+03  0.7546771E-02  0.1238591E+00
          1   -1    0    0  502    0 -0.00000000000E+00  0.00000000000E+00  0.37079537067E+03  0.37079537067E+03  0.00000000000E+00 0. -1.
         21   -1    0    0  501  502  0.00000000000E+00 -0.00000000000E+00 -0.86441085335E+02  0.86441085335E+02  0.00000000000E+00 0.  1.
        -24    2    1    2    0    0 -0.43385298899E+02 -0.78087485530E+02  0.29148558737E+03  0.31542196006E+03  0.80914928696E+02 0.  0.
         23    2    1    2    0    0  0.34171554328E+02  0.47738193285E+02 -0.18261716440E+01  0.10965680577E+03  0.92599405648E+02 0.  0.
         13    1    3    3    0    0 -0.60475034102E+01 -0.59012802704E+02  0.78746610879E+02  0.98590627878E+02  0.00000000000E+00 0. -1.
        -14    1    3    3    0    0 -0.37337795489E+02 -0.19074682827E+02  0.21273897649E+03  0.21683133218E+03  0.00000000000E+00 0.  1.
        -11    1    4    4    0    0  0.14032683115E+02  0.63048406781E+02 -0.30490122532E+02  0.71425943221E+02  0.00000000000E+00 0.  1.
         11    1    4    4    0    0  0.20138871213E+02 -0.15310213496E+02  0.28663950888E+02  0.38230862553E+02  0.00000000000E+00 0. -1.
          2    1    1    2  501    0  0.92137445706E+01  0.30349292245E+02 -0.53051303897E+01  0.32157690172E+02  0.00000000000E+00 0. -1.
<scales pt_clust_5="13000.00000" pt_clust_6="13000.00000" pt_clust_7="13000.00000" pt_clust_8="13000.00000" pt_clust_9="31.71707"></scales>
<clustering>
<clus scale="   31.717">  2  9  1 -1</clus>
<clus scale="   80.915">  5  6 -1 -1</clus>
<clus scale="   92.599">  7  8 -1 -1</clus>
<clus scale="  116.531">  1  5  2 -1</clus>
<clus scale="   31.717">  2  5  1 -1</clus>
</clustering>
</event>
<event>
 9    1  0.6270443E-005  0.1821785E+03  0.7546771E-02  0.1195350E+00
         21   -1    0    0  501  502  0.00000000000E+00  0.00000000000E+00  0.82565973405E+02  0.82565973405E+02  0.00000000000E+00 0. -1.
          1   -1    0    0  502    0 -0.00000000000E+00 -0.00000000000E+00 -0.64775745506E+03  0.64775745506E+03  0.00000000000E+00 0. -1.
         23    2    1    2    0    0  0.98274163557E+01  0.21306728660E+02 -0.17639350993E+03  0.19969785557E+03  0.90631166691E+02 0.  0.
        -24    2    1    2    0    0 -0.24756707915E+02 -0.17035929528E+03 -0.12540411733E+03  0.22761423005E+03  0.80292347102E+02 0.  0.
         13    1    4    4    0    0  0.13812210593E+02 -0.38291308145E+02  0.10856279742E+01  0.40720756734E+02  0.00000000000E+00 0. -1.
        -14    1    4    4    0    0 -0.38568918508E+02 -0.13206798713E+03 -0.12648974531E+03  0.18689347332E+03  0.00000000000E+00 0.  1.
        -13    1    3    3    0    0  0.38485197705E+02 -0.14599489849E+02 -0.47452178040E+02  0.62816914497E+02  0.00000000000E+00 0.  1.
         13    1    3    3    0    0 -0.28657781349E+02  0.35906218509E+02 -0.12894133189E+03  0.13688094107E+03  0.00000000000E+00 0. -1.
          2    1    1    2  501    0  0.14929291559E+02  0.14905256662E+03 -0.26339385439E+03  0.30301134284E+03  0.00000000000E+00 0. -1.
<scales pt_clust_5="13000.00000" pt_clust_6="13000.00000" pt_clust_7="13000.00000" pt_clust_8="13000.00000" pt_clust_9="163.53036"></scales>
<clustering>
<clus scale="   80.292">  5  6 -1 -1</clus>
<clus scale="   90.631">  7  8 -1 -1</clus>
<clus scale="   93.619">  2  7  1 -1</clus>
<clus scale="  163.530">  1  9  2 -1</clus>
<clus scale="  163.530">  1  5  2 -1</clus>
</clustering>
</event>
<event>
 9    1  0.6270443E-005  0.9826810E+02  0.7546771E-02  0.1289307E+00
         21   -1    0    0  501  502  0.00000000000E+00  0.00000000000E+00  0.82581032115E+02  0.82581032115E+02  0.00000000000E+00 0.  1.
          3   -1    0    0  502    0 -0.00000000000E+00 -0.00000000000E+00 -0.28029096191E+03  0.28029096191E+03  0.00000000000E+00 0. -1.
         23    2    1    2    0    0 -0.12851415065E+02  0.30213548913E+02 -0.18208576063E+03  0.20650403010E+03  0.91709720398E+02 0.  0.
        -24    2    1    2    0    0 -0.11944600232E+02 -0.45433707187E+02 -0.53753060606E+02  0.10840643815E+03  0.81582284130E+02 0.  0.
         11    1    4    4    0    0 -0.12350363082E+02  0.21366095795E+02 -0.37462473713E+01  0.24961488080E+02  0.00000000000E+00 0. -1.
        -12    1    4    4    0    0  0.40576285019E+00 -0.66799802982E+02 -0.50006813235E+02  0.83444950068E+02  0.00000000000E+00 0.  1.
        -11    1    3    3    0    0 -0.49845761115E+02  0.20367975422E+01 -0.79280996036E+02  0.93670832054E+02  0.00000000000E+00 0. -1.
         11    1    3    3    0    0  0.36994346050E+02  0.28176751370E+02 -0.10280476459E+03  0.11283319804E+03  0.00000000000E+00 0.  1.
          4    1    1    2  501    0  0.24796015297E+02  0.15220158274E+02  0.38128891441E+02  0.47961525779E+02  0.00000000000E+00 0. -1.
<scales pt_clust_5="13000.00000" pt_clust_6="13000.00000" pt_clust_7="13000.00000" pt_clust_8="13000.00000" pt_clust_9="29.09460"></scales>
<clustering>
<clus scale="   29.095">  1  9  2 -1</clus>
<clus scale="   81.582">  5  6 -1 -1</clus>
<clus scale="   88.891">  1  5  2 -1</clus>
<clus scale="   91.710">  7  8 -1 -1</clus>
<clus scale="   29.095">  1  5  2 -1</clus>
</clustering>
</event>
<event>
 9    1  0.6270443E-005  0.1637625E+03  0.7546771E-02  0.1205157E+00
          1   -1    0    0  502    0 -0.00000000000E+00  0.00000000000E+00  0.11356410822E+04  0.11356410822E+04  0.00000000000E+00 0. -1.
         21   -1    0    0  501  502  0.00000000000E+00 -0.00000000000E+00 -0.61948436691E+02  0.61948436691E+02  0.00000000000E+00 0. -1.
        -24    2    1    2    0    0 -0.60608660969E+02  0.20142450114E+02  0.81149208325E+02  0.13204860137E+03  0.82295267370E+02 0.  0.
         23    2    1    2    0    0  0.11620261994E+03 -0.13635212764E+03  0.84998448057E+03  0.87339921582E+03  0.90871455278E+02 0.  0.
         13    1    3    3    0    0 -0.54963564087E+01  0.25516464483E+02 -0.78258984374E+01  0.27249671188E+02  0.00000000000E+00 0. -1.
        -14    1    3    3    0    0 -0.55112304560E+02 -0.53740143689E+01  0.88975106762E+02  0.10479893018E+03  0.00000000000E+00 0.  1.
        -11    1    4    4    0    0  0.38221111657E+02 -0.24602809009E+02  0.85175352849E+02  0.96545286371E+02  0.00000000000E+00 0.  1.
         11    1    4    4    0    0  0.77981508286E+02 -0.11174931863E+03  0.76480912772E+03  0.77685392945E+03  0.00000000000E+00 0. -1.
          2    1    1    2  501    0 -0.55593958974E+02  0.11620967752E+03  0.14255895663E+03  0.19214170172E+03  0.00000000000E+00 0. -1.
<scales pt_clust_5="13000.00000" pt_clust_6="13000.00000" pt_clust_7="13000.00000" pt_clust_8="13000.00000" pt_clust_9="136.23706"></scales>
<clustering>
<clus scale="   82.295">  5  6 -1 -1</clus>
<clus scale="   90.871">  7  8 -1 -1</clus>
<clus scale="  104.171">  1  5  2 -1</clus>
<clus scale="  136.237">  2  9  1 -1</clus>
<clus scale="  136.237">  2  5  1 -1</clus>
</clustering>
</event>
<event>
 9    1  0.6270443E-005  0.1200485E+03  0.7546771E-02  0.1248377E+00
          3   -1    0    0  502    0 -0.00000000000E+00  0.00000000000E+00  0.62888076695E+02  0.62888076695E+02  0.00000000000E+00 0. -1.
         21   -1    0    0  501  502  0.00000000000E+00 -0.00000000000E+00 -0.56818518081E+03  0.56818518081E+03  0.00000000000E+00 0.  1.
         23    2    1    2    0    0 -0.56093079080E+02  0.49958151501E+02 -0.41961349725E+02  0.12625070944E+03  0.92391754721E+02 0.  0.
        -24    2    1    2    0    0  0.10062031480E+03 -0.63234620698E+01 -0.38240259648E+03  0.40266170972E+03  0.75764587745E+02 0.  0.
         13    1    4    4    0    0  0.58966130867E+02 -0.28042885108E+02 -0.12519253026E+03  0.14119694624E+03  0.00000000000E+00 0. -1.
        -14    1    4    4    0    0  0.41654183936E+02  0.21719423038E+02 -0.25721006622E+03  0.26146476348E+03  0.00000000000E+00 0.  1.
        -11    1    3    3    0    0 -0.50959458984E+02 -0.50811640653E+01 -0.48566893524E+02  0.70579230902E+02  0.00000000000E+00 0.  1.
         11    1    3    3    0    0 -0.51336200953E+01  0.55039315566E+02  0.66055437989E+01  0.55671478534E+02  0.00000000000E+00 0. -1.
          4    1    1    2  501    0 -0.44527235724E+02 -0.43634689431E+02 -0.80933157907E+02  0.10216083835E+03  0.00000000000E+00 0. -1.
<scales pt_clust_5="13000.00000" pt_clust_6="13000.00000" pt_clust_7="13000.00000" pt_clust_8="13000.00000" pt_clust_9="62.34312"></scales>
<clustering>
<clus scale="   62.343">  2  9  1 -1</clus>
<clus scale="   75.765">  5  6 -1 -1</clus>
<clus scale="   92.392">  7  8 -1 -1</clus>
<clus scale="  107.776">  2  5  1 -1</clus>
<clus scale="   62.343">  2  5  1 -1</clus>
</clustering>
</event>
<event>
 9    1  0.6270443E-005  0.1104778E+03  0.7546771E-02  0.1263980E+00
         21   -1    0    0  501  502  0.00000000000E+00  0.00000000000E+00  0.36135512995E+03  0.36135512995E+03  0.00000000000E+00 0.  1.
         -4   -1    0    0    0  501 -0.00000000000E+00 -0.00000000000E+00 -0.65048379285E+02  0.65048379285E+02  0.00000000000E+00 0.  1.
         23    2    1    2    0    0 -0.33886850150E+02  0.33852323939E+02  0.55439486220E+02  0.11791505814E+03  0.92391156803E+02 0.  0.
        -24    2    1    2    0    0  0.30973008435E+02 -0.92979101891E+02  0.19764528749E+03  0.23519039084E+03  0.81525576586E+02 0.  0.
         11    1    4    4    0    0 -0.25168554878E+02 -0.34196094175E+02  0.96516229431E+02  0.10544293032E+03  0.00000000000E+00 0. -1.
        -12    1    4    4    0    0  0.56141563313E+02 -0.58783007716E+02  0.10112905806E+03  0.12974746052E+03  0.00000000000E+00 0.  1.
        -13    1    3    3    0    0 -0.26446020479E+02  0.44546309681E+01 -0.22039652703E+02  0.34712851043E+02  0.00000000000E+00 0. -1.
         13    1    3    3    0    0 -0.74408296710E+01  0.29397692971E+02  0.77479138923E+02  0.83202207100E+02  0.00000000000E+00 0.  1.
         -3    1    1    2    0  502  0.29138417150E+01  0.59126777952E+02  0.43221976957E+02  0.73298060251E+02  0.00000000000E+00 0.  1.
<scales pt_clust_5="13000.00000" pt_clust_6="13000.00000" pt_clust_7="13000.00000" pt_clust_8="13000.00000" pt_clust_9="59.19856"></scales>
<clustering>
<clus scale="   59.199">  1  9  2 -1</clus>
<clus scale="   81.526">  5  6 -1 -1</clus>
<clus scale="   92.391">  7  8 -1 -1</clus>
<clus scale="  101.566">  1  5  2 -1</clus>
<clus scale="   59.199">  1  5  2 -1</clus>
</clustering>
</event>
<event>
 9    1  0.6270443E-005  0.1211706E+03  0.7546771E-02  0.1242897E+00
          1   -1    0    0  502    0 -0.00000000000E+00  0.00000000000E+00  0.35491379583E+03  0.35491379583E+03  0.00000000000E+00 0. -1.
         21   -1    0    0  501  502  0.00000000000E+00 -0.00000000000E+00 -0.10826683755E+03  0.10826683755E+03  0.00000000000E+00 0.  1.
        -24    2    1    2    0    0 -0.86145473732E+02  0.35169267918E+02  0.24661000725E+03  0.27651633221E+03  0.83587476654E+02 0.  0.
         23    2    1    2    0    0  0.61579786651E+02  0.15914587776E+02  0.40658507355E+02  0.11692805426E+03  0.89295640576E+02 0.  0.
         13    1    3    3    0    0 -0.23967271626E+02  0.34157176265E+02  0.18246657923E+03  0.18717690920E+03  0.00000000000E+00 0. -1.
        -14    1    3    3    0    0 -0.62178202106E+02  0.10120916532E+01  0.64143428013E+02  0.89339423011E+02  0.00000000000E+00 0.  1.
        -13    1    4    4    0    0  0.29955457513E+02 -0.25761179904E+02 -0.13380921818E+02  0.41713509724E+02  0.00000000000E+00 0.  1.
         13    1    4    4    0    0  0.31624329138E+02  0.41675767680E+02  0.54039429173E+02  0.75214544540E+02  0.00000000000E+00 0. -1.
          2    1    1    2  501    0  0.24565687081E+02 -0.51083855694E+02 -0.40621556320E+02  0.69736246903E+02  0.00000000000E+00 0. -1.
<scales pt_clust_5="13000.00000" pt_clust_6="13000.00000" pt_clust_7="13000.00000" pt_clust_8="13000.00000" pt_clust_9="56.68362"></scales>
<clustering>
<clus scale="   56.684">  2  9  1 -1</clus>
<clus scale="   83.587">  5  6 -1 -1</clus>
<clus scale="   89.296">  7  8 -1 -1</clus>
<clus scale="  117.028">  1  5  2 -1</clus>
<clus scale="   56.684">  2  5  1 -1</clus>
</clustering>
</event>
<event>
 9    1  0.6270443E-005  0.9057542E+02  0.7546771E-02  0.1307975E+00
         21   -1    0    0  501  502  0.00000000000E+00  0.00000000000E+00  0.58722450248E+03  0.58722450248E+03  0.00000000000E+00 0. -1.
         -2   -1    0    0    0  501 -0.00000000000E+00 -0.00000000000E+00 -0.28109654718E+02  0.28109654718E+02  0.00000000000E+00 0.  1.
        -24    2    1    2    0    0  0.12079620057E+02  0.20509193687E+02  0.81485599933E+02  0.11586089001E+03  0.78849848387E+02 0.  0.
         23    2    1    2    0    0  0.33063178839E+02 -0.20948218181E+01  0.27269959577E+03  0.28882397648E+03  0.89200099684E+02 0.  0.
         11    1    3    3    0    0  0.10333451426E+02  0.48750850054E+02  0.33151599296E+02  0.59853605867E+02  0.00000000000E+00 0. -1.
        -12    1    3    3    0    0  0.17461686307E+01 -0.28241656368E+02  0.48334000637E+02  0.56007284141E+02  0.00000000000E+00 0.  1.
        -13    1    4    4    0    0  0.61427007295E+02 -0.15739217862E+02  0.17179489644E+03  0.18312423828E+03  0.00000000000E+00 0. -1.
         13    1    4    4    0    0 -0.28363828456E+02  0.13644396044E+02  0.10090469933E+03  0.10569973820E+03  0.00000000000E+00 0.  1.
         -1    1    1    2    0  502 -0.45142798896E+02 -0.18414371869E+02  0.20492965205E+03  0.21064929071E+03  0.00000000000E+00 0.  1.
<scales pt_clust_5="13000.00000" pt_clust_6="13000.00000" pt_clust_7="13000.00000" pt_clust_8="13000.00000" pt_clust_9="48.75409"></scales>
<clustering>
<clus scale="   48.754">  1  9  2 -1</clus>
<clus scale="   78.850">  5  6 -1 -1</clus>
<clus scale="   80.402">  2  5  1 -1</clus>
<clus scale="   89.200">  7  8 -1 -1</clus>
<clus scale="   48.754">  1  5  2 -1</clus>
</clustering>
</event>
<event>
 9    1  0.6270443E-005  0.9165343E+02  0.7546771E-02  0.1305561E+00
         21   -1    0    0  501  502  0.00000000000E+00  0.00000000000E+00  0.33174188280E+02  0.33174188280E+02  0.00000000000E+00 0.  1.
          1   -1    0    0  502    0 -0.00000000000E+00 -0.00000000000E+00 -0.65973726224E+03  0.65973726224E+03  0.00000000000E+00 0. -1.
        -24    2    1    2    0    0  0.16875818497E+02  0.89691415450E+01 -0.43386894182E+03  0.44137759015E+03  0.78782483206E+02 0.  0.
         23    2    1    2    0    0 -0.32167372162E+02  0.31386842605E+02 -0.72208796866E+02  0.12355279503E+03  0.89617571346E+02 0.  0.
         11    1    3    3    0    0  0.33658367314E+02  0.35951241950E+02 -0.27073753583E+03  0.27518028781E+03  0.00000000000E+00 0. -1.
        -12    1    3    3    0    0 -0.16782548816E+02 -0.26982100405E+02 -0.16313140599E+03  0.16619730235E+03  0.00000000000E+00 0.  1.
        -13    1    4    4    0    0 -0.18412892992E+02  0.63071788719E+02 -0.46518945436E+02  0.80505263461E+02  0.00000000000E+00 0.  1.
         13    1    4    4    0    0 -0.13754479170E+02 -0.31684946114E+02 -0.25689851431E+02  0.43047531567E+02  0.00000000000E+00 0. -1.
          2    1    1    2  501    0  0.15291553664E+02 -0.40355984150E+02 -0.12048533526E+03  0.12798106533E+03  0.00000000000E+00 0. -1.
<scales pt_clust_5="13000.00000" pt_clust_6="13000.00000" pt_clust_7="13000.00000" pt_clust_8="13000.00000" pt_clust_9="43.15598"></scales>
<clustering>
<clus scale="   43.156">  1  9  2 -1</clus>
<clus scale="   78.782">  5  6 -1 -1</clus>
<clus scale="   81.091">  2  5  1 -1</clus>
<clus scale="   89.618">  7  8 -1 -1</clus>
<clus scale="   43.156">  1  5  2 -1</clus>
</clustering>
</event>
<event>
 9    1  0.6270443E-005  0.1062030E+03  0.7546771E-02  0.1277105E+00
         21   -1    0    0  501  502  0.00000000000E+00  0.00000000000E+00  0.25373297623E+03  0.25373297623E+03  0.00000000000E+00 0. -1.
          3   -1    0    0  502    0 -0.00000000000E+00 -0.00000000000E+00 -0.18690048736E+03  0.18690048736E+03  0.00000000000E+00 0. -1.
        -24    2    1    2    0    0  0.10461531919E+02  0.37342573245E+02 -0.11947109164E+03  0.14909502933E+03  0.80324806931E+02 0.  0.
         23    2    1    2    0    0  0.37027845869E+02 -0.30396586947E+02  0.21062352009E+03  0.23773372081E+03  0.99297738786E+02 0.  0.
         13    1    3    3    0    0  0.18535992455E+02  0.60130426721E+02 -0.99550707958E+02  0.11776924339E+03  0.00000000000E+00 0. -1.
        -14    1    3    3    0    0 -0.80744605365E+01 -0.22787853476E+02 -0.19920383678E+02  0.31325785942E+02  0.00000000000E+00 0.  1.
        -13    1    4    4    0    0 -0.16644906172E+02  0.17771520097E+02  0.13519537387E+02  0.27850632294E+02  0.00000000000E+00 0.  1.
         13    1    4    4    0    0  0.53672752041E+02 -0.48168107045E+02  0.19710398270E+03  0.20988308851E+03  0.00000000000E+00 0. -1.
          4    1    1    2  501    0 -0.47489377788E+02 -0.69459862980E+01 -0.24319939583E+02  0.53804713452E+02  0.00000000000E+00 0. -1.
<scales pt_clust_5="13000.00000" pt_clust_6="13000.00000" pt_clust_7="13000.00000" pt_clust_8="13000.00000" pt_clust_9="47.99469"></scales>
<clustering>
<clus scale="   47.995">  1  9  2 -1</clus>
<clus scale="   80.325">  5  6 -1 -1</clus>
<clus scale="   88.719">  2  5  1 -1</clus>
<clus scale="   99.298">  7  8 -1 -1</clus>
<clus scale="   47.995">  1  5  2 -1</clus>
</clustering>
</event>
<event>
 9    1  0.6270443E-005  0.1389333E+03  0.7546771E-02  0.1216724E+00
         21   -1    0    0  501  502  0.00000000000E+00  0.00000000000E+00  0.24216194854E+03  0.24216194854E+03  0.00000000000E+00 0. -1.
          1   -1    0    0  502    0 -0.00000000000E+00 -0.00000000000E+00 -0.47802915903E+03  0.47802915903E+03  0.00000000000E+00 0. -1.
         23    2    1    2    0    0  0.26887293308E+01  0.11368149713E+03 -0.33837073601E+03  0.36703325196E+03  0.85369438341E+02 0.  0.
        -24    2    1    2    0    0  0.12787765599E+03 -0.58287232409E+02 -0.25132272639E+02  0.16235166465E+03  0.77306762456E+02 0.  0.
         11    1    4    4    0    0  0.11918668169E+03 -0.20110103095E+02 -0.14215686847E+02  0.12170442510E+03  0.00000000000E+00 0. -1.
        -12    1    4    4    0    0  0.86909743084E+01 -0.38177129314E+02 -0.10916585791E+02  0.40647239542E+02  0.00000000000E+00 0.  1.
        -11    1    3    3    0    0  0.24783882532E+01  0.62877028821E+02 -0.70971799005E+02  0.94850721746E+02  0.00000000000E+00 0.  1.
         11    1    3    3    0    0  0.21034107758E+00  0.50804468308E+02 -0.26739893700E+03  0.27218253021E+03  0.00000000000E+00 0. -1.
          2    1    1    2  501    0 -0.13056638532E+03 -0.55394264721E+02  0.12763579815E+03  0.19080619096E+03  0.00000000000E+00 0. -1.
<scales pt_clust_5="13000.00000" pt_clust_6="13000.00000" pt_clust_7="13000.00000" pt_clust_8="13000.00000" pt_clust_9="141.83126"></scales>
<clustering>
<clus scale="   77.307">  5  6 -1 -1</clus>
<clus scale="   85.369">  7  8 -1 -1</clus>
<clus scale="  141.831">  1  9  2 -1</clus>
<clus scale="  141.831">  1  5  2 -1</clus>
<clus scale="  138.933">  1  5  2 -1</clus>
</clustering>
</event>
<event>
 9    1  0.6270443E-005  0.1092341E+03  0.7546771E-02  0.1267189E+00
          1   -1    0    0  502    0 -0.00000000000E+00  0.00000000000E+00  0.71405882988E+03  0.71405882988E+03  0.00000000000E+00 0. -1.
         21   -1    0    0  501  502  0.00000000000E+00 -0.00000000000E+00 -0.73512271987E+02  0.73512271987E+02  0.00000000000E+00 0. -1.
        -24    2    1    2    0    0  0.30067051544E+02 -0.42857919874E+02  0.39415334234E+03  0.40567731043E+03  0.80476046374E+02 0.  0.
         23    2    1    2    0    0 -0.57661249383E+02  0.37957892121E+02  0.29988796591E+03  0.32150224947E+03  0.93087502180E+02 0.  0.
         13    1    3    3    0    0 -0.12269600191E+02 -0.49355219171E+02  0.25728773619E+03  0.26226600989E+03  0.00000000000E+00 0. -1.
        -14    1    3    3    0    0  0.42336651735E+02  0.64972992966E+01  0.13686560615E+03  0.14341130055E+03  0.00000000000E+00 0.  1.
        -13    1    4    4    0    0  0.17370880925E+00  0.49301027209E+02  0.81050226736E+02  0.94867068641E+02  0.00000000000E+00 0.  1.
         13    1    4    4    0    0 -0.57834958193E+02 -0.11343135088E+02  0.21883773917E+03  0.22663518083E+03  0.00000000000E+00 0. -1.
          2    1    1    2  501    0  0.27594197839E+02  0.49000277527E+01 -0.53494750350E+02  0.60391541969E+02  0.00000000000E+00 0. -1.
<scales pt_clust_5="13000.00000" pt_clust_6="13000.00000" pt_clust_7="13000.00000" pt_clust_8="13000.00000" pt_clust_9="28.02588"></scales>
<clustering>
<clus scale="   28.026">  2  9  1 -1</clus>
<clus scale="   80.476">  5  6 -1 -1</clus>
<clus scale="   93.088">  7  8 -1 -1</clus>
<clus scale="   98.708">  1  5  2 -1</clus>
<clus scale="   28.026">  2  5  1 -1</clus>
</clustering>
</event>
<event>
 9    1  0.6270443E-005  0.2737701E+03  0.7546771E-02  0.1128418E+00
         21   -1    0    0  501  502  0.00000000000E+00  0.00000000000E+00  0.62371646967E+03  0.62371646967E+03  0.00000000000E+00 0. -1.
          1   -1    0    0  502    0 -0.00000000000E+00 -0.00000000000E+00 -0.19374095407E+03  0.19374095407E+03  0.00000000000E+00 0. -1.
        -24    2    1    2    0    0  0.36527462818E+02  0.86854119820E+02  0.17847998520E+03  0.22111676401E+03  0.90330640088E+02 0.  0.
         23    2    1    2    0    0  0.19883503376E+03 -0.18400759344E+03  0.14727048186E+03  0.32120948561E+03  0.89959845061E+02 0.  0.
         11    1    3    3    0    0  0.60526047067E+02  0.77672259628E+02  0.16487521703E+03  0.19204223358E+03  0.00000000000E+00 0. -1.
        -12    1    3    3    0    0 -0.23998584249E+02  0.91818601918E+01  0.13604768176E+02  0.29074530429E+02  0.00000000000E+00 0.  1.
        -11    1    4    4    0    0  0.92548914741E+01 -0.49085205319E+02  0.44259289300E+02  0.66737508844E+02  0.00000000000E+00 0.  1.
         11    1    4    4    0    0  0.18958014229E+03 -0.13492238812E+03  0.10301119256E+03  0.25447197676E+03  0.00000000000E+00 0. -1.
          2    1    1    2  501    0 -0.23536249658E+03  0.97153473619E+02  0.10422504853E+03  0.27513117412E+03  0.00000000000E+00 0. -1.
<scales pt_clust_5="13000.00000" pt_clust_6="13000.00000" pt_clust_7="13000.00000" pt_clust_8="13000.00000" pt_clust_9="258.56790"></scales>
<clustering>
<clus scale="   89.960">  7  8 -1 -1</clus>
<clus scale="   90.331">  5  6 -1 -1</clus>
<clus scale="  130.528">  2  5  1 -1</clus>
<clus scale="  258.568">  1  9  2 -1</clus>
<clus scale="  258.568">  1  5  2 -1</clus>
</clustering>
</event>
<event>
 9    1  0.6270443E-005  0.1320882E+03  0.7546771E-02  0.1234956E+00
         21   -1    0    0  501  502  0.00000000000E+00  0.00000000000E+00  0.91512636375E+02  0.91512636375E+02  0.00000000000E+00 0.  1.
          1   -1    0    0  502    0 -0.00000000000E+00 -0.00000000000E+00 -0.30137666567E+03  0.30137666567E+03  0.00000000000E+00 0. -1.
         23    2    1    2    0    0 -0.40286541041E+02  0.44682568629E+02 -0.13847556898E+03  0.18652289841E+03  0.10952520760E+03 0.  0.
        -24    2    1    2    0    0  0.50716143600E+02 -0.95276574331E+02 -0.20339643125E+02  0.13374056967E+03  0.76309147912E+02 0.  0.
         11    1    4    4    0    0  0.53325968752E+02 -0.20273942073E+02 -0.63837446713E+01  0.57405956716E+02  0.00000000000E+00 0. -1.
        -12    1    4    4    0    0 -0.26098251516E+01 -0.75002632258E+02 -0.13955898454E+02  0.76334612953E+02  0.00000000000E+00 0.  1.
        -11    1    3    3    0    0 -0.30385373974E+02 -0.22702289099E+02 -0.10293145742E+03  0.10969753784E+03  0.00000000000E+00 0.  1.
         11    1    3    3    0    0 -0.99011670671E+01  0.67384857728E+02 -0.35544111557E+02  0.76825360570E+02  0.00000000000E+00 0. -1.
          2    1    1    2  501    0 -0.10429602559E+02  0.50594005702E+02 -0.51048817195E+02  0.72625833967E+02  0.00000000000E+00 0. -1.
<scales pt_clust_5="13000.00000" pt_clust_6="13000.00000" pt_clust_7="13000.00000" pt_clust_8="13000.00000" pt_clust_9="51.65784"></scales>
<clustering>
<clus scale="   51.658">  1  9  2 -1</clus>
<clus scale="   76.309">  5  6 -1 -1</clus>
<clus scale="  106.182">  1  5  2 -1</clus>
<clus scale="  109.525">  7  8 -1 -1</clus>
<clus scale="   51.658">  1  5  2 -1</clus>
</clustering>
</event>
<event>
 9    1  0.6270443E-005  0.1150123E+03  0.7546771E-02  0.1256812E+00
         21   -1    0    0  501  502  0.00000000000E+00  0.00000000000E+00  0.66583047396E+02  0.66583047396E+02  0.00000000000E+00 0.  1.
          1   -1    0    0  502    0 -0.00000000000E+00 -0.00000000000E+00 -0.36608469718E+03  0.36608469718E+03  0.00000000000E+00 0. -1.
        -24    2    1    2    0    0 -0.13187153976E+01 -0.73124453163E+02 -0.17535596494E+03  0.20550311968E+03  0.78312790113E+02 0.  0.
         23    2    1    2    0    0 -0.57759137461E+01  0.50314776823E+02 -0.52549877666E+01  0.10589792317E+03  0.92853741382E+02 0.  0.
         13    1    3    3    0    0 -0.20476368950E+02 -0.68674116999E+02 -0.17092896843E+03  0.18534327147E+03  0.00000000000E+00 0. -1.
        -14    1    3    3    0    0  0.19157653552E+02 -0.44503361643E+01 -0.44269965137E+01  0.20159848207E+02  0.00000000000E+00 0.  1.
        -13    1    4    4    0    0 -0.10226135107E+02  0.27460883627E+02 -0.48568168077E+02  0.56723371895E+02  0.00000000000E+00 0. -1.
         13    1    4    4    0    0  0.44502213608E+01  0.22853893196E+02  0.43313180310E+02  0.49174551274E+02  0.00000000000E+00 0.  1.
          2    1    1    2  501    0  0.70946291437E+01  0.22809676340E+02 -0.11889069708E+03  0.12126670173E+03  0.00000000000E+00 0. -1.
<scales pt_clust_5="13000.00000" pt_clust_6="13000.00000" pt_clust_7="13000.00000" pt_clust_8="13000.00000" pt_clust_9="23.88756"></scales>
<clustering>
<clus scale="   23.888">  1  9  2 -1</clus>
<clus scale="   78.313">  5  6 -1 -1</clus>
<clus scale="   92.854">  7  8 -1 -1</clus>
<clus scale="  103.629">  2  5  1 -1</clus>
<clus scale="   23.888">  1  5  2 -1</clus>
</clustering>
</event>
<event>
 9    1  0.6270443E-005  0.1556272E+03  0.7546771E-02  0.1195666E+00
          1   -1    0    0  502    0 -0.00000000000E+00  0.00000000000E+00  0.48665631447E+03  0.48665631447E+03  0.00000000000E+00 0. -1.
         21   -1    0    0  501  502  0.00000000000E+00 -0.00000000000E+00 -0.14123964439E+03  0.14123964439E+03  0.00000000000E+00 0.  1.
        -24    2    1    2    0    0  0.14792149834E+03  0.25234880829E+02  0.12226154145E+03  0.20946424639E+03  0.80061333450E+02 0.  0.
         23    2    1    2    0    0 -0.76294437403E+02  0.64172092942E+01 -0.53572752232E+02  0.13083718764E+03  0.91576788179E+02 0.  0.
         13    1    3    3    0    0  0.14803458497E+02  0.30400111523E+02  0.42063137334E+02  0.53968663931E+02  0.00000000000E+00 0. -1.
        -14    1    3    3    0    0  0.13311803984E+03 -0.51652306938E+01  0.80198404120E+02  0.15549558246E+03  0.00000000000E+00 0.  1.
        -11    1    4    4    0    0 -0.24065467523E+02 -0.41152631568E+02 -0.30166092034E+02  0.56415236601E+02  0.00000000000E+00 0.  1.
         11    1    4    4    0    0 -0.52228969880E+02  0.47569840862E+02 -0.23406660198E+02  0.74421951036E+02  0.00000000000E+00 0. -1.
          2    1    1    2  501    0 -0.71627060939E+02 -0.31652090123E+02  0.27672788086E+03  0.28759452484E+03  0.00000000000E+00 0. -1.
<scales pt_clust_5="13000.00000" pt_clust_6="13000.00000" pt_clust_7="13000.00000" pt_clust_8="13000.00000" pt_clust_9="78.30898"></scales>
<clustering>
<clus scale="   78.309">  2  9  1 -1</clus>
<clus scale="   80.061">  5  6 -1 -1</clus>
<clus scale="   91.577">  7  8 -1 -1</clus>
<clus scale="  149.142">  1  5  2 -1</clus>
<clus scale="   78.309">  2  5  1 -1</clus>
</clustering>
</event>
<event>
 9    1  0.6270443E-005  0.1220390E+03  0.7546771E-02  0.1250411E+00
          3   -1    0    0  502    0 -0.00000000000E+00  0.00000000000E+00  0.62895495844E+02  0.62895495844E+02  0.00000000000E+00 0. -1.
         21   -1    0    0  501  502  0.00000000000E+00 -0.00000000000E+00 -0.33303617636E+03  0.33303617636E+03  0.00000000000E+00 0. -1.
         23    2    1    2    0    0 -0.58409033111E+02 -0.20344125825E+02 -0.82707567493E+02  0.14597278511E+03  0.10316013604E+03 0.  0.
        -24    2    1    2    0    0  0.36743112228E+02  0.69929857374E+02 -0.10084255557E+03  0.14785070161E+03  0.73826605680E+02 0.  0.
         11    1    4    4    0    0  0.15804306503E+02  0.75102213091E+02 -0.10027599422E+03  0.12627507090E+03  0.00000000000E+00 0. -1.
        -12    1    4    4    0    0  0.20938805725E+02 -0.51723557164E+01 -0.56656134889E+00  0.21575630712E+02  0.00000000000E+00 0.  1.
        -11    1    3    3    0    0 -0.22891733275E+02  0.35583020695E+02 -0.31300806037E+01  0.42426173746E+02  0.00000000000E+00 0.  1.
         11    1    3    3    0    0 -0.35517299836E+02 -0.55927146520E+02 -0.79577486890E+02  0.10354661136E+03  0.00000000000E+00 0. -1.
          4    1    1    2  501    0  0.21665920883E+02 -0.49585731549E+02 -0.86590557453E+02  0.10210818548E+03  0.00000000000E+00 0. -1.
<scales pt_clust_5="13000.00000" pt_clust_6="13000.00000" pt_clust_7="13000.00000" pt_clust_8="13000.00000" pt_clust_9="54.11245"></scales>
<clustering>
<clus scale="   54.112">  2  9  1 -1</clus>
<clus scale="   73.827">  5  6 -1 -1</clus>
<clus scale="   98.498">  2  5  1 -1</clus>
<clus scale="  103.160">  7  8 -1 -1</clus>
<clus scale="   54.112">  2  5  1 -1</clus>
</clustering>
</event>
<event>
 9    1  0.6270443E-005  0.1233786E+03  0.7546771E-02  0.1239164E+00
         21   -1    0    0  501  502  0.00000000000E+00  0.00000000000E+00  0.31525641444E+03  0.31525641444E+03  0.00000000000E+00 0.  1.
          1   -1    0    0  502    0 -0.00000000000E+00 -0.00000000000E+00 -0.66573418527E+02  0.66573418527E+02  0.00000000000E+00 0. -1.
         23    2    1    2    0    0  0.47135760728E+01  0.90238922388E+02  0.68352336624E+02  0.14452177369E+03  0.89717446658E+02 0.  0.
        -24    2    1    2    0    0  0.15952879186E+02 -0.77856079837E+02  0.98897721482E+02  0.15238597427E+03  0.84407714799E+02 0.  0.
         13    1    4    4    0    0  0.29231522314E+02 -0.26749798750E+02 -0.72984372616E+00  0.39630370952E+02  0.00000000000E+00 0. -1.
        -14    1    4    4    0    0 -0.13278643128E+02 -0.51106281088E+02  0.99627565208E+02  0.11275560332E+03  0.00000000000E+00 0.  1.
        -13    1    3    3    0    0  0.29243487319E+02  0.33939073912E+02  0.69976310662E+02  0.83088665547E+02  0.00000000000E+00 0.  1.
         13    1    3    3    0    0 -0.24529911246E+02  0.56299848477E+02 -0.16239740377E+01  0.61433108142E+02  0.00000000000E+00 0. -1.
          2    1    1    2  501    0 -0.20666455259E+02 -0.12382842551E+02  0.81432937808E+02  0.84922085011E+02  0.00000000000E+00 0. -1.
<scales pt_clust_5="13000.00000" pt_clust_6="13000.00000" pt_clust_7="13000.00000" pt_clust_8="13000.00000" pt_clust_9="24.09226"></scales>
<clustering>
<clus scale="   24.092">  1  9  2 -1</clus>
<clus scale="   84.408">  5  6 -1 -1</clus>
<clus scale="   89.717">  7  8 -1 -1</clus>
<clus scale="  119.573">  1  5  2 -1</clus>
<clus scale="   24.092">  1  5  2 -1</clus>
</clustering>
</event>
<event>
 9    1  0.6270443E-005  0.1663839E+03  0.7546771E-02  0.1202885E+00
          1   -1    0    0  502    0 -0.00000000000E+00  0.00000000000E+00  0.47470995777E+03  0.47470995777E+03  0.00000000000E+00 0. -1.
         21   -1    0    0  501  502  0.00000000000E+00 -0.00000000000E+00 -0.31490099172E+03  0.31490099172E+03  0.00000000000E+00 0. -1.
        -24    2    1    2    0    0 -0.42238253531E+02 -0.50632169674E+02  0.21579860952E+03  0.23968808529E+03  0.80831006990E+02 0.  0.
         23    2    1    2    0    0  0.92619508689E+02  0.17516276121E+03  0.17696882254E+03  0.28100691825E+03  0.91578150490E+02 0.  0.
         11    1    3    3    0    0 -0.11465118164E+02  0.21430727108E+02  0.34711680025E+02  0.42374824236E+02  0.00000000000E+00 0. -1.
        -12    1    3    3    0    0 -0.30773135367E+02 -0.72062896782E+02  0.18108692950E+03  0.19731326106E+03  0.00000000000E+00 0.  1.
        -13    1    4    4    0    0  0.28978256242E+02  0.12231747706E+02  0.67999555260E+02  0.74921922709E+02  0.00000000000E+00 0.  1.
         13    1    4    4    0    0  0.63641252446E+02  0.16293101351E+03  0.10896926728E+03  0.20608499554E+03  0.00000000000E+00 0. -1.
          2    1    1    2  501    0 -0.50381255158E+02 -0.12453059154E+03 -0.23295846601E+03  0.26891594595E+03  0.00000000000E+00 0. -1.
<scales pt_clust_5="13000.00000" pt_clust_6="13000.00000" pt_clust_7="13000.00000" pt_clust_8="13000.00000" pt_clust_9="138.91377"></scales>
<clustering>
<clus scale="   80.831">  5  6 -1 -1</clus>
<clus scale="   91.578">  7  8 -1 -1</clus>
<clus scale="  104.314">  1  5  2 -1</clus>
<clus scale="  138.914">  2  9  1 -1</clus>
<clus scale="  138.914">  2  5  1 -1</clus>
</clustering>
</event>
<event>
 9    1  0.6270443E-005  0.8736177E+02  0.7546771E-02  0.1318332E+00
         -4   -1    0    0    0  501 -0.00000000000E+00  0.00000000000E+00  0.73578166668E+02  0.73578166668E+02  0.00000000000E+00 0.  1.
         21   -1    0    0  501  502  0.00000000000E+00 -0.00000000000E+00 -0.22105563843E+03  0.22105563843E+03  0.00000000000E+00 0. -1.
         23    2    1    2    0    0  0.69703343547E+01  0.71798559013E+01  0.24077356043E+02  0.90931607681E+02  0.87113158074E+02 0.  0.
        -24    2    1    2    0    0  0.23859422539E+02 -0.43707498453E+01 -0.10985890617E+03  0.13467501630E+03  0.74027057565E+02 0.  0.
         11    1    4    4    0    0  0.23662895049E+02 -0.14479488188E+02 -0.11829676029E+03  0.12150601497E+03  0.00000000000E+00 0. -1.
        -12    1    4    4    0    0  0.19652748953E+00  0.10108738343E+02  0.84378541126E+01  0.13169001328E+02  0.00000000000E+00 0.  1.
        -13    1    3    3    0    0  0.43875618918E+02  0.86529551531E+01  0.29538471288E+02  0.53595380905E+02  0.00000000000E+00 0. -1.
         13    1    3    3    0    0 -0.36905284564E+02 -0.14730992518E+01 -0.54611152452E+01  0.37336226776E+02  0.00000000000E+00 0.  1.
         -3    1    1    2    0  502 -0.30829756893E+02 -0.28091060560E+01 -0.61695921636E+02  0.69027181120E+02  0.00000000000E+00 0.  1.
<scales pt_clust_5="13000.00000" pt_clust_6="13000.00000" pt_clust_7="13000.00000" pt_clust_8="13000.00000" pt_clust_9="30.95747"></scales>
<clustering>
<clus scale="   30.957">  2  9  1 -1</clus>
<clus scale="   74.027">  5  6 -1 -1</clus>
<clus scale="   74.319">  2  5  1 -1</clus>
<clus scale="   87.113">  7  8 -1 -1</clus>
<clus scale="   30.957">  2  5  1 -1</clus>
</clustering>
</event>
<event>
 9    1  0.6270443E-005  0.1008799E+03  0.7546771E-02  0.1283658E+00
         21   -1    0    0  501  502  0.00000000000E+00  0.00000000000E+00  0.59640540982E+03  0.59640540982E+03  0.00000000000E+00 0.  1.
         -2   -1    0    0    0  501 -0.00000000000E+00 -0.00000000000E+00 -0.38748677267E+02  0.38748677267E+02  0.00000000000E+00 0.  1.
         23    2    1    2    0    0 -0.23292536970E+02  0.15232422146E+02  0.10960680748E+03  0.14479988067E+03  0.90436631030E+02 0.  0.
        -24    2    1    2    0    0  0.58558407629E+01 -0.85882991810E+02  0.20020567164E+03  0.23204757599E+03  0.79709393489E+02 0.  0.
         11    1    4    4    0    0 -0.34908748881E+02 -0.26135726149E+02  0.93098955985E+02  0.10280618919E+03  0.00000000000E+00 0. -1.
        -12    1    4    4    0    0  0.40764589644E+02 -0.59747265662E+02  0.10710671566E+03  0.12924138680E+03  0.00000000000E+00 0.  1.
        -11    1    3    3    0    0 -0.20523770876E+02 -0.29709381188E+02  0.13288753076E+02  0.38476791184E+02  0.00000000000E+00 0.  1.
         11    1    3    3    0    0 -0.27687660936E+01  0.44941803334E+02  0.96318054408E+02  0.10632308948E+03  0.00000000000E+00 0. -1.
         -1    1    1    2    0  502  0.17436696207E+02  0.70650569664E+02  0.24784425343E+03  0.25830663043E+03  0.00000000000E+00 0.  1.
<scales pt_clust_5="13000.00000" pt_clust_6="13000.00000" pt_clust_7="13000.00000" pt_clust_8="13000.00000" pt_clust_9="72.77047"></scales>
<clustering>
<clus scale="   72.770">  1  9  2 -1</clus>
<clus scale="   79.709">  5  6 -1 -1</clus>
<clus scale="   90.437">  7  8 -1 -1</clus>
<clus scale="   91.387">  1  5  2 -1</clus>
<clus scale="   72.770">  1  5  2 -1</clus>
</clustering>
</event>
<event>
 9    1  0.6270443E-005  0.9844315E+02  0.7546771E-02  0.1289260E+00
         21   -1    0    0  501  502  0.00000000000E+00  0.00000000000E+00  0.31407868583E+02  0.31407868583E+02  0.00000000000E+00 0.  1.
          1   -1    0    0  502    0 -0.00000000000E+00 -0.00000000000E+00 -0.80773893937E+03  0.80773893937E+03  0.00000000000E+00 0. -1.
         23    2    1    2    0    0  0.61351553330E+01 -0.63236252854E+02 -0.32071628805E+03  0.33933496054E+03  0.90845001077E+02 0.  0.
        -24    2    1    2    0    0  0.12024994189E+02 -0.11699936243E+02 -0.73179390753E+02  0.10968103280E+03  0.79957593331E+02 0.  0.
         11    1    4    4    0    0  0.19537377110E+02  0.14282015778E+02 -0.78474417829E+02  0.82121369524E+02  0.00000000000E+00 0. -1.
        -12    1    4    4    0    0 -0.75123829211E+01 -0.25981952022E+02  0.52950270756E+01  0.27559663273E+02  0.00000000000E+00 0.  1.
        -13    1    3    3    0    0 -0.35016844144E+02  0.32542535840E+00 -0.10883297324E+03  0.11432804267E+03  0.00000000000E+00 0. -1.
         13    1    3    3    0    0  0.41151999477E+02 -0.63561678213E+02 -0.21188331481E+03  0.22500691788E+03  0.00000000000E+00 0.  1.
          2    1    1    2  501    0 -0.18160149522E+02  0.74936189098E+02 -0.38243539199E+03  0.39013081461E+03  0.00000000000E+00 0. -1.
<scales pt_clust_5="13000.00000" pt_clust_6="13000.00000" pt_clust_7="13000.00000" pt_clust_8="13000.00000" pt_clust_9="77.10531"></scales>
<clustering>
<clus scale="   77.105">  1  9  2 -1</clus>
<clus scale="   79.958">  5  6 -1 -1</clus>
<clus scale="   88.496">  1  5  2 -1</clus>
<clus scale="   90.845">  7  8 -1 -1</clus>
<clus scale="   77.105">  1  5  2 -1</clus>
</clustering>
</event>
<event>
 9    1  0.6270443E-005  0.1279937E+03  0.7546771E-02  0.1233637E+00
          3   -1    0    0  502    0 -0.00000000000E+00  0.00000000000E+00  0.69535780990E+03  0.69535780990E+03  0.00000000000E+00 0. -1.
         21   -1    0    0  501  502  0.00000000000E+00 -0.00000000000E+00 -0.12473971787E+03  0.12473971787E+03  0.00000000000E+00 0. -1.
        -24    2    1    2    0    0  0.13754341668E+02  0.92522186354E+02  0.63127685840E+03  0.64336842001E+03  0.81626680900E+02 0.  0.
         23    2    1    2    0    0 -0.53140792508E+01 -0.23147311946E+02 -0.33862757278E+02  0.10188168074E+03  0.93108286697E+02 0.  0.
         11    1    3    3    0    0  0.32340367501E+02  0.84424133358E+02  0.35437119995E+03  0.36572158949E+03  0.00000000000E+00 0. -1.
        -12    1    3    3    0    0 -0.18586025833E+02  0.80980529960E+01  0.27690565845E+03  0.27764683052E+03  0.00000000000E+00 0.  1.
        -11    1    4    4    0    0 -0.47578717036E+02 -0.24808429174E+02 -0.21602041385E+02  0.57843242171E+02  0.00000000000E+00 0.  1.
         11    1    4    4    0    0  0.42264637785E+02  0.16611172281E+01 -0.12260715893E+02  0.44038438571E+02  0.00000000000E+00 0. -1.
          4    1    1    2  501    0 -0.84402624176E+01 -0.69374874408E+02 -0.26796009081E+02  0.74847427020E+02  0.00000000000E+00 0. -1.
<scales pt_clust_5="13000.00000" pt_clust_6="13000.00000" pt_clust_7="13000.00000" pt_clust_8="13000.00000" pt_clust_9="69.88642"></scales>
<clustering>
<clus scale="   69.886">  2  9  1 -1</clus>
<clus scale="   81.627">  5  6 -1 -1</clus>
<clus scale="   93.108">  7  8 -1 -1</clus>
<clus scale="  119.901">  1  5  2 -1</clus>
<clus scale="   69.886">  2  5  1 -1</clus>
</clustering>
</event>
<event>
 9    1  0.6270443E-005  0.1102457E+03  0.7546771E-02  0.1263858E+00
         -2   -1    0    0    0  501 -0.00000000000E+00  0.00000000000E+00  0.40638579387E+03  0.40638579387E+03  0.00000000000E+00 0.  1.
         21   -1    0    0  501  502  0.00000000000E+00 -0.00000000000E+00 -0.19719417031E+03  0.19719417031E+03  0.00000000000E+00 0.  1.
         23    2    1    2    0    0 -0.16872106940E+02 -0.58840238557E+02  0.35090238965E+03  0.36762078396E+03  0.90915961555E+02 0.  0.
        -24    2    1    2    0    0  0.37772085839E+02  0.62951060714E+02 -0.18699406277E+02  0.11111726971E+03  0.81288457476E+02 0.  0.
         13    1    4    4    0    0 -0.34131092761E+01  0.67359784695E+02 -0.17499389832E+02  0.69679398344E+02  0.00000000000E+00 0. -1.
        -14    1    4    4    0    0  0.41185195115E+02 -0.44087239807E+01 -0.12000164451E+01  0.41437871365E+02  0.00000000000E+00 0.  1.
        -13    1    3    3    0    0 -0.41933570453E+02 -0.43052979572E+02  0.31680395565E+03  0.32245422884E+03  0.00000000000E+00 0.  1.
         13    1    3    3    0    0  0.25061463512E+02 -0.15787258985E+02  0.34098434007E+02  0.45166555119E+02  0.00000000000E+00 0. -1.
         -1    1    1    2    0  502 -0.20899978899E+02 -0.41108221565E+01 -0.12301135982E+03  0.12484191052E+03  0.00000000000E+00 0.  1.
<scales pt_clust_5="13000.00000" pt_clust_6="13000.00000" pt_clust_7="13000.00000" pt_clust_8="13000.00000" pt_clust_9="21.30042"></scales>
<clustering>
<clus scale="   21.300">  2  9  1 -1</clus>
<clus scale="   81.288">  5  6 -1 -1</clus>
<clus scale="   90.916">  7  8 -1 -1</clus>
<clus scale="  102.451">  2  5  1 -1</clus>
<clus scale="   21.300">  2  5  1 -1</clus>
</clustering>
</event>
<event>
 9    1  0.6270443E-005  0.1416457E+03  0.7546771E-02  0.1211608E+00
         21   -1    0    0  501  502  0.00000000000E+00  0.00000000000E+00  0.10904517660E+03  0.10904517660E+03  0.00000000000E+00 0.  1.
         -2   -1    0    0    0  501 -0.00000000000E+00 -0.00000000000E+00 -0.69614980763E+03  0.69614980763E+03  0.00000000000E+00 0.  1.
        -24    2    1    2    0    0  0.53502070210E+02 -0.87505177910E+02 -0.53235464024E+03  0.54974343359E+03  0.91086508985E+02 0.  0.
         23    2    1    2    0    0 -0.11499606181E+03  0.10865684855E+03 -0.57560819338E+02  0.19036080681E+03  0.88845843341E+02 0.  0.
         11    1    3    3    0    0  0.22649664074E+01 -0.69497182529E+02 -0.41031342692E+03  0.41616354569E+03  0.00000000000E+00 0. -1.
        -12    1    3    3    0    0  0.51237103803E+02 -0.18007995382E+02 -0.12204121332E+03  0.13357988790E+03  0.00000000000E+00 0.  1.
        -11    1    4    4    0    0 -0.32434466006E+02  0.44847992643E+02  0.21572075123E+02  0.59402789954E+02  0.00000000000E+00 0. -1.
         11    1    4    4    0    0 -0.82561595808E+02  0.63808855905E+02 -0.79132894461E+02  0.13095801686E+03  0.00000000000E+00 0.  1.
         -1    1    1    2    0  502  0.61493991604E+02 -0.21151670638E+02  0.28108285371E+01  0.65090743822E+02  0.00000000000E+00 0.  1.
<scales pt_clust_5="13000.00000" pt_clust_6="13000.00000" pt_clust_7="13000.00000" pt_clust_8="13000.00000" pt_clust_9="65.03003"></scales>
<clustering>
<clus scale="   65.030">  1  9  2 -1</clus>
<clus scale="   88.846">  7  8 -1 -1</clus>
<clus scale="   91.087">  5  6 -1 -1</clus>
<clus scale="  140.215">  1  7  2 -1</clus>
<clus scale="   65.030">  1  5  2 -1</clus>
</clustering>
</event>
<event>
 9    1  0.6270443E-005  0.8996459E+02  0.7546771E-02  0.1308076E+00
          3   -1    0    0  502    0 -0.00000000000E+00  0.00000000000E+00  0.13824820294E+03  0.13824820294E+03  0.00000000000E+00 0. -1.
         21   -1    0    0  501  502  0.00000000000E+00 -0.00000000000E+00 -0.10922950462E+03  0.10922950462E+03  0.00000000000E+00 0.  1.
         23    2    1    2    0    0  0.98059899532E+01 -0.14132249614E+02  0.24965602812E+02  0.93403239823E+02  0.88345944828E+02 0.  0.
        -24    2    1    2    0    0  0.43362610751E+02  0.13413363604E+02 -0.22276343448E+02  0.94739349518E+02  0.80119127150E+02 0.  0.
         13    1    4    4    0    0  0.35040215969E+02 -0.22741132460E+01  0.25744311355E+02  0.43540301943E+02  0.00000000000E+00 0. -1.
        -14    1    4    4    0    0  0.83223947829E+01  0.15687476850E+02 -0.48020654803E+02  0.51199047575E+02  0.00000000000E+00 0.  1.
        -11    1    3    3    0    0  0.25303482229E+02  0.71331946729E+01 -0.25414318906E+02  0.36565506760E+02  0.00000000000E+00 0.  1.
         11    1    3    3    0    0 -0.15497492276E+02 -0.21265444287E+02  0.50379921717E+02  0.56837733064E+02  0.00000000000E+00 0. -1.
          4    1    1    2  501    0 -0.53168600705E+02  0.71888600989E+00  0.26329438963E+02  0.59335118219E+02  0.00000000000E+00 0. -1.
<scales pt_clust_5="13000.00000" pt_clust_6="13000.00000" pt_clust_7="13000.00000" pt_clust_8="13000.00000" pt_clust_9="53.17349"></scales>
<clustering>
<clus scale="   53.173">  2  9  1 -1</clus>
<clus scale="   80.119">  5  6 -1 -1</clus>
<clus scale="   81.901">  2  5  1 -1</clus>
<clus scale="   88.346">  7  8 -1 -1</clus>
<clus scale="   53.173">  2  5  1 -1</clus>
</clustering>
</event>
<event>
 9    1  0.6270443E-005  0.9283886E+02  0.7546771E-02  0.1298291E+00
         21   -1    0    0  501  502  0.00000000000E+00  0.00000000000E+00  0.14229156437E+03  0.14229156437E+03  0.00000000000E+00 0.  1.
          1   -1    0    0  502    0 -0.00000000000E+00 -0.00000000000E+00 -0.24338023145E+03  0.24338023145E+03  0.00000000000E+00 0. -1.
         23    2    1    2    0    0  0.40434732110E+02 -0.12821460023E+02 -0.20812736081E+03  0.22829004754E+03  0.83665943422E+02 0.  0.
        -24    2    1    2    0    0 -0.15398845282E+02  0.20810114542E+01  0.10091977347E+03  0.12946053680E+03  0.79585016601E+02 0.  0.
         13    1    4    4    0    0 -0.42533660785E+02  0.20645722688E+01  0.26276826041E+02  0.50038448669E+02  0.00000000000E+00 0. -1.
        -14    1    4    4    0    0  0.27134815503E+02  0.16439185353E-01  0.74642947431E+02  0.79422088135E+02  0.00000000000E+00 0.  1.
        -13    1    3    3    0    0  0.14075049147E+02  0.26686744806E+02 -0.25240089085E+02  0.39336388419E+02  0.00000000000E+00 0.  1.
         13    1    3    3    0    0  0.26359682963E+02 -0.39508204830E+02 -0.18288727173E+03  0.18895365912E+03  0.00000000000E+00 0. -1.
          2    1    1    2  501    0 -0.25035886828E+02  0.10740448569E+02  0.61189202622E+01  0.27921211469E+02  0.00000000000E+00 0. -1.
<scales pt_clust_5="13000.00000" pt_clust_6="13000.00000" pt_clust_7="13000.00000" pt_clust_8="13000.00000" pt_clust_9="27.24248"></scales>
<clustering>
<clus scale="   27.242">  1  9  2 -1</clus>
<clus scale="   79.585">  5  6 -1 -1</clus>
<clus scale="   83.666">  7  8 -1 -1</clus>
<clus scale="   89.179">  1  5  2 -1</clus>
<clus scale="   27.242">  1  5  2 -1</clus>
</clustering>
</event>
<event>
 9    1  0.6270443E-005  0.1408404E+03  0.7546771E-02  0.1214638E+00
          1   -1    0    0  502    0 -0.00000000000E+00  0.00000000000E+00  0.13369219086E+04  0.13369219086E+04  0.00000000000E+00 0. -1.
         21   -1    0    0  501  502  0.00000000000E+00 -0.00000000000E+00 -0.57447053009E+02  0.57447053009E+02  0.00000000000E+00 0. -1.
        -24    2    1    2    0    0  0.88215433228E+02 -0.89257366967E+02  0.43904851540E+03  0.46363043245E+03  0.80254213617E+02 0.  0.
         23    2    1    2    0    0  0.47714469001E+02  0.98098316571E+02  0.90986992192E+02  0.16902044677E+03  0.91593277107E+02 0.  0.
         11    1    3    3    0    0  0.37571720861E+02 -0.88382649128E+02  0.32381474636E+03  0.33775600192E+03  0.00000000000E+00 0. -1.
        -12    1    3    3    0    0  0.50643712368E+02 -0.87471783887E+00  0.11523376904E+03  0.12587443053E+03  0.00000000000E+00 0.  1.
        -11    1    4    4    0    0 -0.20545743694E+02  0.11047269832E+02  0.41985690111E+02  0.48030905975E+02  0.00000000000E+00 0.  1.
         11    1    4    4    0    0  0.68260212695E+02  0.87051046739E+02  0.49001302081E+02  0.12098954079E+03  0.00000000000E+00 0. -1.
          2    1    1    2  501    0 -0.13592990223E+03 -0.88409496041E+01  0.74943934802E+03  0.76171808241E+03  0.00000000000E+00 0. -1.
<scales pt_clust_5="13000.00000" pt_clust_6="13000.00000" pt_clust_7="13000.00000" pt_clust_8="13000.00000" pt_clust_9="136.21718"></scales>
<clustering>
<clus scale="   80.254">  5  6 -1 -1</clus>
<clus scale="   91.593">  7  8 -1 -1</clus>
<clus scale="  136.217">  2  9  1 -1</clus>
<clus scale="  133.744">  1  5  2 -1</clus>
<clus scale="  136.217">  2  5  1 -1</clus>
</clustering>
</event>
<event>
 9    1  0.6270443E-005  0.2352109E+03  0.7546771E-02  0.1142742E+00
         21   -1    0    0  501  502  0.00000000000E+00  0.00000000000E+00  0.26660252805E+03  0.26660252805E+03  0.00000000000E+00 0. -1.
          1   -1    0    0  502    0 -0.00000000000E+00 -0.00000000000E+00 -0.45940990095E+03  0.45940990095E+03  0.00000000000E+00 0. -1.
        -24    2    1    2    0    0  0.10406773929E+03  0.59048075601E+02 -0.95159304213E+02  0.17367736312E+03  0.82412157413E+02 0.  0.
         23    2    1    2    0    0  0.62474315609E+02  0.18244855567E+03  0.56399026147E+02  0.22099326894E+03  0.92014450979E+02 0.  0.
         13    1    3    3    0    0  0.11537420993E+02  0.40675604211E+02 -0.59138000638E+02  0.72697455118E+02  0.00000000000E+00 0. -1.
        -14    1    3    3    0    0  0.92530318300E+02  0.18372471389E+02 -0.36021303575E+02  0.10097990801E+03  0.00000000000E+00 0.  1.
        -13    1    4    4    0    0  0.50961627319E+02  0.15336060580E+03  0.81398231809E+02  0.18094815559E+03  0.00000000000E+00 0. -1.
         13    1    4    4    0    0  0.11512688290E+02  0.29087949875E+02 -0.24999205662E+02  0.40045113351E+02  0.00000000000E+00 0.  1.
          2    1    1    2  501    0 -0.16654205490E+03 -0.24149663128E+03 -0.15404709484E+03  0.33134179694E+03  0.00000000000E+00 0. -1.
<scales pt_clust_5="13000.00000" pt_clust_6="13000.00000" pt_clust_7="13000.00000" pt_clust_8="13000.00000" pt_clust_9="216.46608"></scales>
<clustering>
<clus scale="   82.412">  5  6 -1 -1</clus>
<clus scale="   92.014">  7  8 -1 -1</clus>
<clus scale="  145.288">  2  5  1 -1</clus>
<clus scale="  216.466">  1  9  2 -1</clus>
<clus scale="  216.466">  1  5  2 -1</clus>
</clustering>
</event>
<event>
 9    1  0.6270443E-005  0.1157730E+03  0.7546771E-02  0.1253090E+00
         21   -1    0    0  501  502  0.00000000000E+00  0.00000000000E+00  0.51163022396E+02  0.51163022396E+02  0.00000000000E+00 0. -1.
          3   -1    0    0  502    0 -0.00000000000E+00 -0.00000000000E+00 -0.55871064210E+03  0.55871064210E+03  0.00000000000E+00 0. -1.
        -24    2    1    2    0    0 -0.21383657190E+02 -0.74554490271E+02 -0.35848408927E+03  0.37596505339E+03  0.82602943631E+02 0.  0.
         23    2    1    2    0    0  0.26816666431E+02  0.38797738735E+02 -0.26024376743E+02  0.10566393788E+03  0.90902153187E+02 0.  0.
         11    1    3    3    0    0 -0.53314952661E+02 -0.45967029604E+02 -0.21708356263E+03  0.22821201799E+03  0.00000000000E+00 0. -1.
        -12    1    3    3    0    0  0.31931295471E+02 -0.28587460667E+02 -0.14140052664E+03  0.14775303540E+03  0.00000000000E+00 0.  1.
        -11    1    4    4    0    0 -0.11809835245E+02  0.57386346546E+02 -0.78840409014E+01  0.59117028675E+02  0.00000000000E+00 0. -1.
         11    1    4    4    0    0  0.38626501676E+02 -0.18588607811E+02 -0.18140335842E+02  0.46546909205E+02  0.00000000000E+00 0.  1.
          4    1    1    2  501    0 -0.54330092409E+01  0.35756751536E+02 -0.12303915369E+03  0.12824467322E+03  0.00000000000E+00 0. -1.
<scales pt_clust_5="13000.00000" pt_clust_6="13000.00000" pt_clust_7="13000.00000" pt_clust_8="13000.00000" pt_clust_9="36.16717"></scales>
<clustering>
<clus scale="   36.167">  1  9  2 -1</clus>
<clus scale="   82.603">  5  6 -1 -1</clus>
<clus scale="   90.902">  7  8 -1 -1</clus>
<clus scale="  109.377">  2  5  1 -1</clus>
<clus scale="   36.167">  1  5  2 -1</clus>
</clustering>
</event>
<event>
 9    1  0.6270443E-005  0.9762729E+02  0.7546771E-02  0.1289608E+00
         21   -1    0    0  501  502  0.00000000000E+00  0.00000000000E+00  0.11719218283E+03  0.11719218283E+03  0.00000000000E+00 0.  1.
         -2   -1    0    0    0  501 -0.00000000000E+00 -0.00000000000E+00 -0.21826522339E+03  0.21826522339E+03  0.00000000000E+00 0.  1.
         23    2    1    2    0    0  0.48162377821E+02 -0.16118094203E+02 -0.77711186070E+02  0.12906213743E+03  0.89658235980E+02 0.  0.
        -24    2    1    2    0    0 -0.61367035713E+01 -0.25742728314E+02  0.59654556128E+02  0.10436483122E+03  0.81443260842E+02 0.  0.
         13    1    4    4    0    0 -0.33815328253E+02 -0.93075984061E+01 -0.16618473219E+01  0.35112242159E+02  0.00000000000E+00 0. -1.
        -14    1    4    4    0    0  0.27678624681E+02 -0.16435129908E+02  0.61316403450E+02  0.69252589059E+02  0.00000000000E+00 0.  1.
        -11    1    3    3    0    0  0.35838293090E+02 -0.35194344507E+02 -0.90126988227E+02  0.10317896658E+03  0.00000000000E+00 0.  1.
         11    1    3    3    0    0  0.12324084732E+02  0.19076250304E+02  0.12415802157E+02  0.25883170852E+02  0.00000000000E+00 0. -1.
         -1    1    1    2    0  502 -0.42025674250E+02  0.41860822517E+02 -0.83016410628E+02  0.10203043757E+03  0.00000000000E+00 0.  1.
<scales pt_clust_5="13000.00000" pt_clust_6="13000.00000" pt_clust_7="13000.00000" pt_clust_8="13000.00000" pt_clust_9="59.31685"></scales>
<clustering>
<clus scale="   59.317">  1  9  2 -1</clus>
<clus scale="   81.443">  5  6 -1 -1</clus>
<clus scale="   89.658">  7  8 -1 -1</clus>
<clus scale="   90.142">  1  5  2 -1</clus>
<clus scale="   59.317">  1  5  2 -1</clus>
</clustering>
</event>
<event>
 9    1  0.7524957E-005  0.1255493E+03  0.7546771E-02  0.1238562E+00
         -2   -1    0    0    0  501 -0.00000000000E+00  0.00000000000E+00  0.10387062246E+04  0.10387062246E+04  0.00000000000E+00 0.  1.
         21   -1    0    0  501  502  0.00000000000E+00 -0.00000000000E+00 -0.11806087117E+03  0.11806087117E+03  0.00000000000E+00 0.  1.
        -24    2    1    2    0    0 -0.52589877548E+02  0.58297853874E+02  0.81697198528E+03  0.82467460496E+03  0.80502449271E+02 0.  0.
         23    2    1    2    0    0  0.16269144727E+03 -0.62421307467E+02  0.33139312015E+02  0.20127042996E+03  0.95113854586E+02 0.  0.
         13    1    3    3    0    0 -0.64074190830E+02  0.20410412301E+02  0.37923429603E+03  0.38515027995E+03  0.00000000000E+00 0. -1.
        -14    1    3    3    0    0  0.11484313283E+02  0.37887441573E+02  0.43773768925E+03  0.43952432500E+03  0.00000000000E+00 0.  1.
        -11    1    4    4    0    0  0.13955398508E+03 -0.73506715925E+02  0.55529124030E+02  0.16721852665E+03  0.00000000000E+00 0.  1.
         11    1    4    4    0    0  0.23137462192E+02  0.11085408458E+02 -0.22389812015E+02  0.34051903315E+02  0.00000000000E+00 0. -1.
         -1    1    1    2    0  502 -0.11010156973E+03  0.41234535932E+01  0.70534056096E+02  0.13082206081E+03  0.00000000000E+00 0.  1.
<scales pt_clust_5="13000.00000" pt_clust_6="13000.00000" pt_clust_7="13000.00000" pt_clust_8="13000.00000" pt_clust_9="110.17876"></scales>
<clustering>
<clus scale="   80.502">  5  6 -1 -1</clus>
<clus scale="   95.114">  7  8 -1 -1</clus>
<clus scale="  110.179">  2  9  1 -1</clus>
<clus scale="  114.877">  1  5  2 -1</clus>
<clus scale="  110.179">  2  5  1 -1</clus>
</clustering>
</event>
<event>
 9    1  0.6270443E-005  0.2899821E+03  0.7546771E-02  0.1091025E+00
         21   -1    0    0  501  502  0.00000000000E+00  0.00000000000E+00  0.66466373315E+02  0.66466373315E+02  0.00000000000E+00 0.  1.
         -2   -1    0    0    0  501 -0.00000000000E+00 -0.00000000000E+00 -0.16184031097E+04  0.16184031097E+04  0.00000000000E+00 0.  1.
        -24    2    1    2    0    0  0.37028474863E+02  0.27505599094E+03 -0.77263038415E+03  0.82431178549E+03  0.74197729724E+02 0.  0.
         23    2    1    2    0    0  0.32894240121E+02 -0.27492508103E+03 -0.57750449479E+03  0.64698524406E+03  0.91720408390E+02 0.  0.
         11    1    3    3    0    0  0.19096216691E+02  0.11062292257E+02 -0.46447941359E+02  0.51424226376E+02  0.00000000000E+00 0. -1.
        -12    1    3    3    0    0  0.17932258172E+02  0.26399369868E+03 -0.72618244279E+03  0.77288755912E+03  0.00000000000E+00 0.  1.
        -11    1    4    4    0    0  0.13846034046E+02 -0.20509616881E+03 -0.32709929713E+03  0.38632900655E+03  0.00000000000E+00 0.  1.
         11    1    4    4    0    0  0.19048206075E+02 -0.69828912217E+02 -0.25040519766E+03  0.26065623751E+03  0.00000000000E+00 0. -1.
         -1    1    1    2    0  502 -0.69922714984E+02 -0.13090990575E+00 -0.20180185747E+03  0.21357245349E+03  0.00000000000E+00 0.  1.
<scales pt_clust_5="13000.00000" pt_clust_6="13000.00000" pt_clust_7="13000.00000" pt_clust_8="13000.00000" pt_clust_9="69.92287"></scales>
<clustering>
<clus scale="   69.923">  1  9  2 -1</clus>
<clus scale="   74.198">  5  6 -1 -1</clus>
<clus scale="   91.720">  7  8 -1 -1</clus>
<clus scale="  284.925">  2  5  1 -1</clus>
<clus scale="   69.923">  1  5  2 -1</clus>
</clustering>
</event>
<event>
 9    1  0.6270443E-005  0.1218277E+03  0.7546771E-02  0.1251655E+00
          1   -1    0    0  502    0 -0.00000000000E+00  0.00000000000E+00  0.19263466423E+03  0.19263466423E+03  0.00000000000E+00 0. -1.
         21   -1    0    0  501  502  0.00000000000E+00 -0.00000000000E+00 -0.14143841483E+03  0.14143841483E+03  0.00000000000E+00 0.  1.
        -24    2    1    2    0    0  0.71305898893E+02  0.13182270055E+02  0.12908110589E+03  0.16332531586E+03  0.68955952923E+02 0.  0.
         23    2    1    2    0    0 -0.38901243258E+02  0.49762421779E+01 -0.77739315312E+02  0.13360190937E+03  0.10133113702E+03 0.  0.
         11    1    3    3    0    0  0.43655957651E+02 -0.17577632837E+02  0.10595970302E+03  0.11594082318E+03  0.00000000000E+00 0. -1.
        -12    1    3    3    0    0  0.27649941242E+02  0.30759902892E+02  0.23121402869E+02  0.47384492687E+02  0.00000000000E+00 0.  1.
        -11    1    4    4    0    0 -0.46085441628E+02 -0.22956512293E+02 -0.86354332990E+00  0.51493835493E+02  0.00000000000E+00 0. -1.
         11    1    4    4    0    0  0.71841983699E+01  0.27932754471E+02 -0.76875771982E+02  0.82108073881E+02  0.00000000000E+00 0.  1.
          2    1    1    2  501    0 -0.32404655635E+02 -0.18158512233E+02 -0.14554117784E+00  0.37145853813E+02  0.00000000000E+00 0. -1.
<scales pt_clust_5="13000.00000" pt_clust_6="13000.00000" pt_clust_7="13000.00000" pt_clust_8="13000.00000" pt_clust_9="37.14557"></scales>
<clustering>
<clus scale="   37.146">  2  9  1 -1</clus>
<clus scale="   68.956">  5  6 -1 -1</clus>
<clus scale="   96.586">  1  5  2 -1</clus>
<clus scale="  101.331">  7  8 -1 -1</clus>
<clus scale="   37.146">  2  5  1 -1</clus>
</clustering>
</event>
<event>
 9    1  0.6270443E-005  0.1358202E+03  0.7546771E-02  0.1220498E+00
         21   -1    0    0  501  502  0.00000000000E+00  0.00000000000E+00  0.45304781218E+03  0.45304781218E+03  0.00000000000E+00 0.  1.
          3   -1    0    0  502    0 -0.00000000000E+00 -0.00000000000E+00 -0.71956297286E+02  0.71956297286E+02  0.00000000000E+00 0. -1.
        -24    2    1    2    0    0 -0.87198761526E+02  0.50152317417E+02  0.52959195964E+02  0.13924532289E+03  0.80409604874E+02 0.  0.
         23    2    1    2    0    0  0.97611149942E+02 -0.67486387685E+02  0.33380205090E+03  0.36475798456E+03  0.86846007370E+02 0.  0.
         13    1    3    3    0    0 -0.80612005930E+01 -0.20700717953E+02  0.13114013796E+02  0.25796899748E+02  0.00000000000E+00 0. -1.
        -14    1    3    3    0    0 -0.79137560933E+02  0.70853035371E+02  0.39845182169E+02  0.11344842314E+03  0.00000000000E+00 0.  1.
        -11    1    4    4    0    0  0.68304885087E+02 -0.14194845144E+02  0.92205357692E+02  0.11562386839E+03  0.00000000000E+00 0. -1.
         11    1    4    4    0    0  0.29306264855E+02 -0.53291542542E+02  0.24159669321E+03  0.24913411616E+03  0.00000000000E+00 0.  1.
          4    1    1    2  501    0 -0.10412388416E+02  0.17334070268E+02 -0.56697319746E+01  0.21000802014E+02  0.00000000000E+00 0. -1.
<scales pt_clust_5="13000.00000" pt_clust_6="13000.00000" pt_clust_7="13000.00000" pt_clust_8="13000.00000" pt_clust_9="20.22098"></scales>
<clustering>
<clus scale="   20.221">  1  9  2 -1</clus>
<clus scale="   80.410">  5  6 -1 -1</clus>
<clus scale="   86.846">  7  8 -1 -1</clus>
<clus scale="  131.798">  2  5  1 -1</clus>
<clus scale="   20.221">  1  5  2 -1</clus>
</clustering>
</event>
<event>
 9    1  0.6270443E-005  0.2677877E+03  0.7546771E-02  0.1130448E+00
         21   -1    0    0  501  502  0.00000000000E+00  0.00000000000E+00  0.75996974482E+03  0.75996974482E+03  0.00000000000E+00 0.  1.
         -2   -1    0    0    0  501 -0.00000000000E+00 -0.00000000000E+00 -0.18811307483E+03  0.18811307483E+03  0.00000000000E+00 0.  1.
         23    2    1    2    0    0 -0.98461019770E+02  0.35448589373E+02 -0.10379278170E+02  0.13308714973E+03  0.81567671945E+02 0.  0.
        -24    2    1    2    0    0 -0.22208992181E+03 -0.27368164665E+02  0.33036807079E+03  0.40725110886E+03  0.81470569313E+02 0.  0.
         11    1    4    4    0    0 -0.57963155777E+02 -0.30650687556E+02  0.50383651973E+02  0.82690413359E+02  0.00000000000E+00 0. -1.
        -12    1    4    4    0    0 -0.16412676603E+03  0.32825228907E+01  0.27998441881E+03  0.32456069550E+03  0.00000000000E+00 0.  1.
        -13    1    3    3    0    0 -0.46687097937E+02  0.33437198495E+02  0.32364960596E+02  0.65918298152E+02  0.00000000000E+00 0. -1.
         13    1    3    3    0    0 -0.51773921833E+02  0.20113908782E+01 -0.42744238766E+02  0.67168851583E+02  0.00000000000E+00 0.  1.
         -1    1    1    2    0  502  0.32055094158E+03 -0.80804247080E+01  0.25186787737E+03  0.40774456105E+03  0.00000000000E+00 0.  1.
<scales pt_clust_5="13000.00000" pt_clust_6="13000.00000" pt_clust_7="13000.00000" pt_clust_8="13000.00000" pt_clust_9="255.09386"></scales>
<clustering>
<clus scale="   81.471">  5  6 -1 -1</clus>
<clus scale="   81.568">  7  8 -1 -1</clus>
<clus scale="  132.682">  2  7  1 -1</clus>
<clus scale="  255.094">  1  9  2 -1</clus>
<clus scale="  255.094">  1  5  2 -1</clus>
</clustering>
</event>
<event>
 9    1  0.6270443E-005  0.2023546E+03  0.7546771E-02  0.1151982E+00
          1   -1    0    0  502    0 -0.00000000000E+00  0.00000000000E+00  0.40279740681E+03  0.40279740681E+03  0.00000000000E+00 0. -1.
         21   -1    0    0  501  502  0.00000000000E+00 -0.00000000000E+00 -0.45419914702E+03  0.45419914702E+03  0.00000000000E+00 0. -1.
         23    2    1    2    0    0 -0.80014007378E-01  0.15939144552E+03  0.20580029730E+03  0.27547423982E+03  0.90147962425E+02 0.  0.
        -24    2    1    2    0    0 -0.17709610845E+03 -0.75590050047E+02  0.52411104683E+02  0.21508766762E+03  0.80242716650E+02 0.  0.
         13    1    4    4    0    0 -0.12354520292E+03 -0.56867626583E+02 -0.26503655371E+01  0.13603076327E+03  0.00000000000E+00 0. -1.
        -14    1    4    4    0    0 -0.53550905529E+02 -0.18722423465E+02  0.55061470220E+02  0.79056904355E+02  0.00000000000E+00 0.  1.
        -13    1    3    3    0    0  0.44680959246E+01  0.10989869800E+03  0.19609335359E+03  0.22483391876E+03  0.00000000000E+00 0. -1.
         13    1    3    3    0    0 -0.45481099320E+01  0.49492747517E+02  0.97069437101E+01  0.50640321059E+02  0.00000000000E+00 0.  1.
          2    1    1    2  501    0  0.17717612246E+03 -0.83801395468E+02 -0.30961314219E+03  0.36643464638E+03  0.00000000000E+00 0. -1.
<scales pt_clust_5="13000.00000" pt_clust_6="13000.00000" pt_clust_7="13000.00000" pt_clust_8="13000.00000" pt_clust_9="185.76466"></scales>
<clustering>
<clus scale="   80.243">  5  6 -1 -1</clus>
<clus scale="   90.148">  7  8 -1 -1</clus>
<clus scale="  183.118">  1  7  2 -1</clus>
<clus scale="  185.765">  2  9  1 -1</clus>
<clus scale="  185.765">  2  5  1 -1</clus>
</clustering>
</event>
<event>
 9    1  0.6270443E-005  0.1453468E+03  0.7546771E-02  0.1208789E+00
         -2   -1    0    0    0  501 -0.00000000000E+00  0.00000000000E+00  0.17212391292E+03  0.17212391292E+03  0.00000000000E+00 0.  1.
         21   -1    0    0  501  502  0.00000000000E+00 -0.00000000000E+00 -0.37929701521E+03  0.37929701521E+03  0.00000000000E+00 0.  1.
         23    2    1    2    0    0  0.10625587595E+03 -0.25645246173E+02  0.10266012915E+03  0.17618122652E+03  0.92480985269E+02 0.  0.
        -24    2    1    2    0    0 -0.12997479561E+03 -0.13227060704E+01 -0.16004350893E+03  0.22120458040E+03  0.80139532029E+02 0.  0.
         11    1    4    4    0    0 -0.48777878701E+02  0.37908513145E+02 -0.54478217863E+02  0.82366334391E+02  0.00000000000E+00 0. -1.
        -12    1    4    4    0    0 -0.81196916911E+02 -0.39231219216E+02 -0.10556529107E+03  0.13883824601E+03  0.00000000000E+00 0.  1.
        -11    1    3    3    0    0  0.81425603533E+02 -0.24488073607E+02  0.11913079964E+03  0.14636236566E+03  0.00000000000E+00 0.  1.
         11    1    3    3    0    0  0.24830272420E+02 -0.11571725663E+01 -0.16470670487E+02  0.29818860862E+02  0.00000000000E+00 0. -1.
         -1    1    1    2    0  502  0.23718919659E+02  0.26967952244E+02 -0.14978972251E+03  0.15403512121E+03  0.00000000000E+00 0.  1.
<scales pt_clust_5="13000.00000" pt_clust_6="13000.00000" pt_clust_7="13000.00000" pt_clust_8="13000.00000" pt_clust_9="35.91459"></scales>
<clustering>
<clus scale="   35.915">  2  9  1 -1</clus>
<clus scale="   80.140">  5  6 -1 -1</clus>
<clus scale="   92.481">  7  8 -1 -1</clus>
<clus scale="  137.824">  2  5  1 -1</clus>
<clus scale="   35.915">  2  5  1 -1</clus>
</clustering>
</event>
<event>
 9    1  0.6270443E-005  0.1059956E+03  0.7546771E-02  0.1274725E+00
         21   -1    0    0  501  502  0.00000000000E+00  0.00000000000E+00  0.15809156980E+03  0.15809156980E+03  0.00000000000E+00 0. -1.
          1   -1    0    0  502    0 -0.00000000000E+00 -0.00000000000E+00 -0.16649398201E+03  0.16649398201E+03  0.00000000000E+00 0. -1.
         23    2    1    2    0    0 -0.56096455348E+02 -0.86888907292E+01 -0.12348592100E+03  0.16404246598E+03  0.91863207191E+02 0.  0.
        -24    2    1    2    0    0  0.36206663182E+02 -0.13234967621E+01  0.69711574698E+02  0.11000137890E+03  0.76993023134E+02 0.  0.
         11    1    4    4    0    0 -0.11586104765E+02 -0.24848496859E+02  0.81713780073E+01  0.28608688161E+02  0.00000000000E+00 0. -1.
        -12    1    4    4    0    0  0.47792767946E+02  0.23525000097E+02  0.61540196691E+02  0.81392690742E+02  0.00000000000E+00 0.  1.
        -13    1    3    3    0    0 -0.58944367428E+02 -0.43270214539E+02 -0.79416852395E+02  0.10795270428E+03  0.00000000000E+00 0.  1.
         13    1    3    3    0    0  0.28479120797E+01  0.34581323810E+02 -0.44069068604E+02  0.56089761698E+02  0.00000000000E+00 0. -1.
          2    1    1    2  501    0  0.19889792167E+02  0.10012387491E+02  0.45371934087E+02  0.50541706921E+02  0.00000000000E+00 0. -1.
<scales pt_clust_5="13000.00000" pt_clust_6="13000.00000" pt_clust_7="13000.00000" pt_clust_8="13000.00000" pt_clust_9="22.26773"></scales>
<clustering>
<clus scale="   22.268">  1  9  2 -1</clus>
<clus scale="   76.993">  5  6 -1 -1</clus>
<clus scale="   91.863">  7  8 -1 -1</clus>
<clus scale="   93.403">  1  5  2 -1</clus>
<clus scale="   22.268">  1  5  2 -1</clus>
</clustering>
</event>
<event>
 9    1  0.6270443E-005  0.2078378E+03  0.7546771E-02  0.1144519E+00
         21   -1    0    0  501  502  0.00000000000E+00  0.00000000000E+00  0.60292012675E+03  0.60292012675E+03  0.00000000000E+00 0. -1.
          1   -1    0    0  502    0 -0.00000000000E+00 -0.00000000000E+00 -0.81751847766E+03  0.81751847766E+03  0.00000000000E+00 0. -1.
        -24    2    1    2    0    0 -0.17192580616E+03  0.91118226570E+02 -0.72539867495E+03  0.75505574322E+03  0.77749107525E+02 0.  0.
         23    2    1    2    0    0  0.13203546504E+03 -0.38220378581E+02  0.16178784464E+02  0.16634389573E+03  0.92273383024E+02 0.  0.
         13    1    3    3    0    0 -0.76993876050E+02  0.12451846365E+02 -0.38981247454E+03  0.39753851478E+03  0.00000000000E+00 0. -1.
        -14    1    3    3    0    0 -0.94931930106E+02  0.78666380205E+02 -0.33558620041E+03  0.35751722844E+03  0.00000000000E+00 0.  1.
        -13    1    4    4    0    0  0.75152174596E+02  0.14510190448E+02 -0.22351141519E+02  0.79736870396E+02  0.00000000000E+00 0. -1.
         13    1    4    4    0    0  0.56883290439E+02 -0.52730569029E+02  0.38529925983E+02  0.86607025336E+02  0.00000000000E+00 0.  1.
          2    1    1    2  501    0  0.39890341120E+02 -0.52897847988E+02  0.49462153957E+03  0.49903896546E+03  0.00000000000E+00 0. -1.
<scales pt_clust_5="13000.00000" pt_clust_6="13000.00000" pt_clust_7="13000.00000" pt_clust_8="13000.00000" pt_clust_9="66.25271"></scales>
<clustering>
<clus scale="   66.253">  1  9  2 -1</clus>
<clus scale="   77.749">  5  6 -1 -1</clus>
<clus scale="   92.273">  7  8 -1 -1</clus>
<clus scale="  201.810">  2  5  1 -1</clus>
<clus scale="   66.253">  1  5  2 -1</clus>
</clustering>
</event>
<event>
 9    1  0.6270443E-005  0.3949432E+03  0.7546771E-02  0.1071107E+00
         21   -1    0    0  501  502  0.00000000000E+00  0.00000000000E+00  0.21312747788E+03  0.21312747788E+03  0.00000000000E+00 0. -1.
          1   -1    0    0  502    0 -0.00000000000E+00 -0.00000000000E+00 -0.13427178766E+04  0.13427178766E+04  0.00000000000E+00 0. -1.
        -24    2    1    2    0    0 -0.43385871076E+02 -0.16873431500E+03 -0.23969485892E+03  0.30752769602E+03  0.82256036640E+02 0.  0.
         23    2    1    2    0    0 -0.12062129685E+03  0.41045816230E+03 -0.16616266095E+03  0.46785750609E+03  0.90858218420E+02 0.  0.
         13    1    3    3    0    0 -0.42472897559E+02 -0.12131159406E+03 -0.22272576224E+03  0.25715212432E+03  0.00000000000E+00 0. -1.
        -14    1    3    3    0    0 -0.91297351678E+00 -0.47422720939E+02 -0.16969096679E+02  0.50375571699E+02  0.00000000000E+00 0.  1.
        -13    1    4    4    0    0 -0.61520890381E+02  0.14507694735E+03 -0.10446146020E+03  0.18906172874E+03  0.00000000000E+00 0.  1.
         13    1    4    4    0    0 -0.59100406471E+02  0.26538121496E+03 -0.61701200750E+02  0.27879577735E+03  0.00000000000E+00 0. -1.
          2    1    1    2  501    0  0.16400716793E+03 -0.24172384731E+03 -0.72373287880E+03  0.78046015231E+03  0.00000000000E+00 0. -1.
<scales pt_clust_5="13000.00000" pt_clust_6="13000.00000" pt_clust_7="13000.00000" pt_clust_8="13000.00000" pt_clust_9="384.35017"></scales>
<clustering>
<clus scale="   82.256">  5  6 -1 -1</clus>
<clus scale="   90.858">  7  8 -1 -1</clus>
<clus scale="  192.665">  2  5  1 -1</clus>
<clus scale="  384.350">  1  9  2 -1</clus>
<clus scale="  384.350">  1  5  2 -1</clus>
</clustering>
</event>
<event>
 9    1  0.6270443E-005  0.1058771E+03  0.7546771E-02  0.1283000E+00
         21   -1    0    0  501  502  0.00000000000E+00  0.00000000000E+00  0.51792044726E+03  0.51792044726E+03  0.00000000000E+00 0. -1.
          3   -1    0    0  502    0 -0.00000000000E+00 -0.00000000000E+00 -0.64799694125E+02  0.64799694125E+02  0.00000000000E+00 0. -1.
         23    2    1    2    0    0  0.98526881117E+01  0.53660684770E+00  0.81938898253E+01  0.10490094720E+03  0.10411390629E+03 0.  0.
        -24    2    1    2    0    0 -0.30911763218E+02  0.43680117611E+02  0.13895328734E+03  0.16795078250E+03  0.77691437754E+02 0.  0.
         11    1    4    4    0    0  0.25017673523E+02  0.31974363824E+01  0.40145164212E+02  0.47410355383E+02  0.00000000000E+00 0. -1.
        -12    1    4    4    0    0 -0.55929436741E+02  0.40482681229E+02  0.98808123126E+02  0.12054042712E+03  0.00000000000E+00 0.  1.
        -13    1    3    3    0    0 -0.11985193903E+02 -0.22554862772E+02 -0.39828099068E+02  0.47314312665E+02  0.00000000000E+00 0. -1.
         13    1    3    3    0    0  0.21837882015E+02  0.23091469620E+02  0.48021988894E+02  0.57586634538E+02  0.00000000000E+00 0.  1.
          4    1    1    2  501    0  0.21059075106E+02 -0.44216724459E+02  0.30597357597E+03  0.30986841168E+03  0.00000000000E+00 0. -1.
<scales pt_clust_5="13000.00000" pt_clust_6="13000.00000" pt_clust_7="13000.00000" pt_clust_8="13000.00000" pt_clust_9="48.97554"></scales>
<clustering>
<clus scale="   48.976">  1  9  2 -1</clus>
<clus scale="   77.691">  5  6 -1 -1</clus>
<clus scale="   80.039">  1  5  2 -1</clus>
<clus scale="  104.114">  7  8 -1 -1</clus>
<clus scale="   48.976">  1  5  2 -1</clus>
</clustering>
</event>
<event>
 9    1  0.6270443E-005  0.1042161E+03  0.7546771E-02  0.1277354E+00
         21   -1    0    0  501  502  0.00000000000E+00  0.00000000000E+00  0.18901688551E+03  0.18901688551E+03  0.00000000000E+00 0.  1.
         -4   -1    0    0    0  501 -0.00000000000E+00 -0.00000000000E+00 -0.14485881627E+03  0.14485881627E+03  0.00000000000E+00 0.  1.
        -24    2    1    2    0    0  0.44130815705E+02 -0.10446032949E+02 -0.46831169982E+02  0.99832295449E+02  0.75608731199E+02 0.  0.
         23    2    1    2    0    0 -0.10442171877E+03 -0.26566678253E+02  0.84309852369E+02  0.16298323471E+03  0.88575955224E+02 0.  0.
         11    1    3    3    0    0  0.93164268439E+01 -0.35489867830E+02 -0.43366138075E+02  0.56806236096E+02  0.00000000000E+00 0. -1.
        -12    1    3    3    0    0  0.34814388861E+02  0.25043834881E+02 -0.34650319062E+01  0.43026059353E+02  0.00000000000E+00 0.  1.
        -11    1    4    4    0    0 -0.92635356974E+02  0.53878638778E+01  0.27561297521E+02  0.96798572096E+02  0.00000000000E+00 0. -1.
         11    1    4    4    0    0 -0.11786361797E+02 -0.31954542131E+02  0.56748554849E+02  0.66184662609E+02  0.00000000000E+00 0.  1.
         -3    1    1    2    0  502  0.60290903066E+02  0.37012711202E+02  0.66793868495E+01  0.71060171628E+02  0.00000000000E+00 0.  1.
<scales pt_clust_5="13000.00000" pt_clust_6="13000.00000" pt_clust_7="13000.00000" pt_clust_8="13000.00000" pt_clust_9="70.74559"></scales>
<clustering>
<clus scale="   70.746">  1  9  2 -1</clus>
<clus scale="   75.609">  5  6 -1 -1</clus>
<clus scale="   88.576">  7  8 -1 -1</clus>
<clus scale="   93.445">  2  5  1 -1</clus>
<clus scale="   70.746">  1  5  2 -1</clus>
</clustering>
</event>
<event>
 9    1  0.6270443E-005  0.1162967E+03  0.7546771E-02  0.1252997E+00
         21   -1    0    0  501  502  0.00000000000E+00  0.00000000000E+00  0.48627807557E+03  0.48627807557E+03  0.00000000000E+00 0.  1.
         -2   -1    0    0    0  501 -0.00000000000E+00 -0.00000000000E+00 -0.10552453028E+03  0.10552453028E+03  0.00000000000E+00 0.  1.
        -24    2    1    2    0    0 -0.29885135624E+02 -0.61768582960E+02 -0.55815657063E+02  0.12016446916E+03  0.81336541009E+02 0.  0.
         23    2    1    2    0    0  0.20981772864E+02  0.10089890682E+03  0.34785625096E+03  0.37427058634E+03  0.91943875701E+02 0.  0.
         11    1    3    3    0    0  0.17459471043E+02 -0.53082548119E+02 -0.42547574699E+02  0.70234508304E+02  0.00000000000E+00 0. -1.
        -12    1    3    3    0    0 -0.47344606666E+02 -0.86860348411E+01 -0.13268082364E+02  0.49929960858E+02  0.00000000000E+00 0.  1.
        -13    1    4    4    0    0  0.35903622618E+02  0.57538843396E+02  0.91773979428E+02  0.11411508190E+03  0.00000000000E+00 0.  1.
         13    1    4    4    0    0 -0.14921849754E+02  0.43360063429E+02  0.25608227153E+03  0.26015550444E+03  0.00000000000E+00 0. -1.
         -1    1    1    2    0  502  0.89033627599E+01 -0.39130323865E+02  0.88712951404E+02  0.97367550349E+02  0.00000000000E+00 0.  1.
<scales pt_clust_5="13000.00000" pt_clust_6="13000.00000" pt_clust_7="13000.00000" pt_clust_8="13000.00000" pt_clust_9="40.13044"></scales>
<clustering>
<clus scale="   40.130">  1  9  2 -1</clus>
<clus scale="   81.337">  5  6 -1 -1</clus>
<clus scale="   91.944">  7  8 -1 -1</clus>
<clus scale="  108.106">  2  5  1 -1</clus>
<clus scale="   40.130">  1  5  2 -1</clus>
</clustering>
</event>
<event>
 9    1  0.6270443E-005  0.9665352E+02  0.7546771E-02  0.1290584E+00
         21   -1    0    0  501  502  0.00000000000E+00  0.00000000000E+00  0.30897152654E+03  0.30897152654E+03  0.00000000000E+00 0. -1.
         -2   -1    0    0    0  501 -0.00000000000E+00 -0.00000000000E+00 -0.71805264368E+02  0.71805264368E+02  0.00000000000E+00 0.  1.
        -24    2    1    2    0    0  0.10206485485E+02  0.41923866387E+02 -0.22578664318E+02  0.94679649076E+02  0.81195178108E+02 0.  0.
         23    2    1    2    0    0 -0.24977520936E+02 -0.25167931785E+02  0.23256866998E+03  0.25091911246E+03  0.87263471154E+02 0.  0.
         13    1    3    3    0    0 -0.16975380123E+02  0.53899287640E+02  0.13681511846E+01  0.56525822206E+02  0.00000000000E+00 0. -1.
        -14    1    3    3    0    0  0.27181865608E+02 -0.11975421253E+02 -0.23946815503E+02  0.38153826870E+02  0.00000000000E+00 0.  1.
        -13    1    4    4    0    0  0.26176570655E+02 -0.62645667153E+00  0.13937519636E+03  0.14181343611E+03  0.00000000000E+00 0.  1.
         13    1    4    4    0    0 -0.51154091591E+02 -0.24541475113E+02  0.93193473622E+02  0.10910567636E+03  0.00000000000E+00 0. -1.
         -1    1    1    2    0  502  0.14771035451E+02 -0.16755934603E+02  0.27176256509E+02  0.35178029373E+02  0.00000000000E+00 0.  1.
<scales pt_clust_5="13000.00000" pt_clust_6="13000.00000" pt_clust_7="13000.00000" pt_clust_8="13000.00000" pt_clust_9="22.33707"></scales>
<clustering>
<clus scale="   22.337">  1  9  2 -1</clus>
<clus scale="   81.195">  5  6 -1 -1</clus>
<clus scale="   87.263">  7  8 -1 -1</clus>
<clus scale="   91.212">  2  5  1 -1</clus>
<clus scale="   22.337">  1  5  2 -1</clus>
</clustering>
</event>
<event>
 9    1  0.6270443E-005  0.9064316E+02  0.7546771E-02  0.1306378E+00
         21   -1    0    0  501  502  0.00000000000E+00  0.00000000000E+00  0.49126065468E+02  0.49126065468E+02  0.00000000000E+00 0.  1.
          3   -1    0    0  502    0 -0.00000000000E+00 -0.00000000000E+00 -0.34073843121E+03  0.34073843121E+03  0.00000000000E+00 0. -1.
         23    2    1    2    0    0 -0.30210492510E+02  0.11257900527E+02 -0.15531428984E+03  0.18211054211E+03  0.89455613222E+02 0.  0.
        -24    2    1    2    0    0 -0.33810594435E+02 -0.18525287588E+02 -0.96929644459E+02  0.13224641930E+03  0.81286018884E+02 0.  0.
         11    1    4    4    0    0 -0.33953909858E+02 -0.28608262387E+02 -0.10830050544E+03  0.11704828127E+03  0.00000000000E+00 0. -1.
        -12    1    4    4    0    0  0.14331542287E+00  0.10082974799E+02  0.11370860976E+02  0.15198138025E+02  0.00000000000E+00 0.  1.
        -13    1    3    3    0    0 -0.25325194894E+02  0.30701082847E+02 -0.15702510983E+03  0.16199014508E+03  0.00000000000E+00 0.  1.
         13    1    3    3    0    0 -0.48852976156E+01 -0.19443182320E+02  0.17108199964E+01  0.20120397028E+02  0.00000000000E+00 0. -1.
          4    1    1    2  501    0  0.64021086945E+02  0.72673870617E+01 -0.39368431445E+02  0.75507535272E+02  0.00000000000E+00 0. -1.
<scales pt_clust_5="13000.00000" pt_clust_6="13000.00000" pt_clust_7="13000.00000" pt_clust_8="13000.00000" pt_clust_9="64.43225"></scales>
<clustering>
<clus scale="   64.432">  1  9  2 -1</clus>
<clus scale="   81.286">  5  6 -1 -1</clus>
<clus scale="   82.591">  1  5  2 -1</clus>
<clus scale="   89.456">  7  8 -1 -1</clus>
<clus scale="   64.432">  1  5  2 -1</clus>
</clustering>
</event>
<event>
 9    1  0.6270443E-005  0.1123687E+03  0.7546771E-02  0.1263265E+00
         -4   -1    0    0    0  501 -0.00000000000E+00  0.00000000000E+00  0.12943840124E+03  0.12943840124E+03  0.00000000000E+00 0.  1.
         21   -1    0    0  501  502  0.00000000000E+00 -0.00000000000E+00 -0.41497991490E+03  0.41497991490E+03  0.00000000000E+00 0.  1.
        -24    2    1    2    0    0 -0.82537006810E+02  0.31631532246E+01  0.33550421418E+02  0.12145611523E+03  0.82483902180E+02 0.  0.
         23    2    1    2    0    0 -0.40068862201E+01 -0.46867368719E+02 -0.24092720996E+02  0.11243935122E+03  0.99244864399E+02 0.  0.
         13    1    3    3    0    0 -0.56813070702E+02  0.20907162231E+02 -0.16233633534E+02  0.62676672637E+02  0.00000000000E+00 0. -1.
        -14    1    3    3    0    0 -0.25723936108E+02 -0.17744009006E+02  0.49784054952E+02  0.58779442597E+02  0.00000000000E+00 0.  1.
        -13    1    4    4    0    0 -0.34374589750E+02 -0.64442979659E+02 -0.68897514085E+01  0.73361970546E+02  0.00000000000E+00 0.  1.
         13    1    4    4    0    0  0.30367703530E+02  0.17575610940E+02 -0.17202969588E+02  0.39077380673E+02  0.00000000000E+00 0. -1.
         -3    1    1    2    0  502  0.86543893030E+02  0.43704215494E+02 -0.29499921408E+03  0.31052284969E+03  0.00000000000E+00 0.  1.
<scales pt_clust_5="13000.00000" pt_clust_6="13000.00000" pt_clust_7="13000.00000" pt_clust_8="13000.00000" pt_clust_9="96.95310"></scales>
<clustering>
<clus scale="   82.484">  5  6 -1 -1</clus>
<clus scale="   96.953">  2  9  1 -1</clus>
<clus scale="   97.881">  1  5  2 -1</clus>
<clus scale="   99.245">  7  8 -1 -1</clus>
<clus scale="   96.953">  2  5  1 -1</clus>
</clustering>
</event>
<event>
 9    1  0.6270443E-005  0.4834266E+03  0.7546771E-02  0.1018289E+00
          3   -1    0    0  502    0 -0.00000000000E+00  0.00000000000E+00  0.46058176633E+03  0.46058176633E+03  0.00000000000E+00 0. -1.
         21   -1    0    0  501  502  0.00000000000E+00 -0.00000000000E+00 -0.92670257240E+03  0.92670257240E+03  0.00000000000E+00 0.  1.
        -24    2    1    2    0    0 -0.43038069050E+03  0.12984678244E+03  0.10007936805E+03  0.47147943030E+03  0.10094180314E+03 0.  0.
         23    2    1    2    0    0  0.54801634077E+03 -0.11190723457E+03 -0.55932966858E+03  0.79661104349E+03  0.94309795656E+02 0.  0.
         13    1    3    3    0    0 -0.37471144316E+03  0.12229681711E+03  0.52083939284E+02  0.39759013298E+03  0.00000000000E+00 0. -1.
        -14    1    3    3    0    0 -0.55669247341E+02  0.75499653222E+01  0.47995428768E+02  0.73889297320E+02  0.00000000000E+00 0.  1.
        -13    1    4    4    0    0  0.46589561291E+03 -0.12853503099E+03 -0.48270770174E+03  0.68307152015E+03  0.00000000000E+00 0.  1.
         13    1    4    4    0    0  0.82120727863E+02  0.16627796419E+02 -0.76621966847E+02  0.11353952335E+03  0.00000000000E+00 0. -1.
          4    1    1    2  501    0 -0.11763565027E+03 -0.17939547864E+02 -0.68705055464E+01  0.11919386494E+03  0.00000000000E+00 0. -1.
<scales pt_clust_5="13000.00000" pt_clust_6="13000.00000" pt_clust_7="13000.00000" pt_clust_8="13000.00000" pt_clust_9="118.99575"></scales>
<clustering>
<clus scale="   94.310">  7  8 -1 -1</clus>
<clus scale="  100.942">  5  6 -1 -1</clus>
<clus scale="  118.996">  2  9  1 -1</clus>
<clus scale="  482.085">  2  7  1 -1</clus>
<clus scale="  118.996">  2  5  1 -1</clus>
</clustering>
</event>
<event>
 9    1  0.6270443E-005  0.9758149E+02  0.7546771E-02  0.1293301E+00
         21   -1    0    0  501  502  0.00000000000E+00  0.00000000000E+00  0.66889251389E+02  0.66889251389E+02  0.00000000000E+00 0.  1.
         -4   -1    0    0    0  501 -0.00000000000E+00 -0.00000000000E+00 -0.39655570882E+03  0.39655570882E+03  0.00000000000E+00 0.  1.
         23    2    1    2    0    0 -0.28910688695E+02 -0.13030891205E+02 -0.20122979229E+03  0.22396042139E+03  0.93054870902E+02 0.  0.
        -24    2    1    2    0    0  0.29126441402E+02 -0.31852066570E+02  0.13158471564E+02  0.90945960709E+02  0.78962767568E+02 0.  0.
         11    1    4    4    0    0 -0.25496866726E+02  0.18998430964E+01  0.65757640421E+01  0.26399626690E+02  0.00000000000E+00 0. -1.
        -12    1    4    4    0    0  0.54623308128E+02 -0.33751909667E+02  0.65827075221E+01  0.64546334019E+02  0.00000000000E+00 0.  1.
        -11    1    3    3    0    0 -0.14230019560E+02 -0.48666307338E+02 -0.15852118029E+03  0.16643277179E+03  0.00000000000E+00 0.  1.
         11    1    3    3    0    0 -0.14680669135E+02  0.35635416133E+02 -0.42708611997E+02  0.57527649595E+02  0.00000000000E+00 0. -1.
         -3    1    1    2    0  502 -0.21575270632E+00  0.44882957775E+02 -0.14159513671E+03  0.14853857811E+03  0.00000000000E+00 0.  1.
<scales pt_clust_5="13000.00000" pt_clust_6="13000.00000" pt_clust_7="13000.00000" pt_clust_8="13000.00000" pt_clust_9="44.88350"></scales>
<clustering>
<clus scale="   44.883">  1  9  2 -1</clus>
<clus scale="   78.963">  5  6 -1 -1</clus>
<clus scale="   84.250">  1  5  2 -1</clus>
<clus scale="   93.055">  7  8 -1 -1</clus>
<clus scale="   44.883">  1  5  2 -1</clus>
</clustering>
</event>
<event>
 9    1  0.6270443E-005  0.1428237E+03  0.7546771E-02  0.1240804E+00
         21   -1    0    0  501  502  0.00000000000E+00  0.00000000000E+00  0.44813160963E+02  0.44813160963E+02  0.00000000000E+00 0. -1.
          1   -1    0    0  502    0 -0.00000000000E+00 -0.00000000000E+00 -0.69106099879E+03  0.69106099879E+03  0.00000000000E+00 0. -1.
         23    2    1    2    0    0  0.11793310241E+01 -0.31774743694E+02 -0.18378196162E+03  0.19832918915E+03  0.67436137916E+02 0.  0.
        -24    2    1    2    0    0 -0.30853951506E+02 -0.93148561181E+02 -0.32870381840E+03  0.35213002161E+03  0.79503025783E+02 0.  0.
         13    1    4    4    0    0 -0.27086732905E+02 -0.71183051306E+02 -0.31874836503E+03  0.32772128112E+03  0.00000000000E+00 0. -1.
        -14    1    4    4    0    0 -0.37672186011E+01 -0.21965509875E+02 -0.99554533773E+01  0.24408740484E+02  0.00000000000E+00 0.  1.
        -13    1    3    3    0    0 -0.19237148284E+02  0.14060064017E+02 -0.70929442912E+02  0.74824722826E+02  0.00000000000E+00 0.  1.
         13    1    3    3    0    0  0.20416479308E+02 -0.45834807711E+02 -0.11285251870E+03  0.12350446633E+03  0.00000000000E+00 0. -1.
          2    1    1    2  501    0  0.29674620482E+02  0.12492330487E+03 -0.13376205781E+03  0.18541494900E+03  0.00000000000E+00 0. -1.
<scales pt_clust_5="13000.00000" pt_clust_6="13000.00000" pt_clust_7="13000.00000" pt_clust_8="13000.00000" pt_clust_9="118.65029"></scales>
<clustering>
<clus scale="   67.436">  7  8 -1 -1</clus>
<clus scale="   74.556">  2  7  1 -1</clus>
<clus scale="   79.503">  5  6 -1 -1</clus>
<clus scale="  118.650">  1  9  2 -1</clus>
<clus scale="  118.650">  1  5  2 -1</clus>
</clustering>
</event>
<event>
 9    1  0.6270443E-005  0.8874807E+02  0.7546771E-02  0.1311754E+00
          3   -1    0    0  502    0 -0.00000000000E+00  0.00000000000E+00  0.88431708071E+02  0.88431708071E+02  0.00000000000E+00 0. -1.
         21   -1    0    0  501  502  0.00000000000E+00 -0.00000000000E+00 -0.24951083259E+03  0.24951083259E+03  0.00000000000E+00 0. -1.
        -24    2    1    2    0    0 -0.64760801089E+01 -0.11639272599E+02  0.80796064448E+01  0.81181107938E+02  0.79672328731E+02 0.  0.
         23    2    1    2    0    0 -0.48583451441E+02 -0.36640654662E+02 -0.14320521807E+03  0.17906916656E+03  0.88629242353E+02 0.  0.
         11    1    3    3    0    0 -0.18535504718E+02 -0.29189306377E+02  0.33415554678E+02  0.48085131136E+02  0.00000000000E+00 0. -1.
        -12    1    3    3    0    0  0.12059424609E+02  0.17550033779E+02 -0.25335948233E+02  0.33095976801E+02  0.00000000000E+00 0.  1.
        -13    1    4    4    0    0 -0.54730760863E+02  0.85749127793E+01 -0.10819968427E+03  0.12155721694E+03  0.00000000000E+00 0.  1.
         13    1    4    4    0    0  0.61473094213E+01 -0.45215567441E+02 -0.35005533805E+02  0.57511949620E+02  0.00000000000E+00 0. -1.
          4    1    1    2  501    0  0.55059531550E+02  0.48279927260E+02 -0.25953512893E+02  0.77692266168E+02  0.00000000000E+00 0. -1.
<scales pt_clust_5="13000.00000" pt_clust_6="13000.00000" pt_clust_7="13000.00000" pt_clust_8="13000.00000" pt_clust_9="73.22915"></scales>
<clustering>
<clus scale="   73.229">  2  9  1 -1</clus>
<clus scale="   79.672">  5  6 -1 -1</clus>
<clus scale="   79.804">  1  5  2 -1</clus>
<clus scale="   88.629">  7  8 -1 -1</clus>
<clus scale="   73.229">  2  5  1 -1</clus>
</clustering>
</event>
<event>
 9    1  0.6270443E-005  0.1007012E+03  0.7546771E-02  0.1283113E+00
         21   -1    0    0  501  502  0.00000000000E+00  0.00000000000E+00  0.41936914503E+03  0.41936914503E+03  0.00000000000E+00 0.  1.
          3   -1    0    0  502    0 -0.00000000000E+00 -0.00000000000E+00 -0.94624112376E+02  0.94624112376E+02  0.00000000000E+00 0. -1.
        -24    2    1    2    0    0 -0.42779934808E+02 -0.25504162222E+01 -0.56672626769E+02  0.10854883158E+03  0.82063601970E+02 0.  0.
         23    2    1    2    0    0  0.49630172566E+02 -0.23524892145E+02  0.25573640781E+03  0.27690406457E+03  0.90874507514E+02 0.  0.
         13    1    3    3    0    0  0.31625837253E+01  0.33792530270E+02 -0.18907027542E+02  0.38851161222E+02  0.00000000000E+00 0. -1.
        -14    1    3    3    0    0 -0.45942518533E+02 -0.36342946492E+02 -0.37765599228E+02  0.69697670362E+02  0.00000000000E+00 0.  1.
        -13    1    4    4    0    0  0.37561968954E+02 -0.40084901244E+02  0.24951350257E+03  0.25548911677E+03  0.00000000000E+00 0.  1.
         13    1    4    4    0    0  0.12068203612E+02  0.16560009100E+02  0.62229052360E+01  0.21414947802E+02  0.00000000000E+00 0. -1.
          4    1    1    2  501    0 -0.68502377585E+01  0.26075308367E+02  0.12568125161E+03  0.12854036125E+03  0.00000000000E+00 0. -1.
<scales pt_clust_5="13000.00000" pt_clust_6="13000.00000" pt_clust_7="13000.00000" pt_clust_8="13000.00000" pt_clust_9="26.96011"></scales>
<clustering>
<clus scale="   26.960">  1  9  2 -1</clus>
<clus scale="   82.064">  5  6 -1 -1</clus>
<clus scale="   90.875">  7  8 -1 -1</clus>
<clus scale="   92.828">  2  5  1 -1</clus>
<clus scale="   26.960">  1  5  2 -1</clus>
</clustering>
</event>
<event>
 9    1  0.6270443E-005  0.1560162E+03  0.7546771E-02  0.1219732E+00
         21   -1    0    0  501  502  0.00000000000E+00  0.00000000000E+00  0.10737777564E+03  0.10737777564E+03  0.00000000000E+00 0. -1.
         -2   -1    0    0    0  501 -0.00000000000E+00 -0.00000000000E+00 -0.40350243063E+03  0.40350243063E+03  0.00000000000E+00 0.  1.
        -24    2    1    2    0    0  0.81851231407E+01  0.33894721526E+02 -0.16659660953E+03  0.18858013866E+03  0.81192302591E+02 0.  0.
         23    2    1    2    0    0  0.11811233566E+01  0.11269830802E+03 -0.39225456160E+02  0.14987095024E+03  0.90666209977E+02 0.  0.
         13    1    3    3    0    0  0.30658535450E+02  0.22001202704E+02 -0.15688904216E+03  0.16136347253E+03  0.00000000000E+00 0. -1.
        -14    1    3    3    0    0 -0.22473412309E+02  0.11893518822E+02 -0.97075673698E+01  0.27216666126E+02  0.00000000000E+00 0.  1.
        -11    1    4    4    0    0 -0.11724296278E+02  0.65946245856E+02 -0.66367546469E+02  0.94292193156E+02  0.00000000000E+00 0.  1.
         11    1    4    4    0    0  0.12905419635E+02  0.46752062167E+02  0.27142090309E+02  0.55578757085E+02  0.00000000000E+00 0. -1.
         -1    1    1    2    0  502 -0.93662464973E+01 -0.14659302955E+03 -0.90302589293E+02  0.17242911738E+03  0.00000000000E+00 0.  1.
<scales pt_clust_5="13000.00000" pt_clust_6="13000.00000" pt_clust_7="13000.00000" pt_clust_8="13000.00000" pt_clust_9="126.96739"></scales>
<clustering>
<clus scale="   81.192">  5  6 -1 -1</clus>
<clus scale="   88.363">  2  5  1 -1</clus>
<clus scale="   90.666">  7  8 -1 -1</clus>
<clus scale="  126.967">  1  9  2 -1</clus>
<clus scale="  126.967">  1  5  2 -1</clus>
</clustering>
</event>
<event>
 9    1  0.6270443E-005  0.1490463E+03  0.7546771E-02  0.1212367E+00
          1   -1    0    0  502    0 -0.00000000000E+00  0.00000000000E+00  0.69918081973E+02  0.69918081973E+02  0.00000000000E+00 0. -1.
         21   -1    0    0  501  502  0.00000000000E+00 -0.00000000000E+00 -0.36688384719E+03  0.36688384719E+03  0.00000000000E+00 0.  1.
         23    2    1    2    0    0  0.15446209400E+02  0.93148725848E+02 -0.70193924668E+02  0.16892336000E+03  0.12121321703E+03 0.  0.
        -24    2    1    2    0    0  0.10372582742E+02 -0.75476083707E+02 -0.18463614908E+03  0.21539667892E+03  0.80628729723E+02 0.  0.
         11    1    4    4    0    0  0.39356374842E+02 -0.51781430388E+02 -0.73604041044E+02  0.98223192942E+02  0.00000000000E+00 0. -1.
        -12    1    4    4    0    0 -0.28983792100E+02 -0.23694653319E+02 -0.11103210804E+03  0.11717348598E+03  0.00000000000E+00 0.  1.
        -13    1    3    3    0    0 -0.52128929727E+02  0.48393690331E+02 -0.21230895913E+02  0.74230219720E+02  0.00000000000E+00 0.  1.
         13    1    3    3    0    0  0.67575139127E+02  0.44755035516E+02 -0.48963028755E+02  0.94693140285E+02  0.00000000000E+00 0. -1.
          2    1    1    2  501    0 -0.25818792141E+02 -0.17672642141E+02 -0.42135691469E+02  0.52481890243E+02  0.00000000000E+00 0. -1.
<scales pt_clust_5="13000.00000" pt_clust_6="13000.00000" pt_clust_7="13000.00000" pt_clust_8="13000.00000" pt_clust_9="31.28789"></scales>
<clustering>
<clus scale="   31.288">  2  9  1 -1</clus>
<clus scale="   80.629">  5  6 -1 -1</clus>
<clus scale="  118.419">  2  5  1 -1</clus>
<clus scale="  121.213">  7  8 -1 -1</clus>
<clus scale="   31.288">  2  5  1 -1</clus>
</clustering>
</event>
<event>
 9    1  0.7388431E-005  0.1448180E+03  0.7546771E-02  0.1209835E+00
         -4   -1    0    0    0  501 -0.00000000000E+00  0.00000000000E+00  0.49058460468E+03  0.49058460468E+03  0.00000000000E+00 0.  1.
         21   -1    0    0  501  502  0.00000000000E+00 -0.00000000000E+00 -0.49475493573E+03  0.49475493573E+03  0.00000000000E+00 0.  1.
         23    2    1    2    0    0  0.11638250804E+03  0.25028631694E+02  0.45804664778E+03  0.48193932997E+03  0.91035518586E+02 0.  0.
        -24    2    1    2    0    0 -0.47967868622E+02  0.10457896844E+02 -0.10974857224E+03  0.14260409873E+03  0.76686999141E+02 0.  0.
         13    1    4    4    0    0 -0.55658985848E+02  0.27343268008E+02 -0.48852112141E+02  0.78943687978E+02  0.00000000000E+00 0. -1.
        -14    1    4    4    0    0  0.76911172254E+01 -0.16885371164E+02 -0.60896460103E+02  0.63660410748E+02  0.00000000000E+00 0.  1.
        -13    1    3    3    0    0  0.10996783399E+03 -0.84718764915E+01  0.39670960997E+03  0.41175625295E+03  0.00000000000E+00 0.  1.
         13    1    3    3    0    0  0.64146740553E+01  0.33500508186E+02  0.61337037809E+02  0.70183077014E+02  0.00000000000E+00 0. -1.
         -3    1    1    2    0  502 -0.68414639422E+02 -0.35486528538E+02 -0.35246840658E+03  0.36079611172E+03  0.00000000000E+00 0.  1.
<scales pt_clust_5="13000.00000" pt_clust_6="13000.00000" pt_clust_7="13000.00000" pt_clust_8="13000.00000" pt_clust_9="77.07047"></scales>
<clustering>
<clus scale="   76.687">  5  6 -1 -1</clus>
<clus scale="   77.070">  2  9  1 -1</clus>
<clus scale="   91.036">  7  8 -1 -1</clus>
<clus scale="  136.256">  2  5  1 -1</clus>
<clus scale="   77.070">  2  5  1 -1</clus>
</clustering>
</event>
<event>
 9    1  0.6270443E-005  0.1378073E+03  0.7546771E-02  0.1219138E+00
          1   -1    0    0  502    0 -0.00000000000E+00  0.00000000000E+00  0.83736290618E+03  0.83736290618E+03  0.00000000000E+00 0. -1.
         21   -1    0    0  501  502  0.00000000000E+00 -0.00000000000E+00 -0.46324490534E+02  0.46324490534E+02  0.00000000000E+00 0. -1.
         23    2    1    2    0    0 -0.34367231411E+02 -0.11942169236E+03  0.60943906928E+03  0.62882037094E+03  0.92500986682E+02 0.  0.
        -24    2    1    2    0    0  0.41336276244E+02  0.53052799916E+02  0.14485211286E+03  0.17868463516E+03  0.80142229363E+02 0.  0.
         11    1    4    4    0    0  0.10017760734E+02 -0.21201568652E+02  0.25185703626E+02  0.34411941395E+02  0.00000000000E+00 0. -1.
        -12    1    4    4    0    0  0.31318515510E+02  0.74254368569E+02  0.11966640924E+03  0.14427269376E+03  0.00000000000E+00 0.  1.
        -11    1    3    3    0    0 -0.49226528085E+02 -0.38437298297E+02  0.15729500880E+03  0.16924064749E+03  0.00000000000E+00 0.  1.
         11    1    3    3    0    0  0.14859296674E+02 -0.80984394067E+02  0.45214406048E+03  0.45957972345E+03  0.00000000000E+00 0. -1.
          2    1    1    2  501    0 -0.69690448329E+01  0.66368892448E+02  0.36747233500E+02  0.76182390620E+02  0.00000000000E+00 0. -1.
<scales pt_clust_5="13000.00000" pt_clust_6="13000.00000" pt_clust_7="13000.00000" pt_clust_8="13000.00000" pt_clust_9="66.73378"></scales>
<clustering>
<clus scale="   66.734">  2  9  1 -1</clus>
<clus scale="   80.142">  5  6 -1 -1</clus>
<clus scale="   92.501">  7  8 -1 -1</clus>
<clus scale="  129.835">  2  5  1 -1</clus>
<clus scale="   66.734">  2  5  1 -1</clus>
</clustering>
</event>
<event>
 9    1  0.6270443E-005  0.1067500E+03  0.7546771E-02  0.1270207E+00
          1   -1    0    0  502    0 -0.00000000000E+00  0.00000000000E+00  0.22795042070E+03  0.22795042070E+03  0.00000000000E+00 0. -1.
         21   -1    0    0  501  502  0.00000000000E+00 -0.00000000000E+00 -0.22611037908E+03  0.22611037908E+03  0.00000000000E+00 0. -1.
        -24    2    1    2    0    0 -0.13534619806E+02 -0.59457610154E+02  0.15230430842E+03  0.18251435531E+03  0.79978085701E+02 0.  0.
         23    2    1    2    0    0 -0.28977068894E+02  0.48239539144E+02 -0.18697166904E+03  0.21439857301E+03  0.88552918790E+02 0.  0.
         11    1    3    3    0    0  0.20623199710E+02 -0.62933476175E+02  0.98951591076E+02  0.11906870355E+03  0.00000000000E+00 0. -1.
        -12    1    3    3    0    0 -0.34157819516E+02  0.34758660204E+01  0.53352717347E+02  0.63445651758E+02  0.00000000000E+00 0.  1.
        -11    1    4    4    0    0 -0.48226985347E+02  0.57301942696E+02 -0.17411356545E+03  0.18953861988E+03  0.00000000000E+00 0. -1.
         11    1    4    4    0    0  0.19249916453E+02 -0.90624035524E+01 -0.12858103589E+02  0.24859953128E+02  0.00000000000E+00 0.  1.
          2    1    1    2  501    0  0.42511688700E+02  0.11218071010E+02  0.36507402244E+02  0.57147871456E+02  0.00000000000E+00 0. -1.
<scales pt_clust_5="13000.00000" pt_clust_6="13000.00000" pt_clust_7="13000.00000" pt_clust_8="13000.00000" pt_clust_9="43.96693"></scales>
<clustering>
<clus scale="   43.967">  2  9  1 -1</clus>
<clus scale="   79.978">  5  6 -1 -1</clus>
<clus scale="   88.553">  7  8 -1 -1</clus>
<clus scale="   99.752">  1  5  2 -1</clus>
<clus scale="   43.967">  2  5  1 -1</clus>
</clustering>
</event>
<event>
 9    1  0.6270443E-005  0.1245584E+03  0.7546771E-02  0.1254733E+00
         21   -1    0    0  501  502  0.00000000000E+00  0.00000000000E+00  0.17394608813E+03  0.17394608813E+03  0.00000000000E+00 0. -1.
         -2   -1    0    0    0  501 -0.00000000000E+00 -0.00000000000E+00 -0.23782189823E+03  0.23782189823E+03  0.00000000000E+00 0.  1.
        -24    2    1    2    0    0  0.23784757746E+02  0.12229594411E+02 -0.15306056659E+03  0.17508354566E+03  0.80693452242E+02 0.  0.
         23    2    1    2    0    0  0.16313988169E+02  0.75212546618E+02  0.71527981008E+02  0.13887953708E+03  0.90819603464E+02 0.  0.
         11    1    3    3    0    0  0.23973017611E+02 -0.32356641691E+02 -0.67397477287E+02  0.78511641045E+02  0.00000000000E+00 0. -1.
        -12    1    3    3    0    0 -0.18825986578E+00  0.44586236103E+02 -0.85663089307E+02  0.96571904616E+02  0.00000000000E+00 0.  1.
        -13    1    4    4    0    0  0.52452147050E+02  0.55349759266E+02  0.56825963152E+02  0.95100019291E+02  0.00000000000E+00 0. -1.
         13    1    4    4    0    0 -0.36138158881E+02  0.19862787352E+02  0.14702017857E+02  0.43779517788E+02  0.00000000000E+00 0.  1.
         -1    1    1    2    0  502 -0.40098745915E+02 -0.87442141030E+02  0.17656775490E+02  0.97804903622E+02  0.00000000000E+00 0.  1.
<scales pt_clust_5="13000.00000" pt_clust_6="13000.00000" pt_clust_7="13000.00000" pt_clust_8="13000.00000" pt_clust_9="85.24434"></scales>
<clustering>
<clus scale="   80.693">  5  6 -1 -1</clus>
<clus scale="   85.010">  2  5  1 -1</clus>
<clus scale="   85.244">  1  9  2 -1</clus>
<clus scale="   90.820">  7  8 -1 -1</clus>
<clus scale="   85.244">  1  5  2 -1</clus>
</clustering>
</event>
<event>
 9    1  0.6270443E-005  0.9439993E+02  0.7546771E-02  0.1295981E+00
          1   -1    0    0  502    0 -0.00000000000E+00  0.00000000000E+00  0.34702515024E+03  0.34702515024E+03  0.00000000000E+00 0. -1.
         21   -1    0    0  501  502  0.00000000000E+00 -0.00000000000E+00 -0.77819450276E+02  0.77819450276E+02  0.00000000000E+00 0. -1.
         23    2    1    2    0    0 -0.79382754689E+01 -0.29640646580E+02  0.27587611978E+03  0.29153976039E+03  0.89141540695E+02 0.  0.
        -24    2    1    2    0    0  0.43175547937E+02  0.19702998553E+02  0.25030807012E+01  0.95561293236E+02  0.82905725136E+02 0.  0.
         11    1    4    4    0    0  0.20204720237E+02 -0.32586193635E+02 -0.84295590812E+00  0.38351027497E+02  0.00000000000E+00 0. -1.
        -12    1    4    4    0    0  0.22970827701E+02  0.52289192188E+02  0.33460366093E+01  0.57210265739E+02  0.00000000000E+00 0.  1.
        -11    1    3    3    0    0 -0.34536160548E+02  0.18192068993E+02  0.10016423704E+03  0.10750149833E+03  0.00000000000E+00 0.  1.
         11    1    3    3    0    0  0.26597885079E+02 -0.47832715573E+02  0.17571188274E+03  0.18403826207E+03  0.00000000000E+00 0. -1.
          2    1    1    2  501    0 -0.35237272468E+02  0.99376480273E+01 -0.91735005231E+01  0.37743546881E+02  0.00000000000E+00 0. -1.
<scales pt_clust_5="13000.00000" pt_clust_6="13000.00000" pt_clust_7="13000.00000" pt_clust_8="13000.00000" pt_clust_9="36.61178"></scales>
<clustering>
<clus scale="   36.612">  2  9  1 -1</clus>
<clus scale="   82.906">  5  6 -1 -1</clus>
<clus scale="   88.535">  2  5  1 -1</clus>
<clus scale="   89.142">  7  8 -1 -1</clus>
<clus scale="   36.612">  2  5  1 -1</clus>
</clustering>
</event>
<event>
 9    1  0.6270443E-005  0.1716623E+03  0.7546771E-02  0.1191012E+00
         -4   -1    0    0    0  501 -0.00000000000E+00  0.00000000000E+00  0.23250663049E+03  0.23250663049E+03  0.00000000000E+00 0.  1.
         21   -1    0    0  501  502  0.00000000000E+00 -0.00000000000E+00 -0.70931044178E+03  0.70931044178E+03  0.00000000000E+00 0.  1.
         23    2    1    2    0    0 -0.43959757632E+02 -0.66164311816E+02  0.16706788277E+03  0.20751738489E+03  0.94029841701E+02 0.  0.
        -24    2    1    2    0    0 -0.89924250222E+02 -0.46012156148E+02 -0.10047217342E+03  0.16351818229E+03  0.80249915979E+02 0.  0.
         11    1    4    4    0    0 -0.40261426037E+02 -0.64272265831E+02 -0.54089151335E+02  0.93153329913E+02  0.00000000000E+00 0. -1.
        -12    1    4    4    0    0 -0.49662824184E+02  0.18260109683E+02 -0.46383022088E+02  0.70364852374E+02  0.00000000000E+00 0.  1.
        -13    1    3    3    0    0 -0.44887445253E+02  0.10653662316E+02  0.58032142020E+02  0.74135772536E+02  0.00000000000E+00 0. -1.
         13    1    3    3    0    0  0.92768762099E+00 -0.76817974132E+02  0.10903574075E+03  0.13338161235E+03  0.00000000000E+00 0.  1.
         -3    1    1    2    0  502  0.13388400785E+03  0.11217646796E+03 -0.54339952064E+03  0.57078150509E+03  0.00000000000E+00 0.  1.
<scales pt_clust_5="13000.00000" pt_clust_6="13000.00000" pt_clust_7="13000.00000" pt_clust_8="13000.00000" pt_clust_9="151.74940"></scales>
<clustering>
<clus scale="   80.250">  5  6 -1 -1</clus>
<clus scale="   94.030">  7  8 -1 -1</clus>
<clus scale="  123.093">  1  7  2 -1</clus>
<clus scale="  151.749">  2  9  1 -1</clus>
<clus scale="  151.749">  2  5  1 -1</clus>
</clustering>
</event>
<event>
 9    1  0.6270443E-005  0.1443321E+03  0.7546771E-02  0.1210012E+00
         21   -1    0    0  501  502  0.00000000000E+00  0.00000000000E+00  0.82818233682E+02  0.82818233682E+02  0.00000000000E+00 0.  1.
          1   -1    0    0  502    0 -0.00000000000E+00 -0.00000000000E+00 -0.30619584887E+03  0.30619584887E+03  0.00000000000E+00 0. -1.
        -24    2    1    2    0    0  0.10755429285E+03 -0.55839401687E+02 -0.14384873263E+03  0.20410329273E+03  0.79244757136E+02 0.  0.
         23    2    1    2    0    0 -0.78113121866E+02  0.63365248960E+02 -0.71764190181E+02  0.15354661641E+03  0.91157280765E+02 0.  0.
         13    1    3    3    0    0  0.30952630418E+02  0.19149787987E+02 -0.48488857757E+02  0.60629605279E+02  0.00000000000E+00 0. -1.
        -14    1    3    3    0    0  0.76601662430E+02 -0.74989189674E+02 -0.95359874871E+02  0.14347368745E+03  0.00000000000E+00 0.  1.
        -11    1    4    4    0    0 -0.17488416130E+02  0.71888417793E+02 -0.46041912245E+02  0.87141534269E+02  0.00000000000E+00 0.  1.
         11    1    4    4    0    0 -0.60624705736E+02 -0.85231688327E+01 -0.25722277936E+02  0.66405082146E+02  0.00000000000E+00 0. -1.
          2    1    1    2  501    0 -0.29441170981E+02 -0.75258472731E+01 -0.77646923822E+01  0.31364173411E+02  0.00000000000E+00 0. -1.
<scales pt_clust_5="13000.00000" pt_clust_6="13000.00000" pt_clust_7="13000.00000" pt_clust_8="13000.00000" pt_clust_9="30.38784"></scales>
<clustering>
<clus scale="   30.388">  1  9  2 -1</clus>
<clus scale="   79.245">  5  6 -1 -1</clus>
<clus scale="   91.157">  7  8 -1 -1</clus>
<clus scale="  137.120">  2  5  1 -1</clus>
<clus scale="   30.388">  1  5  2 -1</clus>
</clustering>
</event>
<event>
 9    1  0.6270443E-005  0.1467443E+03  0.7546771E-02  0.1207861E+00
         21   -1    0    0  501  502  0.00000000000E+00  0.00000000000E+00  0.69212819188E+02  0.69212819188E+02  0.00000000000E+00 0.  1.
          1   -1    0    0  502    0 -0.00000000000E+00 -0.00000000000E+00 -0.53952764058E+03  0.53952764058E+03  0.00000000000E+00 0. -1.
        -24    2    1    2    0    0  0.57247299341E+02  0.85500332382E+02 -0.21871318053E+03  0.25493943749E+03  0.81062329892E+02 0.  0.
         23    2    1    2    0    0 -0.51718620727E+02 -0.10620643573E+03 -0.27950233143E+03  0.31861924379E+03  0.97170193573E+02 0.  0.
         13    1    3    3    0    0  0.15122463904E+02  0.35647291634E+02 -0.16766853465E+03  0.17208182887E+03  0.00000000000E+00 0. -1.
        -14    1    3    3    0    0  0.42124835437E+02  0.49853040747E+02 -0.51044645883E+02  0.82857608616E+02  0.00000000000E+00 0.  1.
        -13    1    4    4    0    0 -0.11046204345E+01 -0.97838514952E+02 -0.21489207262E+03  0.23611903369E+03  0.00000000000E+00 0.  1.
         13    1    4    4    0    0 -0.50614000292E+02 -0.83679207742E+01 -0.64610258815E+02  0.82500210108E+02  0.00000000000E+00 0. -1.
          2    1    1    2  501    0 -0.55286786141E+01  0.20706103345E+02  0.27900690576E+02  0.35181778488E+02  0.00000000000E+00 0. -1.
<scales pt_clust_5="13000.00000" pt_clust_6="13000.00000" pt_clust_7="13000.00000" pt_clust_8="13000.00000" pt_clust_9="21.43150"></scales>
<clustering>
<clus scale="   21.431">  1  9  2 -1</clus>
<clus scale="   81.062">  5  6 -1 -1</clus>
<clus scale="   97.170">  7  8 -1 -1</clus>
<clus scale="  136.612">  2  5  1 -1</clus>
<clus scale="   21.431">  1  5  2 -1</clus>
</clustering>
</event>
<event>
 9    1  0.6270443E-005  0.1178423E+03  0.7546771E-02  0.1249170E+00
          1   -1    0    0  502    0 -0.00000000000E+00  0.00000000000E+00  0.79394204957E+03  0.79394204957E+03  0.00000000000E+00 0. -1.
         21   -1    0    0  501  502  0.00000000000E+00 -0.00000000000E+00 -0.47702621628E+02  0.47702621628E+02  0.00000000000E+00 0. -1.
        -24    2    1    2    0    0 -0.93350634418E+02  0.24131478905E+02  0.45174965802E+03  0.46902781161E+03  0.81318296378E+02 0.  0.
         23    2    1    2    0    0  0.23575634525E+01 -0.19771136821E+02  0.35156666538E+02  0.97748872983E+02  0.89007836794E+02 0.  0.
         11    1    3    3    0    0 -0.87592492594E+02  0.23252247530E+02  0.45386967924E+03  0.46282912344E+03  0.00000000000E+00 0. -1.
        -12    1    3    3    0    0 -0.57581418244E+01  0.87923137584E+00 -0.21200212188E+01  0.61986881718E+01  0.00000000000E+00 0.  1.
        -13    1    4    4    0    0 -0.57700474370E+01 -0.45916521669E+02 -0.76791448940E+01  0.46910443143E+02  0.00000000000E+00 0. -1.
         13    1    4    4    0    0  0.81276108896E+01  0.26145384848E+02  0.42835811431E+02  0.50838429840E+02  0.00000000000E+00 0.  1.
          2    1    1    2  501    0  0.90993070965E+02 -0.43603420842E+01  0.25933310339E+03  0.27486798660E+03  0.00000000000E+00 0. -1.
<scales pt_clust_5="13000.00000" pt_clust_6="13000.00000" pt_clust_7="13000.00000" pt_clust_8="13000.00000" pt_clust_9="91.09753"></scales>
<clustering>
<clus scale="   81.318">  5  6 -1 -1</clus>
<clus scale="   89.008">  7  8 -1 -1</clus>
<clus scale="   91.098">  2  9  1 -1</clus>
<clus scale="  112.148">  1  5  2 -1</clus>
<clus scale="   91.098">  2  5  1 -1</clus>
</clustering>
</event>
<event>
 9    1  0.6270443E-005  0.9479709E+02  0.7546771E-02  0.1297829E+00
          3   -1    0    0  502    0 -0.00000000000E+00  0.00000000000E+00  0.41234987629E+03  0.41234987629E+03  0.00000000000E+00 0. -1.
         21   -1    0    0  501  502  0.00000000000E+00 -0.00000000000E+00 -0.84354933194E+02  0.84354933194E+02  0.00000000000E+00 0. -1.
        -24    2    1    2    0    0 -0.28997953539E+02 -0.23098691220E+02  0.30147812968E+03  0.31427900520E+03  0.80670933989E+02 0.  0.
         23    2    1    2    0    0 -0.13988544597E+02 -0.19837215524E+02  0.61018321539E+02  0.11255674695E+03  0.91414392853E+02 0.  0.
         13    1    3    3    0    0 -0.39229415689E+02 -0.44410105024E+02  0.25873887065E+03  0.26543738935E+03  0.00000000000E+00 0. -1.
        -14    1    3    3    0    0  0.10231462150E+02  0.21311413804E+02  0.42739259035E+02  0.48841615851E+02  0.00000000000E+00 0.  1.
        -13    1    4    4    0    0 -0.25590879491E+02 -0.47953920000E+02  0.61576837547E+02  0.82135123296E+02  0.00000000000E+00 0. -1.
         13    1    4    4    0    0  0.11602334893E+02  0.28116704476E+02 -0.55851600835E+00  0.30421623654E+02  0.00000000000E+00 0.  1.
          4    1    1    2  501    0  0.42986498137E+02  0.42935906744E+02 -0.34501508122E+02  0.69869057333E+02  0.00000000000E+00 0. -1.
<scales pt_clust_5="13000.00000" pt_clust_6="13000.00000" pt_clust_7="13000.00000" pt_clust_8="13000.00000" pt_clust_9="60.75633"></scales>
<clustering>
<clus scale="   60.756">  2  9  1 -1</clus>
<clus scale="   80.671">  5  6 -1 -1</clus>
<clus scale="   84.485">  1  5  2 -1</clus>
<clus scale="   91.414">  7  8 -1 -1</clus>
<clus scale="   60.756">  2  5  1 -1</clus>
</clustering>
</event>
<event>
 9    1  0.6270443E-005  0.2638518E+03  0.7546771E-02  0.1151723E+00
         21   -1    0    0  501  502  0.00000000000E+00  0.00000000000E+00  0.41835048040E+03  0.41835048040E+03  0.00000000000E+00 0. -1.
          1   -1    0    0  502    0 -0.00000000000E+00 -0.00000000000E+00 -0.22559923630E+03  0.22559923630E+03  0.00000000000E+00 0. -1.
        -24    2    1    2    0    0  0.44985512241E+01  0.19713360926E+02 -0.25390007192E+02  0.86902205957E+02  0.80613196022E+02 0.  0.
         23    2    1    2    0    0  0.80554620151E+02  0.22380271362E+03  0.95283492850E+02  0.27134110666E+03  0.89276820653E+02 0.  0.
         13    1    3    3    0    0  0.30008355708E+02 -0.19455160138E+02 -0.16213482776E+02  0.39266801398E+02  0.00000000000E+00 0. -1.
        -14    1    3    3    0    0 -0.25509804484E+02  0.39168521064E+02 -0.91765244166E+01  0.47635404559E+02  0.00000000000E+00 0.  1.
        -11    1    4    4    0    0 -0.47431963079E+01  0.24932247433E+02 -0.13930447724E+02  0.28951204588E+02  0.00000000000E+00 0.  1.
         11    1    4    4    0    0  0.85297816459E+02  0.19887046618E+03  0.10921394057E+03  0.24238990208E+03  0.00000000000E+00 0. -1.
          2    1    1    2  501    0 -0.85053171376E+02 -0.24351607454E+03  0.12285775845E+03  0.28570640408E+03  0.00000000000E+00 0. -1.
<scales pt_clust_5="13000.00000" pt_clust_6="13000.00000" pt_clust_7="13000.00000" pt_clust_8="13000.00000" pt_clust_9="248.28894"></scales>
<clustering>
<clus scale="   80.613">  5  6 -1 -1</clus>
<clus scale="   83.110">  2  5  1 -1</clus>
<clus scale="   89.277">  7  8 -1 -1</clus>
<clus scale="  248.289">  1  9  2 -1</clus>
<clus scale="  248.289">  1  5  2 -1</clus>
</clustering>
</event>
<event>
 9    1  0.6270443E-005  0.1216493E+03  0.7546771E-02  0.1244231E+00
          1   -1    0    0  502    0 -0.00000000000E+00  0.00000000000E+00  0.61263617077E+02  0.61263617077E+02  0.00000000000E+00 0. -1.
         21   -1    0    0  501  502  0.00000000000E+00 -0.00000000000E+00 -0.46887787034E+03  0.46887787034E+03  0.00000000000E+00 0. -1.
         23    2    1    2    0    0  0.38652329762E+02 -0.74073213561E+02 -0.83387994143E+02  0.14999353323E+03  0.92540039333E+02 0.  0.
        -24    2    1    2    0    0 -0.55724550517E+02  0.43479050372E+02 -0.32792402476E+03  0.34491817965E+03  0.80241705408E+02 0.  0.
         11    1    4    4    0    0 -0.74826826937E+01  0.56154262766E+02 -0.18921266681E+03  0.19751132891E+03  0.00000000000E+00 0. -1.
        -12    1    4    4    0    0 -0.48241867824E+02 -0.12675212394E+02 -0.13871135795E+03  0.14740685074E+03  0.00000000000E+00 0.  1.
        -11    1    3    3    0    0 -0.26767666839E+02 -0.22723418686E+01 -0.11865848639E+02  0.29367837671E+02  0.00000000000E+00 0.  1.
         11    1    3    3    0    0  0.65419996601E+02 -0.71800871693E+02 -0.71522145504E+02  0.12062569556E+03  0.00000000000E+00 0. -1.
          2    1    1    2  501    0  0.17072220755E+02  0.30594163189E+02  0.36977656479E+01  0.35229774532E+02  0.00000000000E+00 0. -1.
<scales pt_clust_5="13000.00000" pt_clust_6="13000.00000" pt_clust_7="13000.00000" pt_clust_8="13000.00000" pt_clust_9="35.03519"></scales>
<clustering>
<clus scale="   35.035">  2  9  1 -1</clus>
<clus scale="   80.242">  5  6 -1 -1</clus>
<clus scale="   92.540">  7  8 -1 -1</clus>
<clus scale="  112.577">  2  5  1 -1</clus>
<clus scale="   35.035">  2  5  1 -1</clus>
</clustering>
</event>
<event>
 9    1  0.6270443E-005  0.1826426E+03  0.7546771E-02  0.1166293E+00
         21   -1    0    0  501  502  0.00000000000E+00  0.00000000000E+00  0.23202035531E+03  0.23202035531E+03  0.00000000000E+00 0.  1.
         -4   -1    0    0    0  501 -0.00000000000E+00 -0.00000000000E+00 -0.49468147668E+03  0.49468147668E+03  0.00000000000E+00 0.  1.
         23    2    1    2    0    0  0.11184116278E+03 -0.11028277940E+03 -0.37113739972E+03  0.41284837410E+03  0.89610676856E+02 0.  0.
        -24    2    1    2    0    0 -0.13656849460E+03  0.99956967508E+02 -0.14485977715E+02  0.18800521695E+03  0.80583925082E+02 0.  0.
         11    1    4    4    0    0 -0.43412957043E+02  0.41940687857E+02  0.32579734314E+02  0.68594061150E+02  0.00000000000E+00 0. -1.
        -12    1    4    4    0    0 -0.93155537555E+02  0.58016279651E+02 -0.47065712029E+02  0.11941115580E+03  0.00000000000E+00 0.  1.
        -11    1    3    3    0    0  0.86875117536E+02 -0.25725610264E+02 -0.21913660782E+03  0.23712854311E+03  0.00000000000E+00 0.  1.
         11    1    3    3    0    0  0.24966045245E+02 -0.84557169132E+02 -0.15200079190E+03  0.17571983099E+03  0.00000000000E+00 0. -1.
         -3    1    1    2    0  502  0.24727331818E+02  0.10325811888E+02  0.12296225607E+03  0.12584824094E+03  0.00000000000E+00 0.  1.
<scales pt_clust_5="13000.00000" pt_clust_6="13000.00000" pt_clust_7="13000.00000" pt_clust_8="13000.00000" pt_clust_9="26.79670"></scales>
<clustering>
<clus scale="   26.797">  1  9  2 -1</clus>
<clus scale="   80.584">  5  6 -1 -1</clus>
<clus scale="   89.611">  7  8 -1 -1</clus>
<clus scale="  178.387">  1  5  2 -1</clus>
<clus scale="   26.797">  1  5  2 -1</clus>
</clustering>
</event>
<event>
 9    1  0.6270443E-005  0.1250287E+03  0.7546771E-02  0.1235392E+00
          1   -1    0    0  502    0 -0.00000000000E+00  0.00000000000E+00  0.89250383642E+03  0.89250383642E+03  0.00000000000E+00 0. -1.
         21   -1    0    0  501  502  0.00000000000E+00 -0.00000000000E+00 -0.34079365550E+02  0.34079365550E+02  0.00000000000E+00 0. -1.
        -24    2    1    2    0    0 -0.11139615469E+01 -0.10819127420E+03  0.45151514350E+03  0.47142974812E+03  0.81691430913E+02 0.  0.
         23    2    1    2    0    0 -0.54221513963E+02  0.63611500311E+02  0.15568252608E+03  0.19407056131E+03  0.80249226109E+02 0.  0.
         11    1    3    3    0    0 -0.20512790281E+02 -0.65058730731E+02  0.37736457906E+03  0.38348068861E+03  0.00000000000E+00 0. -1.
        -12    1    3    3    0    0  0.19398828734E+02 -0.43132543470E+02  0.74150564434E+02  0.87949059508E+02  0.00000000000E+00 0.  1.
        -13    1    4    4    0    0 -0.22930585844E+02 -0.14809898205E+02  0.63196416404E+02  0.68839900482E+02  0.00000000000E+00 0.  1.
         13    1    4    4    0    0 -0.31290928119E+02  0.78421398516E+02  0.92486109681E+02  0.12523066083E+03  0.00000000000E+00 0. -1.
          2    1    1    2  501    0  0.55335475510E+02  0.44579773889E+02  0.25122680129E+03  0.26108289254E+03  0.00000000000E+00 0. -1.
<scales pt_clust_5="13000.00000" pt_clust_6="13000.00000" pt_clust_7="13000.00000" pt_clust_8="13000.00000" pt_clust_9="71.05896"></scales>
<clustering>
<clus scale="   71.059">  2  9  1 -1</clus>
<clus scale="   80.249">  7  8 -1 -1</clus>
<clus scale="   81.691">  5  6 -1 -1</clus>
<clus scale="  124.091">  2  7  1 -1</clus>
<clus scale="   71.059">  2  5  1 -1</clus>
</clustering>
</event>
<event>
 9    1  0.6270443E-005  0.1218048E+03  0.7546771E-02  0.1244950E+00
         -2   -1    0    0    0  501 -0.00000000000E+00  0.00000000000E+00  0.50894009878E+02  0.50894009878E+02  0.00000000000E+00 0.  1.
         21   -1    0    0  501  502  0.00000000000E+00 -0.00000000000E+00 -0.78847015909E+03  0.78847015909E+03  0.00000000000E+00 0.  1.
        -24    2    1    2    0    0  0.58667137952E+02 -0.63256337000E+02 -0.38478653416E+02  0.12292842658E+03  0.78661261416E+02 0.  0.
         23    2    1    2    0    0 -0.18922611792E+02  0.33129056513E+02 -0.37151047854E+03  0.38507410570E+03  0.93842589457E+02 0.  0.
         13    1    3    3    0    0  0.12676572474E+02 -0.68627205487E+02 -0.16696161529E+02  0.71757582404E+02  0.00000000000E+00 0. -1.
        -14    1    3    3    0    0  0.45990565478E+02  0.53708684876E+01 -0.21782491886E+02  0.51170844180E+02  0.00000000000E+00 0.  1.
        -11    1    4    4    0    0  0.83405407452E+01  0.61101106269E+02 -0.20703200315E+03  0.21602120298E+03  0.00000000000E+00 0. -1.
         11    1    4    4    0    0 -0.27263152538E+02 -0.27972049756E+02 -0.16447847539E+03  0.16905290272E+03  0.00000000000E+00 0.  1.
         -1    1    1    2    0  502 -0.39744526160E+02  0.30127280487E+02 -0.32758701726E+03  0.33136163668E+03  0.00000000000E+00 0.  1.
<scales pt_clust_5="13000.00000" pt_clust_6="13000.00000" pt_clust_7="13000.00000" pt_clust_8="13000.00000" pt_clust_9="49.87264"></scales>
<clustering>
<clus scale="   49.873">  2  9  1 -1</clus>
<clus scale="   78.661">  5  6 -1 -1</clus>
<clus scale="   93.843">  7  8 -1 -1</clus>
<clus scale="  110.533">  1  5  2 -1</clus>
<clus scale="   49.873">  2  5  1 -1</clus>
</clustering>
</event>
<event>
 9    1  0.6270443E-005  0.1545328E+03  0.7546771E-02  0.1198934E+00
         21   -1    0    0  501  502  0.00000000000E+00  0.00000000000E+00  0.10679890416E+03  0.10679890416E+03  0.00000000000E+00 0.  1.
          1   -1    0    0  502    0 -0.00000000000E+00 -0.00000000000E+00 -0.30768294450E+03  0.30768294450E+03  0.00000000000E+00 0. -1.
         23    2    1    2    0    0  0.10197235735E+03 -0.41626347366E+02 -0.12227247423E+03  0.18914576254E+03  0.93244018965E+02 0.  0.
        -24    2    1    2    0    0 -0.12559001714E+03  0.62098986443E+02 -0.10138434345E+03  0.18666410412E+03  0.70253584579E+02 0.  0.
         13    1    4    4    0    0 -0.77183353046E+02  0.38415976893E+02 -0.10097322710E+03  0.13277292592E+03  0.00000000000E+00 0. -1.
        -14    1    4    4    0    0 -0.48406664098E+02  0.23683009550E+02 -0.41111635147E+00  0.53891178194E+02  0.00000000000E+00 0.  1.
        -13    1    3    3    0    0  0.90180277551E+02  0.10549363008E+02 -0.78594897716E+02  0.12008717444E+03  0.00000000000E+00 0.  1.
         13    1    3    3    0    0  0.11792079797E+02 -0.52175710375E+02 -0.43677576515E+02  0.69058588092E+02  0.00000000000E+00 0. -1.
          2    1    1    2  501    0  0.23617659796E+02 -0.20472639076E+02  0.22772777342E+02  0.38671982014E+02  0.00000000000E+00 0. -1.
<scales pt_clust_5="13000.00000" pt_clust_6="13000.00000" pt_clust_7="13000.00000" pt_clust_8="13000.00000" pt_clust_9="31.25576"></scales>
<clustering>
<clus scale="   31.256">  1  9  2 -1</clus>
<clus scale="   70.254">  5  6 -1 -1</clus>
<clus scale="   93.244">  7  8 -1 -1</clus>
<clus scale="  141.850">  1  5  2 -1</clus>
<clus scale="   31.256">  1  5  2 -1</clus>
</clustering>
</event>
<event>
 9    1  0.6270443E-005  0.1440387E+03  0.7546771E-02  0.1211264E+00
         -2   -1    0    0    0  501 -0.00000000000E+00  0.00000000000E+00  0.29688914399E+03  0.29688914399E+03  0.00000000000E+00 0.  1.
         21   -1    0    0  501  502  0.00000000000E+00 -0.00000000000E+00 -0.11958856508E+03  0.11958856508E+03  0.00000000000E+00 0.  1.
        -24    2    1    2    0    0  0.10235323391E+03 -0.93004796293E+02  0.16277592801E+03  0.22671405829E+03  0.76007794742E+02 0.  0.
         23    2    1    2    0    0 -0.46306960521E+02  0.40404497686E+02 -0.36628824243E+01  0.11077781316E+03  0.92094783542E+02 0.  0.
         13    1    3    3    0    0  0.14459567346E+02 -0.21850574256E+02  0.86319020576E+02  0.90208092744E+02  0.00000000000E+00 0. -1.
        -14    1    3    3    0    0  0.87893666564E+02 -0.71154222037E+02  0.76456907438E+02  0.13650596555E+03  0.00000000000E+00 0.  1.
        -11    1    4    4    0    0 -0.46086174055E+02  0.63455361176E+02 -0.21853431504E+02  0.81413087213E+02  0.00000000000E+00 0.  1.
         11    1    4    4    0    0 -0.22078646598E+00 -0.23050863490E+02  0.18190549080E+02  0.29364725950E+02  0.00000000000E+00 0. -1.
         -1    1    1    2    0  502 -0.56046273390E+02  0.52600298607E+02  0.18187533325E+02  0.78985837609E+02  0.00000000000E+00 0.  1.
<scales pt_clust_5="13000.00000" pt_clust_6="13000.00000" pt_clust_7="13000.00000" pt_clust_8="13000.00000" pt_clust_9="76.86336"></scales>
<clustering>
<clus scale="   76.008">  5  6 -1 -1</clus>
<clus scale="   76.863">  2  9  1 -1</clus>
<clus scale="   92.095">  7  8 -1 -1</clus>
<clus scale="  134.324">  1  5  2 -1</clus>
<clus scale="   76.863">  2  5  1 -1</clus>
</clustering>
</event>
<event>
 9    1  0.6270443E-005  0.1842257E+03  0.7546771E-02  0.1164818E+00
         21   -1    0    0  501  502  0.00000000000E+00  0.00000000000E+00  0.13694756449E+03  0.13694756449E+03  0.00000000000E+00 0. -1.
          1   -1    0    0  502    0 -0.00000000000E+00 -0.00000000000E+00 -0.12041871566E+04  0.12041871566E+04  0.00000000000E+00 0. -1.
         23    2    1    2    0    0  0.12896911512E+03  0.79394220394E+02 -0.90975998474E+03  0.92662406661E+03  0.89623970583E+02 0.  0.
        -24    2    1    2    0    0 -0.16592204722E+03 -0.16628662971E+03 -0.19216569606E+03  0.31391773849E+03  0.80220463836E+02 0.  0.
         11    1    4    4    0    0 -0.17276904839E+03 -0.15458460913E+03 -0.16833404874E+03  0.28649938469E+03  0.00000000000E+00 0. -1.
        -12    1    4    4    0    0  0.68470011710E+01 -0.11702020576E+02 -0.23831647326E+02  0.27418353795E+02  0.00000000000E+00 0.  1.
        -11    1    3    3    0    0  0.27710193106E+02 -0.15809131564E+02 -0.98296333570E+02  0.10334385631E+03  0.00000000000E+00 0.  1.
         11    1    3    3    0    0  0.10125892201E+03  0.95203351958E+02 -0.81146365117E+03  0.82328021030E+03  0.00000000000E+00 0. -1.
          2    1    1    2  501    0  0.36952932105E+02  0.86892409315E+02  0.34686088734E+02  0.10059291595E+03  0.00000000000E+00 0. -1.
<scales pt_clust_5="13000.00000" pt_clust_6="13000.00000" pt_clust_7="13000.00000" pt_clust_8="13000.00000" pt_clust_9="94.42357"></scales>
<clustering>
<clus scale="   80.220">  5  6 -1 -1</clus>
<clus scale="   89.624">  7  8 -1 -1</clus>
<clus scale="   94.424">  1  9  2 -1</clus>
<clus scale="  179.839">  1  5  2 -1</clus>
<clus scale="   94.424">  1  5  2 -1</clus>
</clustering>
</event>
<event>
 9    1  0.6270443E-005  0.1157236E+03  0.7546771E-02  0.1253749E+00
          1   -1    0    0  502    0 -0.00000000000E+00  0.00000000000E+00  0.57611936426E+02  0.57611936426E+02  0.00000000000E+00 0. -1.
         21   -1    0    0  501  502  0.00000000000E+00 -0.00000000000E+00 -0.66477722636E+03  0.66477722636E+03  0.00000000000E+00 0.  1.
        -24    2    1    2    0    0 -0.49628309085E+02  0.35831722577E+02 -0.38623163093E+02  0.10829070702E+03  0.80549656072E+02 0.  0.
         23    2    1    2    0    0  0.68894733173E+02 -0.96484904292E+02 -0.26634267140E+03  0.30527081060E+03  0.90531918034E+02 0.  0.
         11    1    3    3    0    0 -0.41577169963E+02  0.28957898012E+02  0.15622633581E+02  0.53021576735E+02  0.00000000000E+00 0. -1.
        -12    1    3    3    0    0 -0.80511391224E+01  0.68738245648E+01 -0.54245796674E+02  0.55269130282E+02  0.00000000000E+00 0.  1.
        -11    1    4    4    0    0  0.44237629469E+02 -0.36907437629E+02 -0.21575996689E+03  0.22331925605E+03  0.00000000000E+00 0.  1.
         11    1    4    4    0    0  0.24657103704E+02 -0.59577466663E+02 -0.50582704508E+02  0.81951554546E+02  0.00000000000E+00 0. -1.
          2    1    1    2  501    0 -0.19266424088E+02  0.60653181716E+02 -0.30219945544E+03  0.30882764517E+03  0.00000000000E+00 0. -1.
<scales pt_clust_5="13000.00000" pt_clust_6="13000.00000" pt_clust_7="13000.00000" pt_clust_8="13000.00000" pt_clust_9="63.63964"></scales>
<clustering>
<clus scale="   63.640">  2  9  1 -1</clus>
<clus scale="   80.550">  5  6 -1 -1</clus>
<clus scale="   90.532">  7  8 -1 -1</clus>
<clus scale="  108.093">  1  5  2 -1</clus>
<clus scale="   63.640">  2  5  1 -1</clus>
</clustering>
</event>
<event>
 9    1  0.6270443E-005  0.1312147E+03  0.7546771E-02  0.1229967E+00
         21   -1    0    0  501  502  0.00000000000E+00  0.00000000000E+00  0.17395959508E+03  0.17395959508E+03  0.00000000000E+00 0.  1.
          1   -1    0    0  502    0 -0.00000000000E+00 -0.00000000000E+00 -0.24221403302E+03  0.24221403302E+03  0.00000000000E+00 0. -1.
         23    2    1    2    0    0  0.49508553325E+02 -0.69826689033E+02 -0.10552816731E+03  0.16471662461E+03  0.93104827883E+02 0.  0.
        -24    2    1    2    0    0 -0.47845954688E+02  0.89786451591E+02 -0.67975356039E+02  0.14431911880E+03  0.76527882192E+02 0.  0.
         11    1    4    4    0    0 -0.52942931664E+02  0.99649552832E+02 -0.50523175055E+02  0.12363486001E+03  0.00000000000E+00 0. -1.
        -12    1    4    4    0    0  0.50969769760E+01 -0.98631012412E+01 -0.17452180984E+02  0.20684258785E+02  0.00000000000E+00 0.  1.
        -13    1    3    3    0    0  0.73813040482E+02 -0.30384170545E+02 -0.61044523054E+02  0.10048878823E+03  0.00000000000E+00 0.  1.
         13    1    3    3    0    0 -0.24304487156E+02 -0.39442518488E+02 -0.44483644254E+02  0.64227836385E+02  0.00000000000E+00 0. -1.
          2    1    1    2  501    0 -0.16625986370E+01 -0.19959762558E+02  0.10524908541E+03  0.10713788469E+03  0.00000000000E+00 0. -1.
<scales pt_clust_5="13000.00000" pt_clust_6="13000.00000" pt_clust_7="13000.00000" pt_clust_8="13000.00000" pt_clust_9="20.02889"></scales>
<clustering>
<clus scale="   20.029">  1  9  2 -1</clus>
<clus scale="   76.528">  5  6 -1 -1</clus>
<clus scale="   93.105">  7  8 -1 -1</clus>
<clus scale="  120.022">  1  5  2 -1</clus>
<clus scale="   20.029">  1  5  2 -1</clus>
</clustering>
</event>
<event>
 9    1  0.6270443E-005  0.1463284E+03  0.7546771E-02  0.1207979E+00
          1   -1    0    0  502    0 -0.00000000000E+00  0.00000000000E+00  0.20218095255E+03  0.20218095255E+03  0.00000000000E+00 0. -1.
         21   -1    0    0  501  502  0.00000000000E+00 -0.00000000000E+00 -0.13399482068E+03  0.13399482068E+03  0.00000000000E+00 0. -1.
        -24    2    1    2    0    0  0.97191285001E+02 -0.52713441167E+02  0.71999779044E+02  0.16814451931E+03  0.10422935494E+03 0.  0.
         23    2    1    2    0    0 -0.92426222642E+02  0.21699151986E+02  0.13108861757E+02  0.13238068224E+03  0.91320002987E+02 0.  0.
         11    1    3    3    0    0  0.58425901981E+02 -0.83506683944E+02  0.54931708623E+02  0.11577756647E+03  0.00000000000E+00 0. -1.
        -12    1    3    3    0    0  0.38765383020E+02  0.30793242777E+02  0.17068070421E+02  0.52366952835E+02  0.00000000000E+00 0.  1.
        -11    1    4    4    0    0  0.14585937703E+02  0.18714780650E+02  0.85801717790E+01  0.25231170032E+02  0.00000000000E+00 0. -1.
         11    1    4    4    0    0 -0.10701216035E+03  0.29843713356E+01  0.45286899785E+01  0.10714951221E+03  0.00000000000E+00 0.  1.
          2    1    1    2  501    0 -0.47650623586E+01  0.31014289181E+02 -0.16922508934E+02  0.35650571683E+02  0.00000000000E+00 0. -1.
<scales pt_clust_5="13000.00000" pt_clust_6="13000.00000" pt_clust_7="13000.00000" pt_clust_8="13000.00000" pt_clust_9="31.37821"></scales>
<clustering>
<clus scale="   31.378">  2  9  1 -1</clus>
<clus scale="   91.320">  7  8 -1 -1</clus>
<clus scale="  104.229">  5  6 -1 -1</clus>
<clus scale="  137.432">  2  7  1 -1</clus>
<clus scale="   31.378">  2  5  1 -1</clus>
</clustering>
</event>
<event>
 9    1  0.6270443E-005  0.1752808E+03  0.7546771E-02  0.1173233E+00
          3   -1    0    0  502    0 -0.00000000000E+00  0.00000000000E+00  0.20999474850E+04  0.20999474850E+04  0.00000000000E+00 0. -1.
         21   -1    0    0  501  502  0.00000000000E+00 -0.00000000000E+00 -0.39298383964E+02  0.39298383964E+02  0.00000000000E+00 0.  1.
        -24    2    1    2    0    0  0.24521633855E+02 -0.13952176827E+03  0.43084701125E+03  0.46144449313E+03  0.85054328432E+02 0.  0.
         23    2    1    2    0    0 -0.17110813235E+03  0.93531978128E+02  0.61831918358E+03  0.65471763934E+03  0.91161124339E+02 0.  0.
         11    1    3    3    0    0 -0.26536516959E+02 -0.41541608046E+02  0.19288385096E+03  0.19908307786E+03  0.00000000000E+00 0. -1.
        -12    1    3    3    0    0  0.51058150814E+02 -0.97980160227E+02  0.23796316030E+03  0.26236141527E+03  0.00000000000E+00 0.  1.
        -11    1    4    4    0    0 -0.13307645921E+03  0.62631095918E+02  0.55770654956E+03  0.57677430040E+03  0.00000000000E+00 0.  1.
         11    1    4    4    0    0 -0.38031673142E+02  0.30900882210E+02  0.60612634018E+02  0.77943338946E+02  0.00000000000E+00 0. -1.
          4    1    1    2  501    0  0.14658649849E+03  0.45989790145E+02  0.10114829062E+04  0.10230837365E+04  0.00000000000E+00 0. -1.
<scales pt_clust_5="13000.00000" pt_clust_6="13000.00000" pt_clust_7="13000.00000" pt_clust_8="13000.00000" pt_clust_9="153.63166"></scales>
<clustering>
<clus scale="   85.054">  5  6 -1 -1</clus>
<clus scale="   91.161">  7  8 -1 -1</clus>
<clus scale="  153.632">  2  9  1 -1</clus>
<clus scale="  172.184">  1  5  2 -1</clus>
<clus scale="  153.632">  2  5  1 -1</clus>
</clustering>
</event>
<event>
 9    1  0.6270443E-005  0.2002731E+03  0.7546771E-02  0.1177696E+00
         21   -1    0    0  501  502  0.00000000000E+00  0.00000000000E+00  0.27631040204E+03  0.27631040204E+03  0.00000000000E+00 0. -1.
          3   -1    0    0  502    0 -0.00000000000E+00 -0.00000000000E+00 -0.30103985653E+03  0.30103985653E+03  0.00000000000E+00 0. -1.
         23    2    1    2    0    0  0.39714289703E+02  0.33246067968E+02 -0.10887089181E+03  0.15079168370E+03  0.90568951345E+02 0.  0.
        -24    2    1    2    0    0  0.65294775713E+02  0.13395316150E+03 -0.62394157561E+02  0.18068225084E+03  0.80908514128E+02 0.  0.
         13    1    4    4    0    0  0.26904975413E+02  0.12789781361E+03 -0.47468657458E+02  0.13905035731E+03  0.00000000000E+00 0. -1.
        -14    1    4    4    0    0  0.38389800300E+02  0.60553478929E+01 -0.14925500103E+02  0.41631893525E+02  0.00000000000E+00 0.  1.
        -13    1    3    3    0    0  0.34456929722E+02 -0.19565050958E+01  0.17787907009E+01  0.34558240905E+02  0.00000000000E+00 0.  1.
         13    1    3    3    0    0  0.52573599808E+01  0.35202573063E+02 -0.11064968251E+03  0.11623344280E+03  0.00000000000E+00 0. -1.
          4    1    1    2  501    0 -0.10500906542E+03 -0.16719922947E+03  0.14653559488E+03  0.24587632404E+03  0.00000000000E+00 0. -1.
<scales pt_clust_5="13000.00000" pt_clust_6="13000.00000" pt_clust_7="13000.00000" pt_clust_8="13000.00000" pt_clust_9="183.20246"></scales>
<clustering>
<clus scale="   80.909">  5  6 -1 -1</clus>
<clus scale="   90.569">  7  8 -1 -1</clus>
<clus scale="  104.332">  2  7  1 -1</clus>
<clus scale="  183.202">  1  9  2 -1</clus>
<clus scale="  183.202">  1  5  2 -1</clus>
</clustering>
</event>
<event>
 9    1  0.6270443E-005  0.9201912E+02  0.7546771E-02  0.1300504E+00
          1   -1    0    0  502    0 -0.00000000000E+00  0.00000000000E+00  0.10279548006E+03  0.10279548006E+03  0.00000000000E+00 0. -1.
         21   -1    0    0  501  502  0.00000000000E+00 -0.00000000000E+00 -0.15499081378E+03  0.15499081378E+03  0.00000000000E+00 0. -1.
         23    2    1    2    0    0 -0.10739615328E+02  0.69695838465E+01  0.36696774967E+01  0.92822595269E+02  0.91862142492E+02 0.  0.
        -24    2    1    2    0    0 -0.34035539236E+02  0.26208215751E+01 -0.69675567185E+02  0.11713565450E+03  0.87754146664E+02 0.  0.
         13    1    4    4    0    0  0.23759910451E+02  0.18279057568E+02 -0.40877576328E+02  0.50691552912E+02  0.00000000000E+00 0. -1.
        -14    1    4    4    0    0 -0.57795449687E+02 -0.15658235993E+02 -0.28797990857E+02  0.66444101592E+02  0.00000000000E+00 0.  1.
        -11    1    3    3    0    0  0.33263250766E+02  0.13416533107E+02 -0.21404503633E+02  0.41768408971E+02  0.00000000000E+00 0.  1.
         11    1    3    3    0    0 -0.44002866095E+02 -0.64469492606E+01  0.25074181130E+02  0.51054186299E+02  0.00000000000E+00 0. -1.
          2    1    1    2  501    0  0.44775154564E+02 -0.95904054216E+01  0.13810555970E+02  0.47828044060E+02  0.00000000000E+00 0. -1.
<scales pt_clust_5="13000.00000" pt_clust_6="13000.00000" pt_clust_7="13000.00000" pt_clust_8="13000.00000" pt_clust_9="45.79075"></scales>
<clustering>
<clus scale="   45.791">  2  9  1 -1</clus>
<clus scale="   87.754">  5  6 -1 -1</clus>
<clus scale="   87.918">  2  5  1 -1</clus>
<clus scale="   91.862">  7  8 -1 -1</clus>
<clus scale="   45.791">  2  5  1 -1</clus>
</clustering>
</event>
<event>
 9    1  0.6270443E-005  0.1111902E+03  0.7546771E-02  0.1265683E+00
         -4   -1    0    0    0  501 -0.00000000000E+00  0.00000000000E+00  0.72414896835E+03  0.72414896835E+03  0.00000000000E+00 0.  1.
         21   -1    0    0  501  502  0.00000000000E+00 -0.00000000000E+00 -0.49155887951E+02  0.49155887951E+02  0.00000000000E+00 0. -1.
        -24    2    1    2    0    0  0.31373918271E+02 -0.53928013442E+02  0.53090443675E+03  0.54044987076E+03  0.79586358472E+02 0.  0.
         23    2    1    2    0    0 -0.40732703829E+02  0.37743442746E+01  0.14806923601E+03  0.18168055332E+03  0.97004772913E+02 0.  0.
         13    1    3    3    0    0 -0.11358113205E+02 -0.29886397836E+02  0.70130301441E+02  0.77074397120E+02  0.00000000000E+00 0. -1.
        -14    1    3    3    0    0  0.42732031477E+02 -0.24041615606E+02  0.46077413531E+03  0.46337547364E+03  0.00000000000E+00 0.  1.
        -11    1    4    4    0    0  0.23608848530E+02 -0.20441804452E+02  0.75571095211E+02  0.81769404606E+02  0.00000000000E+00 0.  1.
         11    1    4    4    0    0 -0.64341552359E+02  0.24216148726E+02  0.72498140795E+02  0.99911148716E+02  0.00000000000E+00 0. -1.
         -3    1    1    2    0  502  0.93587855579E+01  0.50153669168E+02 -0.39805923569E+01  0.51174432225E+02  0.00000000000E+00 0.  1.
<scales pt_clust_5="13000.00000" pt_clust_6="13000.00000" pt_clust_7="13000.00000" pt_clust_8="13000.00000" pt_clust_9="51.01938"></scales>
<clustering>
<clus scale="   51.019">  2  9  1 -1</clus>
<clus scale="   79.586">  5  6 -1 -1</clus>
<clus scale="   96.371">  1  5  2 -1</clus>
<clus scale="   97.005">  7  8 -1 -1</clus>
<clus scale="   51.019">  2  5  1 -1</clus>
</clustering>
</event>
<event>
 9    1  0.6270443E-005  0.1741864E+03  0.7546771E-02  0.1204144E+00
         21   -1    0    0  501  502  0.00000000000E+00  0.00000000000E+00  0.12111943257E+03  0.12111943257E+03  0.00000000000E+00 0. -1.
          1   -1    0    0  502    0 -0.00000000000E+00 -0.00000000000E+00 -0.75168823695E+03  0.75168823695E+03  0.00000000000E+00 0. -1.
        -24    2    1    2    0    0 -0.35467646952E+02 -0.31239989205E+02 -0.27306230449E+02  0.92595384452E+02  0.74795615477E+02 0.  0.
         23    2    1    2    0    0 -0.56310940873E+02  0.14937394883E+03 -0.60361489475E+03  0.63061594243E+03  0.88555220192E+02 0.  0.
         13    1    3    3    0    0 -0.50662190066E+02  0.16008958320E+01 -0.71920776505E+01  0.51195178979E+02  0.00000000000E+00 0. -1.
        -14    1    3    3    0    0  0.15194543114E+02 -0.32840885037E+02 -0.20114152798E+02  0.41400205473E+02  0.00000000000E+00 0.  1.
        -13    1    4    4    0    0 -0.11101666026E+02  0.61429026894E+02 -0.10389402651E+03  0.12120536737E+03  0.00000000000E+00 0.  1.
         13    1    4    4    0    0 -0.45209274846E+02  0.87944921939E+02 -0.49972086824E+03  0.50941057506E+03  0.00000000000E+00 0. -1.
          2    1    1    2  501    0  0.91778587825E+02 -0.11813395963E+03  0.35232082242E+00  0.14959634264E+03  0.00000000000E+00 0. -1.
<scales pt_clust_5="13000.00000" pt_clust_6="13000.00000" pt_clust_7="13000.00000" pt_clust_8="13000.00000" pt_clust_9="149.99621"></scales>
<clustering>
<clus scale="   74.796">  5  6 -1 -1</clus>
<clus scale="   88.478">  2  5  1 -1</clus>
<clus scale="   88.555">  7  8 -1 -1</clus>
<clus scale="  149.996">  1  9  2 -1</clus>
<clus scale="  149.996">  1  5  2 -1</clus>
</clustering>
</event>
<event>
 9    1  0.6270443E-005  0.1110224E+03  0.7546771E-02  0.1262531E+00
         21   -1    0    0  501  502  0.00000000000E+00  0.00000000000E+00  0.89508813707E+02  0.89508813707E+02  0.00000000000E+00 0. -1.
          1   -1    0    0  502    0 -0.00000000000E+00 -0.00000000000E+00 -0.31324240764E+03  0.31324240764E+03  0.00000000000E+00 0. -1.
        -24    2    1    2    0    0 -0.36101072929E+02 -0.28970534912E+02 -0.13177413109E+03  0.16157981513E+03  0.81246757919E+02 0.  0.
         23    2    1    2    0    0  0.93659954126E+02  0.38497177935E+02 -0.11509845036E+03  0.17840840379E+03  0.91256153496E+02 0.  0.
         13    1    3    3    0    0 -0.18718615383E+02 -0.47524152958E+02 -0.12534924089E+03  0.13535643268E+03  0.00000000000E+00 0. -1.
        -14    1    3    3    0    0 -0.17382457547E+02  0.18553618046E+02 -0.64248902026E+01  0.26223382449E+02  0.00000000000E+00 0.  1.
        -11    1    4    4    0    0  0.23194742105E+02  0.55444702500E+02 -0.73135283137E+02  0.94661928653E+02  0.00000000000E+00 0.  1.
         11    1    4    4    0    0  0.70465212021E+02 -0.16947524566E+02 -0.41963167220E+02  0.83746475133E+02  0.00000000000E+00 0. -1.
          2    1    1    2  501    0 -0.57558881197E+02 -0.95266430231E+01  0.23138987511E+02  0.62763002438E+02  0.00000000000E+00 0. -1.
<scales pt_clust_5="13000.00000" pt_clust_6="13000.00000" pt_clust_7="13000.00000" pt_clust_8="13000.00000" pt_clust_9="58.34194"></scales>
<clustering>
<clus scale="   58.342">  1  9  2 -1</clus>
<clus scale="   81.247">  5  6 -1 -1</clus>
<clus scale="   91.256">  7  8 -1 -1</clus>
<clus scale="  102.953">  2  5  1 -1</clus>
<clus scale="   58.342">  1  5  2 -1</clus>
</clustering>
</event>
<event>
 9    1  0.6270443E-005  0.2209691E+03  0.7546771E-02  0.1133963E+00
         -2   -1    0    0    0  501 -0.00000000000E+00  0.00000000000E+00  0.19765164068E+03  0.19765164068E+03  0.00000000000E+00 0.  1.
         21   -1    0    0  501  502  0.00000000000E+00 -0.00000000000E+00 -0.63986601974E+03  0.63986601974E+03  0.00000000000E+00 0.  1.
         23    2    1    2    0    0 -0.62048851329E+01  0.20148439318E+03  0.83681186438E+02  0.23596238098E+03  0.89672977973E+02 0.  0.
        -24    2    1    2    0    0  0.71103946291E+02 -0.20056572311E+03 -0.42041075628E+03  0.47770142577E+03  0.78556143730E+02 0.  0.
         13    1    4    4    0    0  0.19412631274E+01 -0.36944389325E+02 -0.14751091564E+03  0.15207934323E+03  0.00000000000E+00 0. -1.
        -14    1    4    4    0    0  0.69162683163E+02 -0.16362133379E+03 -0.27289984065E+03  0.32562208254E+03  0.00000000000E+00 0.  1.
        -13    1    3    3    0    0 -0.20853030665E+02  0.17974278925E+03  0.40467217789E+02  0.18541821617E+03  0.00000000000E+00 0.  1.
         13    1    3    3    0    0  0.14648145532E+02  0.21741603932E+02  0.43213968649E+02  0.50544164802E+02  0.00000000000E+00 0. -1.
         -1    1    1    2    0  502 -0.64899061158E+02 -0.91867006567E+00 -0.10548480922E+03  0.12385385367E+03  0.00000000000E+00 0.  1.
<scales pt_clust_5="13000.00000" pt_clust_6="13000.00000" pt_clust_7="13000.00000" pt_clust_8="13000.00000" pt_clust_9="64.90556"></scales>
<clustering>
<clus scale="   64.906">  2  9  1 -1</clus>
<clus scale="   78.556">  5  6 -1 -1</clus>
<clus scale="   89.673">  7  8 -1 -1</clus>
<clus scale="  216.696">  2  5  1 -1</clus>
<clus scale="   64.906">  2  5  1 -1</clus>
</clustering>
</event>
<event>
 9    1  0.6270443E-005  0.1368159E+03  0.7546771E-02  0.1218158E+00
         21   -1    0    0  501  502  0.00000000000E+00  0.00000000000E+00  0.68849677668E+02  0.68849677668E+02  0.00000000000E+00 0.  1.
          3   -1    0    0  502    0 -0.00000000000E+00 -0.00000000000E+00 -0.49043288523E+03  0.49043288523E+03  0.00000000000E+00 0. -1.
         23    2    1    2    0    0  0.65763683425E+02  0.86285470626E+02 -0.23868987733E+03  0.27627505977E+03  0.87091943455E+02 0.  0.
        -24    2    1    2    0    0 -0.86420673258E+02 -0.59698059000E+02 -0.20297262795E+03  0.24380571895E+03  0.84917312025E+02 0.  0.
         11    1    4    4    0    0 -0.35116907728E+02 -0.86637542481E+01 -0.14954045239E+03  0.15385254222E+03  0.00000000000E+00 0. -1.
        -12    1    4    4    0    0 -0.51303765530E+02 -0.51034304752E+02 -0.53432175557E+02  0.89953176730E+02  0.00000000000E+00 0.  1.
        -13    1    3    3    0    0  0.53998246897E+02  0.13510647947E+02 -0.15528695424E+03  0.16496177264E+03  0.00000000000E+00 0. -1.
         13    1    3    3    0    0  0.11765436528E+02  0.72774822679E+02 -0.83402923094E+02  0.11131328714E+03  0.00000000000E+00 0.  1.
          4    1    1    2  501    0  0.20656989833E+02 -0.26587411626E+02  0.20079297713E+02  0.39201784176E+02  0.00000000000E+00 0. -1.
<scales pt_clust_5="13000.00000" pt_clust_6="13000.00000" pt_clust_7="13000.00000" pt_clust_8="13000.00000" pt_clust_9="33.66900"></scales>
<clustering>
<clus scale="   33.669">  1  9  2 -1</clus>
<clus scale="   84.917">  5  6 -1 -1</clus>
<clus scale="   87.092">  7  8 -1 -1</clus>
<clus scale="  135.442">  1  5  2 -1</clus>
<clus scale="   33.669">  1  5  2 -1</clus>
</clustering>
</event>
<event>
 9    1  0.6270443E-005  0.1529423E+03  0.7546771E-02  0.1198854E+00
         21   -1    0    0  501  502  0.00000000000E+00  0.00000000000E+00  0.34824980103E+03  0.34824980103E+03  0.00000000000E+00 0. -1.
          1   -1    0    0  502    0 -0.00000000000E+00 -0.00000000000E+00 -0.11163088660E+03  0.11163088660E+03  0.00000000000E+00 0. -1.
         23    2    1    2    0    0  0.10120341404E+03  0.86806114689E+02  0.56126444344E+02  0.17034935972E+03  0.89951620556E+02 0.  0.
        -24    2    1    2    0    0 -0.11684098174E+03 -0.30609548436E+02  0.60893227381E+02  0.15646530507E+03  0.78642527167E+02 0.  0.
         13    1    4    4    0    0 -0.51183065230E+02 -0.44836200408E+02  0.57688506525E+02  0.89207369754E+02  0.00000000000E+00 0. -1.
        -14    1    4    4    0    0 -0.65657916508E+02  0.14226651972E+02  0.32047208555E+01  0.67257935311E+02  0.00000000000E+00 0.  1.
        -11    1    3    3    0    0  0.31745104381E+02 -0.16850313298E+02  0.15331872557E+02  0.39073661544E+02  0.00000000000E+00 0.  1.
         11    1    3    3    0    0  0.69458309663E+02  0.10365642799E+03  0.40794571787E+02  0.13127569818E+03  0.00000000000E+00 0. -1.
          2    1    1    2  501    0  0.15637567694E+02 -0.56196566253E+02  0.11959924270E+03  0.13306602285E+03  0.00000000000E+00 0. -1.
<scales pt_clust_5="13000.00000" pt_clust_6="13000.00000" pt_clust_7="13000.00000" pt_clust_8="13000.00000" pt_clust_9="58.33170"></scales>
<clustering>
<clus scale="   58.332">  1  9  2 -1</clus>
<clus scale="   78.643">  5  6 -1 -1</clus>
<clus scale="   89.952">  7  8 -1 -1</clus>
<clus scale="  146.577">  1  5  2 -1</clus>
<clus scale="   58.332">  1  5  2 -1</clus>
</clustering>
</event>
<event>
 9    1  0.7301037E-005  0.9002100E+02  0.7546771E-02  0.1308465E+00
         21   -1    0    0  501  502  0.00000000000E+00  0.00000000000E+00  0.18520450556E+03  0.18520450556E+03  0.00000000000E+00 0.  1.
         -4   -1    0    0    0  501 -0.00000000000E+00 -0.00000000000E+00 -0.28944345383E+03  0.28944345383E+03  0.00000000000E+00 0.  1.
        -24    2    1    2    0    0 -0.17420019091E+01 -0.38997486018E+01 -0.23791206105E+03  0.25137894236E+03  0.81061589296E+02 0.  0.
         23    2    1    2    0    0  0.19751894590E+02 -0.15569585877E+02  0.67650010958E+01  0.93619180825E+02  0.89923503236E+02 0.  0.
         13    1    3    3    0    0 -0.36847159951E+02 -0.25434200229E+01 -0.63470321701E+02  0.73434759608E+02  0.00000000000E+00 0. -1.
        -14    1    3    3    0    0  0.35105158041E+02 -0.13563285789E+01 -0.17444173935E+03  0.17794418275E+03  0.00000000000E+00 0.  1.
        -13    1    4    4    0    0  0.39550389715E+02 -0.37658823320E+02  0.23621148972E+02  0.59501083849E+02  0.00000000000E+00 0.  1.
         13    1    4    4    0    0 -0.19798495124E+02  0.22089237443E+02 -0.16856147876E+02  0.34118096976E+02  0.00000000000E+00 0. -1.
         -3    1    1    2    0  502 -0.18009892681E+02  0.19469334479E+02  0.12690811167E+03  0.12964983621E+03  0.00000000000E+00 0.  1.
<scales pt_clust_5="13000.00000" pt_clust_6="13000.00000" pt_clust_7="13000.00000" pt_clust_8="13000.00000" pt_clust_9="26.52190"></scales>
<clustering>
<clus scale="   26.522">  1  9  2 -1</clus>
<clus scale="   81.062">  5  6 -1 -1</clus>
<clus scale="   81.170">  2  5  1 -1</clus>
<clus scale="   89.924">  7  8 -1 -1</clus>
<clus scale="   26.522">  1  5  2 -1</clus>
</clustering>
</event>
<event>
 9    1  0.6270443E-005  0.1027140E+03  0.7546771E-02  0.1281281E+00
         -4   -1    0    0    0  501 -0.00000000000E+00  0.00000000000E+00  0.23664594530E+03  0.23664594530E+03  0.00000000000E+00 0.  1.
         21   -1    0    0  501  502  0.00000000000E+00 -0.00000000000E+00 -0.74549380734E+02  0.74549380734E+02  0.00000000000E+00 0. -1.
        -24    2    1    2    0    0  0.19602918931E+02 -0.45358481316E+02  0.10412661225E+03  0.13993965320E+03  0.79366799743E+02 0.  0.
         23    2    1    2    0    0  0.16015848375E+02  0.33836389570E+02 -0.23462746707E+01  0.10026621995E+03  0.92986026907E+02 0.  0.
         13    1    3    3    0    0  0.28703648115E+02  0.86287000219E+01  0.68090782669E+02  0.74395621939E+02  0.00000000000E+00 0. -1.
        -14    1    3    3    0    0 -0.91007291834E+01 -0.53987181338E+02  0.36035829581E+02  0.65544031262E+02  0.00000000000E+00 0.  1.
        -11    1    4    4    0    0 -0.33556021328E+02  0.18269164012E+02  0.20667824733E+02  0.43438783365E+02  0.00000000000E+00 0.  1.
         11    1    4    4    0    0  0.49571869703E+02  0.15567225559E+02 -0.23014099404E+02  0.56827436585E+02  0.00000000000E+00 0. -1.
         -3    1    1    2    0  502 -0.35618767306E+02  0.11522091746E+02  0.60316226983E+02  0.70989452879E+02  0.00000000000E+00 0.  1.
<scales pt_clust_5="13000.00000" pt_clust_6="13000.00000" pt_clust_7="13000.00000" pt_clust_8="13000.00000" pt_clust_9="37.43603"></scales>
<clustering>
<clus scale="   37.436">  2  9  1 -1</clus>
<clus scale="   79.367">  5  6 -1 -1</clus>
<clus scale="   90.570">  1  5  2 -1</clus>
<clus scale="   92.986">  7  8 -1 -1</clus>
<clus scale="   37.436">  2  5  1 -1</clus>
</clustering>
</event>
<event>
 9    1  0.6270443E-005  0.9873347E+02  0.7546771E-02  0.1285265E+00
         21   -1    0    0  501  502  0.00000000000E+00  0.00000000000E+00  0.27859271882E+03  0.27859271882E+03  0.00000000000E+00 0.  1.
         -2   -1    0    0    0  501 -0.00000000000E+00 -0.00000000000E+00 -0.14180105674E+03  0.14180105674E+03  0.00000000000E+00 0.  1.
         23    2    1    2    0    0  0.84329319494E+00 -0.34341755411E+02 -0.46031426416E+02  0.10729454887E+03  0.90626490010E+02 0.  0.
        -24    2    1    2    0    0  0.90989429838E+02  0.56897812077E+02  0.17131933719E+03  0.21783978618E+03  0.81162921258E+02 0.  0.
         11    1    4    4    0    0  0.35231588795E+02  0.68631144433E+02  0.89899414120E+02  0.11846266709E+03  0.00000000000E+00 0. -1.
        -12    1    4    4    0    0  0.55757841044E+02 -0.11733332357E+02  0.81419923068E+02  0.99377119089E+02  0.00000000000E+00 0.  1.
        -11    1    3    3    0    0  0.35939213336E+02 -0.26832318802E+02 -0.54336298033E+02  0.70455898770E+02  0.00000000000E+00 0.  1.
         11    1    3    3    0    0 -0.35095920141E+02 -0.75094366082E+01  0.83048716177E+01  0.36838650101E+02  0.00000000000E+00 0. -1.
         -1    1    1    2    0  502 -0.91832723033E+02 -0.22556056666E+02  0.11503751304E+02  0.95259440509E+02  0.00000000000E+00 0.  1.
<scales pt_clust_5="13000.00000" pt_clust_6="13000.00000" pt_clust_7="13000.00000" pt_clust_8="13000.00000" pt_clust_9="94.56233"></scales>
<clustering>
<clus scale="   81.163">  5  6 -1 -1</clus>
<clus scale="   90.626">  7  8 -1 -1</clus>
<clus scale="   94.562">  1  9  2 -1</clus>
<clus scale="   94.562">  1  5  2 -1</clus>
<clus scale="   94.562">  1  5  2 -1</clus>
</clustering>
</event>
<event>
 9    1  0.6270443E-005  0.2019681E+03  0.7546771E-02  0.1180593E+00
         -2   -1    0    0    0  501 -0.00000000000E+00  0.00000000000E+00  0.32678184522E+03  0.32678184522E+03  0.00000000000E+00 0.  1.
         21   -1    0    0  501  502  0.00000000000E+00 -0.00000000000E+00 -0.19357427162E+03  0.19357427162E+03  0.00000000000E+00 0.  1.
        -24    2    1    2    0    0 -0.47402584070E+02  0.16858129822E+02  0.92525226106E+02  0.13283004655E+03  0.80942586341E+02 0.  0.
         23    2    1    2    0    0  0.13122112961E+03 -0.15396902993E+03  0.10775797706E+01  0.22201629676E+03  0.91458339247E+02 0.  0.
         11    1    3    3    0    0 -0.54468562855E+02  0.28956021950E+01  0.10118104363E+03  0.11494699841E+03  0.00000000000E+00 0. -1.
        -12    1    3    3    0    0  0.70659787853E+01  0.13962527627E+02 -0.86558175283E+01  0.17883048147E+02  0.00000000000E+00 0.  1.
        -11    1    4    4    0    0  0.96011845116E+02 -0.52460341924E+02 -0.23256140241E+02  0.11185352000E+03  0.00000000000E+00 0.  1.
         11    1    4    4    0    0  0.35209284491E+02 -0.10150868800E+03  0.24333720011E+02  0.11016277676E+03  0.00000000000E+00 0. -1.
         -1    1    1    2    0  502 -0.83818545537E+02  0.13711090011E+03  0.39604767720E+02  0.16550977352E+03  0.00000000000E+00 0.  1.
<scales pt_clust_5="13000.00000" pt_clust_6="13000.00000" pt_clust_7="13000.00000" pt_clust_8="13000.00000" pt_clust_9="180.07368"></scales>
<clustering>
<clus scale="   80.943">  5  6 -1 -1</clus>
<clus scale="   91.458">  7  8 -1 -1</clus>
<clus scale="   95.304">  1  5  2 -1</clus>
<clus scale="  180.074">  2  9  1 -1</clus>
<clus scale="  180.074">  2  5  1 -1</clus>
</clustering>
</event>
<event>
 9    1  0.6270443E-005  0.1221784E+03  0.7546771E-02  0.1241213E+00
          1   -1    0    0  502    0 -0.00000000000E+00  0.00000000000E+00  0.10781975045E+04  0.10781975045E+04  0.00000000000E+00 0. -1.
         21   -1    0    0  501  502  0.00000000000E+00 -0.00000000000E+00 -0.29854036278E+02  0.29854036278E+02  0.00000000000E+00 0. -1.
        -24    2    1    2    0    0 -0.70806363237E+02  0.70341873406E+02  0.59917975490E+03  0.61286176559E+03  0.81373489560E+02 0.  0.
         23    2    1    2    0    0 -0.13312213598E+02 -0.77031660347E+02  0.19573803835E+03  0.22808443838E+03  0.87166734757E+02 0.  0.
         11    1    3    3    0    0 -0.80877847454E+02  0.51587476984E+02  0.35425862145E+03  0.36701725418E+03  0.00000000000E+00 0. -1.
        -12    1    3    3    0    0  0.10071484217E+02  0.18754396422E+02  0.24492113345E+03  0.24584451141E+03  0.00000000000E+00 0.  1.
        -11    1    4    4    0    0  0.20304630273E+02 -0.67016124599E+02  0.17206026163E+03  0.18576375480E+03  0.00000000000E+00 0.  1.
         11    1    4    4    0    0 -0.33616843871E+02 -0.10015535747E+02  0.23677776723E+02  0.42320683580E+02  0.00000000000E+00 0. -1.
          2    1    1    2  501    0  0.84118576835E+02  0.66897869408E+01  0.25342567495E+03  0.26710533679E+03  0.00000000000E+00 0. -1.
<scales pt_clust_5="13000.00000" pt_clust_6="13000.00000" pt_clust_7="13000.00000" pt_clust_8="13000.00000" pt_clust_9="84.38421"></scales>
<clustering>
<clus scale="   81.373">  5  6 -1 -1</clus>
<clus scale="   84.384">  2  9  1 -1</clus>
<clus scale="   87.167">  7  8 -1 -1</clus>
<clus scale="  118.115">  1  5  2 -1</clus>
<clus scale="   84.384">  2  5  1 -1</clus>
</clustering>
</event>
<event>
 9    1  0.6270443E-005  0.9782996E+02  0.7546771E-02  0.1289659E+00
          1   -1    0    0  502    0 -0.00000000000E+00  0.00000000000E+00  0.17880142995E+03  0.17880142995E+03  0.00000000000E+00 0. -1.
         21   -1    0    0  501  502  0.00000000000E+00 -0.00000000000E+00 -0.17989933641E+03  0.17989933641E+03  0.00000000000E+00 0. -1.
         23    2    1    2    0    0 -0.40616627394E+02  0.12791351317E+02 -0.33814575653E+02  0.10419966592E+03  0.88886533070E+02 0.  0.
        -24    2    1    2    0    0  0.60543247647E+01 -0.58009376761E+02 -0.80774609528E+02  0.12753853535E+03  0.79622847308E+02 0.  0.
         13    1    4    4    0    0 -0.34452334063E+02 -0.40236184489E+02 -0.54918274906E+02  0.76301577855E+02  0.00000000000E+00 0. -1.
        -14    1    4    4    0    0  0.40506658827E+02 -0.17773192272E+02 -0.25856334622E+02  0.51236957492E+02  0.00000000000E+00 0.  1.
        -11    1    3    3    0    0  0.11704486246E+01 -0.32167220911E+02 -0.27790344221E+02  0.42525325196E+02  0.00000000000E+00 0.  1.
         11    1    3    3    0    0 -0.41787076019E+02  0.44958572228E+02 -0.60242314324E+01  0.61674340721E+02  0.00000000000E+00 0. -1.
          2    1    1    2  501    0  0.34562302630E+02  0.45218025444E+02  0.11349127873E+03  0.12696256509E+03  0.00000000000E+00 0. -1.
<scales pt_clust_5="13000.00000" pt_clust_6="13000.00000" pt_clust_7="13000.00000" pt_clust_8="13000.00000" pt_clust_9="56.91420"></scales>
<clustering>
<clus scale="   56.914">  2  9  1 -1</clus>
<clus scale="   79.623">  5  6 -1 -1</clus>
<clus scale="   88.887">  7  8 -1 -1</clus>
<clus scale="   89.497">  2  5  1 -1</clus>
<clus scale="   56.914">  2  5  1 -1</clus>
</clustering>
</event>
<event>
 9    1  0.6270443E-005  0.9742855E+02  0.7546771E-02  0.1292600E+00
         -2   -1    0    0    0  501 -0.00000000000E+00  0.00000000000E+00  0.52320863021E+02  0.52320863021E+02  0.00000000000E+00 0.  1.
         21   -1    0    0  501  502  0.00000000000E+00 -0.00000000000E+00 -0.35211254808E+03  0.35211254808E+03  0.00000000000E+00 0. -1.
         23    2    1    2    0    0 -0.15754425493E+02 -0.46144657224E+02 -0.65312941805E+02  0.12395513564E+03  0.93389314011E+02 0.  0.
        -24    2    1    2    0    0  0.22445763085E+02 -0.20388701050E+02 -0.14246326837E+03  0.16673158592E+03  0.81142636756E+02 0.  0.
         13    1    4    4    0    0 -0.21227730332E+01 -0.39003521036E+02 -0.12573100621E+03  0.13165890300E+03  0.00000000000E+00 0. -1.
        -14    1    4    4    0    0  0.24568536119E+02  0.18614819986E+02 -0.16732262160E+02  0.35072682919E+02  0.00000000000E+00 0.  1.
        -13    1    3    3    0    0 -0.45825171863E+02 -0.21876660925E+02 -0.68401903387E+02  0.85190111259E+02  0.00000000000E+00 0.  1.
         13    1    3    3    0    0  0.30070746369E+02 -0.24267996300E+02  0.30889615817E+01  0.38765024381E+02  0.00000000000E+00 0. -1.
         -1    1    1    2    0  502 -0.66913375920E+01  0.66533358274E+02 -0.92015474882E+02  0.11374668953E+03  0.00000000000E+00 0.  1.
<scales pt_clust_5="13000.00000" pt_clust_6="13000.00000" pt_clust_7="13000.00000" pt_clust_8="13000.00000" pt_clust_9="66.86899"></scales>
<clustering>
<clus scale="   66.869">  2  9  1 -1</clus>
<clus scale="   81.143">  5  6 -1 -1</clus>
<clus scale="   85.761">  2  5  1 -1</clus>
<clus scale="   93.389">  7  8 -1 -1</clus>
<clus scale="   66.869">  2  5  1 -1</clus>
</clustering>
</event>
<event>
 9    1  0.6270443E-005  0.1434778E+03  0.7546771E-02  0.1239138E+00
         21   -1    0    0  501  502  0.00000000000E+00  0.00000000000E+00  0.33968090787E+03  0.33968090787E+03  0.00000000000E+00 0.  1.
         -2   -1    0    0    0  501 -0.00000000000E+00 -0.00000000000E+00 -0.94898662804E+02  0.94898662804E+02  0.00000000000E+00 0.  1.
        -24    2    1    2    0    0 -0.24092984447E+02 -0.64267286468E+00  0.34136772198E+02  0.83381153629E+02  0.72154089534E+02 0.  0.
         23    2    1    2    0    0 -0.81726970909E+02  0.63039633408E+02  0.17515701238E+03  0.22332866118E+03  0.92425206337E+02 0.  0.
         13    1    3    3    0    0  0.23559089742E+02 -0.73806008756E+01  0.55061395929E+00  0.24694273719E+02  0.00000000000E+00 0. -1.
        -14    1    3    3    0    0 -0.47652074189E+02  0.67379280110E+01  0.33586158238E+02  0.58686879910E+02  0.00000000000E+00 0.  1.
        -13    1    4    4    0    0 -0.40447562149E+02  0.83270542733E+02  0.11782966849E+03  0.14984598542E+03  0.00000000000E+00 0.  1.
         13    1    4    4    0    0 -0.41279408760E+02 -0.20230909325E+02  0.57327343889E+02  0.73482675762E+02  0.00000000000E+00 0. -1.
         -1    1    1    2    0  502  0.10581995536E+03 -0.62396960544E+02  0.35488460494E+02  0.12786975586E+03  0.00000000000E+00 0.  1.
<scales pt_clust_5="13000.00000" pt_clust_6="13000.00000" pt_clust_7="13000.00000" pt_clust_8="13000.00000" pt_clust_9="109.74274"></scales>
<clustering>
<clus scale="   72.154">  5  6 -1 -1</clus>
<clus scale="   76.073">  2  5  1 -1</clus>
<clus scale="   92.425">  7  8 -1 -1</clus>
<clus scale="  109.743">  1  9  2 -1</clus>
<clus scale="  109.743">  1  5  2 -1</clus>
</clustering>
</event>
<event>
 9    1  0.6270443E-005  0.1490779E+03  0.7546771E-02  0.1231174E+00
          1   -1    0    0  502    0 -0.00000000000E+00  0.00000000000E+00  0.78327334042E+03  0.78327334042E+03  0.00000000000E+00 0. -1.
         21   -1    0    0  501  502  0.00000000000E+00 -0.00000000000E+00 -0.72501300358E+03  0.72501300358E+03  0.00000000000E+00 0. -1.
        -24    2    1    2    0    0 -0.14143047555E+02 -0.31682057286E+01  0.41357634243E+02  0.89904538677E+02  0.78500374794E+02 0.  0.
         23    2    1    2    0    0  0.71556651128E+02  0.10820901435E+03  0.70379613416E+03  0.72113545024E+03  0.88756937870E+02 0.  0.
         11    1    3    3    0    0 -0.22744024790E+01  0.23653687106E+02 -0.13766877062E+02  0.27462642342E+02  0.00000000000E+00 0. -1.
        -12    1    3    3    0    0 -0.11868645076E+02 -0.26821892835E+02  0.55124511305E+02  0.62441896334E+02  0.00000000000E+00 0.  1.
        -11    1    4    4    0    0  0.74277128039E+02  0.32089216548E+02  0.34934485162E+03  0.35859257511E+03  0.00000000000E+00 0.  1.
         11    1    4    4    0    0 -0.27204769114E+01  0.76119797802E+02  0.35445128254E+03  0.36254287513E+03  0.00000000000E+00 0. -1.
          2    1    1    2  501    0 -0.57413603573E+02 -0.10504080862E+03 -0.68689343157E+03  0.69724635509E+03  0.00000000000E+00 0. -1.
<scales pt_clust_5="13000.00000" pt_clust_6="13000.00000" pt_clust_7="13000.00000" pt_clust_8="13000.00000" pt_clust_9="119.77654"></scales>
<clustering>
<clus scale="   78.500">  5  6 -1 -1</clus>
<clus scale="   79.827">  1  5  2 -1</clus>
<clus scale="   88.757">  7  8 -1 -1</clus>
<clus scale="  119.777">  2  9  1 -1</clus>
<clus scale="  119.777">  2  5  1 -1</clus>
</clustering>
</event>
<event>
 9    1  0.6270443E-005  0.9665317E+02  0.7546771E-02  0.1293875E+00
         -2   -1    0    0    0  501 -0.00000000000E+00  0.00000000000E+00  0.12666909371E+03  0.12666909371E+03  0.00000000000E+00 0.  1.
         21   -1    0    0  501  502  0.00000000000E+00 -0.00000000000E+00 -0.16493026722E+03  0.16493026722E+03  0.00000000000E+00 0.  1.
         23    2    1    2    0    0 -0.43251760182E+02 -0.76833245161E+01  0.72286262788E+02  0.12379252915E+03  0.90385498011E+02 0.  0.
        -24    2    1    2    0    0  0.10741672893E+02 -0.71682022858E+01 -0.41038388539E+02  0.89646859012E+02  0.78648860998E+02 0.  0.
         11    1    4    4    0    0  0.24848082611E+02  0.91104864645E+01 -0.56995135284E+02  0.62840063806E+02  0.00000000000E+00 0. -1.
        -12    1    4    4    0    0 -0.14106409718E+02 -0.16278688750E+02  0.15956746745E+02  0.26806795206E+02  0.00000000000E+00 0.  1.
        -13    1    3    3    0    0 -0.54174850586E+02  0.29304232644E+02  0.39475237937E+02  0.73157001695E+02  0.00000000000E+00 0.  1.
         13    1    3    3    0    0  0.10923090404E+02 -0.36987557160E+02  0.32811024851E+02  0.50635527453E+02  0.00000000000E+00 0. -1.
         -1    1    1    2    0  502  0.32510087288E+02  0.14851526802E+02 -0.69509047754E+02  0.78159972771E+02  0.00000000000E+00 0.  1.
<scales pt_clust_5="13000.00000" pt_clust_6="13000.00000" pt_clust_7="13000.00000" pt_clust_8="13000.00000" pt_clust_9="35.74176"></scales>
<clustering>
<clus scale="   35.742">  2  9  1 -1</clus>
<clus scale="   78.649">  5  6 -1 -1</clus>
<clus scale="   85.778">  2  5  1 -1</clus>
<clus scale="   90.385">  7  8 -1 -1</clus>
<clus scale="   35.742">  2  5  1 -1</clus>
</clustering>
</event>
<event>
 9    1  0.6270443E-005  0.1078356E+03  0.7546771E-02  0.1276543E+00
         21   -1    0    0  501  502  0.00000000000E+00  0.00000000000E+00  0.19681189805E+03  0.19681189805E+03  0.00000000000E+00 0. -1.
          3   -1    0    0  502    0 -0.00000000000E+00 -0.00000000000E+00 -0.36978300552E+03  0.36978300552E+03  0.00000000000E+00 0. -1.
        -24    2    1    2    0    0  0.31789590264E+02  0.16551617377E+01 -0.32411052730E+03  0.33534638661E+03  0.79976543387E+02 0.  0.
         23    2    1    2    0    0 -0.14240492960E+02 -0.21667202762E+02  0.35116365991E+02  0.11221154109E+03  0.10337316614E+03 0.  0.
         11    1    3    3    0    0  0.45957799571E+02  0.27094315527E+02 -0.25186862468E+03  0.25745684177E+03  0.00000000000E+00 0. -1.
        -12    1    3    3    0    0 -0.14168209307E+02 -0.25439153789E+02 -0.72241902619E+02  0.77889544834E+02  0.00000000000E+00 0.  1.
        -13    1    4    4    0    0 -0.34673309545E+02 -0.50076969316E+02  0.45136683774E+02  0.75810694976E+02  0.00000000000E+00 0.  1.
         13    1    4    4    0    0  0.20432816585E+02  0.28409766554E+02 -0.10020317783E+02  0.36400846113E+02  0.00000000000E+00 0. -1.
          4    1    1    2  501    0 -0.17549097303E+02  0.20012041024E+02  0.11602305384E+03  0.11903697587E+03  0.00000000000E+00 0. -1.
<scales pt_clust_5="13000.00000" pt_clust_6="13000.00000" pt_clust_7="13000.00000" pt_clust_8="13000.00000" pt_clust_9="26.61677"></scales>
<clustering>
<clus scale="   26.617">  1  9  2 -1</clus>
<clus scale="   79.977">  5  6 -1 -1</clus>
<clus scale="   85.667">  2  5  1 -1</clus>
<clus scale="  103.373">  7  8 -1 -1</clus>
<clus scale="   26.617">  1  5  2 -1</clus>
</clustering>
</event>
<event>
 9    1  0.6270443E-005  0.3136575E+03  0.7546771E-02  0.1088849E+00
          3   -1    0    0  502    0 -0.00000000000E+00  0.00000000000E+00  0.11345485328E+04  0.11345485328E+04  0.00000000000E+00 0. -1.
         21   -1    0    0  501  502  0.00000000000E+00 -0.00000000000E+00 -0.27742374586E+03  0.27742374586E+03  0.00000000000E+00 0. -1.
         23    2    1    2    0    0  0.63659776237E+02  0.21003098311E+03  0.11124203476E+01  0.23849028417E+03  0.93331651580E+02 0.  0.
        -24    2    1    2    0    0 -0.28773062475E+03  0.85221714350E+02  0.91554697135E+02  0.32390714264E+03  0.80510381117E+02 0.  0.
         11    1    4    4    0    0 -0.10407102894E+03  0.30347835044E+01  0.60206085103E+02  0.12026953754E+03  0.00000000000E+00 0. -1.
        -12    1    4    4    0    0 -0.18365959581E+03  0.82186930846E+02  0.31348612032E+02  0.20363760510E+03  0.00000000000E+00 0.  1.
        -13    1    3    3    0    0  0.45617827312E+02  0.19282411936E+03  0.29919163691E+02  0.20039282306E+03  0.00000000000E+00 0.  1.
         13    1    3    3    0    0  0.18041948925E+02  0.17206863747E+02 -0.28806743343E+02  0.38097461111E+02  0.00000000000E+00 0. -1.
          4    1    1    2  501    0  0.22407084851E+03 -0.29525269746E+03  0.76445766947E+03  0.84957485187E+03  0.00000000000E+00 0. -1.
<scales pt_clust_5="13000.00000" pt_clust_6="13000.00000" pt_clust_7="13000.00000" pt_clust_8="13000.00000" pt_clust_9="303.14884"></scales>
<clustering>
<clus scale="   80.510">  5  6 -1 -1</clus>
<clus scale="   93.332">  7  8 -1 -1</clus>
<clus scale="  238.488">  1  7  2 -1</clus>
<clus scale="  303.149">  2  9  1 -1</clus>
<clus scale="  303.149">  2  5  1 -1</clus>
</clustering>
</event>
<event>
 9    1  0.6270443E-005  0.1617297E+03  0.7546771E-02  0.1189211E+00
         21   -1    0    0  501  502  0.00000000000E+00  0.00000000000E+00  0.72923434509E+02  0.72923434509E+02  0.00000000000E+00 0. -1.
          3   -1    0    0  502    0 -0.00000000000E+00 -0.00000000000E+00 -0.10698411888E+04  0.10698411888E+04  0.00000000000E+00 0. -1.
        -24    2    1    2    0    0  0.11018931269E+03 -0.48443131132E+02 -0.40698134884E+03  0.43144995378E+03  0.77632613828E+02 0.  0.
         23    2    1    2    0    0 -0.14942313560E+03  0.11938545031E+03 -0.14145081741E+03  0.25556097707E+03  0.93396574118E+02 0.  0.
         11    1    3    3    0    0  0.10031290575E+03 -0.57837524202E+02 -0.39941325915E+03  0.41585912260E+03  0.00000000000E+00 0. -1.
        -12    1    3    3    0    0  0.98764069415E+01  0.93943930703E+01 -0.75680896815E+01  0.15590831173E+02  0.00000000000E+00 0.  1.
        -13    1    4    4    0    0 -0.11464201602E+03  0.13273544013E+03 -0.11236377318E+03  0.20829571870E+03  0.00000000000E+00 0. -1.
         13    1    4    4    0    0 -0.34781119575E+02 -0.13349989818E+02 -0.29087044233E+02  0.47265258375E+02  0.00000000000E+00 0.  1.
          4    1    1    2  501    0  0.39233822910E+02 -0.70942319179E+02 -0.44848558801E+03  0.45575369243E+03  0.00000000000E+00 0. -1.
<scales pt_clust_5="13000.00000" pt_clust_6="13000.00000" pt_clust_7="13000.00000" pt_clust_8="13000.00000" pt_clust_9="81.06856"></scales>
<clustering>
<clus scale="   77.633">  5  6 -1 -1</clus>
<clus scale="   81.069">  1  9  2 -1</clus>
<clus scale="   93.397">  7  8 -1 -1</clus>
<clus scale="  153.168">  2  5  1 -1</clus>
<clus scale="   81.069">  1  5  2 -1</clus>
</clustering>
</event>
<event>
 9    1  0.6270443E-005  0.3404237E+03  0.7546771E-02  0.1066932E+00
          1   -1    0    0  502    0 -0.00000000000E+00  0.00000000000E+00  0.75962008082E+03  0.75962008082E+03  0.00000000000E+00 0. -1.
         21   -1    0    0  501  502  0.00000000000E+00 -0.00000000000E+00 -0.17360041189E+03  0.17360041189E+03  0.00000000000E+00 0.  1.
         23    2    1    2    0    0  0.30359848587E+03  0.11564850134E+03  0.37487304769E+03  0.50459418623E+03  0.92406030114E+02 0.  0.
        -24    2    1    2    0    0 -0.31837305663E+03 -0.94911025172E+02  0.21344572559E+03  0.40306037721E+03  0.80802747543E+02 0.  0.
         13    1    4    4    0    0 -0.28514952862E+03 -0.10731583709E+03  0.20292983966E+03  0.36607029705E+03  0.00000000000E+00 0. -1.
        -14    1    4    4    0    0 -0.33223528017E+02  0.12404811920E+02  0.10515885930E+02  0.36990080151E+02  0.00000000000E+00 0.  1.
        -13    1    3    3    0    0  0.23106537912E+03  0.12779540093E+03  0.28646587727E+03  0.38959667962E+03  0.00000000000E+00 0.  1.
         13    1    3    3    0    0  0.72533106757E+02 -0.12146899590E+02  0.88407170423E+02  0.11499750661E+03  0.00000000000E+00 0. -1.
          2    1    1    2  501    0  0.14774570760E+02 -0.20737476169E+02 -0.22991043606E+01  0.25565929278E+02  0.00000000000E+00 0. -1.
<scales pt_clust_5="13000.00000" pt_clust_6="13000.00000" pt_clust_7="13000.00000" pt_clust_8="13000.00000" pt_clust_9="25.46234"></scales>
<clustering>
<clus scale="   25.462">  2  9  1 -1</clus>
<clus scale="   80.803">  5  6 -1 -1</clus>
<clus scale="   92.406">  7  8 -1 -1</clus>
<clus scale="  337.459">  2  5  1 -1</clus>
<clus scale="   25.462">  2  5  1 -1</clus>
</clustering>
</event>
<event>
 9    1  0.6270443E-005  0.2040320E+03  0.7546771E-02  0.1147808E+00
          3   -1    0    0  502    0 -0.00000000000E+00  0.00000000000E+00  0.75330524742E+02  0.75330524742E+02  0.00000000000E+00 0. -1.
         21   -1    0    0  501  502  0.00000000000E+00 -0.00000000000E+00 -0.96842998931E+03  0.96842998931E+03  0.00000000000E+00 0.  1.
        -24    2    1    2    0    0 -0.11370107527E+03  0.14712162323E+03 -0.35512989919E+03  0.40781480225E+03  0.74986406066E+02 0.  0.
         23    2    1    2    0    0  0.12696257605E+03 -0.12479431156E+03 -0.56443705380E+03  0.59886601126E+03  0.91423169001E+02 0.  0.
         11    1    3    3    0    0 -0.47824086735E+02  0.11923409025E+03 -0.24144697501E+03  0.27349689814E+03  0.00000000000E+00 0. -1.
        -12    1    3    3    0    0 -0.65876988537E+02  0.27887532978E+02 -0.11368292418E+03  0.13431790411E+03  0.00000000000E+00 0.  1.
        -13    1    4    4    0    0  0.35625384999E+02 -0.90260314961E+02 -0.21201484072E+03  0.23316600352E+03  0.00000000000E+00 0. -1.
         13    1    4    4    0    0  0.91337191054E+02 -0.34533996601E+02 -0.35242221308E+03  0.36570000774E+03  0.00000000000E+00 0.  1.
          4    1    1    2  501    0 -0.13261500781E+02 -0.22327311669E+02  0.26467488416E+02  0.37079700544E+02  0.00000000000E+00 0. -1.
<scales pt_clust_5="13000.00000" pt_clust_6="13000.00000" pt_clust_7="13000.00000" pt_clust_8="13000.00000" pt_clust_9="25.96877"></scales>
<clustering>
<clus scale="   25.969">  2  9  1 -1</clus>
<clus scale="   74.986">  5  6 -1 -1</clus>
<clus scale="   91.423">  7  8 -1 -1</clus>
<clus scale="  197.215">  1  5  2 -1</clus>
<clus scale="   25.969">  2  5  1 -1</clus>
</clustering>
</event>
<event>
 9    1  0.6270443E-005  0.1795104E+03  0.7546771E-02  0.1186363E+00
          1   -1    0    0  502    0 -0.00000000000E+00  0.00000000000E+00  0.10235344064E+04  0.10235344064E+04  0.00000000000E+00 0. -1.
         21   -1    0    0  501  502  0.00000000000E+00 -0.00000000000E+00 -0.12227525010E+03  0.12227525010E+03  0.00000000000E+00 0.  1.
        -24    2    1    2    0    0 -0.89907560596E+00  0.88346614601E+02  0.40778135632E+03  0.42487915799E+03  0.80191843017E+02 0.  0.
         23    2    1    2    0    0  0.14506882067E+03 -0.63976694742E+02 -0.22383791047E+02  0.18474770367E+03  0.92155844679E+02 0.  0.
         13    1    3    3    0    0 -0.14811512476E+02  0.84858816869E+02  0.21572415333E+03  0.23228712843E+03  0.00000000000E+00 0. -1.
        -14    1    3    3    0    0  0.13912436870E+02  0.34877977316E+01  0.19205720299E+03  0.19259202956E+03  0.00000000000E+00 0.  1.
        -13    1    4    4    0    0  0.11684566449E+03 -0.87599751540E+02 -0.23557096871E+02  0.14792417853E+03  0.00000000000E+00 0.  1.
         13    1    4    4    0    0  0.28223156185E+02  0.23623056799E+02  0.11733058240E+01  0.36823525145E+02  0.00000000000E+00 0. -1.
          2    1    1    2  501    0 -0.14416974507E+03 -0.24369919859E+02  0.51586159104E+03  0.53618279485E+03  0.00000000000E+00 0. -1.
<scales pt_clust_5="13000.00000" pt_clust_6="13000.00000" pt_clust_7="13000.00000" pt_clust_8="13000.00000" pt_clust_9="154.04968"></scales>
<clustering>
<clus scale="   80.192">  5  6 -1 -1</clus>
<clus scale="   92.156">  7  8 -1 -1</clus>
<clus scale="  119.317">  1  5  2 -1</clus>
<clus scale="  154.050">  2  9  1 -1</clus>
<clus scale="  154.050">  2  5  1 -1</clus>
</clustering>
</event>
<event>
 9    1  0.6270443E-005  0.1351735E+03  0.7546771E-02  0.1223778E+00
         21   -1    0    0  501  502  0.00000000000E+00  0.00000000000E+00  0.28792336710E+02  0.28792336710E+02  0.00000000000E+00 0.  1.
          3   -1    0    0  502    0 -0.00000000000E+00 -0.00000000000E+00 -0.11487222861E+04  0.11487222861E+04  0.00000000000E+00 0. -1.
        -24    2    1    2    0    0 -0.71864218643E+02 -0.18044911384E+02 -0.34137450508E+03  0.35767181371E+03  0.76827656839E+02 0.  0.
         23    2    1    2    0    0  0.14716012598E+03  0.15752698509E+02 -0.44846847209E+03  0.48126912859E+03  0.92691712081E+02 0.  0.
         13    1    3    3    0    0 -0.32249769500E+02  0.26936341127E+02 -0.19547342750E+03  0.19993867801E+03  0.00000000000E+00 0. -1.
        -14    1    3    3    0    0 -0.39614449144E+02 -0.44981252511E+02 -0.14590107759E+03  0.15773313570E+03  0.00000000000E+00 0.  1.
        -11    1    4    4    0    0  0.76393422793E+02  0.29020604605E+02 -0.12121614337E+03  0.14618995845E+03  0.00000000000E+00 0.  1.
         11    1    4    4    0    0  0.70766703191E+02 -0.13267906096E+02 -0.32725232872E+03  0.33507917014E+03  0.00000000000E+00 0. -1.
          4    1    1    2  501    0 -0.75295907341E+02  0.22922128747E+01 -0.33008697218E+03  0.33857368046E+03  0.00000000000E+00 0. -1.
<scales pt_clust_5="13000.00000" pt_clust_6="13000.00000" pt_clust_7="13000.00000" pt_clust_8="13000.00000" pt_clust_9="75.33083"></scales>
<clustering>
<clus scale="   75.331">  1  9  2 -1</clus>
<clus scale="   76.828">  5  6 -1 -1</clus>
<clus scale="   92.692">  7  8 -1 -1</clus>
<clus scale="  124.830">  2  5  1 -1</clus>
<clus scale="   75.331">  1  5  2 -1</clus>
</clustering>
</event>
<event>
 9    1  0.6270443E-005  0.9105044E+02  0.7546771E-02  0.1301394E+00
         21   -1    0    0  501  502  0.00000000000E+00  0.00000000000E+00  0.16506699463E+03  0.16506699463E+03  0.00000000000E+00 0. -1.
          1   -1    0    0  502    0 -0.00000000000E+00 -0.00000000000E+00 -0.12169371244E+03  0.12169371244E+03  0.00000000000E+00 0. -1.
        -24    2    1    2    0    0  0.43153583995E+02  0.13677533475E+02 -0.81346426258E+02  0.12285607847E+03  0.80168997869E+02 0.  0.
         23    2    1    2    0    0 -0.24731055760E+02 -0.23467864275E+02  0.10422911307E+03  0.13466245661E+03  0.78153076944E+02 0.  0.
         13    1    3    3    0    0  0.37413705456E+02 -0.17581879638E+02 -0.81150882903E+02  0.91073451914E+02  0.00000000000E+00 0. -1.
        -14    1    3    3    0    0  0.57398785393E+01  0.31259413113E+02 -0.19554335496E+00  0.31782626560E+02  0.00000000000E+00 0.  1.
        -11    1    4    4    0    0  0.10729595347E+02  0.23838404528E+02  0.32448957714E+02  0.41669276493E+02  0.00000000000E+00 0.  1.
         11    1    4    4    0    0 -0.35460651106E+02 -0.47306268803E+02  0.71780155361E+02  0.92993180119E+02  0.00000000000E+00 0. -1.
          2    1    1    2  501    0 -0.18422528236E+02  0.97903308001E+01  0.20490595371E+02  0.29242171986E+02  0.00000000000E+00 0. -1.
<scales pt_clust_5="13000.00000" pt_clust_6="13000.00000" pt_clust_7="13000.00000" pt_clust_8="13000.00000" pt_clust_9="20.86241"></scales>
<clustering>
<clus scale="   20.862">  1  9  2 -1</clus>
<clus scale="   78.153">  7  8 -1 -1</clus>
<clus scale="   80.169">  5  6 -1 -1</clus>
<clus scale="   89.281">  1  7  2 -1</clus>
<clus scale="   20.862">  1  5  2 -1</clus>
</clustering>
</event>
<event>
 9    1  0.6270443E-005  0.2747971E+03  0.7546771E-02  0.1141064E+00
          1   -1    0    0  502    0 -0.00000000000E+00  0.00000000000E+00  0.69434117346E+03  0.69434117346E+03  0.00000000000E+00 0. -1.
         21   -1    0    0  501  502  0.00000000000E+00 -0.00000000000E+00 -0.19424446364E+03  0.19424446364E+03  0.00000000000E+00 0. -1.
        -24    2    1    2    0    0  0.14755721801E+02 -0.46816751685E+02  0.28840795683E+03  0.30360803786E+03  0.81173588840E+02 0.  0.
         23    2    1    2    0    0  0.24111731410E+03 -0.56451348876E+02  0.63740213154E+02  0.27188962193E+03  0.92395009563E+02 0.  0.
         11    1    3    3    0    0 -0.59137253393E+01 -0.65962728264E+02  0.21544426670E+03  0.22539362396E+03  0.00000000000E+00 0. -1.
        -12    1    3    3    0    0  0.20669447141E+02  0.19145976579E+02  0.72963690129E+02  0.78214413898E+02  0.00000000000E+00 0.  1.
        -11    1    4    4    0    0  0.15716232583E+03 -0.48984321879E+02 -0.25803880368E+01  0.16463935998E+03  0.00000000000E+00 0. -1.
         11    1    4    4    0    0  0.83954988274E+02 -0.74670269960E+01  0.66320601191E+02  0.10725026196E+03  0.00000000000E+00 0.  1.
          2    1    1    2  501    0 -0.25587303591E+03  0.10326810056E+03  0.14794853983E+03  0.31308797731E+03  0.00000000000E+00 0. -1.
<scales pt_clust_5="13000.00000" pt_clust_6="13000.00000" pt_clust_7="13000.00000" pt_clust_8="13000.00000" pt_clust_9="258.79855"></scales>
<clustering>
<clus scale="   81.174">  5  6 -1 -1</clus>
<clus scale="   92.395">  7  8 -1 -1</clus>
<clus scale="   94.861">  1  5  2 -1</clus>
<clus scale="  258.799">  2  9  1 -1</clus>
<clus scale="  258.799">  2  5  1 -1</clus>
</clustering>
</event>
<event>
 9    1  0.6270443E-005  0.1463175E+03  0.7546771E-02  0.1208932E+00
          1   -1    0    0  502    0 -0.00000000000E+00  0.00000000000E+00  0.64219840702E+03  0.64219840702E+03  0.00000000000E+00 0. -1.
         21   -1    0    0  501  502  0.00000000000E+00 -0.00000000000E+00 -0.63576814147E+02  0.63576814147E+02  0.00000000000E+00 0. -1.
         23    2    1    2    0    0 -0.68052868231E+02  0.68046430003E+02  0.25858796589E+03  0.29298204175E+03  0.98535431059E+02 0.  0.
        -24    2    1    2    0    0  0.73435037175E+02 -0.11991035504E+03  0.10842093846E+03  0.19485106691E+03  0.80253600832E+02 0.  0.
         11    1    4    4    0    0  0.40001676932E+02 -0.88266639825E+02  0.11268068636E+03  0.14862056029E+03  0.00000000000E+00 0. -1.
        -12    1    4    4    0    0  0.33433360243E+02 -0.31643715218E+02 -0.42597478938E+01  0.46230506617E+02  0.00000000000E+00 0.  1.
        -13    1    3    3    0    0 -0.41595074410E+02  0.79463676213E+02  0.11149740747E+03  0.14309541546E+03  0.00000000000E+00 0. -1.
         13    1    3    3    0    0 -0.26457793821E+02 -0.11417246210E+02  0.14709055842E+03  0.14988662629E+03  0.00000000000E+00 0.  1.
          2    1    1    2  501    0 -0.53821689440E+01  0.51863925039E+02  0.21161268852E+03  0.21794211251E+03  0.00000000000E+00 0. -1.
<scales pt_clust_5="13000.00000" pt_clust_6="13000.00000" pt_clust_7="13000.00000" pt_clust_8="13000.00000" pt_clust_9="52.14247"></scales>
<clustering>
<clus scale="   52.142">  2  9  1 -1</clus>
<clus scale="   80.254">  5  6 -1 -1</clus>
<clus scale="   98.535">  7  8 -1 -1</clus>
<clus scale="  134.686">  2  5  1 -1</clus>
<clus scale="   52.142">  2  5  1 -1</clus>
</clustering>
</event>
<event>
 9    1  0.6270443E-005  0.1543120E+03  0.7546771E-02  0.1196787E+00
          3   -1    0    0  502    0 -0.00000000000E+00  0.00000000000E+00  0.61393236347E+03  0.61393236347E+03  0.00000000000E+00 0. -1.
         21   -1    0    0  501  502  0.00000000000E+00 -0.00000000000E+00 -0.90066200581E+02  0.90066200581E+02  0.00000000000E+00 0.  1.
        -24    2    1    2    0    0 -0.12839775544E+03  0.13536999095E+02  0.39792163784E+03  0.42599780296E+03  0.80394429653E+02 0.  0.
         23    2    1    2    0    0  0.11981694416E+03  0.37596034779E+02  0.15497541755E+03  0.21857845724E+03  0.89384562349E+02 0.  0.
         13    1    3    3    0    0 -0.12773919262E+03  0.91135645732E+01  0.40074429335E+03  0.42070933796E+03  0.00000000000E+00 0. -1.
        -14    1    3    3    0    0 -0.65856281567E+00  0.44234345213E+01 -0.28226555112E+01  0.52884650023E+01  0.00000000000E+00 0.  1.
        -11    1    4    4    0    0  0.62552017636E+02 -0.19702162696E+02  0.10372819056E+03  0.12272109697E+03  0.00000000000E+00 0. -1.
         11    1    4    4    0    0  0.57264926521E+02  0.57298197475E+02  0.51247226992E+02  0.95857360269E+02  0.00000000000E+00 0.  1.
          4    1    1    2  501    0  0.85808112789E+01 -0.51133033873E+02 -0.29030892505E+02  0.59422303850E+02  0.00000000000E+00 0. -1.
<scales pt_clust_5="13000.00000" pt_clust_6="13000.00000" pt_clust_7="13000.00000" pt_clust_8="13000.00000" pt_clust_9="51.84802"></scales>
<clustering>
<clus scale="   51.848">  2  9  1 -1</clus>
<clus scale="   80.394">  5  6 -1 -1</clus>
<clus scale="   89.385">  7  8 -1 -1</clus>
<clus scale="  149.284">  1  5  2 -1</clus>
<clus scale="   51.848">  2  5  1 -1</clus>
</clustering>
</event>
<event>
 9    1  0.6270443E-005  0.1038742E+03  0.7546771E-02  0.1276389E+00
         21   -1    0    0  501  502  0.00000000000E+00  0.00000000000E+00  0.11314999713E+03  0.11314999713E+03  0.00000000000E+00 0. -1.
          1   -1    0    0  502    0 -0.00000000000E+00 -0.00000000000E+00 -0.13617504853E+03  0.13617504853E+03  0.00000000000E+00 0. -1.
         23    2    1    2    0    0  0.55797317385E+02 -0.12657577395E+01 -0.51132724931E+02  0.11795665589E+03  0.90466979275E+02 0.  0.
        -24    2    1    2    0    0 -0.40062049886E+02 -0.27880210311E+02  0.24359013396E+02  0.98034644856E+02  0.81456467456E+02 0.  0.
         13    1    4    4    0    0  0.13729572455E+01 -0.48429684702E+02  0.16085634872E+02  0.51049652508E+02  0.00000000000E+00 0. -1.
        -14    1    4    4    0    0 -0.41435007131E+02  0.20549474391E+02  0.82733785241E+01  0.46984992348E+02  0.00000000000E+00 0.  1.
        -11    1    3    3    0    0  0.70045490579E+02  0.22591101409E+02 -0.20084893986E+02  0.76289786864E+02  0.00000000000E+00 0.  1.
         11    1    3    3    0    0 -0.14248173194E+02 -0.23856859149E+02 -0.31047830945E+02  0.41666869023E+02  0.00000000000E+00 0. -1.
          2    1    1    2  501    0 -0.15735267499E+02  0.29145968051E+02  0.37486601336E+01  0.33333744909E+02  0.00000000000E+00 0. -1.
<scales pt_clust_5="13000.00000" pt_clust_6="13000.00000" pt_clust_7="13000.00000" pt_clust_8="13000.00000" pt_clust_9="33.12229"></scales>
<clustering>
<clus scale="   33.122">  1  9  2 -1</clus>
<clus scale="   81.456">  5  6 -1 -1</clus>
<clus scale="   90.467">  7  8 -1 -1</clus>
<clus scale="   96.129">  1  5  2 -1</clus>
<clus scale="   33.122">  1  5  2 -1</clus>
</clustering>
</event>
<event>
 9    1  0.6270443E-005  0.1062664E+03  0.7546771E-02  0.1275322E+00
         21   -1    0    0  501  502  0.00000000000E+00  0.00000000000E+00  0.56948433577E+02  0.56948433577E+02  0.00000000000E+00 0. -1.
          1   -1    0    0  502    0 -0.00000000000E+00 -0.00000000000E+00 -0.76665485332E+03  0.76665485332E+03  0.00000000000E+00 0. -1.
        -24    2    1    2    0    0  0.48734250589E+02 -0.34494446661E+01 -0.63856504033E+03  0.64550097680E+03  0.80742024234E+02 0.  0.
         23    2    1    2    0    0  0.14612417256E+02  0.47515446522E+01 -0.30651394485E+02  0.10290965971E+03  0.97029841615E+02 0.  0.
         11    1    3    3    0    0  0.43977853362E+02  0.30261538548E+02 -0.26095929867E+03  0.26636360086E+03  0.00000000000E+00 0. -1.
        -12    1    3    3    0    0  0.47563972270E+01 -0.33710983214E+02 -0.37760574166E+03  0.37913737594E+03  0.00000000000E+00 0.  1.
        -11    1    4    4    0    0  0.44884148228E+02  0.16893797910E+02 -0.46364635043E+02  0.66705820980E+02  0.00000000000E+00 0. -1.
         11    1    4    4    0    0 -0.30271730972E+02 -0.12142253258E+02  0.15713240558E+02  0.36203838734E+02  0.00000000000E+00 0.  1.
          2    1    1    2  501    0 -0.63346667845E+02 -0.13020999860E+01 -0.40489984931E+02  0.75192650380E+02  0.00000000000E+00 0. -1.
<scales pt_clust_5="13000.00000" pt_clust_6="13000.00000" pt_clust_7="13000.00000" pt_clust_8="13000.00000" pt_clust_9="63.36005"></scales>
<clustering>
<clus scale="   63.360">  1  9  2 -1</clus>
<clus scale="   80.742">  5  6 -1 -1</clus>
<clus scale="   91.635">  2  5  1 -1</clus>
<clus scale="   97.030">  7  8 -1 -1</clus>
<clus scale="   63.360">  1  5  2 -1</clus>
</clustering>
</event>
<event>
 9    1  0.6270443E-005  0.1247014E+03  0.7546771E-02  0.1238677E+00
          1   -1    0    0  502    0 -0.00000000000E+00  0.00000000000E+00  0.29952317416E+03  0.29952317416E+03  0.00000000000E+00 0. -1.
         21   -1    0    0  501  502  0.00000000000E+00 -0.00000000000E+00 -0.94673884080E+02  0.94673884080E+02  0.00000000000E+00 0.  1.
         23    2    1    2    0    0 -0.69961456681E+02  0.20818217939E+02  0.13579121642E+03  0.17837368092E+03  0.89721301657E+02 0.  0.
        -24    2    1    2    0    0  0.10718634266E+03 -0.63310266607E+02  0.41488573484E+02  0.15296366306E+03  0.78609659556E+02 0.  0.
         11    1    4    4    0    0  0.45947755130E+02 -0.66162264062E+01  0.51008191919E+02  0.68969604147E+02  0.00000000000E+00 0. -1.
        -12    1    4    4    0    0  0.61238587532E+02 -0.56694040201E+02 -0.95196184358E+01  0.83994058911E+02  0.00000000000E+00 0.  1.
        -11    1    3    3    0    0 -0.36358402216E+02 -0.33753450573E+02  0.75780877307E+02  0.90575770506E+02  0.00000000000E+00 0.  1.
         11    1    3    3    0    0 -0.33603054464E+02  0.54571668512E+02  0.60010339109E+02  0.87797910417E+02  0.00000000000E+00 0. -1.
          2    1    1    2  501    0 -0.37224885981E+02  0.42492048668E+02  0.27569500179E+02  0.62859714257E+02  0.00000000000E+00 0. -1.
<scales pt_clust_5="13000.00000" pt_clust_6="13000.00000" pt_clust_7="13000.00000" pt_clust_8="13000.00000" pt_clust_9="56.49129"></scales>
<clustering>
<clus scale="   56.491">  2  9  1 -1</clus>
<clus scale="   78.610">  5  6 -1 -1</clus>
<clus scale="   89.721">  7  8 -1 -1</clus>
<clus scale="  116.962">  2  5  1 -1</clus>
<clus scale="   56.491">  2  5  1 -1</clus>
</clustering>
</event>
<event>
 9    1  0.6270443E-005  0.9717512E+02  0.7546771E-02  0.1296816E+00
          3   -1    0    0  502    0 -0.00000000000E+00  0.00000000000E+00  0.28037359365E+03  0.28037359365E+03  0.00000000000E+00 0. -1.
         21   -1    0    0  501  502  0.00000000000E+00 -0.00000000000E+00 -0.56302518164E+02  0.56302518164E+02  0.00000000000E+00 0. -1.
        -24    2    1    2    0    0  0.43913460739E+01 -0.24234186357E+02  0.53854257906E+02  0.93446256540E+02  0.72286527500E+02 0.  0.
         23    2    1    2    0    0 -0.27351938741E+02  0.44531616728E+02  0.44766353934E+02  0.11409042162E+03  0.91002222058E+02 0.  0.
         11    1    3    3    0    0 -0.21477637989E+02 -0.39540079677E+02  0.40562395072E+02  0.60580646484E+02  0.00000000000E+00 0. -1.
        -12    1    3    3    0    0  0.25868984063E+02  0.15305893320E+02  0.13291862834E+02  0.32865610056E+02  0.00000000000E+00 0.  1.
        -13    1    4    4    0    0 -0.54627519525E+02  0.53247834148E+01  0.35702936055E+02  0.65476857368E+02  0.00000000000E+00 0.  1.
         13    1    4    4    0    0  0.27275580784E+02  0.39206833313E+02  0.90634178789E+01  0.48613564251E+02  0.00000000000E+00 0. -1.
          4    1    1    2  501    0  0.22960592667E+02 -0.20297430371E+02  0.12545046365E+03  0.12913943366E+03  0.00000000000E+00 0. -1.
<scales pt_clust_5="13000.00000" pt_clust_6="13000.00000" pt_clust_7="13000.00000" pt_clust_8="13000.00000" pt_clust_9="30.64597"></scales>
<clustering>
<clus scale="   30.646">  2  9  1 -1</clus>
<clus scale="   72.287">  5  6 -1 -1</clus>
<clus scale="   79.918">  1  5  2 -1</clus>
<clus scale="   91.002">  7  8 -1 -1</clus>
<clus scale="   30.646">  2  5  1 -1</clus>
</clustering>
</event>
<event>
 9    1  0.6270443E-005  0.1147791E+03  0.7546771E-02  0.1256616E+00
         21   -1    0    0  501  502  0.00000000000E+00  0.00000000000E+00  0.55562278226E+03  0.55562278226E+03  0.00000000000E+00 0.  1.
          3   -1    0    0  502    0 -0.00000000000E+00 -0.00000000000E+00 -0.32833045738E+02  0.32833045738E+02  0.00000000000E+00 0. -1.
        -24    2    1    2    0    0 -0.67297241133E+02  0.39260611563E+02  0.17890017729E+03  0.21091726981E+03  0.80065641739E+02 0.  0.
         23    2    1    2    0    0  0.57976414186E+02  0.24853350114E+01  0.27991536185E+03  0.30058207827E+03  0.92895287738E+02 0.  0.
         11    1    3    3    0    0 -0.65078857622E+02  0.13026142211E+02  0.17100176360E+03  0.18342993552E+03  0.00000000000E+00 0. -1.
        -12    1    3    3    0    0 -0.22183835104E+01  0.26234469353E+02  0.78984136836E+01  0.27487334289E+02  0.00000000000E+00 0.  1.
        -11    1    4    4    0    0  0.28368585352E+02  0.45375703379E+02  0.18142125886E+03  0.18914915875E+03  0.00000000000E+00 0.  1.
         11    1    4    4    0    0  0.29607828834E+02 -0.42890368368E+02  0.98494102996E+02  0.11143291952E+03  0.00000000000E+00 0. -1.
          4    1    1    2  501    0  0.93208269465E+01 -0.41745946575E+02  0.63974197382E+02  0.76956479916E+02  0.00000000000E+00 0. -1.
<scales pt_clust_5="13000.00000" pt_clust_6="13000.00000" pt_clust_7="13000.00000" pt_clust_8="13000.00000" pt_clust_9="42.77387"></scales>
<clustering>
<clus scale="   42.774">  1  9  2 -1</clus>
<clus scale="   80.066">  5  6 -1 -1</clus>
<clus scale="   92.895">  7  8 -1 -1</clus>
<clus scale="  104.667">  2  5  1 -1</clus>
<clus scale="   42.774">  1  5  2 -1</clus>
</clustering>
</event>
<event>
 9    1  0.6270443E-005  0.1483526E+03  0.7546771E-02  0.1203542E+00
          1   -1    0    0  502    0 -0.00000000000E+00  0.00000000000E+00  0.24278284644E+02  0.24278284644E+02  0.00000000000E+00 0. -1.
         21   -1    0    0  501  502  0.00000000000E+00 -0.00000000000E+00 -0.12661492344E+04  0.12661492344E+04  0.00000000000E+00 0.  1.
         23    2    1    2    0    0 -0.61624470029E+02  0.11224219560E+03 -0.38036012958E+03  0.41170156911E+03  0.91806688534E+02 0.  0.
        -24    2    1    2    0    0  0.68990901497E+02 -0.71603681007E+02 -0.66374345152E+03  0.67669207830E+03  0.86428975311E+02 0.  0.
         11    1    4    4    0    0  0.28282048919E+02 -0.66923173402E+02 -0.23449900841E+03  0.24549617181E+03  0.00000000000E+00 0. -1.
        -12    1    4    4    0    0  0.40708852579E+02 -0.46805076056E+01 -0.42924444311E+03  0.43119590649E+03  0.00000000000E+00 0.  1.
        -11    1    3    3    0    0  0.17207310619E+02  0.59498472561E+02 -0.17054675403E+03  0.18144518480E+03  0.00000000000E+00 0.  1.
         11    1    3    3    0    0 -0.78831780648E+02  0.52743723035E+02 -0.20981337554E+03  0.23025638431E+03  0.00000000000E+00 0. -1.
          2    1    1    2  501    0 -0.73664314678E+01 -0.40638514588E+02 -0.19776736869E+03  0.20203387166E+03  0.00000000000E+00 0. -1.
<scales pt_clust_5="13000.00000" pt_clust_6="13000.00000" pt_clust_7="13000.00000" pt_clust_8="13000.00000" pt_clust_9="41.30076"></scales>
<clustering>
<clus scale="   41.301">  2  9  1 -1</clus>
<clus scale="   86.429">  5  6 -1 -1</clus>
<clus scale="   91.807">  7  8 -1 -1</clus>
<clus scale="  145.086">  2  5  1 -1</clus>
<clus scale="   41.301">  2  5  1 -1</clus>
</clustering>
</event>
<event>
 9    1  0.6270443E-005  0.2525324E+03  0.7546771E-02  0.1154808E+00
         21   -1    0    0  501  502  0.00000000000E+00  0.00000000000E+00  0.37575153472E+03  0.37575153472E+03  0.00000000000E+00 0.  1.
         -4   -1    0    0    0  501 -0.00000000000E+00 -0.00000000000E+00 -0.24301577030E+03  0.24301577030E+03  0.00000000000E+00 0.  1.
        -24    2    1    2    0    0  0.34769216882E+02 -0.63756570369E+01  0.14071836855E+02  0.89264673220E+02  0.80750342708E+02 0.  0.
         23    2    1    2    0    0  0.22290264000E+03 -0.89995666431E+00  0.12530306500E+03  0.27164259509E+03  0.91664848921E+02 0.  0.
         11    1    3    3    0    0  0.31126965709E+02  0.29764709032E+02 -0.11817014594E+02  0.44659464080E+02  0.00000000000E+00 0. -1.
        -12    1    3    3    0    0  0.36422511728E+01 -0.36140366068E+02  0.25888851449E+02  0.44605209141E+02  0.00000000000E+00 0.  1.
        -13    1    4    4    0    0  0.11748383748E+03  0.38497578689E+02  0.92545758787E+02  0.15443196918E+03  0.00000000000E+00 0. -1.
         13    1    4    4    0    0  0.10541880252E+03 -0.39397535354E+02  0.32757306210E+02  0.11721062591E+03  0.00000000000E+00 0.  1.
         -3    1    1    2    0  502 -0.25767185688E+03  0.72756137012E+01 -0.66391374346E+01  0.25786003671E+03  0.00000000000E+00 0.  1.
<scales pt_clust_5="13000.00000" pt_clust_6="13000.00000" pt_clust_7="13000.00000" pt_clust_8="13000.00000" pt_clust_9="235.30882"></scales>
<clustering>
<clus scale="   80.750">  5  6 -1 -1</clus>
<clus scale="   88.149">  2  5  1 -1</clus>
<clus scale="   91.665">  7  8 -1 -1</clus>
<clus scale="  235.309">  1  9  2 -1</clus>
<clus scale="  235.309">  1  5  2 -1</clus>
</clustering>
</event>
<event>
 9    1  0.6270443E-005  0.2419673E+03  0.7546771E-02  0.1119680E+00
          1   -1    0    0  502    0 -0.00000000000E+00  0.00000000000E+00  0.44926839934E+03  0.44926839934E+03  0.00000000000E+00 0. -1.
         21   -1    0    0  501  502  0.00000000000E+00 -0.00000000000E+00 -0.17392429710E+03  0.17392429710E+03  0.00000000000E+00 0.  1.
        -24    2    1    2    0    0 -0.17708233052E+03  0.13350534071E+03  0.21597730182E+03  0.31747987658E+03  0.70465944646E+02 0.  0.
         23    2    1    2    0    0  0.16630482317E+03 -0.15958419672E+03  0.91661438716E+01  0.24812491041E+03  0.91419598125E+02 0.  0.
         13    1    3    3    0    0 -0.14344653951E+03  0.11861446782E+03  0.13947405818E+03  0.23259259356E+03  0.00000000000E+00 0. -1.
        -14    1    3    3    0    0 -0.33635791015E+02  0.14890872889E+02  0.76503243638E+02  0.84887283027E+02  0.00000000000E+00 0.  1.
        -11    1    4    4    0    0  0.56524797646E+02 -0.13803509357E+02  0.28168014042E+02  0.64645391441E+02  0.00000000000E+00 0. -1.
         11    1    4    4    0    0  0.10978002552E+03 -0.14578068736E+03 -0.19001870170E+02  0.18347951897E+03  0.00000000000E+00 0.  1.
          2    1    1    2  501    0  0.10777507355E+02  0.26078856012E+02  0.50200656554E+02  0.57587909444E+02  0.00000000000E+00 0. -1.
<scales pt_clust_5="13000.00000" pt_clust_6="13000.00000" pt_clust_7="13000.00000" pt_clust_8="13000.00000" pt_clust_9="28.21812"></scales>
<clustering>
<clus scale="   28.218">  2  9  1 -1</clus>
<clus scale="   70.466">  5  6 -1 -1</clus>
<clus scale="   91.420">  7  8 -1 -1</clus>
<clus scale="  234.853">  1  5  2 -1</clus>
<clus scale="   28.218">  2  5  1 -1</clus>
</clustering>
</event>
<event>
 9    1  0.6270443E-005  0.1043542E+03  0.7546771E-02  0.1274938E+00
          1   -1    0    0  502    0 -0.00000000000E+00  0.00000000000E+00  0.53161362393E+03  0.53161362393E+03  0.00000000000E+00 0. -1.
         21   -1    0    0  501  502  0.00000000000E+00 -0.00000000000E+00 -0.13438625698E+03  0.13438625698E+03  0.00000000000E+00 0.  1.
        -24    2    1    2    0    0 -0.47788449985E+02  0.23079240489E+02  0.46329973008E+03  0.47364130991E+03  0.82903939956E+02 0.  0.
         23    2    1    2    0    0 -0.38993800231E+01 -0.35507423135E+02 -0.91147106336E+02  0.13358073300E+03  0.90884734538E+02 0.  0.
         11    1    3    3    0    0 -0.40949763140E+02  0.52900348861E+02  0.34664366325E+03  0.35303988342E+03  0.00000000000E+00 0. -1.
        -12    1    3    3    0    0 -0.68386868446E+01 -0.29821108372E+02  0.11665606683E+03  0.12060142649E+03  0.00000000000E+00 0.  1.
        -13    1    4    4    0    0  0.15059196344E+02 -0.53889017660E+02 -0.91406820555E+02  0.10717281588E+03  0.00000000000E+00 0.  1.
         13    1    4    4    0    0 -0.18958576367E+02  0.18381594524E+02  0.25971421855E+00  0.26407917120E+02  0.00000000000E+00 0. -1.
          2    1    1    2  501    0  0.51687830008E+02  0.12428182646E+02  0.25074743204E+02  0.58777838014E+02  0.00000000000E+00 0. -1.
<scales pt_clust_5="13000.00000" pt_clust_6="13000.00000" pt_clust_7="13000.00000" pt_clust_8="13000.00000" pt_clust_9="53.16100"></scales>
<clustering>
<clus scale="   53.161">  2  9  1 -1</clus>
<clus scale="   82.904">  5  6 -1 -1</clus>
<clus scale="   90.885">  7  8 -1 -1</clus>
<clus scale="   97.482">  1  5  2 -1</clus>
<clus scale="   53.161">  2  5  1 -1</clus>
</clustering>
</event>
<event>
 9    1  0.6270443E-005  0.1022755E+03  0.7546771E-02  0.1275920E+00
          1   -1    0    0  502    0 -0.00000000000E+00  0.00000000000E+00  0.20247748396E+03  0.20247748396E+03  0.00000000000E+00 0. -1.
         21   -1    0    0  501  502  0.00000000000E+00 -0.00000000000E+00 -0.10882588428E+03  0.10882588428E+03  0.00000000000E+00 0.  1.
         23    2    1    2    0    0  0.18797071071E+02  0.64957315767E+02  0.10179101721E+03  0.14778949376E+03  0.83111614889E+02 0.  0.
        -24    2    1    2    0    0 -0.63406708501E+01 -0.31254529332E+02 -0.55352650556E+02  0.10418319866E+03  0.82299290692E+02 0.  0.
         13    1    4    4    0    0  0.22859289686E+02 -0.35412522849E+02 -0.78782777649E+00  0.42157022809E+02  0.00000000000E+00 0. -1.
        -14    1    4    4    0    0 -0.29199960536E+02  0.41579935179E+01 -0.54564822779E+02  0.62026175848E+02  0.00000000000E+00 0.  1.
        -11    1    3    3    0    0 -0.22104773513E+02  0.25009510544E+02  0.28271430132E+01  0.33497602411E+02  0.00000000000E+00 0.  1.
         11    1    3    3    0    0  0.40901844584E+02  0.39947805223E+02  0.98963874200E+02  0.11429189135E+03  0.00000000000E+00 0. -1.
          2    1    1    2  501    0 -0.12456400221E+02 -0.33702786435E+02  0.47213233030E+02  0.59330675819E+02  0.00000000000E+00 0. -1.
<scales pt_clust_5="13000.00000" pt_clust_6="13000.00000" pt_clust_7="13000.00000" pt_clust_8="13000.00000" pt_clust_9="35.93106"></scales>
<clustering>
<clus scale="   35.931">  2  9  1 -1</clus>
<clus scale="   82.299">  5  6 -1 -1</clus>
<clus scale="   83.112">  7  8 -1 -1</clus>
<clus scale="  101.617">  2  5  1 -1</clus>
<clus scale="   35.931">  2  5  1 -1</clus>
</clustering>
</event>
<event>
 9    1  0.6270443E-005  0.9649677E+02  0.7546771E-02  0.1293742E+00
         21   -1    0    0  501  502  0.00000000000E+00  0.00000000000E+00  0.96817413579E+02  0.96817413579E+02  0.00000000000E+00 0. -1.
          1   -1    0    0  502    0 -0.00000000000E+00 -0.00000000000E+00 -0.35803244035E+03  0.35803244035E+03  0.00000000000E+00 0. -1.
         23    2    1    2    0    0  0.19871261615E+02  0.27241682591E+02 -0.27829816130E+03  0.29487273442E+03  0.91449913135E+02 0.  0.
        -24    2    1    2    0    0  0.41002564372E+02 -0.36213300208E+02  0.11248222896E+02  0.98169686244E+02  0.80735069095E+02 0.  0.
         13    1    4    4    0    0  0.35541922105E+02 -0.44663986770E+02 -0.23698153723E+02  0.61803741238E+02  0.00000000000E+00 0. -1.
        -14    1    4    4    0    0  0.54606422671E+01  0.84506865618E+01  0.34946376620E+02  0.36365945006E+02  0.00000000000E+00 0.  1.
        -11    1    3    3    0    0  0.43929019208E+01  0.58234284696E+02 -0.21412394676E+03  0.22194502490E+03  0.00000000000E+00 0. -1.
         11    1    3    3    0    0  0.15478359694E+02 -0.30992602105E+02 -0.64174214540E+02  0.72927709520E+02  0.00000000000E+00 0.  1.
          2    1    1    2  501    0 -0.60873825987E+02  0.89716176168E+01  0.58349116337E+01  0.61807433264E+02  0.00000000000E+00 0. -1.
<scales pt_clust_5="13000.00000" pt_clust_6="13000.00000" pt_clust_7="13000.00000" pt_clust_8="13000.00000" pt_clust_9="61.53140"></scales>
<clustering>
<clus scale="   61.531">  1  9  2 -1</clus>
<clus scale="   80.735">  5  6 -1 -1</clus>
<clus scale="   86.410">  1  5  2 -1</clus>
<clus scale="   91.450">  7  8 -1 -1</clus>
<clus scale="   61.531">  1  5  2 -1</clus>
</clustering>
</event>
<event>
 9    1  0.6270443E-005  0.9018831E+02  0.7546771E-02  0.1309508E+00
         21   -1    0    0  501  502  0.00000000000E+00  0.00000000000E+00  0.53333596959E+02  0.53333596959E+02  0.00000000000E+00 0.  1.
          1   -1    0    0  502    0 -0.00000000000E+00 -0.00000000000E+00 -0.56208270340E+03  0.56208270340E+03  0.00000000000E+00 0. -1.
        -24    2    1    2    0    0  0.33865656531E+01  0.82829468658E+01 -0.15892583013E+03  0.17761279772E+03  0.78796004958E+02 0.  0.
         23    2    1    2    0    0 -0.27558273728E+02  0.45704848370E+02 -0.24734268065E+02  0.10737678339E+03  0.89830941106E+02 0.  0.
         11    1    3    3    0    0  0.26589526230E+02 -0.26157476338E+02 -0.65548305490E+02  0.75417483557E+02  0.00000000000E+00 0. -1.
        -12    1    3    3    0    0 -0.23202960576E+02  0.34440423203E+02 -0.93377524637E+02  0.10219531416E+03  0.00000000000E+00 0.  1.
        -11    1    4    4    0    0 -0.30215675287E+02 -0.13779604054E+02  0.14322836933E+02  0.36166395711E+02  0.00000000000E+00 0.  1.
         11    1    4    4    0    0  0.26574015589E+01  0.59484452424E+02 -0.39057104998E+02  0.71210387684E+02  0.00000000000E+00 0. -1.
          2    1    1    2  501    0  0.24171708074E+02 -0.53987795236E+02 -0.32508900825E+03  0.33042671924E+03  0.00000000000E+00 0. -1.
<scales pt_clust_5="13000.00000" pt_clust_6="13000.00000" pt_clust_7="13000.00000" pt_clust_8="13000.00000" pt_clust_9="59.15198"></scales>
<clustering>
<clus scale="   59.152">  1  9  2 -1</clus>
<clus scale="   78.796">  5  6 -1 -1</clus>
<clus scale="   79.203">  2  5  1 -1</clus>
<clus scale="   89.831">  7  8 -1 -1</clus>
<clus scale="   59.152">  1  5  2 -1</clus>
</clustering>
</event>
<event>
 9    1  0.2516640E-004  0.1187951E+03  0.7546771E-02  0.1253834E+00
         21   -1    0    0  501  502  0.00000000000E+00  0.00000000000E+00  0.46615232683E+03  0.46615232683E+03  0.00000000000E+00 0. -1.
         -2   -1    0    0    0  501 -0.00000000000E+00 -0.00000000000E+00 -0.21409111247E+03  0.21409111247E+03  0.00000000000E+00 0.  1.
        -24    2    1    2    0    0  0.22984094792E+02 -0.58289545728E+02 -0.18985202356E+03  0.21452198994E+03  0.77781447417E+02 0.  0.
         23    2    1    2    0    0 -0.43275355917E+02  0.42901894622E+02  0.39613101786E+03  0.41333321825E+03  0.10105066556E+03 0.  0.
         11    1    3    3    0    0 -0.19308871823E+02 -0.22461841850E+02 -0.19709733493E+02  0.35578651812E+02  0.00000000000E+00 0. -1.
        -12    1    3    3    0    0  0.42292966615E+02 -0.35827703878E+02 -0.17014229007E+03  0.17894333813E+03  0.00000000000E+00 0.  1.
        -11    1    4    4    0    0  0.15743508376E+02  0.49328846965E+02  0.11680300126E+03  0.12776593561E+03  0.00000000000E+00 0.  1.
         11    1    4    4    0    0 -0.59018864294E+02 -0.64269523435E+01  0.27932801660E+03  0.28556728264E+03  0.00000000000E+00 0. -1.
         -1    1    1    2    0  502  0.20291261125E+02  0.15387651106E+02  0.45782220063E+02  0.52388231107E+02  0.00000000000E+00 0.  1.
<scales pt_clust_5="13000.00000" pt_clust_6="13000.00000" pt_clust_7="13000.00000" pt_clust_8="13000.00000" pt_clust_9="25.46596"></scales>
<clustering>
<clus scale="   25.466">  1  9  2 -1</clus>
<clus scale="   77.781">  5  6 -1 -1</clus>
<clus scale="   99.755">  2  5  1 -1</clus>
<clus scale="  101.051">  7  8 -1 -1</clus>
<clus scale="   25.466">  1  5  2 -1</clus>
</clustering>
</event>
<event>
 9    1  0.6270443E-005  0.1894028E+03  0.7546771E-02  0.1160205E+00
         21   -1    0    0  501  502  0.00000000000E+00  0.00000000000E+00  0.10338977668E+04  0.10338977668E+04  0.00000000000E+00 0.  1.
          1   -1    0    0  502    0 -0.00000000000E+00 -0.00000000000E+00 -0.63971369987E+02  0.63971369987E+02  0.00000000000E+00 0. -1.
        -24    2    1    2    0    0 -0.12527565253E+03  0.10656317291E+03  0.18050567984E+03  0.25701969722E+03  0.80169354292E+02 0.  0.
         23    2    1    2    0    0  0.16261222530E+03 -0.63246950222E+02  0.38590355225E+03  0.43330015783E+03  0.91567257306E+02 0.  0.
         13    1    3    3    0    0  0.38947792388E+01  0.31964424616E+02  0.20015623719E+02  0.37914626983E+02  0.00000000000E+00 0. -1.
        -14    1    3    3    0    0 -0.12917043177E+03  0.74598748294E+02  0.16049005612E+03  0.21910507024E+03  0.00000000000E+00 0.  1.
        -13    1    4    4    0    0  0.85391547697E+02  0.62090786503E+01  0.11655998692E+03  0.14462537684E+03  0.00000000000E+00 0.  1.
         13    1    4    4    0    0  0.77220677600E+02 -0.69456028872E+02  0.26934356533E+03  0.28867478099E+03  0.00000000000E+00 0. -1.
          2    1    1    2  501    0 -0.37336572762E+02 -0.43316222689E+02  0.40351716476E+03  0.40754928177E+03  0.00000000000E+00 0. -1.
<scales pt_clust_5="13000.00000" pt_clust_6="13000.00000" pt_clust_7="13000.00000" pt_clust_8="13000.00000" pt_clust_9="57.18667"></scales>
<clustering>
<clus scale="   57.187">  1  9  2 -1</clus>
<clus scale="   80.169">  5  6 -1 -1</clus>
<clus scale="   91.567">  7  8 -1 -1</clus>
<clus scale="  184.163">  2  5  1 -1</clus>
<clus scale="   57.187">  1  5  2 -1</clus>
</clustering>
</event>
<event>
 9    1  0.6270443E-005  0.2166257E+03  0.7546771E-02  0.1136424E+00
         21   -1    0    0  501  502  0.00000000000E+00  0.00000000000E+00  0.56033432377E+02  0.56033432377E+02  0.00000000000E+00 0. -1.
          1   -1    0    0  502    0 -0.00000000000E+00 -0.00000000000E+00 -0.52132754611E+03  0.52132754611E+03  0.00000000000E+00 0. -1.
        -24    2    1    2    0    0 -0.78369763581E+02  0.19062371099E+02 -0.17813459253E+03  0.21141016541E+03  0.80356276332E+02 0.  0.
         23    2    1    2    0    0 -0.21603647494E+02  0.38978364295E+02 -0.18624882895E+03  0.21250252310E+03  0.92101387447E+02 0.  0.
         11    1    3    3    0    0 -0.27987411667E+02 -0.27241676585E+02 -0.33699601228E+02  0.51585533611E+02  0.00000000000E+00 0. -1.
        -12    1    3    3    0    0 -0.50382351914E+02  0.46304047684E+02 -0.14443499131E+03  0.15982463180E+03  0.00000000000E+00 0.  1.
        -11    1    4    4    0    0  0.64087971207E+01 -0.22609101886E+02 -0.10084024805E+03  0.10354226091E+03  0.00000000000E+00 0.  1.
         11    1    4    4    0    0 -0.28012444615E+02  0.61587466181E+02 -0.85408580908E+02  0.10896026219E+03  0.00000000000E+00 0. -1.
          2    1    1    2  501    0  0.99973411075E+02 -0.58040735393E+02 -0.10091069225E+03  0.15344828998E+03  0.00000000000E+00 0. -1.
<scales pt_clust_5="13000.00000" pt_clust_6="13000.00000" pt_clust_7="13000.00000" pt_clust_8="13000.00000" pt_clust_9="115.60022"></scales>
<clustering>
<clus scale="   80.356">  5  6 -1 -1</clus>
<clus scale="   92.101">  7  8 -1 -1</clus>
<clus scale="  100.261">  5  7 -1 -1</clus>
<clus scale="  115.600">  1  9  2 -1</clus>
<clus scale="  115.600">  1  5  2 -1</clus>
</clustering>
</event>
<event>
 9    1  0.6270443E-005  0.1463336E+03  0.7546771E-02  0.1207312E+00
         21   -1    0    0  501  502  0.00000000000E+00  0.00000000000E+00  0.50535772853E+03  0.50535772853E+03  0.00000000000E+00 0. -1.
          1   -1    0    0  502    0 -0.00000000000E+00 -0.00000000000E+00 -0.17852105882E+03  0.17852105882E+03  0.00000000000E+00 0. -1.
         23    2    1    2    0    0  0.12041105959E+03 -0.13452164035E+02 -0.12824126153E+03  0.19849420456E+03  0.90963421742E+02 0.  0.
        -24    2    1    2    0    0 -0.70379095883E+02  0.16865381731E+02  0.21736155982E+03  0.24243619180E+03  0.79319614024E+02 0.  0.
         11    1    4    4    0    0 -0.40407176107E+01  0.32481185256E+02  0.35812559883E+02  0.48516947965E+02  0.00000000000E+00 0. -1.
        -12    1    4    4    0    0 -0.66338378272E+02 -0.15615803525E+02  0.18154899994E+03  0.19391924384E+03  0.00000000000E+00 0.  1.
        -11    1    3    3    0    0  0.30168646372E+02 -0.34177146005E+02 -0.72836627804E+01  0.46165747871E+02  0.00000000000E+00 0.  1.
         11    1    3    3    0    0  0.90242413219E+02  0.20724981970E+02 -0.12095759875E+03  0.15232845669E+03  0.00000000000E+00 0. -1.
          2    1    1    2  501    0 -0.50031963708E+02 -0.34132176958E+01  0.23771637142E+03  0.24294839100E+03  0.00000000000E+00 0. -1.
<scales pt_clust_5="13000.00000" pt_clust_6="13000.00000" pt_clust_7="13000.00000" pt_clust_8="13000.00000" pt_clust_9="50.14825"></scales>
<clustering>
<clus scale="   50.148">  1  9  2 -1</clus>
<clus scale="   79.320">  5  6 -1 -1</clus>
<clus scale="   90.963">  7  8 -1 -1</clus>
<clus scale="  139.394">  1  5  2 -1</clus>
<clus scale="   50.148">  1  5  2 -1</clus>
</clustering>
</event>
<event>
 9    1  0.6270443E-005  0.1599366E+03  0.7546771E-02  0.1214727E+00
         21   -1    0    0  501  502  0.00000000000E+00  0.00000000000E+00  0.64655148000E+03  0.64655148000E+03  0.00000000000E+00 0.  1.
         -2   -1    0    0    0  501 -0.00000000000E+00 -0.00000000000E+00 -0.29716175800E+03  0.29716175800E+03  0.00000000000E+00 0.  1.
         23    2    1    2    0    0  0.10049578654E+02  0.13523439931E+02 -0.25027237969E+03  0.26635644045E+03  0.89585779417E+02 0.  0.
        -24    2    1    2    0    0  0.13010160766E+03 -0.17298568745E+02  0.19403674997E+03  0.24818488262E+03  0.81974427860E+02 0.  0.
         11    1    4    4    0    0  0.72662977812E+02 -0.48309933268E+02  0.13129238141E+03  0.15764341855E+03  0.00000000000E+00 0. -1.
        -12    1    4    4    0    0  0.57438629846E+02  0.31011364523E+02  0.62744368562E+02  0.90541464062E+02  0.00000000000E+00 0.  1.
        -11    1    3    3    0    0  0.37686694986E+02  0.32286144297E+02 -0.19950927803E+03  0.20558850677E+03  0.00000000000E+00 0.  1.
         11    1    3    3    0    0 -0.27637116332E+02 -0.18762704366E+02 -0.50763101656E+02  0.60767933682E+02  0.00000000000E+00 0. -1.
         -1    1    1    2    0  502 -0.14015118631E+03  0.37751288139E+01  0.40562535172E+03  0.42917191494E+03  0.00000000000E+00 0.  1.
<scales pt_clust_5="13000.00000" pt_clust_6="13000.00000" pt_clust_7="13000.00000" pt_clust_8="13000.00000" pt_clust_9="137.33140"></scales>
<clustering>
<clus scale="   81.974">  5  6 -1 -1</clus>
<clus scale="   89.586">  7  8 -1 -1</clus>
<clus scale="   91.156">  2  7  1 -1</clus>
<clus scale="  137.331">  1  9  2 -1</clus>
<clus scale="  137.331">  1  5  2 -1</clus>
</clustering>
</event>
<event>
 9    1  0.6270443E-005  0.1352631E+03  0.7546771E-02  0.1220867E+00
          1   -1    0    0  502    0 -0.00000000000E+00  0.00000000000E+00  0.37136321978E+03  0.37136321978E+03  0.00000000000E+00 0. -1.
         21   -1    0    0  501  502  0.00000000000E+00 -0.00000000000E+00 -0.32300603902E+03  0.32300603902E+03  0.00000000000E+00 0. -1.
         23    2    1    2    0    0  0.27130026978E+02 -0.10736894066E+03  0.31341498271E+03  0.34298597096E+03  0.84535774096E+02 0.  0.
        -24    2    1    2    0    0 -0.22560587283E+02  0.76130438594E+02 -0.33249656561E+02  0.11743513106E+03  0.79878949459E+02 0.  0.
         13    1    4    4    0    0 -0.41218065635E+02  0.10673415416E+02 -0.22304414582E+01  0.42635966043E+02  0.00000000000E+00 0. -1.
        -14    1    4    4    0    0  0.18657478351E+02  0.65457023177E+02 -0.31019215103E+02  0.74799165017E+02  0.00000000000E+00 0.  1.
        -11    1    3    3    0    0 -0.10321989944E+02 -0.82564731373E+02  0.26106626110E+03  0.27400560401E+03  0.00000000000E+00 0. -1.
         11    1    3    3    0    0  0.37452016922E+02 -0.24804209291E+02  0.52348721614E+02  0.68980366951E+02  0.00000000000E+00 0.  1.
          2    1    1    2  501    0 -0.45694396948E+01  0.31238502070E+02 -0.23180814539E+03  0.23394815678E+03  0.00000000000E+00 0. -1.
<scales pt_clust_5="13000.00000" pt_clust_6="13000.00000" pt_clust_7="13000.00000" pt_clust_8="13000.00000" pt_clust_9="31.57093"></scales>
<clustering>
<clus scale="   31.571">  2  9  1 -1</clus>
<clus scale="   79.879">  5  6 -1 -1</clus>
<clus scale="   84.536">  7  8 -1 -1</clus>
<clus scale="  132.403">  2  5  1 -1</clus>
<clus scale="   31.571">  2  5  1 -1</clus>
</clustering>
</event>
<event>
 9    1  0.6270443E-005  0.1214622E+03  0.7546771E-02  0.1245325E+00
         21   -1    0    0  501  502  0.00000000000E+00  0.00000000000E+00  0.32782981804E+03  0.32782981804E+03  0.00000000000E+00 0.  1.
         -2   -1    0    0    0  501 -0.00000000000E+00 -0.00000000000E+00 -0.18414558257E+03  0.18414558257E+03  0.00000000000E+00 0.  1.
        -24    2    1    2    0    0  0.74001331739E+02  0.20284308260E+02 -0.12147135083E+03  0.16227839361E+03  0.75440955056E+02 0.  0.
         23    2    1    2    0    0 -0.10902220739E+03 -0.33645540926E+01  0.84822388491E+02  0.16521719226E+03  0.90579915549E+02 0.  0.
         13    1    3    3    0    0  0.38758633391E+02  0.17650498048E+02 -0.78734933698E+01  0.43310087064E+02  0.00000000000E+00 0. -1.
        -14    1    3    3    0    0  0.35242698348E+02  0.26338102122E+01 -0.11359785746E+03  0.11896830655E+03  0.00000000000E+00 0.  1.
        -13    1    4    4    0    0 -0.93239579311E+02  0.29495430234E+02  0.35830346321E+02  0.10415091585E+03  0.00000000000E+00 0.  1.
         13    1    4    4    0    0 -0.15782628083E+02 -0.32859984326E+02  0.48992042170E+02  0.61066276415E+02  0.00000000000E+00 0. -1.
         -1    1    1    2    0  502  0.35020875655E+02 -0.16919754168E+02  0.18033319781E+03  0.18447981473E+03  0.00000000000E+00 0.  1.
<scales pt_clust_5="13000.00000" pt_clust_6="13000.00000" pt_clust_7="13000.00000" pt_clust_8="13000.00000" pt_clust_9="38.89396"></scales>
<clustering>
<clus scale="   38.894">  1  9  2 -1</clus>
<clus scale="   75.441">  5  6 -1 -1</clus>
<clus scale="   90.580">  7  8 -1 -1</clus>
<clus scale="  110.633">  2  5  1 -1</clus>
<clus scale="   38.894">  1  5  2 -1</clus>
</clustering>
</event>
<event>
 9    1  0.6270443E-005  0.2037313E+03  0.7546771E-02  0.1146629E+00
          1   -1    0    0  502    0 -0.00000000000E+00  0.00000000000E+00  0.38510737049E+03  0.38510737049E+03  0.00000000000E+00 0. -1.
         21   -1    0    0  501  502  0.00000000000E+00 -0.00000000000E+00 -0.67621131376E+02  0.67621131376E+02  0.00000000000E+00 0. -1.
        -24    2    1    2    0    0 -0.39210877725E+02  0.54801177158E+02  0.17001758102E+03  0.20162040045E+03  0.84877241195E+02 0.  0.
         23    2    1    2    0    0 -0.16031208982E+02  0.19381826781E+02  0.12330177178E+03  0.15551079700E+03  0.91365344571E+02 0.  0.
         11    1    3    3    0    0 -0.28045401757E+02  0.24923224820E+02  0.10522257104E+02  0.38967032088E+02  0.00000000000E+00 0. -1.
        -12    1    3    3    0    0 -0.11165475968E+02  0.29877952338E+02  0.15949532391E+03  0.16265336836E+03  0.00000000000E+00 0.  1.
        -13    1    4    4    0    0  0.36911189469E+01  0.41629949533E+02  0.11816617633E+03  0.12533922884E+03  0.00000000000E+00 0. -1.
         13    1    4    4    0    0 -0.19722327929E+02 -0.22248122751E+02  0.51355954540E+01  0.30171568165E+02  0.00000000000E+00 0.  1.
          2    1    1    2  501    0  0.55242086707E+02 -0.74183003939E+02  0.24166886314E+02  0.95597304415E+02  0.00000000000E+00 0. -1.
<scales pt_clust_5="13000.00000" pt_clust_6="13000.00000" pt_clust_7="13000.00000" pt_clust_8="13000.00000" pt_clust_9="92.49220"></scales>
<clustering>
<clus scale="   84.877">  5  6 -1 -1</clus>
<clus scale="   91.365">  7  8 -1 -1</clus>
<clus scale="   91.474">  5  7 -1 -1</clus>
<clus scale="   92.492">  2  9  1 -1</clus>
<clus scale="   92.492">  2  5  1 -1</clus>
</clustering>
</event>
<event>
 9    1  0.6270443E-005  0.1886472E+03  0.7546771E-02  0.1161002E+00
          1   -1    0    0  502    0 -0.00000000000E+00  0.00000000000E+00  0.18083947469E+04  0.18083947469E+04  0.00000000000E+00 0. -1.
         21   -1    0    0  501  502  0.00000000000E+00 -0.00000000000E+00 -0.33597434012E+02  0.33597434012E+02  0.00000000000E+00 0. -1.
        -24    2    1    2    0    0  0.13439571880E+03  0.17902720681E+01  0.64623398912E+03  0.66463016615E+03  0.77778369426E+02 0.  0.
         23    2    1    2    0    0 -0.22490729006E+03 -0.19729781314E+02  0.82061158442E+03  0.85588348626E+03  0.90336128821E+02 0.  0.
         13    1    3    3    0    0  0.10004516209E+03  0.51511587815E+01  0.29174899207E+03  0.30846886921E+03  0.00000000000E+00 0. -1.
        -14    1    3    3    0    0  0.34350556716E+02 -0.33608867134E+01  0.35448499705E+03  0.35616129694E+03  0.00000000000E+00 0.  1.
        -13    1    4    4    0    0 -0.68699531552E+02 -0.47565551313E+02  0.31992598721E+03  0.33065804784E+03  0.00000000000E+00 0.  1.
         13    1    4    4    0    0 -0.15620775851E+03  0.27835769999E+02  0.50068559721E+03  0.52522543842E+03  0.00000000000E+00 0. -1.
          2    1    1    2  501    0  0.90511571261E+02  0.17939509246E+02  0.30795173935E+03  0.32147852851E+03  0.00000000000E+00 0. -1.
<scales pt_clust_5="13000.00000" pt_clust_6="13000.00000" pt_clust_7="13000.00000" pt_clust_8="13000.00000" pt_clust_9="92.27226"></scales>
<clustering>
<clus scale="   77.778">  5  6 -1 -1</clus>
<clus scale="   90.336">  7  8 -1 -1</clus>
<clus scale="   92.272">  2  9  1 -1</clus>
<clus scale="  182.966">  1  5  2 -1</clus>
<clus scale="   92.272">  2  5  1 -1</clus>
</clustering>
</event>
<event>
 9    1  0.6270443E-005  0.9158229E+02  0.7546771E-02  0.1303021E+00
         21   -1    0    0  501  502  0.00000000000E+00  0.00000000000E+00  0.97698860717E+02  0.97698860717E+02  0.00000000000E+00 0. -1.
          1   -1    0    0  502    0 -0.00000000000E+00 -0.00000000000E+00 -0.14724730043E+03  0.14724730043E+03  0.00000000000E+00 0. -1.
        -24    2    1    2    0    0  0.71452546872E+01  0.16899705315E+02 -0.37237297225E+02  0.89906351142E+02  0.79748861852E+02 0.  0.
         23    2    1    2    0    0 -0.53818143643E+02 -0.12420112994E+02 -0.26479083290E+02  0.10605863141E+03  0.86583137225E+02 0.  0.
         11    1    3    3    0    0  0.40590389166E+02  0.18283613357E+02 -0.75284928535E+01  0.45150286983E+02  0.00000000000E+00 0. -1.
        -12    1    3    3    0    0 -0.33445134479E+02 -0.13839080419E+01 -0.29708804372E+02  0.44756064158E+02  0.00000000000E+00 0.  1.
        -11    1    4    4    0    0 -0.70166404862E+02 -0.25788504773E+02 -0.35906614758E+02  0.82931636503E+02  0.00000000000E+00 0. -1.
         11    1    4    4    0    0  0.16348261219E+02  0.13368391779E+02  0.94275314679E+01  0.23126994903E+02  0.00000000000E+00 0.  1.
          2    1    1    2  501    0  0.46672888956E+02 -0.44795923211E+01  0.14167940799E+02  0.48981178603E+02  0.00000000000E+00 0. -1.
<scales pt_clust_5="13000.00000" pt_clust_6="13000.00000" pt_clust_7="13000.00000" pt_clust_8="13000.00000" pt_clust_9="46.88737"></scales>
<clustering>
<clus scale="   46.887">  1  9  2 -1</clus>
<clus scale="   79.749">  5  6 -1 -1</clus>
<clus scale="   85.150">  2  5  1 -1</clus>
<clus scale="   86.583">  7  8 -1 -1</clus>
<clus scale="   46.887">  1  5  2 -1</clus>
</clustering>
</event>
<event>
 9    1  0.6270443E-005  0.1028964E+03  0.7546771E-02  0.1279361E+00
         -2   -1    0    0    0  501 -0.00000000000E+00  0.00000000000E+00  0.18226296315E+03  0.18226296315E+03  0.00000000000E+00 0.  1.
         21   -1    0    0  501  502  0.00000000000E+00 -0.00000000000E+00 -0.15623573948E+03  0.15623573948E+03  0.00000000000E+00 0.  1.
        -24    2    1    2    0    0 -0.59806239437E+02  0.60395196634E+01  0.52877066898E+02  0.11350203939E+03  0.80457856482E+02 0.  0.
         23    2    1    2    0    0 -0.29670131338E+01 -0.23943566010E+02 -0.92675796542E+02  0.13229233624E+03  0.91270813752E+02 0.  0.
         11    1    3    3    0    0 -0.64720819842E+02 -0.23517785080E+02  0.45840560346E+02  0.82723803762E+02  0.00000000000E+00 0. -1.
        -12    1    3    3    0    0  0.49145804048E+01  0.29557304743E+02  0.70365065526E+01  0.30778235633E+02  0.00000000000E+00 0.  1.
        -11    1    4    4    0    0 -0.17781783204E+01  0.34162476625E+02 -0.21505863207E+02  0.40407163716E+02  0.00000000000E+00 0. -1.
         11    1    4    4    0    0 -0.11888348134E+01 -0.58106042635E+02 -0.71169933335E+02  0.91885172524E+02  0.00000000000E+00 0.  1.
         -1    1    1    2    0  502  0.62773252571E+02  0.17904046347E+02  0.65825953313E+02  0.92704326995E+02  0.00000000000E+00 0.  1.
<scales pt_clust_5="13000.00000" pt_clust_6="13000.00000" pt_clust_7="13000.00000" pt_clust_8="13000.00000" pt_clust_9="65.27664"></scales>
<clustering>
<clus scale="   65.277">  2  9  1 -1</clus>
<clus scale="   80.458">  5  6 -1 -1</clus>
<clus scale="   91.271">  7  8 -1 -1</clus>
<clus scale="   93.439">  1  5  2 -1</clus>
<clus scale="   65.277">  2  5  1 -1</clus>
</clustering>
</event>
<event>
 9    1  0.6270443E-005  0.9903254E+02  0.7546771E-02  0.1290079E+00
          1   -1    0    0  502    0 -0.00000000000E+00  0.00000000000E+00  0.54298768999E+02  0.54298768999E+02  0.00000000000E+00 0. -1.
         21   -1    0    0  501  502  0.00000000000E+00 -0.00000000000E+00 -0.62418973828E+03  0.62418973828E+03  0.00000000000E+00 0.  1.
         23    2    1    2    0    0  0.31940286372E+02  0.10071203101E+02 -0.26379569601E+02  0.10348946748E+03  0.94300462146E+02 0.  0.
        -24    2    1    2    0    0  0.92130494342E+01 -0.36437419788E+02 -0.50523234489E+03  0.51291796002E+03  0.80078371330E+02 0.  0.
         11    1    4    4    0    0  0.13523849147E+02  0.23017554866E+02 -0.10871932781E+03  0.11194907131E+03  0.00000000000E+00 0. -1.
        -12    1    4    4    0    0 -0.43107997125E+01 -0.59454974653E+02 -0.39651301708E+03  0.40096888872E+03  0.00000000000E+00 0.  1.
        -11    1    3    3    0    0  0.19576609114E+02 -0.42083575073E+02 -0.10507679174E+02  0.47588677613E+02  0.00000000000E+00 0.  1.
         11    1    3    3    0    0  0.12363677258E+02  0.52154778174E+02 -0.15871890427E+02  0.55900789864E+02  0.00000000000E+00 0. -1.
          2    1    1    2  501    0 -0.41153335806E+02  0.26366216686E+02 -0.38279054790E+02  0.62081079774E+02  0.00000000000E+00 0. -1.
<scales pt_clust_5="13000.00000" pt_clust_6="13000.00000" pt_clust_7="13000.00000" pt_clust_8="13000.00000" pt_clust_9="48.87511"></scales>
<clustering>
<clus scale="   48.875">  2  9  1 -1</clus>
<clus scale="   80.078">  5  6 -1 -1</clus>
<clus scale="   85.600">  2  5  1 -1</clus>
<clus scale="   94.300">  7  8 -1 -1</clus>
<clus scale="   48.875">  2  5  1 -1</clus>
</clustering>
</event>
<event>
 9    1  0.6270443E-005  0.1173435E+03  0.7546771E-02  0.1253144E+00
          3   -1    0    0  502    0 -0.00000000000E+00  0.00000000000E+00  0.30888144752E+03  0.30888144752E+03  0.00000000000E+00 0. -1.
         21   -1    0    0  501  502  0.00000000000E+00 -0.00000000000E+00 -0.23585037629E+03  0.23585037629E+03  0.00000000000E+00 0. -1.
         23    2    1    2    0    0  0.66816192273E+02  0.11829761016E+02  0.25664513818E+03  0.28156160631E+03  0.93839567334E+02 0.  0.
        -24    2    1    2    0    0 -0.10206559206E+03  0.24249634468E+02 -0.96007758980E+02  0.16208061289E+03  0.77763779720E+02 0.  0.
         13    1    4    4    0    0 -0.93829436876E+02  0.37774532411E+02 -0.48832788521E+02  0.11231883083E+03  0.00000000000E+00 0. -1.
        -14    1    4    4    0    0 -0.82361551850E+01 -0.13524897943E+02 -0.47174970458E+02  0.49761782066E+02  0.00000000000E+00 0.  1.
        -13    1    3    3    0    0  0.81217223621E+02 -0.11576325173E+02  0.14515081556E+03  0.16673034509E+03  0.00000000000E+00 0.  1.
         13    1    3    3    0    0 -0.14401031348E+02  0.23406086189E+02  0.11149432262E+03  0.11483126121E+03  0.00000000000E+00 0. -1.
          4    1    1    2  501    0  0.35249399789E+02 -0.36079395485E+02 -0.87606307975E+02  0.10108960461E+03  0.00000000000E+00 0. -1.
<scales pt_clust_5="13000.00000" pt_clust_6="13000.00000" pt_clust_7="13000.00000" pt_clust_8="13000.00000" pt_clust_9="50.44049"></scales>
<clustering>
<clus scale="   50.440">  2  9  1 -1</clus>
<clus scale="   77.764">  5  6 -1 -1</clus>
<clus scale="   93.840">  7  8 -1 -1</clus>
<clus scale="  104.933">  2  5  1 -1</clus>
<clus scale="   50.440">  2  5  1 -1</clus>
</clustering>
</event>
<event>
 9    1  0.6270443E-005  0.1409179E+03  0.7546771E-02  0.1213604E+00
          1   -1    0    0  502    0 -0.00000000000E+00  0.00000000000E+00  0.44201646308E+03  0.44201646308E+03  0.00000000000E+00 0. -1.
         21   -1    0    0  501  502  0.00000000000E+00 -0.00000000000E+00 -0.67357666885E+02  0.67357666885E+02  0.00000000000E+00 0. -1.
         23    2    1    2    0    0  0.11620186673E+03 -0.28479662186E+02  0.26469210573E+03  0.30362861844E+03  0.88399446312E+02 0.  0.
        -24    2    1    2    0    0 -0.86019509429E+02  0.15045780334E+02  0.35661045513E+02  0.12442655466E+03  0.81145091226E+02 0.  0.
         13    1    4    4    0    0 -0.74457668631E+02  0.68550825479E+01 -0.11076417285E+02  0.75588514965E+02  0.00000000000E+00 0. -1.
        -14    1    4    4    0    0 -0.11561840798E+02  0.81906977866E+01  0.46737462798E+02  0.48838039699E+02  0.00000000000E+00 0.  1.
        -11    1    3    3    0    0  0.73461102270E+02 -0.59116704863E+02  0.19205076219E+03  0.21395049333E+03  0.00000000000E+00 0. -1.
         11    1    3    3    0    0  0.42740764459E+02  0.30637042677E+02  0.72641343546E+02  0.89678125106E+02  0.00000000000E+00 0.  1.
          2    1    1    2  501    0 -0.30182357299E+02  0.13433881852E+02  0.74305644956E+02  0.81318956867E+02  0.00000000000E+00 0. -1.
<scales pt_clust_5="13000.00000" pt_clust_6="13000.00000" pt_clust_7="13000.00000" pt_clust_8="13000.00000" pt_clust_9="33.03702"></scales>
<clustering>
<clus scale="   33.037">  2  9  1 -1</clus>
<clus scale="   81.145">  5  6 -1 -1</clus>
<clus scale="   88.399">  7  8 -1 -1</clus>
<clus scale="  136.484">  2  5  1 -1</clus>
<clus scale="   33.037">  2  5  1 -1</clus>
</clustering>
</event>
<event>
 9    1  0.6270443E-005  0.4977539E+03  0.7546771E-02  0.1014367E+00
          1   -1    0    0  502    0 -0.00000000000E+00  0.00000000000E+00  0.16819253623E+04  0.16819253623E+04  0.00000000000E+00 0. -1.
         21   -1    0    0  501  502  0.00000000000E+00 -0.00000000000E+00 -0.17165291183E+03  0.17165291183E+03  0.00000000000E+00 0. -1.
        -24    2    1    2    0    0 -0.12912480731E+03  0.12741234339E+03  0.63523767995E+03  0.66542283250E+03  0.79708938436E+02 0.  0.
         23    2    1    2    0    0 -0.27430788089E+03  0.19758062721E+02  0.62890190750E+03  0.69318226196E+03  0.96689422783E+02 0.  0.
         13    1    3    3    0    0 -0.12929976612E+03  0.10416400441E+03  0.60446859682E+03  0.62685792160E+03  0.00000000000E+00 0. -1.
        -14    1    3    3    0    0  0.17495881165E+00  0.23248338971E+02  0.30769083138E+02  0.38564910899E+02  0.00000000000E+00 0.  1.
        -13    1    4    4    0    0 -0.51652426046E+02 -0.33288363551E+02  0.16011119705E+03  0.17149834893E+03  0.00000000000E+00 0.  1.
         13    1    4    4    0    0 -0.22265545484E+03  0.53046426272E+02  0.46879071044E+03  0.52168391302E+03  0.00000000000E+00 0. -1.
          2    1    1    2  501    0  0.40343268820E+03 -0.14717040611E+03  0.24613286299E+03  0.49497317966E+03  0.00000000000E+00 0. -1.
<scales pt_clust_5="13000.00000" pt_clust_6="13000.00000" pt_clust_7="13000.00000" pt_clust_8="13000.00000" pt_clust_9="429.43808"></scales>
<clustering>
<clus scale="   79.709">  5  6 -1 -1</clus>
<clus scale="   96.689">  7  8 -1 -1</clus>
<clus scale="  174.941">  5  7 -1 -1</clus>
<clus scale="  429.438">  2  9  1 -1</clus>
<clus scale="  429.438">  2  5  1 -1</clus>
</clustering>
</event>
<event>
 9    1  0.6270443E-005  0.3270356E+03  0.7546771E-02  0.1072550E+00
         21   -1    0    0  501  502  0.00000000000E+00  0.00000000000E+00  0.32126662108E+03  0.32126662108E+03  0.00000000000E+00 0. -1.
          1   -1    0    0  502    0 -0.00000000000E+00 -0.00000000000E+00 -0.45459024967E+03  0.45459024967E+03  0.00000000000E+00 0. -1.
         23    2    1    2    0    0 -0.23026402206E+03  0.20640795909E+03 -0.15298443226E+03  0.35555458883E+03  0.85959663197E+02 0.  0.
        -24    2    1    2    0    0  0.19422436300E+03 -0.26978788310E+03  0.39259225676E+02  0.34480413664E+03  0.82704297304E+02 0.  0.
         13    1    4    4    0    0  0.14154698597E+03 -0.20279544881E+03 -0.78394082179E+01  0.24743281840E+03  0.00000000000E+00 0. -1.
        -14    1    4    4    0    0  0.52677377027E+02 -0.66992434289E+02  0.47098633894E+02  0.97371318247E+02  0.00000000000E+00 0.  1.
        -11    1    3    3    0    0 -0.92153552101E+02  0.60087319063E+02 -0.13746232595E+02  0.11086803862E+03  0.00000000000E+00 0. -1.
         11    1    3    3    0    0 -0.13811046996E+03  0.14632064002E+03 -0.13923819966E+03  0.24468655021E+03  0.00000000000E+00 0.  1.
          2    1    1    2  501    0  0.36039659059E+02  0.63379924018E+02 -0.19598422008E+02  0.75498145267E+02  0.00000000000E+00 0. -1.
<scales pt_clust_5="13000.00000" pt_clust_6="13000.00000" pt_clust_7="13000.00000" pt_clust_8="13000.00000" pt_clust_9="72.91006"></scales>
<clustering>
<clus scale="   72.910">  1  9  2 -1</clus>
<clus scale="   82.704">  5  6 -1 -1</clus>
<clus scale="   85.960">  7  8 -1 -1</clus>
<clus scale="  326.195">  1  5  2 -1</clus>
<clus scale="   72.910">  1  5  2 -1</clus>
</clustering>
</event>
<event>
 9    1  0.6270443E-005  0.2064356E+03  0.7546771E-02  0.1157183E+00
         -2   -1    0    0    0  501 -0.00000000000E+00  0.00000000000E+00  0.50505601879E+03  0.50505601879E+03  0.00000000000E+00 0.  1.
         21   -1    0    0  501  502  0.00000000000E+00 -0.00000000000E+00 -0.17664492838E+03  0.17664492838E+03  0.00000000000E+00 0.  1.
        -24    2    1    2    0    0  0.27110271051E+02 -0.11948757124E+03  0.18751908042E+03  0.24178306858E+03  0.91013187249E+02 0.  0.
         23    2    1    2    0    0 -0.10928477684E+03 -0.86838756517E+02  0.14029792308E+03  0.21782880666E+03  0.91004119185E+02 0.  0.
         11    1    3    3    0    0 -0.66138905323E+00 -0.23318050665E+02 -0.58425829068E+01  0.24047966594E+02  0.00000000000E+00 0. -1.
        -12    1    3    3    0    0  0.27771660104E+02 -0.96169520580E+02  0.19336166333E+03  0.21773510199E+03  0.00000000000E+00 0.  1.
        -13    1    4    4    0    0 -0.42784683880E+02 -0.80886984682E+02  0.11372827954E+03  0.14597039094E+03  0.00000000000E+00 0. -1.
         13    1    4    4    0    0 -0.66500092961E+02 -0.59517718344E+01  0.26569643547E+02  0.71858415721E+02  0.00000000000E+00 0.  1.
         -1    1    1    2    0  502  0.82174505791E+02  0.20632632776E+03  0.59408690177E+00  0.22208907193E+03  0.00000000000E+00 0.  1.
<scales pt_clust_5="13000.00000" pt_clust_6="13000.00000" pt_clust_7="13000.00000" pt_clust_8="13000.00000" pt_clust_9="185.29410"></scales>
<clustering>
<clus scale="   91.004">  7  8 -1 -1</clus>
<clus scale="   91.013">  5  6 -1 -1</clus>
<clus scale="  152.629">  1  5  2 -1</clus>
<clus scale="  185.294">  2  9  1 -1</clus>
<clus scale="  185.294">  2  5  1 -1</clus>
</clustering>
</event>
<event>
 9    1  0.6270443E-005  0.1462001E+03  0.7546771E-02  0.1224233E+00
         21   -1    0    0  501  502  0.00000000000E+00  0.00000000000E+00  0.36151561116E+02  0.36151561116E+02  0.00000000000E+00 0.  1.
         -2   -1    0    0    0  501 -0.00000000000E+00 -0.00000000000E+00 -0.92227688929E+03  0.92227688929E+03  0.00000000000E+00 0.  1.
        -24    2    1    2    0    0  0.41622285666E+02  0.37398880506E+02 -0.21177456450E+03  0.23323772534E+03  0.80126646165E+02 0.  0.
         23    2    1    2    0    0 -0.45868242956E+02  0.89755088068E+02 -0.40566908805E+03  0.42790970869E+03  0.91539271635E+02 0.  0.
         13    1    3    3    0    0  0.33394387560E+02  0.20497735081E+02 -0.27177479145E+02  0.47686031882E+02  0.00000000000E+00 0. -1.
        -14    1    3    3    0    0  0.82278981058E+01  0.16901145424E+02 -0.18459708535E+03  0.18555169345E+03  0.00000000000E+00 0.  1.
        -13    1    4    4    0    0 -0.93164280042E+01  0.27882607843E+02 -0.19889751380E+02  0.35494194749E+02  0.00000000000E+00 0.  1.
         13    1    4    4    0    0 -0.36551814952E+02  0.61872480224E+02 -0.38577933667E+03  0.39241551395E+03  0.00000000000E+00 0. -1.
         -1    1    1    2    0  502  0.42459572900E+01 -0.12715396857E+03 -0.26868167563E+03  0.29728101637E+03  0.00000000000E+00 0.  1.
<scales pt_clust_5="13000.00000" pt_clust_6="13000.00000" pt_clust_7="13000.00000" pt_clust_8="13000.00000" pt_clust_9="113.99574"></scales>
<clustering>
<clus scale="   80.127">  5  6 -1 -1</clus>
<clus scale="   91.539">  7  8 -1 -1</clus>
<clus scale="   97.731">  2  5  1 -1</clus>
<clus scale="  113.996">  1  9  2 -1</clus>
<clus scale="  113.996">  1  5  2 -1</clus>
</clustering>
</event>
<event>
 9    1  0.6270443E-005  0.1497764E+03  0.7546771E-02  0.1206435E+00
          1   -1    0    0  502    0 -0.00000000000E+00  0.00000000000E+00  0.12069882780E+04  0.12069882780E+04  0.00000000000E+00 0. -1.
         21   -1    0    0  501  502  0.00000000000E+00 -0.00000000000E+00 -0.39048552848E+02  0.39048552848E+02  0.00000000000E+00 0.  1.
         23    2    1    2    0    0  0.99922099972E+02 -0.25138535582E+02  0.69623539951E+03  0.71183175509E+03  0.10650983047E+03 0.  0.
        -24    2    1    2    0    0 -0.98548910638E+02  0.46807988145E+02  0.48837724149E+03  0.50682922980E+03  0.80378247220E+02 0.  0.
         13    1    4    4    0    0 -0.62575260243E+02  0.89915246962E+01  0.12873866974E+03  0.14342299606E+03  0.00000000000E+00 0. -1.
        -14    1    4    4    0    0 -0.35973650395E+02  0.37816463449E+02  0.35963857175E+03  0.36340623374E+03  0.00000000000E+00 0.  1.
        -13    1    3    3    0    0  0.12201439501E+03 -0.28382333912E+02  0.56614842122E+03  0.57984230987E+03  0.00000000000E+00 0.  1.
         13    1    3    3    0    0 -0.22092295038E+02  0.32437983295E+01  0.13008697829E+03  0.13198944522E+03  0.00000000000E+00 0. -1.
          2    1    1    2  501    0 -0.13731893336E+01 -0.21669452563E+02 -0.16672915804E+02  0.27375846010E+02  0.00000000000E+00 0. -1.
<scales pt_clust_5="13000.00000" pt_clust_6="13000.00000" pt_clust_7="13000.00000" pt_clust_8="13000.00000" pt_clust_9="21.71292"></scales>
<clustering>
<clus scale="   21.713">  2  9  1 -1</clus>
<clus scale="   80.378">  5  6 -1 -1</clus>
<clus scale="  106.510">  7  8 -1 -1</clus>
<clus scale="  132.474">  2  5  1 -1</clus>
<clus scale="   21.713">  2  5  1 -1</clus>
</clustering>
</event>
<event>
 9    1  0.6270443E-005  0.9944190E+02  0.7546771E-02  0.1287295E+00
         21   -1    0    0  501  502  0.00000000000E+00  0.00000000000E+00  0.12134073229E+03  0.12134073229E+03  0.00000000000E+00 0. -1.
          1   -1    0    0  502    0 -0.00000000000E+00 -0.00000000000E+00 -0.24265630921E+03  0.24265630921E+03  0.00000000000E+00 0. -1.
        -24    2    1    2    0    0  0.33982814085E+02  0.23321978667E+02 -0.17484919301E+03  0.19690023204E+03  0.80614606231E+02 0.  0.
         23    2    1    2    0    0 -0.27807978991E+02 -0.34866360652E+01 -0.13375979576E+02  0.97036382704E+02  0.91933140988E+02 0.  0.
         11    1    3    3    0    0  0.10530171117E+02 -0.29961624722E+02 -0.51533456328E+02  0.60533301420E+02  0.00000000000E+00 0. -1.
        -12    1    3    3    0    0  0.23452642968E+02  0.53283603389E+02 -0.12331573668E+03  0.13636693062E+03  0.00000000000E+00 0.  1.
        -11    1    4    4    0    0 -0.51153057672E+02  0.21721094468E+02  0.86242223798E+01  0.56238940831E+02  0.00000000000E+00 0.  1.
         11    1    4    4    0    0  0.23345078681E+02 -0.25207730533E+02 -0.22000201956E+02  0.40797441873E+02  0.00000000000E+00 0. -1.
          2    1    1    2  501    0 -0.61748350946E+01 -0.19835342602E+02  0.66909595672E+02  0.70060426758E+02  0.00000000000E+00 0. -1.
<scales pt_clust_5="13000.00000" pt_clust_6="13000.00000" pt_clust_7="13000.00000" pt_clust_8="13000.00000" pt_clust_9="20.77425"></scales>
<clustering>
<clus scale="   20.774">  1  9  2 -1</clus>
<clus scale="   80.615">  5  6 -1 -1</clus>
<clus scale="   89.083">  2  5  1 -1</clus>
<clus scale="   91.933">  7  8 -1 -1</clus>
<clus scale="   20.774">  1  5  2 -1</clus>
</clustering>
</event>
<event>
 9    1  0.6270443E-005  0.1066685E+03  0.7546771E-02  0.1272466E+00
         21   -1    0    0  501  502  0.00000000000E+00  0.00000000000E+00  0.56231941407E+03  0.56231941407E+03  0.00000000000E+00 0.  1.
         -4   -1    0    0    0  501 -0.00000000000E+00 -0.00000000000E+00 -0.55757388193E+02  0.55757388193E+02  0.00000000000E+00 0.  1.
        -24    2    1    2    0    0  0.34141567644E+01  0.51912769059E+02  0.81731761129E+01  0.97178615521E+02  0.81671846123E+02 0.  0.
         23    2    1    2    0    0  0.36405274616E+02 -0.36956301734E+02  0.32416119155E+03  0.34155337941E+03  0.94271526037E+02 0.  0.
         13    1    3    3    0    0 -0.24555994507E+02 -0.50652935074E+01  0.20660812305E+02  0.32488816993E+02  0.00000000000E+00 0. -1.
        -14    1    3    3    0    0  0.27970151271E+02  0.56978062566E+02 -0.12487636192E+02  0.64689798528E+02  0.00000000000E+00 0.  1.
        -13    1    4    4    0    0 -0.25604310287E+02  0.98083400931E+01  0.55692322339E+02  0.62075913269E+02  0.00000000000E+00 0. -1.
         13    1    4    4    0    0  0.62009584903E+02 -0.46764641827E+02  0.26846886921E+03  0.27947746614E+03  0.00000000000E+00 0.  1.
         -3    1    1    2    0  502 -0.39819431380E+02 -0.14956467325E+02  0.17422765822E+03  0.17934480733E+03  0.00000000000E+00 0.  1.
<scales pt_clust_5="13000.00000" pt_clust_6="13000.00000" pt_clust_7="13000.00000" pt_clust_8="13000.00000" pt_clust_9="42.53567"></scales>
<clustering>
<clus scale="   42.536">  1  9  2 -1</clus>
<clus scale="   81.672">  5  6 -1 -1</clus>
<clus scale="   94.272">  7  8 -1 -1</clus>
<clus scale="   95.715">  2  5  1 -1</clus>
<clus scale="   42.536">  1  5  2 -1</clus>
</clustering>
</event>
<event>
 9    1  0.6270443E-005  0.2221167E+03  0.7546771E-02  0.1161073E+00
          3   -1    0    0  502    0 -0.00000000000E+00  0.00000000000E+00  0.11670774543E+03  0.11670774543E+03  0.00000000000E+00 0. -1.
         21   -1    0    0  501  502  0.00000000000E+00 -0.00000000000E+00 -0.10702912098E+04  0.10702912098E+04  0.00000000000E+00 0. -1.
        -24    2    1    2    0    0 -0.66842129407E+02 -0.39787809570E+02 -0.58642211478E+02  0.12634016696E+03  0.80448671622E+02 0.  0.
         23    2    1    2    0    0  0.10295911446E+02 -0.16415271244E+03 -0.56609550539E+02  0.19602634934E+03  0.90385671602E+02 0.  0.
         11    1    3    3    0    0 -0.85416624780E+02 -0.34618310614E+02 -0.43996649904E+02  0.10212801977E+03  0.00000000000E+00 0. -1.
        -12    1    3    3    0    0  0.18574495373E+02 -0.51694989559E+01 -0.14645561573E+02  0.24212147191E+02  0.00000000000E+00 0.  1.
        -11    1    4    4    0    0  0.30727568662E+02 -0.51839400455E+02 -0.55408593566E+02  0.81863417692E+02  0.00000000000E+00 0.  1.
         11    1    4    4    0    0 -0.20431657216E+02 -0.11231331198E+03 -0.12009569737E+01  0.11416293165E+03  0.00000000000E+00 0. -1.
          4    1    1    2  501    0  0.56546217961E+02  0.20394052201E+03 -0.83833170232E+03  0.86463243890E+03  0.00000000000E+00 0. -1.
<scales pt_clust_5="13000.00000" pt_clust_6="13000.00000" pt_clust_7="13000.00000" pt_clust_8="13000.00000" pt_clust_9="202.89472"></scales>
<clustering>
<clus scale="   80.449">  5  6 -1 -1</clus>
<clus scale="   90.386">  7  8 -1 -1</clus>
<clus scale="  111.906">  1  5  2 -1</clus>
<clus scale="  202.895">  2  9  1 -1</clus>
<clus scale="  202.895">  2  5  1 -1</clus>
</clustering>
</event>
<event>
 9    1  0.6270443E-005  0.1318102E+03  0.7546771E-02  0.1242431E+00
          1   -1    0    0  502    0 -0.00000000000E+00  0.00000000000E+00  0.66197809976E+03  0.66197809976E+03  0.00000000000E+00 0. -1.
         21   -1    0    0  501  502  0.00000000000E+00 -0.00000000000E+00 -0.44718037448E+02  0.44718037448E+02  0.00000000000E+00 0. -1.
        -24    2    1    2    0    0  0.37179840753E+02 -0.25358925302E+02  0.95300467994E+02  0.13230561569E+03  0.79982379891E+02 0.  0.
         23    2    1    2    0    0  0.14380720073E+02 -0.83885516196E+02  0.26755620487E+03  0.29276324302E+03  0.82948229399E+02 0.  0.
         13    1    3    3    0    0  0.55115598197E+02 -0.12034225648E+02  0.94365127548E+02  0.10994238968E+03  0.00000000000E+00 0. -1.
        -14    1    3    3    0    0 -0.17935757444E+02 -0.13324699654E+02  0.93534044681E+00  0.22363226013E+02  0.00000000000E+00 0.  1.
        -11    1    4    4    0    0  0.47582523829E+02 -0.33091416805E+02  0.13927773050E+03  0.15085564177E+03  0.00000000000E+00 0.  1.
         11    1    4    4    0    0 -0.33201803756E+02 -0.50794099391E+02  0.12827847437E+03  0.14190760125E+03  0.00000000000E+00 0. -1.
          2    1    1    2  501    0 -0.51560560827E+02  0.10924444150E+03  0.25440338945E+03  0.28162727850E+03  0.00000000000E+00 0. -1.
<scales pt_clust_5="13000.00000" pt_clust_6="13000.00000" pt_clust_7="13000.00000" pt_clust_8="13000.00000" pt_clust_9="102.43791"></scales>
<clustering>
<clus scale="   79.982">  5  6 -1 -1</clus>
<clus scale="   82.948">  7  8 -1 -1</clus>
<clus scale="   91.775">  1  5  2 -1</clus>
<clus scale="  102.438">  2  9  1 -1</clus>
<clus scale="  102.438">  2  5  1 -1</clus>
</clustering>
</event>
<event>
 9    1  0.6270443E-005  0.1471515E+03  0.7546771E-02  0.1205119E+00
         21   -1    0    0  501  502  0.00000000000E+00  0.00000000000E+00  0.16658179686E+03  0.16658179686E+03  0.00000000000E+00 0.  1.
         -4   -1    0    0    0  501 -0.00000000000E+00 -0.00000000000E+00 -0.61802816481E+03  0.61802816481E+03  0.00000000000E+00 0.  1.
         23    2    1    2    0    0  0.10429264904E+03  0.63426711770E+02 -0.47730141940E+03  0.49830691333E+03  0.74787903456E+02 0.  0.
        -24    2    1    2    0    0 -0.52137535621E+02 -0.15286165381E+03  0.59773951721E+01  0.18088063169E+03  0.81222323540E+02 0.  0.
         13    1    4    4    0    0 -0.35592532344E+02 -0.26546347998E+02  0.26700757718E+02  0.51811846265E+02  0.00000000000E+00 0. -1.
        -14    1    4    4    0    0 -0.16545003277E+02 -0.12631530581E+03 -0.20723362546E+02  0.12906878543E+03  0.00000000000E+00 0.  1.
        -13    1    3    3    0    0  0.73012058276E+02  0.24966082416E+01 -0.28340552639E+03  0.29266992687E+03  0.00000000000E+00 0.  1.
         13    1    3    3    0    0  0.31280590768E+02  0.60930103529E+02 -0.19389589301E+03  0.20563698646E+03  0.00000000000E+00 0. -1.
         -3    1    1    2    0  502 -0.52155113424E+02  0.89434942042E+02  0.19877656274E+02  0.10542241665E+03  0.00000000000E+00 0.  1.
<scales pt_clust_5="13000.00000" pt_clust_6="13000.00000" pt_clust_7="13000.00000" pt_clust_8="13000.00000" pt_clust_9="103.53147"></scales>
<clustering>
<clus scale="   74.788">  7  8 -1 -1</clus>
<clus scale="   81.222">  5  6 -1 -1</clus>
<clus scale="  103.531">  1  9  2 -1</clus>
<clus scale="  143.700">  2  7  1 -1</clus>
<clus scale="  103.531">  1  5  2 -1</clus>
</clustering>
</event>
<event>
 9    1  0.6270443E-005  0.2086079E+03  0.7546771E-02  0.1181070E+00
         21   -1    0    0  501  502  0.00000000000E+00  0.00000000000E+00  0.96029940353E+03  0.96029940353E+03  0.00000000000E+00 0.  1.
         -4   -1    0    0    0  501 -0.00000000000E+00 -0.00000000000E+00 -0.83067949729E+02  0.83067949729E+02  0.00000000000E+00 0.  1.
        -24    2    1    2    0    0 -0.20458569586E+02 -0.22276769026E+01  0.27005064807E+02  0.89730293250E+02  0.83058632228E+02 0.  0.
         23    2    1    2    0    0 -0.10958366578E+03 -0.14604745136E+03  0.60691396623E+03  0.64043196473E+03  0.92033152660E+02 0.  0.
         13    1    3    3    0    0 -0.16249889850E+02  0.37589938991E+02  0.28117345952E+02  0.49675422261E+02  0.00000000000E+00 0. -1.
        -14    1    3    3    0    0 -0.42086797361E+01 -0.39817615893E+02 -0.11122811447E+01  0.40054870988E+02  0.00000000000E+00 0.  1.
        -13    1    4    4    0    0 -0.42487215686E+02 -0.89881550927E+02  0.44920449253E+03  0.46007448614E+03  0.00000000000E+00 0.  1.
         13    1    4    4    0    0 -0.67096450091E+02 -0.56165900431E+02  0.15770947370E+03  0.18035747858E+03  0.00000000000E+00 0. -1.
         -3    1    1    2    0  502  0.13004223536E+03  0.14827512826E+03  0.24331242277E+03  0.31320509528E+03  0.00000000000E+00 0.  1.
<scales pt_clust_5="13000.00000" pt_clust_6="13000.00000" pt_clust_7="13000.00000" pt_clust_8="13000.00000" pt_clust_9="187.20898"></scales>
<clustering>
<clus scale="   83.059">  5  6 -1 -1</clus>
<clus scale="   85.570">  2  5  1 -1</clus>
<clus scale="   92.033">  7  8 -1 -1</clus>
<clus scale="  187.209">  1  9  2 -1</clus>
<clus scale="  187.209">  1  5  2 -1</clus>
</clustering>
</event>
<event>
 9    1  0.6270443E-005  0.1196126E+03  0.7546771E-02  0.1245603E+00
         -2   -1    0    0    0  501 -0.00000000000E+00  0.00000000000E+00  0.11648538695E+03  0.11648538695E+03  0.00000000000E+00 0.  1.
         21   -1    0    0  501  502  0.00000000000E+00 -0.00000000000E+00 -0.27295231821E+03  0.27295231821E+03  0.00000000000E+00 0.  1.
        -24    2    1    2    0    0  0.27526094682E+02  0.64949302022E+02  0.28636093396E+02  0.11485964185E+03  0.86003568296E+02 0.  0.
         23    2    1    2    0    0  0.68805470241E+01 -0.10035305862E+03 -0.78761792284E+02  0.15733600312E+03  0.91832018659E+02 0.  0.
         11    1    3    3    0    0 -0.19504271345E+02  0.33504405227E+02 -0.16846028784E+02  0.42269971092E+02  0.00000000000E+00 0. -1.
        -12    1    3    3    0    0  0.47030366027E+02  0.31444896795E+02  0.45482122180E+02  0.72589670760E+02  0.00000000000E+00 0.  1.
        -11    1    4    4    0    0 -0.29862680579E+02 -0.62019800556E+02 -0.78272913545E+02  0.10423475595E+03  0.00000000000E+00 0. -1.
         11    1    4    4    0    0  0.36743227603E+02 -0.38333258066E+02 -0.48887873838E+00  0.53101247171E+02  0.00000000000E+00 0.  1.
         -1    1    1    2    0  502 -0.34406641706E+02  0.35403756600E+02 -0.10634123238E+03  0.11724206019E+03  0.00000000000E+00 0.  1.
<scales pt_clust_5="13000.00000" pt_clust_6="13000.00000" pt_clust_7="13000.00000" pt_clust_8="13000.00000" pt_clust_9="49.36844"></scales>
<clustering>
<clus scale="   49.368">  2  9  1 -1</clus>
<clus scale="   86.004">  5  6 -1 -1</clus>
<clus scale="   91.832">  7  8 -1 -1</clus>
<clus scale="  115.198">  1  5  2 -1</clus>
<clus scale="   49.368">  2  5  1 -1</clus>
</clustering>
</event>
<event>
 9    1  0.6270443E-005  0.9881834E+02  0.7546771E-02  0.1291670E+00
         21   -1    0    0  501  502  0.00000000000E+00  0.00000000000E+00  0.44934319554E+03  0.44934319554E+03  0.00000000000E+00 0.  1.
         -4   -1    0    0    0  501 -0.00000000000E+00 -0.00000000000E+00 -0.88486554704E+02  0.88486554704E+02  0.00000000000E+00 0.  1.
        -24    2    1    2    0    0  0.10497848155E+02 -0.32027117519E+02 -0.44967164628E+02  0.95906233488E+02  0.77717556927E+02 0.  0.
         23    2    1    2    0    0  0.49710845258E+02  0.18630226964E+02  0.20215508962E+03  0.22911959468E+03  0.93866154246E+02 0.  0.
         11    1    3    3    0    0 -0.19127782450E+02  0.12516743588E+02  0.42070396595E+01  0.23243065938E+02  0.00000000000E+00 0. -1.
        -12    1    3    3    0    0  0.29625630605E+02 -0.44543861107E+02 -0.49174204287E+02  0.72663167550E+02  0.00000000000E+00 0.  1.
        -11    1    4    4    0    0  0.23075705585E+02  0.56196342235E+02  0.99011823950E+02  0.11616306793E+03  0.00000000000E+00 0. -1.
         11    1    4    4    0    0  0.26635139673E+02 -0.37566115271E+02  0.10314326567E+03  0.11295652675E+03  0.00000000000E+00 0.  1.
         -3    1    1    2    0  502 -0.60208693413E+02  0.13396890555E+02  0.20366871584E+03  0.21280392208E+03  0.00000000000E+00 0.  1.
<scales pt_clust_5="13000.00000" pt_clust_6="13000.00000" pt_clust_7="13000.00000" pt_clust_8="13000.00000" pt_clust_9="61.68114"></scales>
<clustering>
<clus scale="   61.681">  1  9  2 -1</clus>
<clus scale="   77.718">  5  6 -1 -1</clus>
<clus scale="   83.632">  2  5  1 -1</clus>
<clus scale="   93.866">  7  8 -1 -1</clus>
<clus scale="   61.681">  1  5  2 -1</clus>
</clustering>
</event>
<event>
 9    1  0.6270443E-005  0.1453113E+03  0.7546771E-02  0.1208930E+00
         21   -1    0    0  501  502  0.00000000000E+00  0.00000000000E+00  0.69345265047E+02  0.69345265047E+02  0.00000000000E+00 0.  1.
         -4   -1    0    0    0  501 -0.00000000000E+00 -0.00000000000E+00 -0.51324471439E+03  0.51324471439E+03  0.00000000000E+00 0.  1.
        -24    2    1    2    0    0 -0.10864728702E+03 -0.49078153285E+01 -0.25904837289E+03  0.29152892081E+03  0.77812161942E+02 0.  0.
         23    2    1    2    0    0  0.12744727905E+03 -0.31093264718E+02 -0.79805335890E+02  0.17843723754E+03  0.90892002152E+02 0.  0.
         11    1    3    3    0    0 -0.24628890309E+02  0.29032097920E+02 -0.44093900663E+02  0.58255617954E+02  0.00000000000E+00 0. -1.
        -12    1    3    3    0    0 -0.84018396710E+02 -0.33939913248E+02 -0.21495447222E+03  0.23327330286E+03  0.00000000000E+00 0.  1.
        -11    1    4    4    0    0  0.54784807358E+02  0.31579112583E+02 -0.25524676198E+02  0.68191821825E+02  0.00000000000E+00 0. -1.
         11    1    4    4    0    0  0.72662471697E+02 -0.62672377301E+02 -0.54280659691E+02  0.11024541572E+03  0.00000000000E+00 0.  1.
         -3    1    1    2    0  502 -0.18799992036E+02  0.36001080047E+02 -0.10504574057E+03  0.11262382109E+03  0.00000000000E+00 0.  1.
<scales pt_clust_5="13000.00000" pt_clust_6="13000.00000" pt_clust_7="13000.00000" pt_clust_8="13000.00000" pt_clust_9="40.61427"></scales>
<clustering>
<clus scale="   40.614">  1  9  2 -1</clus>
<clus scale="   77.812">  5  6 -1 -1</clus>
<clus scale="   90.892">  7  8 -1 -1</clus>
<clus scale="  137.509">  2  5  1 -1</clus>
<clus scale="   40.614">  1  5  2 -1</clus>
</clustering>
</event>
<event>
 9    1  0.6270443E-005  0.9732117E+02  0.7546771E-02  0.1287353E+00
          1   -1    0    0  502    0 -0.00000000000E+00  0.00000000000E+00  0.37765115066E+03  0.37765115066E+03  0.00000000000E+00 0. -1.
         21   -1    0    0  501  502  0.00000000000E+00 -0.00000000000E+00 -0.16375034554E+03  0.16375034554E+03  0.00000000000E+00 0. -1.
         23    2    1    2    0    0  0.33021424695E+02 -0.59997904728E+00  0.14505233909E+03  0.17360401719E+03  0.89484072566E+02 0.  0.
        -24    2    1    2    0    0 -0.78586083037E+02  0.83881678071E+02 -0.10153469873E+03  0.17275286279E+03  0.79513195098E+02 0.  0.
         13    1    4    4    0    0 -0.42470484975E+02  0.52633376994E+02 -0.10497112628E+03  0.12487174148E+03  0.00000000000E+00 0. -1.
        -14    1    4    4    0    0 -0.36115598063E+02  0.31248301076E+02  0.34364275567E+01  0.47881121310E+02  0.00000000000E+00 0.  1.
        -13    1    3    3    0    0 -0.18840427839E+02  0.29678728229E+02  0.48528704427E+02  0.59923482741E+02  0.00000000000E+00 0. -1.
         13    1    3    3    0    0  0.51861852534E+02 -0.30278707276E+02  0.96523634665E+02  0.11368053444E+03  0.00000000000E+00 0.  1.
          2    1    1    2  501    0  0.45564658342E+02 -0.83281699023E+02  0.17038316476E+03  0.19504461622E+03  0.00000000000E+00 0. -1.
<scales pt_clust_5="13000.00000" pt_clust_6="13000.00000" pt_clust_7="13000.00000" pt_clust_8="13000.00000" pt_clust_9="94.93149"></scales>
<clustering>
<clus scale="   79.513">  5  6 -1 -1</clus>
<clus scale="   89.484">  7  8 -1 -1</clus>
<clus scale="   94.931">  2  9  1 -1</clus>
<clus scale="   94.931">  2  5  1 -1</clus>
<clus scale="   94.931">  2  5  1 -1</clus>
</clustering>
</event>
<event>
 9    1  0.8736124E-005  0.1031160E+03  0.7546771E-02  0.1276458E+00
         -4   -1    0    0    0  501 -0.00000000000E+00  0.00000000000E+00  0.10525036070E+03  0.10525036070E+03  0.00000000000E+00 0.  1.
         21   -1    0    0  501  502  0.00000000000E+00 -0.00000000000E+00 -0.48460804323E+03  0.48460804323E+03  0.00000000000E+00 0.  1.
        -24    2    1    2    0    0 -0.27149764341E+02  0.42924598993E+02  0.63876698457E+02  0.11772632326E+03  0.84850596225E+02 0.  0.
         23    2    1    2    0    0  0.57086742467E+02  0.17941453008E+01 -0.32608534701E+03  0.34321394808E+03  0.90565145054E+02 0.  0.
         11    1    3    3    0    0 -0.34124696138E+02 -0.96864216272E+01  0.10556443342E+01  0.35488533859E+02  0.00000000000E+00 0. -1.
        -12    1    3    3    0    0  0.69749317978E+01  0.52611020620E+02  0.62821054123E+02  0.82237789400E+02  0.00000000000E+00 0.  1.
        -13    1    4    4    0    0  0.51045876055E+02  0.41997375444E+02 -0.21444329320E+03  0.22440006017E+03  0.00000000000E+00 0.  1.
         13    1    4    4    0    0  0.60408664120E+01 -0.40203230143E+02 -0.11164205381E+03  0.11881388791E+03  0.00000000000E+00 0. -1.
         -3    1    1    2    0  502 -0.29936978127E+02 -0.44718744294E+02 -0.11714903397E+03  0.12891813259E+03  0.00000000000E+00 0.  1.
<scales pt_clust_5="13000.00000" pt_clust_6="13000.00000" pt_clust_7="13000.00000" pt_clust_8="13000.00000" pt_clust_9="53.81439"></scales>
<clustering>
<clus scale="   53.814">  2  9  1 -1</clus>
<clus scale="   84.851">  5  6 -1 -1</clus>
<clus scale="   90.565">  7  8 -1 -1</clus>
<clus scale="   98.135">  1  5  2 -1</clus>
<clus scale="   53.814">  2  5  1 -1</clus>
</clustering>
</event>
<event>
 9    1  0.6270443E-005  0.1307447E+03  0.7546771E-02  0.1233756E+00
          1   -1    0    0  502    0 -0.00000000000E+00  0.00000000000E+00  0.37416512543E+02  0.37416512543E+02  0.00000000000E+00 0. -1.
         21   -1    0    0  501  502  0.00000000000E+00 -0.00000000000E+00 -0.12101819839E+04  0.12101819839E+04  0.00000000000E+00 0. -1.
        -24    2    1    2    0    0  0.90441480879E+02  0.17149019255E+02 -0.10922029541E+03  0.16370775590E+03  0.79983786411E+02 0.  0.
         23    2    1    2    0    0 -0.15387856879E+02 -0.55800124909E+02 -0.49966112504E+03  0.51372218887E+03  0.10439735332E+03 0.  0.
         13    1    3    3    0    0  0.17273830800E+02  0.13325150412E+02  0.98218864772E+01  0.23925181671E+02  0.00000000000E+00 0. -1.
        -14    1    3    3    0    0  0.73167650079E+02  0.38238688435E+01 -0.11904218188E+03  0.13978257423E+03  0.00000000000E+00 0.  1.
        -11    1    4    4    0    0  0.29576958845E+02 -0.64490113390E+02 -0.35367579822E+03  0.36072197253E+03  0.00000000000E+00 0. -1.
         11    1    4    4    0    0 -0.44964815724E+02  0.86899884817E+01 -0.14598532682E+03  0.15300021634E+03  0.00000000000E+00 0.  1.
          2    1    1    2  501    0 -0.75053624000E+02  0.38651105653E+02 -0.56388405088E+03  0.57016855164E+03  0.00000000000E+00 0. -1.
<scales pt_clust_5="13000.00000" pt_clust_6="13000.00000" pt_clust_7="13000.00000" pt_clust_8="13000.00000" pt_clust_9="84.42129"></scales>
<clustering>
<clus scale="   79.984">  5  6 -1 -1</clus>
<clus scale="   84.421">  2  9  1 -1</clus>
<clus scale="  104.397">  7  8 -1 -1</clus>
<clus scale="  112.217">  1  5  2 -1</clus>
<clus scale="   84.421">  2  5  1 -1</clus>
</clustering>
</event>
<event>
 9    1  0.6270443E-005  0.9820803E+02  0.7546771E-02  0.1294300E+00
         -4   -1    0    0    0  501 -0.00000000000E+00  0.00000000000E+00  0.31837981273E+03  0.31837981273E+03  0.00000000000E+00 0.  1.
         21   -1    0    0  501  502  0.00000000000E+00 -0.00000000000E+00 -0.62846644365E+02  0.62846644365E+02  0.00000000000E+00 0.  1.
         23    2    1    2    0    0  0.13862309983E+02  0.46745304807E+01  0.25679610333E+03  0.27511075344E+03  0.97609800230E+02 0.  0.
        -24    2    1    2    0    0  0.10526448489E+02 -0.70224203176E+01 -0.38339743006E+01  0.81479665621E+02  0.80399726653E+02 0.  0.
         13    1    4    4    0    0  0.23540283006E+02  0.30579416610E+02 -0.12862814089E+02  0.40677974760E+02  0.00000000000E+00 0. -1.
        -14    1    4    4    0    0 -0.13013834518E+02 -0.37601836928E+02  0.90288397888E+01  0.40801690861E+02  0.00000000000E+00 0.  1.
        -13    1    3    3    0    0 -0.14489409082E+02 -0.31583458997E+02  0.37860846172E+02  0.51389702573E+02  0.00000000000E+00 0. -1.
         13    1    3    3    0    0  0.28351719065E+02  0.36257989478E+02  0.21893525716E+03  0.22372105087E+03  0.00000000000E+00 0.  1.
         -3    1    1    2    0  502 -0.24388758472E+02  0.23478898369E+01  0.25710393313E+01  0.24636038028E+02  0.00000000000E+00 0.  1.
<scales pt_clust_5="13000.00000" pt_clust_6="13000.00000" pt_clust_7="13000.00000" pt_clust_8="13000.00000" pt_clust_9="24.50151"></scales>
<clustering>
<clus scale="   24.502">  2  9  1 -1</clus>
<clus scale="   80.400">  5  6 -1 -1</clus>
<clus scale="   81.125">  2  5  1 -1</clus>
<clus scale="   97.610">  7  8 -1 -1</clus>
<clus scale="   24.502">  2  5  1 -1</clus>
</clustering>
</event>
<event>
 9    1  0.6270443E-005  0.1825956E+03  0.7546771E-02  0.1166399E+00
         21   -1    0    0  501  502  0.00000000000E+00  0.00000000000E+00  0.70262944383E+03  0.70262944383E+03  0.00000000000E+00 0.  1.
          1   -1    0    0  502    0 -0.00000000000E+00 -0.00000000000E+00 -0.61293050756E+02  0.61293050756E+02  0.00000000000E+00 0. -1.
         23    2    1    2    0    0 -0.29580044078E+02  0.15926983073E+03  0.17020421879E+03  0.25177730968E+03  0.90446003735E+02 0.  0.
        -24    2    1    2    0    0  0.27865210537E+01 -0.15325675042E+03  0.40541863345E+03  0.44092496684E+03  0.80963953641E+02 0.  0.
         11    1    4    4    0    0 -0.37988581934E+02 -0.60111729348E+02  0.14960938905E+03  0.16564879008E+03  0.00000000000E+00 0. -1.
        -12    1    4    4    0    0  0.40775102988E+02 -0.93145021069E+02  0.25580924439E+03  0.27527617676E+03  0.00000000000E+00 0.  1.
        -13    1    3    3    0    0 -0.27021123500E+02  0.13399978250E+02  0.65777941723E+02  0.72363237556E+02  0.00000000000E+00 0.  1.
         13    1    3    3    0    0 -0.25589205778E+01  0.14586985248E+03  0.10442627706E+03  0.17941407213E+03  0.00000000000E+00 0. -1.
          2    1    1    2  501    0  0.26793523024E+02 -0.60130803091E+01  0.65713540841E+02  0.71220218062E+02  0.00000000000E+00 0. -1.
<scales pt_clust_5="13000.00000" pt_clust_6="13000.00000" pt_clust_7="13000.00000" pt_clust_8="13000.00000" pt_clust_9="27.45997"></scales>
<clustering>
<clus scale="   27.460">  1  9  2 -1</clus>
<clus scale="   80.964">  5  6 -1 -1</clus>
<clus scale="   90.446">  7  8 -1 -1</clus>
<clus scale="  178.089">  1  5  2 -1</clus>
<clus scale="   27.460">  1  5  2 -1</clus>
</clustering>
</event>
<event>
 9    1  0.6270443E-005  0.1106756E+03  0.7546771E-02  0.1261419E+00
         21   -1    0    0  501  502  0.00000000000E+00  0.00000000000E+00  0.52868633198E+02  0.52868633198E+02  0.00000000000E+00 0. -1.
          1   -1    0    0  502    0 -0.00000000000E+00 -0.00000000000E+00 -0.72784533007E+03  0.72784533007E+03  0.00000000000E+00 0. -1.
        -24    2    1    2    0    0 -0.58121571617E+01  0.35139331967E+02 -0.22522605094E+03  0.24211580434E+03  0.81392474285E+02 0.  0.
         23    2    1    2    0    0 -0.47898432708E+01 -0.11259413619E+03 -0.43668998405E+03  0.45933763913E+03  0.87135196347E+02 0.  0.
         13    1    3    3    0    0  0.37484984775E+02  0.10124774375E+02 -0.10043982588E+03  0.10768376740E+03  0.00000000000E+00 0. -1.
        -14    1    3    3    0    0 -0.43297141937E+02  0.25014557591E+02 -0.12478622506E+03  0.13443203694E+03  0.00000000000E+00 0.  1.
        -11    1    4    4    0    0  0.26422464649E+02 -0.71897215857E+02 -0.15360974975E+03  0.17164880280E+03  0.00000000000E+00 0.  1.
         11    1    4    4    0    0 -0.31212307920E+02 -0.40696920332E+02 -0.28308023431E+03  0.28768883632E+03  0.00000000000E+00 0. -1.
          2    1    1    2  501    0  0.10602000433E+02  0.77454804222E+02 -0.13060661884E+02  0.79260519801E+02  0.00000000000E+00 0. -1.
<scales pt_clust_5="13000.00000" pt_clust_6="13000.00000" pt_clust_7="13000.00000" pt_clust_8="13000.00000" pt_clust_9="78.17704"></scales>
<clustering>
<clus scale="   78.177">  1  9  2 -1</clus>
<clus scale="   81.392">  5  6 -1 -1</clus>
<clus scale="   87.135">  7  8 -1 -1</clus>
<clus scale="  106.213">  2  5  1 -1</clus>
<clus scale="   78.177">  1  5  2 -1</clus>
</clustering>
</event>
<event>
 9    1  0.6270443E-005  0.1109175E+03  0.7546771E-02  0.1264170E+00
         21   -1    0    0  501  502  0.00000000000E+00  0.00000000000E+00  0.13797080030E+03  0.13797080030E+03  0.00000000000E+00 0.  1.
         -4   -1    0    0    0  501 -0.00000000000E+00 -0.00000000000E+00 -0.26236455085E+03  0.26236455085E+03  0.00000000000E+00 0.  1.
         23    2    1    2    0    0  0.12838282845E+02  0.62604984968E+02 -0.21928928202E+03  0.24645009391E+03  0.92550818072E+02 0.  0.
        -24    2    1    2    0    0 -0.23550712771E+02 -0.35766221011E+02  0.83731210332E+02  0.12290595008E+03  0.79127102459E+02 0.  0.
         13    1    4    4    0    0 -0.23544070118E+02 -0.57817397729E+02  0.40610598806E+02  0.74474126066E+02  0.00000000000E+00 0. -1.
        -14    1    4    4    0    0 -0.66426526675E-02  0.22051176718E+02  0.43120611526E+02  0.48431824013E+02  0.00000000000E+00 0.  1.
        -11    1    3    3    0    0  0.21184334080E+02  0.84179361703E+02 -0.14887160190E+03  0.17233019120E+03  0.00000000000E+00 0.  1.
         11    1    3    3    0    0 -0.83460512350E+01 -0.21574376735E+02 -0.70417680128E+02  0.74119902707E+02  0.00000000000E+00 0. -1.
         -3    1    1    2    0  502  0.10712429926E+02 -0.26838763957E+02  0.11164321152E+02  0.30979307165E+02  0.00000000000E+00 0.  1.
<scales pt_clust_5="13000.00000" pt_clust_6="13000.00000" pt_clust_7="13000.00000" pt_clust_8="13000.00000" pt_clust_9="28.89767"></scales>
<clustering>
<clus scale="   28.898">  1  9  2 -1</clus>
<clus scale="   79.127">  5  6 -1 -1</clus>
<clus scale="   92.551">  7  8 -1 -1</clus>
<clus scale="   99.991">  1  5  2 -1</clus>
<clus scale="   28.898">  1  5  2 -1</clus>
</clustering>
</event>
<event>
 9    1  0.6270443E-005  0.9490304E+02  0.7546771E-02  0.1293811E+00
          1   -1    0    0  502    0 -0.00000000000E+00  0.00000000000E+00  0.16190138609E+03  0.16190138609E+03  0.00000000000E+00 0. -1.
         21   -1    0    0  501  502  0.00000000000E+00 -0.00000000000E+00 -0.98196087008E+02  0.98196087008E+02  0.00000000000E+00 0.  1.
        -24    2    1    2    0    0 -0.26484981943E+02 -0.34674086104E+02  0.82332199918E+02  0.12554419873E+03  0.84136841957E+02 0.  0.
         23    2    1    2    0    0 -0.29174481631E+01  0.94921706699E+01 -0.30182570586E+02  0.94153209219E+02  0.88629715284E+02 0.  0.
         13    1    3    3    0    0 -0.46671606888E+02  0.46184431440E+01  0.59671448337E+02  0.75896315149E+02  0.00000000000E+00 0. -1.
        -14    1    3    3    0    0  0.20186624944E+02 -0.39292529248E+02  0.22660751581E+02  0.49647883576E+02  0.00000000000E+00 0.  1.
        -11    1    4    4    0    0 -0.29579121871E+02 -0.28303237915E+02 -0.43346027228E+01  0.41167784831E+02  0.00000000000E+00 0. -1.
         11    1    4    4    0    0  0.26661673708E+02  0.37795408584E+02 -0.25847967863E+02  0.52985424388E+02  0.00000000000E+00 0.  1.
          2    1    1    2  501    0  0.29402430107E+02  0.25181915435E+02  0.11555669750E+02  0.40400065154E+02  0.00000000000E+00 0. -1.
<scales pt_clust_5="13000.00000" pt_clust_6="13000.00000" pt_clust_7="13000.00000" pt_clust_8="13000.00000" pt_clust_9="38.71218"></scales>
<clustering>
<clus scale="   38.712">  2  9  1 -1</clus>
<clus scale="   84.137">  5  6 -1 -1</clus>
<clus scale="   88.630">  7  8 -1 -1</clus>
<clus scale="   90.721">  1  5  2 -1</clus>
<clus scale="   38.712">  2  5  1 -1</clus>
</clustering>
</event>
<event>
 9    1  0.6270443E-005  0.1086182E+03  0.7546771E-02  0.1265538E+00
          1   -1    0    0  502    0 -0.00000000000E+00  0.00000000000E+00  0.60850058393E+03  0.60850058393E+03  0.00000000000E+00 0. -1.
         21   -1    0    0  501  502  0.00000000000E+00 -0.00000000000E+00 -0.42678647087E+02  0.42678647087E+02  0.00000000000E+00 0. -1.
        -24    2    1    2    0    0  0.10638547327E+02 -0.35325014788E+02  0.20233004176E+03  0.22221428578E+03  0.84146940815E+02 0.  0.
         23    2    1    2    0    0 -0.99508591195E+00  0.11543125556E+03  0.21896566201E+03  0.26344202173E+03  0.90168579441E+02 0.  0.
         13    1    3    3    0    0  0.20749078464E+02 -0.60616464950E+02  0.15280868002E+03  0.16569662872E+03  0.00000000000E+00 0. -1.
        -14    1    3    3    0    0 -0.10110531137E+02  0.25291450162E+02  0.49521361735E+02  0.56517657058E+02  0.00000000000E+00 0.  1.
        -11    1    4    4    0    0  0.26068560201E+02  0.23701658842E+02  0.12304133032E+03  0.12798635642E+03  0.00000000000E+00 0.  1.
         11    1    4    4    0    0 -0.27063646113E+02  0.91729596717E+02  0.95924331692E+02  0.13545566531E+03  0.00000000000E+00 0. -1.
          2    1    1    2  501    0 -0.96434614155E+01 -0.80106240771E+02  0.14452623307E+03  0.16552292350E+03  0.00000000000E+00 0. -1.
<scales pt_clust_5="13000.00000" pt_clust_6="13000.00000" pt_clust_7="13000.00000" pt_clust_8="13000.00000" pt_clust_9="80.68465"></scales>
<clustering>
<clus scale="   80.685">  2  9  1 -1</clus>
<clus scale="   84.147">  5  6 -1 -1</clus>
<clus scale="   90.169">  7  8 -1 -1</clus>
<clus scale="  103.674">  1  5  2 -1</clus>
<clus scale="   80.685">  2  5  1 -1</clus>
</clustering>
</event>
<event>
 9    1  0.6270443E-005  0.1944427E+03  0.7546771E-02  0.1157162E+00
         21   -1    0    0  501  502  0.00000000000E+00  0.00000000000E+00  0.10385921142E+04  0.10385921142E+04  0.00000000000E+00 0. -1.
          1   -1    0    0  502    0 -0.00000000000E+00 -0.00000000000E+00 -0.35749762110E+03  0.35749762110E+03  0.00000000000E+00 0. -1.
         23    2    1    2    0    0 -0.14791718682E+03 -0.14910383833E+03 -0.22027232482E+03  0.32355726620E+03  0.10980873678E+03 0.  0.
        -24    2    1    2    0    0  0.45834407290E+02  0.98086696011E+02 -0.23088722069E+02  0.14105960953E+03  0.87423861314E+02 0.  0.
         11    1    4    4    0    0  0.58081289214E+02  0.33617731879E+02 -0.32846845259E+02  0.74716151513E+02  0.00000000000E+00 0. -1.
        -12    1    4    4    0    0 -0.12246881923E+02  0.64468964132E+02  0.97581231900E+01  0.66343458014E+02  0.00000000000E+00 0.  1.
        -13    1    3    3    0    0 -0.22192196964E+02 -0.35133794330E+02 -0.11875475317E+03  0.12581561314E+03  0.00000000000E+00 0.  1.
         13    1    3    3    0    0 -0.12572498985E+03 -0.11397004400E+03 -0.10151757165E+03  0.19774165306E+03  0.00000000000E+00 0. -1.
          2    1    1    2  501    0  0.10208277953E+03  0.51017142316E+02  0.92445553999E+03  0.93147285956E+03  0.00000000000E+00 0. -1.
<scales pt_clust_5="13000.00000" pt_clust_6="13000.00000" pt_clust_7="13000.00000" pt_clust_8="13000.00000" pt_clust_9="114.12118"></scales>
<clustering>
<clus scale="   87.424">  5  6 -1 -1</clus>
<clus scale="  109.809">  7  8 -1 -1</clus>
<clus scale="  114.121">  1  9  2 -1</clus>
<clus scale="  182.737">  1  5  2 -1</clus>
<clus scale="  114.121">  1  5  2 -1</clus>
</clustering>
</event>
<event>
 9    1  0.6270443E-005  0.1738306E+03  0.7546771E-02  0.1175702E+00
          1   -1    0    0  502    0 -0.00000000000E+00  0.00000000000E+00  0.18823826288E+03  0.18823826288E+03  0.00000000000E+00 0. -1.
         21   -1    0    0  501  502  0.00000000000E+00 -0.00000000000E+00 -0.23774777188E+03  0.23774777188E+03  0.00000000000E+00 0.  1.
         23    2    1    2    0    0 -0.16239111457E+03 -0.18966648688E+02  0.66698593040E+02  0.19966741764E+03  0.93208194370E+02 0.  0.
        -24    2    1    2    0    0  0.11033116424E+03  0.31558325159E+02 -0.94050208239E+02  0.16835517173E+03  0.79555819947E+02 0.  0.
         11    1    4    4    0    0  0.97952530944E+02  0.54777143810E+02 -0.67440703293E+02  0.13093312134E+03  0.00000000000E+00 0. -1.
        -12    1    4    4    0    0  0.12378633298E+02 -0.23218818652E+02 -0.26609504946E+02  0.37422050390E+02  0.00000000000E+00 0.  1.
        -11    1    3    3    0    0 -0.69488149434E+02  0.37805019056E+02  0.23366104146E+02  0.82485133209E+02  0.00000000000E+00 0.  1.
         11    1    3    3    0    0 -0.92902965138E+02 -0.56771667743E+02  0.43332488895E+02  0.11718228443E+03  0.00000000000E+00 0. -1.
          2    1    1    2  501    0  0.52059950331E+02 -0.12591676471E+02 -0.22157893805E+02  0.57963445401E+02  0.00000000000E+00 0. -1.
<scales pt_clust_5="13000.00000" pt_clust_6="13000.00000" pt_clust_7="13000.00000" pt_clust_8="13000.00000" pt_clust_9="53.56107"></scales>
<clustering>
<clus scale="   53.561">  2  9  1 -1</clus>
<clus scale="   79.556">  5  6 -1 -1</clus>
<clus scale="   93.208">  7  8 -1 -1</clus>
<clus scale="  166.908">  2  5  1 -1</clus>
<clus scale="   53.561">  2  5  1 -1</clus>
</clustering>
</event>
<event>
 9    1  0.6270443E-005  0.2518509E+03  0.7546771E-02  0.1156594E+00
         21   -1    0    0  501  502  0.00000000000E+00  0.00000000000E+00  0.32889983580E+03  0.32889983580E+03  0.00000000000E+00 0. -1.
          1   -1    0    0  502    0 -0.00000000000E+00 -0.00000000000E+00 -0.56647254075E+03  0.56647254075E+03  0.00000000000E+00 0. -1.
        -24    2    1    2    0    0 -0.13812492486E+02 -0.20238291344E+02 -0.36914190157E+03  0.37885130571E+03  0.81622269976E+02 0.  0.
         23    2    1    2    0    0 -0.22411367047E+03 -0.22281109828E+02  0.23232209796E+01  0.24243845426E+03  0.89708536955E+02 0.  0.
         13    1    3    3    0    0 -0.45316806541E+02 -0.10711802717E+02 -0.27961915926E+03  0.28346998059E+03  0.00000000000E+00 0. -1.
        -14    1    3    3    0    0  0.31504314056E+02 -0.95264886269E+01 -0.89522742313E+02  0.95381325116E+02  0.00000000000E+00 0.  1.
        -13    1    4    4    0    0 -0.20157427934E+03 -0.31147951317E+02  0.29439213011E+02  0.20608020823E+03  0.00000000000E+00 0. -1.
         13    1    4    4    0    0 -0.22539391129E+02  0.88668414884E+01 -0.27115992031E+02  0.36358246029E+02  0.00000000000E+00 0.  1.
          2    1    1    2  501    0  0.23792616295E+03  0.42519401172E+02  0.12924597564E+03  0.27408261658E+03  0.00000000000E+00 0. -1.
<scales pt_clust_5="13000.00000" pt_clust_6="13000.00000" pt_clust_7="13000.00000" pt_clust_8="13000.00000" pt_clust_9="235.33223"></scales>
<clustering>
<clus scale="   81.622">  5  6 -1 -1</clus>
<clus scale="   85.221">  2  5  1 -1</clus>
<clus scale="   89.709">  7  8 -1 -1</clus>
<clus scale="  235.332">  1  9  2 -1</clus>
<clus scale="  235.332">  1  5  2 -1</clus>
</clustering>
</event>
<event>
 9    1  0.6270443E-005  0.1528063E+03  0.7546771E-02  0.1197466E+00
         21   -1    0    0  501  502  0.00000000000E+00  0.00000000000E+00  0.40031223351E+02  0.40031223351E+02  0.00000000000E+00 0. -1.
          1   -1    0    0  502    0 -0.00000000000E+00 -0.00000000000E+00 -0.96005925233E+03  0.96005925233E+03  0.00000000000E+00 0. -1.
         23    2    1    2    0    0  0.10610128879E+03  0.81963371377E+02 -0.71342582380E+03  0.73063797426E+03  0.82945558292E+02 0.  0.
        -24    2    1    2    0    0 -0.83994001591E+02 -0.69068261617E+02 -0.12594939330E+03  0.18483635600E+03  0.80472428559E+02 0.  0.
         13    1    4    4    0    0  0.10294241631E+02 -0.32596505820E+02 -0.32300548252E+02  0.47030086326E+02  0.00000000000E+00 0. -1.
        -14    1    4    4    0    0 -0.94288243222E+02 -0.36471755796E+02 -0.93648845053E+02  0.13780626967E+03  0.00000000000E+00 0.  1.
        -11    1    3    3    0    0  0.63364777329E+02  0.30285523227E+01 -0.21379064039E+03  0.22300382296E+03  0.00000000000E+00 0.  1.
         11    1    3    3    0    0  0.42736511458E+02  0.78934819054E+02 -0.49963518341E+03  0.50763415130E+03  0.00000000000E+00 0. -1.
          2    1    1    2  501    0 -0.22107287196E+02 -0.12895109760E+02 -0.80652811878E+02  0.84616145426E+02  0.00000000000E+00 0. -1.
<scales pt_clust_5="13000.00000" pt_clust_6="13000.00000" pt_clust_7="13000.00000" pt_clust_8="13000.00000" pt_clust_9="25.59329"></scales>
<clustering>
<clus scale="   25.593">  1  9  2 -1</clus>
<clus scale="   80.472">  5  6 -1 -1</clus>
<clus scale="   82.946">  7  8 -1 -1</clus>
<clus scale="  151.478">  1  5  2 -1</clus>
<clus scale="   25.593">  1  5  2 -1</clus>
</clustering>
</event>
<event>
 9    1  0.6270443E-005  0.1021138E+03  0.7546771E-02  0.1280866E+00
          1   -1    0    0  502    0 -0.00000000000E+00  0.00000000000E+00  0.12184682033E+03  0.12184682033E+03  0.00000000000E+00 0. -1.
         21   -1    0    0  501  502  0.00000000000E+00 -0.00000000000E+00 -0.22703679167E+03  0.22703679167E+03  0.00000000000E+00 0.  1.
         23    2    1    2    0    0 -0.31651966986E+02 -0.37217720496E+02  0.75191541962E+02  0.12806602718E+03  0.91433766200E+02 0.  0.
        -24    2    1    2    0    0  0.73491463334E+01  0.34908248960E+02 -0.86339903948E+02  0.12365902864E+03  0.81020864928E+02 0.  0.
         13    1    4    4    0    0  0.16536062728E+02  0.19138094696E+02  0.88036277647E+01  0.26780812179E+02  0.00000000000E+00 0. -1.
        -14    1    4    4    0    0 -0.91869163942E+01  0.15770154264E+02 -0.95143531713E+02  0.96878216464E+02  0.00000000000E+00 0.  1.
        -13    1    3    3    0    0 -0.28788527183E+02 -0.88484278961E+00 -0.13772896699E+02  0.31925772154E+02  0.00000000000E+00 0.  1.
         13    1    3    3    0    0 -0.28634398031E+01 -0.36332877706E+02  0.88964438661E+02  0.96140255024E+02  0.00000000000E+00 0. -1.
          2    1    1    2  501    0  0.24302820653E+02  0.23094715359E+01 -0.94041609349E+02  0.97158556182E+02  0.00000000000E+00 0. -1.
<scales pt_clust_5="13000.00000" pt_clust_6="13000.00000" pt_clust_7="13000.00000" pt_clust_8="13000.00000" pt_clust_9="24.41231"></scales>
<clustering>
<clus scale="   24.412">  2  9  1 -1</clus>
<clus scale="   81.021">  5  6 -1 -1</clus>
<clus scale="   91.434">  7  8 -1 -1</clus>
<clus scale="   92.906">  2  5  1 -1</clus>
<clus scale="   24.412">  2  5  1 -1</clus>
</clustering>
</event>
<event>
 9    1  0.6270443E-005  0.1418010E+03  0.7546771E-02  0.1232153E+00
         21   -1    0    0  501  502  0.00000000000E+00  0.00000000000E+00  0.10905547556E+03  0.10905547556E+03  0.00000000000E+00 0. -1.
          3   -1    0    0  502    0 -0.00000000000E+00 -0.00000000000E+00 -0.30647294694E+03  0.30647294694E+03  0.00000000000E+00 0. -1.
        -24    2    1    2    0    0 -0.14638803932E+02  0.52008518016E+02 -0.61842930097E+02  0.10994798408E+03  0.73108348870E+02 0.  0.
         23    2    1    2    0    0  0.11182339403E+03  0.33567192948E+02 -0.10437327083E+03  0.17238296795E+03  0.72047762478E+02 0.  0.
         11    1    3    3    0    0 -0.30863051634E+02  0.54043574658E+02 -0.68269122485E+02  0.92379158920E+02  0.00000000000E+00 0. -1.
        -12    1    3    3    0    0  0.16224247702E+02 -0.20350566422E+01  0.64261923878E+01  0.17568825164E+02  0.00000000000E+00 0.  1.
        -11    1    4    4    0    0  0.68100772713E+02  0.48101089632E+02 -0.38102411940E+02  0.91669099829E+02  0.00000000000E+00 0.  1.
         11    1    4    4    0    0  0.43722621319E+02 -0.14533896684E+02 -0.66270858894E+02  0.80713868117E+02  0.00000000000E+00 0. -1.
          4    1    1    2  501    0 -0.97184590100E+02 -0.85575710964E+02 -0.31201270447E+02  0.13319747046E+03  0.00000000000E+00 0. -1.
<scales pt_clust_5="13000.00000" pt_clust_6="13000.00000" pt_clust_7="13000.00000" pt_clust_8="13000.00000" pt_clust_9="122.13369"></scales>
<clustering>
<clus scale="   72.048">  7  8 -1 -1</clus>
<clus scale="   73.108">  5  6 -1 -1</clus>
<clus scale="   90.907">  2  5  1 -1</clus>
<clus scale="  122.134">  1  9  2 -1</clus>
<clus scale="  122.134">  1  5  2 -1</clus>
</clustering>
</event>
<event>
 9    1  0.6270443E-005  0.2242258E+03  0.7546771E-02  0.1130829E+00
         21   -1    0    0  501  502  0.00000000000E+00  0.00000000000E+00  0.36203139923E+03  0.36203139923E+03  0.00000000000E+00 0. -1.
          1   -1    0    0  502    0 -0.00000000000E+00 -0.00000000000E+00 -0.69098969728E+03  0.69098969728E+03  0.00000000000E+00 0. -1.
         23    2    1    2    0    0 -0.12502111926E+03 -0.17336318938E+03 -0.62151564052E+03  0.66231860427E+03  0.81848435849E+02 0.  0.
        -24    2    1    2    0    0  0.74344395643E+02  0.14584985695E+03  0.14802326562E+03  0.23509011115E+03  0.80976559952E+02 0.  0.
         11    1    4    4    0    0 -0.17166583895E+02  0.27436636047E+02  0.34063145557E+02  0.46986790542E+02  0.00000000000E+00 0. -1.
        -12    1    4    4    0    0  0.91510979537E+02  0.11841322090E+03  0.11396012007E+03  0.18810332061E+03  0.00000000000E+00 0.  1.
        -11    1    3    3    0    0  0.40896983608E+01 -0.48634686962E+02 -0.11485133746E+03  0.12479137841E+03  0.00000000000E+00 0.  1.
         11    1    3    3    0    0 -0.12911081762E+03 -0.12472850242E+03 -0.50666430306E+03  0.53752722586E+03  0.00000000000E+00 0. -1.
          2    1    1    2  501    0  0.50676723615E+02  0.27513332433E+02  0.14453407685E+03  0.15561238109E+03  0.00000000000E+00 0. -1.
<scales pt_clust_5="13000.00000" pt_clust_6="13000.00000" pt_clust_7="13000.00000" pt_clust_8="13000.00000" pt_clust_9="57.66380"></scales>
<clustering>
<clus scale="   57.664">  1  9  2 -1</clus>
<clus scale="   80.977">  5  6 -1 -1</clus>
<clus scale="   81.848">  7  8 -1 -1</clus>
<clus scale="  223.909">  1  5  2 -1</clus>
<clus scale="   57.664">  1  5  2 -1</clus>
</clustering>
</event>
<event>
 9    1  0.6270443E-005  0.1230433E+03  0.7546771E-02  0.1243356E+00
          1   -1    0    0  502    0 -0.00000000000E+00  0.00000000000E+00  0.78283168515E+03  0.78283168515E+03  0.00000000000E+00 0. -1.
         21   -1    0    0  501  502  0.00000000000E+00 -0.00000000000E+00 -0.86817102611E+02  0.86817102611E+02  0.00000000000E+00 0. -1.
        -24    2    1    2    0    0  0.91900611446E+02 -0.19538828535E+02  0.54255480312E+03  0.55620385449E+03  0.78546324956E+02 0.  0.
         23    2    1    2    0    0 -0.45758167883E+02 -0.46082562010E+02  0.19242743709E+03  0.22426102027E+03  0.95117160483E+02 0.  0.
         13    1    3    3    0    0  0.88058552060E+02  0.11806420586E+02  0.35138689670E+03  0.36244510112E+03  0.00000000000E+00 0. -1.
        -14    1    3    3    0    0  0.38420593854E+01 -0.31345249120E+02  0.19116790642E+03  0.19375875337E+03  0.00000000000E+00 0.  1.
        -11    1    4    4    0    0 -0.90570600017E+01  0.18224262452E+02  0.26147603437E+01  0.20518066416E+02  0.00000000000E+00 0.  1.
         11    1    4    4    0    0 -0.36701107882E+02 -0.64306824461E+02  0.18981267674E+03  0.20374295385E+03  0.00000000000E+00 0. -1.
          2    1    1    2  501    0 -0.46142443562E+02  0.65621390545E+02 -0.38967657661E+02  0.89183913003E+02  0.00000000000E+00 0. -1.
<scales pt_clust_5="13000.00000" pt_clust_6="13000.00000" pt_clust_7="13000.00000" pt_clust_8="13000.00000" pt_clust_9="80.22027"></scales>
<clustering>
<clus scale="   78.546">  5  6 -1 -1</clus>
<clus scale="   80.220">  2  9  1 -1</clus>
<clus scale="   95.117">  7  8 -1 -1</clus>
<clus scale="  110.733">  1  5  2 -1</clus>
<clus scale="   80.220">  2  5  1 -1</clus>
</clustering>
</event>
<event>
 9    1  0.6270443E-005  0.1152823E+03  0.7546771E-02  0.1253062E+00
          1   -1    0    0  502    0 -0.00000000000E+00  0.00000000000E+00  0.22127508859E+03  0.22127508859E+03  0.00000000000E+00 0. -1.
         21   -1    0    0  501  502  0.00000000000E+00 -0.00000000000E+00 -0.11924225280E+03  0.11924225280E+03  0.00000000000E+00 0.  1.
         23    2    1    2    0    0  0.33382096421E+02 -0.72317648284E+02  0.15329983111E+03  0.19299408669E+03  0.86032974284E+02 0.  0.
        -24    2    1    2    0    0 -0.85837185770E+01  0.65433532007E+02 -0.60650065958E+02  0.12012995963E+03  0.79984682063E+02 0.  0.
         11    1    4    4    0    0 -0.41215247798E+02  0.38676604555E+02 -0.52519551826E+02  0.77154907264E+02  0.00000000000E+00 0. -1.
        -12    1    4    4    0    0  0.32631529221E+02  0.26756927452E+02 -0.81305141326E+01  0.42975052367E+02  0.00000000000E+00 0.  1.
        -13    1    3    3    0    0  0.14082185723E+02 -0.18426688390E+02 -0.58033611684E+01  0.23906689454E+02  0.00000000000E+00 0.  1.
         13    1    3    3    0    0  0.19299910697E+02 -0.53890959894E+02  0.15910319227E+03  0.16908739723E+03  0.00000000000E+00 0. -1.
          2    1    1    2  501    0 -0.24798377844E+02  0.68841162778E+01  0.93830706413E+01  0.27393295079E+02  0.00000000000E+00 0. -1.
<scales pt_clust_5="13000.00000" pt_clust_6="13000.00000" pt_clust_7="13000.00000" pt_clust_8="13000.00000" pt_clust_9="25.73619"></scales>
<clustering>
<clus scale="   25.736">  2  9  1 -1</clus>
<clus scale="   79.985">  5  6 -1 -1</clus>
<clus scale="   86.033">  7  8 -1 -1</clus>
<clus scale="  110.842">  2  5  1 -1</clus>
<clus scale="   25.736">  2  5  1 -1</clus>
</clustering>
</event>
<event>
 9    1  0.6270443E-005  0.1040597E+03  0.7546771E-02  0.1275750E+00
          1   -1    0    0  502    0 -0.00000000000E+00  0.00000000000E+00  0.22852524036E+03  0.22852524036E+03  0.00000000000E+00 0. -1.
         21   -1    0    0  501  502  0.00000000000E+00 -0.00000000000E+00 -0.18176869737E+03  0.18176869737E+03  0.00000000000E+00 0.  1.
        -24    2    1    2    0    0 -0.36495047598E+02 -0.67652764465E+02  0.30916818634E+01  0.11307316760E+03  0.82868556740E+02 0.  0.
         23    2    1    2    0    0  0.33965235611E+02 -0.30338135254E+02 -0.86877812801E+02  0.13397247429E+03  0.91251464801E+02 0.  0.
         13    1    3    3    0    0 -0.90218952293E+01 -0.29351010523E+02  0.41948391393E+02  0.51985997660E+02  0.00000000000E+00 0. -1.
        -14    1    3    3    0    0 -0.27473152369E+02 -0.38301753943E+02 -0.38856709530E+02  0.61087169943E+02  0.00000000000E+00 0.  1.
        -13    1    4    4    0    0 -0.26592811414E+02 -0.28755188090E+02 -0.20870519579E+02  0.44380367827E+02  0.00000000000E+00 0. -1.
         13    1    4    4    0    0  0.60558047025E+02 -0.15829471643E+01 -0.66007293222E+02  0.89592106459E+02  0.00000000000E+00 0.  1.
          2    1    1    2  501    0  0.25298119872E+01  0.97990899719E+02  0.13054267394E+03  0.16324829584E+03  0.00000000000E+00 0. -1.
<scales pt_clust_5="13000.00000" pt_clust_6="13000.00000" pt_clust_7="13000.00000" pt_clust_8="13000.00000" pt_clust_9="98.02360"></scales>
<clustering>
<clus scale="   82.869">  5  6 -1 -1</clus>
<clus scale="   91.251">  7  8 -1 -1</clus>
<clus scale="   98.024">  2  9  1 -1</clus>
<clus scale="   96.792">  1  5  2 -1</clus>
<clus scale="   98.024">  2  5  1 -1</clus>
</clustering>
</event>
<event>
 9    1  0.2172809E-004  0.1060228E+03  0.7546771E-02  0.1274779E+00
         -2   -1    0    0    0  501 -0.00000000000E+00  0.00000000000E+00  0.14685363416E+04  0.14685363416E+04  0.00000000000E+00 0.  1.
         21   -1    0    0  501  502  0.00000000000E+00 -0.00000000000E+00 -0.52826296775E+02  0.52826296775E+02  0.00000000000E+00 0. -1.
        -24    2    1    2    0    0  0.45910005015E+02 -0.16752833063E+02  0.13630810910E+04  0.13662310956E+04  0.78796953675E+02 0.  0.
         23    2    1    2    0    0 -0.70544968261E+02  0.22681616558E+02  0.50805097735E+02  0.12972763882E+03  0.93579132515E+02 0.  0.
         13    1    3    3    0    0  0.24967189120E+02 -0.99153875608E+01  0.12064607965E+03  0.12360077661E+03  0.00000000000E+00 0. -1.
        -14    1    3    3    0    0  0.20942815895E+02 -0.68374455025E+01  0.12424350113E+04  0.12426303190E+04  0.00000000000E+00 0.  1.
        -13    1    4    4    0    0 -0.33205513689E+02  0.11307818273E+02  0.75699224193E+02  0.83431681254E+02  0.00000000000E+00 0.  1.
         13    1    4    4    0    0 -0.37339454572E+02  0.11373798285E+02 -0.24894126458E+02  0.46295957569E+02  0.00000000000E+00 0. -1.
         -1    1    1    2    0  502  0.24634963246E+02 -0.59287834950E+01  0.18238561284E+01  0.25403904012E+02  0.00000000000E+00 0.  1.
<scales pt_clust_5="13000.00000" pt_clust_6="13000.00000" pt_clust_7="13000.00000" pt_clust_8="13000.00000" pt_clust_9="25.33835"></scales>
<clustering>
<clus scale="   25.338">  2  9  1 -1</clus>
<clus scale="   78.797">  5  6 -1 -1</clus>
<clus scale="   93.235">  1  5  2 -1</clus>
<clus scale="   93.579">  7  8 -1 -1</clus>
<clus scale="   25.338">  2  5  1 -1</clus>
</clustering>
</event>
<event>
 9    1  0.6270443E-005  0.1069734E+03  0.7546771E-02  0.1266779E+00
         21   -1    0    0  501  502  0.00000000000E+00  0.00000000000E+00  0.94536044419E+02  0.94536044419E+02  0.00000000000E+00 0.  1.
          1   -1    0    0  502    0 -0.00000000000E+00 -0.00000000000E+00 -0.25226576627E+03  0.25226576627E+03  0.00000000000E+00 0. -1.
         23    2    1    2    0    0 -0.24119321784E+02 -0.57332794396E+02 -0.17412415620E+03  0.20436284059E+03  0.87041127320E+02 0.  0.
        -24    2    1    2    0    0  0.31023482671E+01  0.65341991887E+02  0.34837205774E+02  0.11335295562E+03  0.85767483194E+02 0.  0.
         11    1    4    4    0    0  0.79149871297E+01  0.38582082996E+02 -0.25673529572E+02  0.47014404923E+02  0.00000000000E+00 0. -1.
        -12    1    4    4    0    0 -0.48126388626E+01  0.26759908891E+02  0.60510735346E+02  0.66338550699E+02  0.00000000000E+00 0.  1.
        -13    1    3    3    0    0 -0.21375889092E+02  0.20182651456E+02 -0.49575113146E+02  0.57636445915E+02  0.00000000000E+00 0.  1.
         13    1    3    3    0    0 -0.27434326918E+01 -0.77515445853E+02 -0.12454904305E+03  0.14672639468E+03  0.00000000000E+00 0. -1.
          2    1    1    2  501    0  0.21016973517E+02 -0.80091974912E+01 -0.18442771422E+02  0.29086014474E+02  0.00000000000E+00 0. -1.
<scales pt_clust_5="13000.00000" pt_clust_6="13000.00000" pt_clust_7="13000.00000" pt_clust_8="13000.00000" pt_clust_9="22.49135"></scales>
<clustering>
<clus scale="   22.491">  1  9  2 -1</clus>
<clus scale="   85.767">  5  6 -1 -1</clus>
<clus scale="   87.041">  7  8 -1 -1</clus>
<clus scale="  105.940">  1  5  2 -1</clus>
<clus scale="   22.491">  1  5  2 -1</clus>
</clustering>
</event>
<event>
 9    1  0.6270443E-005  0.1024848E+03  0.7546771E-02  0.1278661E+00
          3   -1    0    0  502    0 -0.00000000000E+00  0.00000000000E+00  0.75874636654E+03  0.75874636654E+03  0.00000000000E+00 0. -1.
         21   -1    0    0  501  502  0.00000000000E+00 -0.00000000000E+00 -0.35108146547E+02  0.35108146547E+02  0.00000000000E+00 0. -1.
         23    2    1    2    0    0 -0.15309730925E+02  0.14000359465E+02  0.28902825692E+03  0.30398024005E+03  0.91849088825E+02 0.  0.
        -24    2    1    2    0    0  0.98129369095E+02  0.18413997442E+02  0.31312196786E+03  0.33931160840E+03  0.84371514502E+02 0.  0.
         11    1    4    4    0    0  0.10660050115E+03 -0.32543766531E+01  0.27026716452E+03  0.29054878769E+03  0.00000000000E+00 0. -1.
        -12    1    4    4    0    0 -0.84711320533E+01  0.21668374095E+02  0.42854803338E+02  0.48762820708E+02  0.00000000000E+00 0.  1.
        -11    1    3    3    0    0  0.24859079795E+02 -0.20194358966E+02  0.51360103027E+02  0.60528060974E+02  0.00000000000E+00 0.  1.
         11    1    3    3    0    0 -0.40168810720E+02  0.34194718431E+02  0.23766815389E+03  0.24345217908E+03  0.00000000000E+00 0. -1.
          4    1    1    2  501    0 -0.82819638170E+02 -0.32414356907E+02  0.12148799522E+03  0.15056266464E+03  0.00000000000E+00 0. -1.
<scales pt_clust_5="13000.00000" pt_clust_6="13000.00000" pt_clust_7="13000.00000" pt_clust_8="13000.00000" pt_clust_9="88.93696"></scales>
<clustering>
<clus scale="   84.372">  5  6 -1 -1</clus>
<clus scale="   88.937">  2  9  1 -1</clus>
<clus scale="   91.849">  7  8 -1 -1</clus>
<clus scale="   95.841">  2  5  1 -1</clus>
<clus scale="   88.937">  2  5  1 -1</clus>
</clustering>
</event>
<event>
 9    1  0.6270443E-005  0.1790625E+03  0.7546771E-02  0.1188252E+00
          1   -1    0    0  502    0 -0.00000000000E+00  0.00000000000E+00  0.91274548152E+03  0.91274548152E+03  0.00000000000E+00 0. -1.
         21   -1    0    0  501  502  0.00000000000E+00 -0.00000000000E+00 -0.72928036164E+02  0.72928036164E+02  0.00000000000E+00 0. -1.
        -24    2    1    2    0    0 -0.66383599814E+02 -0.49045163361E+02  0.45412084665E+03  0.46852373362E+03  0.80476923552E+02 0.  0.
         23    2    1    2    0    0 -0.16051873077E+02 -0.11419634708E+03  0.24645551256E+03  0.28729879322E+03  0.92205252573E+02 0.  0.
         11    1    3    3    0    0 -0.71606354405E+02 -0.47790177713E+02  0.45500706996E+03  0.46307969594E+03  0.00000000000E+00 0. -1.
        -12    1    3    3    0    0  0.52227545908E+01 -0.12549856486E+01 -0.88622330721E+00  0.54440376785E+01  0.00000000000E+00 0.  1.
        -11    1    4    4    0    0 -0.21332131675E+02 -0.24479018801E+00  0.76806972827E+01  0.22674057308E+02  0.00000000000E+00 0.  1.
         11    1    4    4    0    0  0.52802585980E+01 -0.11395155689E+03  0.23877481528E+03  0.26462473591E+03  0.00000000000E+00 0. -1.
          2    1    1    2  501    0  0.82435472891E+02  0.16324151044E+03  0.13924108614E+03  0.22985099084E+03  0.00000000000E+00 0. -1.
<scales pt_clust_5="13000.00000" pt_clust_6="13000.00000" pt_clust_7="13000.00000" pt_clust_8="13000.00000" pt_clust_9="153.49774"></scales>
<clustering>
<clus scale="   80.477">  5  6 -1 -1</clus>
<clus scale="   92.205">  7  8 -1 -1</clus>
<clus scale="  115.277">  1  5  2 -1</clus>
<clus scale="  153.498">  2  9  1 -1</clus>
<clus scale="  153.498">  2  5  1 -1</clus>
</clustering>
</event>
<event>
 9    1  0.6270443E-005  0.1119223E+03  0.7546771E-02  0.1261618E+00
         21   -1    0    0  501  502  0.00000000000E+00  0.00000000000E+00  0.18143491242E+03  0.18143491242E+03  0.00000000000E+00 0.  1.
         -2   -1    0    0    0  501 -0.00000000000E+00 -0.00000000000E+00 -0.22898277772E+03  0.22898277772E+03  0.00000000000E+00 0.  1.
        -24    2    1    2    0    0  0.63651213321E+02  0.44148448674E+02 -0.15173787773E+03  0.18798766133E+03  0.79463292127E+02 0.  0.
         23    2    1    2    0    0  0.11195844970E+02 -0.47893814644E+02  0.13476533427E+02  0.10476505877E+03  0.91514677297E+02 0.  0.
         13    1    3    3    0    0  0.14956760715E+02  0.28666933320E+02 -0.51398965270E+01  0.32740132763E+02  0.00000000000E+00 0. -1.
        -14    1    3    3    0    0  0.48694452606E+02  0.15481515354E+02 -0.14659798120E+03  0.15524752856E+03  0.00000000000E+00 0.  1.
        -13    1    4    4    0    0  0.14091310054E+02  0.24642990577E+02  0.15097493911E+02  0.32152392229E+02  0.00000000000E+00 0.  1.
         13    1    4    4    0    0 -0.28954650834E+01 -0.72536805221E+02 -0.16209604845E+01  0.72612666544E+02  0.00000000000E+00 0. -1.
         -1    1    1    2    0  502 -0.74847058291E+02  0.37453659701E+01  0.90713479009E+02  0.11766497004E+03  0.00000000000E+00 0.  1.
<scales pt_clust_5="13000.00000" pt_clust_6="13000.00000" pt_clust_7="13000.00000" pt_clust_8="13000.00000" pt_clust_9="74.94071"></scales>
<clustering>
<clus scale="   74.941">  1  9  2 -1</clus>
<clus scale="   79.463">  5  6 -1 -1</clus>
<clus scale="   91.515">  7  8 -1 -1</clus>
<clus scale="  102.304">  2  5  1 -1</clus>
<clus scale="   74.941">  1  5  2 -1</clus>
</clustering>
</event>
<event>
 9    1  0.6270443E-005  0.2070786E+03  0.7546771E-02  0.1170861E+00
          1   -1    0    0  502    0 -0.00000000000E+00  0.00000000000E+00  0.29271127244E+03  0.29271127244E+03  0.00000000000E+00 0. -1.
         21   -1    0    0  501  502  0.00000000000E+00 -0.00000000000E+00 -0.35790487835E+03  0.35790487835E+03  0.00000000000E+00 0. -1.
        -24    2    1    2    0    0 -0.43336971983E+02  0.58262408166E+02  0.14875059359E+03  0.18513779189E+03  0.82925638649E+02 0.  0.
         23    2    1    2    0    0  0.11013883529E+03 -0.18326293623E+03 -0.22436071340E+03  0.32336528870E+03  0.92257863547E+02 0.  0.
         13    1    3    3    0    0 -0.49798937331E+02  0.63653131412E+02  0.72955016361E+02  0.10887648833E+03  0.00000000000E+00 0. -1.
        -14    1    3    3    0    0  0.64619653485E+01 -0.53907232461E+01  0.75795577232E+02  0.76261303564E+02  0.00000000000E+00 0.  1.
        -11    1    4    4    0    0 -0.11283658551E+02 -0.24985329531E+02 -0.55910302725E+02  0.62269973445E+02  0.00000000000E+00 0.  1.
         11    1    4    4    0    0  0.12142249384E+03 -0.15827760670E+03 -0.16845041067E+03  0.26109531526E+03  0.00000000000E+00 0. -1.
          2    1    1    2  501    0 -0.66801863309E+02  0.12500052807E+03  0.10416513887E+02  0.14211307019E+03  0.00000000000E+00 0. -1.
<scales pt_clust_5="13000.00000" pt_clust_6="13000.00000" pt_clust_7="13000.00000" pt_clust_8="13000.00000" pt_clust_9="185.39171"></scales>
<clustering>
<clus scale="   82.926">  5  6 -1 -1</clus>
<clus scale="   92.258">  7  8 -1 -1</clus>
<clus scale="  110.224">  1  5  2 -1</clus>
<clus scale="  185.392">  2  9  1 -1</clus>
<clus scale="  185.392">  2  5  1 -1</clus>
</clustering>
</event>
<event>
 9    1  0.6270443E-005  0.2182881E+03  0.7546771E-02  0.1135863E+00
         21   -1    0    0  501  502  0.00000000000E+00  0.00000000000E+00  0.47567831248E+03  0.47567831248E+03  0.00000000000E+00 0.  1.
          1   -1    0    0  502    0 -0.00000000000E+00 -0.00000000000E+00 -0.16931767191E+03  0.16931767191E+03  0.00000000000E+00 0. -1.
         23    2    1    2    0    0 -0.20311123857E+03 -0.58570954510E+02 -0.67473998014E+01  0.22980548732E+03  0.89890503704E+02 0.  0.
        -24    2    1    2    0    0  0.14138247117E+03  0.10401915771E+03  0.24992373459E+03  0.31585149971E+03  0.80568656630E+02 0.  0.
         11    1    4    4    0    0  0.54249618389E+02 -0.35437568788E+01  0.62222263824E+02  0.82626808141E+02  0.00000000000E+00 0. -1.
        -12    1    4    4    0    0  0.87132852777E+02  0.10756291459E+03  0.18770147077E+03  0.23322469157E+03  0.00000000000E+00 0.  1.
        -13    1    3    3    0    0 -0.87979361064E+02 -0.68738119772E+02 -0.20147380247E+02  0.11345137290E+03  0.00000000000E+00 0.  1.
         13    1    3    3    0    0 -0.11513187750E+03  0.10167165262E+02  0.13399980445E+02  0.11635411442E+03  0.00000000000E+00 0. -1.
          2    1    1    2  501    0  0.61728767400E+02 -0.45448203197E+02  0.63184305785E+02  0.99338997358E+02  0.00000000000E+00 0. -1.
<scales pt_clust_5="13000.00000" pt_clust_6="13000.00000" pt_clust_7="13000.00000" pt_clust_8="13000.00000" pt_clust_9="76.65494"></scales>
<clustering>
<clus scale="   76.655">  1  9  2 -1</clus>
<clus scale="   80.569">  5  6 -1 -1</clus>
<clus scale="   89.891">  7  8 -1 -1</clus>
<clus scale="  214.618">  1  5  2 -1</clus>
<clus scale="   76.655">  1  5  2 -1</clus>
</clustering>
</event>
<event>
 9    1  0.6270443E-005  0.1621844E+03  0.7546771E-02  0.1206555E+00
          1   -1    0    0  502    0 -0.00000000000E+00  0.00000000000E+00  0.43834941298E+03  0.43834941298E+03  0.00000000000E+00 0. -1.
         21   -1    0    0  501  502  0.00000000000E+00 -0.00000000000E+00 -0.14245654552E+03  0.14245654552E+03  0.00000000000E+00 0. -1.
        -24    2    1    2    0    0 -0.20799806741E+01 -0.69172108998E+02  0.22498301782E+03  0.24788538529E+03  0.77721933511E+02 0.  0.
         23    2    1    2    0    0 -0.67502737350E+02 -0.88961674804E+02 -0.14589947888E+01  0.14560987444E+03  0.93430764393E+02 0.  0.
         11    1    3    3    0    0 -0.73582130620E+01 -0.84420480308E+02  0.16147981690E+03  0.18236417428E+03  0.00000000000E+00 0. -1.
        -12    1    3    3    0    0  0.52782323879E+01  0.15248371310E+02  0.63503200918E+02  0.65521211005E+02  0.00000000000E+00 0.  1.
        -11    1    4    4    0    0  0.50990943318E+01 -0.45533726643E+02 -0.31758185048E+02  0.55748572561E+02  0.00000000000E+00 0.  1.
         11    1    4    4    0    0 -0.72601831682E+02 -0.43427948161E+02  0.30299190260E+02  0.89861301880E+02  0.00000000000E+00 0. -1.
          2    1    1    2  501    0  0.69582718025E+02  0.15813378380E+03  0.72368844430E+02  0.18731069876E+03  0.00000000000E+00 0. -1.
<scales pt_clust_5="13000.00000" pt_clust_6="13000.00000" pt_clust_7="13000.00000" pt_clust_8="13000.00000" pt_clust_9="132.56882"></scales>
<clustering>
<clus scale="   77.722">  5  6 -1 -1</clus>
<clus scale="   93.431">  7  8 -1 -1</clus>
<clus scale="  104.066">  1  5  2 -1</clus>
<clus scale="  132.569">  2  9  1 -1</clus>
<clus scale="  132.569">  2  5  1 -1</clus>
</clustering>
</event>
<event>
 9    1  0.6270443E-005  0.9126774E+02  0.7546771E-02  0.1319365E+00
          3   -1    0    0  502    0 -0.00000000000E+00  0.00000000000E+00  0.47871148429E+03  0.47871148429E+03  0.00000000000E+00 0. -1.
         21   -1    0    0  501  502  0.00000000000E+00 -0.00000000000E+00 -0.25422995230E+02  0.25422995230E+02  0.00000000000E+00 0. -1.
         23    2    1    2    0    0 -0.11084143230E+02  0.44770206086E+00  0.29157969028E+03  0.30488866059E+03  0.88404303651E+02 0.  0.
        -24    2    1    2    0    0  0.29167919477E+02 -0.35426692166E+02  0.12128525230E+03  0.14281341846E+03  0.59830945372E+02 0.  0.
         11    1    4    4    0    0  0.16583102911E+02 -0.50014285481E+02  0.67171362362E+02  0.85372243592E+02  0.00000000000E+00 0. -1.
        -12    1    4    4    0    0  0.12584816566E+02  0.14587593315E+02  0.54113889935E+02  0.57441174872E+02  0.00000000000E+00 0.  1.
        -11    1    3    3    0    0  0.33130480330E+02  0.98435653298E+01  0.62763156826E+02  0.71650110677E+02  0.00000000000E+00 0.  1.
         11    1    3    3    0    0 -0.44214623560E+02 -0.93958632689E+01  0.22881653346E+03  0.23323854992E+03  0.00000000000E+00 0. -1.
          4    1    1    2  501    0 -0.18083776247E+02  0.34978990105E+02  0.40423546478E+02  0.56432400463E+02  0.00000000000E+00 0. -1.
<scales pt_clust_5="13000.00000" pt_clust_6="13000.00000" pt_clust_7="13000.00000" pt_clust_8="13000.00000" pt_clust_9="39.37706"></scales>
<clustering>
<clus scale="   39.377">  2  9  1 -1</clus>
<clus scale="   59.831">  5  6 -1 -1</clus>
<clus scale="   63.986">  2  5  1 -1</clus>
<clus scale="   88.404">  7  8 -1 -1</clus>
<clus scale="   39.377">  2  5  1 -1</clus>
</clustering>
</event>
<event>
 9    1  0.6270443E-005  0.9433800E+02  0.7546771E-02  0.1296399E+00
         21   -1    0    0  501  502  0.00000000000E+00  0.00000000000E+00  0.12633055554E+03  0.12633055554E+03  0.00000000000E+00 0. -1.
          1   -1    0    0  502    0 -0.00000000000E+00 -0.00000000000E+00 -0.16725821848E+03  0.16725821848E+03  0.00000000000E+00 0. -1.
        -24    2    1    2    0    0  0.18535338632E+02  0.64417746540E-01 -0.77110178826E+02  0.11590679268E+03  0.84527167133E+02 0.  0.
         23    2    1    2    0    0 -0.23374291038E+02 -0.59603963519E+02  0.79684458741E+01  0.11161832478E+03  0.91083282483E+02 0.  0.
         11    1    3    3    0    0  0.47232265105E+02 -0.19053183191E+02 -0.36650743426E+02  0.62747013079E+02  0.00000000000E+00 0. -1.
        -12    1    3    3    0    0 -0.28696926473E+02  0.19117600937E+02 -0.40459435400E+02  0.53159779603E+02  0.00000000000E+00 0.  1.
        -13    1    4    4    0    0 -0.45645760561E+02 -0.62902987019E+02  0.26857860110E+02  0.82229349279E+02  0.00000000000E+00 0. -1.
         13    1    4    4    0    0  0.22271469523E+02  0.32990234998E+01 -0.18889414236E+02  0.29388975500E+02  0.00000000000E+00 0.  1.
          2    1    1    2  501    0  0.48389524060E+01  0.59539545773E+02  0.28214070011E+02  0.66063656558E+02  0.00000000000E+00 0. -1.
<scales pt_clust_5="13000.00000" pt_clust_6="13000.00000" pt_clust_7="13000.00000" pt_clust_8="13000.00000" pt_clust_9="59.73586"></scales>
<clustering>
<clus scale="   59.736">  1  9  2 -1</clus>
<clus scale="   84.527">  5  6 -1 -1</clus>
<clus scale="   88.025">  2  5  1 -1</clus>
<clus scale="   91.083">  7  8 -1 -1</clus>
<clus scale="   59.736">  1  5  2 -1</clus>
</clustering>
</event>
<event>
 9    1  0.6270443E-005  0.1360342E+03  0.7546771E-02  0.1220517E+00
         21   -1    0    0  501  502  0.00000000000E+00  0.00000000000E+00  0.53444768961E+02  0.53444768961E+02  0.00000000000E+00 0. -1.
          1   -1    0    0  502    0 -0.00000000000E+00 -0.00000000000E+00 -0.60634457154E+03  0.60634457154E+03  0.00000000000E+00 0. -1.
         23    2    1    2    0    0 -0.99455668884E+02  0.16010574182E+01 -0.33145796864E+03  0.35728942106E+03  0.88867046593E+02 0.  0.
        -24    2    1    2    0    0  0.10804027639E+03  0.55110915581E+02 -0.13525294286E+03  0.19896988364E+03  0.81152582853E+02 0.  0.
         13    1    4    4    0    0  0.65922287649E+02  0.29259323306E+02 -0.22000539675E+02  0.75404772761E+02  0.00000000000E+00 0. -1.
        -14    1    4    4    0    0  0.42117988744E+02  0.25851592275E+02 -0.11325240319E+03  0.12356511088E+03  0.00000000000E+00 0.  1.
        -13    1    3    3    0    0 -0.44849920263E+02  0.28944030514E+02 -0.65930904581E+02  0.84830162258E+02  0.00000000000E+00 0. -1.
         13    1    3    3    0    0 -0.54605748621E+02 -0.27342973096E+02 -0.26552706406E+03  0.27245925880E+03  0.00000000000E+00 0.  1.
          2    1    1    2  501    0 -0.85846075090E+01 -0.56711972999E+02 -0.86188891081E+02  0.10353003580E+03  0.00000000000E+00 0. -1.
<scales pt_clust_5="13000.00000" pt_clust_6="13000.00000" pt_clust_7="13000.00000" pt_clust_8="13000.00000" pt_clust_9="57.35803"></scales>
<clustering>
<clus scale="   57.358">  1  9  2 -1</clus>
<clus scale="   81.153">  5  6 -1 -1</clus>
<clus scale="   88.867">  7  8 -1 -1</clus>
<clus scale="  131.125">  1  5  2 -1</clus>
<clus scale="   57.358">  1  5  2 -1</clus>
</clustering>
</event>
<event>
 9    1  0.6270443E-005  0.1871446E+03  0.7546771E-02  0.1161573E+00
          3   -1    0    0  502    0 -0.00000000000E+00  0.00000000000E+00  0.47992625915E+03  0.47992625915E+03  0.00000000000E+00 0. -1.
         21   -1    0    0  501  502  0.00000000000E+00 -0.00000000000E+00 -0.38057575470E+03  0.38057575470E+03  0.00000000000E+00 0. -1.
         23    2    1    2    0    0  0.11232912568E+03  0.11254381778E+03  0.19282003276E+03  0.26105530827E+03  0.75407993918E+02 0.  0.
        -24    2    1    2    0    0 -0.25577635390E+03 -0.10910899055E+03 -0.25326844674E+03  0.38468032169E+03  0.80670494894E+02 0.  0.
         13    1    4    4    0    0 -0.14709739437E+03 -0.30374980634E+02 -0.16952720125E+03  0.22649449186E+03  0.00000000000E+00 0. -1.
        -14    1    4    4    0    0 -0.10867895953E+03 -0.78734009914E+02 -0.83741245483E+02  0.15818582982E+03  0.00000000000E+00 0.  1.
        -13    1    3    3    0    0  0.64815844038E+02  0.14744357897E+02  0.61430807301E+02  0.90510959633E+02  0.00000000000E+00 0.  1.
         13    1    3    3    0    0  0.47513281646E+02  0.97799459884E+02  0.13138922546E+03  0.17054434864E+03  0.00000000000E+00 0. -1.
          4    1    1    2  501    0  0.14344722822E+03 -0.34348272323E+01  0.15979891842E+03  0.21476638389E+03  0.00000000000E+00 0. -1.
<scales pt_clust_5="13000.00000" pt_clust_6="13000.00000" pt_clust_7="13000.00000" pt_clust_8="13000.00000" pt_clust_9="143.48842"></scales>
<clustering>
<clus scale="   75.408">  7  8 -1 -1</clus>
<clus scale="   80.670">  5  6 -1 -1</clus>
<clus scale="  143.488">  2  9  1 -1</clus>
<clus scale="  184.937">  1  7  2 -1</clus>
<clus scale="  143.488">  2  5  1 -1</clus>
</clustering>
</event>
<event>
 9    1  0.6270443E-005  0.1023451E+03  0.7546771E-02  0.1275685E+00
         21   -1    0    0  501  502  0.00000000000E+00  0.00000000000E+00  0.28424166428E+03  0.28424166428E+03  0.00000000000E+00 0. -1.
          3   -1    0    0  502    0 -0.00000000000E+00 -0.00000000000E+00 -0.17656225139E+03  0.17656225139E+03  0.00000000000E+00 0. -1.
         23    2    1    2    0    0 -0.56142907985E+02  0.41466248101E+02 -0.12708534665E+03  0.16557654353E+03  0.79958930629E+02 0.  0.
        -24    2    1    2    0    0  0.12988509589E+02 -0.42320555604E+02  0.48323986053E+02  0.10385549865E+03  0.80566904896E+02 0.  0.
         11    1    4    4    0    0  0.21087045740E+02 -0.63484777221E+02  0.25214599437E+02  0.71489554913E+02  0.00000000000E+00 0. -1.
        -12    1    4    4    0    0 -0.80985361504E+01  0.21164221617E+02  0.23109386616E+02  0.32365943740E+02  0.00000000000E+00 0.  1.
        -11    1    3    3    0    0 -0.42433174141E+02 -0.16687996495E+02 -0.65132491391E+02  0.79506634500E+02  0.00000000000E+00 0. -1.
         11    1    3    3    0    0 -0.13709733844E+02  0.58154244596E+02 -0.61952855258E+02  0.86069909034E+02  0.00000000000E+00 0.  1.
          4    1    1    2  501    0  0.43154398396E+02  0.85430750292E+00  0.18644077348E+03  0.19137187348E+03  0.00000000000E+00 0. -1.
<scales pt_clust_5="13000.00000" pt_clust_6="13000.00000" pt_clust_7="13000.00000" pt_clust_8="13000.00000" pt_clust_9="43.16285"></scales>
<clustering>
<clus scale="   43.163">  1  9  2 -1</clus>
<clus scale="   79.959">  7  8 -1 -1</clus>
<clus scale="   80.567">  5  6 -1 -1</clus>
<clus scale="  101.867">  2  7  1 -1</clus>
<clus scale="   43.163">  1  5  2 -1</clus>
</clustering>
</event>
<event>
 9    1  0.6270443E-005  0.1333957E+03  0.7546771E-02  0.1227431E+00
         -2   -1    0    0    0  501 -0.00000000000E+00  0.00000000000E+00  0.25297254702E+02  0.25297254702E+02  0.00000000000E+00 0.  1.
         21   -1    0    0  501  502  0.00000000000E+00 -0.00000000000E+00 -0.92454846738E+03  0.92454846738E+03  0.00000000000E+00 0. -1.
        -24    2    1    2    0    0 -0.61443187938E+02  0.58220832430E+02 -0.31055538453E+03  0.33122293127E+03  0.78096431809E+02 0.  0.
         23    2    1    2    0    0  0.51947120410E+02 -0.92666187262E+02 -0.53595615431E+03  0.55491932965E+03  0.96958431810E+02 0.  0.
         11    1    3    3    0    0 -0.53790209438E+02  0.76672621542E+02 -0.27400408777E+03  0.28956919318E+03  0.00000000000E+00 0. -1.
        -12    1    3    3    0    0 -0.76529785000E+01 -0.18451789112E+02 -0.36551296770E+02  0.41653738090E+02  0.00000000000E+00 0.  1.
        -11    1    4    4    0    0  0.78168453051E+02 -0.73706839502E+02 -0.45958747916E+03  0.47197844892E+03  0.00000000000E+00 0.  1.
         11    1    4    4    0    0 -0.26221332641E+02 -0.18959347760E+02 -0.76368675142E+02  0.82940880728E+02  0.00000000000E+00 0. -1.
         -1    1    1    2    0  502  0.94960675285E+01  0.34445354832E+02 -0.52739673836E+02  0.63703461164E+02  0.00000000000E+00 0.  1.
<scales pt_clust_5="13000.00000" pt_clust_6="13000.00000" pt_clust_7="13000.00000" pt_clust_8="13000.00000" pt_clust_9="35.73037"></scales>
<clustering>
<clus scale="   35.730">  2  9  1 -1</clus>
<clus scale="   78.096">  5  6 -1 -1</clus>
<clus scale="   96.958">  7  8 -1 -1</clus>
<clus scale="  120.385">  1  5  2 -1</clus>
<clus scale="   35.730">  2  5  1 -1</clus>
</clustering>
</event>
<event>
 9    1  0.6270443E-005  0.1199465E+03  0.7546771E-02  0.1248610E+00
          3   -1    0    0  502    0 -0.00000000000E+00  0.00000000000E+00  0.26089513214E+03  0.26089513214E+03  0.00000000000E+00 0. -1.
         21   -1    0    0  501  502  0.00000000000E+00 -0.00000000000E+00 -0.81419545777E+02  0.81419545777E+02  0.00000000000E+00 0. -1.
         23    2    1    2    0    0 -0.35883977043E+02 -0.62685384744E+02  0.15855861314E+03  0.19939520358E+03  0.96956155770E+02 0.  0.
        -24    2    1    2    0    0  0.59323252119E+02  0.40551485098E+02  0.97680252044E+01  0.10880777295E+03  0.81117482408E+02 0.  0.
         13    1    4    4    0    0  0.75945149107E+02  0.30565734081E+02  0.23353844162E+02  0.85131262236E+02  0.00000000000E+00 0. -1.
        -14    1    4    4    0    0 -0.16621896987E+02  0.99857510177E+01 -0.13585818958E+02  0.23676510714E+02  0.00000000000E+00 0.  1.
        -13    1    3    3    0    0  0.81359813212E+01 -0.74790635535E+02  0.97031825897E+02  0.12278032657E+03  0.00000000000E+00 0.  1.
         13    1    3    3    0    0 -0.44019958364E+02  0.12105250791E+02  0.61526787245E+02  0.76614877013E+02  0.00000000000E+00 0. -1.
          4    1    1    2  501    0 -0.23439275077E+02  0.22133899646E+02  0.11148948021E+02  0.34111701388E+02  0.00000000000E+00 0. -1.
<scales pt_clust_5="13000.00000" pt_clust_6="13000.00000" pt_clust_7="13000.00000" pt_clust_8="13000.00000" pt_clust_9="32.23832"></scales>
<clustering>
<clus scale="   32.238">  2  9  1 -1</clus>
<clus scale="   81.117">  5  6 -1 -1</clus>
<clus scale="   96.956">  7  8 -1 -1</clus>
<clus scale="  107.549">  2  5  1 -1</clus>
<clus scale="   32.238">  2  5  1 -1</clus>
</clustering>
</event>
<event>
 9    1  0.6270443E-005  0.9481729E+02  0.7546771E-02  0.1301027E+00
         21   -1    0    0  501  502  0.00000000000E+00  0.00000000000E+00  0.55494540824E+03  0.55494540824E+03  0.00000000000E+00 0.  1.
         -2   -1    0    0    0  501 -0.00000000000E+00 -0.00000000000E+00 -0.27954407569E+02  0.27954407569E+02  0.00000000000E+00 0.  1.
        -24    2    1    2    0    0 -0.17976294202E+02  0.56793606946E+01  0.10710977748E+03  0.13145731310E+03  0.73845233062E+02 0.  0.
         23    2    1    2    0    0  0.28998721361E+02 -0.41181777967E+02  0.17036603526E+03  0.19917331208E+03  0.90047529647E+02 0.  0.
         13    1    3    3    0    0  0.35955707343E+01  0.31882925860E+02  0.85245753371E+02  0.91083958841E+02  0.00000000000E+00 0. -1.
        -14    1    3    3    0    0 -0.21571864936E+02 -0.26203565166E+02  0.21864024104E+02  0.40373354260E+02  0.00000000000E+00 0.  1.
        -13    1    4    4    0    0  0.25679158358E+02  0.77249810220E+01  0.57656049757E+01  0.27428756926E+02  0.00000000000E+00 0. -1.
         13    1    4    4    0    0  0.33195630030E+01 -0.48906758989E+02  0.16460043029E+03  0.17174455515E+03  0.00000000000E+00 0.  1.
         -1    1    1    2    0  502 -0.11022427159E+02  0.35502417272E+02  0.24951518793E+03  0.25226919063E+03  0.00000000000E+00 0.  1.
<scales pt_clust_5="13000.00000" pt_clust_6="13000.00000" pt_clust_7="13000.00000" pt_clust_8="13000.00000" pt_clust_9="37.17412"></scales>
<clustering>
<clus scale="   37.174">  1  9  2 -1</clus>
<clus scale="   73.845">  5  6 -1 -1</clus>
<clus scale="   79.592">  2  5  1 -1</clus>
<clus scale="   90.048">  7  8 -1 -1</clus>
<clus scale="   37.174">  1  5  2 -1</clus>
</clustering>
</event>
<event>
 9    1  0.6270443E-005  0.1045673E+03  0.7546771E-02  0.1275839E+00
          1   -1    0    0  502    0 -0.00000000000E+00  0.00000000000E+00  0.54302689933E+03  0.54302689933E+03  0.00000000000E+00 0. -1.
         21   -1    0    0  501  502  0.00000000000E+00 -0.00000000000E+00 -0.56307476630E+02  0.56307476630E+02  0.00000000000E+00 0. -1.
         23    2    1    2    0    0 -0.21918579042E+01  0.34453256885E+02  0.20332034242E+03  0.22539321897E+03  0.90945645109E+02 0.  0.
        -24    2    1    2    0    0 -0.29335896373E+02 -0.10840357569E+03  0.90460756850E+02  0.16492478063E+03  0.80031897985E+02 0.  0.
         11    1    4    4    0    0 -0.39273957780E+02 -0.11760199290E+03  0.77722348409E+02  0.14633330426E+03  0.00000000000E+00 0. -1.
        -12    1    4    4    0    0  0.99380614068E+01  0.91984172091E+01  0.12738408442E+02  0.18591476362E+02  0.00000000000E+00 0.  1.
        -11    1    3    3    0    0  0.44217840296E+02  0.12731661686E+02  0.93809817817E+02  0.10448729362E+03  0.00000000000E+00 0.  1.
         11    1    3    3    0    0 -0.46409698200E+02  0.21721595199E+02  0.10951052460E+03  0.12090592534E+03  0.00000000000E+00 0. -1.
          2    1    1    2  501    0  0.31527754277E+02  0.73950318809E+02  0.19293832343E+03  0.20901637637E+03  0.00000000000E+00 0. -1.
<scales pt_clust_5="13000.00000" pt_clust_6="13000.00000" pt_clust_7="13000.00000" pt_clust_8="13000.00000" pt_clust_9="80.39064"></scales>
<clustering>
<clus scale="   80.032">  5  6 -1 -1</clus>
<clus scale="   80.391">  2  9  1 -1</clus>
<clus scale="   90.946">  7  8 -1 -1</clus>
<clus scale="   95.228">  2  5  1 -1</clus>
<clus scale="   80.391">  2  5  1 -1</clus>
</clustering>
</event>
<event>
 9    1  0.6270443E-005  0.2220580E+03  0.7546771E-02  0.1161236E+00
         21   -1    0    0  501  502  0.00000000000E+00  0.00000000000E+00  0.38674431239E+03  0.38674431239E+03  0.00000000000E+00 0.  1.
         -2   -1    0    0    0  501 -0.00000000000E+00 -0.00000000000E+00 -0.29461031817E+03  0.29461031817E+03  0.00000000000E+00 0.  1.
        -24    2    1    2    0    0 -0.64813352263E+02 -0.54150553218E+02 -0.14835817247E+03  0.18563019347E+03  0.72906572708E+02 0.  0.
         23    2    1    2    0    0  0.88544580340E+02  0.22511975990E+03  0.16996964553E+03  0.30926514713E+03  0.90753522381E+02 0.  0.
         13    1    3    3    0    0 -0.48569481448E+02 -0.71886745765E+02 -0.10660721239E+03  0.13744743169E+03  0.00000000000E+00 0. -1.
        -14    1    3    3    0    0 -0.16243870815E+02  0.17736192547E+02 -0.41750960083E+02  0.48182761782E+02  0.00000000000E+00 0.  1.
        -11    1    4    4    0    0  0.10744972060E+03  0.18372685709E+03  0.14163527431E+03  0.25565905304E+03  0.00000000000E+00 0. -1.
         11    1    4    4    0    0 -0.18905140260E+02  0.41392902810E+02  0.28334371219E+02  0.53606094091E+02  0.00000000000E+00 0.  1.
         -1    1    1    2    0  502 -0.23731228077E+02 -0.17096920669E+03  0.70522521164E+02  0.18645928996E+03  0.00000000000E+00 0.  1.
<scales pt_clust_5="13000.00000" pt_clust_6="13000.00000" pt_clust_7="13000.00000" pt_clust_8="13000.00000" pt_clust_9="202.66611"></scales>
<clustering>
<clus scale="   72.907">  5  6 -1 -1</clus>
<clus scale="   90.754">  7  8 -1 -1</clus>
<clus scale="  111.572">  2  5  1 -1</clus>
<clus scale="  202.666">  1  9  2 -1</clus>
<clus scale="  202.666">  1  5  2 -1</clus>
</clustering>
</event>
<event>
 9    1  0.6270443E-005  0.1902387E+03  0.7546771E-02  0.1158806E+00
          1   -1    0    0  502    0 -0.00000000000E+00  0.00000000000E+00  0.16481713915E+03  0.16481713915E+03  0.00000000000E+00 0. -1.
         21   -1    0    0  501  502  0.00000000000E+00 -0.00000000000E+00 -0.41356651367E+03  0.41356651367E+03  0.00000000000E+00 0. -1.
        -24    2    1    2    0    0 -0.12369025491E+02  0.19264109870E+03 -0.13540048475E+03  0.25547055091E+03  0.98327643163E+02 0.  0.
         23    2    1    2    0    0  0.53463047248E+02 -0.12622899102E+03 -0.16119579791E+03  0.23132372866E+03  0.93458689185E+02 0.  0.
         11    1    3    3    0    0  0.21493715009E+02  0.99050457975E+02 -0.11604785998E+03  0.15407815814E+03  0.00000000000E+00 0. -1.
        -12    1    3    3    0    0 -0.33862740500E+02  0.93590640726E+02 -0.19352624773E+02  0.10139239277E+03  0.00000000000E+00 0.  1.
        -11    1    4    4    0    0  0.15409950673E+02  0.13796515183E+02 -0.17246178066E+02  0.26930300199E+02  0.00000000000E+00 0.  1.
         11    1    4    4    0    0  0.38053096575E+02 -0.14002550620E+03 -0.14394961985E+03  0.20439342847E+03  0.00000000000E+00 0. -1.
          2    1    1    2  501    0 -0.41094021757E+02 -0.66412107683E+02  0.47846908150E+02  0.91589373241E+02  0.00000000000E+00 0. -1.
<scales pt_clust_5="13000.00000" pt_clust_6="13000.00000" pt_clust_7="13000.00000" pt_clust_8="13000.00000" pt_clust_9="78.09797"></scales>
<clustering>
<clus scale="   78.098">  2  9  1 -1</clus>
<clus scale="   93.459">  7  8 -1 -1</clus>
<clus scale="   98.328">  5  6 -1 -1</clus>
<clus scale="  187.768">  2  7  1 -1</clus>
<clus scale="   78.098">  2  5  1 -1</clus>
</clustering>
</event>
<event>
 9    1  0.6270443E-005  0.9288956E+02  0.7546771E-02  0.1298439E+00
         21   -1    0    0  501  502  0.00000000000E+00  0.00000000000E+00  0.13827886214E+03  0.13827886214E+03  0.00000000000E+00 0. -1.
          1   -1    0    0  502    0 -0.00000000000E+00 -0.00000000000E+00 -0.20375961795E+03  0.20375961795E+03  0.00000000000E+00 0. -1.
         23    2    1    2    0    0 -0.52736181274E+01 -0.54267734806E+02 -0.11594123777E+03  0.15358852275E+03  0.84701036690E+02 0.  0.
        -24    2    1    2    0    0  0.92781526018E+01 -0.31598953150E+02  0.54502844187E+02  0.10239494535E+03  0.80184704605E+02 0.  0.
         11    1    4    4    0    0  0.30223315742E+02 -0.46572849877E+02  0.52757415264E+02  0.76588667735E+02  0.00000000000E+00 0. -1.
        -12    1    4    4    0    0 -0.20945163140E+02  0.14973896727E+02  0.17454289223E+01  0.25806277613E+02  0.00000000000E+00 0.  1.
        -11    1    3    3    0    0 -0.23856218179E+02 -0.47618789544E+01  0.19263237272E+01  0.24402978509E+02  0.00000000000E+00 0.  1.
         11    1    3    3    0    0  0.18582600052E+02 -0.49505855851E+02 -0.11786756149E+03  0.12918554424E+03  0.00000000000E+00 0. -1.
          2    1    1    2  501    0 -0.40045344744E+01  0.85866687955E+02 -0.40423622257E+01  0.86055011993E+02  0.00000000000E+00 0. -1.
<scales pt_clust_5="13000.00000" pt_clust_6="13000.00000" pt_clust_7="13000.00000" pt_clust_8="13000.00000" pt_clust_9="85.96002"></scales>
<clustering>
<clus scale="   80.185">  5  6 -1 -1</clus>
<clus scale="   84.701">  7  8 -1 -1</clus>
<clus scale="   85.960">  1  9  2 -1</clus>
<clus scale="   88.791">  1  5  2 -1</clus>
<clus scale="   85.960">  1  5  2 -1</clus>
</clustering>
</event>
<event>
 9    1  0.6270443E-005  0.1741808E+03  0.7546771E-02  0.1174952E+00
         21   -1    0    0  501  502  0.00000000000E+00  0.00000000000E+00  0.27907111467E+03  0.27907111467E+03  0.00000000000E+00 0.  1.
          1   -1    0    0  502    0 -0.00000000000E+00 -0.00000000000E+00 -0.35133133468E+03  0.35133133468E+03  0.00000000000E+00 0. -1.
         23    2    1    2    0    0 -0.15626165820E+03  0.39113085811E+02 -0.27419851368E+03  0.33031989554E+03  0.89324516107E+02 0.  0.
        -24    2    1    2    0    0  0.50956194587E+02 -0.14057646539E+02  0.11915820176E+03  0.16381238349E+03  0.99205185064E+02 0.  0.
         11    1    4    4    0    0  0.20016839220E+02 -0.38125357962E+02  0.52877412719E+01  0.43384063662E+02  0.00000000000E+00 0. -1.
        -12    1    4    4    0    0  0.30939355367E+02  0.24067711423E+02  0.11387046049E+03  0.12042831983E+03  0.00000000000E+00 0.  1.
        -13    1    3    3    0    0 -0.68290840952E+02  0.58493268019E+02 -0.10193768252E+03  0.13592789441E+03  0.00000000000E+00 0.  1.
         13    1    3    3    0    0 -0.87970817246E+02 -0.19380182208E+02 -0.17226083116E+03  0.19439200112E+03  0.00000000000E+00 0. -1.
          2    1    1    2  501    0  0.10530546361E+03 -0.25055439272E+02  0.82780091912E+02  0.13627017033E+03  0.00000000000E+00 0. -1.
<scales pt_clust_5="13000.00000" pt_clust_6="13000.00000" pt_clust_7="13000.00000" pt_clust_8="13000.00000" pt_clust_9="108.24516"></scales>
<clustering>
<clus scale="   89.325">  7  8 -1 -1</clus>
<clus scale="   99.205">  5  6 -1 -1</clus>
<clus scale="  108.245">  1  9  2 -1</clus>
<clus scale="  168.749">  2  7  1 -1</clus>
<clus scale="  108.245">  1  5  2 -1</clus>
</clustering>
</event>
<event>
 9    1  0.6270443E-005  0.1408848E+03  0.7546771E-02  0.1225971E+00
          1   -1    0    0  502    0 -0.00000000000E+00  0.00000000000E+00  0.13192032312E+04  0.13192032312E+04  0.00000000000E+00 0. -1.
         21   -1    0    0  501  502  0.00000000000E+00 -0.00000000000E+00 -0.74294422450E+02  0.74294422450E+02  0.00000000000E+00 0.  1.
         23    2    1    2    0    0  0.85520221972E+01  0.51754704577E+02 -0.13139779048E+02  0.10615098737E+03  0.91343810934E+02 0.  0.
        -24    2    1    2    0    0  0.31652601330E+02  0.89086914964E+02  0.50026241330E+03  0.51553538119E+03  0.81091809093E+02 0.  0.
         13    1    4    4    0    0  0.55019108805E+02  0.59519124796E+02  0.40613414387E+03  0.41414317737E+03  0.00000000000E+00 0. -1.
        -14    1    4    4    0    0 -0.23366507475E+02  0.29567790168E+02  0.94128269438E+02  0.10139220381E+03  0.00000000000E+00 0.  1.
        -11    1    3    3    0    0 -0.18724083502E+02 -0.10452423060E+02 -0.29321061012E+02  0.36325873282E+02  0.00000000000E+00 0. -1.
         11    1    3    3    0    0  0.27276105699E+02  0.62207127637E+02  0.16181281964E+02  0.69825114085E+02  0.00000000000E+00 0.  1.
          2    1    1    2  501    0 -0.40204623527E+02 -0.14084161954E+03  0.75778617454E+03  0.77181128515E+03  0.00000000000E+00 0. -1.
<scales pt_clust_5="13000.00000" pt_clust_6="13000.00000" pt_clust_7="13000.00000" pt_clust_8="13000.00000" pt_clust_9="115.20697"></scales>
<clustering>
<clus scale="   81.092">  5  6 -1 -1</clus>
<clus scale="   91.344">  7  8 -1 -1</clus>
<clus scale="  105.335">  1  7  2 -1</clus>
<clus scale="  115.207">  2  9  1 -1</clus>
<clus scale="  115.207">  2  5  1 -1</clus>
</clustering>
</event>
<event>
 9    1  0.6270443E-005  0.1629480E+03  0.7546771E-02  0.1187238E+00
          1   -1    0    0  502    0 -0.00000000000E+00  0.00000000000E+00  0.38528423563E+03  0.38528423563E+03  0.00000000000E+00 0. -1.
         21   -1    0    0  501  502  0.00000000000E+00 -0.00000000000E+00 -0.11949999392E+03  0.11949999392E+03  0.00000000000E+00 0. -1.
         23    2    1    2    0    0  0.11001100753E+03  0.11482685975E+03  0.14560956135E+03  0.23451913148E+03  0.92246675676E+02 0.  0.
        -24    2    1    2    0    0 -0.53596824080E+02 -0.82275001164E+02 -0.74176740084E+01  0.12701010694E+03  0.80216893545E+02 0.  0.
         13    1    4    4    0    0 -0.50595089975E+02 -0.96961579443E+01 -0.15807043561E+02  0.53886373366E+02  0.00000000000E+00 0. -1.
        -14    1    4    4    0    0 -0.30017341051E+01 -0.72578843220E+02  0.83893695525E+01  0.73123733577E+02  0.00000000000E+00 0.  1.
        -11    1    3    3    0    0  0.48757488224E+02  0.92066203592E+02  0.42646997273E+02  0.11257106590E+03  0.00000000000E+00 0.  1.
         11    1    3    3    0    0  0.61253519305E+02  0.22760656161E+02  0.10296256408E+03  0.12194806557E+03  0.00000000000E+00 0. -1.
          2    1    1    2  501    0 -0.56414183449E+02 -0.32551858589E+02  0.12759235437E+03  0.14325499113E+03  0.00000000000E+00 0. -1.
<scales pt_clust_5="13000.00000" pt_clust_6="13000.00000" pt_clust_7="13000.00000" pt_clust_8="13000.00000" pt_clust_9="65.13208"></scales>
<clustering>
<clus scale="   65.132">  2  9  1 -1</clus>
<clus scale="   80.217">  5  6 -1 -1</clus>
<clus scale="   92.247">  7  8 -1 -1</clus>
<clus scale="  156.452">  2  5  1 -1</clus>
<clus scale="   65.132">  2  5  1 -1</clus>
</clustering>
</event>
<event>
 9    1  0.6270443E-005  0.1145667E+03  0.7546771E-02  0.1260361E+00
         21   -1    0    0  501  502  0.00000000000E+00  0.00000000000E+00  0.25246872477E+03  0.25246872477E+03  0.00000000000E+00 0. -1.
          3   -1    0    0  502    0 -0.00000000000E+00 -0.00000000000E+00 -0.12707268364E+03  0.12707268364E+03  0.00000000000E+00 0. -1.
         23    2    1    2    0    0 -0.38512775526E+02 -0.76378641646E+01  0.41049975198E+02  0.10603230623E+03  0.89533114837E+02 0.  0.
        -24    2    1    2    0    0 -0.63779870134E+01 -0.80169251860E+02  0.12382815884E+03  0.16728243018E+03  0.78627036452E+02 0.  0.
         11    1    4    4    0    0  0.33681747576E+02 -0.53593441909E+02  0.58650731996E+02  0.86293832335E+02  0.00000000000E+00 0. -1.
        -12    1    4    4    0    0 -0.40059734590E+02 -0.26575809951E+02  0.65177426848E+02  0.80988597843E+02  0.00000000000E+00 0.  1.
        -11    1    3    3    0    0 -0.24505893818E+02  0.89469139023E+01  0.67176328969E+02  0.72064174691E+02  0.00000000000E+00 0. -1.
         11    1    3    3    0    0 -0.14006881707E+02 -0.16584778067E+02 -0.26126353771E+02  0.33968131536E+02  0.00000000000E+00 0.  1.
          4    1    1    2  501    0  0.44890762539E+02  0.87807116024E+02 -0.39482092911E+02  0.10622667201E+03  0.00000000000E+00 0. -1.
<scales pt_clust_5="13000.00000" pt_clust_6="13000.00000" pt_clust_7="13000.00000" pt_clust_8="13000.00000" pt_clust_9="83.32659"></scales>
<clustering>
<clus scale="   78.627">  5  6 -1 -1</clus>
<clus scale="   89.533">  7  8 -1 -1</clus>
<clus scale="   97.764">  2  7  1 -1</clus>
<clus scale="   83.327">  1  9  2 -1</clus>
<clus scale="   83.327">  1  5  2 -1</clus>
</clustering>
</event>
<event>
 9    1  0.6270443E-005  0.9974357E+02  0.7546771E-02  0.1290477E+00
         -2   -1    0    0    0  501 -0.00000000000E+00  0.00000000000E+00  0.40053187971E+03  0.40053187971E+03  0.00000000000E+00 0.  1.
         21   -1    0    0  501  502  0.00000000000E+00 -0.00000000000E+00 -0.40378914501E+02  0.40378914501E+02  0.00000000000E+00 0.  1.
        -24    2    1    2    0    0  0.41248059918E+02  0.17421515861E+02  0.28781890804E+03  0.29998300364E+03  0.71729819358E+02 0.  0.
         23    2    1    2    0    0 -0.34161719858E+02  0.55960695154E+01  0.59202663060E+02  0.11349680511E+03  0.90433568764E+02 0.  0.
         13    1    3    3    0    0  0.16960069911E+01  0.38986126400E+02  0.14973547570E+03  0.15473689661E+03  0.00000000000E+00 0. -1.
        -14    1    3    3    0    0  0.39552052927E+02 -0.21564610539E+02  0.13808343235E+03  0.14524610703E+03  0.00000000000E+00 0.  1.
        -11    1    4    4    0    0  0.22829078954E+02  0.27531277529E+02  0.22145660448E+02  0.42066237827E+02  0.00000000000E+00 0.  1.
         11    1    4    4    0    0 -0.56990798812E+02 -0.21935208014E+02  0.37057002612E+02  0.71430567284E+02  0.00000000000E+00 0. -1.
         -1    1    1    2    0  502 -0.70863400599E+01 -0.23017585376E+02  0.13131394105E+02  0.27430985457E+02  0.00000000000E+00 0.  1.
<scales pt_clust_5="13000.00000" pt_clust_6="13000.00000" pt_clust_7="13000.00000" pt_clust_8="13000.00000" pt_clust_9="24.08372"></scales>
<clustering>
<clus scale="   24.084">  2  9  1 -1</clus>
<clus scale="   71.730">  5  6 -1 -1</clus>
<clus scale="   83.161">  1  5  2 -1</clus>
<clus scale="   90.434">  7  8 -1 -1</clus>
<clus scale="   24.084">  2  5  1 -1</clus>
</clustering>
</event>
<event>
 9    1  0.6270443E-005  0.1169675E+03  0.7546771E-02  0.1251749E+00
         21   -1    0    0  501  502  0.00000000000E+00  0.00000000000E+00  0.37066247973E+02  0.37066247973E+02  0.00000000000E+00 0.  1.
          1   -1    0    0  502    0 -0.00000000000E+00 -0.00000000000E+00 -0.71530972771E+03  0.71530972771E+03  0.00000000000E+00 0. -1.
        -24    2    1    2    0    0 -0.44640416355E+02 -0.40539706299E+02 -0.17156342429E+03  0.19858462890E+03  0.79784783780E+02 0.  0.
         23    2    1    2    0    0  0.30321865573E+02  0.97656938603E+02 -0.20419811043E+03  0.24563111868E+03  0.90451561462E+02 0.  0.
         13    1    3    3    0    0  0.11135483692E+02 -0.25307922381E+02 -0.11282672056E+03  0.11616522201E+03  0.00000000000E+00 0. -1.
        -14    1    3    3    0    0 -0.55775900047E+02 -0.15231783917E+02 -0.58736703731E+02  0.82419406893E+02  0.00000000000E+00 0.  1.
        -11    1    4    4    0    0  0.57801340932E+02  0.86244245245E+02 -0.13499187063E+03  0.17029935404E+03  0.00000000000E+00 0.  1.
         11    1    4    4    0    0 -0.27479475360E+02  0.11412693358E+02 -0.69206239800E+02  0.75331764635E+02  0.00000000000E+00 0. -1.
          2    1    1    2  501    0  0.14318550783E+02 -0.57117232304E+02 -0.30248194502E+03  0.30816022810E+03  0.00000000000E+00 0. -1.
<scales pt_clust_5="13000.00000" pt_clust_6="13000.00000" pt_clust_7="13000.00000" pt_clust_8="13000.00000" pt_clust_9="58.88465"></scales>
<clustering>
<clus scale="   58.885">  1  9  2 -1</clus>
<clus scale="   79.785">  5  6 -1 -1</clus>
<clus scale="   90.452">  7  8 -1 -1</clus>
<clus scale="  108.929">  2  5  1 -1</clus>
<clus scale="   58.885">  1  5  2 -1</clus>
</clustering>
</event>
<event>
 9    1  0.6270443E-005  0.1182332E+03  0.7546771E-02  0.1249293E+00
          1   -1    0    0  502    0 -0.00000000000E+00  0.00000000000E+00  0.15525578135E+03  0.15525578135E+03  0.00000000000E+00 0. -1.
         21   -1    0    0  501  502  0.00000000000E+00 -0.00000000000E+00 -0.20350913422E+03  0.20350913422E+03  0.00000000000E+00 0. -1.
        -24    2    1    2    0    0 -0.13702937577E+02 -0.41315299838E+02 -0.44142198284E+02  0.10157872484E+03  0.80467255283E+02 0.  0.
         23    2    1    2    0    0  0.74139880707E+02  0.10075204357E+03 -0.48083525700E+02  0.16169315422E+03  0.90470738276E+02 0.  0.
         13    1    3    3    0    0 -0.47109243704E+02 -0.22823111251E+02 -0.18215990410E+02  0.55425603796E+02  0.00000000000E+00 0. -1.
        -14    1    3    3    0    0  0.33406306127E+02 -0.18492188587E+02 -0.25926207874E+02  0.46153121048E+02  0.00000000000E+00 0.  1.
        -13    1    4    4    0    0  0.14755732041E+02 -0.16611189219E+02 -0.12231261521E+02  0.25362708723E+02  0.00000000000E+00 0.  1.
         13    1    4    4    0    0  0.59384148665E+02  0.11736323279E+03 -0.35852264178E+02  0.13633044550E+03  0.00000000000E+00 0. -1.
          2    1    1    2  501    0 -0.60436943129E+02 -0.59436743734E+02  0.43972371114E+02  0.95493036510E+02  0.00000000000E+00 0. -1.
<scales pt_clust_5="13000.00000" pt_clust_6="13000.00000" pt_clust_7="13000.00000" pt_clust_8="13000.00000" pt_clust_9="84.76649"></scales>
<clustering>
<clus scale="   80.467">  5  6 -1 -1</clus>
<clus scale="   84.766">  2  9  1 -1</clus>
<clus scale="   90.471">  7  8 -1 -1</clus>
<clus scale="  110.766">  1  5  2 -1</clus>
<clus scale="   84.766">  2  5  1 -1</clus>
</clustering>
</event>
<event>
 9    1  0.6270443E-005  0.1181859E+03  0.7546771E-02  0.1251446E+00
         21   -1    0    0  501  502  0.00000000000E+00  0.00000000000E+00  0.79812704048E+03  0.79812704048E+03  0.00000000000E+00 0. -1.
          3   -1    0    0  502    0 -0.00000000000E+00 -0.00000000000E+00 -0.35129424461E+02  0.35129424461E+02  0.00000000000E+00 0. -1.
         23    2    1    2    0    0  0.34773302991E+02 -0.56218422849E+02  0.12002555564E+03  0.16405674776E+03  0.90215236033E+02 0.  0.
        -24    2    1    2    0    0 -0.26997133629E+02  0.10475724031E+03  0.38754108708E+03  0.40908153686E+03  0.73869377952E+02 0.  0.
         11    1    4    4    0    0 -0.36338911555E+02  0.11270852479E+03  0.35860877539E+03  0.37765590402E+03  0.00000000000E+00 0. -1.
        -12    1    4    4    0    0  0.93417779260E+01 -0.79512844725E+01  0.28932311689E+02  0.31425632838E+02  0.00000000000E+00 0.  1.
        -13    1    3    3    0    0 -0.20453111122E+02 -0.35710981787E+02  0.87662170366E+02  0.96841417214E+02  0.00000000000E+00 0.  1.
         13    1    3    3    0    0  0.55226414113E+02 -0.20507441062E+02  0.32363385269E+02  0.67215330549E+02  0.00000000000E+00 0. -1.
          4    1    1    2  501    0 -0.77761693619E+01 -0.48538817466E+02  0.25543097330E+03  0.26011818032E+03  0.00000000000E+00 0. -1.
<scales pt_clust_5="13000.00000" pt_clust_6="13000.00000" pt_clust_7="13000.00000" pt_clust_8="13000.00000" pt_clust_9="49.15776"></scales>
<clustering>
<clus scale="   49.158">  1  9  2 -1</clus>
<clus scale="   73.869">  5  6 -1 -1</clus>
<clus scale="   90.215">  7  8 -1 -1</clus>
<clus scale="  106.235">  1  5  2 -1</clus>
<clus scale="   49.158">  1  5  2 -1</clus>
</clustering>
</event>
<event>
 9    1  0.6270443E-005  0.1104137E+03  0.7546771E-02  0.1267521E+00
          1   -1    0    0  502    0 -0.00000000000E+00  0.00000000000E+00  0.25968053248E+03  0.25968053248E+03  0.00000000000E+00 0. -1.
         21   -1    0    0  501  502  0.00000000000E+00 -0.00000000000E+00 -0.74539815748E+02  0.74539815748E+02  0.00000000000E+00 0. -1.
         23    2    1    2    0    0  0.41844436191E+02  0.37923640878E+01  0.14608307454E+03  0.18054204030E+03  0.97415731704E+02 0.  0.
        -24    2    1    2    0    0 -0.69391005874E+02 -0.15696525125E+02  0.54658732712E+02  0.11985647213E+03  0.79476438344E+02 0.  0.
         13    1    4    4    0    0 -0.33619166818E+02 -0.17079493367E+02 -0.15752911451E+02  0.40867000016E+02  0.00000000000E+00 0. -1.
        -14    1    4    4    0    0 -0.35771839056E+02  0.13829682414E+01  0.70411644163E+02  0.78989472111E+02  0.00000000000E+00 0.  1.
        -13    1    3    3    0    0  0.59874475871E+02  0.15768355565E+02  0.43423311375E+02  0.75625246240E+02  0.00000000000E+00 0.  1.
         13    1    3    3    0    0 -0.18030039680E+02 -0.11975991477E+02  0.10265976317E+03  0.10491679406E+03  0.00000000000E+00 0. -1.
          2    1    1    2  501    0  0.27546569683E+02  0.11904161037E+02 -0.15601090522E+02  0.33821835798E+02  0.00000000000E+00 0. -1.
<scales pt_clust_5="13000.00000" pt_clust_6="13000.00000" pt_clust_7="13000.00000" pt_clust_8="13000.00000" pt_clust_9="30.00871"></scales>
<clustering>
<clus scale="   30.009">  2  9  1 -1</clus>
<clus scale="   79.476">  5  6 -1 -1</clus>
<clus scale="   94.962">  2  5  1 -1</clus>
<clus scale="   97.416">  7  8 -1 -1</clus>
<clus scale="   30.009">  2  5  1 -1</clus>
</clustering>
</event>
<event>
 9    1  0.6270443E-005  0.1160173E+03  0.7546771E-02  0.1263408E+00
         21   -1    0    0  501  502  0.00000000000E+00  0.00000000000E+00  0.20514640327E+03  0.20514640327E+03  0.00000000000E+00 0. -1.
          1   -1    0    0  502    0 -0.00000000000E+00 -0.00000000000E+00 -0.38364864242E+03  0.38364864242E+03  0.00000000000E+00 0. -1.
         23    2    1    2    0    0  0.15697671565E+02 -0.41460388882E+02 -0.26883805578E+03  0.28308855214E+03  0.76810463982E+02 0.  0.
        -24    2    1    2    0    0  0.47926514650E+01 -0.47042284659E+02 -0.74409689413E+02  0.11757446990E+03  0.77788225591E+02 0.  0.
         13    1    4    4    0    0 -0.26181181744E+02  0.51371547087E+00 -0.48647442789E+02  0.55247550815E+02  0.00000000000E+00 0. -1.
        -14    1    4    4    0    0  0.30973833209E+02 -0.47556000130E+02 -0.25762246624E+02  0.62326919089E+02  0.00000000000E+00 0.  1.
        -13    1    3    3    0    0  0.39977055402E+02 -0.77761471535E+01 -0.80359537289E+02  0.90090447088E+02  0.00000000000E+00 0.  1.
         13    1    3    3    0    0 -0.24279383838E+02 -0.33684241728E+02 -0.18847851849E+03  0.19299810505E+03  0.00000000000E+00 0. -1.
          2    1    1    2  501    0 -0.20490323030E+02  0.88502673541E+02  0.16474550604E+03  0.18813202365E+03  0.00000000000E+00 0. -1.
<scales pt_clust_5="13000.00000" pt_clust_6="13000.00000" pt_clust_7="13000.00000" pt_clust_8="13000.00000" pt_clust_9="86.07558"></scales>
<clustering>
<clus scale="   76.810">  7  8 -1 -1</clus>
<clus scale="   77.788">  5  6 -1 -1</clus>
<clus scale="   88.686">  2  7  1 -1</clus>
<clus scale="   86.076">  1  9  2 -1</clus>
<clus scale="   86.076">  1  5  2 -1</clus>
</clustering>
</event>
<event>
 9    1  0.6270443E-005  0.9449161E+02  0.7546771E-02  0.1301006E+00
         21   -1    0    0  501  502  0.00000000000E+00  0.00000000000E+00  0.24284187898E+03  0.24284187898E+03  0.00000000000E+00 0.  1.
         -2   -1    0    0    0  501 -0.00000000000E+00 -0.00000000000E+00 -0.19781891069E+03  0.19781891069E+03  0.00000000000E+00 0.  1.
         23    2    1    2    0    0  0.12153062520E+02  0.13867029875E+00 -0.13768166315E+03  0.16738398701E+03  0.94411029984E+02 0.  0.
        -24    2    1    2    0    0  0.17426413968E+02  0.14405746112E+01 -0.58187609664E+01  0.82440461971E+02  0.80354319310E+02 0.  0.
         13    1    4    4    0    0  0.32714373525E+01 -0.31274539018E+02 -0.26593210699E+02  0.41182495656E+02  0.00000000000E+00 0. -1.
        -14    1    4    4    0    0  0.14154976616E+02  0.32715113629E+02  0.20774449732E+02  0.41257966315E+02  0.00000000000E+00 0.  1.
        -11    1    3    3    0    0  0.97908745646E+01  0.42465170272E+02 -0.33689012987E+02  0.55082678829E+02  0.00000000000E+00 0.  1.
         11    1    3    3    0    0  0.23621879550E+01 -0.42326499973E+02 -0.10399265016E+03  0.11230130818E+03  0.00000000000E+00 0. -1.
         -1    1    1    2    0  502 -0.29579476488E+02 -0.15792449099E+01  0.18852339241E+03  0.19083634069E+03  0.00000000000E+00 0.  1.
<scales pt_clust_5="13000.00000" pt_clust_6="13000.00000" pt_clust_7="13000.00000" pt_clust_8="13000.00000" pt_clust_9="29.62160"></scales>
<clustering>
<clus scale="   29.622">  1  9  2 -1</clus>
<clus scale="   80.354">  5  6 -1 -1</clus>
<clus scale="   80.449">  1  5  2 -1</clus>
<clus scale="   94.411">  7  8 -1 -1</clus>
<clus scale="   29.622">  1  5  2 -1</clus>
</clustering>
</event>
<event>
 9    1  0.6270443E-005  0.1559603E+03  0.7546771E-02  0.1215544E+00
         21   -1    0    0  501  502  0.00000000000E+00  0.00000000000E+00  0.36672198611E+03  0.36672198611E+03  0.00000000000E+00 0. -1.
          1   -1    0    0  502    0 -0.00000000000E+00 -0.00000000000E+00 -0.42937112211E+03  0.42937112211E+03  0.00000000000E+00 0. -1.
         23    2    1    2    0    0 -0.29606868876E+02 -0.51796182555E+00 -0.21757817351E+03  0.23806817154E+03  0.91974766897E+02 0.  0.
        -24    2    1    2    0    0 -0.74126223282E+02 -0.85050379394E+02 -0.16207841936E+03  0.21367595217E+03  0.81607196359E+02 0.  0.
         11    1    4    4    0    0 -0.18723596990E+02 -0.80696330958E+02 -0.85410359664E+02  0.11898487489E+03  0.00000000000E+00 0. -1.
        -12    1    4    4    0    0 -0.55402626292E+02 -0.43540484359E+01 -0.76668059699E+02  0.94691077277E+02  0.00000000000E+00 0.  1.
        -11    1    3    3    0    0 -0.52827892226E+02 -0.10872560669E+02 -0.20003357183E+03  0.20717728793E+03  0.00000000000E+00 0. -1.
         11    1    3    3    0    0  0.23221023351E+02  0.10354598844E+02 -0.17544601675E+02  0.30890883616E+02  0.00000000000E+00 0.  1.
          2    1    1    2  501    0  0.10373309216E+03  0.85568341220E+02  0.31700745686E+03  0.34434898451E+03  0.00000000000E+00 0. -1.
<scales pt_clust_5="13000.00000" pt_clust_6="13000.00000" pt_clust_7="13000.00000" pt_clust_8="13000.00000" pt_clust_9="132.90554"></scales>
<clustering>
<clus scale="   81.607">  5  6 -1 -1</clus>
<clus scale="   91.975">  7  8 -1 -1</clus>
<clus scale="   96.624">  2  7  1 -1</clus>
<clus scale="  132.906">  1  9  2 -1</clus>
<clus scale="  132.906">  1  5  2 -1</clus>
</clustering>
</event>
<event>
 9    1  0.6270443E-005  0.1243012E+03  0.7546771E-02  0.1238156E+00
         21   -1    0    0  501  502  0.00000000000E+00  0.00000000000E+00  0.34537209823E+03  0.34537209823E+03  0.00000000000E+00 0. -1.
         -2   -1    0    0    0  501 -0.00000000000E+00 -0.00000000000E+00 -0.11001687859E+03  0.11001687859E+03  0.00000000000E+00 0.  1.
        -24    2    1    2    0    0  0.92780601624E+02 -0.10012034539E+02 -0.34233372471E+02  0.12881962769E+03  0.81939561952E+02 0.  0.
         23    2    1    2    0    0 -0.60411064285E+02  0.47037487653E+02  0.11496232023E+03  0.16431043541E+03  0.88991921985E+02 0.  0.
         13    1    3    3    0    0  0.12218331846E+02  0.17476288988E+02  0.18883924567E+02  0.28483520093E+02  0.00000000000E+00 0. -1.
        -14    1    3    3    0    0  0.80562269779E+02 -0.27488323527E+02 -0.53117297038E+02  0.10033610759E+03  0.00000000000E+00 0.  1.
        -11    1    4    4    0    0 -0.27167721346E+02 -0.22451812888E+02  0.15488967071E+02  0.38497754298E+02  0.00000000000E+00 0. -1.
         11    1    4    4    0    0 -0.33243342940E+02  0.69489300541E+02  0.99473353155E+02  0.12581268111E+03  0.00000000000E+00 0.  1.
         -1    1    1    2    0  502 -0.32369537339E+02 -0.37025453114E+02  0.15462627189E+03  0.16225891373E+03  0.00000000000E+00 0.  1.
<scales pt_clust_5="13000.00000" pt_clust_6="13000.00000" pt_clust_7="13000.00000" pt_clust_8="13000.00000" pt_clust_9="49.17999"></scales>
<clustering>
<clus scale="   49.180">  1  9  2 -1</clus>
<clus scale="   81.940">  5  6 -1 -1</clus>
<clus scale="   88.992">  7  8 -1 -1</clus>
<clus scale="  119.354">  2  5  1 -1</clus>
<clus scale="   49.180">  1  5  2 -1</clus>
</clustering>
</event>
<event>
 9    1  0.6270443E-005  0.1553977E+03  0.7546771E-02  0.1213460E+00
          1   -1    0    0  502    0 -0.00000000000E+00  0.00000000000E+00  0.57052216733E+03  0.57052216733E+03  0.00000000000E+00 0. -1.
         21   -1    0    0  501  502  0.00000000000E+00 -0.00000000000E+00 -0.85470393696E+02  0.85470393696E+02  0.00000000000E+00 0. -1.
         23    2    1    2    0    0 -0.38458886823E+01  0.44151646744E+02  0.28389995132E+03  0.30169651172E+03  0.91964362980E+02 0.  0.
        -24    2    1    2    0    0 -0.12342766270E+03 -0.67582934631E+02  0.11025527102E+03  0.19615128913E+03  0.80729563770E+02 0.  0.
         13    1    4    4    0    0 -0.10629511672E+03 -0.74788624935E+02  0.11844173360E+03  0.17584207266E+03  0.00000000000E+00 0. -1.
        -14    1    4    4    0    0 -0.17132545974E+02  0.72056903040E+01 -0.81864625722E+01  0.20309216473E+02  0.00000000000E+00 0.  1.
        -11    1    3    3    0    0 -0.37725164103E+02  0.49412337555E+02  0.22612007776E+03  0.23451024855E+03  0.00000000000E+00 0. -1.
         11    1    3    3    0    0  0.33879275420E+02 -0.52606908114E+01  0.57779873557E+02  0.67186263172E+02  0.00000000000E+00 0.  1.
          2    1    1    2  501    0  0.12727355138E+03  0.23431287887E+02  0.90896551290E+02  0.15814476017E+03  0.00000000000E+00 0. -1.
<scales pt_clust_5="13000.00000" pt_clust_6="13000.00000" pt_clust_7="13000.00000" pt_clust_8="13000.00000" pt_clust_9="132.78250"></scales>
<clustering>
<clus scale="   80.730">  5  6 -1 -1</clus>
<clus scale="   91.964">  7  8 -1 -1</clus>
<clus scale="  102.086">  1  7  2 -1</clus>
<clus scale="  132.782">  2  9  1 -1</clus>
<clus scale="  132.782">  2  5  1 -1</clus>
</clustering>
</event>
<event>
 9    1  0.6270443E-005  0.1802913E+03  0.7546771E-02  0.1199313E+00
          1   -1    0    0  502    0 -0.00000000000E+00  0.00000000000E+00  0.43959010292E+03  0.43959010292E+03  0.00000000000E+00 0. -1.
         21   -1    0    0  501  502  0.00000000000E+00 -0.00000000000E+00 -0.12294331740E+03  0.12294331740E+03  0.00000000000E+00 0. -1.
        -24    2    1    2    0    0 -0.14675828742E+02  0.10286009503E+02  0.97122188240E+02  0.13145660547E+03  0.86757926054E+02 0.  0.
         23    2    1    2    0    0 -0.14852589559E+03  0.71074481183E+01  0.27288275894E+02  0.17830787203E+03  0.94544115348E+02 0.  0.
         11    1    3    3    0    0 -0.37834614372E+02  0.15187876878E+02  0.99633347132E+02  0.10765190899E+03  0.00000000000E+00 0. -1.
        -12    1    3    3    0    0  0.23158785630E+02 -0.49018673754E+01 -0.25111588920E+01  0.23804696482E+02  0.00000000000E+00 0.  1.
        -11    1    4    4    0    0 -0.61822122808E+02 -0.27037006476E+02  0.48053092257E+02  0.82837637962E+02  0.00000000000E+00 0.  1.
         11    1    4    4    0    0 -0.86703772785E+02  0.34144454595E+02 -0.20764816363E+02  0.95470234070E+02  0.00000000000E+00 0. -1.
          2    1    1    2  501    0  0.16320172433E+03 -0.17393457621E+02  0.19223632138E+03  0.25276894281E+03  0.00000000000E+00 0. -1.
<scales pt_clust_5="13000.00000" pt_clust_6="13000.00000" pt_clust_7="13000.00000" pt_clust_8="13000.00000" pt_clust_9="153.51351"></scales>
<clustering>
<clus scale="   86.758">  5  6 -1 -1</clus>
<clus scale="   88.590">  1  5  2 -1</clus>
<clus scale="   94.544">  7  8 -1 -1</clus>
<clus scale="  153.514">  2  9  1 -1</clus>
<clus scale="  153.514">  2  5  1 -1</clus>
</clustering>
</event>
<event>
 9    1  0.6270443E-005  0.1738855E+03  0.7546771E-02  0.1175332E+00
          1   -1    0    0  502    0 -0.00000000000E+00  0.00000000000E+00  0.94510121921E+03  0.94510121921E+03  0.00000000000E+00 0. -1.
         21   -1    0    0  501  502  0.00000000000E+00 -0.00000000000E+00 -0.83329613979E+02  0.83329613979E+02  0.00000000000E+00 0.  1.
        -24    2    1    2    0    0  0.14482628382E+03  0.11750016185E+02  0.77274150122E+03  0.79036958389E+03  0.80261672425E+02 0.  0.
         23    2    1    2    0    0 -0.16602167689E+03 -0.23091177840E+02  0.59735858942E+02  0.20016640230E+03  0.91661420875E+02 0.  0.
         11    1    3    3    0    0  0.13601446609E+03 -0.15805588345E+02  0.62539993326E+03  0.64021467348E+03  0.00000000000E+00 0. -1.
        -12    1    3    3    0    0  0.88118177355E+01  0.27555604530E+02  0.14734156796E+03  0.15015491041E+03  0.00000000000E+00 0.  1.
        -13    1    4    4    0    0 -0.79538506636E+02 -0.50393075196E+02  0.51142278790E+01  0.94297356232E+02  0.00000000000E+00 0.  1.
         13    1    4    4    0    0 -0.86483170252E+02  0.27301897356E+02  0.54621631063E+02  0.10586904607E+03  0.00000000000E+00 0. -1.
          2    1    1    2  501    0  0.21195393064E+02  0.11341161655E+02  0.29294245063E+02  0.37894846993E+02  0.00000000000E+00 0. -1.
<scales pt_clust_5="13000.00000" pt_clust_6="13000.00000" pt_clust_7="13000.00000" pt_clust_8="13000.00000" pt_clust_9="24.03886"></scales>
<clustering>
<clus scale="   24.039">  2  9  1 -1</clus>
<clus scale="   80.262">  5  6 -1 -1</clus>
<clus scale="   91.661">  7  8 -1 -1</clus>
<clus scale="  168.156">  1  5  2 -1</clus>
<clus scale="   24.039">  2  5  1 -1</clus>
</clustering>
</event>
<event>
 9    1  0.6270443E-005  0.9019206E+02  0.7546771E-02  0.1309965E+00
         21   -1    0    0  501  502  0.00000000000E+00  0.00000000000E+00  0.45468829039E+03  0.45468829039E+03  0.00000000000E+00 0. -1.
          3   -1    0    0  502    0 -0.00000000000E+00 -0.00000000000E+00 -0.22586590879E+02  0.22586590879E+02  0.00000000000E+00 0. -1.
         23    2    1    2    0    0 -0.40066788808E+01 -0.37448369414E+02  0.12587338007E+03  0.14734182201E+03  0.66686361850E+02 0.  0.
        -24    2    1    2    0    0 -0.19859149997E+02  0.48630241346E+02  0.25340963015E+03  0.27090403261E+03  0.80082882195E+02 0.  0.
         11    1    4    4    0    0 -0.23529186838E+02  0.69742094472E+02  0.18109769119E+03  0.19548390248E+03  0.00000000000E+00 0. -1.
        -12    1    4    4    0    0  0.36700368413E+01 -0.21111853126E+02  0.72311938966E+02  0.75420130137E+02  0.00000000000E+00 0.  1.
        -13    1    3    3    0    0  0.19746089230E+02  0.47524735541E+01  0.72421540137E+02  0.75215513829E+02  0.00000000000E+00 0.  1.
         13    1    3    3    0    0 -0.23752768110E+02 -0.42200842968E+02  0.53451839929E+02  0.72126308182E+02  0.00000000000E+00 0. -1.
          4    1    1    2  501    0  0.23865828878E+02 -0.11181871932E+02  0.52818689295E+02  0.59029026646E+02  0.00000000000E+00 0. -1.
<scales pt_clust_5="13000.00000" pt_clust_6="13000.00000" pt_clust_7="13000.00000" pt_clust_8="13000.00000" pt_clust_9="26.35551"></scales>
<clustering>
<clus scale="   26.356">  1  9  2 -1</clus>
<clus scale="   66.686">  7  8 -1 -1</clus>
<clus scale="   78.539">  2  7  1 -1</clus>
<clus scale="   80.083">  5  6 -1 -1</clus>
<clus scale="   26.356">  1  5  2 -1</clus>
</clustering>
</event>
<event>
 9    1  0.6270443E-005  0.1761545E+03  0.7546771E-02  0.1172838E+00
         21   -1    0    0  501  502  0.00000000000E+00  0.00000000000E+00  0.22929332241E+03  0.22929332241E+03  0.00000000000E+00 0. -1.
          1   -1    0    0  502    0 -0.00000000000E+00 -0.00000000000E+00 -0.21337641361E+03  0.21337641361E+03  0.00000000000E+00 0. -1.
        -24    2    1    2    0    0  0.71978918293E+02 -0.11633536874E+03 -0.48410858994E+02  0.16591217431E+03  0.80426087915E+02 0.  0.
         23    2    1    2    0    0 -0.11207087943E+03  0.15087770316E+03  0.76932538378E+02  0.22235702442E+03  0.90554224217E+02 0.  0.
         13    1    3    3    0    0  0.76396828725E+02 -0.48043415697E+02 -0.28449384695E+02  0.94625645153E+02  0.00000000000E+00 0. -1.
        -14    1    3    3    0    0 -0.44179104322E+01 -0.68291953045E+02 -0.19961474299E+02  0.71286529158E+02  0.00000000000E+00 0.  1.
        -11    1    4    4    0    0 -0.47518815802E+02  0.43962640186E+02 -0.15999402075E+02  0.66683824531E+02  0.00000000000E+00 0.  1.
         11    1    4    4    0    0 -0.64552063628E+02  0.10691506297E+03  0.92931940453E+02  0.15567319989E+03  0.00000000000E+00 0. -1.
          2    1    1    2  501    0  0.40091961137E+02 -0.34542334414E+02 -0.12604770583E+02  0.54400537278E+02  0.00000000000E+00 0. -1.
<scales pt_clust_5="13000.00000" pt_clust_6="13000.00000" pt_clust_7="13000.00000" pt_clust_8="13000.00000" pt_clust_9="52.92014"></scales>
<clustering>
<clus scale="   52.920">  1  9  2 -1</clus>
<clus scale="   80.426">  5  6 -1 -1</clus>
<clus scale="   90.554">  7  8 -1 -1</clus>
<clus scale="  171.169">  2  5  1 -1</clus>
<clus scale="   52.920">  1  5  2 -1</clus>
</clustering>
</event>
<event>
 9    1  0.6270443E-005  0.9396222E+02  0.7546771E-02  0.1301308E+00
          1   -1    0    0  502    0 -0.00000000000E+00  0.00000000000E+00  0.73912205959E+02  0.73912205959E+02  0.00000000000E+00 0. -1.
         21   -1    0    0  501  502  0.00000000000E+00 -0.00000000000E+00 -0.70905867691E+03  0.70905867691E+03  0.00000000000E+00 0.  1.
        -24    2    1    2    0    0  0.38269566336E+01 -0.66717855009E+00  0.44843876036E+02  0.92925221689E+02  0.81295958593E+02 0.  0.
         23    2    1    2    0    0  0.13123774228E+02  0.13418497287E+02 -0.53323282722E+03  0.54176318408E+03  0.93903195267E+02 0.  0.
         13    1    3    3    0    0  0.25096435829E+02 -0.22745833115E+02 -0.51703856324E+01  0.34262762629E+02  0.00000000000E+00 0. -1.
        -14    1    3    3    0    0 -0.21269479196E+02  0.22078654564E+02  0.50014261669E+02  0.58662459059E+02  0.00000000000E+00 0.  1.
        -13    1    4    4    0    0  0.35933344988E+02 -0.29890088244E+02 -0.27102051155E+03  0.27502134524E+03  0.00000000000E+00 0.  1.
         13    1    4    4    0    0 -0.22809570760E+02  0.43308585531E+02 -0.26221231567E+03  0.26674183884E+03  0.00000000000E+00 0. -1.
          2    1    1    2  501    0 -0.16950730862E+02 -0.12751318737E+02 -0.14675751976E+03  0.14828247709E+03  0.00000000000E+00 0. -1.
<scales pt_clust_5="13000.00000" pt_clust_6="13000.00000" pt_clust_7="13000.00000" pt_clust_8="13000.00000" pt_clust_9="21.21140"></scales>
<clustering>
<clus scale="   21.211">  2  9  1 -1</clus>
<clus scale="   81.296">  5  6 -1 -1</clus>
<clus scale="   81.364">  1  5  2 -1</clus>
<clus scale="   93.903">  7  8 -1 -1</clus>
<clus scale="   21.211">  2  5  1 -1</clus>
</clustering>
</event>
<event>
 9    1  0.6270443E-005  0.1031710E+03  0.7546771E-02  0.1277711E+00
          1   -1    0    0  502    0 -0.00000000000E+00  0.00000000000E+00  0.19187953495E+03  0.19187953495E+03  0.00000000000E+00 0. -1.
         21   -1    0    0  501  502  0.00000000000E+00 -0.00000000000E+00 -0.13264030860E+03  0.13264030860E+03  0.00000000000E+00 0. -1.
         23    2    1    2    0    0 -0.36311173184E+02  0.15782765544E+01  0.14227217711E+03  0.17213203844E+03  0.89816891634E+02 0.  0.
        -24    2    1    2    0    0  0.95860862523E+01 -0.55417952716E+01 -0.76369021672E+02  0.12456070136E+03  0.97777995006E+02 0.  0.
         11    1    4    4    0    0 -0.31254420367E+00 -0.35351187686E+02 -0.84939220274E+02  0.92002583091E+02  0.00000000000E+00 0. -1.
        -12    1    4    4    0    0  0.98986304560E+01  0.29809392415E+02  0.85701986016E+01  0.32558118267E+02  0.00000000000E+00 0.  1.
        -13    1    3    3    0    0 -0.20554076235E+02 -0.38650764827E+02  0.33593867463E+02  0.55180608938E+02  0.00000000000E+00 0.  1.
         13    1    3    3    0    0 -0.15757096949E+02  0.40229041382E+02  0.10867830965E+03  0.11695142950E+03  0.00000000000E+00 0. -1.
          2    1    1    2  501    0  0.26725086932E+02  0.39635187172E+01 -0.66639290835E+01  0.27827103747E+02  0.00000000000E+00 0. -1.
<scales pt_clust_5="13000.00000" pt_clust_6="13000.00000" pt_clust_7="13000.00000" pt_clust_8="13000.00000" pt_clust_9="27.01740"></scales>
<clustering>
<clus scale="   27.017">  2  9  1 -1</clus>
<clus scale="   89.817">  7  8 -1 -1</clus>
<clus scale="   95.660">  1  7  2 -1</clus>
<clus scale="   97.778">  5  6 -1 -1</clus>
<clus scale="   27.017">  2  5  1 -1</clus>
</clustering>
</event>
<event>
 9    1  0.6270443E-005  0.3896854E+03  0.7546771E-02  0.1099284E+00
         21   -1    0    0  501  502  0.00000000000E+00  0.00000000000E+00  0.16080058464E+04  0.16080058464E+04  0.00000000000E+00 0. -1.
          1   -1    0    0  502    0 -0.00000000000E+00 -0.00000000000E+00 -0.18714307759E+03  0.18714307759E+03  0.00000000000E+00 0. -1.
         23    2    1    2    0    0 -0.49686995626E+00 -0.39798995001E+02 -0.11062604176E+02  0.95221530629E+02  0.85793658282E+02 0.  0.
        -24    2    1    2    0    0 -0.21247308875E+03 -0.28590637082E+03  0.21779781261E+03  0.42495840492E+03  0.79161180003E+02 0.  0.
         13    1    4    4    0    0 -0.10170004489E+03 -0.13312634093E+03  0.56782403051E+02  0.17688912650E+03  0.00000000000E+00 0. -1.
        -14    1    4    4    0    0 -0.11077304386E+03 -0.15278002989E+03  0.16101540956E+03  0.24806927842E+03  0.00000000000E+00 0.  1.
        -13    1    3    3    0    0 -0.99704265946E+01 -0.21453368728E+02 -0.47656126186E+02  0.53204913300E+02  0.00000000000E+00 0.  1.
         13    1    3    3    0    0  0.94735566384E+01 -0.18345626273E+02  0.36593522010E+02  0.42016617329E+02  0.00000000000E+00 0. -1.
          2    1    1    2  501    0  0.21296995870E+03  0.32570536582E+03  0.12141275604E+04  0.12749689884E+04  0.00000000000E+00 0. -1.
<scales pt_clust_5="13000.00000" pt_clust_6="13000.00000" pt_clust_7="13000.00000" pt_clust_8="13000.00000" pt_clust_9="381.56025"></scales>
<clustering>
<clus scale="   79.161">  5  6 -1 -1</clus>
<clus scale="   85.794">  7  8 -1 -1</clus>
<clus scale="   94.577">  2  7  1 -1</clus>
<clus scale="  381.560">  1  9  2 -1</clus>
<clus scale="  381.560">  1  5  2 -1</clus>
</clustering>
</event>
<event>
 9    1  0.6270443E-005  0.3406605E+03  0.7546771E-02  0.1066922E+00
          1   -1    0    0  502    0 -0.00000000000E+00  0.00000000000E+00  0.97248691065E+03  0.97248691065E+03  0.00000000000E+00 0. -1.
         21   -1    0    0  501  502  0.00000000000E+00 -0.00000000000E+00 -0.87333795942E+03  0.87333795942E+03  0.00000000000E+00 0. -1.
         23    2    1    2    0    0 -0.23271822401E+03  0.22496178768E+03  0.55117788033E+03  0.64572488452E+03  0.91640564234E+02 0.  0.
        -24    2    1    2    0    0  0.30481256405E+03 -0.16072366423E+03  0.28693336608E+03  0.45485545920E+03  0.76288509955E+02 0.  0.
         11    1    4    4    0    0  0.64463960119E+02 -0.29370951640E+01  0.40541650776E+02  0.76209278502E+02  0.00000000000E+00 0. -1.
        -12    1    4    4    0    0  0.24034860393E+03 -0.15778656907E+03  0.24639171530E+03  0.37864618070E+03  0.00000000000E+00 0.  1.
        -11    1    3    3    0    0 -0.19972696180E+03  0.16598905161E+03  0.49002681784E+03  0.55458949388E+03  0.00000000000E+00 0. -1.
         11    1    3    3    0    0 -0.32991262213E+02  0.58972736070E+02  0.61151062495E+02  0.91135390636E+02  0.00000000000E+00 0.  1.
          2    1    1    2  501    0 -0.72094340039E+02 -0.64238123448E+02 -0.73896229517E+03  0.74524452635E+03  0.00000000000E+00 0. -1.
<scales pt_clust_5="13000.00000" pt_clust_6="13000.00000" pt_clust_7="13000.00000" pt_clust_8="13000.00000" pt_clust_9="96.56154"></scales>
<clustering>
<clus scale="   76.289">  5  6 -1 -1</clus>
<clus scale="   91.641">  7  8 -1 -1</clus>
<clus scale="   96.562">  2  9  1 -1</clus>
<clus scale="  336.855">  2  5  1 -1</clus>
<clus scale="   96.562">  2  5  1 -1</clus>
</clustering>
</event>
<event>
 9    1  0.6270443E-005  0.1313094E+03  0.7546771E-02  0.1249094E+00
          1   -1    0    0  502    0 -0.00000000000E+00  0.00000000000E+00  0.20456561349E+03  0.20456561349E+03  0.00000000000E+00 0. -1.
         21   -1    0    0  501  502  0.00000000000E+00 -0.00000000000E+00 -0.14610385895E+03  0.14610385895E+03  0.00000000000E+00 0. -1.
        -24    2    1    2    0    0 -0.42093757181E+01 -0.84994302615E+01 -0.31213304510E+01  0.81243886569E+02  0.80627955712E+02 0.  0.
         23    2    1    2    0    0 -0.32729032319E+02  0.88218265516E+02 -0.36622139320E+02  0.13765379539E+03  0.93561393592E+02 0.  0.
         11    1    3    3    0    0  0.34677588059E+02 -0.15549489851E+02 -0.13588319619E+02  0.40360428371E+02  0.00000000000E+00 0. -1.
        -12    1    3    3    0    0 -0.38886963777E+02  0.70500595896E+01  0.10466989168E+02  0.40883458198E+02  0.00000000000E+00 0.  1.
        -13    1    4    4    0    0 -0.58448565958E+02  0.24257045630E+02 -0.11738492470E+02  0.64361722558E+02  0.00000000000E+00 0. -1.
         13    1    4    4    0    0  0.25719533639E+02  0.63961219887E+02 -0.24883646851E+02  0.73292072836E+02  0.00000000000E+00 0.  1.
          2    1    1    2  501    0  0.36938408037E+02 -0.79718835255E+02  0.98205224308E+02  0.13177179047E+03  0.00000000000E+00 0. -1.
<scales pt_clust_5="13000.00000" pt_clust_6="13000.00000" pt_clust_7="13000.00000" pt_clust_8="13000.00000" pt_clust_9="92.13265"></scales>
<clustering>
<clus scale="   80.628">  5  6 -1 -1</clus>
<clus scale="   81.184">  1  5  2 -1</clus>
<clus scale="   92.133">  2  9  1 -1</clus>
<clus scale="   93.561">  7  8 -1 -1</clus>
<clus scale="   92.133">  2  5  1 -1</clus>
</clustering>
</event>
<event>
 9    1  0.6270443E-005  0.2727965E+03  0.7546771E-02  0.1143517E+00
         -4   -1    0    0    0  501 -0.00000000000E+00  0.00000000000E+00  0.49222559591E+03  0.49222559591E+03  0.00000000000E+00 0.  1.
         21   -1    0    0  501  502  0.00000000000E+00 -0.00000000000E+00 -0.31312200065E+03  0.31312200065E+03  0.00000000000E+00 0. -1.
        -24    2    1    2    0    0  0.98627008275E+01  0.45225703384E+02  0.19009162660E+03  0.21093018628E+03  0.78829435279E+02 0.  0.
         23    2    1    2    0    0  0.24197745772E+03 -0.94801319077E+02  0.12630834912E+03  0.30333064793E+03  0.92278398188E+02 0.  0.
         11    1    3    3    0    0  0.34780321888E+02  0.31178244789E+02  0.51962132889E+02  0.69870000666E+02  0.00000000000E+00 0. -1.
        -12    1    3    3    0    0 -0.24917621061E+02  0.14047458595E+02  0.13812949371E+03  0.14106018561E+03  0.00000000000E+00 0.  1.
        -11    1    4    4    0    0  0.17519185322E+03 -0.57706841140E+02  0.41262090650E+02  0.18901011897E+03  0.00000000000E+00 0. -1.
         11    1    4    4    0    0  0.66785604504E+02 -0.37094477937E+02  0.85046258466E+02  0.11432052896E+03  0.00000000000E+00 0.  1.
         -3    1    1    2    0  502 -0.25184015855E+03  0.49575615693E+02 -0.13729638046E+03  0.29108676235E+03  0.00000000000E+00 0.  1.
<scales pt_clust_5="13000.00000" pt_clust_6="13000.00000" pt_clust_7="13000.00000" pt_clust_8="13000.00000" pt_clust_9="256.71511"></scales>
<clustering>
<clus scale="   78.829">  5  6 -1 -1</clus>
<clus scale="   91.415">  1  5  2 -1</clus>
<clus scale="   92.278">  7  8 -1 -1</clus>
<clus scale="  256.715">  2  9  1 -1</clus>
<clus scale="  256.715">  2  5  1 -1</clus>
</clustering>
</event>
<event>
 9    1  0.6270443E-005  0.1249721E+03  0.7546771E-02  0.1235147E+00
         21   -1    0    0  501  502  0.00000000000E+00  0.00000000000E+00  0.11060188202E+03  0.11060188202E+03  0.00000000000E+00 0.  1.
         -2   -1    0    0    0  501 -0.00000000000E+00 -0.00000000000E+00 -0.56052943539E+03  0.56052943539E+03  0.00000000000E+00 0.  1.
         23    2    1    2    0    0 -0.93389069170E+02  0.20453157892E+02 -0.41290810005E+03  0.43354133620E+03  0.91242211732E+02 0.  0.
        -24    2    1    2    0    0  0.60600686551E+02  0.50987459628E+02 -0.83015218869E+02  0.14651610837E+03  0.91122330953E+02 0.  0.
         11    1    4    4    0    0  0.23318934304E+02 -0.12074400746E+02  0.10014834434E+02  0.28104461553E+02  0.00000000000E+00 0. -1.
        -12    1    4    4    0    0  0.37281752247E+02  0.63061860374E+02 -0.93030053303E+02  0.11841164682E+03  0.00000000000E+00 0.  1.
        -13    1    3    3    0    0 -0.10155232446E+03 -0.86583598207E+01 -0.31836704504E+03  0.33428343837E+03  0.00000000000E+00 0.  1.
         13    1    3    3    0    0  0.81632552937E+01  0.29111517713E+02 -0.94541055002E+02  0.99257897829E+02  0.00000000000E+00 0. -1.
         -1    1    1    2    0  502  0.32788382620E+02 -0.71440617520E+02  0.45995765544E+02  0.91073872842E+02  0.00000000000E+00 0.  1.
<scales pt_clust_5="13000.00000" pt_clust_6="13000.00000" pt_clust_7="13000.00000" pt_clust_8="13000.00000" pt_clust_9="78.60560"></scales>
<clustering>
<clus scale="   78.606">  1  9  2 -1</clus>
<clus scale="   91.122">  5  6 -1 -1</clus>
<clus scale="   91.242">  7  8 -1 -1</clus>
<clus scale="  124.885">  1  5  2 -1</clus>
<clus scale="   78.606">  1  5  2 -1</clus>
</clustering>
</event>
<event>
 9    1  0.6270443E-005  0.1126066E+03  0.7546771E-02  0.1257963E+00
          1   -1    0    0  502    0 -0.00000000000E+00  0.00000000000E+00  0.86059134036E+03  0.86059134036E+03  0.00000000000E+00 0. -1.
         21   -1    0    0  501  502  0.00000000000E+00 -0.00000000000E+00 -0.60135860113E+02  0.60135860113E+02  0.00000000000E+00 0.  1.
        -24    2    1    2    0    0  0.25181541752E+02  0.57232608728E+02  0.26369526959E+03  0.28307809937E+03  0.81782232759E+02 0.  0.
         23    2    1    2    0    0  0.56775649904E+01 -0.11853883466E+03  0.65698729691E+02  0.16161374878E+03  0.87857786479E+02 0.  0.
         13    1    3    3    0    0 -0.19754150343E+02  0.53874391315E+02  0.13366492860E+03  0.14546129944E+03  0.00000000000E+00 0. -1.
        -14    1    3    3    0    0  0.44935692094E+02  0.33582174124E+01  0.13003034098E+03  0.13761679994E+03  0.00000000000E+00 0.  1.
        -13    1    4    4    0    0 -0.36634095615E+02 -0.39214992632E+02  0.43319994516E+02  0.68967343964E+02  0.00000000000E+00 0.  1.
         13    1    4    4    0    0  0.42311660605E+02 -0.79323842026E+02  0.22378735175E+02  0.92646404814E+02  0.00000000000E+00 0. -1.
          2    1    1    2  501    0 -0.30859106742E+02  0.61306225930E+02  0.47106148097E+03  0.47603535233E+03  0.00000000000E+00 0. -1.
<scales pt_clust_5="13000.00000" pt_clust_6="13000.00000" pt_clust_7="13000.00000" pt_clust_8="13000.00000" pt_clust_9="68.63485"></scales>
<clustering>
<clus scale="   68.635">  2  9  1 -1</clus>
<clus scale="   81.782">  5  6 -1 -1</clus>
<clus scale="   87.858">  7  8 -1 -1</clus>
<clus scale="  107.933">  1  5  2 -1</clus>
<clus scale="   68.635">  2  5  1 -1</clus>
</clustering>
</event>
<event>
 9    1  0.6270443E-005  0.1033127E+03  0.7546771E-02  0.1278837E+00
         21   -1    0    0  501  502  0.00000000000E+00  0.00000000000E+00  0.22015704575E+03  0.22015704575E+03  0.00000000000E+00 0.  1.
          1   -1    0    0  502    0 -0.00000000000E+00 -0.00000000000E+00 -0.15139993504E+03  0.15139993504E+03  0.00000000000E+00 0. -1.
         23    2    1    2    0    0  0.34931567665E+02  0.41555626424E+02 -0.10770344755E+03  0.15158761330E+03  0.91824220038E+02 0.  0.
        -24    2    1    2    0    0  0.22266354851E+01 -0.21544445421E+02  0.83461866109E+02  0.11784230855E+03  0.80323132127E+02 0.  0.
         13    1    4    4    0    0  0.34499396820E+02  0.93951878197E+01  0.52267000871E+02  0.63327066214E+02  0.00000000000E+00 0. -1.
        -14    1    4    4    0    0 -0.32272761335E+02 -0.30939633241E+02  0.31194865238E+02  0.54515242332E+02  0.00000000000E+00 0.  1.
        -11    1    3    3    0    0  0.10704311896E+02  0.58181684941E+02 -0.10691871693E+03  0.12219371009E+03  0.00000000000E+00 0. -1.
         11    1    3    3    0    0  0.24227255769E+02 -0.16626058517E+02 -0.78473061922E+00  0.29393903212E+02  0.00000000000E+00 0.  1.
          2    1    1    2  501    0 -0.37158203150E+02 -0.20011181003E+02  0.92998692153E+02  0.10212705894E+03  0.00000000000E+00 0. -1.
<scales pt_clust_5="13000.00000" pt_clust_6="13000.00000" pt_clust_7="13000.00000" pt_clust_8="13000.00000" pt_clust_9="42.20402"></scales>
<clustering>
<clus scale="   42.204">  1  9  2 -1</clus>
<clus scale="   80.323">  5  6 -1 -1</clus>
<clus scale="   91.824">  7  8 -1 -1</clus>
<clus scale="   93.240">  1  5  2 -1</clus>
<clus scale="   42.204">  1  5  2 -1</clus>
</clustering>
</event>
<event>
 9    1  0.6270443E-005  0.1119869E+03  0.7546771E-02  0.1260788E+00
          1   -1    0    0  502    0 -0.00000000000E+00  0.00000000000E+00  0.11551257136E+04  0.11551257136E+04  0.00000000000E+00 0. -1.
         21   -1    0    0  501  502  0.00000000000E+00 -0.00000000000E+00 -0.19936098011E+02  0.19936098011E+02  0.00000000000E+00 0. -1.
        -24    2    1    2    0    0  0.45534450170E+02 -0.31740662258E+01  0.47746259851E+03  0.48646811679E+03  0.81223363809E+02 0.  0.
         23    2    1    2    0    0 -0.10368233581E+03  0.24275572304E+02  0.49460155392E+03  0.51413347903E+03  0.91450571077E+02 0.  0.
         13    1    3    3    0    0  0.57649383865E+01  0.36268053521E+02  0.21251634516E+03  0.21566595276E+03  0.00000000000E+00 0. -1.
        -14    1    3    3    0    0  0.39769511783E+02 -0.39442119747E+02  0.26494625335E+03  0.27080216403E+03  0.00000000000E+00 0.  1.
        -13    1    4    4    0    0 -0.33160342819E+02  0.49510052047E+02  0.29461339229E+03  0.30057928156E+03  0.00000000000E+00 0.  1.
         13    1    4    4    0    0 -0.70521992986E+02 -0.25234479743E+02  0.19998816164E+03  0.21355419747E+03  0.00000000000E+00 0. -1.
          2    1    1    2  501    0  0.58147885635E+02 -0.21101506078E+02  0.16312546313E+03  0.17446021576E+03  0.00000000000E+00 0. -1.
<scales pt_clust_5="13000.00000" pt_clust_6="13000.00000" pt_clust_7="13000.00000" pt_clust_8="13000.00000" pt_clust_9="61.85831"></scales>
<clustering>
<clus scale="   61.858">  2  9  1 -1</clus>
<clus scale="   81.223">  5  6 -1 -1</clus>
<clus scale="   91.451">  7  8 -1 -1</clus>
<clus scale="  103.803">  1  5  2 -1</clus>
<clus scale="   61.858">  2  5  1 -1</clus>
</clustering>
</event>
<event>
 9    1  0.6270443E-005  0.1333785E+03  0.7546771E-02  0.1229200E+00
         -4   -1    0    0    0  501 -0.00000000000E+00  0.00000000000E+00  0.11596662984E+03  0.11596662984E+03  0.00000000000E+00 0.  1.
         21   -1    0    0  501  502  0.00000000000E+00 -0.00000000000E+00 -0.37150261951E+03  0.37150261951E+03  0.00000000000E+00 0.  1.
         23    2    1    2    0    0 -0.68047701324E+02 -0.28078377509E+02 -0.17098996381E+03  0.20667963580E+03  0.89777609625E+02 0.  0.
        -24    2    1    2    0    0  0.51002812009E+02 -0.91382126737E+02 -0.88780931277E+02  0.16004494596E+03  0.82342887067E+02 0.  0.
         11    1    4    4    0    0 -0.11031314854E+02 -0.56913906108E+02 -0.20299194732E+02  0.61424261677E+02  0.00000000000E+00 0. -1.
        -12    1    4    4    0    0  0.62034126864E+02 -0.34468220630E+02 -0.68481736544E+02  0.98620684287E+02  0.00000000000E+00 0.  1.
        -11    1    3    3    0    0  0.10985486525E+02  0.17436441517E+02 -0.13338974596E+02  0.24548699563E+02  0.00000000000E+00 0. -1.
         11    1    3    3    0    0 -0.79033187850E+02 -0.45514819027E+02 -0.15765098921E+03  0.18213093623E+03  0.00000000000E+00 0.  1.
         -3    1    1    2    0  502  0.17044889315E+02  0.11946050425E+03  0.42349054232E+01  0.12074466759E+03  0.00000000000E+00 0.  1.
<scales pt_clust_5="13000.00000" pt_clust_6="13000.00000" pt_clust_7="13000.00000" pt_clust_8="13000.00000" pt_clust_9="104.92604"></scales>
<clustering>
<clus scale="   82.343">  5  6 -1 -1</clus>
<clus scale="   89.778">  7  8 -1 -1</clus>
<clus scale="  116.099">  1  7  2 -1</clus>
<clus scale="  104.926">  2  9  1 -1</clus>
<clus scale="  104.926">  2  5  1 -1</clus>
</clustering>
</event>
<event>
 9    1  0.7476531E-005  0.9647951E+02  0.7546771E-02  0.1294679E+00
         21   -1    0    0  501  502  0.00000000000E+00  0.00000000000E+00  0.34552290782E+03  0.34552290782E+03  0.00000000000E+00 0. -1.
          3   -1    0    0  502    0 -0.00000000000E+00 -0.00000000000E+00 -0.26995206309E+03  0.26995206309E+03  0.00000000000E+00 0. -1.
         23    2    1    2    0    0  0.21166592728E+02  0.28722924515E+02 -0.23167647675E+03  0.25186003607E+03  0.92121967254E+02 0.  0.
        -24    2    1    2    0    0  0.20459242736E+01  0.22068797933E+02  0.42885325774E+02  0.93418923053E+02  0.79979537190E+02 0.  0.
         13    1    4    4    0    0  0.21705963340E+02  0.16624290250E+02 -0.15599789258E+02  0.31478076430E+02  0.00000000000E+00 0. -1.
        -14    1    4    4    0    0 -0.19660039067E+02  0.54445076838E+01  0.58485115032E+02  0.61940846623E+02  0.00000000000E+00 0.  1.
        -13    1    3    3    0    0 -0.35993250224E+02  0.47435316091E+01 -0.73662299313E+02  0.82122770861E+02  0.00000000000E+00 0.  1.
         13    1    3    3    0    0  0.57159842952E+02  0.23979392906E+02 -0.15801417743E+03  0.16973726521E+03  0.00000000000E+00 0. -1.
          4    1    1    2  501    0 -0.23212517001E+02 -0.50791722448E+02  0.26436199571E+03  0.27019601179E+03  0.00000000000E+00 0. -1.
<scales pt_clust_5="13000.00000" pt_clust_6="13000.00000" pt_clust_7="13000.00000" pt_clust_8="13000.00000" pt_clust_9="55.84461"></scales>
<clustering>
<clus scale="   55.845">  1  9  2 -1</clus>
<clus scale="   79.980">  5  6 -1 -1</clus>
<clus scale="   84.962">  1  5  2 -1</clus>
<clus scale="   92.122">  7  8 -1 -1</clus>
<clus scale="   55.845">  1  5  2 -1</clus>
</clustering>
</event>
<event>
 9    1  0.6270443E-005  0.1028986E+03  0.7546771E-02  0.1279433E+00
          1   -1    0    0  502    0 -0.00000000000E+00  0.00000000000E+00  0.98460753231E+02  0.98460753231E+02  0.00000000000E+00 0. -1.
         21   -1    0    0  501  502  0.00000000000E+00 -0.00000000000E+00 -0.16550150572E+03  0.16550150572E+03  0.00000000000E+00 0. -1.
         23    2    1    2    0    0 -0.24074936729E+02 -0.66090641998E+02 -0.55766479760E+01  0.11614896000E+03  0.92259993330E+02 0.  0.
        -24    2    1    2    0    0  0.10306335775E+02  0.18186049360E+02 -0.32238915747E+02  0.90033232952E+02  0.81422861648E+02 0.  0.
         13    1    4    4    0    0 -0.27691999820E+02 -0.11156512345E+01  0.10536470637E+02  0.29649768046E+02  0.00000000000E+00 0. -1.
        -14    1    4    4    0    0  0.37998335595E+02  0.19301700594E+02 -0.42775386384E+02  0.60383464906E+02  0.00000000000E+00 0.  1.
        -13    1    3    3    0    0 -0.14555769999E+02 -0.33711014028E+02  0.43286739021E+02  0.56763057371E+02  0.00000000000E+00 0.  1.
         13    1    3    3    0    0 -0.95191667304E+01 -0.32379627970E+02 -0.48863386997E+02  0.59385902633E+02  0.00000000000E+00 0. -1.
          2    1    1    2  501    0  0.13768600954E+02  0.47904592638E+02 -0.29225188769E+02  0.57780065997E+02  0.00000000000E+00 0. -1.
<scales pt_clust_5="13000.00000" pt_clust_6="13000.00000" pt_clust_7="13000.00000" pt_clust_8="13000.00000" pt_clust_9="49.84400"></scales>
<clustering>
<clus scale="   49.844">  2  9  1 -1</clus>
<clus scale="   81.423">  5  6 -1 -1</clus>
<clus scale="   92.260">  7  8 -1 -1</clus>
<clus scale="   93.305">  2  5  1 -1</clus>
<clus scale="   49.844">  2  5  1 -1</clus>
</clustering>
</event>
<event>
 9    1  0.7334586E-005  0.9156315E+02  0.7546771E-02  0.1305286E+00
         21   -1    0    0  501  502  0.00000000000E+00  0.00000000000E+00  0.18345810891E+03  0.18345810891E+03  0.00000000000E+00 0.  1.
         -2   -1    0    0    0  501 -0.00000000000E+00 -0.00000000000E+00 -0.23041570111E+03  0.23041570111E+03  0.00000000000E+00 0.  1.
         23    2    1    2    0    0 -0.49758094772E+01 -0.11500335109E+02 -0.20000104810E+03  0.21994388312E+03  0.90652501880E+02 0.  0.
        -24    2    1    2    0    0  0.24925124152E+02  0.50765994456E+01  0.74871719266E+02  0.11299748629E+03  0.80719414553E+02 0.  0.
         11    1    4    4    0    0 -0.41665739499E+01  0.36923376486E+02  0.17110680412E+02  0.40908085433E+02  0.00000000000E+00 0. -1.
        -12    1    4    4    0    0  0.29091698102E+02 -0.31846777040E+02  0.57761038853E+02  0.72089400856E+02  0.00000000000E+00 0.  1.
        -11    1    3    3    0    0 -0.14059550908E+02 -0.30356071331E+02 -0.19574838911E+03  0.19858648967E+03  0.00000000000E+00 0.  1.
         11    1    3    3    0    0  0.90837414310E+01  0.18855736222E+02 -0.42526589832E+01  0.21357393457E+02  0.00000000000E+00 0. -1.
         -1    1    1    2    0  502 -0.19949314675E+02  0.64237356632E+01  0.78171736622E+02  0.80932440606E+02  0.00000000000E+00 0.  1.
<scales pt_clust_5="13000.00000" pt_clust_6="13000.00000" pt_clust_7="13000.00000" pt_clust_8="13000.00000" pt_clust_9="20.95804"></scales>
<clustering>
<clus scale="   20.958">  1  9  2 -1</clus>
<clus scale="   80.719">  5  6 -1 -1</clus>
<clus scale="   81.741">  1  5  2 -1</clus>
<clus scale="   90.653">  7  8 -1 -1</clus>
<clus scale="   20.958">  1  5  2 -1</clus>
</clustering>
</event>
<event>
 9    1  0.6270443E-005  0.1836300E+03  0.7546771E-02  0.1165227E+00
          1   -1    0    0  502    0 -0.00000000000E+00  0.00000000000E+00  0.16455046554E+04  0.16455046554E+04  0.00000000000E+00 0. -1.
         21   -1    0    0  501  502  0.00000000000E+00 -0.00000000000E+00 -0.14100856852E+03  0.14100856852E+03  0.00000000000E+00 0. -1.
         23    2    1    2    0    0  0.74192566239E+02 -0.13626341337E+03  0.91750476948E+03  0.93503800056E+03  0.91699540667E+02 0.  0.
        -24    2    1    2    0    0 -0.51609256577E+02  0.15785815735E+03  0.70513050040E+03  0.72927372821E+03  0.83954957272E+02 0.  0.
         13    1    4    4    0    0 -0.25333564705E+02  0.12102550777E+03  0.62623758846E+03  0.63832787832E+03  0.00000000000E+00 0. -1.
        -14    1    4    4    0    0 -0.26275691871E+02  0.36832649578E+02  0.78892911941E+02  0.90945849893E+02  0.00000000000E+00 0.  1.
        -11    1    3    3    0    0  0.11232493722E+02 -0.11187125541E+03  0.59773961147E+03  0.60822199058E+03  0.00000000000E+00 0.  1.
         11    1    3    3    0    0  0.62960072516E+02 -0.24392157957E+02  0.31976515801E+03  0.32681600998E+03  0.00000000000E+00 0. -1.
          2    1    1    2  501    0 -0.22583309662E+02 -0.21594743979E+02 -0.11813918304E+03  0.12220149513E+03  0.00000000000E+00 0. -1.
<scales pt_clust_5="13000.00000" pt_clust_6="13000.00000" pt_clust_7="13000.00000" pt_clust_8="13000.00000" pt_clust_9="31.24642"></scales>
<clustering>
<clus scale="   31.246">  2  9  1 -1</clus>
<clus scale="   83.955">  5  6 -1 -1</clus>
<clus scale="   91.700">  7  8 -1 -1</clus>
<clus scale="  179.888">  2  5  1 -1</clus>
<clus scale="   31.246">  2  5  1 -1</clus>
</clustering>
</event>
<event>
 9    1  0.6270443E-005  0.9542518E+02  0.7546771E-02  0.1297445E+00
         21   -1    0    0  501  502  0.00000000000E+00  0.00000000000E+00  0.41650528193E+02  0.41650528193E+02  0.00000000000E+00 0.  1.
         -2   -1    0    0    0  501 -0.00000000000E+00 -0.00000000000E+00 -0.44944886729E+03  0.44944886729E+03  0.00000000000E+00 0.  1.
        -24    2    1    2    0    0 -0.13698972672E+02 -0.22380060350E+02 -0.34030284953E+03  0.35058092129E+03  0.80077612505E+02 0.  0.
         23    2    1    2    0    0 -0.10780672895E+02  0.16451421879E+02 -0.65900644481E+02  0.11528069829E+03  0.92519577743E+02 0.  0.
         11    1    3    3    0    0 -0.25540360614E+01  0.22756577700E+02 -0.35447828465E+02  0.42201107470E+02  0.00000000000E+00 0. -1.
        -12    1    3    3    0    0 -0.11144936611E+02 -0.45136638050E+02 -0.30485502106E+03  0.30837981382E+03  0.00000000000E+00 0.  1.
        -13    1    4    4    0    0  0.21096638172E+02  0.43497946858E+02 -0.17714224309E+02  0.51487214587E+02  0.00000000000E+00 0. -1.
         13    1    4    4    0    0 -0.31877311066E+02 -0.27046524979E+02 -0.48186420172E+02  0.63793483705E+02  0.00000000000E+00 0.  1.
         -1    1    1    2    0  502  0.24479645566E+02  0.59286384706E+01 -0.15948450837E+01  0.25237775893E+02  0.00000000000E+00 0.  1.
<scales pt_clust_5="13000.00000" pt_clust_6="13000.00000" pt_clust_7="13000.00000" pt_clust_8="13000.00000" pt_clust_9="25.18733"></scales>
<clustering>
<clus scale="   25.187">  1  9  2 -1</clus>
<clus scale="   80.078">  5  6 -1 -1</clus>
<clus scale="   83.418">  2  5  1 -1</clus>
<clus scale="   92.520">  7  8 -1 -1</clus>
<clus scale="   25.187">  1  5  2 -1</clus>
</clustering>
</event>
<event>
 9    1  0.6270443E-005  0.1618857E+03  0.7546771E-02  0.1217170E+00
          1   -1    0    0  502    0 -0.00000000000E+00  0.00000000000E+00  0.11532524022E+04  0.11532524022E+04  0.00000000000E+00 0. -1.
         21   -1    0    0  501  502  0.00000000000E+00 -0.00000000000E+00 -0.33056146556E+02  0.33056146556E+02  0.00000000000E+00 0. -1.
        -24    2    1    2    0    0 -0.92077249065E+01  0.15812549658E+02  0.16109301860E+03  0.18143796245E+03  0.81449092399E+02 0.  0.
         23    2    1    2    0    0 -0.12254187888E+03  0.26441572907E+02  0.60686953568E+03  0.62643703949E+03  0.91744548945E+02 0.  0.
         13    1    3    3    0    0 -0.54212830198E+01  0.37839429125E+02  0.30379656670E+02  0.48827617651E+02  0.00000000000E+00 0. -1.
        -14    1    3    3    0    0 -0.37864418867E+01 -0.22026879467E+02  0.13071336193E+03  0.13261034480E+03  0.00000000000E+00 0.  1.
        -13    1    4    4    0    0 -0.71617546964E+02 -0.26585047517E+02  0.39096224241E+03  0.39835576157E+03  0.00000000000E+00 0. -1.
         13    1    4    4    0    0 -0.50924331911E+02  0.53026620424E+02  0.21590729327E+03  0.22808127793E+03  0.00000000000E+00 0.  1.
          2    1    1    2  501    0  0.13174960378E+03 -0.42254122565E+02  0.35223370134E+03  0.37843354679E+03  0.00000000000E+00 0. -1.
<scales pt_clust_5="13000.00000" pt_clust_6="13000.00000" pt_clust_7="13000.00000" pt_clust_8="13000.00000" pt_clust_9="133.37887"></scales>
<clustering>
<clus scale="   81.449">  5  6 -1 -1</clus>
<clus scale="   83.479">  1  5  2 -1</clus>
<clus scale="   91.745">  7  8 -1 -1</clus>
<clus scale="  133.379">  2  9  1 -1</clus>
<clus scale="  133.379">  2  5  1 -1</clus>
</clustering>
</event>
<event>
 9    1  0.6270443E-005  0.9099977E+02  0.7546771E-02  0.1307186E+00
         -2   -1    0    0    0  501 -0.00000000000E+00  0.00000000000E+00  0.18395235604E+03  0.18395235604E+03  0.00000000000E+00 0.  1.
         21   -1    0    0  501  502  0.00000000000E+00 -0.00000000000E+00 -0.10630535141E+03  0.10630535141E+03  0.00000000000E+00 0. -1.
        -24    2    1    2    0    0  0.62451412867E+00  0.13568938443E+02  0.11388260305E+03  0.13924247305E+03  0.78960198301E+02 0.  0.
         23    2    1    2    0    0  0.19284605264E+02 -0.26624280745E+02 -0.63579186732E+02  0.11475938219E+03  0.89703146486E+02 0.  0.
         13    1    3    3    0    0 -0.25359287249E+02 -0.20757414430E+02  0.27719180570E+02  0.42922216568E+02  0.00000000000E+00 0. -1.
        -14    1    3    3    0    0  0.25983801378E+02  0.34326352874E+02  0.86163422478E+02  0.96320256482E+02  0.00000000000E+00 0.  1.
        -13    1    4    4    0    0  0.31238696922E+02  0.24523494245E+02 -0.42481868176E+02  0.58154682349E+02  0.00000000000E+00 0. -1.
         13    1    4    4    0    0 -0.11954091658E+02 -0.51147774989E+02 -0.21097318556E+02  0.56604699840E+02  0.00000000000E+00 0.  1.
         -1    1    1    2    0  502 -0.19909119393E+02  0.13055342301E+02  0.27343588317E+02  0.36255852212E+02  0.00000000000E+00 0.  1.
<scales pt_clust_5="13000.00000" pt_clust_6="13000.00000" pt_clust_7="13000.00000" pt_clust_8="13000.00000" pt_clust_9="23.80789"></scales>
<clustering>
<clus scale="   23.808">  2  9  1 -1</clus>
<clus scale="   78.960">  5  6 -1 -1</clus>
<clus scale="   80.430">  1  5  2 -1</clus>
<clus scale="   89.703">  7  8 -1 -1</clus>
<clus scale="   23.808">  2  5  1 -1</clus>
</clustering>
</event>
<event>
 9    1  0.6270443E-005  0.1615913E+03  0.7546771E-02  0.1212517E+00
          1   -1    0    0  502    0 -0.00000000000E+00  0.00000000000E+00  0.73076085554E+03  0.73076085554E+03  0.00000000000E+00 0. -1.
         21   -1    0    0  501  502  0.00000000000E+00 -0.00000000000E+00 -0.66829341898E+02  0.66829341898E+02  0.00000000000E+00 0. -1.
        -24    2    1    2    0    0  0.17826339020E+02 -0.41887531919E+02  0.31833244589E+02  0.97947081719E+02  0.80671752572E+02 0.  0.
         23    2    1    2    0    0 -0.76478065221E+01 -0.95717983670E+02  0.44804940205E+03  0.46961514810E+03  0.10280904289E+03 0.  0.
         13    1    3    3    0    0  0.45030402286E+02 -0.30510559527E+01  0.13496210962E+02  0.47108319677E+02  0.00000000000E+00 0. -1.
        -14    1    3    3    0    0 -0.27204063266E+02 -0.38836475967E+02  0.18337033627E+02  0.50838762042E+02  0.00000000000E+00 0.  1.
        -13    1    4    4    0    0  0.11276747829E+02 -0.24229541117E+02  0.15718117766E+02  0.31004756578E+02  0.00000000000E+00 0.  1.
         13    1    4    4    0    0 -0.18924554351E+02 -0.71488442554E+02  0.43233128429E+03  0.43861039152E+03  0.00000000000E+00 0. -1.
          2    1    1    2  501    0 -0.10178532498E+02  0.13760551559E+03  0.18404886700E+03  0.23002796762E+03  0.00000000000E+00 0. -1.
<scales pt_clust_5="13000.00000" pt_clust_6="13000.00000" pt_clust_7="13000.00000" pt_clust_8="13000.00000" pt_clust_9="124.66769"></scales>
<clustering>
<clus scale="   80.672">  5  6 -1 -1</clus>
<clus scale="   92.630">  1  5  2 -1</clus>
<clus scale="  102.809">  7  8 -1 -1</clus>
<clus scale="  124.668">  2  9  1 -1</clus>
<clus scale="  124.668">  2  5  1 -1</clus>
</clustering>
</event>
<event>
 9    1  0.6270443E-005  0.1444307E+03  0.7546771E-02  0.1209809E+00
         21   -1    0    0  501  502  0.00000000000E+00  0.00000000000E+00  0.58042699572E+03  0.58042699572E+03  0.00000000000E+00 0. -1.
         -2   -1    0    0    0  501 -0.00000000000E+00 -0.00000000000E+00 -0.47657625657E+02  0.47657625657E+02  0.00000000000E+00 0.  1.
        -24    2    1    2    0    0  0.50086286240E+02  0.92138278587E+02  0.22073843819E+03  0.25651971395E+03  0.77966705076E+02 0.  0.
         23    2    1    2    0    0 -0.48317496252E+02 -0.11530919823E+03  0.31248467743E+03  0.34832214469E+03  0.89726535686E+02 0.  0.
         11    1    3    3    0    0 -0.64357826244E+01  0.61555126033E+02  0.74988395681E+02  0.97230202745E+02  0.00000000000E+00 0. -1.
        -12    1    3    3    0    0  0.56522068865E+02  0.30583152553E+02  0.14575004251E+03  0.15928951120E+03  0.00000000000E+00 0.  1.
        -13    1    4    4    0    0 -0.60118611560E+02 -0.93115407581E+02  0.30086261507E+03  0.32062913114E+03  0.00000000000E+00 0. -1.
         13    1    4    4    0    0  0.11801115308E+02 -0.22193790649E+02  0.11622062363E+02  0.27693013550E+02  0.00000000000E+00 0.  1.
         -1    1    1    2    0  502 -0.17687899880E+01  0.23170919643E+02 -0.45374555489E+00  0.23242762748E+02  0.00000000000E+00 0.  1.
<scales pt_clust_5="13000.00000" pt_clust_6="13000.00000" pt_clust_7="13000.00000" pt_clust_8="13000.00000" pt_clust_9="23.23834"></scales>
<clustering>
<clus scale="   23.238">  1  9  2 -1</clus>
<clus scale="   77.967">  5  6 -1 -1</clus>
<clus scale="   89.727">  7  8 -1 -1</clus>
<clus scale="  137.434">  2  5  1 -1</clus>
<clus scale="   23.238">  1  5  2 -1</clus>
</clustering>
</event>
<event>
 9    1  0.6270443E-005  0.8519234E+02  0.7546771E-02  0.1315457E+00
          1   -1    0    0  502    0 -0.00000000000E+00  0.00000000000E+00  0.25626350608E+03  0.25626350608E+03  0.00000000000E+00 0. -1.
         21   -1    0    0  501  502  0.00000000000E+00 -0.00000000000E+00 -0.90404580641E+02  0.90404580641E+02  0.00000000000E+00 0. -1.
         23    2    1    2    0    0  0.42534814479E+01 -0.12438248312E+02  0.15907908478E+03  0.17976600067E+03  0.82685292860E+02 0.  0.
        -24    2    1    2    0    0 -0.44937437758E+02  0.18319411013E+02  0.49796386302E+02  0.10740254341E+03  0.81857511017E+02 0.  0.
         11    1    4    4    0    0 -0.59683063655E+02  0.24454923827E+02  0.60292616730E+02  0.88291058544E+02  0.00000000000E+00 0. -1.
        -12    1    4    4    0    0  0.14745625897E+02 -0.61355128138E+01 -0.10496230428E+02  0.19111484866E+02  0.00000000000E+00 0.  1.
        -13    1    3    3    0    0  0.22308397123E+02 -0.42020932388E+02  0.74907596502E+02  0.88738781571E+02  0.00000000000E+00 0.  1.
         13    1    3    3    0    0 -0.18054915676E+02  0.29582684076E+02  0.84171488279E+02  0.91027219096E+02  0.00000000000E+00 0. -1.
          2    1    1    2  501    0  0.40683956310E+02 -0.58811627011E+01 -0.43016545645E+02  0.59499542645E+02  0.00000000000E+00 0. -1.
<scales pt_clust_5="13000.00000" pt_clust_6="13000.00000" pt_clust_7="13000.00000" pt_clust_8="13000.00000" pt_clust_9="41.10684"></scales>
<clustering>
<clus scale="   41.107">  2  9  1 -1</clus>
<clus scale="   81.858">  5  6 -1 -1</clus>
<clus scale="   82.685">  7  8 -1 -1</clus>
<clus scale="   84.389">  2  5  1 -1</clus>
<clus scale="   41.107">  2  5  1 -1</clus>
</clustering>
</event>
<event>
 9    1  0.6270443E-005  0.9262630E+02  0.7546771E-02  0.1303496E+00
          1   -1    0    0  502    0 -0.00000000000E+00  0.00000000000E+00  0.15713600111E+03  0.15713600111E+03  0.00000000000E+00 0. -1.
         21   -1    0    0  501  502  0.00000000000E+00 -0.00000000000E+00 -0.13874761984E+03  0.13874761984E+03  0.00000000000E+00 0. -1.
         23    2    1    2    0    0  0.35959825510E+01 -0.47608265150E+01  0.59581248045E+02  0.10876080809E+03  0.90793125831E+02 0.  0.
        -24    2    1    2    0    0 -0.59569657790E+02  0.30025842435E+02 -0.63636674626E+02  0.12173858035E+03  0.79501951204E+02 0.  0.
         11    1    4    4    0    0 -0.69439205020E+02  0.95177282324E+00 -0.28471314986E+02  0.75055478430E+02  0.00000000000E+00 0. -1.
        -12    1    4    4    0    0  0.98695472302E+01  0.29074069611E+02 -0.35165359640E+02  0.46683101920E+02  0.00000000000E+00 0.  1.
        -13    1    3    3    0    0 -0.50093713469E+00 -0.47615383806E+02  0.35838948448E+02  0.59597868577E+02  0.00000000000E+00 0. -1.
         13    1    3    3    0    0  0.40969196857E+01  0.42854557291E+02  0.23742299597E+02  0.49162939514E+02  0.00000000000E+00 0.  1.
          2    1    1    2  501    0  0.55973675239E+02 -0.25265015920E+02  0.22443807851E+02  0.65384232503E+02  0.00000000000E+00 0. -1.
<scales pt_clust_5="13000.00000" pt_clust_6="13000.00000" pt_clust_7="13000.00000" pt_clust_8="13000.00000" pt_clust_9="61.41154"></scales>
<clustering>
<clus scale="   61.412">  2  9  1 -1</clus>
<clus scale="   79.502">  5  6 -1 -1</clus>
<clus scale="   81.589">  2  5  1 -1</clus>
<clus scale="   90.793">  7  8 -1 -1</clus>
<clus scale="   61.412">  2  5  1 -1</clus>
</clustering>
</event>
<event>
 9    1  0.6270443E-005  0.1040857E+03  0.7546771E-02  0.1275790E+00
         -2   -1    0    0    0  501 -0.00000000000E+00  0.00000000000E+00  0.48639893221E+02  0.48639893221E+02  0.00000000000E+00 0.  1.
         21   -1    0    0  501  502  0.00000000000E+00 -0.00000000000E+00 -0.64786131432E+03  0.64786131432E+03  0.00000000000E+00 0. -1.
        -24    2    1    2    0    0 -0.28670039316E+02  0.41564176284E+02 -0.19248417420E+02  0.97408619420E+02  0.81045577668E+02 0.  0.
         23    2    1    2    0    0  0.18447904118E+02 -0.72312143621E+02 -0.48022655870E+03  0.49421512234E+03  0.89786792920E+02 0.  0.
         13    1    3    3    0    0 -0.10421232806E+02 -0.24189058657E+02  0.58915291946E+00  0.26345013818E+02  0.00000000000E+00 0. -1.
        -14    1    3    3    0    0 -0.18248806510E+02  0.65753234941E+02 -0.19837570339E+02  0.71063605602E+02  0.00000000000E+00 0.  1.
        -11    1    4    4    0    0 -0.31973401490E+02 -0.89476630447E+01 -0.19109422336E+03  0.19395711195E+03  0.00000000000E+00 0. -1.
         11    1    4    4    0    0  0.50421305608E+02 -0.63364480577E+02 -0.28913233534E+03  0.30025801038E+03  0.00000000000E+00 0.  1.
         -1    1    1    2    0  502  0.10222135198E+02  0.30747967338E+02 -0.99746444976E+02  0.10487746578E+03  0.00000000000E+00 0.  1.
<scales pt_clust_5="13000.00000" pt_clust_6="13000.00000" pt_clust_7="13000.00000" pt_clust_8="13000.00000" pt_clust_9="32.40262"></scales>
<clustering>
<clus scale="   32.403">  2  9  1 -1</clus>
<clus scale="   81.046">  5  6 -1 -1</clus>
<clus scale="   89.787">  7  8 -1 -1</clus>
<clus scale="   96.647">  1  5  2 -1</clus>
<clus scale="   32.403">  2  5  1 -1</clus>
</clustering>
</event>
<event>
 9    1  0.6270443E-005  0.9359693E+02  0.7546771E-02  0.1298529E+00
          1   -1    0    0  502    0 -0.00000000000E+00  0.00000000000E+00  0.15035772495E+03  0.15035772495E+03  0.00000000000E+00 0. -1.
         21   -1    0    0  501  502  0.00000000000E+00 -0.00000000000E+00 -0.32656935715E+03  0.32656935715E+03  0.00000000000E+00 0. -1.
         23    2    1    2    0    0  0.16642974749E+02  0.33928802549E+02  0.11213241622E+03  0.14767435251E+03  0.88350910422E+02 0.  0.
        -24    2    1    2    0    0  0.28198869265E+02  0.22267632985E+01 -0.97208502447E+02  0.12962604588E+03  0.80952357093E+02 0.  0.
         13    1    4    4    0    0  0.38923529355E+02  0.17337863193E+02 -0.10195222144E+03  0.11049840765E+03  0.00000000000E+00 0. -1.
        -14    1    4    4    0    0 -0.10724660090E+02 -0.15111099894E+02  0.47437189933E+01  0.19127638222E+02  0.00000000000E+00 0.  1.
        -13    1    3    3    0    0  0.31892191985E+02  0.53358499534E+02  0.10490442795E+03  0.12193924875E+03  0.00000000000E+00 0. -1.
         13    1    3    3    0    0 -0.15249217235E+02 -0.19429696985E+02  0.72279882657E+01  0.25735103761E+02  0.00000000000E+00 0.  1.
          2    1    1    2  501    0 -0.44841844014E+02 -0.36155565847E+02 -0.19113554597E+03  0.19962668371E+03  0.00000000000E+00 0. -1.
<scales pt_clust_5="13000.00000" pt_clust_6="13000.00000" pt_clust_7="13000.00000" pt_clust_8="13000.00000" pt_clust_9="57.60222"></scales>
<clustering>
<clus scale="   57.602">  2  9  1 -1</clus>
<clus scale="   80.952">  5  6 -1 -1</clus>
<clus scale="   86.647">  2  5  1 -1</clus>
<clus scale="   88.351">  7  8 -1 -1</clus>
<clus scale="   57.602">  2  5  1 -1</clus>
</clustering>
</event>
<event>
 9    1  0.6270443E-005  0.9918575E+02  0.7546771E-02  0.1284802E+00
         21   -1    0    0  501  502  0.00000000000E+00  0.00000000000E+00  0.92269729882E+02  0.92269729882E+02  0.00000000000E+00 0.  1.
          3   -1    0    0  502    0 -0.00000000000E+00 -0.00000000000E+00 -0.37627830626E+03  0.37627830626E+03  0.00000000000E+00 0. -1.
         23    2    1    2    0    0 -0.16614801902E+02  0.14869492587E+02 -0.30325806690E+03  0.31877524916E+03  0.95682030100E+02 0.  0.
        -24    2    1    2    0    0  0.23003411699E+02 -0.46244714950E+02 -0.12286649083E+02  0.10483119139E+03  0.90392955104E+02 0.  0.
         11    1    4    4    0    0  0.26059805735E+01  0.22076182132E+02 -0.23845071698E+02  0.32599637982E+02  0.00000000000E+00 0. -1.
        -12    1    4    4    0    0  0.20397431126E+02 -0.68320897082E+02  0.11558422616E+02  0.72231553410E+02  0.00000000000E+00 0.  1.
        -11    1    3    3    0    0 -0.11443006438E+02  0.50178384452E+02 -0.24585356346E+03  0.25118277674E+03  0.00000000000E+00 0. -1.
         11    1    3    3    0    0 -0.51717954637E+01 -0.35308891865E+02 -0.57404503438E+02  0.67592472421E+02  0.00000000000E+00 0.  1.
          4    1    1    2  501    0 -0.63886097972E+01  0.31375222363E+02  0.31536139602E+02  0.44941595593E+02  0.00000000000E+00 0. -1.
<scales pt_clust_5="13000.00000" pt_clust_6="13000.00000" pt_clust_7="13000.00000" pt_clust_8="13000.00000" pt_clust_9="32.01904"></scales>
<clustering>
<clus scale="   32.019">  1  9  2 -1</clus>
<clus scale="   90.393">  5  6 -1 -1</clus>
<clus scale="   94.094">  1  5  2 -1</clus>
<clus scale="   95.682">  7  8 -1 -1</clus>
<clus scale="   32.019">  1  5  2 -1</clus>
</clustering>
</event>
<event>
 9    1  0.6270443E-005  0.9096221E+02  0.7546771E-02  0.1308197E+00
         21   -1    0    0  501  502  0.00000000000E+00  0.00000000000E+00  0.26788459376E+03  0.26788459376E+03  0.00000000000E+00 0.  1.
         -4   -1    0    0    0  501 -0.00000000000E+00 -0.00000000000E+00 -0.98802718847E+02  0.98802718847E+02  0.00000000000E+00 0.  1.
        -24    2    1    2    0    0 -0.39094180389E+01  0.29517569288E+01 -0.46501857424E+02  0.91739772128E+02  0.78928870686E+02 0.  0.
         23    2    1    2    0    0 -0.20482673483E+02 -0.85248042573E+01  0.47272901190E+02  0.10478711950E+03  0.90848230727E+02 0.  0.
         13    1    3    3    0    0  0.21514122462E+02  0.12698969451E+02 -0.57252864996E+02  0.62466085524E+02  0.00000000000E+00 0. -1.
        -14    1    3    3    0    0 -0.25423540501E+02 -0.97472125217E+01  0.10751007573E+02  0.29273686604E+02  0.00000000000E+00 0.  1.
        -13    1    4    4    0    0 -0.46353336797E+02  0.13586565343E+02  0.22591813540E+01  0.48356286979E+02  0.00000000000E+00 0.  1.
         13    1    4    4    0    0  0.25870663314E+02 -0.22111369600E+02  0.45013719836E+02  0.56430832525E+02  0.00000000000E+00 0. -1.
         -3    1    1    2    0  502  0.24392091522E+02  0.55730473285E+01  0.16831083115E+03  0.17016042098E+03  0.00000000000E+00 0.  1.
<scales pt_clust_5="13000.00000" pt_clust_6="13000.00000" pt_clust_7="13000.00000" pt_clust_8="13000.00000" pt_clust_9="25.02065"></scales>
<clustering>
<clus scale="   25.021">  1  9  2 -1</clus>
<clus scale="   78.929">  5  6 -1 -1</clus>
<clus scale="   79.060">  2  5  1 -1</clus>
<clus scale="   90.848">  7  8 -1 -1</clus>
<clus scale="   25.021">  1  5  2 -1</clus>
</clustering>
</event>
<event>
 9    1  0.6270443E-005  0.1938867E+03  0.7546771E-02  0.1172698E+00
         -2   -1    0    0    0  501 -0.00000000000E+00  0.00000000000E+00  0.74581136298E+03  0.74581136298E+03  0.00000000000E+00 0.  1.
         21   -1    0    0  501  502  0.00000000000E+00 -0.00000000000E+00 -0.93909201489E+02  0.93909201489E+02  0.00000000000E+00 0. -1.
         23    2    1    2    0    0  0.46527826470E+02  0.78378754847E+02  0.78294139496E+02  0.15071144471E+03  0.90971970634E+02 0.  0.
        -24    2    1    2    0    0  0.11081259222E+03 -0.15262463449E+03  0.27382351532E+03  0.34239808641E+03  0.81752201110E+02 0.  0.
         13    1    4    4    0    0  0.83639127736E+02 -0.15588782183E+03  0.22275286054E+03  0.28445624191E+03  0.00000000000E+00 0. -1.
        -14    1    4    4    0    0  0.27173464481E+02  0.32631873469E+01  0.51070654785E+02  0.57941844497E+02  0.00000000000E+00 0.  1.
        -11    1    3    3    0    0 -0.12626833929E+02  0.47596885717E+02  0.18621425899E+01  0.49278474409E+02  0.00000000000E+00 0.  1.
         11    1    3    3    0    0  0.59154660399E+02  0.30781869130E+02  0.76431996906E+02  0.10143297031E+03  0.00000000000E+00 0. -1.
         -1    1    1    2    0  502 -0.15734041869E+03  0.74245879641E+02  0.29978450668E+03  0.34661103335E+03  0.00000000000E+00 0.  1.
<scales pt_clust_5="13000.00000" pt_clust_6="13000.00000" pt_clust_7="13000.00000" pt_clust_8="13000.00000" pt_clust_9="175.80864"></scales>
<clustering>
<clus scale="   81.752">  5  6 -1 -1</clus>
<clus scale="   90.972">  7  8 -1 -1</clus>
<clus scale="  128.779">  1  7  2 -1</clus>
<clus scale="  175.809">  2  9  1 -1</clus>
<clus scale="  175.809">  2  5  1 -1</clus>
</clustering>
</event>
<event>
 9    1  0.6270443E-005  0.9118227E+02  0.7546771E-02  0.1302369E+00
         21   -1    0    0  501  502  0.00000000000E+00  0.00000000000E+00  0.28539327033E+02  0.28539327033E+02  0.00000000000E+00 0.  1.
          1   -1    0    0  502    0 -0.00000000000E+00 -0.00000000000E+00 -0.66166666461E+03  0.66166666461E+03  0.00000000000E+00 0. -1.
        -24    2    1    2    0    0  0.59115442357E+01 -0.40022962731E+01 -0.12600098938E+03  0.15091824834E+03  0.82759311420E+02 0.  0.
         23    2    1    2    0    0 -0.31281137168E+02 -0.48285627285E+02 -0.18813139068E+03  0.21504180869E+03  0.86830570529E+02 0.  0.
         13    1    3    3    0    0  0.33864225860E+02 -0.33158208307E+01 -0.11653084626E+03  0.12139694638E+03  0.00000000000E+00 0. -1.
        -14    1    3    3    0    0 -0.27952681625E+02 -0.68647544247E+00 -0.94701431185E+01  0.29521301957E+02  0.00000000000E+00 0.  1.
        -11    1    4    4    0    0  0.24791818895E+02 -0.21388237232E+02 -0.27387584123E+02  0.42686891900E+02  0.00000000000E+00 0.  1.
         11    1    4    4    0    0 -0.56072956062E+02 -0.26897390052E+02 -0.16074380656E+03  0.17235491679E+03  0.00000000000E+00 0. -1.
          2    1    1    2  501    0  0.25369592932E+02  0.52287923558E+02 -0.31899495752E+03  0.32424593462E+03  0.00000000000E+00 0. -1.
<scales pt_clust_5="13000.00000" pt_clust_6="13000.00000" pt_clust_7="13000.00000" pt_clust_8="13000.00000" pt_clust_9="58.11752"></scales>
<clustering>
<clus scale="   58.118">  1  9  2 -1</clus>
<clus scale="   82.759">  5  6 -1 -1</clus>
<clus scale="   86.831">  7  8 -1 -1</clus>
<clus scale="   87.314">  2  5  1 -1</clus>
<clus scale="   58.118">  1  5  2 -1</clus>
</clustering>
</event>
<event>
 9    1  0.6270443E-005  0.1181690E+03  0.7546771E-02  0.1250185E+00
         -2   -1    0    0    0  501 -0.00000000000E+00  0.00000000000E+00  0.19984949686E+03  0.19984949686E+03  0.00000000000E+00 0.  1.
         21   -1    0    0  501  502  0.00000000000E+00 -0.00000000000E+00 -0.93741343910E+02  0.93741343910E+02  0.00000000000E+00 0. -1.
        -24    2    1    2    0    0  0.50237008881E+02 -0.51486041097E+02  0.10315346453E+03  0.14944082453E+03  0.80730126374E+02 0.  0.
         23    2    1    2    0    0 -0.67677977403E+02  0.39361632576E+02  0.99514553124E+01  0.12178612990E+03  0.92753346184E+02 0.  0.
         13    1    3    3    0    0  0.17972606269E+02 -0.66265549832E+02  0.47696266837E+02  0.83600667108E+02  0.00000000000E+00 0. -1.
        -14    1    3    3    0    0  0.32264402612E+02  0.14779508735E+02  0.55457197689E+02  0.65840157426E+02  0.00000000000E+00 0.  1.
        -11    1    4    4    0    0 -0.77381577620E+02  0.87901896762E+01 -0.17207719021E+02  0.79757642790E+02  0.00000000000E+00 0. -1.
         11    1    4    4    0    0  0.97036002166E+01  0.30571442900E+02  0.27159174334E+02  0.42028487108E+02  0.00000000000E+00 0.  1.
         -1    1    1    2    0  502  0.17440968522E+02  0.12124408522E+02 -0.69967668930E+01  0.22363886334E+02  0.00000000000E+00 0.  1.
<scales pt_clust_5="13000.00000" pt_clust_6="13000.00000" pt_clust_7="13000.00000" pt_clust_8="13000.00000" pt_clust_9="21.24120"></scales>
<clustering>
<clus scale="   21.241">  2  9  1 -1</clus>
<clus scale="   80.730">  5  6 -1 -1</clus>
<clus scale="   92.753">  7  8 -1 -1</clus>
<clus scale="  108.987">  1  5  2 -1</clus>
<clus scale="   21.241">  2  5  1 -1</clus>
</clustering>
</event>
<event>
 9    1  0.6270443E-005  0.1160087E+03  0.7546771E-02  0.1258917E+00
         21   -1    0    0  501  502  0.00000000000E+00  0.00000000000E+00  0.23564370752E+03  0.23564370752E+03  0.00000000000E+00 0.  1.
          1   -1    0    0  502    0 -0.00000000000E+00 -0.00000000000E+00 -0.22436808276E+03  0.22436808276E+03  0.00000000000E+00 0. -1.
         23    2    1    2    0    0  0.30331323281E+02  0.66436159115E+01 -0.34215763108E+02  0.10273975506E+03  0.91763892793E+02 0.  0.
        -24    2    1    2    0    0  0.68117724437E+02 -0.45976737106E+02  0.16299470701E+03  0.19901168190E+03  0.79274777095E+02 0.  0.
         13    1    4    4    0    0 -0.55799198047E+01 -0.32034027227E+02  0.84033764091E+02  0.90105426656E+02  0.00000000000E+00 0. -1.
        -14    1    4    4    0    0  0.73697644242E+02 -0.13942709879E+02  0.78960942920E+02  0.10890625525E+03  0.00000000000E+00 0.  1.
        -11    1    3    3    0    0 -0.24629130833E+02 -0.22081248164E+02 -0.27312420239E+01  0.33190891659E+02  0.00000000000E+00 0. -1.
         11    1    3    3    0    0  0.54960454114E+02  0.28724864076E+02 -0.31484521084E+02  0.69548863402E+02  0.00000000000E+00 0.  1.
          2    1    1    2  501    0 -0.98449047718E+02  0.39333121195E+02 -0.11750331914E+03  0.15826035331E+03  0.00000000000E+00 0. -1.
<scales pt_clust_5="13000.00000" pt_clust_6="13000.00000" pt_clust_7="13000.00000" pt_clust_8="13000.00000" pt_clust_9="84.69675"></scales>
<clustering>
<clus scale="   79.275">  5  6 -1 -1</clus>
<clus scale="   91.764">  7  8 -1 -1</clus>
<clus scale="   96.875">  2  7  1 -1</clus>
<clus scale="   84.697">  1  9  2 -1</clus>
<clus scale="   84.697">  1  5  2 -1</clus>
</clustering>
</event>
<event>
 9    1  0.6270443E-005  0.2432756E+03  0.7546771E-02  0.1118335E+00
          1   -1    0    0  502    0 -0.00000000000E+00  0.00000000000E+00  0.13791415066E+04  0.13791415066E+04  0.00000000000E+00 0. -1.
         21   -1    0    0  501  502  0.00000000000E+00 -0.00000000000E+00 -0.61076593473E+02  0.61076593473E+02  0.00000000000E+00 0. -1.
        -24    2    1    2    0    0  0.53798948087E+02  0.24878260304E+03  0.68342295824E+03  0.73648013489E+03  0.10270802718E+03 0.  0.
         23    2    1    2    0    0  0.55864876842E+01 -0.18774753818E+03  0.36202890698E+03  0.41813372325E+03  0.92144094170E+02 0.  0.
         11    1    3    3    0    0  0.36512039506E+02  0.24471596204E+03  0.66997907065E+03  0.71420654311E+03  0.00000000000E+00 0. -1.
        -12    1    3    3    0    0  0.17286908581E+02  0.40666409911E+01  0.13443887586E+02  0.22273591778E+02  0.00000000000E+00 0.  1.
        -13    1    4    4    0    0  0.30988451823E+02 -0.15065613888E+03  0.32621056514E+03  0.36065341970E+03  0.00000000000E+00 0. -1.
         13    1    4    4    0    0 -0.25401964139E+02 -0.37091399301E+02  0.35818341834E+02  0.57480303548E+02  0.00000000000E+00 0.  1.
          2    1    1    2  501    0 -0.59385435771E+02 -0.61035064855E+02  0.27261304793E+03  0.28560424196E+03  0.00000000000E+00 0. -1.
<scales pt_clust_5="13000.00000" pt_clust_6="13000.00000" pt_clust_7="13000.00000" pt_clust_8="13000.00000" pt_clust_9="85.15818"></scales>
<clustering>
<clus scale="   85.158">  2  9  1 -1</clus>
<clus scale="   92.144">  7  8 -1 -1</clus>
<clus scale="  102.708">  5  6 -1 -1</clus>
<clus scale="  239.008">  2  7  1 -1</clus>
<clus scale="   85.158">  2  5  1 -1</clus>
</clustering>
</event>
<event>
 9    1  0.6270443E-005  0.8619214E+02  0.7546771E-02  0.1321778E+00
          1   -1    0    0  502    0 -0.00000000000E+00  0.00000000000E+00  0.17213611994E+02  0.17213611994E+02  0.00000000000E+00 0. -1.
         21   -1    0    0  501  502  0.00000000000E+00 -0.00000000000E+00 -0.52324928032E+03  0.52324928032E+03  0.00000000000E+00 0.  1.
         23    2    1    2    0    0  0.31140396007E+02  0.16429783257E+02 -0.14562058583E+03  0.16399459545E+03  0.66702400830E+02 0.  0.
        -24    2    1    2    0    0 -0.20775415768E+02  0.53385714059E+01 -0.29680087501E+03  0.30843843964E+03  0.81138113099E+02 0.  0.
         11    1    4    4    0    0 -0.16084989072E+02  0.35827076501E+02 -0.76531942515E+02  0.86020023885E+02  0.00000000000E+00 0. -1.
        -12    1    4    4    0    0 -0.46904266952E+01 -0.30488505095E+02 -0.22026893250E+03  0.22241841576E+03  0.00000000000E+00 0.  1.
        -13    1    3    3    0    0  0.24493819250E+00  0.21505768405E+02 -0.81434984028E+01  0.22997274526E+02  0.00000000000E+00 0. -1.
         13    1    3    3    0    0  0.30895457815E+02 -0.50759851479E+01 -0.13747708743E+03  0.14099732092E+03  0.00000000000E+00 0.  1.
          2    1    1    2  501    0 -0.10364980240E+02 -0.21768354663E+02 -0.63614207480E+02  0.68029857220E+02  0.00000000000E+00 0. -1.
<scales pt_clust_5="13000.00000" pt_clust_6="13000.00000" pt_clust_7="13000.00000" pt_clust_8="13000.00000" pt_clust_9="24.11005"></scales>
<clustering>
<clus scale="   24.110">  2  9  1 -1</clus>
<clus scale="   66.702">  7  8 -1 -1</clus>
<clus scale="   72.766">  1  7  2 -1</clus>
<clus scale="   81.138">  5  6 -1 -1</clus>
<clus scale="   24.110">  2  5  1 -1</clus>
</clustering>
</event>
<event>
 9    1  0.6270443E-005  0.1030167E+03  0.7546771E-02  0.1280857E+00
          1   -1    0    0  502    0 -0.00000000000E+00  0.00000000000E+00  0.13011362834E+03  0.13011362834E+03  0.00000000000E+00 0. -1.
         21   -1    0    0  501  502  0.00000000000E+00 -0.00000000000E+00 -0.97026054106E+02  0.97026054106E+02  0.00000000000E+00 0.  1.
         23    2    1    2    0    0  0.30674023948E+02  0.13636787009E+02  0.34076011214E+02  0.10659860388E+03  0.95264002136E+02 0.  0.
        -24    2    1    2    0    0 -0.47855241615E+02  0.10590825068E+01  0.10545774269E+02  0.95159966488E+02  0.81565679433E+02 0.  0.
         13    1    4    4    0    0 -0.38342559671E+02 -0.21976203815E+02  0.37853537755E+02  0.58189309471E+02  0.00000000000E+00 0. -1.
        -14    1    4    4    0    0 -0.95126819444E+01  0.23035286321E+02 -0.27307763486E+02  0.36970657017E+02  0.00000000000E+00 0.  1.
        -11    1    3    3    0    0  0.10613477719E+02  0.39917488005E+02  0.54008818128E+02  0.67992677500E+02  0.00000000000E+00 0.  1.
         11    1    3    3    0    0  0.20060546229E+02 -0.26280700997E+02 -0.19932806914E+02  0.38605926377E+02  0.00000000000E+00 0. -1.
          2    1    1    2  501    0  0.17181217667E+02 -0.14695869515E+02 -0.11534211249E+02  0.25381112081E+02  0.00000000000E+00 0. -1.
<scales pt_clust_5="13000.00000" pt_clust_6="13000.00000" pt_clust_7="13000.00000" pt_clust_8="13000.00000" pt_clust_9="22.60891"></scales>
<clustering>
<clus scale="   22.609">  2  9  1 -1</clus>
<clus scale="   81.566">  5  6 -1 -1</clus>
<clus scale="   90.500">  2  5  1 -1</clus>
<clus scale="   95.264">  7  8 -1 -1</clus>
<clus scale="   22.609">  2  5  1 -1</clus>
</clustering>
</event>
<event>
 9    1  0.6270443E-005  0.1467241E+03  0.7546771E-02  0.1230285E+00
         21   -1    0    0  501  502  0.00000000000E+00  0.00000000000E+00  0.53363697680E+03  0.53363697680E+03  0.00000000000E+00 0.  1.
         -2   -1    0    0    0  501 -0.00000000000E+00 -0.00000000000E+00 -0.10103239635E+03  0.10103239635E+03  0.00000000000E+00 0.  1.
        -24    2    1    2    0    0  0.26526495316E+02 -0.13596725650E+02 -0.31241049222E+02  0.90822636599E+02  0.79901328276E+02 0.  0.
         23    2    1    2    0    0 -0.10811093197E+03 -0.62445453584E+02  0.17273700261E+03  0.23210539172E+03  0.91909915194E+02 0.  0.
         11    1    3    3    0    0  0.12862146355E+01  0.30020083555E+02  0.25391064626E+01  0.30154714828E+02  0.00000000000E+00 0. -1.
        -12    1    3    3    0    0  0.25240280680E+02 -0.43616809205E+02 -0.33780155684E+02  0.60667921772E+02  0.00000000000E+00 0.  1.
        -13    1    4    4    0    0  0.22716676938E+01 -0.26874343486E+02  0.38646019132E+01  0.27245659468E+02  0.00000000000E+00 0. -1.
         13    1    4    4    0    0 -0.11038259966E+03 -0.35571110098E+02  0.16887240070E+03  0.20485973225E+03  0.00000000000E+00 0.  1.
         -1    1    1    2    0  502  0.81584436652E+02  0.76042179234E+02  0.29110862707E+03  0.31174134483E+03  0.00000000000E+00 0.  1.
<scales pt_clust_5="13000.00000" pt_clust_6="13000.00000" pt_clust_7="13000.00000" pt_clust_8="13000.00000" pt_clust_9="114.37008"></scales>
<clustering>
<clus scale="   79.901">  5  6 -1 -1</clus>
<clus scale="   85.280">  2  5  1 -1</clus>
<clus scale="   91.910">  7  8 -1 -1</clus>
<clus scale="  114.370">  1  9  2 -1</clus>
<clus scale="  114.370">  1  5  2 -1</clus>
</clustering>
</event>
<event>
 9    1  0.6270443E-005  0.2178151E+03  0.7546771E-02  0.1159325E+00
          1   -1    0    0  502    0 -0.00000000000E+00  0.00000000000E+00  0.87543733475E+03  0.87543733475E+03  0.00000000000E+00 0. -1.
         21   -1    0    0  501  502  0.00000000000E+00 -0.00000000000E+00 -0.22652189336E+03  0.22652189336E+03  0.00000000000E+00 0.  1.
        -24    2    1    2    0    0 -0.45312231335E+02  0.90741113159E+02  0.23616749106E+03  0.26655338502E+03  0.70629139219E+02 0.  0.
         23    2    1    2    0    0 -0.88613078410E+02 -0.18390163848E+03 -0.13696947574E+03  0.26199140257E+03  0.90591210588E+02 0.  0.
         11    1    3    3    0    0 -0.41413935408E+02  0.10061851709E+03  0.22957414270E+03  0.25405410255E+03  0.00000000000E+00 0. -1.
        -12    1    3    3    0    0 -0.38982959270E+01 -0.98774039333E+01  0.65933483584E+01  0.12499282466E+02  0.00000000000E+00 0.  1.
        -13    1    4    4    0    0 -0.97486204497E+02 -0.16525304001E+03 -0.14430527306E+03  0.24007527805E+03  0.00000000000E+00 0.  1.
         13    1    4    4    0    0  0.88731260870E+01 -0.18648598474E+02  0.73357973209E+01  0.21916124519E+02  0.00000000000E+00 0. -1.
          2    1    1    2  501    0  0.13392530974E+03  0.93160525322E+02  0.54971742607E+03  0.57341444052E+03  0.00000000000E+00 0. -1.
<scales pt_clust_5="13000.00000" pt_clust_6="13000.00000" pt_clust_7="13000.00000" pt_clust_8="13000.00000" pt_clust_9="198.08259"></scales>
<clustering>
<clus scale="   70.629">  5  6 -1 -1</clus>
<clus scale="   90.591">  7  8 -1 -1</clus>
<clus scale="  123.595">  1  5  2 -1</clus>
<clus scale="  198.083">  2  9  1 -1</clus>
<clus scale="  198.083">  2  5  1 -1</clus>
</clustering>
</event>
<event>
 9    1  0.6270443E-005  0.2766697E+03  0.7546771E-02  0.1098183E+00
         21   -1    0    0  501  502  0.00000000000E+00  0.00000000000E+00  0.85232811662E+02  0.85232811662E+02  0.00000000000E+00 0.  1.
          1   -1    0    0  502    0 -0.00000000000E+00 -0.00000000000E+00 -0.14483761420E+04  0.14483761420E+04  0.00000000000E+00 0. -1.
        -24    2    1    2    0    0  0.22887514648E+03  0.12885701034E+03 -0.79586676626E+03  0.84170353862E+03  0.77929298057E+02 0.  0.
         23    2    1    2    0    0 -0.23663993805E+03 -0.10397809155E+03 -0.59407588767E+03  0.65452284782E+03  0.93081116286E+02 0.  0.
         11    1    3    3    0    0  0.69809678878E+02  0.15341676883E+01 -0.18390091280E+03  0.19671118591E+03  0.00000000000E+00 0. -1.
        -12    1    3    3    0    0  0.15906546761E+03  0.12732284265E+03 -0.61196585347E+03  0.64499235271E+03  0.00000000000E+00 0.  1.
        -13    1    4    4    0    0 -0.18746580028E+03 -0.37101237810E+02 -0.43374768946E+03  0.47397994286E+03  0.00000000000E+00 0. -1.
         13    1    4    4    0    0 -0.49174137776E+02 -0.66876853738E+02 -0.16032819820E+03  0.18054290496E+03  0.00000000000E+00 0.  1.
          2    1    1    2  501    0  0.77647915696E+01 -0.24878918794E+02  0.26799323578E+02  0.37382567231E+02  0.00000000000E+00 0. -1.
<scales pt_clust_5="13000.00000" pt_clust_6="13000.00000" pt_clust_7="13000.00000" pt_clust_8="13000.00000" pt_clust_9="26.06247"></scales>
<clustering>
<clus scale="   26.062">  1  9  2 -1</clus>
<clus scale="   77.929">  5  6 -1 -1</clus>
<clus scale="   93.081">  7  8 -1 -1</clus>
<clus scale="  271.947">  2  5  1 -1</clus>
<clus scale="   26.062">  1  5  2 -1</clus>
</clustering>
</event>
<event>
 9    1  0.6270443E-005  0.1326500E+03  0.7546771E-02  0.1227102E+00
         21   -1    0    0  501  502  0.00000000000E+00  0.00000000000E+00  0.17280685724E+03  0.17280685724E+03  0.00000000000E+00 0. -1.
          3   -1    0    0  502    0 -0.00000000000E+00 -0.00000000000E+00 -0.15996611732E+03  0.15996611732E+03  0.00000000000E+00 0. -1.
        -24    2    1    2    0    0  0.85746258260E+02 -0.35759070409E+02 -0.59328534201E+02  0.13414401326E+03  0.76443504638E+02 0.  0.
         23    2    1    2    0    0 -0.10860227229E+03  0.98707061103E+01  0.31654774773E+02  0.14539335817E+03  0.90803741370E+02 0.  0.
         11    1    3    3    0    0  0.41183021132E+02 -0.24632591902E+02 -0.71973197472E+02  0.86504028621E+02  0.00000000000E+00 0. -1.
        -12    1    3    3    0    0  0.44563237128E+02 -0.11126478507E+02  0.12644663271E+02  0.47639984641E+02  0.00000000000E+00 0.  1.
        -13    1    4    4    0    0 -0.34394054359E+02 -0.22528825302E+02 -0.23559485466E+02  0.47387216632E+02  0.00000000000E+00 0.  1.
         13    1    4    4    0    0 -0.74208217935E+02  0.32399531412E+02  0.55214260239E+02  0.98006141535E+02  0.00000000000E+00 0. -1.
          4    1    1    2  501    0  0.22856014034E+02  0.25888364299E+02  0.40514499347E+02  0.53235603133E+02  0.00000000000E+00 0. -1.
<scales pt_clust_5="13000.00000" pt_clust_6="13000.00000" pt_clust_7="13000.00000" pt_clust_8="13000.00000" pt_clust_9="34.53411"></scales>
<clustering>
<clus scale="   34.534">  1  9  2 -1</clus>
<clus scale="   76.444">  5  6 -1 -1</clus>
<clus scale="   90.804">  7  8 -1 -1</clus>
<clus scale="  123.265">  2  5  1 -1</clus>
<clus scale="   34.534">  1  5  2 -1</clus>
</clustering>
</event>
<event>
 9    1  0.6270443E-005  0.2049250E+03  0.7546771E-02  0.1166999E+00
         21   -1    0    0  501  502  0.00000000000E+00  0.00000000000E+00  0.94820017716E+02  0.94820017716E+02  0.00000000000E+00 0. -1.
          1   -1    0    0  502    0 -0.00000000000E+00 -0.00000000000E+00 -0.75046090952E+03  0.75046090952E+03  0.00000000000E+00 0. -1.
         23    2    1    2    0    0  0.23840884496E+02 -0.79292938717E+02 -0.11136076297E+03  0.16685806127E+03  0.92653306353E+02 0.  0.
        -24    2    1    2    0    0 -0.59184532090E+02  0.22913130212E+03 -0.30727434977E+03  0.39580572585E+03  0.78998000864E+02 0.  0.
         13    1    4    4    0    0 -0.14232841184E+02  0.80713639117E+02 -0.16989408124E+03  0.18862996620E+03  0.00000000000E+00 0. -1.
        -14    1    4    4    0    0 -0.44951690906E+02  0.14841766301E+03 -0.13738026853E+03  0.20717575966E+03  0.00000000000E+00 0.  1.
        -13    1    3    3    0    0 -0.24776046870E+02 -0.19715896073E+02 -0.75779860758E+02  0.82128900838E+02  0.00000000000E+00 0. -1.
         13    1    3    3    0    0  0.48616931366E+02 -0.59577042643E+02 -0.35580902214E+02  0.84729160434E+02  0.00000000000E+00 0.  1.
          2    1    1    2  501    0  0.35343647594E+02 -0.14983836341E+03 -0.23700577906E+03  0.28261714011E+03  0.00000000000E+00 0. -1.
<scales pt_clust_5="13000.00000" pt_clust_6="13000.00000" pt_clust_7="13000.00000" pt_clust_8="13000.00000" pt_clust_9="189.08610"></scales>
<clustering>
<clus scale="   78.998">  5  6 -1 -1</clus>
<clus scale="   92.653">  7  8 -1 -1</clus>
<clus scale="  124.259">  2  7  1 -1</clus>
<clus scale="  189.086">  1  9  2 -1</clus>
<clus scale="  189.086">  1  5  2 -1</clus>
</clustering>
</event>
<event>
 9    1  0.6270443E-005  0.9932287E+02  0.7546771E-02  0.1297524E+00
          1   -1    0    0  502    0 -0.00000000000E+00  0.00000000000E+00  0.52148678493E+03  0.52148678493E+03  0.00000000000E+00 0. -1.
         21   -1    0    0  501  502  0.00000000000E+00 -0.00000000000E+00 -0.24483130397E+02  0.24483130397E+02  0.00000000000E+00 0.  1.
         23    2    1    2    0    0 -0.12490083336E+02 -0.46422596059E+02  0.40659525562E+03  0.41929421247E+03  0.90426075409E+02 0.  0.
        -24    2    1    2    0    0  0.47931494841E+01  0.26210849223E+02  0.71700739383E+02  0.98079653723E+02  0.61389246187E+02 0.  0.
         13    1    4    4    0    0 -0.18981207559E+02  0.35817735480E+02  0.50850481371E+02  0.65030514922E+02  0.00000000000E+00 0. -1.
        -14    1    4    4    0    0  0.23774357043E+02 -0.96068862569E+01  0.20850258011E+02  0.33049138801E+02  0.00000000000E+00 0.  1.
        -11    1    3    3    0    0 -0.16151817137E+02  0.25579461335E+02  0.12701774987E+03  0.13057066600E+03  0.00000000000E+00 0.  1.
         11    1    3    3    0    0  0.36617338002E+01 -0.72002057395E+02  0.27957750575E+03  0.28872354647E+03  0.00000000000E+00 0. -1.
          2    1    1    2  501    0  0.76969338523E+01  0.20211746836E+02  0.18707659534E+02  0.28596049135E+02  0.00000000000E+00 0. -1.
<scales pt_clust_5="13000.00000" pt_clust_6="13000.00000" pt_clust_7="13000.00000" pt_clust_8="13000.00000" pt_clust_9="21.62770"></scales>
<clustering>
<clus scale="   21.628">  2  9  1 -1</clus>
<clus scale="   61.389">  5  6 -1 -1</clus>
<clus scale="   73.870">  2  5  1 -1</clus>
<clus scale="   90.426">  7  8 -1 -1</clus>
<clus scale="   21.628">  2  5  1 -1</clus>
</clustering>
</event>
<event>
 9    1  0.6270443E-005  0.1017455E+03  0.7546771E-02  0.1282205E+00
         21   -1    0    0  501  502  0.00000000000E+00  0.00000000000E+00  0.15381809149E+03  0.15381809149E+03  0.00000000000E+00 0.  1.
          1   -1    0    0  502    0 -0.00000000000E+00 -0.00000000000E+00 -0.15079253449E+03  0.15079253449E+03  0.00000000000E+00 0. -1.
         23    2    1    2    0    0  0.22804592155E+02 -0.48428675349E+02 -0.51398823349E+02  0.11763866994E+03  0.91277771684E+02 0.  0.
        -24    2    1    2    0    0  0.50542287711E+02  0.36388785994E+02  0.49018445086E+02  0.11244714234E+03  0.79767695639E+02 0.  0.
         13    1    4    4    0    0  0.69609474846E+01  0.46362722420E+02  0.48893761143E+02  0.67738886164E+02  0.00000000000E+00 0. -1.
        -14    1    4    4    0    0  0.43581340226E+02 -0.99739364264E+01  0.12468394304E+00  0.44708256171E+02  0.00000000000E+00 0.  1.
        -13    1    3    3    0    0 -0.87385191756E+01 -0.44484751143E+02 -0.68038153836E+02  0.81758456315E+02  0.00000000000E+00 0. -1.
         13    1    3    3    0    0  0.31543111331E+02 -0.39439242062E+01  0.16639330487E+02  0.35880213623E+02  0.00000000000E+00 0.  1.
          2    1    1    2  501    0 -0.73346879866E+02  0.12039889355E+02  0.54059352556E+01  0.74524813705E+02  0.00000000000E+00 0. -1.
<scales pt_clust_5="13000.00000" pt_clust_6="13000.00000" pt_clust_7="13000.00000" pt_clust_8="13000.00000" pt_clust_9="74.32849"></scales>
<clustering>
<clus scale="   74.328">  1  9  2 -1</clus>
<clus scale="   79.768">  5  6 -1 -1</clus>
<clus scale="   91.278">  7  8 -1 -1</clus>
<clus scale="   91.561">  1  5  2 -1</clus>
<clus scale="   74.328">  1  5  2 -1</clus>
</clustering>
</event>
<event>
 9    1  0.6270443E-005  0.1470706E+03  0.7546771E-02  0.1204979E+00
          1   -1    0    0  502    0 -0.00000000000E+00  0.00000000000E+00  0.14493446344E+03  0.14493446344E+03  0.00000000000E+00 0. -1.
         21   -1    0    0  501  502  0.00000000000E+00 -0.00000000000E+00 -0.35280788348E+03  0.35280788348E+03  0.00000000000E+00 0.  1.
         23    2    1    2    0    0 -0.15052316885E+02  0.12344524224E+03  0.68133723257E+02  0.16850865246E+03  0.91036595026E+02 0.  0.
        -24    2    1    2    0    0  0.24198250500E+02 -0.59953741452E+02 -0.18482117620E+03  0.21774513286E+03  0.95257909217E+02 0.  0.
         13    1    4    4    0    0  0.30166814511E+02  0.15832271799E+02 -0.30549210941E+02  0.45759718282E+02  0.00000000000E+00 0. -1.
        -14    1    4    4    0    0 -0.59685640113E+01 -0.75786013252E+02 -0.15427196526E+03  0.17198541457E+03  0.00000000000E+00 0.  1.
        -11    1    3    3    0    0  0.82847952996E+01  0.92351165585E+02  0.85318464297E+02  0.12600244429E+03  0.00000000000E+00 0. -1.
         11    1    3    3    0    0 -0.23337112184E+02  0.31094076659E+02 -0.17184741040E+02  0.42506208170E+02  0.00000000000E+00 0.  1.
          2    1    1    2  501    0 -0.91459336151E+01 -0.63491500792E+02 -0.91185967086E+02  0.11148856160E+03  0.00000000000E+00 0. -1.
<scales pt_clust_5="13000.00000" pt_clust_6="13000.00000" pt_clust_7="13000.00000" pt_clust_8="13000.00000" pt_clust_9="64.14685"></scales>
<clustering>
<clus scale="   64.147">  2  9  1 -1</clus>
<clus scale="   91.037">  7  8 -1 -1</clus>
<clus scale="   95.258">  5  6 -1 -1</clus>
<clus scale="  144.372">  1  7  2 -1</clus>
<clus scale="   64.147">  2  5  1 -1</clus>
</clustering>
</event>
<event>
 9    1  0.6270443E-005  0.1062277E+03  0.7546771E-02  0.1274657E+00
         21   -1    0    0  501  502  0.00000000000E+00  0.00000000000E+00  0.15010465587E+03  0.15010465587E+03  0.00000000000E+00 0. -1.
         -4   -1    0    0    0  501 -0.00000000000E+00 -0.00000000000E+00 -0.14421208845E+03  0.14421208845E+03  0.00000000000E+00 0.  1.
         23    2    1    2    0    0  0.20727147444E+02 -0.38565207148E+02  0.15766318120E+02  0.77223334049E+02  0.61627726642E+02 0.  0.
        -24    2    1    2    0    0 -0.15098555380E+02  0.11294582885E+03  0.10401510487E+02  0.13979370685E+03  0.80307922555E+02 0.  0.
         13    1    4    4    0    0 -0.10428722737E+02  0.12163149320E+03  0.22553707410E+02  0.12414365917E+03  0.00000000000E+00 0. -1.
        -14    1    4    4    0    0 -0.46698326431E+01 -0.86856643499E+01 -0.12152196923E+02  0.15650047673E+02  0.00000000000E+00 0.  1.
        -13    1    3    3    0    0  0.42512020707E+02 -0.28664362865E+02  0.14392623156E+02  0.53254720020E+02  0.00000000000E+00 0.  1.
         13    1    3    3    0    0 -0.21784873263E+02 -0.99008442829E+01  0.13736949644E+01  0.23968614029E+02  0.00000000000E+00 0. -1.
         -3    1    1    2    0  502 -0.56285920635E+01 -0.74380621699E+02 -0.20275261193E+02  0.77299703424E+02  0.00000000000E+00 0.  1.
<scales pt_clust_5="13000.00000" pt_clust_6="13000.00000" pt_clust_7="13000.00000" pt_clust_8="13000.00000" pt_clust_9="74.59332"></scales>
<clustering>
<clus scale="   61.628">  7  8 -1 -1</clus>
<clus scale="   74.593">  1  9  2 -1</clus>
<clus scale="   80.308">  5  6 -1 -1</clus>
<clus scale="   92.914">  2  7  1 -1</clus>
<clus scale="   74.593">  1  5  2 -1</clus>
</clustering>
</event>
<event>
 9    1  0.6270443E-005  0.1291307E+03  0.7546771E-02  0.1231441E+00
         21   -1    0    0  501  502  0.00000000000E+00  0.00000000000E+00  0.11770068707E+03  0.11770068707E+03  0.00000000000E+00 0.  1.
         -2   -1    0    0    0  501 -0.00000000000E+00 -0.00000000000E+00 -0.48426837460E+03  0.48426837460E+03  0.00000000000E+00 0.  1.
        -24    2    1    2    0    0 -0.46921749660E+02 -0.69155674762E+02 -0.32231593697E+03  0.34275932135E+03  0.81315627036E+02 0.  0.
         23    2    1    2    0    0  0.66611715614E+02  0.99662276606E+02 -0.10826036148E+03  0.18562000064E+03  0.91459218966E+02 0.  0.
         13    1    3    3    0    0  0.23083793700E+02 -0.16194993450E+02 -0.64031253890E+02  0.69965282957E+02  0.00000000000E+00 0. -1.
        -14    1    3    3    0    0 -0.70005543359E+02 -0.52960681312E+02 -0.25828468308E+03  0.27279403839E+03  0.00000000000E+00 0.  1.
        -11    1    4    4    0    0  0.43795360510E+02  0.85753067245E+02 -0.12212225415E+03  0.15551677434E+03  0.00000000000E+00 0.  1.
         11    1    4    4    0    0  0.22816355104E+02  0.13909209361E+02  0.13861892664E+02  0.30103226297E+02  0.00000000000E+00 0. -1.
         -1    1    1    2    0  502 -0.19689965954E+02 -0.30506601844E+02  0.64008610925E+02  0.73589739692E+02  0.00000000000E+00 0.  1.
<scales pt_clust_5="13000.00000" pt_clust_6="13000.00000" pt_clust_7="13000.00000" pt_clust_8="13000.00000" pt_clust_9="36.30906"></scales>
<clustering>
<clus scale="   36.309">  1  9  2 -1</clus>
<clus scale="   81.316">  5  6 -1 -1</clus>
<clus scale="   91.459">  7  8 -1 -1</clus>
<clus scale="  122.156">  2  5  1 -1</clus>
<clus scale="   36.309">  1  5  2 -1</clus>
</clustering>
</event>
<event>
 9    1  0.6270443E-005  0.9553574E+02  0.7546771E-02  0.1297854E+00
          3   -1    0    0  502    0 -0.00000000000E+00  0.00000000000E+00  0.22011612001E+03  0.22011612001E+03  0.00000000000E+00 0. -1.
         21   -1    0    0  501  502  0.00000000000E+00 -0.00000000000E+00 -0.41577601597E+03  0.41577601597E+03  0.00000000000E+00 0. -1.
        -24    2    1    2    0    0 -0.37854685174E+02 -0.90265110216E+01  0.18247691265E+03  0.20134705743E+03  0.75685922034E+02 0.  0.
         23    2    1    2    0    0 -0.23380482975E+02 -0.23926773093E+02 -0.69868170633E+02  0.11853049358E+03  0.89714988630E+02 0.  0.
         11    1    3    3    0    0 -0.59491041120E+02  0.54440061983E+00  0.10932712517E+03  0.12446646393E+03  0.00000000000E+00 0. -1.
        -12    1    3    3    0    0  0.21636355945E+02 -0.95709116414E+01  0.73149787479E+02  0.76880593497E+02  0.00000000000E+00 0.  1.
        -11    1    4    4    0    0  0.34106543090E+02 -0.48393474501E+01 -0.18456946611E+02  0.39081126436E+02  0.00000000000E+00 0.  1.
         11    1    4    4    0    0 -0.57487026065E+02 -0.19087425643E+02 -0.51411224022E+02  0.79449367140E+02  0.00000000000E+00 0. -1.
          4    1    1    2  501    0  0.61235168149E+02  0.32953284114E+02 -0.30826863798E+03  0.31601458497E+03  0.00000000000E+00 0. -1.
<scales pt_clust_5="13000.00000" pt_clust_6="13000.00000" pt_clust_7="13000.00000" pt_clust_8="13000.00000" pt_clust_9="69.53894"></scales>
<clustering>
<clus scale="   69.539">  2  9  1 -1</clus>
<clus scale="   75.686">  5  6 -1 -1</clus>
<clus scale="   82.502">  1  5  2 -1</clus>
<clus scale="   89.715">  7  8 -1 -1</clus>
<clus scale="   69.539">  2  5  1 -1</clus>
</clustering>
</event>
<event>
 9    1  0.6270443E-005  0.1788132E+03  0.7546771E-02  0.1181629E+00
         21   -1    0    0  501  502  0.00000000000E+00  0.00000000000E+00  0.43720578013E+02  0.43720578013E+02  0.00000000000E+00 0.  1.
          1   -1    0    0  502    0 -0.00000000000E+00 -0.00000000000E+00 -0.20432642354E+04  0.20432642354E+04  0.00000000000E+00 0. -1.
        -24    2    1    2    0    0  0.39012853338E+02  0.10111023930E+03 -0.56373060184E+03  0.57947827935E+03  0.79105003428E+02 0.  0.
         23    2    1    2    0    0  0.12120328283E+03  0.64734806510E+02 -0.25157281743E+03  0.30102456940E+03  0.91902546030E+02 0.  0.
         11    1    3    3    0    0  0.50201448383E+02  0.71979178105E+02 -0.50871370935E+03  0.51622749402E+03  0.00000000000E+00 0. -1.
        -12    1    3    3    0    0 -0.11188595044E+02  0.29131061193E+02 -0.55016892487E+02  0.63250785325E+02  0.00000000000E+00 0.  1.
        -13    1    4    4    0    0  0.10866492636E+03  0.24999509379E+02 -0.22633531704E+03  0.25231075568E+03  0.00000000000E+00 0.  1.
         13    1    4    4    0    0  0.12538356471E+02  0.39735297132E+02 -0.25237500390E+02  0.48713813719E+02  0.00000000000E+00 0. -1.
          2    1    1    2  501    0 -0.16021613617E+03 -0.16584504581E+03 -0.11842402381E+04  0.12064819647E+04  0.00000000000E+00 0. -1.
<scales pt_clust_5="13000.00000" pt_clust_6="13000.00000" pt_clust_7="13000.00000" pt_clust_8="13000.00000" pt_clust_9="153.38873"></scales>
<clustering>
<clus scale="   79.105">  5  6 -1 -1</clus>
<clus scale="   91.903">  7  8 -1 -1</clus>
<clus scale="  134.175">  2  5  1 -1</clus>
<clus scale="  153.389">  1  9  2 -1</clus>
<clus scale="  153.389">  1  5  2 -1</clus>
</clustering>
</event>
<event>
 9    1  0.6270443E-005  0.1294363E+03  0.7546771E-02  0.1250391E+00
         21   -1    0    0  501  502  0.00000000000E+00  0.00000000000E+00  0.56817847478E+02  0.56817847478E+02  0.00000000000E+00 0. -1.
          1   -1    0    0  502    0 -0.00000000000E+00 -0.00000000000E+00 -0.59988741569E+03  0.59988741569E+03  0.00000000000E+00 0. -1.
        -24    2    1    2    0    0 -0.16316912502E+02 -0.28268382485E+01 -0.54548614320E+02  0.98978314651E+02  0.80913057036E+02 0.  0.
         23    2    1    2    0    0 -0.76282168577E+02  0.30143824622E+02 -0.42565495413E+03  0.44251869583E+03  0.88955251556E+02 0.  0.
         11    1    3    3    0    0 -0.26505715527E+02 -0.24117942678E+02 -0.64162647170E+02  0.73491995526E+02  0.00000000000E+00 0. -1.
        -12    1    3    3    0    0  0.10188803025E+02  0.21291104430E+02  0.96140328499E+01  0.25486319125E+02  0.00000000000E+00 0.  1.
        -11    1    4    4    0    0  0.43251327692E+01 -0.21198231110E+02 -0.43343342886E+02  0.48442926710E+02  0.00000000000E+00 0.  1.
         11    1    4    4    0    0 -0.80607301346E+02  0.51342055732E+02 -0.38231161124E+03  0.39407576912E+03  0.00000000000E+00 0. -1.
          2    1    1    2  501    0  0.92599081078E+02 -0.27316986373E+02 -0.62865999769E+02  0.11520825269E+03  0.00000000000E+00 0. -1.
<scales pt_clust_5="13000.00000" pt_clust_6="13000.00000" pt_clust_7="13000.00000" pt_clust_8="13000.00000" pt_clust_9="94.02504"></scales>
<clustering>
<clus scale="   80.913">  5  6 -1 -1</clus>
<clus scale="   82.590">  2  5  1 -1</clus>
<clus scale="   88.955">  7  8 -1 -1</clus>
<clus scale="   94.025">  1  9  2 -1</clus>
<clus scale="   94.025">  1  5  2 -1</clus>
</clustering>
</event>
<event>
 9    1  0.6270443E-005  0.1724559E+03  0.7546771E-02  0.1176315E+00
         21   -1    0    0  501  502  0.00000000000E+00  0.00000000000E+00  0.16416760553E+03  0.16416760553E+03  0.00000000000E+00 0. -1.
          1   -1    0    0  502    0 -0.00000000000E+00 -0.00000000000E+00 -0.44447397210E+03  0.44447397210E+03  0.00000000000E+00 0. -1.
         23    2    1    2    0    0  0.16626356407E+03  0.54699542481E+02 -0.85554387257E+02  0.21383411711E+03  0.88146830762E+02 0.  0.
        -24    2    1    2    0    0 -0.93108148660E+02 -0.61212925905E+02  0.44629880822E+02  0.14441214522E+03  0.80292538756E+02 0.  0.
         11    1    4    4    0    0 -0.81286901296E+02 -0.19094137048E+02  0.22882619577E+01  0.83530728087E+02  0.00000000000E+00 0. -1.
        -12    1    4    4    0    0 -0.11821247364E+02 -0.42118788857E+02  0.42341618864E+02  0.60881417132E+02  0.00000000000E+00 0.  1.
        -11    1    3    3    0    0  0.15055552773E+03  0.13822074869E+02 -0.57110431202E+02  0.16161564911E+03  0.00000000000E+00 0. -1.
         11    1    3    3    0    0  0.15708036342E+02  0.40877467612E+02 -0.28443956055E+02  0.52218467999E+02  0.00000000000E+00 0.  1.
          2    1    1    2  501    0 -0.73155415415E+02  0.65133834235E+01 -0.23938186013E+03  0.25039531531E+03  0.00000000000E+00 0. -1.
<scales pt_clust_5="13000.00000" pt_clust_6="13000.00000" pt_clust_7="13000.00000" pt_clust_8="13000.00000" pt_clust_9="73.44484"></scales>
<clustering>
<clus scale="   73.445">  1  9  2 -1</clus>
<clus scale="   80.293">  5  6 -1 -1</clus>
<clus scale="   88.147">  7  8 -1 -1</clus>
<clus scale="  168.577">  1  5  2 -1</clus>
<clus scale="   73.445">  1  5  2 -1</clus>
</clustering>
</event>
<event>
 9    1  0.6270443E-005  0.9932396E+02  0.7546771E-02  0.1285143E+00
         21   -1    0    0  501  502  0.00000000000E+00  0.00000000000E+00  0.35982690992E+02  0.35982690992E+02  0.00000000000E+00 0. -1.
          1   -1    0    0  502    0 -0.00000000000E+00 -0.00000000000E+00 -0.69508293555E+03  0.69508293555E+03  0.00000000000E+00 0. -1.
        -24    2    1    2    0    0  0.42850739908E+02  0.34435680663E+00 -0.22496762010E+03  0.24316083438E+03  0.81734061379E+02 0.  0.
         23    2    1    2    0    0 -0.39696802894E+02 -0.54541189970E+02 -0.10117031011E+03  0.15054571519E+03  0.88758115966E+02 0.  0.
         11    1    3    3    0    0  0.47412931387E+02  0.14397924496E+02 -0.61276262830E+02  0.78803976288E+02  0.00000000000E+00 0. -1.
        -12    1    3    3    0    0 -0.45621914795E+01 -0.14053567689E+02 -0.16369135727E+03  0.16435685809E+03  0.00000000000E+00 0.  1.
        -13    1    4    4    0    0 -0.15360160410E+02 -0.47436519364E+02 -0.11228948608E+03  0.12286206323E+03  0.00000000000E+00 0. -1.
         13    1    4    4    0    0 -0.24336642485E+02 -0.71046706054E+01  0.11119175963E+02  0.27683651961E+02  0.00000000000E+00 0.  1.
          2    1    1    2  501    0 -0.31539370133E+01  0.54196833163E+02 -0.33296231435E+03  0.33735907698E+03  0.00000000000E+00 0. -1.
<scales pt_clust_5="13000.00000" pt_clust_6="13000.00000" pt_clust_7="13000.00000" pt_clust_8="13000.00000" pt_clust_9="54.28855"></scales>
<clustering>
<clus scale="   54.289">  1  9  2 -1</clus>
<clus scale="   81.734">  5  6 -1 -1</clus>
<clus scale="   88.758">  7  8 -1 -1</clus>
<clus scale="   93.101">  2  5  1 -1</clus>
<clus scale="   54.289">  1  5  2 -1</clus>
</clustering>
</event>
<event>
 9    1  0.6270443E-005  0.9591969E+02  0.7546771E-02  0.1295399E+00
          1   -1    0    0  502    0 -0.00000000000E+00  0.00000000000E+00  0.39118579192E+02  0.39118579192E+02  0.00000000000E+00 0. -1.
         21   -1    0    0  501  502  0.00000000000E+00 -0.00000000000E+00 -0.47689779792E+03  0.47689779792E+03  0.00000000000E+00 0.  1.
         23    2    1    2    0    0  0.86420584938E+01 -0.33843863661E+02 -0.14355627756E+03  0.17331340675E+03  0.90603751843E+02 0.  0.
        -24    2    1    2    0    0  0.33120335058E+02  0.25481887423E+02 -0.28548745588E+03  0.29922505798E+03  0.79285967735E+02 0.  0.
         13    1    4    4    0    0  0.15553335749E+02  0.48317741382E+02 -0.10702506663E+03  0.11845199565E+03  0.00000000000E+00 0. -1.
        -14    1    4    4    0    0  0.17566999309E+02 -0.22835853958E+02 -0.17846238924E+03  0.18077306233E+03  0.00000000000E+00 0.  1.
        -13    1    3    3    0    0  0.43273754203E+02 -0.82727936558E+01 -0.11074120119E+03  0.11918334850E+03  0.00000000000E+00 0. -1.
         13    1    3    3    0    0 -0.34631695709E+02 -0.25571070005E+02 -0.32815076373E+02  0.54130058251E+02  0.00000000000E+00 0.  1.
          2    1    1    2  501    0 -0.41762393552E+02  0.83619762378E+01 -0.87354852842E+01  0.43477912380E+02  0.00000000000E+00 0. -1.
<scales pt_clust_5="13000.00000" pt_clust_6="13000.00000" pt_clust_7="13000.00000" pt_clust_8="13000.00000" pt_clust_9="42.59134"></scales>
<clustering>
<clus scale="   42.591">  2  9  1 -1</clus>
<clus scale="   79.286">  5  6 -1 -1</clus>
<clus scale="   85.310">  2  5  1 -1</clus>
<clus scale="   90.604">  7  8 -1 -1</clus>
<clus scale="   42.591">  2  5  1 -1</clus>
</clustering>
</event>
<event>
 9    1  0.6270443E-005  0.2416665E+03  0.7546771E-02  0.1119578E+00
          1   -1    0    0  502    0 -0.00000000000E+00  0.00000000000E+00  0.45187078525E+03  0.45187078525E+03  0.00000000000E+00 0. -1.
         21   -1    0    0  501  502  0.00000000000E+00 -0.00000000000E+00 -0.22840333048E+03  0.22840333048E+03  0.00000000000E+00 0. -1.
        -24    2    1    2    0    0 -0.16789311009E+03  0.87830653469E+02  0.71901225703E+02  0.21745151107E+03  0.78822923724E+02 0.  0.
         23    2    1    2    0    0  0.27101963077E+03 -0.13057983943E+02  0.17079392477E+03  0.33399816731E+03  0.93605874924E+02 0.  0.
         13    1    3    3    0    0 -0.10437602670E+03  0.45062651182E+02  0.82055756203E+02  0.14020750553E+03  0.00000000000E+00 0. -1.
        -14    1    3    3    0    0 -0.63517083387E+02  0.42768002287E+02 -0.10154530500E+02  0.77244005536E+02  0.00000000000E+00 0.  1.
        -11    1    4    4    0    0  0.16354662720E+03 -0.51611647032E+02  0.86515543260E+02  0.19208383743E+03  0.00000000000E+00 0. -1.
         11    1    4    4    0    0  0.10747300357E+03  0.38553663089E+02  0.84278381509E+02  0.14191432987E+03  0.00000000000E+00 0.  1.
          2    1    1    2  501    0 -0.10312652068E+03 -0.74772669526E+02 -0.19227695701E+02  0.12882443735E+03  0.00000000000E+00 0. -1.
<scales pt_clust_5="13000.00000" pt_clust_6="13000.00000" pt_clust_7="13000.00000" pt_clust_8="13000.00000" pt_clust_9="127.38144"></scales>
<clustering>
<clus scale="   78.823">  5  6 -1 -1</clus>
<clus scale="   93.606">  7  8 -1 -1</clus>
<clus scale="  127.381">  2  9  1 -1</clus>
<clus scale="  236.334">  1  5  2 -1</clus>
<clus scale="  127.381">  2  5  1 -1</clus>
</clustering>
</event>
<event>
 9    1  0.6270443E-005  0.9231218E+02  0.7546771E-02  0.1304450E+00
          3   -1    0    0  502    0 -0.00000000000E+00  0.00000000000E+00  0.31517735397E+03  0.31517735397E+03  0.00000000000E+00 0. -1.
         21   -1    0    0  501  502  0.00000000000E+00 -0.00000000000E+00 -0.67619084270E+02  0.67619084270E+02  0.00000000000E+00 0.  1.
         23    2    1    2    0    0 -0.12496921973E+02 -0.12552625619E+01  0.25933781475E+03  0.27537849185E+03  0.91757631127E+02 0.  0.
        -24    2    1    2    0    0 -0.49893371070E+01 -0.14911955667E+02 -0.15416757512E+02  0.83326920752E+02  0.80364416275E+02 0.  0.
         13    1    4    4    0    0  0.87545859893E+01 -0.45581500643E+02 -0.15295378088E+00  0.46414861538E+02  0.00000000000E+00 0. -1.
        -14    1    4    4    0    0 -0.13743923096E+02  0.30669544976E+02 -0.15263803731E+02  0.36912059214E+02  0.00000000000E+00 0.  1.
        -13    1    3    3    0    0 -0.90701916728E+01  0.41435527085E+02  0.75318012542E+02  0.86440582454E+02  0.00000000000E+00 0.  1.
         13    1    3    3    0    0 -0.34267302998E+01 -0.42690789647E+02  0.18401980221E+03  0.18893790939E+03  0.00000000000E+00 0. -1.
          4    1    1    2  501    0  0.17486259080E+02  0.16167218229E+02  0.36372124595E+01  0.24091025639E+02  0.00000000000E+00 0. -1.
<scales pt_clust_5="13000.00000" pt_clust_6="13000.00000" pt_clust_7="13000.00000" pt_clust_8="13000.00000" pt_clust_9="23.81487"></scales>
<clustering>
<clus scale="   23.815">  2  9  1 -1</clus>
<clus scale="   80.364">  5  6 -1 -1</clus>
<clus scale="   80.997">  2  5  1 -1</clus>
<clus scale="   91.758">  7  8 -1 -1</clus>
<clus scale="   23.815">  2  5  1 -1</clus>
</clustering>
</event>
<event>
 9    1  0.6270443E-005  0.9191225E+02  0.7546771E-02  0.1300216E+00
         21   -1    0    0  501  502  0.00000000000E+00  0.00000000000E+00  0.20519584191E+02  0.20519584191E+02  0.00000000000E+00 0. -1.
         -2   -1    0    0    0  501 -0.00000000000E+00 -0.00000000000E+00 -0.11496311728E+04  0.11496311728E+04  0.00000000000E+00 0.  1.
         23    2    1    2    0    0  0.87581244817E+01 -0.23669026749E+02 -0.47329931976E+03  0.48248400311E+03  0.90231034596E+02 0.  0.
        -24    2    1    2    0    0  0.21157684105E+02 -0.64983536202E+02 -0.25493277974E+03  0.27601326208E+03  0.80759464357E+02 0.  0.
         11    1    4    4    0    0  0.34685874724E+02 -0.78682207278E+02 -0.21839619386E+03  0.23471450134E+03  0.00000000000E+00 0. -1.
        -12    1    4    4    0    0 -0.13528190618E+02  0.13698671076E+02 -0.36536585889E+02  0.41298760745E+02  0.00000000000E+00 0.  1.
        -11    1    3    3    0    0  0.48259235751E+02 -0.13355867051E+01 -0.23703644699E+03  0.24190290372E+03  0.00000000000E+00 0.  1.
         11    1    3    3    0    0 -0.39501111269E+02 -0.22333440044E+02 -0.23626287276E+03  0.24058109939E+03  0.00000000000E+00 0. -1.
         -1    1    1    2    0  502 -0.29915808587E+02  0.88652562951E+02 -0.40087948906E+03  0.41165349175E+03  0.00000000000E+00 0.  1.
<scales pt_clust_5="13000.00000" pt_clust_6="13000.00000" pt_clust_7="13000.00000" pt_clust_8="13000.00000" pt_clust_9="93.56410"></scales>
<clustering>
<clus scale="   80.759">  5  6 -1 -1</clus>
<clus scale="   90.231">  7  8 -1 -1</clus>
<clus scale="   93.564">  1  9  2 -1</clus>
<clus scale="   93.564">  1  5  2 -1</clus>
<clus scale="   91.912">  1  5  2 -1</clus>
</clustering>
</event>
<event>
 9    1  0.6270443E-005  0.1086321E+03  0.7546771E-02  0.1267463E+00
         -2   -1    0    0    0  501 -0.00000000000E+00  0.00000000000E+00  0.22594454754E+03  0.22594454754E+03  0.00000000000E+00 0.  1.
         21   -1    0    0  501  502  0.00000000000E+00 -0.00000000000E+00 -0.22981026358E+03  0.22981026358E+03  0.00000000000E+00 0.  1.
         23    2    1    2    0    0  0.54677109494E+02  0.78404039620E+01  0.14778158186E+03  0.18204737202E+03  0.90833867510E+02 0.  0.
        -24    2    1    2    0    0 -0.94456077983E+02  0.67912743483E+02 -0.81520288012E+02  0.16307876652E+03  0.80093915727E+02 0.  0.
         11    1    4    4    0    0 -0.95587495150E+02  0.25935974780E+02 -0.61224794765E+02  0.11643933833E+03  0.00000000000E+00 0. -1.
        -12    1    4    4    0    0  0.11314171676E+01  0.41976768703E+02 -0.20295493247E+02  0.46639428188E+02  0.00000000000E+00 0.  1.
        -11    1    3    3    0    0  0.76039422313E+02  0.23180213727E+02  0.11844420226E+03  0.14264762565E+03  0.00000000000E+00 0.  1.
         11    1    3    3    0    0 -0.21362312820E+02 -0.15339809765E+02  0.29337379600E+02  0.39399746375E+02  0.00000000000E+00 0. -1.
         -1    1    1    2    0  502  0.39778968489E+02 -0.75753147445E+02 -0.70127009878E+02  0.11062867258E+03  0.00000000000E+00 0.  1.
<scales pt_clust_5="13000.00000" pt_clust_6="13000.00000" pt_clust_7="13000.00000" pt_clust_8="13000.00000" pt_clust_9="85.56229"></scales>
<clustering>
<clus scale="   80.094">  5  6 -1 -1</clus>
<clus scale="   85.562">  2  9  1 -1</clus>
<clus scale="   90.834">  7  8 -1 -1</clus>
<clus scale="   99.826">  2  5  1 -1</clus>
<clus scale="   85.562">  2  5  1 -1</clus>
</clustering>
</event>
<event>
 9    1  0.6270443E-005  0.1022643E+03  0.7546771E-02  0.1279927E+00
          3   -1    0    0  502    0 -0.00000000000E+00  0.00000000000E+00  0.69284331012E+02  0.69284331012E+02  0.00000000000E+00 0. -1.
         21   -1    0    0  501  502  0.00000000000E+00 -0.00000000000E+00 -0.87355701928E+03  0.87355701928E+03  0.00000000000E+00 0. -1.
         23    2    1    2    0    0  0.27437948009E+02  0.20798713577E+02 -0.64694594958E+01  0.97344608637E+02  0.90822306991E+02 0.  0.
        -24    2    1    2    0    0 -0.11690440157E+03 -0.14217212713E+02 -0.23233779064E+03  0.27295964750E+03  0.81592597441E+02 0.  0.
         13    1    4    4    0    0 -0.12417292433E+03 -0.17615132472E+02 -0.17634514984E+03  0.21639505517E+03  0.00000000000E+00 0. -1.
        -14    1    4    4    0    0  0.72685227555E+01  0.33979197594E+01 -0.55992640796E+02  0.56564592327E+02  0.00000000000E+00 0.  1.
        -13    1    3    3    0    0 -0.25957405096E+02  0.26135336879E+02 -0.20122913928E+02  0.41973496138E+02  0.00000000000E+00 0. -1.
         13    1    3    3    0    0  0.53395353105E+02 -0.53366233024E+01  0.13653454432E+02  0.55371112499E+02  0.00000000000E+00 0.  1.
          4    1    1    2  501    0  0.89466453563E+02 -0.65815008638E+01 -0.56546543813E+03  0.57253709416E+03  0.00000000000E+00 0. -1.
<scales pt_clust_5="13000.00000" pt_clust_6="13000.00000" pt_clust_7="13000.00000" pt_clust_8="13000.00000" pt_clust_9="89.70821"></scales>
<clustering>
<clus scale="   81.593">  5  6 -1 -1</clus>
<clus scale="   89.708">  2  9  1 -1</clus>
<clus scale="   90.822">  7  8 -1 -1</clus>
<clus scale="   94.163">  2  5  1 -1</clus>
<clus scale="   89.708">  2  5  1 -1</clus>
</clustering>
</event>
<event>
 9    1  0.6270443E-005  0.1120271E+03  0.7546771E-02  0.1260834E+00
          1   -1    0    0  502    0 -0.00000000000E+00  0.00000000000E+00  0.35902644246E+03  0.35902644246E+03  0.00000000000E+00 0. -1.
         21   -1    0    0  501  502  0.00000000000E+00 -0.00000000000E+00 -0.70426743645E+02  0.70426743645E+02  0.00000000000E+00 0. -1.
        -24    2    1    2    0    0 -0.67749673977E+02  0.21191997174E+02  0.27500091846E+03  0.29506524083E+03  0.79992950443E+02 0.  0.
         23    2    1    2    0    0  0.38054345408E+02 -0.25963124857E+02  0.20023815231E+02  0.10363315262E+03  0.90645794658E+02 0.  0.
         13    1    3    3    0    0 -0.63117686370E+02  0.37713079230E+02  0.26541480329E+03  0.27541085033E+03  0.00000000000E+00 0. -1.
        -14    1    3    3    0    0 -0.46319876070E+01 -0.16521082056E+02  0.95861151763E+01  0.19654390494E+02  0.00000000000E+00 0.  1.
        -11    1    4    4    0    0  0.20591139756E+01 -0.55236636691E+02  0.11580354393E+02  0.56475043967E+02  0.00000000000E+00 0. -1.
         11    1    4    4    0    0  0.35995231433E+02  0.29273511834E+02  0.84434608379E+01  0.47158108655E+02  0.00000000000E+00 0.  1.
          2    1    1    2  501    0  0.29695328568E+02  0.47711276833E+01 -0.64250348792E+01  0.30754792657E+02  0.00000000000E+00 0. -1.
<scales pt_clust_5="13000.00000" pt_clust_6="13000.00000" pt_clust_7="13000.00000" pt_clust_8="13000.00000" pt_clust_9="30.07617"></scales>
<clustering>
<clus scale="   30.076">  2  9  1 -1</clus>
<clus scale="   79.993">  5  6 -1 -1</clus>
<clus scale="   90.646">  7  8 -1 -1</clus>
<clus scale="  103.597">  1  5  2 -1</clus>
<clus scale="   30.076">  2  5  1 -1</clus>
</clustering>
</event>
<event>
 9    1  0.6270443E-005  0.9198595E+02  0.7546771E-02  0.1303467E+00
         21   -1    0    0  501  502  0.00000000000E+00  0.00000000000E+00  0.38791072776E+03  0.38791072776E+03  0.00000000000E+00 0.  1.
          1   -1    0    0  502    0 -0.00000000000E+00 -0.00000000000E+00 -0.41659877673E+02  0.41659877673E+02  0.00000000000E+00 0. -1.
        -24    2    1    2    0    0 -0.16646777968E+02  0.11014594202E+02  0.53795942689E+02  0.98457952673E+02  0.80009552508E+02 0.  0.
         23    2    1    2    0    0 -0.15130096990E+02 -0.48147441207E+02  0.15972504263E+03  0.18967066780E+03  0.88970652744E+02 0.  0.
         13    1    3    3    0    0 -0.46528766027E+02  0.20822610878E+02  0.31852819474E+02  0.60109144897E+02  0.00000000000E+00 0. -1.
        -14    1    3    3    0    0  0.29881988058E+02 -0.98080166761E+01  0.21943123215E+02  0.38348807777E+02  0.00000000000E+00 0.  1.
        -11    1    4    4    0    0  0.27332677065E+02 -0.26362933316E+02  0.21945909987E+02  0.43860032532E+02  0.00000000000E+00 0. -1.
         11    1    4    4    0    0 -0.42462774055E+02 -0.21784507891E+02  0.13777913264E+03  0.14581063527E+03  0.00000000000E+00 0.  1.
          2    1    1    2  501    0  0.31776874959E+02  0.37132847005E+02  0.13272986477E+03  0.14144198496E+03  0.00000000000E+00 0. -1.
<scales pt_clust_5="13000.00000" pt_clust_6="13000.00000" pt_clust_7="13000.00000" pt_clust_8="13000.00000" pt_clust_9="48.87349"></scales>
<clustering>
<clus scale="   48.873">  1  9  2 -1</clus>
<clus scale="   80.010">  5  6 -1 -1</clus>
<clus scale="   83.350">  2  5  1 -1</clus>
<clus scale="   88.971">  7  8 -1 -1</clus>
<clus scale="   48.873">  1  5  2 -1</clus>
</clustering>
</event>
<event>
 9    1  0.6270443E-005  0.3147293E+03  0.7546771E-02  0.1078534E+00
         21   -1    0    0  501  502  0.00000000000E+00  0.00000000000E+00  0.21031407733E+03  0.21031407733E+03  0.00000000000E+00 0. -1.
          1   -1    0    0  502    0 -0.00000000000E+00 -0.00000000000E+00 -0.87132648212E+03  0.87132648212E+03  0.00000000000E+00 0. -1.
         23    2    1    2    0    0 -0.25204243063E+03 -0.14685436298E+03 -0.34527755341E+03  0.46152947157E+03  0.93280616800E+02 0.  0.
        -24    2    1    2    0    0  0.20919190528E+03  0.26441837855E+03 -0.83726439261E+02  0.35651031289E+03  0.80069684736E+02 0.  0.
         13    1    4    4    0    0  0.17579526087E+03  0.23043137904E+03 -0.99315395627E+02  0.30637581823E+03  0.00000000000E+00 0. -1.
        -14    1    4    4    0    0  0.33396644407E+02  0.33986999518E+02  0.15588956365E+02  0.50134494656E+02  0.00000000000E+00 0.  1.
        -13    1    3    3    0    0 -0.15051172233E+03 -0.34267245597E+02 -0.16420329094E+03  0.22536801777E+03  0.00000000000E+00 0.  1.
         13    1    3    3    0    0 -0.10153070830E+03 -0.11258711739E+03 -0.18107426247E+03  0.23616145380E+03  0.00000000000E+00 0. -1.
          2    1    1    2  501    0  0.42850525350E+02 -0.11756401557E+03 -0.23200841212E+03  0.26360077499E+03  0.00000000000E+00 0. -1.
<scales pt_clust_5="13000.00000" pt_clust_6="13000.00000" pt_clust_7="13000.00000" pt_clust_8="13000.00000" pt_clust_9="125.12986"></scales>
<clustering>
<clus scale="   80.070">  5  6 -1 -1</clus>
<clus scale="   93.281">  7  8 -1 -1</clus>
<clus scale="  125.130">  1  9  2 -1</clus>
<clus scale="  311.070">  1  5  2 -1</clus>
<clus scale="  125.130">  1  5  2 -1</clus>
</clustering>
</event>
<event>
 9    1  0.6270443E-005  0.9671436E+02  0.7546771E-02  0.1294094E+00
          1   -1    0    0  502    0 -0.00000000000E+00  0.00000000000E+00  0.47025661596E+03  0.47025661596E+03  0.00000000000E+00 0. -1.
         21   -1    0    0  501  502  0.00000000000E+00 -0.00000000000E+00 -0.27618752418E+02  0.27618752418E+02  0.00000000000E+00 0.  1.
         23    2    1    2    0    0 -0.22532106442E+02 -0.79358239053E+01  0.24416078920E+03  0.26141597474E+03  0.90294782489E+02 0.  0.
        -24    2    1    2    0    0  0.38740288255E+02  0.37524263436E+02  0.14878309858E+03  0.17639549317E+03  0.77910713703E+02 0.  0.
         11    1    4    4    0    0  0.38619533950E+02 -0.12191809803E+02  0.40648327468E+02  0.57379396605E+02  0.00000000000E+00 0. -1.
        -12    1    4    4    0    0  0.12075430545E+00  0.49716073240E+02  0.10813477111E+03  0.11901609657E+03  0.00000000000E+00 0.  1.
        -13    1    3    3    0    0  0.15883579987E+02  0.17946800461E+02  0.16515265478E+02  0.29105493533E+02  0.00000000000E+00 0.  1.
         13    1    3    3    0    0 -0.38415686429E+02 -0.25882624366E+02  0.22764552373E+03  0.23231048121E+03  0.00000000000E+00 0. -1.
          2    1    1    2  501    0 -0.16208181813E+02 -0.29588439531E+02  0.49693975767E+02  0.60063900465E+02  0.00000000000E+00 0. -1.
<scales pt_clust_5="13000.00000" pt_clust_6="13000.00000" pt_clust_7="13000.00000" pt_clust_8="13000.00000" pt_clust_9="33.73694"></scales>
<clustering>
<clus scale="   33.737">  2  9  1 -1</clus>
<clus scale="   77.911">  5  6 -1 -1</clus>
<clus scale="   85.268">  2  5  1 -1</clus>
<clus scale="   90.295">  7  8 -1 -1</clus>
<clus scale="   33.737">  2  5  1 -1</clus>
</clustering>
</event>
<event>
 9    1  0.6270443E-005  0.2684887E+03  0.7546771E-02  0.1102148E+00
         -4   -1    0    0    0  501 -0.00000000000E+00  0.00000000000E+00  0.63246568489E+02  0.63246568489E+02  0.00000000000E+00 0.  1.
         21   -1    0    0  501  502  0.00000000000E+00 -0.00000000000E+00 -0.96499558897E+03  0.96499558897E+03  0.00000000000E+00 0. -1.
        -24    2    1    2    0    0 -0.69963153800E+01 -0.11828111584E+03 -0.29351539238E+03  0.32643140647E+03  0.79792272635E+02 0.  0.
         23    2    1    2    0    0 -0.18229859495E+02 -0.73772082402E+02 -0.40085170181E+03  0.41803609707E+03  0.91090305147E+02 0.  0.
         13    1    3    3    0    0 -0.22651613577E+02 -0.91201058153E+01 -0.10702450649E+03  0.10977484647E+03  0.00000000000E+00 0. -1.
        -14    1    3    3    0    0  0.15655298197E+02 -0.10916101003E+03 -0.18649088589E+03  0.21665656000E+03  0.00000000000E+00 0.  1.
        -11    1    4    4    0    0 -0.45179938038E+02 -0.20158418061E+02 -0.10383703437E+03  0.11502051263E+03  0.00000000000E+00 0.  1.
         11    1    4    4    0    0  0.26950078543E+02 -0.53613664341E+02 -0.29701466744E+03  0.30301558444E+03  0.00000000000E+00 0. -1.
         -3    1    1    2    0  502  0.25226174875E+02  0.19205319824E+03 -0.20738192630E+03  0.28377465392E+03  0.00000000000E+00 0.  1.
<scales pt_clust_5="13000.00000" pt_clust_6="13000.00000" pt_clust_7="13000.00000" pt_clust_8="13000.00000" pt_clust_9="193.70294"></scales>
<clustering>
<clus scale="   79.792">  5  6 -1 -1</clus>
<clus scale="   91.090">  7  8 -1 -1</clus>
<clus scale="  107.352">  5  7 -1 -1</clus>
<clus scale="  193.703">  2  9  1 -1</clus>
<clus scale="  193.703">  2  5  1 -1</clus>
</clustering>
</event>
<event>
 9    1  0.6270443E-005  0.9127267E+02  0.7546771E-02  0.1304269E+00
         21   -1    0    0  501  502  0.00000000000E+00  0.00000000000E+00  0.50948695669E+02  0.50948695669E+02  0.00000000000E+00 0.  1.
          1   -1    0    0  502    0 -0.00000000000E+00 -0.00000000000E+00 -0.46228987061E+03  0.46228987061E+03  0.00000000000E+00 0. -1.
        -24    2    1    2    0    0 -0.31925793389E+02 -0.14291833937E+02 -0.16936474030E+03  0.19173654625E+03  0.82794777074E+02 0.  0.
         23    2    1    2    0    0 -0.31731981911E+02 -0.45388433156E+02 -0.64867076452E+02  0.12406400091E+03  0.90095006371E+02 0.  0.
         13    1    3    3    0    0  0.81849348621E+01  0.28049304555E+02 -0.78526335414E+02  0.83786287650E+02  0.00000000000E+00 0. -1.
        -14    1    3    3    0    0 -0.40110728251E+02 -0.42341138493E+02 -0.90838404882E+02  0.10795025860E+03  0.00000000000E+00 0.  1.
        -13    1    4    4    0    0  0.90946502521E+01 -0.57938453536E+02 -0.19622479464E+02  0.61843502178E+02  0.00000000000E+00 0.  1.
         13    1    4    4    0    0 -0.40826632163E+02  0.12550020380E+02 -0.45244596988E+02  0.62220498728E+02  0.00000000000E+00 0. -1.
          2    1    1    2  501    0  0.63657775300E+02  0.59680267093E+02 -0.17710935819E+03  0.19743801913E+03  0.00000000000E+00 0. -1.
<scales pt_clust_5="13000.00000" pt_clust_6="13000.00000" pt_clust_7="13000.00000" pt_clust_8="13000.00000" pt_clust_9="87.25855"></scales>
<clustering>
<clus scale="   82.795">  5  6 -1 -1</clus>
<clus scale="   87.259">  1  9  2 -1</clus>
<clus scale="   84.075">  2  5  1 -1</clus>
<clus scale="   90.095">  7  8 -1 -1</clus>
<clus scale="   87.259">  1  5  2 -1</clus>
</clustering>
</event>
<event>
 9    1  0.6270443E-005  0.1986897E+03  0.7546771E-02  0.1151714E+00
         -2   -1    0    0    0  501 -0.00000000000E+00  0.00000000000E+00  0.31010002019E+03  0.31010002019E+03  0.00000000000E+00 0.  1.
         21   -1    0    0  501  502  0.00000000000E+00 -0.00000000000E+00 -0.18389124498E+03  0.18389124498E+03  0.00000000000E+00 0.  1.
         23    2    1    2    0    0  0.11679268339E+03 -0.14487229900E+03  0.14696089710E+03  0.25384685805E+03  0.90621234557E+02 0.  0.
        -24    2    1    2    0    0 -0.62561167485E+02  0.15012209835E+03 -0.31554556043E+02  0.18459883759E+03  0.81427862202E+02 0.  0.
         13    1    4    4    0    0 -0.69820359954E+02  0.12377188782E+03  0.97624116078E+00  0.14211022456E+03  0.00000000000E+00 0. -1.
        -14    1    4    4    0    0  0.72591924690E+01  0.26350210529E+02 -0.32530797204E+02  0.42488613027E+02  0.00000000000E+00 0.  1.
        -13    1    3    3    0    0  0.88395356376E+02 -0.42417300324E+02  0.90683068902E+02  0.13355293101E+03  0.00000000000E+00 0.  1.
         13    1    3    3    0    0  0.28397327017E+02 -0.10245499868E+03  0.56277828194E+02  0.12029392704E+03  0.00000000000E+00 0. -1.
         -1    1    1    2    0  502 -0.54231515909E+02 -0.52497993465E+01  0.10802434153E+02  0.55545569531E+02  0.00000000000E+00 0.  1.
<scales pt_clust_5="13000.00000" pt_clust_6="13000.00000" pt_clust_7="13000.00000" pt_clust_8="13000.00000" pt_clust_9="54.48502"></scales>
<clustering>
<clus scale="   54.485">  2  9  1 -1</clus>
<clus scale="   81.428">  5  6 -1 -1</clus>
<clus scale="   90.621">  7  8 -1 -1</clus>
<clus scale="  194.669">  2  5  1 -1</clus>
<clus scale="   54.485">  2  5  1 -1</clus>
</clustering>
</event>
<event>
 9    1  0.6270443E-005  0.9501449E+02  0.7546771E-02  0.1292640E+00
         21   -1    0    0  501  502  0.00000000000E+00  0.00000000000E+00  0.81640414144E+02  0.81640414144E+02  0.00000000000E+00 0. -1.
          3   -1    0    0  502    0 -0.00000000000E+00 -0.00000000000E+00 -0.21259467590E+03  0.21259467590E+03  0.00000000000E+00 0. -1.
         23    2    1    2    0    0  0.32234673346E+02  0.19503135693E+02 -0.74599880025E+02  0.12307776440E+03  0.90352352053E+02 0.  0.
        -24    2    1    2    0    0 -0.24317248186E+02  0.39958384269E+02 -0.20903749211E+02  0.10147873982E+03  0.87595472892E+02 0.  0.
         13    1    4    4    0    0  0.30480094748E+01  0.38402384832E+02  0.26474470782E+02  0.46743246846E+02  0.00000000000E+00 0. -1.
        -14    1    4    4    0    0 -0.27365257661E+02  0.15559994366E+01 -0.47378219993E+02  0.54735492971E+02  0.00000000000E+00 0.  1.
        -13    1    3    3    0    0 -0.26497204890E+02 -0.64831709206E+01 -0.44393605955E+02  0.52104948151E+02  0.00000000000E+00 0.  1.
         13    1    3    3    0    0  0.58731878236E+02  0.25986306614E+02 -0.30206274070E+02  0.70972816245E+02  0.00000000000E+00 0. -1.
          4    1    1    2  501    0 -0.79174251606E+01 -0.59461519962E+02 -0.35450632523E+02  0.69678585832E+02  0.00000000000E+00 0. -1.
<scales pt_clust_5="13000.00000" pt_clust_6="13000.00000" pt_clust_7="13000.00000" pt_clust_8="13000.00000" pt_clust_9="59.98634"></scales>
<clustering>
<clus scale="   59.986">  1  9  2 -1</clus>
<clus scale="   87.595">  5  6 -1 -1</clus>
<clus scale="   90.352">  7  8 -1 -1</clus>
<clus scale="   92.397">  1  5  2 -1</clus>
<clus scale="   59.986">  1  5  2 -1</clus>
</clustering>
</event>
<event>
 9    1  0.6270443E-005  0.2290605E+03  0.7546771E-02  0.1127947E+00
         21   -1    0    0  501  502  0.00000000000E+00  0.00000000000E+00  0.11087688079E+03  0.11087688079E+03  0.00000000000E+00 0. -1.
          1   -1    0    0  502    0 -0.00000000000E+00 -0.00000000000E+00 -0.87701313251E+03  0.87701313251E+03  0.00000000000E+00 0. -1.
         23    2    1    2    0    0  0.17995814646E+03  0.13652699836E+03 -0.57290991221E+03  0.62267145440E+03  0.92029434742E+02 0.  0.
        -24    2    1    2    0    0 -0.10480444634E+03 -0.12449501319E+03 -0.29794064820E+02  0.18493279762E+03  0.82640625931E+02 0.  0.
         11    1    4    4    0    0 -0.79963708405E+02 -0.11633916744E+03  0.51813995484E+01  0.14126515297E+03  0.00000000000E+00 0. -1.
        -12    1    4    4    0    0 -0.24840737936E+02 -0.81558457474E+01 -0.34975464369E+02  0.43667644645E+02  0.00000000000E+00 0.  1.
        -11    1    3    3    0    0  0.89485595505E+02  0.12328533665E+03 -0.34775589760E+03  0.37965920291E+03  0.00000000000E+00 0. -1.
         11    1    3    3    0    0  0.90472550959E+02  0.13241661706E+02 -0.22515401461E+03  0.24301225149E+03  0.00000000000E+00 0.  1.
          2    1    1    2  501    0 -0.75153700123E+02 -0.12031985167E+02 -0.16343227469E+03  0.18028576128E+03  0.00000000000E+00 0. -1.
<scales pt_clust_5="13000.00000" pt_clust_6="13000.00000" pt_clust_7="13000.00000" pt_clust_8="13000.00000" pt_clust_9="76.11079"></scales>
<clustering>
<clus scale="   76.111">  1  9  2 -1</clus>
<clus scale="   82.641">  5  6 -1 -1</clus>
<clus scale="   92.029">  7  8 -1 -1</clus>
<clus scale="  225.452">  1  5  2 -1</clus>
<clus scale="   76.111">  1  5  2 -1</clus>
</clustering>
</event>
<event>
 9    1  0.6270443E-005  0.1460992E+03  0.7546771E-02  0.1207537E+00
         21   -1    0    0  501  502  0.00000000000E+00  0.00000000000E+00  0.11187602290E+03  0.11187602290E+03  0.00000000000E+00 0. -1.
          1   -1    0    0  502    0 -0.00000000000E+00 -0.00000000000E+00 -0.68072794908E+03  0.68072794908E+03  0.00000000000E+00 0. -1.
        -24    2    1    2    0    0  0.88413354639E+02 -0.79842257047E+02 -0.52759999827E+03  0.54643266219E+03  0.77686477860E+02 0.  0.
         23    2    1    2    0    0 -0.11946467156E+03 -0.38686683133E+01 -0.33001768831E+01  0.14915564759E+03  0.89161323973E+02 0.  0.
         11    1    3    3    0    0  0.31737116235E+02 -0.75246699424E+02 -0.24770140347E+03  0.26081659380E+03  0.00000000000E+00 0. -1.
        -12    1    3    3    0    0  0.56676238404E+02 -0.45955576226E+01 -0.27989859480E+03  0.28561606839E+03  0.00000000000E+00 0.  1.
        -13    1    4    4    0    0 -0.64672288656E+02 -0.87088285716E+01  0.42249006473E+02  0.77738839476E+02  0.00000000000E+00 0. -1.
         13    1    4    4    0    0 -0.54792382908E+02  0.48401602583E+01 -0.45549183356E+02  0.71416808109E+02  0.00000000000E+00 0.  1.
          2    1    1    2  501    0  0.31051316925E+02  0.83710925360E+02 -0.37951751021E+02  0.97015662204E+02  0.00000000000E+00 0. -1.
<scales pt_clust_5="13000.00000" pt_clust_6="13000.00000" pt_clust_7="13000.00000" pt_clust_8="13000.00000" pt_clust_9="89.28440"></scales>
<clustering>
<clus scale="   77.686">  5  6 -1 -1</clus>
<clus scale="   89.161">  7  8 -1 -1</clus>
<clus scale="   89.284">  1  9  2 -1</clus>
<clus scale="  139.393">  2  5  1 -1</clus>
<clus scale="   89.284">  1  5  2 -1</clus>
</clustering>
</event>
<event>
 9    1  0.6270443E-005  0.9281532E+02  0.7546771E-02  0.1301800E+00
         21   -1    0    0  501  502  0.00000000000E+00  0.00000000000E+00  0.38688860903E+03  0.38688860903E+03  0.00000000000E+00 0. -1.
          3   -1    0    0  502    0 -0.00000000000E+00 -0.00000000000E+00 -0.92314937361E+02  0.92314937361E+02  0.00000000000E+00 0. -1.
         23    2    1    2    0    0 -0.23275472192E+02  0.45896224801E+01 -0.53758951682E+02  0.10742087803E+03  0.89924456688E+02 0.  0.
        -24    2    1    2    0    0  0.20942893241E+02  0.19634110984E+02  0.15541635886E+03  0.17733752110E+03  0.80437856124E+02 0.  0.
         11    1    4    4    0    0  0.12954064650E+02  0.50635580782E+02  0.10983542215E+03  0.12163712341E+03  0.00000000000E+00 0. -1.
        -12    1    4    4    0    0  0.79888285913E+01 -0.31001469798E+02  0.45580936707E+02  0.55700397692E+02  0.00000000000E+00 0.  1.
        -11    1    3    3    0    0  0.29630080831E+02 -0.24733049806E+01  0.25409331297E+01  0.29841502454E+02  0.00000000000E+00 0.  1.
         11    1    3    3    0    0 -0.52905553023E+02  0.70629274607E+01 -0.56299884812E+02  0.77579375576E+02  0.00000000000E+00 0. -1.
          4    1    1    2  501    0  0.23325789509E+01 -0.24223733464E+02  0.19291626450E+03  0.19444514726E+03  0.00000000000E+00 0. -1.
<scales pt_clust_5="13000.00000" pt_clust_6="13000.00000" pt_clust_7="13000.00000" pt_clust_8="13000.00000" pt_clust_9="24.33578"></scales>
<clustering>
<clus scale="   24.336">  1  9  2 -1</clus>
<clus scale="   80.438">  5  6 -1 -1</clus>
<clus scale="   83.657">  1  5  2 -1</clus>
<clus scale="   89.924">  7  8 -1 -1</clus>
<clus scale="   24.336">  1  5  2 -1</clus>
</clustering>
</event>
<event>
 9    1  0.6270443E-005  0.2711519E+03  0.7546771E-02  0.1130617E+00
         21   -1    0    0  501  502  0.00000000000E+00  0.00000000000E+00  0.73150151197E+03  0.73150151197E+03  0.00000000000E+00 0. -1.
          1   -1    0    0  502    0 -0.00000000000E+00 -0.00000000000E+00 -0.27469540643E+03  0.27469540643E+03  0.00000000000E+00 0. -1.
         23    2    1    2    0    0  0.37428862198E+02 -0.89008779525E+02 -0.14135126704E+03  0.19020979608E+03  0.82922272486E+02 0.  0.
        -24    2    1    2    0    0 -0.20081564378E+03 -0.14395706429E+03  0.36211100948E+03  0.44627614018E+03  0.83590974142E+02 0.  0.
         11    1    4    4    0    0 -0.19388330908E+03 -0.14961436444E+03  0.31856007466E+03  0.40181552577E+03  0.00000000000E+00 0. -1.
        -12    1    4    4    0    0 -0.69323347035E+01  0.56573001475E+01  0.43550934823E+02  0.44460614406E+02  0.00000000000E+00 0.  1.
        -13    1    3    3    0    0 -0.37322929798E+01 -0.85427916021E+02 -0.87622081145E+02  0.12243156436E+03  0.00000000000E+00 0.  1.
         13    1    3    3    0    0  0.41161155178E+02 -0.35808635037E+01 -0.53729185896E+02  0.67778231727E+02  0.00000000000E+00 0. -1.
          2    1    1    2  501    0  0.16338678158E+03  0.23296584381E+03  0.23604636310E+03  0.36971098214E+03  0.00000000000E+00 0. -1.
<scales pt_clust_5="13000.00000" pt_clust_6="13000.00000" pt_clust_7="13000.00000" pt_clust_8="13000.00000" pt_clust_9="257.94563"></scales>
<clustering>
<clus scale="   82.922">  7  8 -1 -1</clus>
<clus scale="   83.591">  5  6 -1 -1</clus>
<clus scale="  127.278">  2  7  1 -1</clus>
<clus scale="  257.946">  1  9  2 -1</clus>
<clus scale="  257.946">  1  5  2 -1</clus>
</clustering>
</event>
<event>
 9    1  0.6270443E-005  0.1833195E+03  0.7546771E-02  0.1174692E+00
          1   -1    0    0  502    0 -0.00000000000E+00  0.00000000000E+00  0.40961864034E+03  0.40961864034E+03  0.00000000000E+00 0. -1.
         21   -1    0    0  501  502  0.00000000000E+00 -0.00000000000E+00 -0.19706802805E+03  0.19706802805E+03  0.00000000000E+00 0. -1.
        -24    2    1    2    0    0 -0.35377276583E+01  0.12165433989E+03  0.13097873685E+03  0.19584778845E+03  0.79928923443E+02 0.  0.
         23    2    1    2    0    0 -0.15589843706E+03 -0.14705679328E+02 -0.36712720850E+02  0.18534131381E+03  0.92103197825E+02 0.  0.
         13    1    3    3    0    0 -0.15187517121E+02  0.16710441162E+02  0.70800833620E+02  0.74314585119E+02  0.00000000000E+00 0. -1.
        -14    1    3    3    0    0  0.11649789463E+02  0.10494389873E+03  0.60177903228E+02  0.12153320333E+03  0.00000000000E+00 0.  1.
        -11    1    4    4    0    0 -0.10565642430E+03 -0.39950169409E+02  0.83774310778E+01  0.11326728293E+03  0.00000000000E+00 0.  1.
         11    1    4    4    0    0 -0.50242012758E+02  0.25244490081E+02 -0.45090151927E+02  0.72074030873E+02  0.00000000000E+00 0. -1.
          2    1    1    2  501    0  0.15943616472E+03 -0.10694866056E+03  0.11828459629E+03  0.22549756614E+03  0.00000000000E+00 0. -1.
<scales pt_clust_5="13000.00000" pt_clust_6="13000.00000" pt_clust_7="13000.00000" pt_clust_8="13000.00000" pt_clust_9="158.50256"></scales>
<clustering>
<clus scale="   79.929">  5  6 -1 -1</clus>
<clus scale="   92.103">  7  8 -1 -1</clus>
<clus scale="  145.605">  1  5  2 -1</clus>
<clus scale="  158.503">  2  9  1 -1</clus>
<clus scale="  158.503">  2  5  1 -1</clus>
</clustering>
</event>
<event>
 9    1  0.6270443E-005  0.1771674E+03  0.7546771E-02  0.1185736E+00
         21   -1    0    0  501  502  0.00000000000E+00  0.00000000000E+00  0.65623596447E+02  0.65623596447E+02  0.00000000000E+00 0. -1.
          1   -1    0    0  502    0 -0.00000000000E+00 -0.00000000000E+00 -0.14947967828E+04  0.14947967828E+04  0.00000000000E+00 0. -1.
         23    2    1    2    0    0  0.83903291685E+02  0.22637283665E+02 -0.52911755589E+02  0.13652612045E+03  0.91035810082E+02 0.  0.
        -24    2    1    2    0    0 -0.54638287019E+02  0.12075706944E+03 -0.10775781488E+04  0.10912832488E+04  0.11025810754E+03 0.  0.
         11    1    4    4    0    0  0.65143444766E+01  0.10468003781E+03 -0.54826926939E+03  0.55821101633E+03  0.00000000000E+00 0. -1.
        -12    1    4    4    0    0 -0.61152631495E+02  0.16077031631E+02 -0.52930887937E+03  0.53307223251E+03  0.00000000000E+00 0.  1.
        -11    1    3    3    0    0 -0.17295732243E+02  0.15218184188E+02 -0.17936946119E+02  0.29197080674E+02  0.00000000000E+00 0. -1.
         11    1    3    3    0    0  0.10119902393E+03  0.74190994771E+01 -0.34974809470E+02  0.10732903977E+03  0.00000000000E+00 0.  1.
          2    1    1    2  501    0 -0.29265004667E+02 -0.14339435310E+03 -0.29868328199E+03  0.33261100995E+03  0.00000000000E+00 0. -1.
<scales pt_clust_5="13000.00000" pt_clust_6="13000.00000" pt_clust_7="13000.00000" pt_clust_8="13000.00000" pt_clust_9="138.67748"></scales>
<clustering>
<clus scale="   91.036">  7  8 -1 -1</clus>
<clus scale="  110.258">  5  6 -1 -1</clus>
<clus scale="  125.856">  2  7  1 -1</clus>
<clus scale="  138.677">  1  9  2 -1</clus>
<clus scale="  138.677">  1  5  2 -1</clus>
</clustering>
</event>
<event>
 9    1  0.6270443E-005  0.9432218E+02  0.7546771E-02  0.1299173E+00
         21   -1    0    0  501  502  0.00000000000E+00  0.00000000000E+00  0.14892856638E+03  0.14892856638E+03  0.00000000000E+00 0.  1.
          1   -1    0    0  502    0 -0.00000000000E+00 -0.00000000000E+00 -0.13816216853E+03  0.13816216853E+03  0.00000000000E+00 0. -1.
        -24    2    1    2    0    0 -0.16474867239E+02 -0.14061982572E+02 -0.92400525721E+02  0.12503591643E+03  0.81406158495E+02 0.  0.
         23    2    1    2    0    0 -0.12221962169E+02  0.17414565941E+02  0.88515173148E+02  0.12966004075E+03  0.92326306242E+02 0.  0.
         11    1    3    3    0    0 -0.25385005484E+02  0.18521929342E+02 -0.56331432846E+01  0.31924797153E+02  0.00000000000E+00 0. -1.
        -12    1    3    3    0    0  0.89101382449E+01 -0.32583911914E+02 -0.86767382436E+02  0.93111119282E+02  0.00000000000E+00 0.  1.
        -13    1    4    4    0    0 -0.31243051429E+02 -0.29939036300E+02  0.46889663769E+02  0.63805287599E+02  0.00000000000E+00 0.  1.
         13    1    4    4    0    0  0.19021089260E+02  0.47353602241E+02  0.41625509379E+02  0.65854753154E+02  0.00000000000E+00 0. -1.
          2    1    1    2  501    0  0.28696829408E+02 -0.33525833693E+01  0.14651750424E+02  0.32394777725E+02  0.00000000000E+00 0. -1.
<scales pt_clust_5="13000.00000" pt_clust_6="13000.00000" pt_clust_7="13000.00000" pt_clust_8="13000.00000" pt_clust_9="28.89200"></scales>
<clustering>
<clus scale="   28.892">  1  9  2 -1</clus>
<clus scale="   81.406">  5  6 -1 -1</clus>
<clus scale="   83.663">  2  5  1 -1</clus>
<clus scale="   92.326">  7  8 -1 -1</clus>
<clus scale="   28.892">  1  5  2 -1</clus>
</clustering>
</event>
<event>
 9    1  0.6270443E-005  0.1015248E+03  0.7546771E-02  0.1280728E+00
         21   -1    0    0  501  502  0.00000000000E+00  0.00000000000E+00  0.25815653657E+02  0.25815653657E+02  0.00000000000E+00 0.  1.
          1   -1    0    0  502    0 -0.00000000000E+00 -0.00000000000E+00 -0.68829354846E+03  0.68829354846E+03  0.00000000000E+00 0. -1.
        -24    2    1    2    0    0 -0.99752768144E+01 -0.47328775313E+02 -0.31378449562E+03  0.32772349192E+03  0.81255512709E+02 0.  0.
         23    2    1    2    0    0  0.56868393041E+02  0.30582394875E+02 -0.18434396772E+03  0.21465877221E+03  0.89030292871E+02 0.  0.
         13    1    3    3    0    0 -0.44653681226E+02 -0.27709116246E+02 -0.21204900153E+03  0.21846401401E+03  0.00000000000E+00 0. -1.
        -14    1    3    3    0    0  0.34678404412E+02 -0.19619659068E+02 -0.10173549409E+03  0.10925947791E+03  0.00000000000E+00 0.  1.
        -11    1    4    4    0    0  0.72463263692E+02  0.10210431204E+02 -0.17042166076E+03  0.18546891908E+03  0.00000000000E+00 0.  1.
         11    1    4    4    0    0 -0.15594870651E+02  0.20371963671E+02 -0.13922306961E+02  0.29189853127E+02  0.00000000000E+00 0. -1.
          2    1    1    2  501    0 -0.46893116227E+02  0.16746380438E+02 -0.16434943146E+03  0.17172693798E+03  0.00000000000E+00 0. -1.
<scales pt_clust_5="13000.00000" pt_clust_6="13000.00000" pt_clust_7="13000.00000" pt_clust_8="13000.00000" pt_clust_9="49.79366"></scales>
<clustering>
<clus scale="   49.794">  1  9  2 -1</clus>
<clus scale="   81.256">  5  6 -1 -1</clus>
<clus scale="   89.030">  7  8 -1 -1</clus>
<clus scale="   94.781">  2  5  1 -1</clus>
<clus scale="   49.794">  1  5  2 -1</clus>
</clustering>
</event>
<event>
 9    1  0.6270443E-005  0.1733700E+03  0.7546771E-02  0.1176297E+00
          1   -1    0    0  502    0 -0.00000000000E+00  0.00000000000E+00  0.85377138116E+03  0.85377138116E+03  0.00000000000E+00 0. -1.
         21   -1    0    0  501  502  0.00000000000E+00 -0.00000000000E+00 -0.69649568431E+02  0.69649568431E+02  0.00000000000E+00 0. -1.
         23    2    1    2    0    0 -0.40802480139E+02  0.11406626639E+03  0.14065471295E+03  0.20842161995E+03  0.94762164771E+02 0.  0.
        -24    2    1    2    0    0  0.75693668559E+00 -0.17233828999E+03  0.24426717459E+03  0.30958613973E+03  0.80474009346E+02 0.  0.
         11    1    4    4    0    0 -0.37098812919E+02 -0.10509749947E+03  0.16358304271E+03  0.19794246178E+03  0.00000000000E+00 0. -1.
        -12    1    4    4    0    0  0.37855749605E+02 -0.67240790518E+02  0.80684131879E+02  0.11164367794E+03  0.00000000000E+00 0.  1.
        -11    1    3    3    0    0 -0.65642064602E+02  0.10519544040E+03  0.13088650127E+03  0.18029486276E+03  0.00000000000E+00 0.  1.
         11    1    3    3    0    0  0.24839584463E+02  0.88708259972E+01  0.97682116854E+01  0.28126757185E+02  0.00000000000E+00 0. -1.
          2    1    1    2  501    0  0.40045543453E+02  0.58272023599E+02  0.39919992519E+03  0.40541318992E+03  0.00000000000E+00 0. -1.
<scales pt_clust_5="13000.00000" pt_clust_6="13000.00000" pt_clust_7="13000.00000" pt_clust_8="13000.00000" pt_clust_9="70.70558"></scales>
<clustering>
<clus scale="   70.706">  2  9  1 -1</clus>
<clus scale="   80.474">  5  6 -1 -1</clus>
<clus scale="   94.762">  7  8 -1 -1</clus>
<clus scale="  165.992">  2  5  1 -1</clus>
<clus scale="   70.706">  2  5  1 -1</clus>
</clustering>
</event>
<event>
 9    1  0.6270443E-005  0.2514598E+03  0.7546771E-02  0.1112408E+00
          1   -1    0    0  502    0 -0.00000000000E+00  0.00000000000E+00  0.29664484454E+04  0.29664484454E+04  0.00000000000E+00 0. -1.
         21   -1    0    0  501  502  0.00000000000E+00 -0.00000000000E+00 -0.39819591549E+02  0.39819591549E+02  0.00000000000E+00 0. -1.
         23    2    1    2    0    0 -0.16579363069E+03 -0.36301006652E+02  0.63148317698E+03  0.65908775803E+03  0.82585585355E+02 0.  0.
        -24    2    1    2    0    0  0.31941567101E+03 -0.17014253867E+01  0.16714061310E+04  0.17036781910E+04  0.83016010006E+02 0.  0.
         11    1    4    4    0    0  0.15391021014E+03  0.34969588397E+02  0.69809312428E+03  0.71571309549E+03  0.00000000000E+00 0. -1.
        -12    1    4    4    0    0  0.16550546087E+03 -0.36671013784E+02  0.97331300672E+03  0.98796509548E+03  0.00000000000E+00 0.  1.
        -11    1    3    3    0    0 -0.13209972153E+03 -0.62370627563E+02  0.48171151541E+03  0.50337502490E+03  0.00000000000E+00 0. -1.
         11    1    3    3    0    0 -0.33693909159E+02  0.26069620911E+02  0.14977166157E+03  0.15571273313E+03  0.00000000000E+00 0.  1.
          2    1    1    2  501    0 -0.15362204032E+03  0.38002432038E+02  0.62373954583E+03  0.64350208791E+03  0.00000000000E+00 0. -1.
<scales pt_clust_5="13000.00000" pt_clust_6="13000.00000" pt_clust_7="13000.00000" pt_clust_8="13000.00000" pt_clust_9="158.25270"></scales>
<clustering>
<clus scale="   82.586">  7  8 -1 -1</clus>
<clus scale="   83.016">  5  6 -1 -1</clus>
<clus scale="  158.253">  2  9  1 -1</clus>
<clus scale="  251.318">  1  7  2 -1</clus>
<clus scale="  158.253">  2  5  1 -1</clus>
</clustering>
</event>
<event>
 9    1  0.6600126E-005  0.9833379E+02  0.7546771E-02  0.1290359E+00
         -2   -1    0    0    0  501 -0.00000000000E+00  0.00000000000E+00  0.16678945471E+03  0.16678945471E+03  0.00000000000E+00 0.  1.
         21   -1    0    0  501  502  0.00000000000E+00 -0.00000000000E+00 -0.42164458349E+03  0.42164458349E+03  0.00000000000E+00 0.  1.
        -24    2    1    2    0    0 -0.24534887711E+01 -0.41800317140E+02  0.12999240727E+03  0.15745356763E+03  0.78360155008E+02 0.  0.
         23    2    1    2    0    0 -0.52442371541E+02 -0.23957660758E+02 -0.19482001651E+03  0.22253833154E+03  0.90798118543E+02 0.  0.
         13    1    3    3    0    0 -0.29892443812E+02 -0.49352767953E+01  0.15393223007E+02  0.33983326333E+02  0.00000000000E+00 0. -1.
        -14    1    3    3    0    0  0.27438955041E+02 -0.36865040344E+02  0.11459918426E+03  0.12347024130E+03  0.00000000000E+00 0.  1.
        -11    1    4    4    0    0 -0.41199574260E+02 -0.58148857873E+02 -0.13710726358E+03  0.15452215478E+03  0.00000000000E+00 0.  1.
         11    1    4    4    0    0 -0.11242797282E+02  0.34191197114E+02 -0.57712752928E+02  0.68016176762E+02  0.00000000000E+00 0. -1.
         -1    1    1    2    0  502  0.54895860312E+02  0.65757977898E+02 -0.19002751955E+03  0.20844213903E+03  0.00000000000E+00 0.  1.
<scales pt_clust_5="13000.00000" pt_clust_6="13000.00000" pt_clust_7="13000.00000" pt_clust_8="13000.00000" pt_clust_9="85.66018"></scales>
<clustering>
<clus scale="   78.360">  5  6 -1 -1</clus>
<clus scale="   85.660">  2  9  1 -1</clus>
<clus scale="   86.980">  1  5  2 -1</clus>
<clus scale="   90.798">  7  8 -1 -1</clus>
<clus scale="   85.660">  2  5  1 -1</clus>
</clustering>
</event>
<event>
 9    1  0.6270443E-005  0.9389348E+02  0.7546771E-02  0.1298105E+00
          3   -1    0    0  502    0 -0.00000000000E+00  0.00000000000E+00  0.24365000906E+02  0.24365000906E+02  0.00000000000E+00 0. -1.
         21   -1    0    0  501  502  0.00000000000E+00 -0.00000000000E+00 -0.78364374639E+03  0.78364374639E+03  0.00000000000E+00 0. -1.
         23    2    1    2    0    0 -0.22230482860E+02  0.12149246110E+02 -0.13001525950E+03  0.16106758903E+03  0.91635156912E+02 0.  0.
        -24    2    1    2    0    0 -0.13362872732E+02 -0.20632897457E+02 -0.57413473753E+03  0.58077441278E+03  0.84047241945E+02 0.  0.
         11    1    4    4    0    0  0.22266942226E+01 -0.31753579717E+02 -0.77659517008E+02  0.83930021887E+02  0.00000000000E+00 0. -1.
        -12    1    4    4    0    0 -0.15589566955E+02  0.11120682260E+02 -0.49647522052E+03  0.49684439089E+03  0.00000000000E+00 0.  1.
        -11    1    3    3    0    0  0.33511750137E+02  0.18914492979E+02 -0.60587502940E+02  0.71774932633E+02  0.00000000000E+00 0.  1.
         11    1    3    3    0    0 -0.55742232997E+02 -0.67652468688E+01 -0.69427756561E+02  0.89292656394E+02  0.00000000000E+00 0. -1.
          4    1    1    2  501    0  0.35593355592E+02  0.84836513465E+01 -0.55128748459E+02  0.66166745493E+02  0.00000000000E+00 0. -1.
<scales pt_clust_5="13000.00000" pt_clust_6="13000.00000" pt_clust_7="13000.00000" pt_clust_8="13000.00000" pt_clust_9="36.59044"></scales>
<clustering>
<clus scale="   36.590">  2  9  1 -1</clus>
<clus scale="   84.047">  5  6 -1 -1</clus>
<clus scale="   86.504">  2  5  1 -1</clus>
<clus scale="   91.635">  7  8 -1 -1</clus>
<clus scale="   36.590">  2  5  1 -1</clus>
</clustering>
</event>
<event>
 9    1  0.6270443E-005  0.1035326E+03  0.7546771E-02  0.1277866E+00
         21   -1    0    0  501  502  0.00000000000E+00  0.00000000000E+00  0.69134316871E+02  0.69134316871E+02  0.00000000000E+00 0. -1.
          1   -1    0    0  502    0 -0.00000000000E+00 -0.00000000000E+00 -0.31390933601E+03  0.31390933601E+03  0.00000000000E+00 0. -1.
         23    2    1    2    0    0 -0.46373351719E+01 -0.21587850703E+02 -0.59017676852E+02  0.11099141554E+03  0.91369951116E+02 0.  0.
        -24    2    1    2    0    0  0.52896883457E+02  0.67904098670E+02 -0.67061825301E+02  0.13580685364E+03  0.80852743854E+02 0.  0.
         11    1    4    4    0    0  0.74190873897E+02  0.48139017772E+02 -0.56219542872E+02  0.10479641121E+03  0.00000000000E+00 0. -1.
        -12    1    4    4    0    0 -0.21293990440E+02  0.19765080898E+02 -0.10842282429E+02  0.31010442436E+02  0.00000000000E+00 0.  1.
        -13    1    3    3    0    0  0.17170832840E+02 -0.36975439303E+02  0.55318296085E+01  0.41141484549E+02  0.00000000000E+00 0. -1.
         13    1    3    3    0    0 -0.21808168012E+02  0.15387588600E+02 -0.64549506461E+02  0.69849930990E+02  0.00000000000E+00 0.  1.
          2    1    1    2  501    0 -0.48259548285E+02 -0.46316247966E+02 -0.11869551698E+03  0.13624538370E+03  0.00000000000E+00 0. -1.
<scales pt_clust_5="13000.00000" pt_clust_6="13000.00000" pt_clust_7="13000.00000" pt_clust_8="13000.00000" pt_clust_9="66.88934"></scales>
<clustering>
<clus scale="   66.889">  1  9  2 -1</clus>
<clus scale="   80.853">  5  6 -1 -1</clus>
<clus scale="   91.370">  7  8 -1 -1</clus>
<clus scale="   94.381">  1  5  2 -1</clus>
<clus scale="   66.889">  1  5  2 -1</clus>
</clustering>
</event>
<event>
 9    1  0.6270443E-005  0.1548042E+03  0.7546771E-02  0.1215588E+00
         21   -1    0    0  501  502  0.00000000000E+00  0.00000000000E+00  0.10260439677E+03  0.10260439677E+03  0.00000000000E+00 0. -1.
          1   -1    0    0  502    0 -0.00000000000E+00 -0.00000000000E+00 -0.43841207665E+03  0.43841207665E+03  0.00000000000E+00 0. -1.
         23    2    1    2    0    0 -0.35060888726E+02 -0.39141258201E+01 -0.20074778186E+02  0.10073332904E+03  0.92193386749E+02 0.  0.
        -24    2    1    2    0    0 -0.10260214173E+03 -0.37267567041E+02 -0.24623783462E+03  0.28066921602E+03  0.78905428089E+02 0.  0.
         13    1    4    4    0    0 -0.33643007977E+02  0.15178605784E+02 -0.13337645599E+03  0.13838902077E+03  0.00000000000E+00 0. -1.
        -14    1    4    4    0    0 -0.68959133755E+02 -0.52446172825E+02 -0.11286137863E+03  0.14228019525E+03  0.00000000000E+00 0.  1.
        -13    1    3    3    0    0  0.25549740353E+02  0.47343554040E+01 -0.28913495602E+02  0.38874073380E+02  0.00000000000E+00 0.  1.
         13    1    3    3    0    0 -0.60610629079E+02 -0.86484812241E+01  0.88387174168E+01  0.61859255656E+02  0.00000000000E+00 0. -1.
          2    1    1    2  501    0  0.13766303046E+03  0.41181692861E+02 -0.69495067075E+02  0.15961392837E+03  0.00000000000E+00 0. -1.
<scales pt_clust_5="13000.00000" pt_clust_6="13000.00000" pt_clust_7="13000.00000" pt_clust_8="13000.00000" pt_clust_9="133.18510"></scales>
<clustering>
<clus scale="   78.905">  5  6 -1 -1</clus>
<clus scale="   92.193">  7  8 -1 -1</clus>
<clus scale="   98.713">  2  7  1 -1</clus>
<clus scale="  133.185">  1  9  2 -1</clus>
<clus scale="  133.185">  1  5  2 -1</clus>
</clustering>
</event>
<event>
 9    1  0.6270443E-005  0.1169447E+03  0.7546771E-02  0.1249771E+00
          1   -1    0    0  502    0 -0.00000000000E+00  0.00000000000E+00  0.10303844563E+04  0.10303844563E+04  0.00000000000E+00 0. -1.
         21   -1    0    0  501  502  0.00000000000E+00 -0.00000000000E+00 -0.25232863429E+02  0.25232863429E+02  0.00000000000E+00 0. -1.
        -24    2    1    2    0    0  0.45828730554E+02 -0.32391610377E+02  0.32632786566E+03  0.34176975988E+03  0.84659340275E+02 0.  0.
         23    2    1    2    0    0 -0.41145093842E+02  0.10697835015E+03  0.41923439073E+03  0.44371473730E+03  0.89375654288E+02 0.  0.
         13    1    3    3    0    0  0.62902352095E+02  0.20371305105E+01  0.19189252646E+03  0.20194949248E+03  0.00000000000E+00 0. -1.
        -14    1    3    3    0    0 -0.17073621541E+02 -0.34428740887E+02  0.13443533919E+03  0.13982026740E+03  0.00000000000E+00 0.  1.
        -11    1    4    4    0    0 -0.46512502577E+02  0.11056110962E+02  0.11107856195E+03  0.12093013442E+03  0.00000000000E+00 0.  1.
         11    1    4    4    0    0  0.53674087349E+01  0.95922239184E+02  0.30815582878E+03  0.32278460288E+03  0.00000000000E+00 0. -1.
          2    1    1    2  501    0 -0.46836367128E+01 -0.74586739770E+02  0.25958933645E+03  0.27013282252E+03  0.00000000000E+00 0. -1.
<scales pt_clust_5="13000.00000" pt_clust_6="13000.00000" pt_clust_7="13000.00000" pt_clust_8="13000.00000" pt_clust_9="74.73369"></scales>
<clustering>
<clus scale="   74.734">  2  9  1 -1</clus>
<clus scale="   84.659">  5  6 -1 -1</clus>
<clus scale="   89.376">  7  8 -1 -1</clus>
<clus scale="  113.381">  1  5  2 -1</clus>
<clus scale="   74.734">  2  5  1 -1</clus>
</clustering>
</event>
<event>
 9    1  0.6270443E-005  0.2281547E+03  0.7546771E-02  0.1128555E+00
          1   -1    0    0  502    0 -0.00000000000E+00  0.00000000000E+00  0.20908271257E+04  0.20908271257E+04  0.00000000000E+00 0. -1.
         21   -1    0    0  501  502  0.00000000000E+00 -0.00000000000E+00 -0.38562732779E+02  0.38562732779E+02  0.00000000000E+00 0.  1.
         23    2    1    2    0    0  0.15783923872E+03  0.13330417713E+03  0.85885244887E+03  0.88788716493E+03  0.89626222717E+02 0.  0.
        -24    2    1    2    0    0 -0.22005411234E+03 -0.53164029025E+02  0.80961526483E+03  0.84452281393E+03  0.80570961688E+02 0.  0.
         13    1    4    4    0    0 -0.70414648341E+02 -0.48974402729E+02  0.38044660923E+03  0.38999530420E+03  0.00000000000E+00 0. -1.
        -14    1    4    4    0    0 -0.14963946399E+03 -0.41896262958E+01  0.42916865560E+03  0.45452750973E+03  0.00000000000E+00 0.  1.
        -11    1    3    3    0    0  0.51753767738E+01  0.49555439911E+02  0.15475765711E+03  0.16258062180E+03  0.00000000000E+00 0.  1.
         11    1    3    3    0    0  0.15266386194E+03  0.83748737222E+02  0.70409479176E+03  0.72530654313E+03  0.00000000000E+00 0. -1.
          2    1    1    2  501    0  0.62214873619E+02 -0.80140148108E+02  0.38379667918E+03  0.39697987958E+03  0.00000000000E+00 0. -1.
<scales pt_clust_5="13000.00000" pt_clust_6="13000.00000" pt_clust_7="13000.00000" pt_clust_8="13000.00000" pt_clust_9="101.45513"></scales>
<clustering>
<clus scale="   80.571">  5  6 -1 -1</clus>
<clus scale="   89.626">  7  8 -1 -1</clus>
<clus scale="  101.455">  2  9  1 -1</clus>
<clus scale="  224.752">  2  5  1 -1</clus>
<clus scale="  101.455">  2  5  1 -1</clus>
</clustering>
</event>
<event>
 9    1  0.6270443E-005  0.1235732E+03  0.7546771E-02  0.1240793E+00
         -2   -1    0    0    0  501 -0.00000000000E+00  0.00000000000E+00  0.29466950592E+03  0.29466950592E+03  0.00000000000E+00 0.  1.
         21   -1    0    0  501  502  0.00000000000E+00 -0.00000000000E+00 -0.11533482710E+03  0.11533482710E+03  0.00000000000E+00 0.  1.
         23    2    1    2    0    0 -0.55424001175E+02  0.53551371981E+02  0.16856906690E+03  0.20667535449E+03  0.91430861787E+02 0.  0.
        -24    2    1    2    0    0  0.81750729936E+02 -0.51048297118E+02  0.66511445838E+02  0.14162841102E+03  0.79660052077E+02 0.  0.
         11    1    4    4    0    0  0.63928438844E+02 -0.72528894284E+02  0.56474170839E+02  0.11196703877E+03  0.00000000000E+00 0. -1.
        -12    1    4    4    0    0  0.17822291092E+02  0.21480597165E+02  0.10037274998E+02  0.29661372250E+02  0.00000000000E+00 0.  1.
        -11    1    3    3    0    0 -0.62152632038E+02  0.94086873761E+01  0.14053189809E+03  0.15395027589E+03  0.00000000000E+00 0.  1.
         11    1    3    3    0    0  0.67286308623E+01  0.44142684604E+02  0.28037168819E+02  0.52725078594E+02  0.00000000000E+00 0. -1.
         -1    1    1    2    0  502 -0.26326728761E+02 -0.25030748621E+01 -0.55745833927E+02  0.61700567512E+02  0.00000000000E+00 0.  1.
<scales pt_clust_5="13000.00000" pt_clust_6="13000.00000" pt_clust_7="13000.00000" pt_clust_8="13000.00000" pt_clust_9="26.44545"></scales>
<clustering>
<clus scale="   26.445">  2  9  1 -1</clus>
<clus scale="   79.660">  5  6 -1 -1</clus>
<clus scale="   91.431">  7  8 -1 -1</clus>
<clus scale="  115.137">  2  5  1 -1</clus>
<clus scale="   26.445">  2  5  1 -1</clus>
</clustering>
</event>
<event>
 9    1  0.6270443E-005  0.1397913E+03  0.7546771E-02  0.1240362E+00
         -2   -1    0    0    0  501 -0.00000000000E+00  0.00000000000E+00  0.51577806543E+02  0.51577806543E+02  0.00000000000E+00 0.  1.
         21   -1    0    0  501  502  0.00000000000E+00 -0.00000000000E+00 -0.54401646625E+03  0.54401646625E+03  0.00000000000E+00 0.  1.
        -24    2    1    2    0    0 -0.66227078001E+01  0.28917287860E+02 -0.11041695116E+03  0.13648713363E+03  0.74543710316E+02 0.  0.
         23    2    1    2    0    0 -0.94387667467E+02 -0.58846505445E+02 -0.17095837772E+03  0.22321185816E+03  0.90690813973E+02 0.  0.
         13    1    3    3    0    0  0.18200238875E+02  0.40670957504E+02 -0.95145084667E+02  0.10506170861E+03  0.00000000000E+00 0. -1.
        -14    1    3    3    0    0 -0.24822946675E+02 -0.11753669644E+02 -0.15271866494E+02  0.31425425024E+02  0.00000000000E+00 0.  1.
        -13    1    4    4    0    0 -0.16002812286E+02 -0.34852762194E+02 -0.57445015038E+01  0.38778916065E+02  0.00000000000E+00 0. -1.
         13    1    4    4    0    0 -0.78384855181E+02 -0.23993743250E+02 -0.16521387621E+03  0.18443294210E+03  0.00000000000E+00 0.  1.
         -1    1    1    2    0  502  0.10101037527E+03  0.29929217585E+02 -0.21106333083E+03  0.23589528100E+03  0.00000000000E+00 0.  1.
<scales pt_clust_5="13000.00000" pt_clust_6="13000.00000" pt_clust_7="13000.00000" pt_clust_8="13000.00000" pt_clust_9="106.38038"></scales>
<clustering>
<clus scale="   74.544">  5  6 -1 -1</clus>
<clus scale="   80.230">  1  5  2 -1</clus>
<clus scale="   90.691">  7  8 -1 -1</clus>
<clus scale="  106.380">  2  9  1 -1</clus>
<clus scale="  106.380">  2  5  1 -1</clus>
</clustering>
</event>
<event>
 9    1  0.6270443E-005  0.2316646E+03  0.7546771E-02  0.1148824E+00
          1   -1    0    0  502    0 -0.00000000000E+00  0.00000000000E+00  0.63213132398E+03  0.63213132398E+03  0.00000000000E+00 0. -1.
         21   -1    0    0  501  502  0.00000000000E+00 -0.00000000000E+00 -0.37184604246E+03  0.37184604246E+03  0.00000000000E+00 0. -1.
         23    2    1    2    0    0  0.72018484408E+02 -0.60878513512E+02 -0.38582289277E+02  0.13705598282E+03  0.91667299934E+02 0.  0.
        -24    2    1    2    0    0 -0.70154435579E+02 -0.16160797245E+03  0.51908509836E+03  0.55387271238E+03  0.79289725662E+02 0.  0.
         11    1    4    4    0    0 -0.81470999669E+02 -0.13802380585E+03  0.48569215691E+03  0.51145377704E+03  0.00000000000E+00 0. -1.
        -12    1    4    4    0    0  0.11316564091E+02 -0.23584166593E+02  0.33392941449E+02  0.42418935340E+02  0.00000000000E+00 0.  1.
        -13    1    3    3    0    0  0.58481554457E+02 -0.20028507284E+02  0.19454115182E+02  0.64805060862E+02  0.00000000000E+00 0. -1.
         13    1    3    3    0    0  0.13536929951E+02 -0.40850006228E+02 -0.58036404460E+02  0.72250921959E+02  0.00000000000E+00 0.  1.
          2    1    1    2  501    0 -0.18640488292E+01  0.22248648596E+03 -0.22021752757E+03  0.31304867123E+03  0.00000000000E+00 0. -1.
<scales pt_clust_5="13000.00000" pt_clust_6="13000.00000" pt_clust_7="13000.00000" pt_clust_8="13000.00000" pt_clust_9="217.67318"></scales>
<clustering>
<clus scale="   79.290">  5  6 -1 -1</clus>
<clus scale="   91.667">  7  8 -1 -1</clus>
<clus scale="  131.513">  1  7  2 -1</clus>
<clus scale="  217.673">  2  9  1 -1</clus>
<clus scale="  217.673">  2  5  1 -1</clus>
</clustering>
</event>
<event>
 9    1  0.6270443E-005  0.1196513E+03  0.7546771E-02  0.1246201E+00
         21   -1    0    0  501  502  0.00000000000E+00  0.00000000000E+00  0.91740414599E+03  0.91740414599E+03  0.00000000000E+00 0. -1.
          3   -1    0    0  502    0 -0.00000000000E+00 -0.00000000000E+00 -0.21941798312E+02  0.21941798312E+02  0.00000000000E+00 0. -1.
         23    2    1    2    0    0 -0.48929843849E+02 -0.66295730339E+02  0.23972125753E+03  0.26964043864E+03  0.91926227801E+02 0.  0.
        -24    2    1    2    0    0  0.53859122614E+02  0.38676880400E+02  0.54887497687E+03  0.55921810897E+03  0.84050264709E+02 0.  0.
         13    1    4    4    0    0  0.69894910048E+02  0.59448189140E+01  0.33586255485E+03  0.34310974203E+03  0.00000000000E+00 0. -1.
        -14    1    4    4    0    0 -0.16035787433E+02  0.32732061486E+02  0.21301242203E+03  0.21610836695E+03  0.00000000000E+00 0.  1.
        -11    1    3    3    0    0  0.24790245162E+02 -0.22660852796E+02  0.39414268318E+02  0.51783733466E+02  0.00000000000E+00 0.  1.
         11    1    3    3    0    0 -0.73720089011E+02 -0.43634877543E+02  0.20030698921E+03  0.21785670517E+03  0.00000000000E+00 0. -1.
          4    1    1    2  501    0 -0.49292787651E+01  0.27618849939E+02  0.10686611327E+03  0.11048739669E+03  0.00000000000E+00 0. -1.
<scales pt_clust_5="13000.00000" pt_clust_6="13000.00000" pt_clust_7="13000.00000" pt_clust_8="13000.00000" pt_clust_9="28.05528"></scales>
<clustering>
<clus scale="   28.055">  1  9  2 -1</clus>
<clus scale="   84.050">  5  6 -1 -1</clus>
<clus scale="   91.926">  7  8 -1 -1</clus>
<clus scale="  113.712">  1  5  2 -1</clus>
<clus scale="   28.055">  1  5  2 -1</clus>
</clustering>
</event>
<event>
 9    1  0.6270443E-005  0.9376704E+02  0.7546771E-02  0.1300729E+00
          3   -1    0    0  502    0 -0.00000000000E+00  0.00000000000E+00  0.85468775114E+02  0.85468775114E+02  0.00000000000E+00 0. -1.
         21   -1    0    0  501  502  0.00000000000E+00 -0.00000000000E+00 -0.31219293411E+03  0.31219293411E+03  0.00000000000E+00 0. -1.
         23    2    1    2    0    0  0.13822451101E+02 -0.28052203579E+02  0.42667738957E+02  0.10423800339E+03  0.89816697348E+02 0.  0.
        -24    2    1    2    0    0  0.96791386403E+00 -0.39981195357E+01 -0.21234052723E+03  0.22633542810E+03  0.78245157641E+02 0.  0.
         13    1    4    4    0    0 -0.27094229238E+02  0.21381492687E+02 -0.14541311017E+03  0.14945313011E+03  0.00000000000E+00 0. -1.
        -14    1    4    4    0    0  0.28062143102E+02 -0.25379612222E+02 -0.66927417051E+02  0.76882297996E+02  0.00000000000E+00 0.  1.
        -11    1    3    3    0    0  0.39840588340E+02  0.44384686125E+01  0.47703106324E+02  0.62310182441E+02  0.00000000000E+00 0.  1.
         11    1    3    3    0    0 -0.26018137239E+02 -0.32490672192E+02 -0.50353673671E+01  0.41927820947E+02  0.00000000000E+00 0. -1.
          4    1    1    2  501    0 -0.14790364965E+02  0.32050323115E+02 -0.57051370728E+02  0.67088277736E+02  0.00000000000E+00 0. -1.
<scales pt_clust_5="13000.00000" pt_clust_6="13000.00000" pt_clust_7="13000.00000" pt_clust_8="13000.00000" pt_clust_9="35.29842"></scales>
<clustering>
<clus scale="   35.298">  2  9  1 -1</clus>
<clus scale="   78.245">  5  6 -1 -1</clus>
<clus scale="   82.750">  2  5  1 -1</clus>
<clus scale="   89.817">  7  8 -1 -1</clus>
<clus scale="   35.298">  2  5  1 -1</clus>
</clustering>
</event>
<event>
 9    1  0.6270443E-005  0.1130362E+03  0.7546771E-02  0.1260879E+00
          1   -1    0    0  502    0 -0.00000000000E+00  0.00000000000E+00  0.25535155318E+03  0.25535155318E+03  0.00000000000E+00 0. -1.
         21   -1    0    0  501  502  0.00000000000E+00 -0.00000000000E+00 -0.81604320959E+02  0.81604320959E+02  0.00000000000E+00 0. -1.
         23    2    1    2    0    0  0.31423393582E+02  0.82096715826E+02  0.13553621192E+03  0.18721586929E+03  0.94617210692E+02 0.  0.
        -24    2    1    2    0    0 -0.29811053472E+01 -0.33467248844E+02  0.35425994437E+02  0.93334817254E+02  0.79545227989E+02 0.  0.
         11    1    4    4    0    0 -0.25831196208E+02  0.16382380123E+02  0.19330780222E+02  0.36184418471E+02  0.00000000000E+00 0. -1.
        -12    1    4    4    0    0  0.22850090861E+02 -0.49849628968E+02  0.16095214214E+02  0.57150398784E+02  0.00000000000E+00 0.  1.
        -11    1    3    3    0    0  0.15887768380E+02  0.34810627547E+02  0.13186858938E+03  0.13730814193E+03  0.00000000000E+00 0. -1.
         11    1    3    3    0    0  0.15535625202E+02  0.47286088279E+02  0.36676225346E+01  0.49907727360E+02  0.00000000000E+00 0.  1.
          2    1    1    2  501    0 -0.28442288235E+02 -0.48629466982E+02  0.27850258710E+01  0.56405187599E+02  0.00000000000E+00 0. -1.
<scales pt_clust_5="13000.00000" pt_clust_6="13000.00000" pt_clust_7="13000.00000" pt_clust_8="13000.00000" pt_clust_9="56.33639"></scales>
<clustering>
<clus scale="   56.336">  2  9  1 -1</clus>
<clus scale="   79.545">  5  6 -1 -1</clus>
<clus scale="   94.617">  7  8 -1 -1</clus>
<clus scale="  100.758">  2  5  1 -1</clus>
<clus scale="   56.336">  2  5  1 -1</clus>
</clustering>
</event>
<event>
 9    1  0.6270443E-005  0.2511370E+03  0.7546771E-02  0.1128016E+00
          1   -1    0    0  502    0 -0.00000000000E+00  0.00000000000E+00  0.18885052349E+04  0.18885052349E+04  0.00000000000E+00 0. -1.
         21   -1    0    0  501  502  0.00000000000E+00 -0.00000000000E+00 -0.63482769735E+02  0.63482769735E+02  0.00000000000E+00 0. -1.
        -24    2    1    2    0    0 -0.14360558522E+03  0.45597785644E+02  0.59616154754E+03  0.62013997069E+03  0.80394466979E+02 0.  0.
         23    2    1    2    0    0 -0.19286728868E+02  0.19879099257E+03  0.54191541877E+03  0.58475105275E+03  0.91496644492E+02 0.  0.
         13    1    3    3    0    0 -0.52974517390E+02  0.54634960617E+02  0.33554153338E+03  0.34406307422E+03  0.00000000000E+00 0. -1.
        -14    1    3    3    0    0 -0.90631067833E+02 -0.90371749723E+01  0.26062001416E+03  0.27607689647E+03  0.00000000000E+00 0.  1.
        -11    1    4    4    0    0 -0.11397613697E+02  0.10917691965E+03  0.41442812846E+03  0.42871923102E+03  0.00000000000E+00 0.  1.
         11    1    4    4    0    0 -0.78891151711E+01  0.89614072921E+02  0.12748729031E+03  0.15603182174E+03  0.00000000000E+00 0. -1.
          2    1    1    2  501    0  0.16289231409E+03 -0.24438877822E+03  0.68694549885E+03  0.74709698119E+03  0.00000000000E+00 0. -1.
<scales pt_clust_5="13000.00000" pt_clust_6="13000.00000" pt_clust_7="13000.00000" pt_clust_8="13000.00000" pt_clust_9="233.87644"></scales>
<clustering>
<clus scale="   80.394">  5  6 -1 -1</clus>
<clus scale="   91.497">  7  8 -1 -1</clus>
<clus scale="  170.778">  1  5  2 -1</clus>
<clus scale="  233.876">  2  9  1 -1</clus>
<clus scale="  233.876">  2  5  1 -1</clus>
</clustering>
</event>
<event>
 9    1  0.6270443E-005  0.6041829E+03  0.7546771E-02  0.9896766E-01
          1   -1    0    0  502    0 -0.00000000000E+00  0.00000000000E+00  0.78622157747E+03  0.78622157747E+03  0.00000000000E+00 0. -1.
         21   -1    0    0  501  502  0.00000000000E+00 -0.00000000000E+00 -0.44044143425E+03  0.44044143425E+03  0.00000000000E+00 0. -1.
        -24    2    1    2    0    0 -0.21222925026E+03  0.39038391879E+03  0.32306533188E+02  0.45261847910E+03  0.79868121395E+02 0.  0.
         23    2    1    2    0    0 -0.11058687106E+03  0.54066103829E+02  0.26863632857E+02  0.15445487017E+03  0.89342333281E+02 0.  0.
         13    1    3    3    0    0 -0.81644988223E+02  0.99108537364E+02  0.36110461975E+02  0.13338804948E+03  0.00000000000E+00 0. -1.
        -14    1    3    3    0    0 -0.13058426204E+03  0.29127538143E+03 -0.38039287869E+01  0.31923042962E+03  0.00000000000E+00 0.  1.
        -13    1    4    4    0    0 -0.45422442858E+02  0.47401507026E+02 -0.25665470619E+02  0.70489840159E+02  0.00000000000E+00 0.  1.
         13    1    4    4    0    0 -0.65164428200E+02  0.66645968024E+01  0.52529103476E+02  0.83965030013E+02  0.00000000000E+00 0. -1.
          2    1    1    2  501    0  0.32281612132E+03 -0.44445002262E+03  0.28660997718E+03  0.61958966245E+03  0.00000000000E+00 0. -1.
<scales pt_clust_5="13000.00000" pt_clust_6="13000.00000" pt_clust_7="13000.00000" pt_clust_8="13000.00000" pt_clust_9="549.31446"></scales>
<clustering>
<clus scale="   79.868">  5  6 -1 -1</clus>
<clus scale="   89.342">  7  8 -1 -1</clus>
<clus scale="  116.999">  5  7 -1 -1</clus>
<clus scale="  549.314">  2  9  1 -1</clus>
<clus scale="  549.314">  2  5  1 -1</clus>
</clustering>
</event>
<event>
 9    1  0.6270443E-005  0.1097300E+03  0.7546771E-02  0.1263927E+00
         21   -1    0    0  501  502  0.00000000000E+00  0.00000000000E+00  0.16976097715E+03  0.16976097715E+03  0.00000000000E+00 0. -1.
          1   -1    0    0  502    0 -0.00000000000E+00 -0.00000000000E+00 -0.33982281900E+03  0.33982281900E+03  0.00000000000E+00 0. -1.
        -24    2    1    2    0    0 -0.25242396603E+02 -0.23153630945E+02 -0.20356106814E+03  0.23365629948E+03  0.10947551604E+03 0.  0.
         23    2    1    2    0    0 -0.64598613236E+02 -0.28762255643E+02 -0.66226312970E+02  0.13201137697E+03  0.89670680481E+02 0.  0.
         11    1    3    3    0    0 -0.46662180160E+02  0.28620566763E+02 -0.13102464055E+03  0.14199983215E+03  0.00000000000E+00 0. -1.
        -12    1    3    3    0    0  0.21419783557E+02 -0.51774197708E+02 -0.72536427592E+02  0.91656467332E+02  0.00000000000E+00 0.  1.
        -13    1    4    4    0    0 -0.33276395245E+02 -0.51801015232E+01  0.18664820068E+02  0.38503602954E+02  0.00000000000E+00 0. -1.
         13    1    4    4    0    0 -0.31322217991E+02 -0.23582154120E+02 -0.84891133038E+02  0.93507774015E+02  0.00000000000E+00 0.  1.
          2    1    1    2  501    0  0.89841009839E+02  0.51915886588E+02  0.99725539265E+02  0.14391611970E+03  0.00000000000E+00 0. -1.
<scales pt_clust_5="13000.00000" pt_clust_6="13000.00000" pt_clust_7="13000.00000" pt_clust_8="13000.00000" pt_clust_9="103.76255"></scales>
<clustering>
<clus scale="   89.671">  7  8 -1 -1</clus>
<clus scale="  103.763">  1  9  2 -1</clus>
<clus scale="  103.763">  1  7  2 -1</clus>
<clus scale="  109.476">  5  6 -1 -1</clus>
<clus scale="  103.763">  1  5  2 -1</clus>
</clustering>
</event>
<event>
 9    1  0.6270443E-005  0.1703753E+03  0.7546771E-02  0.1202785E+00
         21   -1    0    0  501  502  0.00000000000E+00  0.00000000000E+00  0.60203276320E+03  0.60203276320E+03  0.00000000000E+00 0.  1.
          1   -1    0    0  502    0 -0.00000000000E+00 -0.00000000000E+00 -0.12087538801E+03  0.12087538801E+03  0.00000000000E+00 0. -1.
        -24    2    1    2    0    0  0.51312598117E+02 -0.99513955015E+01  0.29236039424E+02  0.10165836736E+03  0.82144169946E+02 0.  0.
         23    2    1    2    0    0 -0.15322241179E+03 -0.94793416661E+01  0.48136907818E+03  0.51340576128E+03  0.91117072485E+02 0.  0.
         11    1    3    3    0    0  0.52292723485E+02  0.73220737851E+01  0.51300312385E+02  0.73619723885E+02  0.00000000000E+00 0. -1.
        -12    1    3    3    0    0 -0.98012536852E+00 -0.17273469287E+02 -0.22064272961E+02  0.28038643480E+02  0.00000000000E+00 0.  1.
        -11    1    4    4    0    0 -0.94102481719E+02 -0.28020306109E+02  0.39557245195E+03  0.40757573451E+03  0.00000000000E+00 0.  1.
         11    1    4    4    0    0 -0.59119930074E+02  0.18540964443E+02  0.85796626226E+02  0.10583002677E+03  0.00000000000E+00 0. -1.
          2    1    1    2  501    0  0.10190981368E+03  0.19430737168E+02 -0.29447742412E+02  0.10784402257E+03  0.00000000000E+00 0. -1.
<scales pt_clust_5="13000.00000" pt_clust_6="13000.00000" pt_clust_7="13000.00000" pt_clust_8="13000.00000" pt_clust_9="143.96329"></scales>
<clustering>
<clus scale="   82.144">  5  6 -1 -1</clus>
<clus scale="   91.117">  7  8 -1 -1</clus>
<clus scale="   97.364">  2  5  1 -1</clus>
<clus scale="  143.963">  1  9  2 -1</clus>
<clus scale="  143.963">  1  5  2 -1</clus>
</clustering>
</event>
<event>
 9    1  0.6270443E-005  0.9660433E+02  0.7546771E-02  0.1291508E+00
         21   -1    0    0  501  502  0.00000000000E+00  0.00000000000E+00  0.32253279385E+03  0.32253279385E+03  0.00000000000E+00 0. -1.
          1   -1    0    0  502    0 -0.00000000000E+00 -0.00000000000E+00 -0.42363130405E+02  0.42363130405E+02  0.00000000000E+00 0. -1.
         23    2    1    2    0    0  0.39762498735E+02  0.15987400256E+02  0.61798777242E+02  0.11565043215E+03  0.87859434986E+02 0.  0.
        -24    2    1    2    0    0 -0.20906569912E+02 -0.35357815592E+02  0.14193853366E+03  0.16817352681E+03  0.80302727172E+02 0.  0.
         11    1    4    4    0    0 -0.31751589200E+02 -0.39556083685E+02  0.14698913494E+03  0.15549486475E+03  0.00000000000E+00 0. -1.
        -12    1    4    4    0    0  0.10845019288E+02  0.41982680929E+01 -0.50506012758E+01  0.12678662058E+02  0.00000000000E+00 0.  1.
        -11    1    3    3    0    0  0.53083598796E+02  0.34085531641E+02  0.67577960441E+02  0.92447134437E+02  0.00000000000E+00 0. -1.
         11    1    3    3    0    0 -0.13321100061E+02 -0.18098131385E+02 -0.57791831990E+01  0.23203297716E+02  0.00000000000E+00 0.  1.
          2    1    1    2  501    0 -0.18855928823E+02  0.19370415336E+02  0.76432352544E+02  0.81071965299E+02  0.00000000000E+00 0. -1.
<scales pt_clust_5="13000.00000" pt_clust_6="13000.00000" pt_clust_7="13000.00000" pt_clust_8="13000.00000" pt_clust_9="27.03256"></scales>
<clustering>
<clus scale="   27.033">  1  9  2 -1</clus>
<clus scale="   80.303">  5  6 -1 -1</clus>
<clus scale="   87.859">  7  8 -1 -1</clus>
<clus scale="   89.787">  1  5  2 -1</clus>
<clus scale="   27.033">  1  5  2 -1</clus>
</clustering>
</event>
<event>
 9    1  0.6270443E-005  0.1153489E+03  0.7546771E-02  0.1256995E+00
          1   -1    0    0  502    0 -0.00000000000E+00  0.00000000000E+00  0.48719118592E+03  0.48719118592E+03  0.00000000000E+00 0. -1.
         21   -1    0    0  501  502  0.00000000000E+00 -0.00000000000E+00 -0.17079496421E+03  0.17079496421E+03  0.00000000000E+00 0. -1.
         23    2    1    2    0    0  0.30089416351E+02 -0.49485906502E+02  0.25694727557E+03  0.27908172120E+03  0.92252245335E+02 0.  0.
        -24    2    1    2    0    0 -0.12365752888E+03  0.11339924630E+02  0.17366387508E+03  0.22640801057E+03  0.75376835989E+02 0.  0.
         11    1    4    4    0    0 -0.11639350729E+03 -0.14889762031E+02  0.13171096889E+03  0.17639992313E+03  0.00000000000E+00 0. -1.
        -12    1    4    4    0    0 -0.72640215858E+01  0.26229686661E+02  0.41952906194E+02  0.50008087446E+02  0.00000000000E+00 0.  1.
        -13    1    3    3    0    0  0.59538272514E+02 -0.51104377846E+02  0.20230528823E+03  0.21698823234E+03  0.00000000000E+00 0.  1.
         13    1    3    3    0    0 -0.29448856163E+02  0.16184713445E+01  0.54641987342E+02  0.62093488866E+02  0.00000000000E+00 0. -1.
          2    1    1    2  501    0  0.93568112528E+02  0.38145981872E+02 -0.11421492894E+03  0.15249641834E+03  0.00000000000E+00 0. -1.
<scales pt_clust_5="13000.00000" pt_clust_6="13000.00000" pt_clust_7="13000.00000" pt_clust_8="13000.00000" pt_clust_9="101.04508"></scales>
<clustering>
<clus scale="   75.377">  5  6 -1 -1</clus>
<clus scale="   92.252">  7  8 -1 -1</clus>
<clus scale="  101.045">  2  9  1 -1</clus>
<clus scale="  102.355">  2  5  1 -1</clus>
<clus scale="  101.045">  2  5  1 -1</clus>
</clustering>
</event>
<event>
 9    1  0.6270443E-005  0.8622918E+02  0.7546771E-02  0.1317261E+00
          1   -1    0    0  502    0 -0.00000000000E+00  0.00000000000E+00  0.14628546293E+03  0.14628546293E+03  0.00000000000E+00 0. -1.
         21   -1    0    0  501  502  0.00000000000E+00 -0.00000000000E+00 -0.31284231583E+03  0.31284231583E+03  0.00000000000E+00 0. -1.
         23    2    1    2    0    0  0.18622679073E+02 -0.18863816426E+02  0.12199071361E+03  0.14534336902E+03  0.74433278608E+02 0.  0.
        -24    2    1    2    0    0 -0.30949947003E+02 -0.13124263837E+02 -0.20151135017E+03  0.22024029304E+03  0.82272820012E+02 0.  0.
         13    1    4    4    0    0 -0.28836892943E+02 -0.39963697358E+02 -0.67641647848E+02  0.83690238528E+02  0.00000000000E+00 0. -1.
        -14    1    4    4    0    0 -0.21130540590E+01  0.26839433521E+02 -0.13386970232E+03  0.13655005452E+03  0.00000000000E+00 0.  1.
        -13    1    3    3    0    0 -0.13208874228E+02 -0.22715680700E+02  0.88192647908E+01  0.27717430246E+02  0.00000000000E+00 0.  1.
         13    1    3    3    0    0  0.31831553301E+02  0.38518642732E+01  0.11317144882E+03  0.11762593877E+03  0.00000000000E+00 0. -1.
          2    1    1    2  501    0  0.12327267929E+02  0.31988080264E+02 -0.87036216340E+02  0.93544116695E+02  0.00000000000E+00 0. -1.
<scales pt_clust_5="13000.00000" pt_clust_6="13000.00000" pt_clust_7="13000.00000" pt_clust_8="13000.00000" pt_clust_9="34.28117"></scales>
<clustering>
<clus scale="   34.281">  2  9  1 -1</clus>
<clus scale="   74.433">  7  8 -1 -1</clus>
<clus scale="   78.784">  1  7  2 -1</clus>
<clus scale="   82.273">  5  6 -1 -1</clus>
<clus scale="   34.281">  2  5  1 -1</clus>
</clustering>
</event>
<event>
 9    1  0.6270443E-005  0.1395851E+03  0.7546771E-02  0.1221291E+00
         21   -1    0    0  501  502  0.00000000000E+00  0.00000000000E+00  0.13642071787E+03  0.13642071787E+03  0.00000000000E+00 0. -1.
          1   -1    0    0  502    0 -0.00000000000E+00 -0.00000000000E+00 -0.41184646539E+03  0.41184646539E+03  0.00000000000E+00 0. -1.
         23    2    1    2    0    0  0.95544086520E+02  0.39008687446E+02 -0.35111006029E+03  0.37774392931E+03  0.93604762315E+02 0.  0.
        -24    2    1    2    0    0 -0.90773829619E+02 -0.59051755191E+02  0.82795823286E+02  0.14872753195E+03  0.59478840539E+02 0.  0.
         13    1    4    4    0    0 -0.62045934949E+02 -0.61399746433E+02  0.37424706858E+02  0.94974920843E+02  0.00000000000E+00 0. -1.
        -14    1    4    4    0    0 -0.28727894670E+02  0.23479912418E+01  0.45371116428E+02  0.53752611108E+02  0.00000000000E+00 0.  1.
        -13    1    3    3    0    0  0.44448513246E+02  0.63235295862E+02 -0.14877573322E+03  0.16765617127E+03  0.00000000000E+00 0.  1.
         13    1    3    3    0    0  0.51095573274E+02 -0.24226608416E+02 -0.20233432707E+03  0.21008775803E+03  0.00000000000E+00 0. -1.
          2    1    1    2  501    0 -0.47702569013E+01  0.20043067745E+02 -0.71115105227E+01  0.21795721999E+02  0.00000000000E+00 0. -1.
<scales pt_clust_5="13000.00000" pt_clust_6="13000.00000" pt_clust_7="13000.00000" pt_clust_8="13000.00000" pt_clust_9="20.60291"></scales>
<clustering>
<clus scale="   20.603">  1  9  2 -1</clus>
<clus scale="   59.479">  5  6 -1 -1</clus>
<clus scale="   93.605">  7  8 -1 -1</clus>
<clus scale="  119.415">  1  5  2 -1</clus>
<clus scale="   20.603">  1  5  2 -1</clus>
</clustering>
</event>
<event>
 9    1  0.6270443E-005  0.2238836E+03  0.7546771E-02  0.1156903E+00
         -4   -1    0    0    0  501 -0.00000000000E+00  0.00000000000E+00  0.95647072460E+02  0.95647072460E+02  0.00000000000E+00 0.  1.
         21   -1    0    0  501  502  0.00000000000E+00 -0.00000000000E+00 -0.82410043918E+03  0.82410043918E+03  0.00000000000E+00 0.  1.
         23    2    1    2    0    0 -0.43803036986E+02 -0.59283558515E+02 -0.16490466279E+03  0.20420408950E+03  0.95249755900E+02 0.  0.
        -24    2    1    2    0    0  0.75406507396E+02 -0.17090417336E+03 -0.20350891794E+03  0.28704159164E+03  0.77991139354E+02 0.  0.
         11    1    4    4    0    0 -0.14112319898E+02 -0.50130652249E+02 -0.53950614922E+02  0.74986056825E+02  0.00000000000E+00 0. -1.
        -12    1    4    4    0    0  0.89518827294E+02 -0.12077352111E+03 -0.14955830302E+03  0.21205553481E+03  0.00000000000E+00 0.  1.
        -13    1    3    3    0    0  0.14543987176E+02 -0.55418694499E+02 -0.53522601726E+02  0.78405536529E+02  0.00000000000E+00 0. -1.
         13    1    3    3    0    0 -0.58347024162E+02 -0.38648640159E+01 -0.11138206106E+03  0.12579855297E+03  0.00000000000E+00 0.  1.
         -3    1    1    2    0  502 -0.31603470410E+02  0.23018773188E+03 -0.36003978598E+03  0.42850183050E+03  0.00000000000E+00 0.  1.
<scales pt_clust_5="13000.00000" pt_clust_6="13000.00000" pt_clust_7="13000.00000" pt_clust_8="13000.00000" pt_clust_9="209.86011"></scales>
<clustering>
<clus scale="   77.991">  5  6 -1 -1</clus>
<clus scale="   95.250">  7  8 -1 -1</clus>
<clus scale="  120.440">  1  7  2 -1</clus>
<clus scale="  209.860">  2  9  1 -1</clus>
<clus scale="  209.860">  2  5  1 -1</clus>
</clustering>
</event>
<event>
 9    1  0.6270443E-005  0.1111049E+03  0.7546771E-02  0.1264884E+00
         21   -1    0    0  501  502  0.00000000000E+00  0.00000000000E+00  0.65251177400E+03  0.65251177400E+03  0.00000000000E+00 0.  1.
          1   -1    0    0  502    0 -0.00000000000E+00 -0.00000000000E+00 -0.52936200953E+02  0.52936200953E+02  0.00000000000E+00 0. -1.
        -24    2    1    2    0    0  0.42949075141E+02  0.74831036112E+02  0.17123545722E+03  0.20744044424E+03  0.79155853085E+02 0.  0.
         23    2    1    2    0    0 -0.26408485311E+02  0.18019198518E+02  0.37817985541E+03  0.39118614283E+03  0.94786579711E+02 0.  0.
         13    1    3    3    0    0  0.36963996968E+02 -0.41905946173E+01  0.44926974021E+02  0.58329504968E+02  0.00000000000E+00 0. -1.
        -14    1    3    3    0    0  0.59850781733E+01  0.79021630730E+02  0.12630848319E+03  0.14911093927E+03  0.00000000000E+00 0.  1.
        -13    1    4    4    0    0  0.34859274156E+02  0.16832937723E+02  0.15203709977E+03  0.15688784687E+03  0.00000000000E+00 0.  1.
         13    1    4    4    0    0 -0.61267759466E+02  0.11862607955E+01  0.22614275564E+03  0.23429829597E+03  0.00000000000E+00 0. -1.
          2    1    1    2  501    0 -0.16540589830E+02 -0.92850234631E+02  0.50160260416E+02  0.10682138788E+03  0.00000000000E+00 0. -1.
<scales pt_clust_5="13000.00000" pt_clust_6="13000.00000" pt_clust_7="13000.00000" pt_clust_8="13000.00000" pt_clust_9="94.31207"></scales>
<clustering>
<clus scale="   79.156">  5  6 -1 -1</clus>
<clus scale="   94.312">  1  9  2 -1</clus>
<clus scale="   94.787">  7  8 -1 -1</clus>
<clus scale="   98.109">  2  5  1 -1</clus>
<clus scale="   94.312">  1  5  2 -1</clus>
</clustering>
</event>
<event>
 9    1  0.6270443E-005  0.9045377E+02  0.7546771E-02  0.1304328E+00
         21   -1    0    0  501  502  0.00000000000E+00  0.00000000000E+00  0.52640088236E+03  0.52640088236E+03  0.00000000000E+00 0. -1.
         -2   -1    0    0    0  501 -0.00000000000E+00 -0.00000000000E+00 -0.44197041564E+02  0.44197041564E+02  0.00000000000E+00 0.  1.
        -24    2    1    2    0    0  0.16595618949E+02 -0.22427112406E+02  0.65052523300E+02  0.11137469963E+03  0.85988970165E+02 0.  0.
         23    2    1    2    0    0  0.12218469417E+02 -0.49533924824E+02  0.15975798437E+03  0.19041107705E+03  0.90171303594E+02 0.  0.
         11    1    3    3    0    0 -0.48223500434E+01 -0.48721356831E+02  0.15549929825E+02  0.51369504465E+02  0.00000000000E+00 0. -1.
        -12    1    3    3    0    0  0.21417968992E+02  0.26294244425E+02  0.49502593475E+02  0.60005195162E+02  0.00000000000E+00 0.  1.
        -13    1    4    4    0    0 -0.17601989370E+02  0.14705762369E+02  0.10548272418E+02  0.25245901205E+02  0.00000000000E+00 0.  1.
         13    1    4    4    0    0  0.29820458787E+02 -0.64239687193E+02  0.14920971195E+03  0.16516517585E+03  0.00000000000E+00 0. -1.
         -1    1    1    2    0  502 -0.28814088365E+02  0.71961037229E+02  0.25739333313E+03  0.26881214724E+03  0.00000000000E+00 0.  1.
<scales pt_clust_5="13000.00000" pt_clust_6="13000.00000" pt_clust_7="13000.00000" pt_clust_8="13000.00000" pt_clust_9="77.51543"></scales>
<clustering>
<clus scale="   77.515">  1  9  2 -1</clus>
<clus scale="   85.989">  5  6 -1 -1</clus>
<clus scale="   86.285">  2  5  1 -1</clus>
<clus scale="   90.171">  7  8 -1 -1</clus>
<clus scale="   77.515">  1  5  2 -1</clus>
</clustering>
</event>
<event>
 9    1  0.1129349E-004  0.1243043E+03  0.7546771E-02  0.1253176E+00
         21   -1    0    0  501  502  0.00000000000E+00  0.00000000000E+00  0.37311525555E+03  0.37311525555E+03  0.00000000000E+00 0.  1.
         -4   -1    0    0    0  501 -0.00000000000E+00 -0.00000000000E+00 -0.18873385387E+03  0.18873385387E+03  0.00000000000E+00 0.  1.
        -24    2    1    2    0    0  0.29685203327E+02  0.19728996737E+02 -0.13626407412E+03  0.16232698071E+03  0.80695143363E+02 0.  0.
         23    2    1    2    0    0  0.21293326300E+02  0.56202530912E+02  0.62189517721E+02  0.12536179307E+03  0.90751930126E+02 0.  0.
         13    1    3    3    0    0 -0.21339129829E+02 -0.11503578421E+02 -0.19433113029E+02  0.31069867401E+02  0.00000000000E+00 0. -1.
        -14    1    3    3    0    0  0.51024333156E+02  0.31232575158E+02 -0.11683096109E+03  0.13125711331E+03  0.00000000000E+00 0.  1.
        -13    1    4    4    0    0  0.49073540817E+02  0.35757220987E+02  0.81656772329E+01  0.61265565743E+02  0.00000000000E+00 0.  1.
         13    1    4    4    0    0 -0.27780214517E+02  0.20445309925E+02  0.54023840488E+02  0.64096227327E+02  0.00000000000E+00 0. -1.
         -3    1    1    2    0  502 -0.50978529627E+02 -0.75931527648E+02  0.25845595807E+03  0.27416033564E+03  0.00000000000E+00 0.  1.
<scales pt_clust_5="13000.00000" pt_clust_6="13000.00000" pt_clust_7="13000.00000" pt_clust_8="13000.00000" pt_clust_9="84.94494"></scales>
<clustering>
<clus scale="   80.695">  5  6 -1 -1</clus>
<clus scale="   88.216">  2  5  1 -1</clus>
<clus scale="   84.945">  1  9  2 -1</clus>
<clus scale="   90.752">  7  8 -1 -1</clus>
<clus scale="   84.945">  1  5  2 -1</clus>
</clustering>
</event>
<event>
 9    1  0.6270443E-005  0.9412747E+02  0.7546771E-02  0.1301504E+00
         21   -1    0    0  501  502  0.00000000000E+00  0.00000000000E+00  0.32243223542E+03  0.32243223542E+03  0.00000000000E+00 0.  1.
         -2   -1    0    0    0  501 -0.00000000000E+00 -0.00000000000E+00 -0.65177960459E+02  0.65177960459E+02  0.00000000000E+00 0.  1.
        -24    2    1    2    0    0 -0.14064155164E+02 -0.12768129981E+02  0.25799796285E+00  0.81116890156E+02  0.78861002415E+02 0.  0.
         23    2    1    2    0    0  0.21063387345E+02 -0.24645397464E+02  0.24895371612E+03  0.26759029719E+03  0.92604278945E+02 0.  0.
         13    1    3    3    0    0 -0.38389749725E+02  0.57639047533E+01  0.21028380205E+02  0.44149612184E+02  0.00000000000E+00 0. -1.
        -14    1    3    3    0    0  0.24325594561E+02 -0.18532034735E+02 -0.20770382242E+02  0.36967277972E+02  0.00000000000E+00 0.  1.
        -13    1    4    4    0    0  0.27533386592E+02  0.24661603098E+02  0.17228637769E+03  0.17620691808E+03  0.00000000000E+00 0.  1.
         13    1    4    4    0    0 -0.64699992469E+01 -0.49307000562E+02  0.76667338433E+02  0.91383379107E+02  0.00000000000E+00 0. -1.
         -1    1    1    2    0  502 -0.69992321807E+01  0.37413527445E+02  0.80425608746E+01  0.38903008527E+02  0.00000000000E+00 0.  1.
<scales pt_clust_5="13000.00000" pt_clust_6="13000.00000" pt_clust_7="13000.00000" pt_clust_8="13000.00000" pt_clust_9="38.06262"></scales>
<clustering>
<clus scale="   38.063">  1  9  2 -1</clus>
<clus scale="   78.861">  5  6 -1 -1</clus>
<clus scale="   80.644">  2  5  1 -1</clus>
<clus scale="   92.604">  7  8 -1 -1</clus>
<clus scale="   38.063">  1  5  2 -1</clus>
</clustering>
</event>
<event>
 9    1  0.6270443E-005  0.9161070E+02  0.7546771E-02  0.1305751E+00
         21   -1    0    0  501  502  0.00000000000E+00  0.00000000000E+00  0.68229661957E+02  0.68229661957E+02  0.00000000000E+00 0.  1.
         -4   -1    0    0    0  501 -0.00000000000E+00 -0.00000000000E+00 -0.53249645457E+03  0.53249645457E+03  0.00000000000E+00 0.  1.
        -24    2    1    2    0    0 -0.17246055050E+02 -0.17553202515E+01 -0.42221948695E+03  0.43006423632E+03  0.79908977205E+02 0.  0.
         23    2    1    2    0    0 -0.42304737506E+02  0.19025131002E+02 -0.14883555047E+02  0.10296836054E+03  0.90715581000E+02 0.  0.
         11    1    3    3    0    0 -0.38277794190E+02 -0.20835254824E+02 -0.14536688250E+03  0.15175911142E+03  0.00000000000E+00 0. -1.
        -12    1    3    3    0    0  0.21031739140E+02  0.19079934572E+02 -0.27685260445E+03  0.27830512490E+03  0.00000000000E+00 0.  1.
        -13    1    4    4    0    0 -0.61698316811E+02 -0.39435778527E+00 -0.33110267211E+02  0.70022336509E+02  0.00000000000E+00 0.  1.
         13    1    4    4    0    0  0.19393579306E+02  0.19419488787E+02  0.18226712164E+02  0.32946024030E+02  0.00000000000E+00 0. -1.
         -3    1    1    2    0  502  0.59550792556E+02 -0.17269810751E+02 -0.27163750616E+02  0.67693519667E+02  0.00000000000E+00 0.  1.
<scales pt_clust_5="13000.00000" pt_clust_6="13000.00000" pt_clust_7="13000.00000" pt_clust_8="13000.00000" pt_clust_9="62.00438"></scales>
<clustering>
<clus scale="   62.004">  1  9  2 -1</clus>
<clus scale="   79.909">  5  6 -1 -1</clus>
<clus scale="   80.924">  2  5  1 -1</clus>
<clus scale="   90.716">  7  8 -1 -1</clus>
<clus scale="   62.004">  1  5  2 -1</clus>
</clustering>
</event>
<event>
 9    1  0.6270443E-005  0.9723321E+02  0.7546771E-02  0.1292881E+00
         21   -1    0    0  501  502  0.00000000000E+00  0.00000000000E+00  0.25672460303E+02  0.25672460303E+02  0.00000000000E+00 0.  1.
          1   -1    0    0  502    0 -0.00000000000E+00 -0.00000000000E+00 -0.55307387608E+03  0.55307387608E+03  0.00000000000E+00 0. -1.
         23    2    1    2    0    0 -0.26737047472E+01 -0.37007697963E+02 -0.27678790679E+03  0.29419372914E+03  0.92529381906E+02 0.  0.
        -24    2    1    2    0    0  0.18694699451E+02  0.13656212390E+02 -0.96056129058E+02  0.12742225422E+03  0.80459101514E+02 0.  0.
         13    1    4    4    0    0  0.17550149472E+02 -0.29161952392E+02 -0.18286664590E+02  0.38637149424E+02  0.00000000000E+00 0. -1.
        -14    1    4    4    0    0  0.11445499795E+01  0.42818164782E+02 -0.77769464468E+02  0.88785104796E+02  0.00000000000E+00 0.  1.
        -11    1    3    3    0    0 -0.43535913779E+02 -0.19066485515E+02 -0.19819689294E+03  0.20381588513E+03  0.00000000000E+00 0.  1.
         11    1    3    3    0    0  0.40862209032E+02 -0.17941212448E+02 -0.78591013847E+02  0.90377844013E+02  0.00000000000E+00 0. -1.
          2    1    1    2  501    0 -0.16020994704E+02  0.23351485573E+02 -0.15455737993E+03  0.15713035302E+03  0.00000000000E+00 0. -1.
<scales pt_clust_5="13000.00000" pt_clust_6="13000.00000" pt_clust_7="13000.00000" pt_clust_8="13000.00000" pt_clust_9="28.31899"></scales>
<clustering>
<clus scale="   28.319">  1  9  2 -1</clus>
<clus scale="   80.459">  5  6 -1 -1</clus>
<clus scale="   85.827">  1  5  2 -1</clus>
<clus scale="   92.529">  7  8 -1 -1</clus>
<clus scale="   28.319">  1  5  2 -1</clus>
</clustering>
</event>
<event>
 9    1  0.6270443E-005  0.1288132E+03  0.7546771E-02  0.1251668E+00
         21   -1    0    0  501  502  0.00000000000E+00  0.00000000000E+00  0.11269752544E+04  0.11269752544E+04  0.00000000000E+00 0.  1.
         -2   -1    0    0    0  501 -0.00000000000E+00 -0.00000000000E+00 -0.62364434737E+02  0.62364434737E+02  0.00000000000E+00 0.  1.
        -24    2    1    2    0    0  0.17969917672E+02 -0.56260297791E+01  0.90284221496E+03  0.90653026555E+03  0.79488911757E+02 0.  0.
         23    2    1    2    0    0 -0.95026821535E+02  0.43222302479E+02  0.64189048456E+02  0.15291324985E+03  0.91454708979E+02 0.  0.
         11    1    3    3    0    0  0.19014913352E+02 -0.22151504754E+02  0.11954200144E+03  0.12305505354E+03  0.00000000000E+00 0. -1.
        -12    1    3    3    0    0 -0.10449956799E+01  0.16525474975E+02  0.78330021352E+03  0.78347521201E+03  0.00000000000E+00 0.  1.
        -11    1    4    4    0    0 -0.94256498653E+02  0.64352709576E+02  0.40360344996E+02  0.12105583925E+03  0.00000000000E+00 0.  1.
         11    1    4    4    0    0 -0.77032288191E+00 -0.21130407097E+02  0.23828703460E+02  0.31857410598E+02  0.00000000000E+00 0. -1.
         -1    1    1    2    0  502  0.77056903863E+02 -0.37596272700E+02  0.97579556229E+02  0.12989617372E+03  0.00000000000E+00 0.  1.
<scales pt_clust_5="13000.00000" pt_clust_6="13000.00000" pt_clust_7="13000.00000" pt_clust_8="13000.00000" pt_clust_9="90.71312"></scales>
<clustering>
<clus scale="   79.489">  5  6 -1 -1</clus>
<clus scale="   81.689">  2  5  1 -1</clus>
<clus scale="   90.713">  1  9  2 -1</clus>
<clus scale="   91.455">  7  8 -1 -1</clus>
<clus scale="   90.713">  1  5  2 -1</clus>
</clustering>
</event>
<event>
 9    1  0.6270443E-005  0.1343075E+03  0.7546771E-02  0.1241435E+00
         -4   -1    0    0    0  501 -0.00000000000E+00  0.00000000000E+00  0.12218060284E+03  0.12218060284E+03  0.00000000000E+00 0.  1.
         21   -1    0    0  501  502  0.00000000000E+00 -0.00000000000E+00 -0.31171254097E+03  0.31171254097E+03  0.00000000000E+00 0. -1.
        -24    2    1    2    0    0  0.12319743859E+02 -0.45488369238E+02  0.67846924850E+02  0.11112856494E+03  0.74332932878E+02 0.  0.
         23    2    1    2    0    0 -0.58278197327E+02  0.43040770195E+02 -0.22037771077E+03  0.26371159037E+03  0.12541376044E+03 0.  0.
         13    1    3    3    0    0  0.20154913110E+02 -0.11277580396E+02 -0.10431688798E+02  0.25342148157E+02  0.00000000000E+00 0. -1.
        -14    1    3    3    0    0 -0.78351692512E+01 -0.34210788842E+02  0.78278613648E+02  0.85786416786E+02  0.00000000000E+00 0.  1.
        -11    1    4    4    0    0 -0.36285397580E+02  0.69917691179E+02 -0.58417608632E+02  0.98070029141E+02  0.00000000000E+00 0.  1.
         11    1    4    4    0    0 -0.21992799747E+02 -0.26876920984E+02 -0.16196010213E+03  0.16564156123E+03  0.00000000000E+00 0. -1.
         -3    1    1    2    0  502  0.45958453468E+02  0.24475990428E+01 -0.37001152216E+02  0.59052988507E+02  0.00000000000E+00 0.  1.
<scales pt_clust_5="13000.00000" pt_clust_6="13000.00000" pt_clust_7="13000.00000" pt_clust_8="13000.00000" pt_clust_9="46.02358"></scales>
<clustering>
<clus scale="   46.024">  2  9  1 -1</clus>
<clus scale="   74.333">  5  6 -1 -1</clus>
<clus scale="   88.517">  1  5  2 -1</clus>
<clus scale="  125.414">  7  8 -1 -1</clus>
<clus scale="   46.024">  2  5  1 -1</clus>
</clustering>
</event>
<event>
 9    1  0.6270443E-005  0.2704605E+03  0.7546771E-02  0.1143801E+00
         21   -1    0    0  501  502  0.00000000000E+00  0.00000000000E+00  0.63014359239E+03  0.63014359239E+03  0.00000000000E+00 0. -1.
          1   -1    0    0  502    0 -0.00000000000E+00 -0.00000000000E+00 -0.32651161914E+03  0.32651161914E+03  0.00000000000E+00 0. -1.
         23    2    1    2    0    0 -0.17827689311E+02  0.25424673366E+01  0.46216805506E+02  0.10400011145E+03  0.91409733744E+02 0.  0.
        -24    2    1    2    0    0 -0.16311136557E+03 -0.18933886524E+03 -0.19791453040E+03  0.32829170523E+03  0.78426774217E+02 0.  0.
         11    1    4    4    0    0 -0.10341763920E+03 -0.16620058295E+03 -0.13015166205E+03  0.23506870699E+03  0.00000000000E+00 0. -1.
        -12    1    4    4    0    0 -0.59693726363E+02 -0.23138282290E+02 -0.67762868355E+02  0.93222998247E+02  0.00000000000E+00 0.  1.
        -11    1    3    3    0    0 -0.44940688028E+02 -0.15263312085E+02  0.52699548325E+02  0.70921622443E+02  0.00000000000E+00 0. -1.
         11    1    3    3    0    0  0.27112998717E+02  0.17805779421E+02 -0.64827428190E+01  0.33078489003E+02  0.00000000000E+00 0.  1.
          2    1    1    2  501    0  0.18093905488E+03  0.18679639790E+03  0.45532969815E+03  0.52436339485E+03  0.00000000000E+00 0. -1.
<scales pt_clust_5="13000.00000" pt_clust_6="13000.00000" pt_clust_7="13000.00000" pt_clust_8="13000.00000" pt_clust_9="258.83999"></scales>
<clustering>
<clus scale="   78.427">  5  6 -1 -1</clus>
<clus scale="   91.410">  7  8 -1 -1</clus>
<clus scale="   93.167">  2  7  1 -1</clus>
<clus scale="  258.840">  1  9  2 -1</clus>
<clus scale="  258.840">  1  5  2 -1</clus>
</clustering>
</event>
<event>
 9    1  0.6270443E-005  0.9747610E+02  0.7546771E-02  0.1293617E+00
         21   -1    0    0  501  502  0.00000000000E+00  0.00000000000E+00  0.11102678466E+03  0.11102678466E+03  0.00000000000E+00 0. -1.
          1   -1    0    0  502    0 -0.00000000000E+00 -0.00000000000E+00 -0.27397768846E+03  0.27397768846E+03  0.00000000000E+00 0. -1.
         23    2    1    2    0    0  0.50438855753E+02  0.79708844600E+01 -0.46027321679E+02  0.11483962874E+03  0.91989199471E+02 0.  0.
        -24    2    1    2    0    0  0.10828339186E+02 -0.16051332229E+02  0.48529769924E+02  0.93547250363E+02  0.77595433408E+02 0.  0.
         13    1    4    4    0    0  0.18378126118E+02 -0.39608388362E+02  0.52723585979E+02  0.68456967992E+02  0.00000000000E+00 0. -1.
        -14    1    4    4    0    0 -0.75497869316E+01  0.23557056133E+02 -0.41938160545E+01  0.25090282371E+02  0.00000000000E+00 0.  1.
        -13    1    3    3    0    0  0.44476338095E+02  0.33990919494E+02  0.60653268192E+01  0.56305554325E+02  0.00000000000E+00 0. -1.
         13    1    3    3    0    0  0.59625176574E+01 -0.26020035034E+02 -0.52092648498E+02  0.58534074414E+02  0.00000000000E+00 0.  1.
          2    1    1    2  501    0 -0.61267194939E+02  0.80804477694E+01 -0.16545335204E+03  0.17661759401E+03  0.00000000000E+00 0. -1.
<scales pt_clust_5="13000.00000" pt_clust_6="13000.00000" pt_clust_7="13000.00000" pt_clust_8="13000.00000" pt_clust_9="61.79779"></scales>
<clustering>
<clus scale="   61.798">  1  9  2 -1</clus>
<clus scale="   77.595">  5  6 -1 -1</clus>
<clus scale="   84.028">  1  5  2 -1</clus>
<clus scale="   91.989">  7  8 -1 -1</clus>
<clus scale="   61.798">  1  5  2 -1</clus>
</clustering>
</event>
<event>
 9    1  0.6270443E-005  0.1106080E+03  0.7546771E-02  0.1262719E+00
          1   -1    0    0  502    0 -0.00000000000E+00  0.00000000000E+00  0.24605579878E+03  0.24605579878E+03  0.00000000000E+00 0. -1.
         21   -1    0    0  501  502  0.00000000000E+00 -0.00000000000E+00 -0.14022939777E+03  0.14022939777E+03  0.00000000000E+00 0.  1.
        -24    2    1    2    0    0  0.53928509534E+02  0.36492509264E+02  0.22236984656E+02  0.10645699466E+03  0.81231895537E+02 0.  0.
         23    2    1    2    0    0 -0.92906895981E+01 -0.81610158984E+02 -0.50255134607E+02  0.13169818769E+03  0.89845974442E+02 0.  0.
         11    1    3    3    0    0  0.36343623347E+02 -0.21363670228E+02  0.17998862308E+02  0.45839114388E+02  0.00000000000E+00 0. -1.
        -12    1    3    3    0    0  0.17584886187E+02  0.57856179492E+02  0.42381223484E+01  0.60617880272E+02  0.00000000000E+00 0.  1.
        -13    1    4    4    0    0  0.10822816260E+02 -0.86853220649E+02 -0.62522562650E+02  0.10756247547E+03  0.00000000000E+00 0.  1.
         13    1    4    4    0    0 -0.20113505858E+02  0.52430616644E+01  0.12267428043E+02  0.24135712219E+02  0.00000000000E+00 0. -1.
          2    1    1    2  501    0 -0.44637819936E+02  0.45117649720E+02  0.13384455096E+03  0.14813001420E+03  0.00000000000E+00 0. -1.
<scales pt_clust_5="13000.00000" pt_clust_6="13000.00000" pt_clust_7="13000.00000" pt_clust_8="13000.00000" pt_clust_9="63.46764"></scales>
<clustering>
<clus scale="   63.468">  2  9  1 -1</clus>
<clus scale="   81.232">  5  6 -1 -1</clus>
<clus scale="   89.846">  7  8 -1 -1</clus>
<clus scale="  103.733">  1  5  2 -1</clus>
<clus scale="   63.468">  2  5  1 -1</clus>
</clustering>
</event>
<event>
 9    1  0.6270443E-005  0.9734596E+02  0.7546771E-02  0.1291891E+00
         -2   -1    0    0    0  501 -0.00000000000E+00  0.00000000000E+00  0.41630287876E+03  0.41630287876E+03  0.00000000000E+00 0.  1.
         21   -1    0    0  501  502  0.00000000000E+00 -0.00000000000E+00 -0.44156524268E+02  0.44156524268E+02  0.00000000000E+00 0. -1.
         23    2    1    2    0    0  0.23802211911E+02  0.37375030249E+02  0.17394770202E+03  0.20097945388E+03  0.90396347640E+02 0.  0.
        -24    2    1    2    0    0  0.10321649948E+02 -0.26041006327E+02  0.32865339563E+02  0.90281833306E+02  0.79284351623E+02 0.  0.
         11    1    4    4    0    0  0.37174089665E+02  0.65999026394E+01  0.17478965244E+01  0.37795856910E+02  0.00000000000E+00 0. -1.
        -12    1    4    4    0    0 -0.26852439717E+02 -0.32640908966E+02  0.31117443039E+02  0.52485976396E+02  0.00000000000E+00 0.  1.
        -13    1    3    3    0    0 -0.25248457272E+02 -0.27074799718E+01  0.10202996745E+03  0.10514242389E+03  0.00000000000E+00 0.  1.
         13    1    3    3    0    0  0.49050669183E+02  0.40082510221E+02  0.71917734564E+02  0.95837029992E+02  0.00000000000E+00 0. -1.
         -1    1    1    2    0  502 -0.34123861859E+02 -0.11334023922E+02  0.16533331292E+03  0.16919811585E+03  0.00000000000E+00 0.  1.
<scales pt_clust_5="13000.00000" pt_clust_6="13000.00000" pt_clust_7="13000.00000" pt_clust_8="13000.00000" pt_clust_9="35.95691"></scales>
<clustering>
<clus scale="   35.957">  2  9  1 -1</clus>
<clus scale="   79.284">  5  6 -1 -1</clus>
<clus scale="   87.125">  2  5  1 -1</clus>
<clus scale="   90.396">  7  8 -1 -1</clus>
<clus scale="   35.957">  2  5  1 -1</clus>
</clustering>
</event>
<event>
 9    1  0.6270443E-005  0.1136664E+03  0.7546771E-02  0.1257679E+00
         21   -1    0    0  501  502  0.00000000000E+00  0.00000000000E+00  0.59217637218E+03  0.59217637218E+03  0.00000000000E+00 0.  1.
          1   -1    0    0  502    0 -0.00000000000E+00 -0.00000000000E+00 -0.47022761549E+02  0.47022761549E+02  0.00000000000E+00 0. -1.
         23    2    1    2    0    0  0.21840931538E+02 -0.65248463628E+02  0.52113655584E+02  0.12621263735E+03  0.92083703401E+02 0.  0.
        -24    2    1    2    0    0  0.57932811273E+01  0.63388393178E+02  0.28814792984E+03  0.30623096063E+03  0.81832275287E+02 0.  0.
         11    1    4    4    0    0 -0.48675558644E+01  0.76848337391E+02  0.16731044076E+03  0.18417965047E+03  0.00000000000E+00 0. -1.
        -12    1    4    4    0    0  0.10660836992E+02 -0.13459944213E+02  0.12083748908E+03  0.12205131016E+03  0.00000000000E+00 0.  1.
        -13    1    3    3    0    0  0.52650914300E+02 -0.51673171467E+02  0.13525062685E+02  0.75001084970E+02  0.00000000000E+00 0. -1.
         13    1    3    3    0    0 -0.30809982763E+02 -0.13575292161E+02  0.38588592899E+02  0.51211552379E+02  0.00000000000E+00 0.  1.
          2    1    1    2  501    0 -0.27634212665E+02  0.18600704496E+01  0.20489202520E+03  0.20675553575E+03  0.00000000000E+00 0. -1.
<scales pt_clust_5="13000.00000" pt_clust_6="13000.00000" pt_clust_7="13000.00000" pt_clust_8="13000.00000" pt_clust_9="27.69674"></scales>
<clustering>
<clus scale="   27.697">  1  9  2 -1</clus>
<clus scale="   81.832">  5  6 -1 -1</clus>
<clus scale="   92.084">  7  8 -1 -1</clus>
<clus scale="  105.533">  1  5  2 -1</clus>
<clus scale="   27.697">  1  5  2 -1</clus>
</clustering>
</event>
<event>
 9    1  0.6270443E-005  0.2232947E+03  0.7546771E-02  0.1175562E+00
          1   -1    0    0  502    0 -0.00000000000E+00  0.00000000000E+00  0.21353394036E+03  0.21353394036E+03  0.00000000000E+00 0. -1.
         21   -1    0    0  501  502  0.00000000000E+00 -0.00000000000E+00 -0.30940628061E+03  0.30940628061E+03  0.00000000000E+00 0. -1.
        -24    2    1    2    0    0 -0.46674951487E+01 -0.13568445187E+02  0.11722651879E+01  0.79004789027E+02  0.77682007361E+02 0.  0.
         23    2    1    2    0    0  0.13046820890E+03 -0.15047839623E+03 -0.94334041704E+01  0.21940724140E+03  0.91568811280E+02 0.  0.
         13    1    3    3    0    0  0.37020320487E+01 -0.27177951614E+02  0.33288942174E+02  0.43133510943E+02  0.00000000000E+00 0. -1.
        -14    1    3    3    0    0 -0.83695271974E+01  0.13609506427E+02 -0.32116676986E+02  0.35871278083E+02  0.00000000000E+00 0.  1.
        -11    1    4    4    0    0 -0.59307951396E+01 -0.45542506629E+02  0.72935624519E+01  0.46502583737E+02  0.00000000000E+00 0.  1.
         11    1    4    4    0    0  0.13639900404E+03 -0.10493588960E+03 -0.16726966622E+02  0.17290465766E+03  0.00000000000E+00 0. -1.
          2    1    1    2  501    0 -0.12580071375E+03  0.16404684142E+03 -0.87611201269E+02  0.22452819054E+03  0.00000000000E+00 0. -1.
<scales pt_clust_5="13000.00000" pt_clust_6="13000.00000" pt_clust_7="13000.00000" pt_clust_8="13000.00000" pt_clust_9="203.65581"></scales>
<clustering>
<clus scale="   77.682">  5  6 -1 -1</clus>
<clus scale="   78.996">  1  5  2 -1</clus>
<clus scale="   91.569">  7  8 -1 -1</clus>
<clus scale="  203.656">  2  9  1 -1</clus>
<clus scale="  203.656">  2  5  1 -1</clus>
</clustering>
</event>
<event>
 9    1  0.7145559E-005  0.2182555E+03  0.7546771E-02  0.1135990E+00
         -2   -1    0    0    0  501 -0.00000000000E+00  0.00000000000E+00  0.66354116699E+03  0.66354116699E+03  0.00000000000E+00 0.  1.
         21   -1    0    0  501  502  0.00000000000E+00 -0.00000000000E+00 -0.12187192137E+03  0.12187192137E+03  0.00000000000E+00 0.  1.
         23    2    1    2    0    0  0.71751012945E+01  0.19433707026E+03  0.34440783417E+03  0.40591717704E+03  0.91288659911E+02 0.  0.
        -24    2    1    2    0    0 -0.21754110520E+02 -0.20856604523E+03  0.49178938393E+02  0.23001872220E+03  0.80727987933E+02 0.  0.
         11    1    4    4    0    0 -0.14250378233E+02 -0.26634446643E+02 -0.18887842118E+02  0.35626080442E+02  0.00000000000E+00 0. -1.
        -12    1    4    4    0    0 -0.75037322874E+01 -0.18193159859E+03  0.68066780510E+02  0.19439264176E+03  0.00000000000E+00 0.  1.
        -13    1    3    3    0    0  0.41407444462E+00  0.13822994250E+03  0.15233382325E+03  0.20570192553E+03  0.00000000000E+00 0.  1.
         13    1    3    3    0    0  0.67610268498E+01  0.56107127764E+02  0.19207401092E+03  0.20021525152E+03  0.00000000000E+00 0. -1.
         -1    1    1    2    0  502  0.14579009226E+02  0.14228974970E+02  0.14808247305E+03  0.14947718911E+03  0.00000000000E+00 0.  1.
<scales pt_clust_5="13000.00000" pt_clust_6="13000.00000" pt_clust_7="13000.00000" pt_clust_8="13000.00000" pt_clust_9="20.37183"></scales>
<clustering>
<clus scale="   20.372">  2  9  1 -1</clus>
<clus scale="   80.728">  5  6 -1 -1</clus>
<clus scale="   91.289">  7  8 -1 -1</clus>
<clus scale="  214.053">  2  5  1 -1</clus>
<clus scale="   20.372">  2  5  1 -1</clus>
</clustering>
</event>
<event>
 9    1  0.6270443E-005  0.1010281E+03  0.7546771E-02  0.1283860E+00
         21   -1    0    0  501  502  0.00000000000E+00  0.00000000000E+00  0.70395958961E+02  0.70395958961E+02  0.00000000000E+00 0.  1.
         -2   -1    0    0    0  501 -0.00000000000E+00 -0.00000000000E+00 -0.25139496395E+03  0.25139496395E+03  0.00000000000E+00 0.  1.
        -24    2    1    2    0    0  0.15933435111E+02  0.42907212284E+02 -0.55299176303E+02  0.10861578426E+03  0.81513719526E+02 0.  0.
         23    2    1    2    0    0  0.54292402045E+01 -0.32462032056E+02 -0.14722328385E+02  0.99678569273E+02  0.92929059205E+02 0.  0.
         11    1    3    3    0    0 -0.33457594188E+02  0.14880338141E+02 -0.19517442118E+02  0.41494163673E+02  0.00000000000E+00 0. -1.
        -12    1    3    3    0    0  0.49391029299E+02  0.28026874143E+02 -0.35781734186E+02  0.67121620591E+02  0.00000000000E+00 0.  1.
        -11    1    4    4    0    0 -0.31508326671E+02  0.27896672094E+01 -0.32748593735E+02  0.45530509379E+02  0.00000000000E+00 0. -1.
         11    1    4    4    0    0  0.36937566875E+02 -0.35251699266E+02  0.18026265350E+02  0.54148059894E+02  0.00000000000E+00 0.  1.
         -1    1    1    2    0  502 -0.21362675315E+02 -0.10445180228E+02 -0.11097750030E+03  0.11349656937E+03  0.00000000000E+00 0.  1.
<scales pt_clust_5="13000.00000" pt_clust_6="13000.00000" pt_clust_7="13000.00000" pt_clust_8="13000.00000" pt_clust_9="23.77953"></scales>
<clustering>
<clus scale="   23.780">  1  9  2 -1</clus>
<clus scale="   81.514">  5  6 -1 -1</clus>
<clus scale="   90.639">  2  5  1 -1</clus>
<clus scale="   92.929">  7  8 -1 -1</clus>
<clus scale="   23.780">  1  5  2 -1</clus>
</clustering>
</event>
<event>
 9    1  0.6270443E-005  0.1117956E+03  0.7546771E-02  0.1259577E+00
         21   -1    0    0  501  502  0.00000000000E+00  0.00000000000E+00  0.13882570046E+03  0.13882570046E+03  0.00000000000E+00 0. -1.
          1   -1    0    0  502    0 -0.00000000000E+00 -0.00000000000E+00 -0.32810919004E+03  0.32810919004E+03  0.00000000000E+00 0. -1.
         23    2    1    2    0    0  0.60847158476E+02  0.23521011264E+02 -0.28715924972E+03  0.30869862495E+03  0.92621766770E+02 0.  0.
        -24    2    1    2    0    0 -0.35336254280E+02 -0.22054555852E+02  0.62602347772E+02  0.11467974658E+03  0.86587158565E+02 0.  0.
         11    1    4    4    0    0 -0.17746454892E+02  0.22044960914E+02  0.60919113612E+02  0.67171834619E+02  0.00000000000E+00 0. -1.
        -12    1    4    4    0    0 -0.17589799388E+02 -0.44099516765E+02  0.16832341604E+01  0.47507911959E+02  0.00000000000E+00 0.  1.
        -11    1    3    3    0    0  0.80029700356E+02  0.33511941325E+01 -0.24828975902E+03  0.26089037520E+03  0.00000000000E+00 0. -1.
         11    1    3    3    0    0 -0.19182541881E+02  0.20169817132E+02 -0.38869490706E+02  0.47808249747E+02  0.00000000000E+00 0.  1.
          2    1    1    2  501    0 -0.25510904196E+02 -0.14664554124E+01  0.35273412373E+02  0.43556518970E+02  0.00000000000E+00 0. -1.
<scales pt_clust_5="13000.00000" pt_clust_6="13000.00000" pt_clust_7="13000.00000" pt_clust_8="13000.00000" pt_clust_9="25.55302"></scales>
<clustering>
<clus scale="   25.553">  1  9  2 -1</clus>
<clus scale="   86.587">  5  6 -1 -1</clus>
<clus scale="   92.622">  7  8 -1 -1</clus>
<clus scale="  106.849">  1  5  2 -1</clus>
<clus scale="   25.553">  1  5  2 -1</clus>
</clustering>
</event>
<event>
 9    1  0.6270443E-005  0.1662193E+03  0.7546771E-02  0.1181951E+00
          1   -1    0    0  502    0 -0.00000000000E+00  0.00000000000E+00  0.10800527239E+04  0.10800527239E+04  0.00000000000E+00 0. -1.
         21   -1    0    0  501  502  0.00000000000E+00 -0.00000000000E+00 -0.45436356019E+02  0.45436356019E+02  0.00000000000E+00 0.  1.
         23    2    1    2    0    0  0.13576358317E+03 -0.45686650729E+02  0.50330201271E+03  0.52929671523E+03  0.79517772748E+02 0.  0.
        -24    2    1    2    0    0 -0.11798391818E+03  0.97904627223E+02  0.50733356342E+03  0.53604328381E+03  0.80309006756E+02 0.  0.
         11    1    4    4    0    0 -0.87243525842E+02  0.45325376316E+02  0.40669496713E+03  0.41840963042E+03  0.00000000000E+00 0. -1.
        -12    1    4    4    0    0 -0.30740392337E+02  0.52579250906E+02  0.10063859629E+03  0.11763365339E+03  0.00000000000E+00 0.  1.
        -11    1    3    3    0    0  0.44499136793E+02 -0.37510413081E+02  0.99878829796E+02  0.11559837761E+03  0.00000000000E+00 0.  1.
         11    1    3    3    0    0  0.91264446380E+02 -0.81762376486E+01  0.40342318292E+03  0.41369833762E+03  0.00000000000E+00 0. -1.
          2    1    1    2  501    0 -0.17779664994E+02 -0.52217976493E+02  0.23980791733E+02  0.60149080862E+02  0.00000000000E+00 0. -1.
<scales pt_clust_5="13000.00000" pt_clust_6="13000.00000" pt_clust_7="13000.00000" pt_clust_8="13000.00000" pt_clust_9="55.16188"></scales>
<clustering>
<clus scale="   55.162">  2  9  1 -1</clus>
<clus scale="   79.518">  7  8 -1 -1</clus>
<clus scale="   80.309">  5  6 -1 -1</clus>
<clus scale="  165.838">  1  7  2 -1</clus>
<clus scale="   55.162">  2  5  1 -1</clus>
</clustering>
</event>
<event>
 9    1  0.6270443E-005  0.9787698E+02  0.7546771E-02  0.1289075E+00
         -2   -1    0    0    0  501 -0.00000000000E+00  0.00000000000E+00  0.18446769508E+03  0.18446769508E+03  0.00000000000E+00 0.  1.
         21   -1    0    0  501  502  0.00000000000E+00 -0.00000000000E+00 -0.12596140323E+03  0.12596140323E+03  0.00000000000E+00 0.  1.
        -24    2    1    2    0    0 -0.38581282681E+02  0.71819346741E+01  0.10337322008E+03  0.13763452914E+03  0.81958193141E+02 0.  0.
         23    2    1    2    0    0  0.34758981866E+02  0.50199461225E+02 -0.35343858919E+02  0.11450285940E+03  0.90186161469E+02 0.  0.
         13    1    3    3    0    0  0.13019758881E+02 -0.25205137285E+02  0.21572393002E+02  0.35639601663E+02  0.00000000000E+00 0. -1.
        -14    1    3    3    0    0 -0.51601041562E+02  0.32387071959E+02  0.81800827080E+02  0.10199492748E+03  0.00000000000E+00 0.  1.
        -11    1    4    4    0    0 -0.23232581223E+02 -0.62588443346E+01  0.41981500232E+01  0.24424381799E+02  0.00000000000E+00 0. -1.
         11    1    4    4    0    0  0.57991563088E+02  0.56458305559E+02 -0.39542008942E+02  0.90078477603E+02  0.00000000000E+00 0.  1.
         -1    1    1    2    0  502  0.38223008154E+01 -0.57381395899E+02 -0.95230693113E+01  0.58291709770E+02  0.00000000000E+00 0.  1.
<scales pt_clust_5="13000.00000" pt_clust_6="13000.00000" pt_clust_7="13000.00000" pt_clust_8="13000.00000" pt_clust_9="57.50856"></scales>
<clustering>
<clus scale="   57.509">  2  9  1 -1</clus>
<clus scale="   81.958">  5  6 -1 -1</clus>
<clus scale="   90.186">  7  8 -1 -1</clus>
<clus scale="   90.352">  1  5  2 -1</clus>
<clus scale="   57.509">  2  5  1 -1</clus>
</clustering>
</event>
<event>
 9    1  0.6270443E-005  0.2446359E+03  0.7546771E-02  0.1117266E+00
         21   -1    0    0  501  502  0.00000000000E+00  0.00000000000E+00  0.36550649660E+03  0.36550649660E+03  0.00000000000E+00 0. -1.
          1   -1    0    0  502    0 -0.00000000000E+00 -0.00000000000E+00 -0.31490657668E+03  0.31490657668E+03  0.00000000000E+00 0. -1.
         23    2    1    2    0    0 -0.14322434194E+03 -0.16157869680E+03 -0.82397833667E+02  0.24818868962E+03  0.90483895146E+02 0.  0.
        -24    2    1    2    0    0  0.11982898629E+03  0.24141577662E+03  0.18239455129E+03  0.33547033669E+03  0.81437161700E+02 0.  0.
         11    1    4    4    0    0  0.11897196761E+03  0.15631145210E+03  0.12609844202E+03  0.23342753954E+03  0.00000000000E+00 0. -1.
        -12    1    4    4    0    0  0.85701868184E+00  0.85104324516E+02  0.56296109268E+02  0.10204279715E+03  0.00000000000E+00 0.  1.
        -11    1    3    3    0    0 -0.31514944742E+02 -0.55712033057E+02 -0.68353688724E+02  0.93644269080E+02  0.00000000000E+00 0.  1.
         11    1    3    3    0    0 -0.11170939719E+03 -0.10586666374E+03 -0.14044144943E+02  0.15454442054E+03  0.00000000000E+00 0. -1.
          2    1    1    2  501    0  0.23395355641E+02 -0.79837079819E+02 -0.49396797701E+02  0.96754046957E+02  0.00000000000E+00 0. -1.
<scales pt_clust_5="13000.00000" pt_clust_6="13000.00000" pt_clust_7="13000.00000" pt_clust_8="13000.00000" pt_clust_9="83.19440"></scales>
<clustering>
<clus scale="   81.437">  5  6 -1 -1</clus>
<clus scale="   83.194">  1  9  2 -1</clus>
<clus scale="   90.484">  7  8 -1 -1</clus>
<clus scale="  241.436">  1  5  2 -1</clus>
<clus scale="   83.194">  1  5  2 -1</clus>
</clustering>
</event>
<event>
 9    1  0.6270443E-005  0.1906280E+03  0.7546771E-02  0.1158413E+00
          1   -1    0    0  502    0 -0.00000000000E+00  0.00000000000E+00  0.13731963555E+03  0.13731963555E+03  0.00000000000E+00 0. -1.
         21   -1    0    0  501  502  0.00000000000E+00 -0.00000000000E+00 -0.11157861132E+04  0.11157861132E+04  0.00000000000E+00 0.  1.
         23    2    1    2    0    0  0.10786455042E+02  0.15710892405E+03 -0.47393016176E+02  0.19183984552E+03  0.98776853154E+02 0.  0.
        -24    2    1    2    0    0 -0.13028924036E+03 -0.16908377577E+03 -0.90868813965E+03  0.93909628584E+03  0.10306837325E+03 0.  0.
         11    1    4    4    0    0 -0.37224441354E+01 -0.19960821406E+02 -0.17840237561E+02  0.27028967013E+02  0.00000000000E+00 0. -1.
        -12    1    4    4    0    0 -0.12656679622E+03 -0.14912295437E+03 -0.89084790209E+03  0.91206731883E+03  0.00000000000E+00 0.  1.
        -13    1    3    3    0    0  0.46323273495E+02  0.10309080643E+03 -0.23615882439E+01  0.11304484569E+03  0.00000000000E+00 0. -1.
         13    1    3    3    0    0 -0.35536818454E+02  0.54018117619E+02 -0.45031427932E+02  0.78794999832E+02  0.00000000000E+00 0.  1.
          2    1    1    2  501    0  0.11950278532E+03  0.11974851723E+02 -0.22385321803E+02  0.12216961735E+03  0.00000000000E+00 0. -1.
<scales pt_clust_5="13000.00000" pt_clust_6="13000.00000" pt_clust_7="13000.00000" pt_clust_8="13000.00000" pt_clust_9="120.10132"></scales>
<clustering>
<clus scale="   98.777">  7  8 -1 -1</clus>
<clus scale="  103.068">  5  6 -1 -1</clus>
<clus scale="  120.101">  2  9  1 -1</clus>
<clus scale="  188.342">  1  7  2 -1</clus>
<clus scale="  120.101">  2  5  1 -1</clus>
</clustering>
</event>
<event>
 9    1  0.6270443E-005  0.1232951E+03  0.7546771E-02  0.1241810E+00
          3   -1    0    0  502    0 -0.00000000000E+00  0.00000000000E+00  0.14954259206E+03  0.14954259206E+03  0.00000000000E+00 0. -1.
         21   -1    0    0  501  502  0.00000000000E+00 -0.00000000000E+00 -0.31275291191E+03  0.31275291191E+03  0.00000000000E+00 0.  1.
         23    2    1    2    0    0  0.44206705249E+02  0.60065956269E+02  0.88831422916E+02  0.14949927230E+03  0.94323161674E+02 0.  0.
        -24    2    1    2    0    0 -0.80586595385E+02 -0.83391400663E+02 -0.20226192872E+03  0.24687504654E+03  0.81173122011E+02 0.  0.
         11    1    4    4    0    0 -0.22944108569E+02 -0.80512029097E+02 -0.11466275227E+03  0.14197241178E+03  0.00000000000E+00 0. -1.
        -12    1    4    4    0    0 -0.57642486816E+02 -0.28793715660E+01 -0.87599176445E+02  0.10490263477E+03  0.00000000000E+00 0.  1.
        -13    1    3    3    0    0  0.11310098449E+02  0.80038509759E+02  0.68608135543E+02  0.10602432567E+03  0.00000000000E+00 0. -1.
         13    1    3    3    0    0  0.32896606800E+02 -0.19972553489E+02  0.20223287373E+02  0.43474946625E+02  0.00000000000E+00 0.  1.
          4    1    1    2  501    0  0.36379890135E+02  0.23325444394E+02 -0.49779814053E+02  0.65921185135E+02  0.00000000000E+00 0. -1.
<scales pt_clust_5="13000.00000" pt_clust_6="13000.00000" pt_clust_7="13000.00000" pt_clust_8="13000.00000" pt_clust_9="43.21542"></scales>
<clustering>
<clus scale="   43.215">  2  9  1 -1</clus>
<clus scale="   81.173">  5  6 -1 -1</clus>
<clus scale="   94.323">  7  8 -1 -1</clus>
<clus scale="  113.551">  2  5  1 -1</clus>
<clus scale="   43.215">  2  5  1 -1</clus>
</clustering>
</event>
<event>
 9    1  0.6270443E-005  0.1772106E+03  0.7546771E-02  0.1171137E+00
         -2   -1    0    0    0  501 -0.00000000000E+00  0.00000000000E+00  0.74240314688E+02  0.74240314688E+02  0.00000000000E+00 0.  1.
         21   -1    0    0  501  502  0.00000000000E+00 -0.00000000000E+00 -0.71796912549E+03  0.71796912549E+03  0.00000000000E+00 0.  1.
         23    2    1    2    0    0 -0.84010545313E+02 -0.12796534861E+03 -0.14537413126E+03  0.22762959175E+03  0.85139243773E+02 0.  0.
        -24    2    1    2    0    0  0.30483481533E+02  0.16761895450E+03 -0.42875554180E+03  0.46823881361E+03  0.79943200996E+02 0.  0.
         13    1    4    4    0    0  0.14031600678E+01  0.62150090145E+02 -0.25844045554E+03  0.26581209833E+03  0.00000000000E+00 0. -1.
        -14    1    4    4    0    0  0.29080321465E+02  0.10546886436E+03 -0.17031508627E+03  0.20242671527E+03  0.00000000000E+00 0.  1.
        -11    1    3    3    0    0 -0.17802973593E+02 -0.10249387657E+03 -0.81133851592E+02  0.13192665567E+03  0.00000000000E+00 0.  1.
         11    1    3    3    0    0 -0.66207571721E+02 -0.25471472040E+02 -0.64240279673E+02  0.95702936075E+02  0.00000000000E+00 0. -1.
         -1    1    1    2    0  502  0.53527063780E+02 -0.39653605894E+02 -0.69599137738E+02  0.96341034825E+02  0.00000000000E+00 0.  1.
<scales pt_clust_5="13000.00000" pt_clust_6="13000.00000" pt_clust_7="13000.00000" pt_clust_8="13000.00000" pt_clust_9="66.61501"></scales>
<clustering>
<clus scale="   66.615">  2  9  1 -1</clus>
<clus scale="   79.943">  5  6 -1 -1</clus>
<clus scale="   85.139">  7  8 -1 -1</clus>
<clus scale="  174.774">  2  5  1 -1</clus>
<clus scale="   66.615">  2  5  1 -1</clus>
</clustering>
</event>
<event>
 9    1  0.6270443E-005  0.1498478E+03  0.7546771E-02  0.1228711E+00
          1   -1    0    0  502    0 -0.00000000000E+00  0.00000000000E+00  0.11619101781E+04  0.11619101781E+04  0.00000000000E+00 0. -1.
         21   -1    0    0  501  502  0.00000000000E+00 -0.00000000000E+00 -0.44513832921E+02  0.44513832921E+02  0.00000000000E+00 0.  1.
        -24    2    1    2    0    0 -0.13245485529E+02  0.96564776826E+01  0.34940195787E+02  0.89782903568E+02  0.81064554790E+02 0.  0.
         23    2    1    2    0    0 -0.29738614805E+02  0.10708278572E+03  0.69865685662E+03  0.71318406434E+03  0.90327172672E+02 0.  0.
         11    1    3    3    0    0 -0.47297473950E+02  0.87350332321E+01  0.15351547196E+02  0.50487838624E+02  0.00000000000E+00 0. -1.
        -12    1    3    3    0    0  0.34051988421E+02  0.92144445053E+00  0.19588648591E+02  0.39295064944E+02  0.00000000000E+00 0.  1.
        -11    1    4    4    0    0 -0.52608860123E+02  0.28492822100E+02  0.34762791906E+03  0.35273885976E+03  0.00000000000E+00 0.  1.
         11    1    4    4    0    0  0.22870245318E+02  0.78589963622E+02  0.35102893757E+03  0.36044520459E+03  0.00000000000E+00 0. -1.
          2    1    1    2  501    0  0.42984100334E+02 -0.11673926340E+03  0.38379929278E+03  0.40345704311E+03  0.00000000000E+00 0. -1.
<scales pt_clust_5="13000.00000" pt_clust_6="13000.00000" pt_clust_7="13000.00000" pt_clust_8="13000.00000" pt_clust_9="119.56322"></scales>
<clustering>
<clus scale="   81.065">  5  6 -1 -1</clus>
<clus scale="   82.705">  1  5  2 -1</clus>
<clus scale="   90.327">  7  8 -1 -1</clus>
<clus scale="  119.563">  2  9  1 -1</clus>
<clus scale="  119.563">  2  5  1 -1</clus>
</clustering>
</event>
<event>
 9    1  0.6270443E-005  0.1015461E+03  0.7546771E-02  0.1282466E+00
          3   -1    0    0  502    0 -0.00000000000E+00  0.00000000000E+00  0.27369612274E+03  0.27369612274E+03  0.00000000000E+00 0. -1.
         21   -1    0    0  501  502  0.00000000000E+00 -0.00000000000E+00 -0.16670524831E+03  0.16670524831E+03  0.00000000000E+00 0.  1.
         23    2    1    2    0    0  0.38242639862E+02  0.17763134451E+02  0.23097688317E+03  0.25200914493E+03  0.91543760695E+02 0.  0.
        -24    2    1    2    0    0 -0.63326045870E+02 -0.27382611811E+01 -0.61612587907E+02  0.11950559679E+03  0.80422574659E+02 0.  0.
         11    1    4    4    0    0 -0.22132610710E+02  0.22488374377E+02  0.10022310810E+02  0.33106285701E+02  0.00000000000E+00 0. -1.
        -12    1    4    4    0    0 -0.41193435160E+02 -0.25226635558E+02 -0.71634898717E+02  0.86399311085E+02  0.00000000000E+00 0.  1.
        -13    1    3    3    0    0  0.56731286775E+02 -0.17145747947E+02  0.11306639588E+03  0.12765745356E+03  0.00000000000E+00 0.  1.
         13    1    3    3    0    0 -0.18488646912E+02  0.34908882398E+02  0.11791048729E+03  0.12435169137E+03  0.00000000000E+00 0. -1.
          4    1    1    2  501    0  0.25083406008E+02 -0.15024873269E+02 -0.62373420832E+02  0.68886629327E+02  0.00000000000E+00 0. -1.
<scales pt_clust_5="13000.00000" pt_clust_6="13000.00000" pt_clust_7="13000.00000" pt_clust_8="13000.00000" pt_clust_9="29.23908"></scales>
<clustering>
<clus scale="   29.239">  2  9  1 -1</clus>
<clus scale="   80.423">  5  6 -1 -1</clus>
<clus scale="   91.544">  7  8 -1 -1</clus>
<clus scale="   91.647">  2  5  1 -1</clus>
<clus scale="   29.239">  2  5  1 -1</clus>
</clustering>
</event>
<event>
 9    1  0.6270443E-005  0.2139894E+03  0.7546771E-02  0.1139318E+00
          1   -1    0    0  502    0 -0.00000000000E+00  0.00000000000E+00  0.12231369150E+04  0.12231369150E+04  0.00000000000E+00 0. -1.
         21   -1    0    0  501  502  0.00000000000E+00 -0.00000000000E+00 -0.17152670774E+03  0.17152670774E+03  0.00000000000E+00 0. -1.
        -24    2    1    2    0    0  0.16112640662E+03  0.85887837250E+02  0.92271523227E+03  0.94413829302E+03  0.81579881070E+02 0.  0.
         23    2    1    2    0    0 -0.24063864936E+03 -0.16989251314E+03  0.12965510832E+03  0.33485528121E+03  0.92450995934E+02 0.  0.
         11    1    3    3    0    0  0.13961935557E+02  0.44752242302E+02  0.23924940473E+03  0.24379904943E+03  0.00000000000E+00 0. -1.
        -12    1    3    3    0    0  0.14716447106E+03  0.41135594948E+02  0.68346582753E+03  0.70033924360E+03  0.00000000000E+00 0.  1.
        -11    1    4    4    0    0 -0.21950779137E+03 -0.13027612235E+03  0.79079251545E+02  0.26722474914E+03  0.00000000000E+00 0. -1.
         11    1    4    4    0    0 -0.21130857989E+02 -0.39616390798E+02  0.50575856777E+02  0.67630532069E+02  0.00000000000E+00 0.  1.
          2    1    1    2  501    0  0.79512242744E+02  0.84004675894E+02 -0.76013333788E+00  0.11567004850E+03  0.00000000000E+00 0. -1.
<scales pt_clust_5="13000.00000" pt_clust_6="13000.00000" pt_clust_7="13000.00000" pt_clust_8="13000.00000" pt_clust_9="115.66755"></scales>
<clustering>
<clus scale="   81.580">  5  6 -1 -1</clus>
<clus scale="   92.451">  7  8 -1 -1</clus>
<clus scale="  115.668">  2  9  1 -1</clus>
<clus scale="  209.522">  1  5  2 -1</clus>
<clus scale="  115.668">  2  5  1 -1</clus>
</clustering>
</event>
<event>
 9    1  0.6270443E-005  0.9443883E+02  0.7546771E-02  0.1297860E+00
         21   -1    0    0  501  502  0.00000000000E+00  0.00000000000E+00  0.47251037345E+03  0.47251037345E+03  0.00000000000E+00 0.  1.
         -4   -1    0    0    0  501 -0.00000000000E+00 -0.00000000000E+00 -0.56813575905E+02  0.56813575905E+02  0.00000000000E+00 0.  1.
        -24    2    1    2    0    0 -0.66179659797E+01 -0.28749330842E+02  0.12024918741E+02  0.86756982383E+02  0.80696058292E+02 0.  0.
         23    2    1    2    0    0 -0.31530795421E+02  0.24911425162E+02  0.11595783542E+03  0.15230944636E+03  0.90206306263E+02 0.  0.
         13    1    3    3    0    0  0.27871876745E+02  0.30134414630E+01  0.25578773059E+02  0.37949914017E+02  0.00000000000E+00 0. -1.
        -14    1    3    3    0    0 -0.34489842724E+02 -0.31762772305E+02 -0.13553854317E+02  0.48807068366E+02  0.00000000000E+00 0.  1.
        -11    1    4    4    0    0 -0.27510431600E+02 -0.22697315126E+02  0.92389672885E+02  0.99034557688E+02  0.00000000000E+00 0.  1.
         11    1    4    4    0    0 -0.40203638215E+01  0.47608740288E+02  0.23568162539E+02  0.53274888668E+02  0.00000000000E+00 0. -1.
         -3    1    1    2    0  502  0.38148761401E+02  0.38379056793E+01  0.28771404338E+03  0.29025752061E+03  0.00000000000E+00 0.  1.
<scales pt_clust_5="13000.00000" pt_clust_6="13000.00000" pt_clust_7="13000.00000" pt_clust_8="13000.00000" pt_clust_9="38.34133"></scales>
<clustering>
<clus scale="   38.341">  1  9  2 -1</clus>
<clus scale="   80.696">  5  6 -1 -1</clus>
<clus scale="   85.401">  2  5  1 -1</clus>
<clus scale="   90.206">  7  8 -1 -1</clus>
<clus scale="   38.341">  1  5  2 -1</clus>
</clustering>
</event>
<event>
 9    1  0.6270443E-005  0.9432416E+02  0.7546771E-02  0.1301581E+00
         21   -1    0    0  501  502  0.00000000000E+00  0.00000000000E+00  0.49027521634E+02  0.49027521634E+02  0.00000000000E+00 0.  1.
          1   -1    0    0  502    0 -0.00000000000E+00 -0.00000000000E+00 -0.22856975893E+03  0.22856975893E+03  0.00000000000E+00 0. -1.
         23    2    1    2    0    0 -0.27918460489E+02 -0.21915256723E+02 -0.13472688233E+03  0.16592627251E+03  0.90113684704E+02 0.  0.
        -24    2    1    2    0    0  0.17898635154E+02 -0.38491074591E+00 -0.28236404195E+02  0.82131949553E+02  0.75019019714E+02 0.  0.
         11    1    4    4    0    0 -0.12253445435E+02  0.16973318257E+02 -0.40213772706E+02  0.45336386853E+02  0.00000000000E+00 0. -1.
        -12    1    4    4    0    0  0.30152080589E+02 -0.17358229003E+02  0.11977368510E+02  0.36795562700E+02  0.00000000000E+00 0.  1.
        -11    1    3    3    0    0 -0.51615329119E+02 -0.41117438029E+02 -0.85303808245E+02  0.10784955082E+03  0.00000000000E+00 0. -1.
         11    1    3    3    0    0  0.23696868630E+02  0.19202181306E+02 -0.49423074089E+02  0.58076721689E+02  0.00000000000E+00 0.  1.
          2    1    1    2  501    0  0.10019825335E+02  0.22300167469E+02 -0.16578950767E+02  0.29539058506E+02  0.00000000000E+00 0. -1.
<scales pt_clust_5="13000.00000" pt_clust_6="13000.00000" pt_clust_7="13000.00000" pt_clust_8="13000.00000" pt_clust_9="24.44779"></scales>
<clustering>
<clus scale="   24.448">  1  9  2 -1</clus>
<clus scale="   75.019">  5  6 -1 -1</clus>
<clus scale="   80.028">  1  5  2 -1</clus>
<clus scale="   90.114">  7  8 -1 -1</clus>
<clus scale="   24.448">  1  5  2 -1</clus>
</clustering>
</event>
<event>
 9    1  0.6270443E-005  0.1035610E+03  0.7546771E-02  0.1276802E+00
         21   -1    0    0  501  502  0.00000000000E+00  0.00000000000E+00  0.19099981834E+03  0.19099981834E+03  0.00000000000E+00 0.  1.
          1   -1    0    0  502    0 -0.00000000000E+00 -0.00000000000E+00 -0.15947625733E+03  0.15947625733E+03  0.00000000000E+00 0. -1.
         23    2    1    2    0    0  0.38338441484E+01 -0.22534897383E+02 -0.18514893127E+02  0.98667132396E+02  0.94180049834E+02 0.  0.
        -24    2    1    2    0    0 -0.90481732194E+02  0.64420024873E+02  0.67425855164E+02  0.15401046618E+03  0.82680676598E+02 0.  0.
         11    1    4    4    0    0  0.15297563116E+02  0.15558403337E+02  0.13093407948E+02  0.25446349117E+02  0.00000000000E+00 0. -1.
        -12    1    4    4    0    0 -0.10577929531E+03  0.48861621537E+02  0.54332447216E+02  0.12856411706E+03  0.00000000000E+00 0.  1.
        -13    1    3    3    0    0 -0.53794879644E+01  0.33976842345E+02 -0.22766884454E+02  0.41251614929E+02  0.00000000000E+00 0.  1.
         13    1    3    3    0    0  0.92133321128E+01 -0.56511739728E+02  0.42519913274E+01  0.57415517467E+02  0.00000000000E+00 0. -1.
          2    1    1    2  501    0  0.86647888046E+02 -0.41885127491E+02 -0.17387401019E+02  0.97798477094E+02  0.00000000000E+00 0. -1.
<scales pt_clust_5="13000.00000" pt_clust_6="13000.00000" pt_clust_7="13000.00000" pt_clust_8="13000.00000" pt_clust_9="96.24048"></scales>
<clustering>
<clus scale="   82.681">  5  6 -1 -1</clus>
<clus scale="   94.180">  7  8 -1 -1</clus>
<clus scale="   96.240">  1  9  2 -1</clus>
<clus scale="   96.240">  1  5  2 -1</clus>
<clus scale="   96.240">  1  5  2 -1</clus>
</clustering>
</event>
<event>
 9    1  0.6270443E-005  0.1200713E+03  0.7546771E-02  0.1245619E+00
         21   -1    0    0  501  502  0.00000000000E+00  0.00000000000E+00  0.36546672896E+03  0.36546672896E+03  0.00000000000E+00 0. -1.
          1   -1    0    0  502    0 -0.00000000000E+00 -0.00000000000E+00 -0.73288974769E+02  0.73288974769E+02  0.00000000000E+00 0. -1.
         23    2    1    2    0    0  0.33761353964E+02 -0.62217863269E+02  0.11881206945E+03  0.16539197072E+03  0.90704490533E+02 0.  0.
        -24    2    1    2    0    0 -0.95021396458E+02  0.34505113948E+02  0.15719719729E+03  0.20421021344E+03  0.82287202929E+02 0.  0.
         11    1    4    4    0    0 -0.28860468411E+02  0.22008553512E+02  0.12387959610E+03  0.12908701482E+03  0.00000000000E+00 0. -1.
        -12    1    4    4    0    0 -0.66160928047E+02  0.12496560436E+02  0.33317601188E+02  0.75123198625E+02  0.00000000000E+00 0.  1.
        -11    1    3    3    0    0 -0.42846344637E+01 -0.52809052417E+02  0.15973097908E+02  0.55337997492E+02  0.00000000000E+00 0.  1.
         11    1    3    3    0    0  0.38045988428E+02 -0.94088108517E+01  0.10283897154E+03  0.11005397323E+03  0.00000000000E+00 0. -1.
          2    1    1    2  501    0  0.61260042494E+02  0.27712749321E+02  0.16168487457E+02  0.69153519563E+02  0.00000000000E+00 0. -1.
<scales pt_clust_5="13000.00000" pt_clust_6="13000.00000" pt_clust_7="13000.00000" pt_clust_8="13000.00000" pt_clust_9="67.23685"></scales>
<clustering>
<clus scale="   67.237">  1  9  2 -1</clus>
<clus scale="   82.287">  5  6 -1 -1</clus>
<clus scale="   90.704">  7  8 -1 -1</clus>
<clus scale="  113.846">  1  5  2 -1</clus>
<clus scale="   67.237">  1  5  2 -1</clus>
</clustering>
</event>
<event>
 9    1  0.6270443E-005  0.9977299E+02  0.7546771E-02  0.1285180E+00
         21   -1    0    0  501  502  0.00000000000E+00  0.00000000000E+00  0.13400420085E+03  0.13400420085E+03  0.00000000000E+00 0.  1.
          1   -1    0    0  502    0 -0.00000000000E+00 -0.00000000000E+00 -0.19281884689E+03  0.19281884689E+03  0.00000000000E+00 0. -1.
        -24    2    1    2    0    0  0.16184853028E+01 -0.53146195321E+02 -0.10735699197E+03  0.14403186211E+03  0.79953211343E+02 0.  0.
         23    2    1    2    0    0 -0.54367023805E+02  0.48997341782E+01  0.34270253980E+02  0.10989521911E+03  0.89009708472E+02 0.  0.
         13    1    3    3    0    0  0.22982142889E+02 -0.13232144062E+02 -0.92742605899E+02  0.96459626151E+02  0.00000000000E+00 0. -1.
        -14    1    3    3    0    0 -0.21363657586E+02 -0.39914051259E+02 -0.14614386075E+02  0.47572235955E+02  0.00000000000E+00 0.  1.
        -13    1    4    4    0    0 -0.82337125877E+01 -0.34532145943E+02 -0.74185250904E+01  0.36267032425E+02  0.00000000000E+00 0. -1.
         13    1    4    4    0    0 -0.46133311217E+02  0.39431880121E+02  0.41688779071E+02  0.73628186682E+02  0.00000000000E+00 0.  1.
          2    1    1    2  501    0  0.52748538502E+02  0.48246461143E+02  0.14272091959E+02  0.72895966527E+02  0.00000000000E+00 0. -1.
<scales pt_clust_5="13000.00000" pt_clust_6="13000.00000" pt_clust_7="13000.00000" pt_clust_8="13000.00000" pt_clust_9="71.48517"></scales>
<clustering>
<clus scale="   71.485">  1  9  2 -1</clus>
<clus scale="   79.953">  5  6 -1 -1</clus>
<clus scale="   89.010">  7  8 -1 -1</clus>
<clus scale="   91.785">  2  5  1 -1</clus>
<clus scale="   71.485">  1  5  2 -1</clus>
</clustering>
</event>
<event>
 9    1  0.6270443E-005  0.1308599E+03  0.7546771E-02  0.1242408E+00
         -4   -1    0    0    0  501 -0.00000000000E+00  0.00000000000E+00  0.68052145566E+02  0.68052145566E+02  0.00000000000E+00 0.  1.
         21   -1    0    0  501  502  0.00000000000E+00 -0.00000000000E+00 -0.78524418289E+03  0.78524418289E+03  0.00000000000E+00 0.  1.
         23    2    1    2    0    0  0.35940836942E+01  0.20770318442E+02 -0.12898713631E+03  0.15950670513E+03  0.91435135919E+02 0.  0.
        -24    2    1    2    0    0 -0.55983632624E+02  0.85359030053E+02 -0.55646490827E+03  0.57125174924E+03  0.79088783854E+02 0.  0.
         11    1    4    4    0    0  0.77182884569E+00  0.30209609743E+02 -0.48391865767E+02  0.57052510137E+02  0.00000000000E+00 0. -1.
        -12    1    4    4    0    0 -0.56755461470E+02  0.55149420310E+02 -0.50807304251E+03  0.51419923910E+03  0.00000000000E+00 0.  1.
        -11    1    3    3    0    0  0.14429868517E+02 -0.24484510031E+02 -0.74718377469E+01  0.29386062958E+02  0.00000000000E+00 0. -1.
         11    1    3    3    0    0 -0.10835784823E+02  0.45254828473E+02 -0.12151529856E+03  0.13012064217E+03  0.00000000000E+00 0.  1.
         -3    1    1    2    0  502  0.52389548930E+02 -0.10612934849E+03 -0.31739992742E+02  0.12253787410E+03  0.00000000000E+00 0.  1.
<scales pt_clust_5="13000.00000" pt_clust_6="13000.00000" pt_clust_7="13000.00000" pt_clust_8="13000.00000" pt_clust_9="104.25588"></scales>
<clustering>
<clus scale="   79.089">  5  6 -1 -1</clus>
<clus scale="   91.435">  7  8 -1 -1</clus>
<clus scale="   93.833">  1  7  2 -1</clus>
<clus scale="  104.256">  2  9  1 -1</clus>
<clus scale="  104.256">  2  5  1 -1</clus>
</clustering>
</event>
<event>
 9    1  0.6270443E-005  0.9588069E+02  0.7546771E-02  0.1316103E+00
         -2   -1    0    0    0  501 -0.00000000000E+00  0.00000000000E+00  0.42443697343E+02  0.42443697343E+02  0.00000000000E+00 0.  1.
         21   -1    0    0  501  502  0.00000000000E+00 -0.00000000000E+00 -0.35177650477E+03  0.35177650477E+03  0.00000000000E+00 0. -1.
        -24    2    1    2    0    0 -0.14713787989E+02  0.20645328231E+02 -0.22022127414E-01  0.58182274699E+02  0.52368420536E+02 0.  0.
         23    2    1    2    0    0  0.41681158513E+02 -0.80417949975E+01 -0.23761403250E+03  0.25840731177E+03  0.92260072046E+02 0.  0.
         13    1    3    3    0    0  0.13914279179E+02  0.25219435242E+02 -0.33643297807E+01  0.28999065396E+02  0.00000000000E+00 0. -1.
        -14    1    3    3    0    0 -0.28628067169E+02 -0.45741070103E+01  0.33423076533E+01  0.29183209303E+02  0.00000000000E+00 0.  1.
        -13    1    4    4    0    0 -0.27284561077E+02 -0.30557903088E+01 -0.36058850463E+02  0.45321361678E+02  0.00000000000E+00 0.  1.
         13    1    4    4    0    0  0.68965719590E+02 -0.49860046888E+01 -0.20155518204E+03  0.21308595010E+03  0.00000000000E+00 0. -1.
         -1    1    1    2    0  502 -0.26967370524E+02 -0.12603533234E+02 -0.71696752792E+02  0.77630615635E+02  0.00000000000E+00 0.  1.
<scales pt_clust_5="13000.00000" pt_clust_6="13000.00000" pt_clust_7="13000.00000" pt_clust_8="13000.00000" pt_clust_9="29.76723"></scales>
<clustering>
<clus scale="   29.767">  2  9  1 -1</clus>
<clus scale="   52.368">  5  6 -1 -1</clus>
<clus scale="   58.512">  1  5  2 -1</clus>
<clus scale="   92.260">  7  8 -1 -1</clus>
<clus scale="   29.767">  2  5  1 -1</clus>
</clustering>
</event>
<event>
 9    1  0.6270443E-005  0.1239008E+03  0.7546771E-02  0.1239837E+00
         21   -1    0    0  501  502  0.00000000000E+00  0.00000000000E+00  0.13229231897E+03  0.13229231897E+03  0.00000000000E+00 0.  1.
         -2   -1    0    0    0  501 -0.00000000000E+00 -0.00000000000E+00 -0.26911156122E+03  0.26911156122E+03  0.00000000000E+00 0.  1.
        -24    2    1    2    0    0 -0.47662870627E+02  0.89249643298E+02 -0.42386180413E+02  0.13667942936E+03  0.81531773277E+02 0.  0.
         23    2    1    2    0    0  0.13329873211E+02 -0.51807186179E+02  0.45679255173E+02  0.11568702707E+03  0.91843474557E+02 0.  0.
         13    1    3    3    0    0 -0.45252901189E+02  0.22730563241E+02  0.10435028326E+02  0.51704868121E+02  0.00000000000E+00 0. -1.
        -14    1    3    3    0    0 -0.24099694384E+01  0.66519080057E+02 -0.52821208739E+02  0.84974561234E+02  0.00000000000E+00 0.  1.
        -11    1    4    4    0    0  0.51606148530E+02 -0.32695576516E+02  0.38756585690E+02  0.72348242716E+02  0.00000000000E+00 0.  1.
         11    1    4    4    0    0 -0.38276275319E+02 -0.19111609663E+02  0.69226694827E+01  0.43338784350E+02  0.00000000000E+00 0. -1.
         -1    1    1    2    0  502  0.34332997416E+02 -0.37442457119E+02 -0.14011231701E+03  0.14903742377E+03  0.00000000000E+00 0.  1.
<scales pt_clust_5="13000.00000" pt_clust_6="13000.00000" pt_clust_7="13000.00000" pt_clust_8="13000.00000" pt_clust_9="50.80054"></scales>
<clustering>
<clus scale="   50.801">  1  9  2 -1</clus>
<clus scale="   81.532">  5  6 -1 -1</clus>
<clus scale="   91.843">  7  8 -1 -1</clus>
<clus scale="  116.463">  2  5  1 -1</clus>
<clus scale="   50.801">  1  5  2 -1</clus>
</clustering>
</event>
<event>
 9    1  0.6270443E-005  0.1790724E+03  0.7546771E-02  0.1169643E+00
         21   -1    0    0  501  502  0.00000000000E+00  0.00000000000E+00  0.14287374771E+04  0.14287374771E+04  0.00000000000E+00 0.  1.
         -2   -1    0    0    0  501 -0.00000000000E+00 -0.00000000000E+00 -0.29928276663E+02  0.29928276663E+02  0.00000000000E+00 0.  1.
        -24    2    1    2    0    0 -0.12463962020E+03 -0.83816927585E+02  0.64384896250E+03  0.66582659907E+03  0.78887649485E+02 0.  0.
         23    2    1    2    0    0  0.12441827083E+03  0.10742325227E+03  0.74384485414E+03  0.76674587361E+03  0.87031065867E+02 0.  0.
         13    1    3    3    0    0 -0.41431122627E+02 -0.94491250127E+01  0.75617083487E+02  0.86739651837E+02  0.00000000000E+00 0. -1.
        -14    1    3    3    0    0 -0.83208497574E+02 -0.74367802572E+02  0.56823187901E+03  0.57908694723E+03  0.00000000000E+00 0.  1.
        -13    1    4    4    0    0  0.41005800934E+01  0.54324355431E+02  0.21960262136E+03  0.22625927972E+03  0.00000000000E+00 0. -1.
         13    1    4    4    0    0  0.12031769073E+03  0.53098896837E+02  0.52424223278E+03  0.54048659389E+03  0.00000000000E+00 0.  1.
         -1    1    1    2    0  502  0.22134937414E+00 -0.23606324684E+02  0.11115383795E+02  0.26093281080E+02  0.00000000000E+00 0.  1.
<scales pt_clust_5="13000.00000" pt_clust_6="13000.00000" pt_clust_7="13000.00000" pt_clust_8="13000.00000" pt_clust_9="23.60737"></scales>
<clustering>
<clus scale="   23.607">  1  9  2 -1</clus>
<clus scale="   78.888">  5  6 -1 -1</clus>
<clus scale="   87.031">  7  8 -1 -1</clus>
<clus scale="  175.259">  2  5  1 -1</clus>
<clus scale="   23.607">  1  5  2 -1</clus>
</clustering>
</event>
<event>
 9    1  0.9506700E-005  0.1219088E+03  0.7546771E-02  0.1243950E+00
          1   -1    0    0  502    0 -0.00000000000E+00  0.00000000000E+00  0.72817597507E+03  0.72817597507E+03  0.00000000000E+00 0. -1.
         21   -1    0    0  501  502  0.00000000000E+00 -0.00000000000E+00 -0.23790611219E+03  0.23790611219E+03  0.00000000000E+00 0.  1.
        -24    2    1    2    0    0 -0.57366665149E+02  0.57172005653E+02  0.69500228551E+03  0.70402320434E+03  0.77851929259E+02 0.  0.
         23    2    1    2    0    0  0.85172783366E+02 -0.42584163453E+02 -0.17315622715E+03  0.21752752912E+03  0.90924875141E+02 0.  0.
         13    1    3    3    0    0 -0.71995685111E+02  0.60545901211E+02  0.52516239818E+03  0.53352106734E+03  0.00000000000E+00 0. -1.
        -14    1    3    3    0    0  0.14629019962E+02 -0.33738955579E+01  0.16983988732E+03  0.17050213700E+03  0.00000000000E+00 0.  1.
        -13    1    4    4    0    0  0.81163244703E+02  0.62679608158E+01 -0.12211934883E+03  0.14676476070E+03  0.00000000000E+00 0. -1.
         13    1    4    4    0    0  0.40095386624E+01 -0.48852124269E+02 -0.51036878321E+02  0.70762768421E+02  0.00000000000E+00 0.  1.
          2    1    1    2  501    0 -0.27806118217E+02 -0.14587842200E+02 -0.31576195478E+02  0.44531353800E+02  0.00000000000E+00 0. -1.
<scales pt_clust_5="13000.00000" pt_clust_6="13000.00000" pt_clust_7="13000.00000" pt_clust_8="13000.00000" pt_clust_9="31.40040"></scales>
<clustering>
<clus scale="   31.400">  2  9  1 -1</clus>
<clus scale="   77.852">  5  6 -1 -1</clus>
<clus scale="   90.925">  7  8 -1 -1</clus>
<clus scale="  112.496">  1  5  2 -1</clus>
<clus scale="   31.400">  2  5  1 -1</clus>
</clustering>
</event>
<event>
 9    1  0.6270443E-005  0.9171324E+02  0.7546771E-02  0.1305648E+00
         21   -1    0    0  501  502  0.00000000000E+00  0.00000000000E+00  0.89511276254E+02  0.89511276254E+02  0.00000000000E+00 0. -1.
         -4   -1    0    0    0  501 -0.00000000000E+00 -0.00000000000E+00 -0.27771755602E+03  0.27771755602E+03  0.00000000000E+00 0.  1.
        -24    2    1    2    0    0 -0.12431815737E+02 -0.13956643495E+02 -0.19437230374E+03  0.21042717144E+03  0.78419793916E+02 0.  0.
         23    2    1    2    0    0  0.46594152858E+02 -0.13251926451E+02  0.31094933953E+02  0.10651426571E+03  0.89620116305E+02 0.  0.
         13    1    3    3    0    0  0.29455331981E+02  0.34003490584E+01 -0.41718596384E+02  0.51182225822E+02  0.00000000000E+00 0. -1.
        -14    1    3    3    0    0 -0.41887147718E+02 -0.17356992553E+02 -0.15265370736E+03  0.15924494562E+03  0.00000000000E+00 0.  1.
        -11    1    4    4    0    0 -0.64664740576E+00 -0.38192178784E+02  0.36485519296E+02  0.52822852928E+02  0.00000000000E+00 0. -1.
         11    1    4    4    0    0  0.47240800264E+02  0.24940252333E+02 -0.53905853423E+01  0.53691412780E+02  0.00000000000E+00 0.  1.
         -3    1    1    2    0  502 -0.34162337121E+02  0.27208569945E+02 -0.24928909980E+02  0.50287395129E+02  0.00000000000E+00 0.  1.
<scales pt_clust_5="13000.00000" pt_clust_6="13000.00000" pt_clust_7="13000.00000" pt_clust_8="13000.00000" pt_clust_9="43.67347"></scales>
<clustering>
<clus scale="   43.673">  1  9  2 -1</clus>
<clus scale="   78.420">  5  6 -1 -1</clus>
<clus scale="   80.804">  2  5  1 -1</clus>
<clus scale="   89.620">  7  8 -1 -1</clus>
<clus scale="   43.673">  1  5  2 -1</clus>
</clustering>
</event>
<event>
 9    1  0.6270443E-005  0.1276458E+03  0.7546771E-02  0.1231741E+00
         21   -1    0    0  501  502  0.00000000000E+00  0.00000000000E+00  0.31865973317E+02  0.31865973317E+02  0.00000000000E+00 0. -1.
          1   -1    0    0  502    0 -0.00000000000E+00 -0.00000000000E+00 -0.12232501416E+04  0.12232501416E+04  0.00000000000E+00 0. -1.
        -24    2    1    2    0    0  0.68884984054E+02 -0.90812373054E+02 -0.84697673251E+03  0.85907553264E+03  0.87459460498E+02 0.  0.
         23    2    1    2    0    0 -0.56003121456E+02  0.33202385628E+01 -0.20599167431E+03  0.23178547884E+03  0.90247242180E+02 0.  0.
         11    1    3    3    0    0  0.86582998789E+02 -0.56267740590E+02 -0.55428092369E+03  0.56381736110E+03  0.00000000000E+00 0. -1.
        -12    1    3    3    0    0 -0.17698014735E+02 -0.34544632464E+02 -0.29269580882E+03  0.29525817154E+03  0.00000000000E+00 0.  1.
        -11    1    4    4    0    0 -0.62030255632E+02 -0.29561778325E+02 -0.16601204064E+03  0.17967094642E+03  0.00000000000E+00 0.  1.
         11    1    4    4    0    0  0.60271341754E+01  0.32882016888E+02 -0.39979633670E+02  0.52114532420E+02  0.00000000000E+00 0. -1.
          2    1    1    2  501    0 -0.12881862598E+02  0.87492134492E+02 -0.13841576142E+03  0.16425510340E+03  0.00000000000E+00 0. -1.
<scales pt_clust_5="13000.00000" pt_clust_6="13000.00000" pt_clust_7="13000.00000" pt_clust_8="13000.00000" pt_clust_9="88.43538"></scales>
<clustering>
<clus scale="   87.459">  5  6 -1 -1</clus>
<clus scale="   88.435">  1  9  2 -1</clus>
<clus scale="   90.247">  7  8 -1 -1</clus>
<clus scale="  125.690">  2  5  1 -1</clus>
<clus scale="   88.435">  1  5  2 -1</clus>
</clustering>
</event>
<event>
 9    1  0.6270443E-005  0.1351013E+03  0.7546771E-02  0.1222510E+00
          3   -1    0    0  502    0 -0.00000000000E+00  0.00000000000E+00  0.82115228333E+03  0.82115228333E+03  0.00000000000E+00 0. -1.
         21   -1    0    0  501  502  0.00000000000E+00 -0.00000000000E+00 -0.36955828511E+02  0.36955828511E+02  0.00000000000E+00 0. -1.
        -24    2    1    2    0    0 -0.10307745094E+03  0.36835138863E+01  0.49100354984E+03  0.50842413258E+03  0.82292669556E+02 0.  0.
         23    2    1    2    0    0  0.84400094983E+02  0.17664948028E+02  0.12035466873E+03  0.17453359713E+03  0.92419174531E+02 0.  0.
         11    1    3    3    0    0 -0.69897298213E+02  0.38244341234E+02  0.36557594025E+03  0.37415776087E+03  0.00000000000E+00 0. -1.
        -12    1    3    3    0    0 -0.33180152728E+02 -0.34560827348E+02  0.12542760960E+03  0.13426637170E+03  0.00000000000E+00 0.  1.
        -11    1    4    4    0    0  0.55990491992E+02  0.33044250570E+02  0.12595685522E+03  0.14174620653E+03  0.00000000000E+00 0.  1.
         11    1    4    4    0    0  0.28409602992E+02 -0.15379302542E+02 -0.56021864915E+01  0.32787390600E+02  0.00000000000E+00 0. -1.
          4    1    1    2  501    0  0.18677355958E+02 -0.21348461914E+02  0.17283823625E+03  0.17515038213E+03  0.00000000000E+00 0. -1.
<scales pt_clust_5="13000.00000" pt_clust_6="13000.00000" pt_clust_7="13000.00000" pt_clust_8="13000.00000" pt_clust_9="28.36549"></scales>
<clustering>
<clus scale="   28.365">  2  9  1 -1</clus>
<clus scale="   82.293">  5  6 -1 -1</clus>
<clus scale="   92.419">  7  8 -1 -1</clus>
<clus scale="  128.387">  1  5  2 -1</clus>
<clus scale="   28.365">  2  5  1 -1</clus>
</clustering>
</event>
<event>
 9    1  0.6270443E-005  0.9479650E+02  0.7546771E-02  0.1295673E+00
         21   -1    0    0  501  502  0.00000000000E+00  0.00000000000E+00  0.62430131563E+03  0.62430131563E+03  0.00000000000E+00 0.  1.
         -4   -1    0    0    0  501 -0.00000000000E+00 -0.00000000000E+00 -0.24456039514E+02  0.24456039514E+02  0.00000000000E+00 0.  1.
         23    2    1    2    0    0 -0.22751310489E+02  0.13572922363E+02  0.13252873635E+03  0.16103561056E+03  0.87560011194E+02 0.  0.
        -24    2    1    2    0    0  0.58182973270E+02 -0.58785812834E+01  0.28286987084E+03  0.29974520538E+03  0.80075016224E+02 0.  0.
         11    1    4    4    0    0 -0.19524493660E+02 -0.86494650191E+01  0.57342990019E+02  0.61190175699E+02  0.00000000000E+00 0. -1.
        -12    1    4    4    0    0  0.77707466930E+02  0.27708837357E+01  0.22552688082E+03  0.23855502968E+03  0.00000000000E+00 0.  1.
        -13    1    3    3    0    0 -0.55109995588E+02  0.93903098232E+01  0.62973294900E+02  0.84207632688E+02  0.00000000000E+00 0. -1.
         13    1    3    3    0    0  0.32358685099E+02  0.41826125394E+01  0.69555441450E+02  0.76827977875E+02  0.00000000000E+00 0.  1.
         -3    1    1    2    0  502 -0.35431662781E+02 -0.76943410792E+01  0.18444666893E+03  0.18797653920E+03  0.00000000000E+00 0.  1.
<scales pt_clust_5="13000.00000" pt_clust_6="13000.00000" pt_clust_7="13000.00000" pt_clust_8="13000.00000" pt_clust_9="36.25749"></scales>
<clustering>
<clus scale="   36.257">  1  9  2 -1</clus>
<clus scale="   80.075">  5  6 -1 -1</clus>
<clus scale="   87.560">  7  8 -1 -1</clus>
<clus scale="   87.930">  1  5  2 -1</clus>
<clus scale="   36.257">  1  5  2 -1</clus>
</clustering>
</event>
<event>
 9    1  0.6270443E-005  0.1410183E+03  0.7546771E-02  0.1232134E+00
          1   -1    0    0  502    0 -0.00000000000E+00  0.00000000000E+00  0.41406580446E+03  0.41406580446E+03  0.00000000000E+00 0. -1.
         21   -1    0    0  501  502  0.00000000000E+00 -0.00000000000E+00 -0.99082443432E+02  0.99082443432E+02  0.00000000000E+00 0. -1.
        -24    2    1    2    0    0 -0.32708816912E+02  0.31811772031E+02  0.21178460343E+03  0.23109025619E+03  0.80424702130E+02 0.  0.
         23    2    1    2    0    0 -0.13687309813E+02 -0.11750294095E+03  0.14130328989E+02  0.15003995513E+03  0.91203280392E+02 0.  0.
         13    1    3    3    0    0 -0.58862336700E+02  0.27511458542E+02  0.13416503411E+03  0.14907015600E+03  0.00000000000E+00 0. -1.
        -14    1    3    3    0    0  0.26153519788E+02  0.43003134892E+01  0.77619569323E+02  0.82020100190E+02  0.00000000000E+00 0.  1.
        -11    1    4    4    0    0 -0.35432204884E+02 -0.32264614255E+02 -0.24665703212E+02  0.53896599066E+02  0.00000000000E+00 0.  1.
         11    1    4    4    0    0  0.21744895070E+02 -0.85238326700E+02  0.38796032201E+02  0.96143356061E+02  0.00000000000E+00 0. -1.
          2    1    1    2  501    0  0.46396126726E+02  0.85691168923E+02  0.89068428612E+02  0.13201803658E+03  0.00000000000E+00 0. -1.
<scales pt_clust_5="13000.00000" pt_clust_6="13000.00000" pt_clust_7="13000.00000" pt_clust_8="13000.00000" pt_clust_9="107.55532"></scales>
<clustering>
<clus scale="   80.425">  5  6 -1 -1</clus>
<clus scale="   91.203">  7  8 -1 -1</clus>
<clus scale="   92.466">  1  5  2 -1</clus>
<clus scale="  107.555">  2  9  1 -1</clus>
<clus scale="  107.555">  2  5  1 -1</clus>
</clustering>
</event>
<event>
 9    1  0.6270443E-005  0.2559066E+03  0.7546771E-02  0.1145415E+00
         21   -1    0    0  501  502  0.00000000000E+00  0.00000000000E+00  0.22585338387E+03  0.22585338387E+03  0.00000000000E+00 0. -1.
          1   -1    0    0  502    0 -0.00000000000E+00 -0.00000000000E+00 -0.57001951722E+03  0.57001951722E+03  0.00000000000E+00 0. -1.
         23    2    1    2    0    0 -0.11583719213E+02  0.50699977628E+02  0.52963372200E+02  0.11833414814E+03  0.92158458857E+02 0.  0.
        -24    2    1    2    0    0 -0.21514419064E+03 -0.11835599370E+03 -0.61270927208E+02  0.26670561619E+03  0.84158155710E+02 0.  0.
         11    1    4    4    0    0 -0.19227563396E+03 -0.11684850917E+03 -0.28613390906E+02  0.22680877331E+03  0.00000000000E+00 0. -1.
        -12    1    4    4    0    0 -0.22868556682E+02 -0.15074845289E+01 -0.32657536302E+02  0.39896842878E+02  0.00000000000E+00 0.  1.
        -11    1    3    3    0    0 -0.50113099868E+01  0.74265851306E+02  0.56719568516E+02  0.93582259807E+02  0.00000000000E+00 0. -1.
         11    1    3    3    0    0 -0.65724092259E+01 -0.23565873678E+02 -0.37561963162E+01  0.24751888332E+02  0.00000000000E+00 0.  1.
          2    1    1    2  501    0  0.22672790985E+03  0.67656016076E+02 -0.33585857834E+03  0.41083313676E+03  0.00000000000E+00 0. -1.
<scales pt_clust_5="13000.00000" pt_clust_6="13000.00000" pt_clust_7="13000.00000" pt_clust_8="13000.00000" pt_clust_9="241.67259"></scales>
<clustering>
<clus scale="   84.158">  5  6 -1 -1</clus>
<clus scale="   92.158">  7  8 -1 -1</clus>
<clus scale="  105.820">  2  7  1 -1</clus>
<clus scale="  241.673">  1  9  2 -1</clus>
<clus scale="  241.673">  1  5  2 -1</clus>
</clustering>
</event>
<event>
 9    1  0.6270443E-005  0.1182322E+03  0.7546771E-02  0.1249212E+00
          1   -1    0    0  502    0 -0.00000000000E+00  0.00000000000E+00  0.43189660631E+03  0.43189660631E+03  0.00000000000E+00 0. -1.
         21   -1    0    0  501  502  0.00000000000E+00 -0.00000000000E+00 -0.37728163089E+02  0.37728163089E+02  0.00000000000E+00 0. -1.
         23    2    1    2    0    0 -0.75643483418E+02  0.18749687600E+02  0.22502538055E+03  0.25505651449E+03  0.91345039961E+02 0.  0.
        -24    2    1    2    0    0  0.63146511961E+02 -0.36637000288E+02  0.13264172739E+03  0.17204205442E+03  0.81699993143E+02 0.  0.
         11    1    4    4    0    0  0.41514084008E+02 -0.37819965259E+02  0.23678950175E+02  0.60946383195E+02  0.00000000000E+00 0. -1.
        -12    1    4    4    0    0  0.21632427953E+02  0.11829649701E+01  0.10896277722E+03  0.11109567122E+03  0.00000000000E+00 0.  1.
        -11    1    3    3    0    0 -0.98050230900E+00 -0.22243722891E+02  0.10825853014E+03  0.11052444952E+03  0.00000000000E+00 0.  1.
         11    1    3    3    0    0 -0.74662981109E+02  0.40993410491E+02  0.11676685040E+03  0.14453206497E+03  0.00000000000E+00 0. -1.
          2    1    1    2  501    0  0.12496971457E+02  0.17887312688E+02  0.36501335277E+02  0.42526200486E+02  0.00000000000E+00 0. -1.
<scales pt_clust_5="13000.00000" pt_clust_6="13000.00000" pt_clust_7="13000.00000" pt_clust_8="13000.00000" pt_clust_9="21.82042"></scales>
<clustering>
<clus scale="   21.820">  2  9  1 -1</clus>
<clus scale="   81.700">  5  6 -1 -1</clus>
<clus scale="   91.345">  7  8 -1 -1</clus>
<clus scale="  110.950">  2  5  1 -1</clus>
<clus scale="   21.820">  2  5  1 -1</clus>
</clustering>
</event>
<event>
 9    1  0.6270443E-005  0.1750209E+03  0.7546771E-02  0.1173980E+00
         21   -1    0    0  501  502  0.00000000000E+00  0.00000000000E+00  0.92703209481E+02  0.92703209481E+02  0.00000000000E+00 0.  1.
          1   -1    0    0  502    0 -0.00000000000E+00 -0.00000000000E+00 -0.61011002912E+03  0.61011002912E+03  0.00000000000E+00 0. -1.
        -24    2    1    2    0    0 -0.10970199119E+03  0.76714136909E+02 -0.17875527693E+03  0.23687678635E+03  0.78978333784E+02 0.  0.
         23    2    1    2    0    0  0.15581943244E+03 -0.10077359408E+03 -0.11400781759E+03  0.23534920390E+03  0.89198949062E+02 0.  0.
         13    1    3    3    0    0 -0.24002601956E+02  0.31848037563E+02 -0.11320891518E+03  0.12002783375E+03  0.00000000000E+00 0. -1.
        -14    1    3    3    0    0 -0.85699389234E+02  0.44866099345E+02 -0.65546361751E+02  0.11684895260E+03  0.00000000000E+00 0.  1.
        -11    1    4    4    0    0  0.11632767150E+03 -0.11375529582E+03 -0.78372661133E+02  0.18059531693E+03  0.00000000000E+00 0.  1.
         11    1    4    4    0    0  0.39491760942E+02  0.12981701743E+02 -0.35635156454E+02  0.54753886967E+02  0.00000000000E+00 0. -1.
          2    1    1    2  501    0 -0.46117441254E+02  0.24059457171E+02 -0.22464372512E+03  0.23058724836E+03  0.00000000000E+00 0. -1.
<scales pt_clust_5="13000.00000" pt_clust_6="13000.00000" pt_clust_7="13000.00000" pt_clust_8="13000.00000" pt_clust_9="52.01614"></scales>
<clustering>
<clus scale="   52.016">  1  9  2 -1</clus>
<clus scale="   78.978">  5  6 -1 -1</clus>
<clus scale="   89.199">  7  8 -1 -1</clus>
<clus scale="  170.039">  2  5  1 -1</clus>
<clus scale="   52.016">  1  5  2 -1</clus>
</clustering>
</event>
<event>
 9    1  0.6270443E-005  0.4601870E+03  0.7546771E-02  0.1034067E+00
          1   -1    0    0  502    0 -0.00000000000E+00  0.00000000000E+00  0.73498547219E+03  0.73498547219E+03  0.00000000000E+00 0. -1.
         21   -1    0    0  501  502  0.00000000000E+00 -0.00000000000E+00 -0.10796872441E+04  0.10796872441E+04  0.00000000000E+00 0. -1.
        -24    2    1    2    0    0  0.46863472835E+02 -0.33592584673E+03  0.30042045576E+03  0.46024517357E+03  0.80813426872E+02 0.  0.
         23    2    1    2    0    0 -0.45876137697E+03  0.10895538066E+03  0.83099399304E+02  0.48754680474E+03  0.91995112261E+02 0.  0.
         13    1    3    3    0    0 -0.58632470104E+01 -0.21548047897E+03  0.20784813288E+03  0.29944458723E+03  0.00000000000E+00 0. -1.
        -14    1    3    3    0    0  0.52726719845E+02 -0.12044536777E+03  0.92572322884E+02  0.16080058634E+03  0.00000000000E+00 0.  1.
        -11    1    4    4    0    0 -0.13993750911E+03 -0.57490103670E+01  0.42094386754E+02  0.14624464084E+03  0.00000000000E+00 0.  1.
         11    1    4    4    0    0 -0.31882386785E+03  0.11470439103E+03  0.41005012550E+02  0.34130216391E+03  0.00000000000E+00 0. -1.
          2    1    1    2  501    0  0.41189790413E+03  0.22697046607E+03 -0.72822162701E+03  0.86688073802E+03  0.00000000000E+00 0. -1.
<scales pt_clust_5="13000.00000" pt_clust_6="13000.00000" pt_clust_7="13000.00000" pt_clust_8="13000.00000" pt_clust_9="450.89796"></scales>
<clustering>
<clus scale="   80.813">  5  6 -1 -1</clus>
<clus scale="   91.995">  7  8 -1 -1</clus>
<clus scale="  348.673">  1  5  2 -1</clus>
<clus scale="  450.898">  2  9  1 -1</clus>
<clus scale="  450.898">  2  5  1 -1</clus>
</clustering>
</event>
<event>
 9    1  0.6270443E-005  0.8828064E+02  0.7546771E-02  0.1307258E+00
         21   -1    0    0  501  502  0.00000000000E+00  0.00000000000E+00  0.30069430761E+02  0.30069430761E+02  0.00000000000E+00 0. -1.
          3   -1    0    0  502    0 -0.00000000000E+00 -0.00000000000E+00 -0.52992132208E+03  0.52992132208E+03  0.00000000000E+00 0. -1.
        -24    2    1    2    0    0  0.91024825061E+01 -0.32677860533E+02 -0.22758559393E+03  0.24327504271E+03  0.78973705026E+02 0.  0.
         23    2    1    2    0    0  0.47343174239E+02  0.46332913045E+02 -0.16353228394E+03  0.19344503923E+03  0.79309900592E+02 0.  0.
         13    1    3    3    0    0  0.37930103323E+02  0.46895266815E+01 -0.88481014945E+02  0.96382438257E+02  0.00000000000E+00 0. -1.
        -14    1    3    3    0    0 -0.28827620817E+02 -0.37367387215E+02 -0.13910457898E+03  0.14689260445E+03  0.00000000000E+00 0.  1.
        -13    1    4    4    0    0 -0.17933994727E+02  0.18743790462E+02 -0.78925262759E+02  0.83079208887E+02  0.00000000000E+00 0.  1.
         13    1    4    4    0    0  0.65277168966E+02  0.27589122583E+02 -0.84607021185E+02  0.11036583034E+03  0.00000000000E+00 0. -1.
          4    1    1    2  501    0 -0.56445656745E+02 -0.13655052511E+02 -0.10873401344E+03  0.12327067090E+03  0.00000000000E+00 0. -1.
<scales pt_clust_5="13000.00000" pt_clust_6="13000.00000" pt_clust_7="13000.00000" pt_clust_8="13000.00000" pt_clust_9="58.07385"></scales>
<clustering>
<clus scale="   58.074">  1  9  2 -1</clus>
<clus scale="   78.974">  5  6 -1 -1</clus>
<clus scale="   79.310">  7  8 -1 -1</clus>
<clus scale="   87.979">  2  5  1 -1</clus>
<clus scale="   58.074">  1  5  2 -1</clus>
</clustering>
</event>
<event>
 9    1  0.6270443E-005  0.2989776E+03  0.7546771E-02  0.1119927E+00
          1   -1    0    0  502    0 -0.00000000000E+00  0.00000000000E+00  0.13446962930E+04  0.13446962930E+04  0.00000000000E+00 0. -1.
         21   -1    0    0  501  502  0.00000000000E+00 -0.00000000000E+00 -0.10015053653E+03  0.10015053653E+03  0.00000000000E+00 0. -1.
        -24    2    1    2    0    0 -0.84748247789E+02  0.32762857526E+02  0.32190302533E+03  0.34486287289E+03  0.83983171229E+02 0.  0.
         23    2    1    2    0    0  0.57976847637E+02  0.26515628419E+03  0.56768817478E+03  0.63580160030E+03  0.91129804367E+02 0.  0.
         13    1    3    3    0    0 -0.91560504538E+02  0.13905916869E+02  0.18915628258E+03  0.21061054047E+03  0.00000000000E+00 0. -1.
        -14    1    3    3    0    0  0.68122567493E+01  0.18856940657E+02  0.13274674274E+03  0.13425233243E+03  0.00000000000E+00 0.  1.
        -11    1    4    4    0    0  0.59274341491E+02  0.78641203189E+02  0.16802155922E+03  0.19475402631E+03  0.00000000000E+00 0. -1.
         11    1    4    4    0    0 -0.12974938536E+01  0.18651508100E+03  0.39966661556E+03  0.44104757399E+03  0.00000000000E+00 0.  1.
          2    1    1    2  501    0  0.26771400152E+02 -0.29791914172E+03  0.35495455640E+03  0.46418235638E+03  0.00000000000E+00 0. -1.
<scales pt_clust_5="13000.00000" pt_clust_6="13000.00000" pt_clust_7="13000.00000" pt_clust_8="13000.00000" pt_clust_9="284.75074"></scales>
<clustering>
<clus scale="   83.983">  5  6 -1 -1</clus>
<clus scale="   91.130">  7  8 -1 -1</clus>
<clus scale="  123.729">  1  5  2 -1</clus>
<clus scale="  284.751">  2  9  1 -1</clus>
<clus scale="  284.751">  2  5  1 -1</clus>
</clustering>
</event>
<event>
 9    1  0.6270443E-005  0.9405192E+02  0.7546771E-02  0.1298951E+00
         21   -1    0    0  501  502  0.00000000000E+00  0.00000000000E+00  0.46331159378E+03  0.46331159378E+03  0.00000000000E+00 0.  1.
          1   -1    0    0  502    0 -0.00000000000E+00 -0.00000000000E+00 -0.36104740740E+02  0.36104740740E+02  0.00000000000E+00 0. -1.
         23    2    1    2    0    0  0.43029144274E+02  0.43429752658E+02  0.15422175365E+03  0.18740366954E+03  0.87167283914E+02 0.  0.
        -24    2    1    2    0    0 -0.11753481434E+02  0.98081206108E+01  0.20820026084E+03  0.22251677937E+03  0.77019639883E+02 0.  0.
         11    1    4    4    0    0 -0.28003473462E+02  0.30774827725E+02  0.67168323462E+02  0.79011823319E+02  0.00000000000E+00 0. -1.
        -12    1    4    4    0    0  0.16249992029E+02 -0.20966707114E+02  0.14103193738E+03  0.14350495605E+03  0.00000000000E+00 0.  1.
        -13    1    3    3    0    0  0.29352000613E+02 -0.23192117238E+02  0.42594570271E+02  0.56689608029E+02  0.00000000000E+00 0. -1.
         13    1    3    3    0    0  0.13677143661E+02  0.66621869896E+02  0.11162718338E+03  0.13071406151E+03  0.00000000000E+00 0.  1.
          2    1    1    2  501    0 -0.31275662841E+02 -0.53237873269E+02  0.64784838539E+02  0.89495885609E+02  0.00000000000E+00 0. -1.
<scales pt_clust_5="13000.00000" pt_clust_6="13000.00000" pt_clust_7="13000.00000" pt_clust_8="13000.00000" pt_clust_9="61.74498"></scales>
<clustering>
<clus scale="   61.745">  1  9  2 -1</clus>
<clus scale="   77.020">  5  6 -1 -1</clus>
<clus scale="   84.733">  1  5  2 -1</clus>
<clus scale="   87.167">  7  8 -1 -1</clus>
<clus scale="   61.745">  1  5  2 -1</clus>
</clustering>
</event>
<event>
 9    1  0.6270443E-005  0.9587227E+02  0.7546771E-02  0.1295433E+00
          3   -1    0    0  502    0 -0.00000000000E+00  0.00000000000E+00  0.33905789068E+03  0.33905789068E+03  0.00000000000E+00 0. -1.
         21   -1    0    0  501  502  0.00000000000E+00 -0.00000000000E+00 -0.62629384113E+02  0.62629384113E+02  0.00000000000E+00 0.  1.
         23    2    1    2    0    0  0.65213989510E+01 -0.27156345725E+02  0.22862358875E+03  0.24827045921E+03  0.92679446609E+02 0.  0.
        -24    2    1    2    0    0 -0.15204171916E+02  0.30298554430E+01 -0.15901989595E+02  0.84743326294E+02  0.81781484523E+02 0.  0.
         11    1    4    4    0    0  0.14771354277E+02  0.35858525738E+02 -0.71916857236E+01  0.39442960320E+02  0.00000000000E+00 0. -1.
        -12    1    4    4    0    0 -0.29975526193E+02 -0.32828670295E+02 -0.87103038713E+01  0.45300365974E+02  0.00000000000E+00 0.  1.
        -11    1    3    3    0    0 -0.30796043056E+02 -0.35192135573E+02  0.63913571825E+02  0.79194869388E+02  0.00000000000E+00 0.  1.
         11    1    3    3    0    0  0.37317442007E+02  0.80357898477E+01  0.16471001693E+03  0.16907558982E+03  0.00000000000E+00 0. -1.
          4    1    1    2  501    0  0.86827729649E+01  0.24126490282E+02  0.63706907407E+02  0.68673489288E+02  0.00000000000E+00 0. -1.
<scales pt_clust_5="13000.00000" pt_clust_6="13000.00000" pt_clust_7="13000.00000" pt_clust_8="13000.00000" pt_clust_9="25.64135"></scales>
<clustering>
<clus scale="   25.641">  2  9  1 -1</clus>
<clus scale="   81.781">  5  6 -1 -1</clus>
<clus scale="   85.383">  2  5  1 -1</clus>
<clus scale="   92.679">  7  8 -1 -1</clus>
<clus scale="   25.641">  2  5  1 -1</clus>
</clustering>
</event>
<event>
 9    1  0.6270443E-005  0.1350671E+03  0.7546771E-02  0.1236640E+00
          1   -1    0    0  502    0 -0.00000000000E+00  0.00000000000E+00  0.34849877480E+03  0.34849877480E+03  0.00000000000E+00 0. -1.
         21   -1    0    0  501  502  0.00000000000E+00 -0.00000000000E+00 -0.11753522767E+03  0.11753522767E+03  0.00000000000E+00 0. -1.
         23    2    1    2    0    0 -0.74723176767E+01  0.27082317504E+02  0.60302605170E+02  0.11332630136E+03  0.91745075824E+02 0.  0.
        -24    2    1    2    0    0  0.31397363679E+02  0.82915047761E+02  0.20294882775E+03  0.23559947867E+03  0.80362852573E+02 0.  0.
         13    1    4    4    0    0  0.39824776483E+02  0.52688006705E+02  0.19087244277E+03  0.20197605868E+03  0.00000000000E+00 0. -1.
        -14    1    4    4    0    0 -0.84274128043E+01  0.30227041056E+02  0.12076384984E+02  0.33623419990E+02  0.00000000000E+00 0.  1.
        -11    1    3    3    0    0  0.33473136657E+02 -0.35561386173E+01  0.51364221222E+02  0.61411564231E+02  0.00000000000E+00 0.  1.
         11    1    3    3    0    0 -0.40945454334E+02  0.30638456121E+02  0.89383839475E+01  0.51914737134E+02  0.00000000000E+00 0. -1.
          2    1    1    2  501    0 -0.23925046002E+02 -0.10999736527E+03 -0.32287885794E+02  0.11710822243E+03  0.00000000000E+00 0. -1.
<scales pt_clust_5="13000.00000" pt_clust_6="13000.00000" pt_clust_7="13000.00000" pt_clust_8="13000.00000" pt_clust_9="108.55838"></scales>
<clustering>
<clus scale="   80.363">  5  6 -1 -1</clus>
<clus scale="   91.745">  7  8 -1 -1</clus>
<clus scale="   95.950">  1  7  2 -1</clus>
<clus scale="  108.558">  2  9  1 -1</clus>
<clus scale="  108.558">  2  5  1 -1</clus>
</clustering>
</event>
<event>
 9    1  0.6270443E-005  0.1255374E+03  0.7546771E-02  0.1237689E+00
          3   -1    0    0  502    0 -0.00000000000E+00  0.00000000000E+00  0.34043765062E+03  0.34043765062E+03  0.00000000000E+00 0. -1.
         21   -1    0    0  501  502  0.00000000000E+00 -0.00000000000E+00 -0.18705471917E+03  0.18705471917E+03  0.00000000000E+00 0.  1.
         23    2    1    2    0    0  0.16448958513E+02  0.80757822751E+02  0.26110133142E+03  0.28850896691E+03  0.90945723082E+02 0.  0.
        -24    2    1    2    0    0  0.18921614854E+02 -0.12970153947E+03 -0.79693305444E+02  0.17241035435E+03  0.78700638526E+02 0.  0.
         13    1    4    4    0    0  0.25244409625E+02 -0.52521317652E+01 -0.26831893769E+01  0.25924208968E+02  0.00000000000E+00 0. -1.
        -14    1    4    4    0    0 -0.63227947705E+01 -0.12444940770E+03 -0.77010116067E+02  0.14648614538E+03  0.00000000000E+00 0.  1.
        -11    1    3    3    0    0  0.47428068998E+02  0.15852373156E+02  0.12364350600E+03  0.13337329583E+03  0.00000000000E+00 0.  1.
         11    1    3    3    0    0 -0.30979110485E+02  0.64905449596E+02  0.13745782542E+03  0.15513567109E+03  0.00000000000E+00 0. -1.
          4    1    1    2  501    0 -0.35370573367E+02  0.48943716719E+02 -0.28025094530E+02  0.66573048525E+02  0.00000000000E+00 0. -1.
<scales pt_clust_5="13000.00000" pt_clust_6="13000.00000" pt_clust_7="13000.00000" pt_clust_8="13000.00000" pt_clust_9="60.38679"></scales>
<clustering>
<clus scale="   60.387">  2  9  1 -1</clus>
<clus scale="   78.701">  5  6 -1 -1</clus>
<clus scale="   90.946">  7  8 -1 -1</clus>
<clus scale="  116.971">  2  5  1 -1</clus>
<clus scale="   60.387">  2  5  1 -1</clus>
</clustering>
</event>
<event>
 9    1  0.6270443E-005  0.1164418E+03  0.7546771E-02  0.1252707E+00
         21   -1    0    0  501  502  0.00000000000E+00  0.00000000000E+00  0.19930233593E+03  0.19930233593E+03  0.00000000000E+00 0.  1.
          1   -1    0    0  502    0 -0.00000000000E+00 -0.00000000000E+00 -0.18161388773E+03  0.18161388773E+03  0.00000000000E+00 0. -1.
         23    2    1    2    0    0  0.63549197233E+02 -0.26542142975E+02 -0.12370391151E+03  0.16840247147E+03  0.91179761191E+02 0.  0.
        -24    2    1    2    0    0 -0.77524049680E+02  0.47760304270E+02  0.78585156900E+02  0.14476235666E+03  0.80557358935E+02 0.  0.
         13    1    4    4    0    0 -0.65175210776E+02  0.34561970218E+01  0.16184731020E+02  0.67243578993E+02  0.00000000000E+00 0. -1.
        -14    1    4    4    0    0 -0.12348838904E+02  0.44304107248E+02  0.62400425880E+02  0.77518777669E+02  0.00000000000E+00 0.  1.
        -13    1    3    3    0    0  0.45532524945E+02  0.30261213909E+02 -0.59759455107E+02  0.80994718160E+02  0.00000000000E+00 0.  1.
         13    1    3    3    0    0  0.18016672288E+02 -0.56803356884E+02 -0.63944456406E+02  0.87407753310E+02  0.00000000000E+00 0. -1.
          2    1    1    2  501    0  0.13974852448E+02 -0.21218161295E+02  0.62807202819E+02  0.67751395526E+02  0.00000000000E+00 0. -1.
<scales pt_clust_5="13000.00000" pt_clust_6="13000.00000" pt_clust_7="13000.00000" pt_clust_8="13000.00000" pt_clust_9="25.40683"></scales>
<clustering>
<clus scale="   25.407">  1  9  2 -1</clus>
<clus scale="   80.557">  5  6 -1 -1</clus>
<clus scale="   91.180">  7  8 -1 -1</clus>
<clus scale="  108.326">  1  5  2 -1</clus>
<clus scale="   25.407">  1  5  2 -1</clus>
</clustering>
</event>
<event>
 9    1  0.6270443E-005  0.1085255E+03  0.7546771E-02  0.1264617E+00
          1   -1    0    0  502    0 -0.00000000000E+00  0.00000000000E+00  0.15355450491E+04  0.15355450491E+04  0.00000000000E+00 0. -1.
         21   -1    0    0  501  502  0.00000000000E+00 -0.00000000000E+00 -0.10541635877E+02  0.10541635877E+02  0.00000000000E+00 0. -1.
        -24    2    1    2    0    0  0.72665134371E+02 -0.33555253417E+02  0.84635530231E+03  0.85402285853E+03  0.81434442058E+02 0.  0.
         23    2    1    2    0    0 -0.39218368966E+02  0.31919151398E+02  0.43251904336E+03  0.44366720642E+03  0.84917339197E+02 0.  0.
         11    1    3    3    0    0  0.33365647761E+02  0.26310270907E+01  0.94133773169E+02  0.99906736536E+02  0.00000000000E+00 0. -1.
        -12    1    3    3    0    0  0.39299486610E+02 -0.36186280508E+02  0.75222152914E+03  0.75411612199E+03  0.00000000000E+00 0.  1.
        -11    1    4    4    0    0  0.88346751190E+01 -0.22811217857E+02  0.14606406039E+03  0.14809832167E+03  0.00000000000E+00 0.  1.
         11    1    4    4    0    0 -0.48053044085E+02  0.54730369256E+02  0.28645498297E+03  0.29556888475E+03  0.00000000000E+00 0. -1.
          2    1    1    2  501    0 -0.33446765405E+02  0.16361020191E+01  0.24612906758E+03  0.24839662005E+03  0.00000000000E+00 0. -1.
<scales pt_clust_5="13000.00000" pt_clust_6="13000.00000" pt_clust_7="13000.00000" pt_clust_8="13000.00000" pt_clust_9="33.48677"></scales>
<clustering>
<clus scale="   33.487">  2  9  1 -1</clus>
<clus scale="   81.434">  5  6 -1 -1</clus>
<clus scale="   84.917">  7  8 -1 -1</clus>
<clus scale="  105.822">  1  5  2 -1</clus>
<clus scale="   33.487">  2  5  1 -1</clus>
</clustering>
</event>
<event>
 9    1  0.6270443E-005  0.8660333E+02  0.7546771E-02  0.1315155E+00
         21   -1    0    0  501  502  0.00000000000E+00  0.00000000000E+00  0.63354701984E+02  0.63354701984E+02  0.00000000000E+00 0.  1.
          1   -1    0    0  502    0 -0.00000000000E+00 -0.00000000000E+00 -0.22923968514E+03  0.22923968514E+03  0.00000000000E+00 0. -1.
         23    2    1    2    0    0 -0.20747426110E+01 -0.29728864074E+01 -0.13185773233E+03  0.15753089015E+03  0.86118390416E+02 0.  0.
        -24    2    1    2    0    0  0.32248186295E+02 -0.15340344569E+02 -0.27095162632E+01  0.87876511150E+02  0.80247542285E+02 0.  0.
         11    1    4    4    0    0  0.21668292863E+02 -0.37568315419E+01 -0.40984123818E+02  0.46511580321E+02  0.00000000000E+00 0. -1.
        -12    1    4    4    0    0  0.10579893432E+02 -0.11583513027E+02  0.38274607554E+02  0.41364930830E+02  0.00000000000E+00 0.  1.
        -11    1    3    3    0    0 -0.21158343165E+02  0.36432656421E+02 -0.71016154245E+02  0.82573047074E+02  0.00000000000E+00 0.  1.
         11    1    3    3    0    0  0.19083600554E+02 -0.39405542828E+02 -0.60841578081E+02  0.74957843079E+02  0.00000000000E+00 0. -1.
          2    1    1    2  501    0 -0.30173443684E+02  0.18313230976E+02 -0.31317734572E+02  0.47186985825E+02  0.00000000000E+00 0. -1.
<scales pt_clust_5="13000.00000" pt_clust_6="13000.00000" pt_clust_7="13000.00000" pt_clust_8="13000.00000" pt_clust_9="35.29607"></scales>
<clustering>
<clus scale="   35.296">  1  9  2 -1</clus>
<clus scale="   80.248">  5  6 -1 -1</clus>
<clus scale="   80.768">  1  5  2 -1</clus>
<clus scale="   86.118">  7  8 -1 -1</clus>
<clus scale="   35.296">  1  5  2 -1</clus>
</clustering>
</event>
<event>
 9    1  0.6270443E-005  0.1151979E+03  0.7546771E-02  0.1254867E+00
         21   -1    0    0  501  502  0.00000000000E+00  0.00000000000E+00  0.33488624686E+03  0.33488624686E+03  0.00000000000E+00 0.  1.
         -2   -1    0    0    0  501 -0.00000000000E+00 -0.00000000000E+00 -0.74228107616E+02  0.74228107616E+02  0.00000000000E+00 0.  1.
         23    2    1    2    0    0 -0.38120728659E+02 -0.77412081855E+02  0.12131971511E+03  0.17434462576E+03  0.90729018985E+02 0.  0.
        -24    2    1    2    0    0  0.62146180248E+02  0.22116690543E+02  0.14015118275E+03  0.17447492627E+03  0.80298506536E+02 0.  0.
         11    1    4    4    0    0  0.21192136243E+02 -0.18028257599E+02  0.10167967249E+03  0.10541764800E+03  0.00000000000E+00 0. -1.
        -12    1    4    4    0    0  0.40954044006E+02  0.40144948142E+02  0.38471510258E+02  0.69057278279E+02  0.00000000000E+00 0.  1.
        -13    1    3    3    0    0 -0.54106719478E+02 -0.46037105110E+02  0.31202694765E+02  0.77592269591E+02  0.00000000000E+00 0.  1.
         13    1    3    3    0    0  0.15985990819E+02 -0.31374976745E+02  0.90117020346E+02  0.96752356169E+02  0.00000000000E+00 0. -1.
         -1    1    1    2    0  502 -0.24025451589E+02  0.55295391312E+02 -0.81275862224E+00  0.60294802438E+02  0.00000000000E+00 0.  1.
<scales pt_clust_5="13000.00000" pt_clust_6="13000.00000" pt_clust_7="13000.00000" pt_clust_8="13000.00000" pt_clust_9="60.28935"></scales>
<clustering>
<clus scale="   60.289">  1  9  2 -1</clus>
<clus scale="   80.299">  5  6 -1 -1</clus>
<clus scale="   90.729">  7  8 -1 -1</clus>
<clus scale="  107.176">  1  5  2 -1</clus>
<clus scale="   60.289">  1  5  2 -1</clus>
</clustering>
</event>
<event>
 9    1  0.6270443E-005  0.1382867E+03  0.7546771E-02  0.1217716E+00
         -4   -1    0    0    0  501 -0.00000000000E+00  0.00000000000E+00  0.58352693812E+03  0.58352693812E+03  0.00000000000E+00 0.  1.
         21   -1    0    0  501  502  0.00000000000E+00 -0.00000000000E+00 -0.63670993601E+02  0.63670993601E+02  0.00000000000E+00 0.  1.
         23    2    1    2    0    0 -0.92762526624E+02  0.70603044411E+02  0.44349028710E+03  0.46749159518E+03  0.90967469922E+02 0.  0.
        -24    2    1    2    0    0  0.47023758531E+02 -0.42165468046E+02  0.27274771890E+02  0.10683215937E+03  0.81731490459E+02 0.  0.
         11    1    4    4    0    0 -0.19024406899E+02 -0.26056739223E+02  0.21139908078E+02  0.38571718011E+02  0.00000000000E+00 0. -1.
        -12    1    4    4    0    0  0.66048165429E+02 -0.16108728823E+02  0.61348638116E+01  0.68260441361E+02  0.00000000000E+00 0.  1.
        -11    1    3    3    0    0 -0.74613733628E+02  0.79228218775E+00  0.25413316564E+03  0.26486128980E+03  0.00000000000E+00 0.  1.
         11    1    3    3    0    0 -0.18148792995E+02  0.69810762223E+02  0.18935712147E+03  0.20263030538E+03  0.00000000000E+00 0. -1.
         -3    1    1    2    0  502  0.45738768093E+02 -0.28437576365E+02  0.49090885526E+02  0.72874177168E+02  0.00000000000E+00 0.  1.
<scales pt_clust_5="13000.00000" pt_clust_6="13000.00000" pt_clust_7="13000.00000" pt_clust_8="13000.00000" pt_clust_9="53.85843"></scales>
<clustering>
<clus scale="   53.858">  2  9  1 -1</clus>
<clus scale="   81.731">  5  6 -1 -1</clus>
<clus scale="   90.967">  7  8 -1 -1</clus>
<clus scale="  132.394">  2  5  1 -1</clus>
<clus scale="   53.858">  2  5  1 -1</clus>
</clustering>
</event>
<event>
 9    1  0.6270443E-005  0.1838179E+03  0.7546771E-02  0.1165512E+00
         21   -1    0    0  501  502  0.00000000000E+00  0.00000000000E+00  0.11521099707E+03  0.11521099707E+03  0.00000000000E+00 0.  1.
         -2   -1    0    0    0  501 -0.00000000000E+00 -0.00000000000E+00 -0.10802366843E+04  0.10802366843E+04  0.00000000000E+00 0.  1.
        -24    2    1    2    0    0  0.12232423430E+03 -0.10871127578E+03 -0.70115105307E+03  0.72457848289E+03  0.81362269247E+02 0.  0.
         23    2    1    2    0    0 -0.12399510532E+03  0.84357842915E+02 -0.34425164437E+03  0.38686714328E+03  0.93091138619E+02 0.  0.
         11    1    3    3    0    0  0.99441590812E+00 -0.33371032076E+02 -0.71169885933E+02  0.78611496033E+02  0.00000000000E+00 0. -1.
        -12    1    3    3    0    0  0.12132981840E+03 -0.75340243701E+02 -0.62998116714E+03  0.64596698685E+03  0.00000000000E+00 0.  1.
        -11    1    4    4    0    0 -0.10624413592E+03  0.34908978060E+02 -0.15956075457E+03  0.19484888392E+03  0.00000000000E+00 0. -1.
         11    1    4    4    0    0 -0.17750969401E+02  0.49448864855E+02 -0.18469088980E+03  0.19201825936E+03  0.00000000000E+00 0.  1.
         -1    1    1    2    0  502  0.16708710125E+01  0.24353432863E+02  0.80377010229E+02  0.84002055186E+02  0.00000000000E+00 0.  1.
<scales pt_clust_5="13000.00000" pt_clust_6="13000.00000" pt_clust_7="13000.00000" pt_clust_8="13000.00000" pt_clust_9="24.41068"></scales>
<clustering>
<clus scale="   24.411">  1  9  2 -1</clus>
<clus scale="   81.362">  5  6 -1 -1</clus>
<clus scale="   93.091">  7  8 -1 -1</clus>
<clus scale="  178.165">  2  5  1 -1</clus>
<clus scale="   24.411">  1  5  2 -1</clus>
</clustering>
</event>
<event>
 9    1  0.6270443E-005  0.1107885E+03  0.7546771E-02  0.1260288E+00
         -2   -1    0    0    0  501 -0.00000000000E+00  0.00000000000E+00  0.38580660588E+03  0.38580660588E+03  0.00000000000E+00 0.  1.
         21   -1    0    0  501  502  0.00000000000E+00 -0.00000000000E+00 -0.53297760097E+02  0.53297760097E+02  0.00000000000E+00 0. -1.
        -24    2    1    2    0    0 -0.67337486997E+02 -0.41070834548E+02  0.28032610892E+03  0.30302645967E+03  0.83792346380E+02 0.  0.
         23    2    1    2    0    0  0.39266060494E+02  0.38353528481E+02  0.38164935856E+02  0.10458366107E+03  0.80426134934E+02 0.  0.
         11    1    3    3    0    0 -0.15673779400E+02  0.25860890718E+02  0.83545376306E+02  0.88849777329E+02  0.00000000000E+00 0. -1.
        -12    1    3    3    0    0 -0.51663707597E+02 -0.66931725266E+02  0.19678073261E+03  0.21417668234E+03  0.00000000000E+00 0.  1.
        -13    1    4    4    0    0  0.43328238520E+02 -0.88415393402E+01  0.36241975395E+02  0.57175080688E+02  0.00000000000E+00 0.  1.
         13    1    4    4    0    0 -0.40621780257E+01  0.47195067821E+02  0.19229604608E+01  0.47408580383E+02  0.00000000000E+00 0. -1.
         -1    1    1    2    0  502  0.28071426502E+02  0.27173060663E+01  0.14017801012E+02  0.31494245242E+02  0.00000000000E+00 0.  1.
<scales pt_clust_5="13000.00000" pt_clust_6="13000.00000" pt_clust_7="13000.00000" pt_clust_8="13000.00000" pt_clust_9="28.20264"></scales>
<clustering>
<clus scale="   28.203">  2  9  1 -1</clus>
<clus scale="   80.426">  7  8 -1 -1</clus>
<clus scale="   83.792">  5  6 -1 -1</clus>
<clus scale="  108.265">  2  7  1 -1</clus>
<clus scale="   28.203">  2  5  1 -1</clus>
</clustering>
</event>
<event>
 9    1  0.6270443E-005  0.1186377E+03  0.7546771E-02  0.1249298E+00
         21   -1    0    0  501  502  0.00000000000E+00  0.00000000000E+00  0.38850305934E+02  0.38850305934E+02  0.00000000000E+00 0.  1.
          1   -1    0    0  502    0 -0.00000000000E+00 -0.00000000000E+00 -0.66168104731E+03  0.66168104731E+03  0.00000000000E+00 0. -1.
        -24    2    1    2    0    0 -0.61310414827E+02 -0.27616684919E+02 -0.41852109246E+03  0.43141943453E+03  0.80256933721E+02 0.  0.
         23    2    1    2    0    0  0.90228239664E+02  0.42800046499E+02 -0.18962846067E+03  0.23330252957E+03  0.92185345883E+02 0.  0.
         13    1    3    3    0    0 -0.43965588736E+02 -0.47390906455E+02 -0.17636501781E+03  0.18783900158E+03  0.00000000000E+00 0. -1.
        -14    1    3    3    0    0 -0.17344826091E+02  0.19774221536E+02 -0.24215607465E+03  0.24358043296E+03  0.00000000000E+00 0.  1.
        -11    1    4    4    0    0  0.73608825699E+02 -0.22916067403E+01 -0.16179550955E+03  0.17776753808E+03  0.00000000000E+00 0.  1.
         11    1    4    4    0    0  0.16619413965E+02  0.45091653239E+02 -0.27832951112E+02  0.55534991492E+02  0.00000000000E+00 0. -1.
          2    1    1    2  501    0 -0.28917824837E+02 -0.15183361580E+02 -0.14681188255E+02  0.35809389142E+02  0.00000000000E+00 0. -1.
<scales pt_clust_5="13000.00000" pt_clust_6="13000.00000" pt_clust_7="13000.00000" pt_clust_8="13000.00000" pt_clust_9="32.66152"></scales>
<clustering>
<clus scale="   32.662">  1  9  2 -1</clus>
<clus scale="   80.257">  5  6 -1 -1</clus>
<clus scale="   92.185">  7  8 -1 -1</clus>
<clus scale="  109.626">  2  5  1 -1</clus>
<clus scale="   32.662">  1  5  2 -1</clus>
</clustering>
</event>
<event>
 9    1  0.6270443E-005  0.1839924E+03  0.7546771E-02  0.1185413E+00
         21   -1    0    0  501  502  0.00000000000E+00  0.00000000000E+00  0.33779149743E+02  0.33779149743E+02  0.00000000000E+00 0. -1.
          1   -1    0    0  502    0 -0.00000000000E+00 -0.00000000000E+00 -0.16625296941E+04  0.16625296941E+04  0.00000000000E+00 0. -1.
         23    2    1    2    0    0 -0.65232582551E+02  0.30419129163E+02 -0.48748353262E+03  0.50044857058E+03  0.87338216009E+02 0.  0.
        -24    2    1    2    0    0  0.44886490447E+02  0.14599622242E+03 -0.66926370673E+03  0.69155534599E+03  0.83697033603E+02 0.  0.
         13    1    4    4    0    0  0.50417989084E+02  0.12529937426E+03 -0.64584293347E+03  0.65981436899E+03  0.00000000000E+00 0. -1.
        -14    1    4    4    0    0 -0.55314986365E+01  0.20696848156E+02 -0.23420773266E+02  0.31740977004E+02  0.00000000000E+00 0.  1.
        -13    1    3    3    0    0 -0.20394050816E+02  0.53183651845E+02 -0.33714859699E+03  0.34192629994E+03  0.00000000000E+00 0.  1.
         13    1    3    3    0    0 -0.44838531735E+02 -0.22764522682E+02 -0.15033493562E+03  0.15852227064E+03  0.00000000000E+00 0. -1.
          2    1    1    2  501    0  0.20346092104E+02 -0.17641535158E+03 -0.47200330505E+03  0.50430492732E+03  0.00000000000E+00 0. -1.
<scales pt_clust_5="13000.00000" pt_clust_6="13000.00000" pt_clust_7="13000.00000" pt_clust_8="13000.00000" pt_clust_9="163.85363"></scales>
<clustering>
<clus scale="   83.697">  5  6 -1 -1</clus>
<clus scale="   87.338">  7  8 -1 -1</clus>
<clus scale="  113.175">  2  7  1 -1</clus>
<clus scale="  163.854">  1  9  2 -1</clus>
<clus scale="  163.854">  1  5  2 -1</clus>
</clustering>
</event>
<event>
 9    1  0.6270443E-005  0.1011781E+03  0.7546771E-02  0.1284051E+00
         -2   -1    0    0    0  501 -0.00000000000E+00  0.00000000000E+00  0.11988267365E+03  0.11988267365E+03  0.00000000000E+00 0.  1.
         21   -1    0    0  501  502  0.00000000000E+00 -0.00000000000E+00 -0.10793549455E+03  0.10793549455E+03  0.00000000000E+00 0.  1.
        -24    2    1    2    0    0  0.24111066649E+02 -0.28840166944E+02  0.38399459925E+02  0.96021880737E+02  0.79577536362E+02 0.  0.
         23    2    1    2    0    0 -0.21975999177E+02  0.48924622727E+02 -0.31164911524E+02  0.11105616293E+03  0.92117622453E+02 0.  0.
         13    1    3    3    0    0 -0.26190858566E+02 -0.26825971996E+02  0.19404752900E+02  0.42215379674E+02  0.00000000000E+00 0. -1.
        -14    1    3    3    0    0  0.50301925215E+02 -0.20141949475E+01  0.18994707026E+02  0.53806501062E+02  0.00000000000E+00 0.  1.
        -13    1    4    4    0    0 -0.41935892525E+02  0.46897938559E+02  0.11457806257E+02  0.63947768117E+02  0.00000000000E+00 0.  1.
         13    1    4    4    0    0  0.19959893347E+02  0.20266841681E+01 -0.42622717781E+02  0.47108394817E+02  0.00000000000E+00 0. -1.
         -1    1    1    2    0  502 -0.21350674720E+01 -0.20084455783E+02  0.47126306991E+01  0.20740124525E+02  0.00000000000E+00 0.  1.
<scales pt_clust_5="13000.00000" pt_clust_6="13000.00000" pt_clust_7="13000.00000" pt_clust_8="13000.00000" pt_clust_9="20.19763"></scales>
<clustering>
<clus scale="   20.198">  2  9  1 -1</clus>
<clus scale="   79.578">  5  6 -1 -1</clus>
<clus scale="   89.911">  1  5  2 -1</clus>
<clus scale="   92.118">  7  8 -1 -1</clus>
<clus scale="   20.198">  2  5  1 -1</clus>
</clustering>
</event>
<event>
 9    1  0.6270443E-005  0.1091563E+03  0.7546771E-02  0.1267366E+00
         21   -1    0    0  501  502  0.00000000000E+00  0.00000000000E+00  0.59620804640E+02  0.59620804640E+02  0.00000000000E+00 0. -1.
          1   -1    0    0  502    0 -0.00000000000E+00 -0.00000000000E+00 -0.47850610055E+03  0.47850610055E+03  0.00000000000E+00 0. -1.
        -24    2    1    2    0    0  0.16916018033E+01 -0.60555093604E+02 -0.29244775106E+03  0.30968438931E+03  0.81908198642E+02 0.  0.
         23    2    1    2    0    0 -0.99320752508E+01  0.22548015017E+02 -0.14523732138E+01  0.97546616194E+02  0.94372526950E+02 0.  0.
         11    1    3    3    0    0 -0.93044256130E+01 -0.72893391370E+02 -0.27858241249E+03  0.28811140101E+03  0.00000000000E+00 0. -1.
        -12    1    3    3    0    0  0.10996027416E+02  0.12338297766E+02 -0.13865338570E+02  0.21572988304E+02  0.00000000000E+00 0.  1.
        -13    1    4    4    0    0 -0.69704360611E+01 -0.28274068309E+02 -0.27769102888E+02  0.40238451671E+02  0.00000000000E+00 0.  1.
         13    1    4    4    0    0 -0.29616391898E+01  0.50822083326E+02  0.26316729675E+02  0.57308164524E+02  0.00000000000E+00 0. -1.
          2    1    1    2  501    0  0.82404734475E+01  0.38007078587E+02 -0.12498517163E+03  0.13089589968E+03  0.00000000000E+00 0. -1.
<scales pt_clust_5="13000.00000" pt_clust_6="13000.00000" pt_clust_7="13000.00000" pt_clust_8="13000.00000" pt_clust_9="38.89017"></scales>
<clustering>
<clus scale="   38.890">  1  9  2 -1</clus>
<clus scale="   81.908">  5  6 -1 -1</clus>
<clus scale="   94.373">  7  8 -1 -1</clus>
<clus scale="   98.579">  2  5  1 -1</clus>
<clus scale="   38.890">  1  5  2 -1</clus>
</clustering>
</event>
<event>
 9    1  0.9979119E-005  0.1074387E+03  0.7546771E-02  0.1266213E+00
         -2   -1    0    0    0  501 -0.00000000000E+00  0.00000000000E+00  0.13944992455E+03  0.13944992455E+03  0.00000000000E+00 0.  1.
         21   -1    0    0  501  502  0.00000000000E+00 -0.00000000000E+00 -0.26929965930E+03  0.26929965930E+03  0.00000000000E+00 0. -1.
         23    2    1    2    0    0  0.33539400748E+02 -0.53611494760E+02  0.84035270535E+01  0.10307490338E+03  0.80961303516E+02 0.  0.
        -24    2    1    2    0    0 -0.11388645929E+03  0.37755751416E+02 -0.16580895239E+03  0.21926651826E+03  0.78673851832E+02 0.  0.
         11    1    4    4    0    0 -0.92294875293E+02  0.36261040624E+02 -0.17038929203E+03  0.19714390153E+03  0.00000000000E+00 0. -1.
        -12    1    4    4    0    0 -0.21591583996E+02  0.14947107922E+01  0.45803396364E+01  0.22122616730E+02  0.00000000000E+00 0.  1.
        -11    1    3    3    0    0 -0.16118411365E+02 -0.27776105517E+02  0.29156426311E+02  0.43375251214E+02  0.00000000000E+00 0.  1.
         11    1    3    3    0    0  0.49657812113E+02 -0.25835389243E+02 -0.20752899257E+02  0.59699652167E+02  0.00000000000E+00 0. -1.
         -1    1    1    2    0  502  0.80347058541E+02  0.15855743344E+02  0.27555690591E+02  0.86408162213E+02  0.00000000000E+00 0.  1.
<scales pt_clust_5="13000.00000" pt_clust_6="13000.00000" pt_clust_7="13000.00000" pt_clust_8="13000.00000" pt_clust_9="81.89665"></scales>
<clustering>
<clus scale="   78.674">  5  6 -1 -1</clus>
<clus scale="   80.961">  7  8 -1 -1</clus>
<clus scale="   81.897">  2  9  1 -1</clus>
<clus scale="  105.726">  2  5  1 -1</clus>
<clus scale="   81.897">  2  5  1 -1</clus>
</clustering>
</event>
<event>
 9    1  0.6270443E-005  0.1342255E+03  0.7546771E-02  0.1223902E+00
          3   -1    0    0  502    0 -0.00000000000E+00  0.00000000000E+00  0.24695036131E+03  0.24695036131E+03  0.00000000000E+00 0. -1.
         21   -1    0    0  501  502  0.00000000000E+00 -0.00000000000E+00 -0.10158428781E+03  0.10158428781E+03  0.00000000000E+00 0.  1.
         23    2    1    2    0    0  0.10222545125E+03 -0.12540768990E+02  0.14523752072E+03  0.19995594451E+03  0.91000706308E+02 0.  0.
        -24    2    1    2    0    0 -0.84698981902E+02  0.33301615762E+02 -0.18921225899E+01  0.12133401677E+03  0.80221246243E+02 0.  0.
         13    1    4    4    0    0 -0.50376294684E+02 -0.22462567493E+02 -0.72636172536E+01  0.55633606212E+02  0.00000000000E+00 0. -1.
        -14    1    4    4    0    0 -0.34322687218E+02  0.55764183255E+02  0.53714946637E+01  0.65700410554E+02  0.00000000000E+00 0.  1.
        -11    1    3    3    0    0  0.10235455353E+03 -0.34238991350E+02  0.89728371152E+02  0.14035648808E+03  0.00000000000E+00 0.  1.
         11    1    3    3    0    0 -0.12910227297E+00  0.21698222360E+02  0.55509149568E+02  0.59599456429E+02  0.00000000000E+00 0. -1.
          4    1    1    2  501    0 -0.17526469350E+02 -0.20760846772E+02  0.20206753689E+01  0.27244687840E+02  0.00000000000E+00 0. -1.
<scales pt_clust_5="13000.00000" pt_clust_6="13000.00000" pt_clust_7="13000.00000" pt_clust_8="13000.00000" pt_clust_9="27.16965"></scales>
<clustering>
<clus scale="   27.170">  2  9  1 -1</clus>
<clus scale="   80.221">  5  6 -1 -1</clus>
<clus scale="   91.001">  7  8 -1 -1</clus>
<clus scale="  127.164">  2  5  1 -1</clus>
<clus scale="   27.170">  2  5  1 -1</clus>
</clustering>
</event>
<event>
 9    1  0.6270443E-005  0.1683209E+03  0.7546771E-02  0.1208463E+00
          1   -1    0    0  502    0 -0.00000000000E+00  0.00000000000E+00  0.69122951409E+03  0.69122951409E+03  0.00000000000E+00 0. -1.
         21   -1    0    0  501  502  0.00000000000E+00 -0.00000000000E+00 -0.76155965201E+02  0.76155965201E+02  0.00000000000E+00 0. -1.
        -24    2    1    2    0    0  0.38650026865E+02  0.62180421420E+00  0.28439682362E+03  0.29810609293E+03  0.80569709840E+02 0.  0.
         23    2    1    2    0    0 -0.69184075795E+02  0.13207717019E+03  0.26361881339E+03  0.31749628619E+03  0.95279576745E+02 0.  0.
         11    1    3    3    0    0 -0.21424964833E+02 -0.12830226570E+02  0.11975149598E+03  0.12232769360E+03  0.00000000000E+00 0. -1.
        -12    1    3    3    0    0  0.60074991698E+02  0.13452030784E+02  0.16464532763E+03  0.17577839933E+03  0.00000000000E+00 0.  1.
        -11    1    4    4    0    0 -0.25476576966E+02 -0.73302638797E+01  0.19167907994E+02  0.32713872276E+02  0.00000000000E+00 0.  1.
         11    1    4    4    0    0 -0.43707498829E+02  0.13940743407E+03  0.24445090540E+03  0.28478241391E+03  0.00000000000E+00 0. -1.
          2    1    1    2  501    0  0.30534048930E+02 -0.13269897440E+03  0.67057911887E+02  0.15178310017E+03  0.00000000000E+00 0. -1.
<scales pt_clust_5="13000.00000" pt_clust_6="13000.00000" pt_clust_7="13000.00000" pt_clust_8="13000.00000" pt_clust_9="138.75777"></scales>
<clustering>
<clus scale="   80.570">  5  6 -1 -1</clus>
<clus scale="   89.363">  1  5  2 -1</clus>
<clus scale="   95.280">  7  8 -1 -1</clus>
<clus scale="  138.758">  2  9  1 -1</clus>
<clus scale="  138.758">  2  5  1 -1</clus>
</clustering>
</event>
<event>
 9    1  0.6270443E-005  0.1197378E+03  0.7546771E-02  0.1247577E+00
         21   -1    0    0  501  502  0.00000000000E+00  0.00000000000E+00  0.68456945516E+02  0.68456945516E+02  0.00000000000E+00 0. -1.
          1   -1    0    0  502    0 -0.00000000000E+00 -0.00000000000E+00 -0.34181447786E+03  0.34181447786E+03  0.00000000000E+00 0. -1.
        -24    2    1    2    0    0  0.51093201978E+00 -0.82399549759E+02 -0.22343631048E+03  0.25110442487E+03  0.79622236210E+02 0.  0.
         23    2    1    2    0    0 -0.23685017736E+02  0.55379402356E+02 -0.18417911836E+02  0.11163190455E+03  0.92166177994E+02 0.  0.
         11    1    3    3    0    0 -0.15523560533E+02 -0.90339231656E+02 -0.15233806532E+03  0.17778932435E+03  0.00000000000E+00 0. -1.
        -12    1    3    3    0    0  0.16034492553E+02  0.79396818970E+01 -0.71098245157E+02  0.73315100521E+02  0.00000000000E+00 0.  1.
        -13    1    4    4    0    0 -0.22584623216E+01  0.74802264645E+02  0.41461174442E+01  0.74951115655E+02  0.00000000000E+00 0. -1.
         13    1    4    4    0    0 -0.21426555414E+02 -0.19422862289E+02 -0.22564029280E+02  0.36680788892E+02  0.00000000000E+00 0.  1.
          2    1    1    2  501    0  0.23174085716E+02  0.27020147403E+02 -0.31503310033E+02  0.47535093957E+02  0.00000000000E+00 0. -1.
<scales pt_clust_5="13000.00000" pt_clust_6="13000.00000" pt_clust_7="13000.00000" pt_clust_8="13000.00000" pt_clust_9="35.59672"></scales>
<clustering>
<clus scale="   35.597">  1  9  2 -1</clus>
<clus scale="   79.622">  5  6 -1 -1</clus>
<clus scale="   92.166">  7  8 -1 -1</clus>
<clus scale="  110.373">  2  5  1 -1</clus>
<clus scale="   35.597">  1  5  2 -1</clus>
</clustering>
</event>
<event>
 9    1  0.6270443E-005  0.1288042E+03  0.7546771E-02  0.1230758E+00
         21   -1    0    0  501  502  0.00000000000E+00  0.00000000000E+00  0.58738271653E+02  0.58738271653E+02  0.00000000000E+00 0. -1.
          1   -1    0    0  502    0 -0.00000000000E+00 -0.00000000000E+00 -0.70256197782E+03  0.70256197782E+03  0.00000000000E+00 0. -1.
        -24    2    1    2    0    0 -0.59025257675E+02 -0.80311308842E+02 -0.49558414584E+03  0.51278451421E+03  0.86083825632E+02 0.  0.
         23    2    1    2    0    0  0.47809155309E+02  0.53333078863E+02 -0.17414868772E+03  0.20946565553E+03  0.91749456562E+02 0.  0.
         13    1    3    3    0    0 -0.43061508831E+02  0.59101981353E+01 -0.14297004663E+03  0.14943111530E+03  0.00000000000E+00 0. -1.
        -14    1    3    3    0    0 -0.15963748844E+02 -0.86221506977E+02 -0.35261409921E+03  0.36335339891E+03  0.00000000000E+00 0.  1.
        -13    1    4    4    0    0 -0.59120879927E+01  0.55392547875E+02 -0.12403344623E+03  0.13596905136E+03  0.00000000000E+00 0. -1.
         13    1    4    4    0    0  0.53721243302E+02 -0.20594690126E+01 -0.50115241488E+02  0.73496604165E+02  0.00000000000E+00 0.  1.
          2    1    1    2  501    0  0.11216102366E+02  0.26978229979E+02  0.25909127391E+02  0.39050079734E+02  0.00000000000E+00 0. -1.
<scales pt_clust_5="13000.00000" pt_clust_6="13000.00000" pt_clust_7="13000.00000" pt_clust_8="13000.00000" pt_clust_9="29.21688"></scales>
<clustering>
<clus scale="   29.217">  1  9  2 -1</clus>
<clus scale="   86.084">  5  6 -1 -1</clus>
<clus scale="   91.749">  7  8 -1 -1</clus>
<clus scale="  124.832">  2  5  1 -1</clus>
<clus scale="   29.217">  1  5  2 -1</clus>
</clustering>
</event>
<event>
 9    1  0.6270443E-005  0.1215255E+03  0.7546771E-02  0.1242402E+00
          1   -1    0    0  502    0 -0.00000000000E+00  0.00000000000E+00  0.85134932552E+03  0.85134932552E+03  0.00000000000E+00 0. -1.
         21   -1    0    0  501  502  0.00000000000E+00 -0.00000000000E+00 -0.25396040613E+02  0.25396040613E+02  0.00000000000E+00 0.  1.
         23    2    1    2    0    0 -0.64968885608E+02 -0.68097680781E+02  0.41043755707E+03  0.43051624420E+03  0.89593515606E+02 0.  0.
        -24    2    1    2    0    0  0.17807448772E+02  0.71249952026E+02  0.24139570803E+03  0.26580761757E+03  0.83595100393E+02 0.  0.
         11    1    4    4    0    0 -0.21049246531E+02  0.34812963673E+02  0.38412082924E+02  0.55950883226E+02  0.00000000000E+00 0. -1.
        -12    1    4    4    0    0  0.38856695303E+02  0.36436988353E+02  0.20298362510E+03  0.20985673435E+03  0.00000000000E+00 0.  1.
        -13    1    3    3    0    0  0.11079689233E+02 -0.32910803392E+02  0.52818547517E+02  0.63211387069E+02  0.00000000000E+00 0. -1.
         13    1    3    3    0    0 -0.76048574840E+02 -0.35186877389E+02  0.35761900955E+03  0.36730485713E+03  0.00000000000E+00 0.  1.
          2    1    1    2  501    0  0.47161436835E+02 -0.31522712454E+01  0.17412001981E+03  0.18042150437E+03  0.00000000000E+00 0. -1.
<scales pt_clust_5="13000.00000" pt_clust_6="13000.00000" pt_clust_7="13000.00000" pt_clust_8="13000.00000" pt_clust_9="47.26669"></scales>
<clustering>
<clus scale="   47.267">  2  9  1 -1</clus>
<clus scale="   83.595">  5  6 -1 -1</clus>
<clus scale="   89.594">  7  8 -1 -1</clus>
<clus scale="  117.173">  2  5  1 -1</clus>
<clus scale="   47.267">  2  5  1 -1</clus>
</clustering>
</event>
<event>
 9    1  0.6270443E-005  0.1621371E+03  0.7546771E-02  0.1187852E+00
          1   -1    0    0  502    0 -0.00000000000E+00  0.00000000000E+00  0.42930400691E+03  0.42930400691E+03  0.00000000000E+00 0. -1.
         21   -1    0    0  501  502  0.00000000000E+00 -0.00000000000E+00 -0.10285936456E+03  0.10285936456E+03  0.00000000000E+00 0.  1.
         23    2    1    2    0    0 -0.30714419505E+01  0.15571997466E+03  0.21292731530E+03  0.27899736898E+03  0.90792874357E+02 0.  0.
        -24    2    1    2    0    0  0.53418765621E+02 -0.94574417495E+02  0.30965869654E+02  0.13876156516E+03  0.80610184948E+02 0.  0.
         13    1    4    4    0    0 -0.54477910320E+01 -0.25488308362E+02  0.39792961419E+02  0.47569024257E+02  0.00000000000E+00 0. -1.
        -14    1    4    4    0    0  0.58866556652E+02 -0.69086109133E+02 -0.88270917658E+01  0.91192540902E+02  0.00000000000E+00 0.  1.
        -11    1    3    3    0    0  0.26973706099E+02  0.36812474231E+02  0.10926319997E+03  0.11841108879E+03  0.00000000000E+00 0.  1.
         11    1    3    3    0    0 -0.30045148050E+02  0.11890750043E+03  0.10366411533E+03  0.16058628020E+03  0.00000000000E+00 0. -1.
          2    1    1    2  501    0 -0.50347323670E+02 -0.61145557168E+02  0.82551457397E+02  0.11440443733E+03  0.00000000000E+00 0. -1.
<scales pt_clust_5="13000.00000" pt_clust_6="13000.00000" pt_clust_7="13000.00000" pt_clust_8="13000.00000" pt_clust_9="79.20630"></scales>
<clustering>
<clus scale="   79.206">  2  9  1 -1</clus>
<clus scale="   80.610">  5  6 -1 -1</clus>
<clus scale="   90.793">  7  8 -1 -1</clus>
<clus scale="  156.662">  2  5  1 -1</clus>
<clus scale="   79.206">  2  5  1 -1</clus>
</clustering>
</event>
<event>
 9    1  0.6270443E-005  0.8872499E+02  0.7546771E-02  0.1310714E+00
         21   -1    0    0  501  502  0.00000000000E+00  0.00000000000E+00  0.19703983571E+03  0.19703983571E+03  0.00000000000E+00 0. -1.
          1   -1    0    0  502    0 -0.00000000000E+00 -0.00000000000E+00 -0.20597540785E+03  0.20597540785E+03  0.00000000000E+00 0. -1.
         23    2    1    2    0    0 -0.12347319889E+02 -0.37510091662E+02 -0.17791176981E+03  0.19572741513E+03  0.71394396925E+02 0.  0.
        -24    2    1    2    0    0 -0.11055696326E+02  0.38554602233E+02  0.97822255081E+02  0.13237670965E+03  0.79659989293E+02 0.  0.
         13    1    4    4    0    0 -0.30172742178E+02  0.12687726599E+02  0.94539094646E+02  0.10004505582E+03  0.00000000000E+00 0. -1.
        -14    1    4    4    0    0  0.19117045852E+02  0.25866875634E+02  0.32831604349E+01  0.32331653834E+02  0.00000000000E+00 0.  1.
        -13    1    3    3    0    0 -0.43324078744E+01  0.19745791900E+02 -0.75120452220E+02  0.77792984243E+02  0.00000000000E+00 0.  1.
         13    1    3    3    0    0 -0.80149120148E+01 -0.57255883562E+02 -0.10279131759E+03  0.11793443089E+03  0.00000000000E+00 0. -1.
          2    1    1    2  501    0  0.23403016215E+02 -0.10445105713E+01  0.71153942595E+02  0.74911118781E+02  0.00000000000E+00 0. -1.
<scales pt_clust_5="13000.00000" pt_clust_6="13000.00000" pt_clust_7="13000.00000" pt_clust_8="13000.00000" pt_clust_9="23.42631"></scales>
<clustering>
<clus scale="   23.426">  1  9  2 -1</clus>
<clus scale="   71.394">  7  8 -1 -1</clus>
<clus scale="   79.660">  5  6 -1 -1</clus>
<clus scale="   81.385">  2  7  1 -1</clus>
<clus scale="   23.426">  1  5  2 -1</clus>
</clustering>
</event>
<event>
 9    1  0.6270443E-005  0.3154091E+03  0.7546771E-02  0.1093929E+00
         21   -1    0    0  501  502  0.00000000000E+00  0.00000000000E+00  0.25957816995E+03  0.25957816995E+03  0.00000000000E+00 0. -1.
          1   -1    0    0  502    0 -0.00000000000E+00 -0.00000000000E+00 -0.90115141860E+03  0.90115141860E+03  0.00000000000E+00 0. -1.
        -24    2    1    2    0    0 -0.15371440060E+03 -0.10912893697E+03 -0.24174244337E+03  0.31704674735E+03  0.80882564499E+02 0.  0.
         23    2    1    2    0    0 -0.93541222398E+02 -0.24341680714E+03 -0.34365744597E+02  0.27889212299E+03  0.92725991928E+02 0.  0.
         11    1    3    3    0    0 -0.15750397287E+03 -0.11631161608E+03 -0.23775696394E+03  0.30800043410E+03  0.00000000000E+00 0. -1.
        -12    1    3    3    0    0  0.37895722659E+01  0.71826791046E+01 -0.39854794278E+01  0.90463132461E+01  0.00000000000E+00 0.  1.
        -11    1    4    4    0    0 -0.59040224339E+02 -0.23089953889E+03 -0.40307605874E+02  0.24171273909E+03  0.00000000000E+00 0. -1.
         11    1    4    4    0    0 -0.34500998059E+02 -0.12517268250E+02  0.59418612771E+01  0.37179383896E+02  0.00000000000E+00 0.  1.
          2    1    1    2  501    0  0.24725562300E+03  0.35254574411E+03 -0.36546506069E+03  0.56479071821E+03  0.00000000000E+00 0. -1.
<scales pt_clust_5="13000.00000" pt_clust_6="13000.00000" pt_clust_7="13000.00000" pt_clust_8="13000.00000" pt_clust_9="301.47125"></scales>
<clustering>
<clus scale="   80.883">  5  6 -1 -1</clus>
<clus scale="   92.726">  7  8 -1 -1</clus>
<clus scale="  205.132">  2  5  1 -1</clus>
<clus scale="  301.471">  1  9  2 -1</clus>
<clus scale="  301.471">  1  5  2 -1</clus>
</clustering>
</event>
<event>
 9    1  0.6270443E-005  0.1374621E+03  0.7546771E-02  0.1227802E+00
         21   -1    0    0  501  502  0.00000000000E+00  0.00000000000E+00  0.40231890484E+03  0.40231890484E+03  0.00000000000E+00 0.  1.
         -2   -1    0    0    0  501 -0.00000000000E+00 -0.00000000000E+00 -0.92378760130E+02  0.92378760130E+02  0.00000000000E+00 0.  1.
         23    2    1    2    0    0  0.50044342471E+02 -0.35172324670E+02  0.87769405060E+02  0.14007684001E+03  0.90424133977E+02 0.  0.
        -24    2    1    2    0    0  0.76080868294E+02  0.73877613978E+02  0.16287267630E+03  0.20997668050E+03  0.79476394618E+02 0.  0.
         13    1    4    4    0    0  0.44161478755E+02 -0.58052871882E+01  0.74344712424E+02  0.86666451587E+02  0.00000000000E+00 0. -1.
        -14    1    4    4    0    0  0.31919389539E+02  0.79682901166E+02  0.88527963875E+02  0.12331022891E+03  0.00000000000E+00 0.  1.
        -11    1    3    3    0    0  0.31369811077E+02 -0.65418652417E+02  0.67824669738E+02  0.99316921801E+02  0.00000000000E+00 0. -1.
         11    1    3    3    0    0  0.18674531394E+02  0.30246327747E+02  0.19944735322E+02  0.40759918205E+02  0.00000000000E+00 0.  1.
         -1    1    1    2    0  502 -0.12612521076E+03 -0.38705289307E+02  0.59298063352E+02  0.14464414447E+03  0.00000000000E+00 0.  1.
<scales pt_clust_5="13000.00000" pt_clust_6="13000.00000" pt_clust_7="13000.00000" pt_clust_8="13000.00000" pt_clust_9="112.15764"></scales>
<clustering>
<clus scale="   79.476">  5  6 -1 -1</clus>
<clus scale="   90.424">  7  8 -1 -1</clus>
<clus scale="  109.170">  2  7  1 -1</clus>
<clus scale="  112.158">  1  9  2 -1</clus>
<clus scale="  112.158">  1  5  2 -1</clus>
</clustering>
</event>
<event>
 9    1  0.6270443E-005  0.1364060E+03  0.7546771E-02  0.1220089E+00
         21   -1    0    0  501  502  0.00000000000E+00  0.00000000000E+00  0.22262336865E+03  0.22262336865E+03  0.00000000000E+00 0. -1.
          1   -1    0    0  502    0 -0.00000000000E+00 -0.00000000000E+00 -0.17840496896E+03  0.17840496896E+03  0.00000000000E+00 0. -1.
        -24    2    1    2    0    0 -0.62466818402E+02  0.49630753385E+02 -0.54355594955E+00  0.11504284763E+03  0.82880916103E+02 0.  0.
         23    2    1    2    0    0  0.15144234339E+03 -0.45011715884E+02  0.66964614832E+02  0.19416535261E+03  0.90857506986E+02 0.  0.
         11    1    3    3    0    0 -0.49714402506E+02 -0.84857908020E+01  0.16647379362E+02  0.53109939764E+02  0.00000000000E+00 0. -1.
        -12    1    3    3    0    0 -0.12752415896E+02  0.58116544187E+02 -0.17190935312E+02  0.61932907863E+02  0.00000000000E+00 0.  1.
        -13    1    4    4    0    0  0.61600180929E+01 -0.23348796430E+02 -0.12466379873E+02  0.27175774962E+02  0.00000000000E+00 0.  1.
         13    1    4    4    0    0  0.14528232529E+03 -0.21662919454E+02  0.79430994705E+02  0.16698957764E+03  0.00000000000E+00 0. -1.
          2    1    1    2  501    0 -0.88975524984E+02 -0.46190375011E+01 -0.22202659196E+02  0.91820137383E+02  0.00000000000E+00 0. -1.
<scales pt_clust_5="13000.00000" pt_clust_6="13000.00000" pt_clust_7="13000.00000" pt_clust_8="13000.00000" pt_clust_9="89.09538"></scales>
<clustering>
<clus scale="   82.881">  5  6 -1 -1</clus>
<clus scale="   89.095">  1  9  2 -1</clus>
<clus scale="   90.858">  7  8 -1 -1</clus>
<clus scale="  131.228">  2  5  1 -1</clus>
<clus scale="   89.095">  1  5  2 -1</clus>
</clustering>
</event>
<event>
 9    1  0.6270443E-005  0.1450499E+03  0.7546771E-02  0.1209292E+00
         21   -1    0    0  501  502  0.00000000000E+00  0.00000000000E+00  0.23570881376E+03  0.23570881376E+03  0.00000000000E+00 0. -1.
          3   -1    0    0  502    0 -0.00000000000E+00 -0.00000000000E+00 -0.11750793201E+03  0.11750793201E+03  0.00000000000E+00 0. -1.
        -24    2    1    2    0    0  0.85834874592E+02 -0.51790936886E+02  0.49492923022E+02  0.13678482852E+03  0.78807442828E+02 0.  0.
         23    2    1    2    0    0 -0.12586641717E+03  0.33487275228E+02  0.65523086565E+02  0.17229925539E+03  0.91815063925E+02 0.  0.
         11    1    3    3    0    0  0.84224825813E+02 -0.17213293495E+02  0.54534690530E+02  0.10180447548E+03  0.00000000000E+00 0. -1.
        -12    1    3    3    0    0  0.16100487793E+01 -0.34577643391E+02 -0.50417675078E+01  0.34980353045E+02  0.00000000000E+00 0.  1.
        -13    1    4    4    0    0 -0.39449351000E+02  0.51441998066E+02  0.44748584762E+01  0.64981188183E+02  0.00000000000E+00 0.  1.
         13    1    4    4    0    0 -0.86417066167E+02 -0.17954722838E+02  0.61048228088E+02  0.10731806721E+03  0.00000000000E+00 0. -1.
          4    1    1    2  501    0  0.40031542575E+02  0.18303661658E+02  0.31848721613E+01  0.44132661847E+02  0.00000000000E+00 0. -1.
<scales pt_clust_5="13000.00000" pt_clust_6="13000.00000" pt_clust_7="13000.00000" pt_clust_8="13000.00000" pt_clust_9="44.01761"></scales>
<clustering>
<clus scale="   44.018">  1  9  2 -1</clus>
<clus scale="   78.807">  5  6 -1 -1</clus>
<clus scale="   91.815">  7  8 -1 -1</clus>
<clus scale="  137.186">  2  5  1 -1</clus>
<clus scale="   44.018">  1  5  2 -1</clus>
</clustering>
</event>
<event>
 9    1  0.6270443E-005  0.1059527E+03  0.7546771E-02  0.1277945E+00
         21   -1    0    0  501  502  0.00000000000E+00  0.00000000000E+00  0.13495801547E+03  0.13495801547E+03  0.00000000000E+00 0. -1.
          1   -1    0    0  502    0 -0.00000000000E+00 -0.00000000000E+00 -0.59968639159E+03  0.59968639159E+03  0.00000000000E+00 0. -1.
        -24    2    1    2    0    0 -0.55235571145E+01 -0.40011941083E+02  0.85478348127E+02  0.12262858297E+03  0.78100936291E+02 0.  0.
         23    2    1    2    0    0 -0.48802619362E+01 -0.50697486860E+02 -0.71980796230E+02  0.12515190265E+03  0.88812789508E+02 0.  0.
         13    1    3    3    0    0  0.23260354940E+02 -0.38957299149E+02  0.17200403174E+02  0.48523902752E+02  0.00000000000E+00 0. -1.
        -14    1    3    3    0    0 -0.28783912054E+02 -0.10546419341E+01  0.68277944954E+02  0.74104680216E+02  0.00000000000E+00 0.  1.
        -13    1    4    4    0    0 -0.30950072124E+02 -0.65466511510E+02 -0.51414373201E+02  0.88809959269E+02  0.00000000000E+00 0.  1.
         13    1    4    4    0    0  0.26069810188E+02  0.14769024650E+02 -0.20566423029E+02  0.36341943379E+02  0.00000000000E+00 0. -1.
          2    1    1    2  501    0  0.10403819051E+02  0.90709427944E+02 -0.47822592802E+03  0.48686392144E+03  0.00000000000E+00 0. -1.
<scales pt_clust_5="13000.00000" pt_clust_6="13000.00000" pt_clust_7="13000.00000" pt_clust_8="13000.00000" pt_clust_9="57.77781"></scales>
<clustering>
<clus scale="   78.101">  5  6 -1 -1</clus>
<clus scale="   87.927">  2  5  1 -1</clus>
<clus scale="   57.778">  1  9  2 -1</clus>
<clus scale="   88.813">  7  8 -1 -1</clus>
<clus scale="   57.778">  1  5  2 -1</clus>
</clustering>
</event>
<event>
 9    1  0.6270443E-005  0.3302973E+03  0.7546771E-02  0.1071776E+00
         21   -1    0    0  501  502  0.00000000000E+00  0.00000000000E+00  0.55323772435E+03  0.55323772435E+03  0.00000000000E+00 0. -1.
          1   -1    0    0  502    0 -0.00000000000E+00 -0.00000000000E+00 -0.11650615503E+04  0.11650615503E+04  0.00000000000E+00 0. -1.
         23    2    1    2    0    0 -0.22503770514E+03  0.21316748812E+03  0.25115049250E+03  0.40947151310E+03  0.92238839043E+02 0.  0.
        -24    2    1    2    0    0 -0.96104527334E+02 -0.32199790198E+03 -0.90381215483E+03  0.96729574062E+03  0.76589226093E+02 0.  0.
         11    1    4    4    0    0 -0.23012555993E+02 -0.20627242882E+03 -0.52744852543E+03  0.56681552520E+03  0.00000000000E+00 0. -1.
        -12    1    4    4    0    0 -0.73091971341E+02 -0.11572547316E+03 -0.37636362939E+03  0.40048021542E+03  0.00000000000E+00 0.  1.
        -11    1    3    3    0    0 -0.11231952028E+03  0.10405660239E+03  0.65824359833E+02  0.16666222573E+03  0.00000000000E+00 0.  1.
         11    1    3    3    0    0 -0.11271818485E+03  0.10911088573E+03  0.18532613267E+03  0.24280928737E+03  0.00000000000E+00 0. -1.
          2    1    1    2  501    0  0.32114223247E+03  0.10883041386E+03  0.40837836357E+02  0.34153202095E+03  0.00000000000E+00 0. -1.
<scales pt_clust_5="13000.00000" pt_clust_6="13000.00000" pt_clust_7="13000.00000" pt_clust_8="13000.00000" pt_clust_9="321.29485"></scales>
<clustering>
<clus scale="   76.589">  5  6 -1 -1</clus>
<clus scale="   92.239">  7  8 -1 -1</clus>
<clus scale="  323.404">  2  7  1 -1</clus>
<clus scale="  321.295">  1  9  2 -1</clus>
<clus scale="  321.295">  1  5  2 -1</clus>
</clustering>
</event>
<event>
 9    1  0.6270443E-005  0.9535405E+02  0.7546771E-02  0.1297629E+00
          1   -1    0    0  502    0 -0.00000000000E+00  0.00000000000E+00  0.47808729326E+03  0.47808729326E+03  0.00000000000E+00 0. -1.
         21   -1    0    0  501  502  0.00000000000E+00 -0.00000000000E+00 -0.29216566253E+02  0.29216566253E+02  0.00000000000E+00 0. -1.
        -24    2    1    2    0    0 -0.26233202433E+02 -0.19466838030E+02  0.17834201589E+03  0.19753185525E+03  0.78395283752E+02 0.  0.
         23    2    1    2    0    0  0.30478091642E+02 -0.29562926218E+02  0.19920451416E+03  0.22311706823E+03  0.91081869757E+02 0.  0.
         11    1    3    3    0    0 -0.36139376934E+02 -0.41038007315E+02  0.83857028237E+02  0.10011080758E+03  0.00000000000E+00 0. -1.
        -12    1    3    3    0    0  0.99061745016E+01  0.21571169285E+02  0.94484987654E+02  0.97421047673E+02  0.00000000000E+00 0.  1.
        -13    1    4    4    0    0  0.28397646539E+02  0.13869751521E+02  0.16442968240E+03  0.16743929285E+03  0.00000000000E+00 0. -1.
         13    1    4    4    0    0  0.20804451022E+01 -0.43432677739E+02  0.34774831756E+02  0.55677775378E+02  0.00000000000E+00 0.  1.
          2    1    1    2  501    0 -0.42448892087E+01  0.49029764248E+02  0.71324196958E+02  0.86654936030E+02  0.00000000000E+00 0. -1.
<scales pt_clust_5="13000.00000" pt_clust_6="13000.00000" pt_clust_7="13000.00000" pt_clust_8="13000.00000" pt_clust_9="49.21318"></scales>
<clustering>
<clus scale="   49.213">  2  9  1 -1</clus>
<clus scale="   78.395">  5  6 -1 -1</clus>
<clus scale="   83.321">  1  5  2 -1</clus>
<clus scale="   91.082">  7  8 -1 -1</clus>
<clus scale="   49.213">  2  5  1 -1</clus>
</clustering>
</event>
<event>
 9    1  0.6270443E-005  0.9466423E+02  0.7546771E-02  0.1298240E+00
         21   -1    0    0  501  502  0.00000000000E+00  0.00000000000E+00  0.79091445948E+02  0.79091445948E+02  0.00000000000E+00 0. -1.
         -2   -1    0    0    0  501 -0.00000000000E+00 -0.00000000000E+00 -0.29693551721E+03  0.29693551721E+03  0.00000000000E+00 0.  1.
         23    2    1    2    0    0 -0.89581266035E+01  0.13973229768E+02 -0.18776904071E+03  0.21047916753E+03  0.93641700825E+02 0.  0.
        -24    2    1    2    0    0 -0.12959313795E+02 -0.49038752198E+01  0.38797669886E+02  0.92704976823E+02  0.83047948397E+02 0.  0.
         11    1    4    4    0    0  0.71865431411E+01 -0.24951226448E+02 -0.16336018389E+02  0.30676955527E+02  0.00000000000E+00 0. -1.
        -12    1    4    4    0    0 -0.20145856936E+02  0.20047351229E+02  0.55133688276E+02  0.62028021296E+02  0.00000000000E+00 0.  1.
        -11    1    3    3    0    0 -0.14418902008E+02 -0.37751471732E+02 -0.58142010533E+02  0.70806579792E+02  0.00000000000E+00 0.  1.
         11    1    3    3    0    0  0.54607754050E+01  0.51724701500E+02 -0.12962703018E+03  0.13967258774E+03  0.00000000000E+00 0. -1.
         -1    1    1    2    0  502  0.21917440399E+02 -0.90693545484E+01 -0.68872700435E+02  0.72842818801E+02  0.00000000000E+00 0.  1.
<scales pt_clust_5="13000.00000" pt_clust_6="13000.00000" pt_clust_7="13000.00000" pt_clust_8="13000.00000" pt_clust_9="23.71978"></scales>
<clustering>
<clus scale="   23.720">  1  9  2 -1</clus>
<clus scale="   83.048">  5  6 -1 -1</clus>
<clus scale="   84.199">  1  5  2 -1</clus>
<clus scale="   93.642">  7  8 -1 -1</clus>
<clus scale="   23.720">  1  5  2 -1</clus>
</clustering>
</event>
<event>
 9    1  0.6270443E-005  0.1175000E+03  0.7546771E-02  0.1251139E+00
         21   -1    0    0  501  502  0.00000000000E+00  0.00000000000E+00  0.42418636706E+02  0.42418636706E+02  0.00000000000E+00 0.  1.
         -2   -1    0    0    0  501 -0.00000000000E+00 -0.00000000000E+00 -0.88807434376E+03  0.88807434376E+03  0.00000000000E+00 0.  1.
         23    2    1    2    0    0 -0.66335052004E+02  0.79541390071E+02 -0.64810389400E+03  0.66256418749E+03  0.90694394869E+02 0.  0.
        -24    2    1    2    0    0  0.20963285901E+02 -0.27563437239E+02 -0.17536611137E+03  0.19545458999E+03  0.79057076236E+02 0.  0.
         13    1    4    4    0    0  0.19661523399E+02  0.75549175936E+01 -0.51971135873E+01  0.21694752174E+02  0.00000000000E+00 0. -1.
        -14    1    4    4    0    0  0.13017625020E+01 -0.35118354832E+02 -0.17016899778E+03  0.17375983782E+03  0.00000000000E+00 0.  1.
        -13    1    3    3    0    0 -0.88106579358E+02  0.73703717160E+02 -0.52592099242E+03  0.53831951248E+03  0.00000000000E+00 0.  1.
         13    1    3    3    0    0  0.21771527354E+02  0.58376729108E+01 -0.12218290159E+03  0.12424467501E+03  0.00000000000E+00 0. -1.
         -1    1    1    2    0  502  0.45371766102E+02 -0.51977952832E+02 -0.22185701684E+02  0.72474202990E+02  0.00000000000E+00 0.  1.
<scales pt_clust_5="13000.00000" pt_clust_6="13000.00000" pt_clust_7="13000.00000" pt_clust_8="13000.00000" pt_clust_9="68.99496"></scales>
<clustering>
<clus scale="   68.995">  1  9  2 -1</clus>
<clus scale="   79.057">  5  6 -1 -1</clus>
<clus scale="   90.694">  7  8 -1 -1</clus>
<clus scale="  108.769">  1  5  2 -1</clus>
<clus scale="   68.995">  1  5  2 -1</clus>
</clustering>
</event>
<event>
 9    1  0.6270443E-005  0.1062065E+03  0.7546771E-02  0.1279711E+00
          1   -1    0    0  502    0 -0.00000000000E+00  0.00000000000E+00  0.11145924312E+03  0.11145924312E+03  0.00000000000E+00 0. -1.
         21   -1    0    0  501  502  0.00000000000E+00 -0.00000000000E+00 -0.35208247438E+03  0.35208247438E+03  0.00000000000E+00 0.  1.
         23    2    1    2    0    0  0.32630814482E+01  0.25059299489E+02  0.68737289666E+02  0.12569601514E+03  0.10215702149E+03 0.  0.
        -24    2    1    2    0    0  0.79991355674E+01 -0.55838343828E+02 -0.18234849019E+03  0.20667313260E+03  0.79252161208E+02 0.  0.
         11    1    4    4    0    0  0.38668984555E+02 -0.29028078908E+02 -0.56339884894E+02  0.74243534139E+02  0.00000000000E+00 0. -1.
        -12    1    4    4    0    0 -0.30669848988E+02 -0.26810264920E+02 -0.12600860529E+03  0.13242959847E+03  0.00000000000E+00 0.  1.
        -11    1    3    3    0    0 -0.41141022560E+02 -0.15167659928E+02  0.18841272230E+02  0.47724576313E+02  0.00000000000E+00 0.  1.
         11    1    3    3    0    0  0.44404104008E+02  0.40226959417E+02  0.49896017436E+02  0.77971438826E+02  0.00000000000E+00 0. -1.
          2    1    1    2  501    0 -0.11262217016E+02  0.30779044340E+02 -0.12701203075E+03  0.13117256976E+03  0.00000000000E+00 0. -1.
<scales pt_clust_5="13000.00000" pt_clust_6="13000.00000" pt_clust_7="13000.00000" pt_clust_8="13000.00000" pt_clust_9="32.77479"></scales>
<clustering>
<clus scale="   32.775">  2  9  1 -1</clus>
<clus scale="   79.252">  5  6 -1 -1</clus>
<clus scale="   84.408">  2  5  1 -1</clus>
<clus scale="  102.157">  7  8 -1 -1</clus>
<clus scale="   32.775">  2  5  1 -1</clus>
</clustering>
</event>
<event>
 9    1  0.6270443E-005  0.1475666E+03  0.7546771E-02  0.1209992E+00
          1   -1    0    0  502    0 -0.00000000000E+00  0.00000000000E+00  0.17893143141E+04  0.17893143141E+04  0.00000000000E+00 0. -1.
         21   -1    0    0  501  502  0.00000000000E+00 -0.00000000000E+00 -0.35169270283E+02  0.35169270283E+02  0.00000000000E+00 0. -1.
         23    2    1    2    0    0  0.19539681652E+02 -0.88882462562E+02  0.70617044973E+03  0.71774022282E+03  0.90512054827E+02 0.  0.
        -24    2    1    2    0    0 -0.11221318384E+03 -0.42124182691E+02  0.21645319614E+03  0.25987917272E+03  0.79491841710E+02 0.  0.
         13    1    4    4    0    0  0.15596142096E+01 -0.27326032049E+02  0.27350570555E+02  0.38693644616E+02  0.00000000000E+00 0. -1.
        -14    1    4    4    0    0 -0.11377279805E+03 -0.14798150642E+02  0.18910262558E+03  0.22118552810E+03  0.00000000000E+00 0.  1.
        -11    1    3    3    0    0  0.38728220003E+02 -0.99250325112E+02  0.58807091823E+03  0.59764362870E+03  0.00000000000E+00 0. -1.
         11    1    3    3    0    0 -0.19188538351E+02  0.10367862550E+02  0.11809953151E+03  0.12009659412E+03  0.00000000000E+00 0.  1.
          2    1    1    2  501    0  0.92673502187E+02  0.13100664525E+03  0.83152139794E+03  0.84686418884E+03  0.00000000000E+00 0. -1.
<scales pt_clust_5="13000.00000" pt_clust_6="13000.00000" pt_clust_7="13000.00000" pt_clust_8="13000.00000" pt_clust_9="124.32600"></scales>
<clustering>
<clus scale="   79.492">  5  6 -1 -1</clus>
<clus scale="   90.512">  7  8 -1 -1</clus>
<clus scale="  128.352">  1  7  2 -1</clus>
<clus scale="  124.326">  2  9  1 -1</clus>
<clus scale="  124.326">  2  5  1 -1</clus>
</clustering>
</event>
<event>
 9    1  0.6270443E-005  0.1099516E+03  0.7546771E-02  0.1264926E+00
          1   -1    0    0  502    0 -0.00000000000E+00  0.00000000000E+00  0.50176844749E+03  0.50176844749E+03  0.00000000000E+00 0. -1.
         21   -1    0    0  501  502  0.00000000000E+00 -0.00000000000E+00 -0.57157126879E+02  0.57157126879E+02  0.00000000000E+00 0. -1.
        -24    2    1    2    0    0  0.14762165002E+02  0.66357844403E+02  0.22692681401E+03  0.25027009369E+03  0.80734477462E+02 0.  0.
         23    2    1    2    0    0 -0.42010792041E+02 -0.24528458729E+02  0.21029958487E+02  0.10576339982E+03  0.91526420509E+02 0.  0.
         13    1    3    3    0    0  0.45416875082E+02  0.52242245221E+02  0.12481905143E+03  0.14272960565E+03  0.00000000000E+00 0. -1.
        -14    1    3    3    0    0 -0.30654710080E+02  0.14115599182E+02  0.10210776258E+03  0.10754048805E+03  0.00000000000E+00 0.  1.
        -13    1    4    4    0    0 -0.67620604465E+02 -0.20830291275E+01  0.23505437282E+02  0.71619765012E+02  0.00000000000E+00 0. -1.
         13    1    4    4    0    0  0.25609812424E+02 -0.22445429601E+02 -0.24754787955E+01  0.34143634804E+02  0.00000000000E+00 0.  1.
          2    1    1    2  501    0  0.27248627039E+02 -0.41829385675E+02  0.19665454812E+03  0.20289208086E+03  0.00000000000E+00 0. -1.
<scales pt_clust_5="13000.00000" pt_clust_6="13000.00000" pt_clust_7="13000.00000" pt_clust_8="13000.00000" pt_clust_9="49.92182"></scales>
<clustering>
<clus scale="   49.922">  2  9  1 -1</clus>
<clus scale="   80.734">  5  6 -1 -1</clus>
<clus scale="   91.526">  7  8 -1 -1</clus>
<clus scale="  101.145">  1  5  2 -1</clus>
<clus scale="   49.922">  2  5  1 -1</clus>
</clustering>
</event>
<event>
 9    1  0.6270443E-005  0.1060552E+03  0.7546771E-02  0.1269437E+00
          3   -1    0    0  502    0 -0.00000000000E+00  0.00000000000E+00  0.62475689618E+02  0.62475689618E+02  0.00000000000E+00 0. -1.
         21   -1    0    0  501  502  0.00000000000E+00 -0.00000000000E+00 -0.31118636515E+03  0.31118636515E+03  0.00000000000E+00 0. -1.
        -24    2    1    2    0    0  0.19918405263E+02  0.78117248808E+02 -0.32443206973E+02  0.11794979729E+03  0.79753028604E+02 0.  0.
         23    2    1    2    0    0 -0.61462539744E+01 -0.34005439532E+02 -0.14235229286E+03  0.16854014573E+03  0.83351419213E+02 0.  0.
         11    1    3    3    0    0  0.24046071094E+02  0.19283742932E+02  0.21853295836E+02  0.37784160906E+02  0.00000000000E+00 0. -1.
        -12    1    3    3    0    0 -0.41276658309E+01  0.58833505876E+02 -0.54296502809E+02  0.80165636379E+02  0.00000000000E+00 0.  1.
        -13    1    4    4    0    0 -0.27835432397E+01 -0.61521005281E+02 -0.86448772752E+02  0.10614128562E+03  0.00000000000E+00 0.  1.
         13    1    4    4    0    0 -0.33627107347E+01  0.27515565750E+02 -0.55903520109E+02  0.62398860106E+02  0.00000000000E+00 0. -1.
          4    1    1    2  501    0 -0.13772151289E+02 -0.44111809276E+02 -0.73915175697E+02  0.87172111750E+02  0.00000000000E+00 0. -1.
<scales pt_clust_5="13000.00000" pt_clust_6="13000.00000" pt_clust_7="13000.00000" pt_clust_8="13000.00000" pt_clust_9="46.21173"></scales>
<clustering>
<clus scale="   46.212">  2  9  1 -1</clus>
<clus scale="   79.753">  5  6 -1 -1</clus>
<clus scale="   83.351">  7  8 -1 -1</clus>
<clus scale="  103.251">  1  5  2 -1</clus>
<clus scale="   46.212">  2  5  1 -1</clus>
</clustering>
</event>
<event>
 9    1  0.6270443E-005  0.1167618E+03  0.7546771E-02  0.1268790E+00
         21   -1    0    0  501  502  0.00000000000E+00  0.00000000000E+00  0.37062582260E+03  0.37062582260E+03  0.00000000000E+00 0.  1.
          3   -1    0    0  502    0 -0.00000000000E+00 -0.00000000000E+00 -0.11240106910E+03  0.11240106910E+03  0.00000000000E+00 0. -1.
         23    2    1    2    0    0  0.22527138277E+02 -0.35237440697E+02  0.68413818306E+02  0.10401450404E+03  0.66252677907E+02 0.  0.
        -24    2    1    2    0    0 -0.84517754965E+02 -0.19535673162E+02  0.25015696562E+03  0.27661817910E+03  0.80088801555E+02 0.  0.
         13    1    4    4    0    0 -0.66876550123E+02  0.19681740463E+02  0.19218520059E+03  0.20443824297E+03  0.00000000000E+00 0. -1.
        -14    1    4    4    0    0 -0.17641204843E+02 -0.39217413625E+02  0.57971765027E+02  0.72179936133E+02  0.00000000000E+00 0.  1.
        -13    1    3    3    0    0  0.16930870292E+02  0.15065614383E+02  0.39991309782E+02  0.45966639682E+02  0.00000000000E+00 0.  1.
         13    1    3    3    0    0  0.55962679849E+01 -0.50303055081E+02  0.28422508524E+02  0.58047864359E+02  0.00000000000E+00 0. -1.
          4    1    1    2  501    0  0.61990616689E+02  0.54773113859E+02 -0.60346030422E+02  0.10239420856E+03  0.00000000000E+00 0. -1.
<scales pt_clust_5="13000.00000" pt_clust_6="13000.00000" pt_clust_7="13000.00000" pt_clust_8="13000.00000" pt_clust_9="84.96532"></scales>
<clustering>
<clus scale="   66.253">  7  8 -1 -1</clus>
<clus scale="   78.349">  2  7  1 -1</clus>
<clus scale="   80.089">  5  6 -1 -1</clus>
<clus scale="   84.965">  1  9  2 -1</clus>
<clus scale="   84.965">  1  5  2 -1</clus>
</clustering>
</event>
<event>
 9    1  0.6270443E-005  0.1628575E+03  0.7546771E-02  0.1188680E+00
         21   -1    0    0  501  502  0.00000000000E+00  0.00000000000E+00  0.93154599123E+02  0.93154599123E+02  0.00000000000E+00 0.  1.
         -4   -1    0    0    0  501 -0.00000000000E+00 -0.00000000000E+00 -0.46462477468E+03  0.46462477468E+03  0.00000000000E+00 0.  1.
        -24    2    1    2    0    0 -0.12070110013E+03 -0.27181761640E+02 -0.18342921246E+03  0.23526682373E+03  0.79978738595E+02 0.  0.
         23    2    1    2    0    0  0.12490856550E+03  0.77871944830E+02 -0.64596253832E+02  0.18899927851E+03  0.99407553742E+02 0.  0.
         11    1    3    3    0    0 -0.11898256591E+02 -0.34866557989E+02 -0.33032434510E+02  0.49481179306E+02  0.00000000000E+00 0. -1.
        -12    1    3    3    0    0 -0.10880284354E+03  0.76847963486E+01 -0.15039677795E+03  0.18578564443E+03  0.00000000000E+00 0.  1.
        -13    1    4    4    0    0  0.11421922358E+03  0.42703507732E+02 -0.83378669627E+02  0.14772143770E+03  0.00000000000E+00 0. -1.
         13    1    4    4    0    0  0.10689341920E+02  0.35168437098E+02  0.18782415795E+02  0.41277840807E+02  0.00000000000E+00 0.  1.
         -3    1    1    2    0  502 -0.42074653683E+01 -0.50690183190E+02 -0.12344470927E+03  0.13351327156E+03  0.00000000000E+00 0.  1.
<scales pt_clust_5="13000.00000" pt_clust_6="13000.00000" pt_clust_7="13000.00000" pt_clust_8="13000.00000" pt_clust_9="50.86453"></scales>
<clustering>
<clus scale="   50.865">  1  9  2 -1</clus>
<clus scale="   79.979">  5  6 -1 -1</clus>
<clus scale="   99.408">  7  8 -1 -1</clus>
<clus scale="  151.780">  2  5  1 -1</clus>
<clus scale="   50.865">  1  5  2 -1</clus>
</clustering>
</event>
<event>
 9    1  0.6270443E-005  0.1263331E+03  0.7546771E-02  0.1236087E+00
          1   -1    0    0  502    0 -0.00000000000E+00  0.00000000000E+00  0.80601967491E+02  0.80601967491E+02  0.00000000000E+00 0. -1.
         21   -1    0    0  501  502  0.00000000000E+00 -0.00000000000E+00 -0.39709326835E+03  0.39709326835E+03  0.00000000000E+00 0.  1.
        -24    2    1    2    0    0 -0.77166035661E+02 -0.57540908332E+02  0.26278216635E+01  0.12535788779E+03  0.80262951567E+02 0.  0.
         23    2    1    2    0    0  0.41172195423E+02  0.32018907618E+02 -0.22936509528E+03  0.25232377666E+03  0.91315832218E+02 0.  0.
         13    1    3    3    0    0 -0.58340896535E+02 -0.75078617080E+02  0.15909932586E+02  0.96403241159E+02  0.00000000000E+00 0. -1.
        -14    1    3    3    0    0 -0.18825139126E+02  0.17537708747E+02 -0.13282110923E+02  0.28954646635E+02  0.00000000000E+00 0.  1.
        -11    1    4    4    0    0  0.30946700022E+02  0.52638612788E+02 -0.21850089818E+03  0.22687257284E+03  0.00000000000E+00 0.  1.
         11    1    4    4    0    0  0.10225495402E+02 -0.20619705170E+02 -0.10864197099E+02  0.25451203824E+02  0.00000000000E+00 0. -1.
          2    1    1    2  501    0  0.35993840238E+02  0.25522000714E+02 -0.89754027246E+02  0.10001357139E+03  0.00000000000E+00 0. -1.
<scales pt_clust_5="13000.00000" pt_clust_6="13000.00000" pt_clust_7="13000.00000" pt_clust_8="13000.00000" pt_clust_9="44.12402"></scales>
<clustering>
<clus scale="   44.124">  2  9  1 -1</clus>
<clus scale="   80.263">  5  6 -1 -1</clus>
<clus scale="   91.316">  7  8 -1 -1</clus>
<clus scale="  118.590">  1  5  2 -1</clus>
<clus scale="   44.124">  2  5  1 -1</clus>
</clustering>
</event>
<event>
 9    1  0.6270443E-005  0.2334932E+03  0.7546771E-02  0.1124358E+00
          1   -1    0    0  502    0 -0.00000000000E+00  0.00000000000E+00  0.14212878083E+04  0.14212878083E+04  0.00000000000E+00 0. -1.
         21   -1    0    0  501  502  0.00000000000E+00 -0.00000000000E+00 -0.74499982747E+02  0.74499982747E+02  0.00000000000E+00 0. -1.
        -24    2    1    2    0    0  0.20803342579E+03  0.24391697514E+02  0.47588468823E+03  0.52609658333E+03  0.80240372315E+02 0.  0.
         23    2    1    2    0    0 -0.18178844376E+03 -0.17600424488E+03  0.62872446339E+03  0.68276669899E+03  0.82773074613E+02 0.  0.
         13    1    3    3    0    0  0.18087795907E+03  0.45483528127E+02  0.36329358492E+03  0.40837215411E+03  0.00000000000E+00 0. -1.
        -14    1    3    3    0    0  0.27155466720E+02 -0.21091830613E+02  0.11259110331E+03  0.11772442922E+03  0.00000000000E+00 0.  1.
        -13    1    4    4    0    0 -0.11418085871E+03 -0.82387349056E+02  0.43517553189E+03  0.45738680276E+03  0.00000000000E+00 0. -1.
         13    1    4    4    0    0 -0.67607585048E+02 -0.93616895829E+02  0.19354893150E+03  0.22537989623E+03  0.00000000000E+00 0.  1.
          2    1    1    2  501    0 -0.26244982035E+02  0.15161254737E+03  0.24217867396E+03  0.28692450875E+03  0.00000000000E+00 0. -1.
<scales pt_clust_5="13000.00000" pt_clust_6="13000.00000" pt_clust_7="13000.00000" pt_clust_8="13000.00000" pt_clust_9="153.86736"></scales>
<clustering>
<clus scale="   80.240">  5  6 -1 -1</clus>
<clus scale="   82.773">  7  8 -1 -1</clus>
<clus scale="  153.867">  2  9  1 -1</clus>
<clus scale="  232.607">  1  5  2 -1</clus>
<clus scale="  153.867">  2  5  1 -1</clus>
</clustering>
</event>
<event>
 9    1  0.6270443E-005  0.1388734E+03  0.7546771E-02  0.1228744E+00
          1   -1    0    0  502    0 -0.00000000000E+00  0.00000000000E+00  0.80471126953E+03  0.80471126953E+03  0.00000000000E+00 0. -1.
         21   -1    0    0  501  502  0.00000000000E+00 -0.00000000000E+00 -0.66846688437E+02  0.66846688437E+02  0.00000000000E+00 0. -1.
         23    2    1    2    0    0 -0.44081030404E+01  0.49925205882E+02  0.68023046239E+02  0.12412882967E+03  0.90933349116E+02 0.  0.
        -24    2    1    2    0    0 -0.64730508419E+02 -0.13282510747E+03  0.58916810562E+03  0.61266732561E+03  0.80060272881E+02 0.  0.
         13    1    4    4    0    0  0.15541299515E+02 -0.48799701606E+02  0.15658393757E+03  0.16474669154E+03  0.00000000000E+00 0. -1.
        -14    1    4    4    0    0 -0.80271807934E+02 -0.84025405866E+02  0.43258416805E+03  0.44792063408E+03  0.00000000000E+00 0.  1.
        -13    1    3    3    0    0  0.21008754009E+02  0.62194744931E+02  0.69836550590E+02  0.95847263082E+02  0.00000000000E+00 0.  1.
         13    1    3    3    0    0 -0.25416857050E+02 -0.12269539049E+02 -0.18135043505E+01  0.28281566590E+02  0.00000000000E+00 0. -1.
          2    1    1    2  501    0  0.69138611460E+02  0.82899901589E+02  0.80673429229E+02  0.13476180268E+03  0.00000000000E+00 0. -1.
<scales pt_clust_5="13000.00000" pt_clust_6="13000.00000" pt_clust_7="13000.00000" pt_clust_8="13000.00000" pt_clust_9="113.47326"></scales>
<clustering>
<clus scale="   80.060">  5  6 -1 -1</clus>
<clus scale="   90.933">  7  8 -1 -1</clus>
<clus scale="  103.831">  1  7  2 -1</clus>
<clus scale="  113.473">  2  9  1 -1</clus>
<clus scale="  113.473">  2  5  1 -1</clus>
</clustering>
</event>
<event>
 9    1  0.6270443E-005  0.2071848E+03  0.7546771E-02  0.1144357E+00
         21   -1    0    0  501  502  0.00000000000E+00  0.00000000000E+00  0.36258931004E+03  0.36258931004E+03  0.00000000000E+00 0.  1.
          1   -1    0    0  502    0 -0.00000000000E+00 -0.00000000000E+00 -0.13777993213E+03  0.13777993213E+03  0.00000000000E+00 0. -1.
         23    2    1    2    0    0 -0.18079265585E+03  0.12069066966E+02  0.79548304382E+02  0.21578738316E+03  0.86050073872E+02 0.  0.
        -24    2    1    2    0    0  0.19484875215E+03 -0.39243558585E+02  0.12960446119E+03  0.25021390377E+03  0.79395139501E+02 0.  0.
         13    1    4    4    0    0  0.62297819476E+02 -0.51509561670E+02  0.45662442310E+02  0.92840249314E+02  0.00000000000E+00 0. -1.
        -14    1    4    4    0    0  0.13255093267E+03  0.12266003085E+02  0.83942018878E+02  0.15737365446E+03  0.00000000000E+00 0.  1.
        -13    1    3    3    0    0 -0.97146765185E+02 -0.36104618983E+02  0.48192239726E+02  0.11429579812E+03  0.00000000000E+00 0.  1.
         13    1    3    3    0    0 -0.83645890662E+02  0.48173685949E+02  0.31356064656E+02  0.10149158504E+03  0.00000000000E+00 0. -1.
          2    1    1    2  501    0 -0.14056096301E+02  0.27174491619E+02  0.15656612338E+02  0.34367955248E+02  0.00000000000E+00 0. -1.
<scales pt_clust_5="13000.00000" pt_clust_6="13000.00000" pt_clust_7="13000.00000" pt_clust_8="13000.00000" pt_clust_9="30.59456"></scales>
<clustering>
<clus scale="   30.595">  1  9  2 -1</clus>
<clus scale="   79.395">  5  6 -1 -1</clus>
<clus scale="   86.050">  7  8 -1 -1</clus>
<clus scale="  204.510">  1  5  2 -1</clus>
<clus scale="   30.595">  1  5  2 -1</clus>
</clustering>
</event>
<event>
 9    1  0.6270443E-005  0.1150755E+03  0.7546771E-02  0.1255926E+00
         -4   -1    0    0    0  501 -0.00000000000E+00  0.00000000000E+00  0.10982732008E+03  0.10982732008E+03  0.00000000000E+00 0.  1.
         21   -1    0    0  501  502  0.00000000000E+00 -0.00000000000E+00 -0.16696118767E+03  0.16696118767E+03  0.00000000000E+00 0. -1.
         23    2    1    2    0    0  0.22296788078E+02 -0.75310029249E+02  0.22915199126E+02  0.12349510464E+03  0.92505066102E+02 0.  0.
        -24    2    1    2    0    0 -0.16517826145E+02  0.45297664660E+02 -0.79605695258E+02  0.12272650912E+03  0.80000077001E+02 0.  0.
         11    1    4    4    0    0 -0.33457243478E+02  0.77407907612E+01 -0.73433394979E+02  0.81066457187E+02  0.00000000000E+00 0. -1.
        -12    1    4    4    0    0  0.16939417334E+02  0.37556873899E+02 -0.61723002790E+01  0.41660051937E+02  0.00000000000E+00 0.  1.
        -11    1    3    3    0    0  0.50548978762E+02 -0.12190587901E+02  0.13335132018E+02  0.53680866546E+02  0.00000000000E+00 0. -1.
         11    1    3    3    0    0 -0.28252190684E+02 -0.63119441349E+02  0.95800671074E+01  0.69814238092E+02  0.00000000000E+00 0.  1.
         -3    1    1    2    0  502 -0.57789619331E+01  0.30012364589E+02 -0.44337145852E+00  0.30566893979E+02  0.00000000000E+00 0.  1.
<scales pt_clust_5="13000.00000" pt_clust_6="13000.00000" pt_clust_7="13000.00000" pt_clust_8="13000.00000" pt_clust_9="30.56369"></scales>
<clustering>
<clus scale="   30.564">  2  9  1 -1</clus>
<clus scale="   80.000">  5  6 -1 -1</clus>
<clus scale="   92.505">  7  8 -1 -1</clus>
<clus scale="  105.286">  2  5  1 -1</clus>
<clus scale="   30.564">  2  5  1 -1</clus>
</clustering>
</event>
<event>
 9    1  0.6270443E-005  0.2802887E+03  0.7546771E-02  0.1124397E+00
         21   -1    0    0  501  502  0.00000000000E+00  0.00000000000E+00  0.15277545083E+04  0.15277545083E+04  0.00000000000E+00 0. -1.
          3   -1    0    0  502    0 -0.00000000000E+00 -0.00000000000E+00 -0.17930124227E+03  0.17930124227E+03  0.00000000000E+00 0. -1.
         23    2    1    2    0    0 -0.93881434930E+02  0.28459156455E+02  0.23378022820E+03  0.26963151575E+03  0.91784049698E+02 0.  0.
        -24    2    1    2    0    0  0.34195155931E+03  0.52982453214E+02  0.71263380598E+02  0.36184288726E+03  0.78190769147E+02 0.  0.
         13    1    4    4    0    0  0.34060919869E+03  0.51484253307E+02  0.59096197728E+02  0.34951053655E+03  0.00000000000E+00 0. -1.
        -14    1    4    4    0    0  0.13423606195E+01  0.14981999071E+01  0.12167182871E+02  0.12332350709E+02  0.00000000000E+00 0.  1.
        -13    1    3    3    0    0 -0.97912259603E+00  0.24081268151E+02  0.12134265778E+03  0.12371300156E+03  0.00000000000E+00 0.  1.
         13    1    3    3    0    0 -0.92902312334E+02  0.43778883039E+01  0.11243757041E+03  0.14591851419E+03  0.00000000000E+00 0. -1.
          4    1    1    2  501    0 -0.24807012438E+03 -0.81441609670E+02  0.10434096572E+04  0.10755813475E+04  0.00000000000E+00 0. -1.
<scales pt_clust_5="13000.00000" pt_clust_6="13000.00000" pt_clust_7="13000.00000" pt_clust_8="13000.00000" pt_clust_9="269.16164"></scales>
<clustering>
<clus scale="   78.191">  5  6 -1 -1</clus>
<clus scale="   91.784">  7  8 -1 -1</clus>
<clus scale="  134.343">  2  7  1 -1</clus>
<clus scale="  269.162">  1  9  2 -1</clus>
<clus scale="  269.162">  1  5  2 -1</clus>
</clustering>
</event>
<event>
 9    1  0.6270443E-005  0.1103848E+03  0.7546771E-02  0.1263468E+00
         21   -1    0    0  501  502  0.00000000000E+00  0.00000000000E+00  0.15716995660E+02  0.15716995660E+02  0.00000000000E+00 0. -1.
          1   -1    0    0  502    0 -0.00000000000E+00 -0.00000000000E+00 -0.14081418720E+04  0.14081418720E+04  0.00000000000E+00 0. -1.
        -24    2    1    2    0    0  0.35117543253E+02 -0.52498711774E+02 -0.52083377800E+03  0.53079480427E+03  0.80535354686E+02 0.  0.
         23    2    1    2    0    0 -0.80482629653E+02  0.12042580391E+02 -0.41254241540E+03  0.43000857758E+03  0.89964742358E+02 0.  0.
         13    1    3    3    0    0 -0.22797693561E+02 -0.76284927140E+01 -0.69190164990E+02  0.73247577872E+02  0.00000000000E+00 0. -1.
        -14    1    3    3    0    0  0.57915236814E+02 -0.44870219060E+02 -0.45164361301E+03  0.45754722640E+03  0.00000000000E+00 0.  1.
        -11    1    4    4    0    0 -0.17130081432E+02 -0.20051684501E+02 -0.26133908280E+02  0.37128033926E+02  0.00000000000E+00 0. -1.
         11    1    4    4    0    0 -0.63352548220E+02  0.32094264892E+02 -0.38640850712E+03  0.39288054365E+03  0.00000000000E+00 0.  1.
          2    1    1    2  501    0  0.45365086399E+02  0.40456131383E+02 -0.45904868296E+03  0.46305548583E+03  0.00000000000E+00 0. -1.
<scales pt_clust_5="13000.00000" pt_clust_6="13000.00000" pt_clust_7="13000.00000" pt_clust_8="13000.00000" pt_clust_9="60.78399"></scales>
<clustering>
<clus scale="   60.784">  1  9  2 -1</clus>
<clus scale="   80.535">  5  6 -1 -1</clus>
<clus scale="   89.965">  7  8 -1 -1</clus>
<clus scale="  102.845">  2  5  1 -1</clus>
<clus scale="   60.784">  1  5  2 -1</clus>
</clustering>
</event>
<event>
 9    1  0.6270443E-005  0.9840268E+02  0.7546771E-02  0.1299205E+00
         21   -1    0    0  501  502  0.00000000000E+00  0.00000000000E+00  0.83595820429E+02  0.83595820429E+02  0.00000000000E+00 0.  1.
         -4   -1    0    0    0  501 -0.00000000000E+00 -0.00000000000E+00 -0.30606689582E+03  0.30606689582E+03  0.00000000000E+00 0.  1.
         23    2    1    2    0    0 -0.18191214413E+02  0.35961729086E+02 -0.23389319507E+03  0.25457715632E+03  0.92083307830E+02 0.  0.
        -24    2    1    2    0    0 -0.36513762850E+02 -0.25765968576E+02  0.39516307303E+01  0.78939355472E+02  0.64951262057E+02 0.  0.
         13    1    4    4    0    0  0.10182516655E+02 -0.28089603187E+02  0.10625515708E+02  0.31711370779E+02  0.00000000000E+00 0. -1.
        -14    1    4    4    0    0 -0.46696279505E+02  0.23236346117E+01 -0.66738849776E+01  0.47227984693E+02  0.00000000000E+00 0.  1.
        -13    1    3    3    0    0 -0.97932544715E+01  0.63526755917E+02 -0.20007819472E+03  0.21014956710E+03  0.00000000000E+00 0.  1.
         13    1    3    3    0    0 -0.83979599411E+01 -0.27565026830E+02 -0.33815000345E+02  0.44427589217E+02  0.00000000000E+00 0. -1.
         -3    1    1    2    0  502  0.54704977262E+02 -0.10195760511E+02  0.74704889466E+01  0.56146204456E+02  0.00000000000E+00 0.  1.
<scales pt_clust_5="13000.00000" pt_clust_6="13000.00000" pt_clust_7="13000.00000" pt_clust_8="13000.00000" pt_clust_9="55.64700"></scales>
<clustering>
<clus scale="   55.647">  1  9  2 -1</clus>
<clus scale="   64.951">  5  6 -1 -1</clus>
<clus scale="   73.637">  1  5  2 -1</clus>
<clus scale="   92.083">  7  8 -1 -1</clus>
<clus scale="   55.647">  1  5  2 -1</clus>
</clustering>
</event>
<event>
 9    1  0.6270443E-005  0.2309842E+03  0.7546771E-02  0.1127027E+00
          1   -1    0    0  502    0 -0.00000000000E+00  0.00000000000E+00  0.55082320303E+03  0.55082320303E+03  0.00000000000E+00 0. -1.
         21   -1    0    0  501  502  0.00000000000E+00 -0.00000000000E+00 -0.27098884534E+03  0.27098884534E+03  0.00000000000E+00 0. -1.
         23    2    1    2    0    0 -0.18782224845E+03 -0.68109358835E+02  0.63140601572E+02  0.23023528638E+03  0.95422585133E+02 0.  0.
        -24    2    1    2    0    0  0.22765035997E+03  0.57038271053E+02 -0.10361632346E+03  0.26861020871E+03  0.79605596411E+02 0.  0.
         13    1    4    4    0    0  0.21274048066E+03  0.54984788825E+02 -0.11658348572E+03  0.24874394114E+03  0.00000000000E+00 0. -1.
        -14    1    4    4    0    0  0.14909879307E+02  0.20534822279E+01  0.12967162256E+02  0.19866267571E+02  0.00000000000E+00 0.  1.
        -13    1    3    3    0    0 -0.56750321208E+02  0.20759769068E+02  0.33610619594E+02  0.69146516315E+02  0.00000000000E+00 0.  1.
         13    1    3    3    0    0 -0.13107192724E+03 -0.88869127904E+02  0.29529981978E+02  0.16108877007E+03  0.00000000000E+00 0. -1.
          2    1    1    2  501    0 -0.39828111516E+02  0.11071087783E+02  0.32031007958E+03  0.32296655327E+03  0.00000000000E+00 0. -1.
<scales pt_clust_5="13000.00000" pt_clust_6="13000.00000" pt_clust_7="13000.00000" pt_clust_8="13000.00000" pt_clust_9="41.33823"></scales>
<clustering>
<clus scale="   41.338">  2  9  1 -1</clus>
<clus scale="   79.606">  5  6 -1 -1</clus>
<clus scale="   95.423">  7  8 -1 -1</clus>
<clus scale="  224.912">  2  5  1 -1</clus>
<clus scale="   41.338">  2  5  1 -1</clus>
</clustering>
</event>
<event>
 9    1  0.6270443E-005  0.1672743E+03  0.7546771E-02  0.1207124E+00
         21   -1    0    0  501  502  0.00000000000E+00  0.00000000000E+00  0.96381306252E+03  0.96381306252E+03  0.00000000000E+00 0.  1.
         -2   -1    0    0    0  501 -0.00000000000E+00 -0.00000000000E+00 -0.16117008472E+03  0.16117008472E+03  0.00000000000E+00 0.  1.
        -24    2    1    2    0    0  0.23449842000E+02 -0.44356351999E+02 -0.42640700673E+02  0.10294713392E+03  0.79135971444E+02 0.  0.
         23    2    1    2    0    0  0.96526686173E+01 -0.95949647390E+02 -0.29670756351E+02  0.13528530839E+03  0.90123537648E+02 0.  0.
         13    1    3    3    0    0  0.26385721547E+02 -0.38061883913E+02 -0.64842939962E+02  0.79683876484E+02  0.00000000000E+00 0. -1.
        -14    1    3    3    0    0 -0.29358795475E+01 -0.62944680866E+01  0.22202239289E+02  0.23263257438E+02  0.00000000000E+00 0.  1.
        -11    1    4    4    0    0  0.49332631471E+02 -0.52564903401E+02 -0.25022062746E+02  0.76307805770E+02  0.00000000000E+00 0.  1.
         11    1    4    4    0    0 -0.39679962854E+02 -0.43384743989E+02 -0.46486936052E+01  0.58977502620E+02  0.00000000000E+00 0. -1.
         -1    1    1    2    0  502 -0.33102510617E+02  0.14030599939E+03  0.87495443482E+03  0.88675070493E+03  0.00000000000E+00 0.  1.
<scales pt_clust_5="13000.00000" pt_clust_6="13000.00000" pt_clust_7="13000.00000" pt_clust_8="13000.00000" pt_clust_9="140.92003"></scales>
<clustering>
<clus scale="   79.136">  5  6 -1 -1</clus>
<clus scale="   90.124">  7  8 -1 -1</clus>
<clus scale="   93.701">  2  5  1 -1</clus>
<clus scale="  140.920">  1  9  2 -1</clus>
<clus scale="  140.920">  1  5  2 -1</clus>
</clustering>
</event>
<event>
 9    1  0.6270443E-005  0.2722007E+03  0.7546771E-02  0.1134182E+00
          1   -1    0    0  502    0 -0.00000000000E+00  0.00000000000E+00  0.60765171167E+03  0.60765171167E+03  0.00000000000E+00 0. -1.
         21   -1    0    0  501  502  0.00000000000E+00 -0.00000000000E+00 -0.20778741691E+03  0.20778741691E+03  0.00000000000E+00 0. -1.
         23    2    1    2    0    0 -0.43982620495E+02 -0.54697559662E+02  0.22549546697E+03  0.25326616369E+03  0.91483605684E+02 0.  0.
        -24    2    1    2    0    0 -0.37663290803E+02 -0.22323210159E+03  0.92268527315E+02  0.26108923770E+03  0.91667956536E+02 0.  0.
         11    1    4    4    0    0 -0.35201323842E+02 -0.89925099645E+02 -0.39761100745E+01  0.96651260714E+02  0.00000000000E+00 0. -1.
        -12    1    4    4    0    0 -0.24619669610E+01 -0.13330700195E+03  0.96244637389E+02  0.16443797699E+03  0.00000000000E+00 0.  1.
        -13    1    3    3    0    0 -0.69669912632E+01  0.25742480842E+02  0.56501293937E+02  0.62478880462E+02  0.00000000000E+00 0. -1.
         13    1    3    3    0    0 -0.37015629232E+02 -0.80440040504E+02  0.16899417303E+03  0.19078728323E+03  0.00000000000E+00 0.  1.
          2    1    1    2  501    0  0.81645911298E+02  0.27792966125E+03  0.82100300473E+02  0.30108372718E+03  0.00000000000E+00 0. -1.
<scales pt_clust_5="13000.00000" pt_clust_6="13000.00000" pt_clust_7="13000.00000" pt_clust_8="13000.00000" pt_clust_9="256.30110"></scales>
<clustering>
<clus scale="   91.484">  7  8 -1 -1</clus>
<clus scale="   91.668">  5  6 -1 -1</clus>
<clus scale="  115.306">  1  7  2 -1</clus>
<clus scale="  256.301">  2  9  1 -1</clus>
<clus scale="  256.301">  2  5  1 -1</clus>
</clustering>
</event>
<event>
 9    1  0.6270443E-005  0.9951354E+02  0.7546771E-02  0.1282683E+00
          3   -1    0    0  502    0 -0.00000000000E+00  0.00000000000E+00  0.35926233699E+03  0.35926233699E+03  0.00000000000E+00 0. -1.
         21   -1    0    0  501  502  0.00000000000E+00 -0.00000000000E+00 -0.20442279377E+03  0.20442279377E+03  0.00000000000E+00 0. -1.
         23    2    1    2    0    0  0.45583771557E+02 -0.14521177349E+02  0.25582426000E+03  0.27633705251E+03  0.92883635589E+02 0.  0.
        -24    2    1    2    0    0  0.16346606723E+02 -0.65018262832E+02  0.41188098194E+02  0.11306381730E+03  0.81193480630E+02 0.  0.
         13    1    4    4    0    0  0.30455412151E+02 -0.59688840907E+02  0.59309860538E+02  0.89487146648E+02  0.00000000000E+00 0. -1.
        -14    1    4    4    0    0 -0.14108805427E+02 -0.53294219242E+01 -0.18121762344E+02  0.23576670653E+02  0.00000000000E+00 0.  1.
        -13    1    3    3    0    0  0.14433737552E+02  0.34476212432E+02  0.49662524914E+02  0.62155517730E+02  0.00000000000E+00 0.  1.
         13    1    3    3    0    0  0.31150034005E+02 -0.48997389782E+02  0.20616173509E+03  0.21418153478E+03  0.00000000000E+00 0. -1.
          4    1    1    2  501    0 -0.61930378280E+02  0.79539440181E+02 -0.14217281497E+03  0.17428426095E+03  0.00000000000E+00 0. -1.
<scales pt_clust_5="13000.00000" pt_clust_6="13000.00000" pt_clust_7="13000.00000" pt_clust_8="13000.00000" pt_clust_9="100.80622"></scales>
<clustering>
<clus scale="   81.193">  5  6 -1 -1</clus>
<clus scale="   92.884">  7  8 -1 -1</clus>
<clus scale="  100.806">  2  9  1 -1</clus>
<clus scale="  100.806">  2  5  1 -1</clus>
<clus scale="   99.514">  2  5  1 -1</clus>
</clustering>
</event>
<event>
 9    1  0.6270443E-005  0.9589519E+02  0.7546771E-02  0.1292801E+00
         21   -1    0    0  501  502  0.00000000000E+00  0.00000000000E+00  0.11294941577E+03  0.11294941577E+03  0.00000000000E+00 0. -1.
         -2   -1    0    0    0  501 -0.00000000000E+00 -0.00000000000E+00 -0.19184956251E+03  0.19184956251E+03  0.00000000000E+00 0.  1.
        -24    2    1    2    0    0  0.25102975469E+02  0.16983800438E+02 -0.13368775854E+03  0.16192529033E+03  0.86190335943E+02 0.  0.
         23    2    1    2    0    0  0.10910544755E+02 -0.11147392912E+02  0.29698542998E+02  0.98596169227E+02  0.92714059205E+02 0.  0.
         11    1    3    3    0    0  0.22227586949E+02 -0.30706553149E+02 -0.88008494781E+02  0.95825117697E+02  0.00000000000E+00 0. -1.
        -12    1    3    3    0    0  0.28753885204E+01  0.47690353587E+02 -0.45679263756E+02  0.66100172630E+02  0.00000000000E+00 0.  1.
        -13    1    4    4    0    0 -0.17884302913E+02  0.34107729516E+02  0.28626691048E+01  0.38618394294E+02  0.00000000000E+00 0.  1.
         13    1    4    4    0    0  0.28794847668E+02 -0.45255122428E+02  0.26835873893E+02  0.59977774932E+02  0.00000000000E+00 0. -1.
         -1    1    1    2    0  502 -0.36013520225E+02 -0.58364075258E+01  0.25089068793E+02  0.44277518728E+02  0.00000000000E+00 0.  1.
<scales pt_clust_5="13000.00000" pt_clust_6="13000.00000" pt_clust_7="13000.00000" pt_clust_8="13000.00000" pt_clust_9="36.48338"></scales>
<clustering>
<clus scale="   36.483">  1  9  2 -1</clus>
<clus scale="   86.190">  5  6 -1 -1</clus>
<clus scale="   89.603">  2  5  1 -1</clus>
<clus scale="   92.714">  7  8 -1 -1</clus>
<clus scale="   36.483">  1  5  2 -1</clus>
</clustering>
</event>
<event>
 9    1  0.6270443E-005  0.1243658E+03  0.7546771E-02  0.1255506E+00
          1   -1    0    0  502    0 -0.00000000000E+00  0.00000000000E+00  0.73683885186E+03  0.73683885186E+03  0.00000000000E+00 0. -1.
         21   -1    0    0  501  502  0.00000000000E+00 -0.00000000000E+00 -0.37512781506E+02  0.37512781506E+02  0.00000000000E+00 0. -1.
        -24    2    1    2    0    0 -0.51133445351E+01 -0.31864820023E+02  0.30809620893E+03  0.31937009467E+03  0.77668979420E+02 0.  0.
         23    2    1    2    0    0  0.24261471955E+02 -0.70631294434E+02  0.13732753266E+03  0.18050294788E+03  0.90250009385E+02 0.  0.
         13    1    3    3    0    0 -0.26770564034E+02 -0.40417944068E+02  0.27287317478E+03  0.27714624807E+03  0.00000000000E+00 0. -1.
        -14    1    3    3    0    0  0.21657219498E+02  0.85531240450E+01  0.35223034147E+02  0.42223846602E+02  0.00000000000E+00 0.  1.
        -13    1    4    4    0    0  0.44747018964E+02 -0.62522942282E+02  0.53095891795E+02  0.93437614178E+02  0.00000000000E+00 0. -1.
         13    1    4    4    0    0 -0.20485547009E+02 -0.81083521518E+01  0.84231640861E+02  0.87065333704E+02  0.00000000000E+00 0.  1.
          2    1    1    2  501    0 -0.19148127420E+02  0.10249611446E+03  0.25390232876E+03  0.27447859081E+03  0.00000000000E+00 0. -1.
<scales pt_clust_5="13000.00000" pt_clust_6="13000.00000" pt_clust_7="13000.00000" pt_clust_8="13000.00000" pt_clust_9="85.56751"></scales>
<clustering>
<clus scale="   77.669">  5  6 -1 -1</clus>
<clus scale="   84.107">  1  5  2 -1</clus>
<clus scale="   85.568">  2  9  1 -1</clus>
<clus scale="   90.250">  7  8 -1 -1</clus>
<clus scale="   85.568">  2  5  1 -1</clus>
</clustering>
</event>
<event>
 9    1  0.6270443E-005  0.1067915E+03  0.7546771E-02  0.1267457E+00
         -4   -1    0    0    0  501 -0.00000000000E+00  0.00000000000E+00  0.17506100034E+03  0.17506100034E+03  0.00000000000E+00 0.  1.
         21   -1    0    0  501  502  0.00000000000E+00 -0.00000000000E+00 -0.12729036284E+03  0.12729036284E+03  0.00000000000E+00 0. -1.
        -24    2    1    2    0    0  0.62935067994E+02 -0.19709871971E+02  0.46929195879E+02  0.11914785158E+03  0.87433170330E+02 0.  0.
         23    2    1    2    0    0 -0.18504055215E+02  0.58761334951E+02 -0.34889134192E+02  0.11409630716E+03  0.89473018716E+02 0.  0.
         13    1    3    3    0    0  0.59791700636E+02  0.16737453140E+02  0.53523875673E+02  0.81975576056E+02  0.00000000000E+00 0. -1.
        -14    1    3    3    0    0  0.31433673583E+01 -0.36447325111E+02 -0.65946797948E+01  0.37172275525E+02  0.00000000000E+00 0.  1.
        -13    1    4    4    0    0  0.29441931381E+02  0.50708899772E+02 -0.10016191778E+02  0.59485661611E+02  0.00000000000E+00 0.  1.
         13    1    4    4    0    0 -0.47945986596E+02  0.80524351789E+01 -0.24872942414E+02  0.54610645549E+02  0.00000000000E+00 0. -1.
         -3    1    1    2    0  502 -0.44431012779E+02 -0.39051462981E+02  0.35730575808E+02  0.69107204437E+02  0.00000000000E+00 0.  1.
<scales pt_clust_5="13000.00000" pt_clust_6="13000.00000" pt_clust_7="13000.00000" pt_clust_8="13000.00000" pt_clust_9="59.15349"></scales>
<clustering>
<clus scale="   59.153">  2  9  1 -1</clus>
<clus scale="   87.433">  5  6 -1 -1</clus>
<clus scale="   89.473">  7  8 -1 -1</clus>
<clus scale="  105.088">  1  5  2 -1</clus>
<clus scale="   59.153">  2  5  1 -1</clus>
</clustering>
</event>
<event>
 9    1  0.6270443E-005  0.1283002E+03  0.7546771E-02  0.1232055E+00
          1   -1    0    0  502    0 -0.00000000000E+00  0.00000000000E+00  0.66867332543E+03  0.66867332543E+03  0.00000000000E+00 0. -1.
         21   -1    0    0  501  502  0.00000000000E+00 -0.00000000000E+00 -0.50889429550E+02  0.50889429550E+02  0.00000000000E+00 0. -1.
         23    2    1    2    0    0 -0.89199439443E+02 -0.55124992566E+02  0.42536368723E+03  0.44682804741E+03  0.87896147423E+02 0.  0.
        -24    2    1    2    0    0  0.18975494874E+02  0.82889829310E+02  0.10260483099E+03  0.15539293916E+03  0.79927598426E+02 0.  0.
         13    1    4    4    0    0  0.19567128433E+02  0.89498673642E+02  0.11149138360E+03  0.14430250766E+03  0.00000000000E+00 0. -1.
        -14    1    4    4    0    0 -0.59163355909E+00 -0.66088443322E+01 -0.88865526100E+01  0.11090431505E+02  0.00000000000E+00 0.  1.
        -13    1    3    3    0    0 -0.67779898485E+02 -0.73536204561E+02  0.38351177228E+03  0.39633693683E+03  0.00000000000E+00 0. -1.
         13    1    3    3    0    0 -0.21419540958E+02  0.18411211995E+02  0.41851914952E+02  0.50491110576E+02  0.00000000000E+00 0.  1.
          2    1    1    2  501    0  0.70223944569E+02 -0.27764836744E+02  0.89815377655E+02  0.11734176841E+03  0.00000000000E+00 0. -1.
<scales pt_clust_5="13000.00000" pt_clust_6="13000.00000" pt_clust_7="13000.00000" pt_clust_8="13000.00000" pt_clust_9="75.51350"></scales>
<clustering>
<clus scale="   75.513">  2  9  1 -1</clus>
<clus scale="   79.928">  5  6 -1 -1</clus>
<clus scale="   87.896">  7  8 -1 -1</clus>
<clus scale="  122.978">  2  5  1 -1</clus>
<clus scale="   75.513">  2  5  1 -1</clus>
</clustering>
</event>
<event>
 9    1  0.6270443E-005  0.1031030E+03  0.7546771E-02  0.1277667E+00
         -4   -1    0    0    0  501 -0.00000000000E+00  0.00000000000E+00  0.13757371212E+03  0.13757371212E+03  0.00000000000E+00 0.  1.
         21   -1    0    0  501  502  0.00000000000E+00 -0.00000000000E+00 -0.19725898039E+03  0.19725898039E+03  0.00000000000E+00 0.  1.
         23    2    1    2    0    0  0.46287601068E+02 -0.23782400277E+02  0.75198586702E+02  0.12887291999E+03  0.90803400201E+02 0.  0.
        -24    2    1    2    0    0 -0.49646687690E+02 -0.30467512949E+02 -0.93159406159E+02  0.13743776017E+03  0.82567548223E+02 0.  0.
         11    1    4    4    0    0 -0.10203124364E+02  0.28401932100E+02 -0.28508636306E+02  0.41515248257E+02  0.00000000000E+00 0. -1.
        -12    1    4    4    0    0 -0.39443563326E+02 -0.58869445050E+02 -0.64650769853E+02  0.95922511909E+02  0.00000000000E+00 0.  1.
        -13    1    3    3    0    0  0.19340826878E+02  0.32482352038E+02  0.11037459705E+02  0.39382690297E+02  0.00000000000E+00 0. -1.
         13    1    3    3    0    0  0.26946774189E+02 -0.56264752315E+02  0.64161126996E+02  0.89490229689E+02  0.00000000000E+00 0.  1.
         -3    1    1    2    0  502  0.33590866224E+01  0.54249913227E+02 -0.41724448818E+02  0.68522012355E+02  0.00000000000E+00 0.  1.
<scales pt_clust_5="13000.00000" pt_clust_6="13000.00000" pt_clust_7="13000.00000" pt_clust_8="13000.00000" pt_clust_9="54.35381"></scales>
<clustering>
<clus scale="   54.354">  2  9  1 -1</clus>
<clus scale="   82.568">  5  6 -1 -1</clus>
<clus scale="   90.803">  7  8 -1 -1</clus>
<clus scale="   95.929">  2  5  1 -1</clus>
<clus scale="   54.354">  2  5  1 -1</clus>
</clustering>
</event>
<event>
 9    1  0.6270443E-005  0.1295141E+03  0.7546771E-02  0.1239930E+00
         -2   -1    0    0    0  501 -0.00000000000E+00  0.00000000000E+00  0.54099388719E+02  0.54099388719E+02  0.00000000000E+00 0.  1.
         21   -1    0    0  501  502  0.00000000000E+00 -0.00000000000E+00 -0.52357206358E+03  0.52357206358E+03  0.00000000000E+00 0. -1.
         23    2    1    2    0    0  0.33151051957E+02  0.28320406357E+02 -0.19732037670E+03  0.23058572146E+03  0.11105586980E+03 0.  0.
        -24    2    1    2    0    0 -0.83553549744E+02 -0.49481230104E+02 -0.26425739084E+03  0.29185420174E+03  0.76924109706E+02 0.  0.
         11    1    4    4    0    0 -0.80411651223E+02 -0.33111996806E+02 -0.26068532310E+03  0.27480770671E+03  0.00000000000E+00 0. -1.
        -12    1    4    4    0    0 -0.31418985205E+01 -0.16369233297E+02 -0.35720677373E+01  0.17046495035E+02  0.00000000000E+00 0.  1.
        -13    1    3    3    0    0  0.23865410737E+02  0.71266787566E+02 -0.11778552499E+03  0.13972094595E+03  0.00000000000E+00 0.  1.
         13    1    3    3    0    0  0.92856412200E+01 -0.42946381209E+02 -0.79534851707E+02  0.90864775506E+02  0.00000000000E+00 0. -1.
         -1    1    1    2    0  502  0.50402497787E+02  0.21160823747E+02 -0.78949073184E+01  0.55231529097E+02  0.00000000000E+00 0.  1.
<scales pt_clust_5="13000.00000" pt_clust_6="13000.00000" pt_clust_7="13000.00000" pt_clust_8="13000.00000" pt_clust_9="54.66439"></scales>
<clustering>
<clus scale="   54.664">  2  9  1 -1</clus>
<clus scale="   76.924">  5  6 -1 -1</clus>
<clus scale="  101.773">  2  5  1 -1</clus>
<clus scale="  111.056">  7  8 -1 -1</clus>
<clus scale="   54.664">  2  5  1 -1</clus>
</clustering>
</event>
<event>
 9    1  0.6270443E-005  0.1167905E+03  0.7546771E-02  0.1249822E+00
          1   -1    0    0  502    0 -0.00000000000E+00  0.00000000000E+00  0.15663113290E+04  0.15663113290E+04  0.00000000000E+00 0. -1.
         21   -1    0    0  501  502  0.00000000000E+00 -0.00000000000E+00 -0.17189337827E+02  0.17189337827E+02  0.00000000000E+00 0. -1.
         23    2    1    2    0    0 -0.47695873965E+02 -0.42818237841E+02  0.40431143416E+03  0.41541617057E+03  0.70672208788E+02 0.  0.
        -24    2    1    2    0    0  0.12267246830E+03  0.49193263130E+02  0.65011084247E+03  0.66769470997E+03  0.75522225945E+02 0.  0.
         13    1    4    4    0    0  0.98592011403E+02  0.13201852010E+01  0.42797257463E+03  0.43918407557E+03  0.00000000000E+00 0. -1.
        -14    1    4    4    0    0  0.24080456901E+02  0.47873077929E+02  0.22213826784E+03  0.22851063440E+03  0.00000000000E+00 0.  1.
        -11    1    3    3    0    0 -0.23754143444E+02 -0.57209431307E+02  0.33515030598E+03  0.34082679760E+03  0.00000000000E+00 0. -1.
         11    1    3    3    0    0 -0.23941730521E+02  0.14391193466E+02  0.69161128175E+02  0.74589372971E+02  0.00000000000E+00 0.  1.
          2    1    1    2  501    0 -0.74976594339E+02 -0.63750252891E+01  0.49469971453E+03  0.50038978627E+03  0.00000000000E+00 0. -1.
<scales pt_clust_5="13000.00000" pt_clust_6="13000.00000" pt_clust_7="13000.00000" pt_clust_8="13000.00000" pt_clust_9="75.24717"></scales>
<clustering>
<clus scale="   70.672">  7  8 -1 -1</clus>
<clus scale="   75.247">  2  9  1 -1</clus>
<clus scale="   75.522">  5  6 -1 -1</clus>
<clus scale="  113.714">  1  7  2 -1</clus>
<clus scale="   75.247">  2  5  1 -1</clus>
</clustering>
</event>
<event>
 9    1  0.6270443E-005  0.1037848E+03  0.7546771E-02  0.1278481E+00
         21   -1    0    0  501  502  0.00000000000E+00  0.00000000000E+00  0.40646977516E+03  0.40646977516E+03  0.00000000000E+00 0.  1.
          1   -1    0    0  502    0 -0.00000000000E+00 -0.00000000000E+00 -0.77142211759E+02  0.77142211759E+02  0.00000000000E+00 0. -1.
         23    2    1    2    0    0  0.27889812295E+02 -0.41979655375E+02 -0.22074621684E+02  0.10724365474E+03  0.92053133914E+02 0.  0.
        -24    2    1    2    0    0  0.61720225523E+01  0.38508079267E+02  0.31157330450E+03  0.32384595446E+03  0.79229490130E+02 0.  0.
         11    1    4    4    0    0  0.70101109767E+01  0.19548528577E+02  0.12641699513E+02  0.24312531583E+02  0.00000000000E+00 0. -1.
        -12    1    4    4    0    0 -0.83808842439E+00  0.18959550690E+02  0.29893160499E+03  0.29953342287E+03  0.00000000000E+00 0.  1.
        -13    1    3    3    0    0 -0.14401322528E+01 -0.65475268191E+02 -0.41912106192E+01  0.65625078834E+02  0.00000000000E+00 0. -1.
         13    1    3    3    0    0  0.29329944548E+02  0.23495612816E+02 -0.17883411064E+02  0.41618575902E+02  0.00000000000E+00 0.  1.
          2    1    1    2  501    0 -0.34061834848E+02  0.34715761083E+01  0.39828880577E+02  0.52522377725E+02  0.00000000000E+00 0. -1.
<scales pt_clust_5="13000.00000" pt_clust_6="13000.00000" pt_clust_7="13000.00000" pt_clust_8="13000.00000" pt_clust_9="34.23829"></scales>
<clustering>
<clus scale="   34.238">  1  9  2 -1</clus>
<clus scale="   79.229">  5  6 -1 -1</clus>
<clus scale="   92.053">  7  8 -1 -1</clus>
<clus scale="   92.600">  1  5  2 -1</clus>
<clus scale="   34.238">  1  5  2 -1</clus>
</clustering>
</event>
<event>
 9    1  0.6270443E-005  0.1644699E+03  0.7546771E-02  0.1184849E+00
          1   -1    0    0  502    0 -0.00000000000E+00  0.00000000000E+00  0.80498346327E+03  0.80498346327E+03  0.00000000000E+00 0. -1.
         21   -1    0    0  501  502  0.00000000000E+00 -0.00000000000E+00 -0.68505879143E+02  0.68505879143E+02  0.00000000000E+00 0. -1.
        -24    2    1    2    0    0 -0.65728770665E+02 -0.14422244135E+03  0.57443466617E+03  0.60130318889E+03  0.80436032909E+02 0.  0.
         23    2    1    2    0    0  0.18169459974E+02  0.10254898514E+03  0.15807201968E+03  0.20882738918E+03  0.88179881140E+02 0.  0.
         13    1    3    3    0    0 -0.67752773835E-03 -0.96404326637E+02  0.31878419371E+03  0.33304227413E+03  0.00000000000E+00 0. -1.
        -14    1    3    3    0    0 -0.65728093137E+02 -0.47818114717E+02  0.25565047246E+03  0.26826091476E+03  0.00000000000E+00 0.  1.
        -13    1    4    4    0    0  0.15029301319E+02  0.74567401768E+02  0.16333815793E+03  0.18018193899E+03  0.00000000000E+00 0.  1.
         13    1    4    4    0    0  0.31401586556E+01  0.27981583371E+02 -0.52661382488E+01  0.28645450187E+02  0.00000000000E+00 0. -1.
          2    1    1    2  501    0  0.47559310691E+02  0.41673456215E+02  0.39708982836E+01  0.63358764346E+02  0.00000000000E+00 0. -1.
<scales pt_clust_5="13000.00000" pt_clust_6="13000.00000" pt_clust_7="13000.00000" pt_clust_8="13000.00000" pt_clust_9="63.23421"></scales>
<clustering>
<clus scale="   63.234">  2  9  1 -1</clus>
<clus scale="   80.436">  5  6 -1 -1</clus>
<clus scale="   88.180">  7  8 -1 -1</clus>
<clus scale="  160.451">  1  5  2 -1</clus>
<clus scale="   63.234">  2  5  1 -1</clus>
</clustering>
</event>
<event>
 9    1  0.6270443E-005  0.9270345E+02  0.7546771E-02  0.1302799E+00
         -4   -1    0    0    0  501 -0.00000000000E+00  0.00000000000E+00  0.12729491014E+03  0.12729491014E+03  0.00000000000E+00 0.  1.
         21   -1    0    0  501  502  0.00000000000E+00 -0.00000000000E+00 -0.11390791014E+03  0.11390791014E+03  0.00000000000E+00 0.  1.
        -24    2    1    2    0    0  0.78372609945E+00  0.12981943386E+01  0.43262353626E+02  0.92547473111E+02  0.81799168717E+02 0.  0.
         23    2    1    2    0    0 -0.72705764561E+01  0.41020148656E+02 -0.31195032338E+02  0.10582238167E+03  0.92139744638E+02 0.  0.
         13    1    3    3    0    0  0.45121193956E+01 -0.33662230074E+02 -0.33879694938E+01  0.34131851580E+02  0.00000000000E+00 0. -1.
        -14    1    3    3    0    0 -0.37283932962E+01  0.34960424412E+02  0.46650323119E+02  0.58415621531E+02  0.00000000000E+00 0.  1.
        -13    1    4    4    0    0 -0.41745668801E+02 -0.66681275936E+01 -0.12905018221E+02  0.44200727195E+02  0.00000000000E+00 0.  1.
         13    1    4    4    0    0  0.34475092345E+02  0.47688276249E+02 -0.18290014117E+02  0.61621654475E+02  0.00000000000E+00 0. -1.
         -3    1    1    2    0  502  0.64868503567E+01 -0.42318342995E+02  0.13196787130E+01  0.42832965497E+02  0.00000000000E+00 0.  1.
<scales pt_clust_5="13000.00000" pt_clust_6="13000.00000" pt_clust_7="13000.00000" pt_clust_8="13000.00000" pt_clust_9="42.81263"></scales>
<clustering>
<clus scale="   42.813">  2  9  1 -1</clus>
<clus scale="   81.799">  5  6 -1 -1</clus>
<clus scale="   82.434">  1  5  2 -1</clus>
<clus scale="   92.140">  7  8 -1 -1</clus>
<clus scale="   42.813">  2  5  1 -1</clus>
</clustering>
</event>
<event>
 9    1  0.6270443E-005  0.9879100E+02  0.7546771E-02  0.1287061E+00
         21   -1    0    0  501  502  0.00000000000E+00  0.00000000000E+00  0.11115639112E+03  0.11115639112E+03  0.00000000000E+00 0. -1.
          1   -1    0    0  502    0 -0.00000000000E+00 -0.00000000000E+00 -0.24852644261E+03  0.24852644261E+03  0.00000000000E+00 0. -1.
         23    2    1    2    0    0 -0.21480716113E+01  0.38826368169E+02 -0.88095039402E+02  0.13070648561E+03  0.88381832621E+02 0.  0.
        -24    2    1    2    0    0 -0.78006566722E+02 -0.48309284483E+02  0.19169971843E+02  0.12314909466E+03  0.79871147954E+02 0.  0.
         13    1    4    4    0    0 -0.65790821958E+02 -0.67883269538E+02  0.22909036024E+01  0.94561190646E+02  0.00000000000E+00 0. -1.
        -14    1    4    4    0    0 -0.12215744764E+02  0.19573985055E+02  0.16879068240E+02  0.28587904011E+02  0.00000000000E+00 0.  1.
        -11    1    3    3    0    0  0.23497595861E+02 -0.29732527977E+01  0.61461675440E+01  0.24469422121E+02  0.00000000000E+00 0.  1.
         11    1    3    3    0    0 -0.25645667472E+02  0.41799620967E+02 -0.94241206946E+02  0.10623706349E+03  0.00000000000E+00 0. -1.
          2    1    1    2  501    0  0.80154638333E+02  0.94829163140E+01 -0.68444983939E+02  0.10582725346E+03  0.00000000000E+00 0. -1.
<scales pt_clust_5="13000.00000" pt_clust_6="13000.00000" pt_clust_7="13000.00000" pt_clust_8="13000.00000" pt_clust_9="80.71368"></scales>
<clustering>
<clus scale="   79.871">  5  6 -1 -1</clus>
<clus scale="   80.714">  1  9  2 -1</clus>
<clus scale="   88.382">  7  8 -1 -1</clus>
<clus scale="   91.256">  1  5  2 -1</clus>
<clus scale="   80.714">  1  5  2 -1</clus>
</clustering>
</event>
<event>
 9    1  0.6270443E-005  0.9843367E+02  0.7546771E-02  0.1291228E+00
         21   -1    0    0  501  502  0.00000000000E+00  0.00000000000E+00  0.24298364642E+03  0.24298364642E+03  0.00000000000E+00 0. -1.
          3   -1    0    0  502    0 -0.00000000000E+00 -0.00000000000E+00 -0.10085683472E+03  0.10085683472E+03  0.00000000000E+00 0. -1.
        -24    2    1    2    0    0 -0.23408025432E+02 -0.24666540438E+02 -0.58982031299E+01  0.86235785929E+02  0.79028147535E+02 0.  0.
         23    2    1    2    0    0  0.22369250718E+01  0.28328479588E+02  0.18830803744E+03  0.21195004375E+03  0.93034388763E+02 0.  0.
         11    1    3    3    0    0 -0.39963595256E+02 -0.43416962869E+01 -0.30364450975E+02  0.50377962994E+02  0.00000000000E+00 0. -1.
        -12    1    3    3    0    0  0.16555569824E+02 -0.20324844151E+02  0.24466247845E+02  0.35857822934E+02  0.00000000000E+00 0.  1.
        -11    1    4    4    0    0  0.38436966068E+02  0.23166670799E+02  0.43151646671E+02  0.62258811480E+02  0.00000000000E+00 0.  1.
         11    1    4    4    0    0 -0.36200040996E+02  0.51618087882E+01  0.14515639077E+03  0.14969123227E+03  0.00000000000E+00 0. -1.
          4    1    1    2  501    0  0.21171100360E+02 -0.36619391495E+01 -0.40283022614E+02  0.45654651458E+02  0.00000000000E+00 0. -1.
<scales pt_clust_5="13000.00000" pt_clust_6="13000.00000" pt_clust_7="13000.00000" pt_clust_8="13000.00000" pt_clust_9="21.48548"></scales>
<clustering>
<clus scale="   21.485">  1  9  2 -1</clus>
<clus scale="   79.028">  5  6 -1 -1</clus>
<clus scale="   85.318">  2  5  1 -1</clus>
<clus scale="   93.034">  7  8 -1 -1</clus>
<clus scale="   21.485">  1  5  2 -1</clus>
</clustering>
</event>
<event>
 9    1  0.6270443E-005  0.1778172E+03  0.7546771E-02  0.1170545E+00
         21   -1    0    0  501  502  0.00000000000E+00  0.00000000000E+00  0.24297851677E+03  0.24297851677E+03  0.00000000000E+00 0. -1.
          1   -1    0    0  502    0 -0.00000000000E+00 -0.00000000000E+00 -0.38915362663E+03  0.38915362663E+03  0.00000000000E+00 0. -1.
         23    2    1    2    0    0 -0.91311462341E+02 -0.11629396727E+03 -0.28485580981E+03  0.33336651180E+03  0.90157245016E+02 0.  0.
        -24    2    1    2    0    0  0.91513271588E+02  0.16906159869E+03  0.97195496549E+02  0.23164271634E+03  0.85175586031E+02 0.  0.
         11    1    4    4    0    0  0.77903898112E+02  0.10808002825E+03  0.23946744961E+02  0.13536527044E+03  0.00000000000E+00 0. -1.
        -12    1    4    4    0    0  0.13609373476E+02  0.60981570446E+02  0.73248751587E+02  0.96277445903E+02  0.00000000000E+00 0.  1.
        -11    1    3    3    0    0 -0.17482900361E+02 -0.41191609820E+02 -0.17720891982E+03  0.18277144686E+03  0.00000000000E+00 0.  1.
         11    1    3    3    0    0 -0.73828561980E+02 -0.75102357452E+02 -0.10764688999E+03  0.15059506493E+03  0.00000000000E+00 0. -1.
          2    1    1    2  501    0 -0.20180924731E+00 -0.52767631421E+02  0.41485203392E+02  0.67122915262E+02  0.00000000000E+00 0. -1.
<scales pt_clust_5="13000.00000" pt_clust_6="13000.00000" pt_clust_7="13000.00000" pt_clust_8="13000.00000" pt_clust_9="52.76802"></scales>
<clustering>
<clus scale="   52.768">  1  9  2 -1</clus>
<clus scale="   85.176">  5  6 -1 -1</clus>
<clus scale="   90.157">  7  8 -1 -1</clus>
<clus scale="  175.344">  1  5  2 -1</clus>
<clus scale="   52.768">  1  5  2 -1</clus>
</clustering>
</event>
<event>
 9    1  0.6270443E-005  0.1246413E+03  0.7546771E-02  0.1237397E+00
         21   -1    0    0  501  502  0.00000000000E+00  0.00000000000E+00  0.70451700088E+02  0.70451700088E+02  0.00000000000E+00 0.  1.
          3   -1    0    0  502    0 -0.00000000000E+00 -0.00000000000E+00 -0.38369997093E+03  0.38369997093E+03  0.00000000000E+00 0. -1.
         23    2    1    2    0    0  0.32131112812E+01  0.95602458863E+02 -0.20765882985E+03  0.24773407372E+03  0.95393015685E+02 0.  0.
        -24    2    1    2    0    0 -0.10868624348E+02 -0.63680980216E+02 -0.12617821645E+03  0.16766859274E+03  0.89545633324E+02 0.  0.
         11    1    4    4    0    0 -0.30351081587E+02 -0.45103535802E+02 -0.19674298346E+02  0.57815180626E+02  0.00000000000E+00 0. -1.
        -12    1    4    4    0    0  0.19482457239E+02 -0.18577444414E+02 -0.10650391811E+03  0.10985341211E+03  0.00000000000E+00 0.  1.
        -13    1    3    3    0    0  0.48373648447E+02  0.36272568800E+02 -0.96903784848E+02  0.11421931811E+03  0.00000000000E+00 0.  1.
         13    1    3    3    0    0 -0.45160537166E+02  0.59329890063E+02 -0.11075504500E+03  0.13351475561E+03  0.00000000000E+00 0. -1.
          4    1    1    2  501    0  0.76555130668E+01 -0.31921478647E+02  0.20588775462E+02  0.38749004559E+02  0.00000000000E+00 0. -1.
<scales pt_clust_5="13000.00000" pt_clust_6="13000.00000" pt_clust_7="13000.00000" pt_clust_8="13000.00000" pt_clust_9="32.82663"></scales>
<clustering>
<clus scale="   32.827">  1  9  2 -1</clus>
<clus scale="   89.546">  5  6 -1 -1</clus>
<clus scale="   95.393">  7  8 -1 -1</clus>
<clus scale="  120.225">  1  5  2 -1</clus>
<clus scale="   32.827">  1  5  2 -1</clus>
</clustering>
</event>
<event>
 9    1  0.6270443E-005  0.1430671E+03  0.7546771E-02  0.1213742E+00
         21   -1    0    0  501  502  0.00000000000E+00  0.00000000000E+00  0.69579273206E+03  0.69579273206E+03  0.00000000000E+00 0. -1.
          1   -1    0    0  502    0 -0.00000000000E+00 -0.00000000000E+00 -0.33545728119E+03  0.33545728119E+03  0.00000000000E+00 0. -1.
         23    2    1    2    0    0  0.57481656723E+02 -0.91285961466E+02 -0.29501225277E+03  0.32754480055E+03  0.92822946835E+02 0.  0.
        -24    2    1    2    0    0 -0.87259947352E+02  0.12035128740E+03  0.63745060584E+03  0.65840790733E+03  0.71126413935E+02 0.  0.
         11    1    4    4    0    0 -0.80093414086E+02  0.80363084224E+02  0.34571262198E+03  0.36385491240E+03  0.00000000000E+00 0. -1.
        -12    1    4    4    0    0 -0.71665332661E+01  0.39988203179E+02  0.29173798386E+03  0.29455299493E+03  0.00000000000E+00 0.  1.
        -11    1    3    3    0    0  0.75186259290E+02 -0.39709153855E+02 -0.14717901406E+03  0.16997485892E+03  0.00000000000E+00 0. -1.
         11    1    3    3    0    0 -0.17704602567E+02 -0.51576807610E+02 -0.14783323872E+03  0.15756994163E+03  0.00000000000E+00 0.  1.
          2    1    1    2  501    0  0.29778290628E+02 -0.29065325938E+02  0.17897097802E+02  0.45297305377E+02  0.00000000000E+00 0. -1.
<scales pt_clust_5="13000.00000" pt_clust_6="13000.00000" pt_clust_7="13000.00000" pt_clust_8="13000.00000" pt_clust_9="41.61177"></scales>
<clustering>
<clus scale="   41.612">  1  9  2 -1</clus>
<clus scale="   71.126">  5  6 -1 -1</clus>
<clus scale="   92.823">  7  8 -1 -1</clus>
<clus scale="  130.043">  1  5  2 -1</clus>
<clus scale="   41.612">  1  5  2 -1</clus>
</clustering>
</event>
<event>
 9    1  0.6270443E-005  0.2807248E+03  0.7546771E-02  0.1095294E+00
         21   -1    0    0  501  502  0.00000000000E+00  0.00000000000E+00  0.84622719367E+02  0.84622719367E+02  0.00000000000E+00 0. -1.
          1   -1    0    0  502    0 -0.00000000000E+00 -0.00000000000E+00 -0.11973603307E+04  0.11973603307E+04  0.00000000000E+00 0. -1.
        -24    2    1    2    0    0 -0.36839330147E+02  0.13468142066E+03 -0.12273124233E+03  0.20223622276E+03  0.79626067556E+02 0.  0.
         23    2    1    2    0    0  0.15465140434E+02  0.74949328451E+02 -0.75866446572E+02  0.14163505106E+03  0.91914077102E+02 0.  0.
         11    1    3    3    0    0 -0.17105251910E+01  0.81432168546E+02 -0.11051080596E+03  0.13728351032E+03  0.00000000000E+00 0. -1.
        -12    1    3    3    0    0 -0.35128804956E+02  0.53249252114E+02 -0.12220436369E+02  0.64952712441E+02  0.00000000000E+00 0.  1.
        -13    1    4    4    0    0  0.40746767162E+02  0.78611121838E+02 -0.75058827950E+02  0.11607685025E+03  0.00000000000E+00 0.  1.
         13    1    4    4    0    0 -0.25281626728E+02 -0.36617933870E+01 -0.80761862227E+00  0.25558200810E+02  0.00000000000E+00 0. -1.
          2    1    1    2  501    0  0.21374189713E+02 -0.20963074911E+03 -0.91413992246E+03  0.93811177627E+03  0.00000000000E+00 0. -1.
<scales pt_clust_5="13000.00000" pt_clust_6="13000.00000" pt_clust_7="13000.00000" pt_clust_8="13000.00000" pt_clust_9="210.71771"></scales>
<clustering>
<clus scale="   79.626">  5  6 -1 -1</clus>
<clus scale="   91.914">  7  8 -1 -1</clus>
<clus scale="  101.964">  5  7 -1 -1</clus>
<clus scale="  210.718">  1  9  2 -1</clus>
<clus scale="  210.718">  1  5  2 -1</clus>
</clustering>
</event>
<event>
 9    1  0.6270443E-005  0.1381156E+03  0.7546771E-02  0.1218734E+00
         21   -1    0    0  501  502  0.00000000000E+00  0.00000000000E+00  0.71405044154E+02  0.71405044154E+02  0.00000000000E+00 0.  1.
          1   -1    0    0  502    0 -0.00000000000E+00 -0.00000000000E+00 -0.35940979217E+03  0.35940979217E+03  0.00000000000E+00 0. -1.
        -24    2    1    2    0    0  0.58332498841E+02 -0.98104201658E+02 -0.19101061601E+03  0.23610136816E+03  0.78941027461E+02 0.  0.
         23    2    1    2    0    0 -0.49921919047E+02  0.65860006282E+02 -0.41831960254E+02  0.13026743507E+03  0.91596688332E+02 0.  0.
         13    1    3    3    0    0  0.32046103254E+02  0.48715633698E+01 -0.41227543083E+02  0.52444210092E+02  0.00000000000E+00 0. -1.
        -14    1    3    3    0    0  0.26286395587E+02 -0.10297576503E+03 -0.14978307292E+03  0.18365715807E+03  0.00000000000E+00 0.  1.
        -11    1    4    4    0    0 -0.57600207285E+02  0.20230279116E+02 -0.54987393071E+02  0.82162409100E+02  0.00000000000E+00 0. -1.
         11    1    4    4    0    0  0.76782882376E+01  0.45629727166E+02  0.13155432816E+02  0.48105025975E+02  0.00000000000E+00 0.  1.
          2    1    1    2  501    0 -0.84105797945E+01  0.32244195376E+02 -0.55162171755E+02  0.64446033087E+02  0.00000000000E+00 0. -1.
<scales pt_clust_5="13000.00000" pt_clust_6="13000.00000" pt_clust_7="13000.00000" pt_clust_8="13000.00000" pt_clust_9="33.32307"></scales>
<clustering>
<clus scale="   33.323">  1  9  2 -1</clus>
<clus scale="   78.941">  5  6 -1 -1</clus>
<clus scale="   91.597">  7  8 -1 -1</clus>
<clus scale="  130.068">  2  5  1 -1</clus>
<clus scale="   33.323">  1  5  2 -1</clus>
</clustering>
</event>
<event>
 9    1  0.6270443E-005  0.3437470E+03  0.7546771E-02  0.1099397E+00
          1   -1    0    0  502    0 -0.00000000000E+00  0.00000000000E+00  0.71492883134E+03  0.71492883134E+03  0.00000000000E+00 0. -1.
         21   -1    0    0  501  502  0.00000000000E+00 -0.00000000000E+00 -0.43385635105E+03  0.43385635105E+03  0.00000000000E+00 0. -1.
        -24    2    1    2    0    0 -0.98066800900E+02 -0.54098055422E+02  0.28816536495E+03  0.31924016283E+03  0.79569510279E+02 0.  0.
         23    2    1    2    0    0 -0.17249679424E+03 -0.25658327828E+03 -0.19495741969E+03  0.37675297718E+03  0.91347072204E+02 0.  0.
         11    1    3    3    0    0 -0.63220714613E+02 -0.73659831059E+02  0.19339497757E+03  0.21638910974E+03  0.00000000000E+00 0. -1.
        -12    1    3    3    0    0 -0.34846086287E+02  0.19561775637E+02  0.94770387385E+02  0.10285105309E+03  0.00000000000E+00 0.  1.
        -13    1    4    4    0    0 -0.13134560516E+03 -0.19266125846E+03 -0.18962127763E+03  0.30054327049E+03  0.00000000000E+00 0. -1.
         13    1    4    4    0    0 -0.41151189082E+02 -0.63922019827E+02 -0.53361420600E+01  0.76209706689E+02  0.00000000000E+00 0.  1.
          2    1    1    2  501    0  0.27056359514E+03  0.31068133371E+03  0.18786453502E+03  0.45279204239E+03  0.00000000000E+00 0. -1.
<scales pt_clust_5="13000.00000" pt_clust_6="13000.00000" pt_clust_7="13000.00000" pt_clust_8="13000.00000" pt_clust_9="331.38775"></scales>
<clustering>
<clus scale="   79.570">  5  6 -1 -1</clus>
<clus scale="   91.347">  7  8 -1 -1</clus>
<clus scale="  137.386">  1  5  2 -1</clus>
<clus scale="  331.388">  2  9  1 -1</clus>
<clus scale="  331.388">  2  5  1 -1</clus>
</clustering>
</event>
<event>
 9    1  0.6270443E-005  0.1159512E+03  0.7546771E-02  0.1254517E+00
          1   -1    0    0  502    0 -0.00000000000E+00  0.00000000000E+00  0.42422151453E+03  0.42422151453E+03  0.00000000000E+00 0. -1.
         21   -1    0    0  501  502  0.00000000000E+00 -0.00000000000E+00 -0.10108593209E+03  0.10108593209E+03  0.00000000000E+00 0. -1.
        -24    2    1    2    0    0  0.74279367115E+02 -0.13516686732E+01  0.27489005922E+03  0.29547287645E+03  0.78869668882E+02 0.  0.
         23    2    1    2    0    0 -0.38360309951E+02  0.26068374774E+02 -0.55692640274E+02  0.11712150057E+03  0.92003816076E+02 0.  0.
         11    1    3    3    0    0  0.52407003723E+02 -0.15334885589E+02  0.69191276749E+02  0.88142416199E+02  0.00000000000E+00 0. -1.
        -12    1    3    3    0    0  0.21872363392E+02  0.13983216916E+02  0.20569878247E+03  0.20733046025E+03  0.00000000000E+00 0.  1.
        -13    1    4    4    0    0 -0.45301985875E+01  0.47640501730E+02 -0.60023604875E+02  0.76765703582E+02  0.00000000000E+00 0.  1.
         13    1    4    4    0    0 -0.33830111363E+02 -0.21572126956E+02  0.43309646008E+01  0.40355796989E+02  0.00000000000E+00 0. -1.
          2    1    1    2  501    0 -0.35919057164E+02 -0.24716706101E+02  0.10393816350E+03  0.11271306960E+03  0.00000000000E+00 0. -1.
<scales pt_clust_5="13000.00000" pt_clust_6="13000.00000" pt_clust_7="13000.00000" pt_clust_8="13000.00000" pt_clust_9="43.60156"></scales>
<clustering>
<clus scale="   43.602">  2  9  1 -1</clus>
<clus scale="   78.870">  5  6 -1 -1</clus>
<clus scale="   92.004">  7  8 -1 -1</clus>
<clus scale="  105.832">  1  5  2 -1</clus>
<clus scale="   43.602">  2  5  1 -1</clus>
</clustering>
</event>
<event>
 9    1  0.6270443E-005  0.1639454E+03  0.7546771E-02  0.1209512E+00
         -4   -1    0    0    0  501 -0.00000000000E+00  0.00000000000E+00  0.58577312838E+03  0.58577312838E+03  0.00000000000E+00 0.  1.
         21   -1    0    0  501  502  0.00000000000E+00 -0.00000000000E+00 -0.94832337031E+02  0.94832337031E+02  0.00000000000E+00 0.  1.
         23    2    1    2    0    0  0.13009277394E+02  0.22258764935E+01  0.94414159845E+01  0.95034678767E+02  0.93638955612E+02 0.  0.
        -24    2    1    2    0    0 -0.13025669056E+03  0.67036180911E+02  0.14004515606E+03  0.21796342495E+03  0.80216917754E+02 0.  0.
         13    1    4    4    0    0 -0.41511994693E+02  0.59985130285E+02  0.37022551293E+02  0.81805445192E+02  0.00000000000E+00 0. -1.
        -14    1    4    4    0    0 -0.88744695865E+02  0.70510506264E+01  0.10302260477E+03  0.13615797976E+03  0.00000000000E+00 0.  1.
        -13    1    3    3    0    0  0.98666510535E+01  0.46927472136E+02  0.14094217245E+02  0.49981850744E+02  0.00000000000E+00 0.  1.
         13    1    3    3    0    0  0.31426263406E+01 -0.44701595642E+02 -0.46528012609E+01  0.45052828023E+02  0.00000000000E+00 0. -1.
         -3    1    1    2    0  502  0.11724741316E+03 -0.69262057405E+02  0.34145421930E+03  0.36760736169E+03  0.00000000000E+00 0.  1.
<scales pt_clust_5="13000.00000" pt_clust_6="13000.00000" pt_clust_7="13000.00000" pt_clust_8="13000.00000" pt_clust_9="142.98023"></scales>
<clustering>
<clus scale="   80.217">  5  6 -1 -1</clus>
<clus scale="   93.639">  7  8 -1 -1</clus>
<clus scale="   94.565">  1  7  2 -1</clus>
<clus scale="  142.980">  2  9  1 -1</clus>
<clus scale="  142.980">  2  5  1 -1</clus>
</clustering>
</event>
<event>
 9    1  0.6270443E-005  0.2736468E+03  0.7546771E-02  0.1130720E+00
         21   -1    0    0  501  502  0.00000000000E+00  0.00000000000E+00  0.67121102088E+03  0.67121102088E+03  0.00000000000E+00 0. -1.
          3   -1    0    0  502    0 -0.00000000000E+00 -0.00000000000E+00 -0.21650792736E+03  0.21650792736E+03  0.00000000000E+00 0. -1.
        -24    2    1    2    0    0  0.84036852725E+02  0.36487460853E+02 -0.14579571810E+01  0.12352405090E+03  0.82840437570E+02 0.  0.
         23    2    1    2    0    0 -0.67709554459E+02  0.24403329832E+03  0.39262231255E+03  0.47610524421E+03  0.91581050462E+02 0.  0.
         11    1    3    3    0    0  0.10080641565E+03  0.33381094935E+02 -0.40845840755E+01  0.10626812674E+03  0.00000000000E+00 0. -1.
        -12    1    3    3    0    0 -0.16769562921E+02  0.31063659172E+01  0.26266268945E+01  0.17255924160E+02  0.00000000000E+00 0.  1.
        -13    1    4    4    0    0 -0.84999652704E+00  0.16103249862E+03  0.20969763400E+03  0.26439607752E+03  0.00000000000E+00 0. -1.
         13    1    4    4    0    0 -0.66859557932E+02  0.83000799697E+02  0.18292467855E+03  0.21170916669E+03  0.00000000000E+00 0.  1.
          4    1    1    2  501    0 -0.16327298266E+02 -0.28052075917E+03  0.63538738154E+02  0.28808965313E+03  0.00000000000E+00 0. -1.
<scales pt_clust_5="13000.00000" pt_clust_6="13000.00000" pt_clust_7="13000.00000" pt_clust_8="13000.00000" pt_clust_9="257.86732"></scales>
<clustering>
<clus scale="   82.840">  5  6 -1 -1</clus>
<clus scale="   91.581">  7  8 -1 -1</clus>
<clus scale="  123.515">  2  5  1 -1</clus>
<clus scale="  257.867">  1  9  2 -1</clus>
<clus scale="  257.867">  1  5  2 -1</clus>
</clustering>
</event>
<event>
 9    1  0.6270443E-005  0.1019557E+03  0.7546771E-02  0.1280696E+00
         21   -1    0    0  501  502  0.00000000000E+00  0.00000000000E+00  0.11964898816E+03  0.11964898816E+03  0.00000000000E+00 0. -1.
         -4   -1    0    0    0  501 -0.00000000000E+00 -0.00000000000E+00 -0.31565230044E+03  0.31565230044E+03  0.00000000000E+00 0.  1.
        -24    2    1    2    0    0 -0.26646789280E+02 -0.39560461966E+02 -0.25070751814E+03  0.26774590105E+03  0.80984729076E+02 0.  0.
         23    2    1    2    0    0  0.50974813209E+02  0.11364809691E+02  0.71615486584E+02  0.12665503339E+03  0.90471703226E+02 0.  0.
         13    1    3    3    0    0 -0.49582372927E+02 -0.22574288225E+02 -0.95591996389E+02  0.11002654210E+03  0.00000000000E+00 0. -1.
        -14    1    3    3    0    0  0.22935583648E+02 -0.16986173741E+02 -0.15511552175E+03  0.15771935894E+03  0.00000000000E+00 0.  1.
        -13    1    4    4    0    0  0.24090374998E+02 -0.67679012889E+01 -0.18345741689E+02  0.31027679474E+02  0.00000000000E+00 0.  1.
         13    1    4    4    0    0  0.26884438210E+02  0.18132710979E+02  0.89961228274E+02  0.95627353921E+02  0.00000000000E+00 0. -1.
         -3    1    1    2    0  502 -0.24328023929E+02  0.28195652275E+02 -0.16911280721E+02  0.40900354168E+02  0.00000000000E+00 0.  1.
<scales pt_clust_5="13000.00000" pt_clust_6="13000.00000" pt_clust_7="13000.00000" pt_clust_8="13000.00000" pt_clust_9="37.24040"></scales>
<clustering>
<clus scale="   37.240">  1  9  2 -1</clus>
<clus scale="   80.985">  5  6 -1 -1</clus>
<clus scale="   90.472">  7  8 -1 -1</clus>
<clus scale="   93.639">  2  5  1 -1</clus>
<clus scale="   37.240">  1  5  2 -1</clus>
</clustering>
</event>
<event>
 9    1  0.6270443E-005  0.2018632E+03  0.7546771E-02  0.1169121E+00
          1   -1    0    0  502    0 -0.00000000000E+00  0.00000000000E+00  0.23230188749E+03  0.23230188749E+03  0.00000000000E+00 0. -1.
         21   -1    0    0  501  502  0.00000000000E+00 -0.00000000000E+00 -0.38585453784E+03  0.38585453784E+03  0.00000000000E+00 0.  1.
        -24    2    1    2    0    0 -0.93987707756E+02 -0.70034346071E+01 -0.18018576737E+03  0.21862885158E+03  0.80305209514E+02 0.  0.
         23    2    1    2    0    0  0.17448096609E+03 -0.13242585953E+03  0.22485381736E+02  0.23847821358E+03  0.91575379665E+02 0.  0.
         13    1    3    3    0    0 -0.72315883439E+02 -0.11968806336E+02 -0.55406501750E+02  0.91884273730E+02  0.00000000000E+00 0. -1.
        -14    1    3    3    0    0 -0.21671824317E+02  0.49653717290E+01 -0.12477926562E+03  0.12674457785E+03  0.00000000000E+00 0.  1.
        -13    1    4    4    0    0  0.15364702830E+03 -0.12997896449E+03 -0.80728490840E+01  0.20141278858E+03  0.00000000000E+00 0.  1.
         13    1    4    4    0    0  0.20833937792E+02 -0.24468950469E+01  0.30558230820E+02  0.37065424996E+02  0.00000000000E+00 0. -1.
          2    1    1    2  501    0 -0.80493258332E+02  0.13942929414E+03  0.41477352824E+01  0.16104936016E+03  0.00000000000E+00 0. -1.
<scales pt_clust_5="13000.00000" pt_clust_6="13000.00000" pt_clust_7="13000.00000" pt_clust_8="13000.00000" pt_clust_9="179.89636"></scales>
<clustering>
<clus scale="   80.305">  5  6 -1 -1</clus>
<clus scale="   91.575">  7  8 -1 -1</clus>
<clus scale="  123.821">  1  5  2 -1</clus>
<clus scale="  179.896">  2  9  1 -1</clus>
<clus scale="  179.896">  2  5  1 -1</clus>
</clustering>
</event>
<event>
 9    1  0.6270443E-005  0.1039837E+03  0.7546771E-02  0.1277799E+00
         21   -1    0    0  501  502  0.00000000000E+00  0.00000000000E+00  0.40199138576E+03  0.40199138576E+03  0.00000000000E+00 0. -1.
          3   -1    0    0  502    0 -0.00000000000E+00 -0.00000000000E+00 -0.47441367310E+03  0.47441367310E+03  0.00000000000E+00 0. -1.
        -24    2    1    2    0    0  0.20196584233E+02  0.47583173588E+02 -0.45132191770E+03  0.46085049841E+03  0.77586390975E+02 0.  0.
         23    2    1    2    0    0 -0.56050440668E+02 -0.35760216574E+02  0.17222114552E+03  0.20545630384E+03  0.90176076841E+02 0.  0.
         11    1    3    3    0    0  0.13553709706E+02  0.42297233865E+02 -0.99930997185E+02  0.10935704476E+03  0.00000000000E+00 0. -1.
        -12    1    3    3    0    0  0.66428745273E+01  0.52859397231E+01 -0.35139092052E+03  0.35149345366E+03  0.00000000000E+00 0.  1.
        -13    1    4    4    0    0 -0.35680420303E+02  0.26925110324E+02  0.53977913807E+02  0.70083301420E+02  0.00000000000E+00 0. -1.
         13    1    4    4    0    0 -0.20370020365E+02 -0.62685326898E+02  0.11824323172E+03  0.13537300242E+03  0.00000000000E+00 0.  1.
          4    1    1    2  501    0  0.35853856435E+02 -0.11822957014E+02  0.20667848484E+03  0.21009825661E+03  0.00000000000E+00 0. -1.
<scales pt_clust_5="13000.00000" pt_clust_6="13000.00000" pt_clust_7="13000.00000" pt_clust_8="13000.00000" pt_clust_9="37.75290"></scales>
<clustering>
<clus scale="   37.753">  1  9  2 -1</clus>
<clus scale="   77.586">  5  6 -1 -1</clus>
<clus scale="   90.176">  7  8 -1 -1</clus>
<clus scale="   93.277">  2  5  1 -1</clus>
<clus scale="   37.753">  1  5  2 -1</clus>
</clustering>
</event>
<event>
 9    1  0.6270443E-005  0.1023802E+03  0.7546771E-02  0.1278463E+00
         21   -1    0    0  501  502  0.00000000000E+00  0.00000000000E+00  0.87919167195E+02  0.87919167195E+02  0.00000000000E+00 0. -1.
          1   -1    0    0  502    0 -0.00000000000E+00 -0.00000000000E+00 -0.24789497307E+03  0.24789497307E+03  0.00000000000E+00 0. -1.
        -24    2    1    2    0    0  0.38385538629E+02  0.39636237494E+02 -0.17114784148E+03  0.19685262106E+03  0.80093007675E+02 0.  0.
         23    2    1    2    0    0 -0.54882010354E+02 -0.11816174874E+02 -0.29737512061E+01  0.10366006387E+03  0.87091380724E+02 0.  0.
         13    1    3    3    0    0  0.52520026712E+02  0.50576693249E+02 -0.15988576993E+03  0.17572653337E+03  0.00000000000E+00 0. -1.
        -14    1    3    3    0    0 -0.14134488083E+02 -0.10940455756E+02 -0.11262071552E+02  0.21126087692E+02  0.00000000000E+00 0.  1.
        -11    1    4    4    0    0  0.21273567575E+02 -0.51234867764E+01  0.13150007583E+02  0.25529149879E+02  0.00000000000E+00 0.  1.
         11    1    4    4    0    0 -0.76155577929E+02 -0.66926880976E+01 -0.16123758790E+02  0.78130913991E+02  0.00000000000E+00 0. -1.
          2    1    1    2  501    0  0.16496471725E+02 -0.27820062620E+02  0.14145786814E+02  0.35301455326E+02  0.00000000000E+00 0. -1.
<scales pt_clust_5="13000.00000" pt_clust_6="13000.00000" pt_clust_7="13000.00000" pt_clust_8="13000.00000" pt_clust_9="32.34331"></scales>
<clustering>
<clus scale="   32.343">  1  9  2 -1</clus>
<clus scale="   80.093">  5  6 -1 -1</clus>
<clus scale="   87.091">  7  8 -1 -1</clus>
<clus scale="   96.497">  2  5  1 -1</clus>
<clus scale="   32.343">  1  5  2 -1</clus>
</clustering>
</event>
<event>
 9    1  0.6270443E-005  0.1108484E+03  0.7546771E-02  0.1264133E+00
         21   -1    0    0  501  502  0.00000000000E+00  0.00000000000E+00  0.31795179871E+03  0.31795179871E+03  0.00000000000E+00 0. -1.
          1   -1    0    0  502    0 -0.00000000000E+00 -0.00000000000E+00 -0.96843955176E+02  0.96843955176E+02  0.00000000000E+00 0. -1.
        -24    2    1    2    0    0  0.16032983803E+02 -0.56245270227E+02 -0.35027205886E+02  0.10497371926E+03  0.79824742975E+02 0.  0.
         23    2    1    2    0    0 -0.61567256814E+01  0.78520006123E+02  0.25812063596E+03  0.28537521709E+03  0.92787149901E+02 0.  0.
         13    1    3    3    0    0 -0.20433553272E+02  0.80113597211E+01  0.25289499036E+01  0.22093156667E+02  0.00000000000E+00 0. -1.
        -14    1    3    3    0    0  0.36466537075E+02 -0.64256629948E+02 -0.37556155789E+02  0.82880562596E+02  0.00000000000E+00 0.  1.
        -11    1    4    4    0    0  0.34411901338E+02  0.39514061016E+02  0.18959033894E+03  0.19669783067E+03  0.00000000000E+00 0.  1.
         11    1    4    4    0    0 -0.40568627020E+02  0.39005945107E+02  0.68530297023E+02  0.88677386418E+02  0.00000000000E+00 0. -1.
          2    1    1    2  501    0 -0.98762581218E+01 -0.22274735895E+02 -0.19855865409E+01  0.24446817535E+02  0.00000000000E+00 0. -1.
<scales pt_clust_5="13000.00000" pt_clust_6="13000.00000" pt_clust_7="13000.00000" pt_clust_8="13000.00000" pt_clust_9="24.36606"></scales>
<clustering>
<clus scale="   24.366">  1  9  2 -1</clus>
<clus scale="   79.825">  5  6 -1 -1</clus>
<clus scale="   92.787">  7  8 -1 -1</clus>
<clus scale="  100.249">  2  5  1 -1</clus>
<clus scale="   24.366">  1  5  2 -1</clus>
</clustering>
</event>
<event>
 9    1  0.6270443E-005  0.9648668E+02  0.7546771E-02  0.1294410E+00
         21   -1    0    0  501  502  0.00000000000E+00  0.00000000000E+00  0.52516468470E+03  0.52516468470E+03  0.00000000000E+00 0. -1.
          3   -1    0    0  502    0 -0.00000000000E+00 -0.00000000000E+00 -0.55576970558E+02  0.55576970558E+02  0.00000000000E+00 0. -1.
        -24    2    1    2    0    0  0.22127029274E+02 -0.80533631246E+01  0.59587792292E+02  0.10352083520E+03  0.81310492850E+02 0.  0.
         23    2    1    2    0    0 -0.42899019242E+02 -0.61166795070E+02  0.38122437963E+03  0.39943304662E+03  0.92914091696E+02 0.  0.
         11    1    3    3    0    0  0.39871212804E+02 -0.28265459161E+02  0.59006625038E+02  0.76618741770E+02  0.00000000000E+00 0. -1.
        -12    1    3    3    0    0 -0.17744183530E+02  0.20212096037E+02  0.58116725390E+00  0.26902093427E+02  0.00000000000E+00 0.  1.
        -11    1    4    4    0    0 -0.59836726228E+02 -0.75220661755E+01  0.15499787237E+03  0.16631703378E+03  0.00000000000E+00 0.  1.
         11    1    4    4    0    0  0.16937706985E+02 -0.53644728894E+02  0.22622650726E+03  0.23311601284E+03  0.00000000000E+00 0. -1.
          4    1    1    2  501    0  0.20771989968E+02  0.69220158194E+02  0.28775542227E+02  0.77787773449E+02  0.00000000000E+00 0. -1.
<scales pt_clust_5="13000.00000" pt_clust_6="13000.00000" pt_clust_7="13000.00000" pt_clust_8="13000.00000" pt_clust_9="72.26971"></scales>
<clustering>
<clus scale="   72.270">  1  9  2 -1</clus>
<clus scale="   81.310">  5  6 -1 -1</clus>
<clus scale="   85.370">  2  5  1 -1</clus>
<clus scale="   92.914">  7  8 -1 -1</clus>
<clus scale="   72.270">  1  5  2 -1</clus>
</clustering>
</event>
<event>
 9    1  0.6270443E-005  0.5434833E+03  0.7546771E-02  0.1062886E+00
         21   -1    0    0  501  502  0.00000000000E+00  0.00000000000E+00  0.17546746249E+04  0.17546746249E+04  0.00000000000E+00 0. -1.
          3   -1    0    0  502    0 -0.00000000000E+00 -0.00000000000E+00 -0.20806774359E+03  0.20806774359E+03  0.00000000000E+00 0. -1.
        -24    2    1    2    0    0  0.50450259959E+02 -0.14473652752E+02  0.10045351625E+03  0.13674115108E+03  0.76501752379E+02 0.  0.
         23    2    1    2    0    0 -0.27125826874E+03 -0.46957478654E+03  0.51604926004E+03  0.75448233540E+03  0.94102216335E+02 0.  0.
         13    1    3    3    0    0  0.17924789340E+02 -0.11570214436E+02 -0.85253932651E+01  0.22974992172E+02  0.00000000000E+00 0. -1.
        -14    1    3    3    0    0  0.32525470619E+02 -0.29034383167E+01  0.10897890951E+03  0.11376615891E+03  0.00000000000E+00 0.  1.
        -11    1    4    4    0    0 -0.29484245948E+02 -0.11110955328E+03  0.77579796831E+02  0.13868409593E+03  0.00000000000E+00 0.  1.
         11    1    4    4    0    0 -0.24177402280E+03 -0.35846523327E+03  0.43846946321E+03  0.61579823947E+03  0.00000000000E+00 0. -1.
          4    1    1    2  501    0  0.22080800879E+03  0.48404843930E+03  0.93010410499E+03  0.10715188820E+04  0.00000000000E+00 0. -1.
<scales pt_clust_5="13000.00000" pt_clust_6="13000.00000" pt_clust_7="13000.00000" pt_clust_8="13000.00000" pt_clust_9="535.27461"></scales>
<clustering>
<clus scale="   76.502">  5  6 -1 -1</clus>
<clus scale="   92.775">  2  5  1 -1</clus>
<clus scale="   94.102">  7  8 -1 -1</clus>
<clus scale="  535.275">  1  9  2 -1</clus>
<clus scale="  535.275">  1  5  2 -1</clus>
</clustering>
</event>
<event>
 9    1  0.6270443E-005  0.1396110E+03  0.7546771E-02  0.1214393E+00
          1   -1    0    0  502    0 -0.00000000000E+00  0.00000000000E+00  0.26555813090E+03  0.26555813090E+03  0.00000000000E+00 0. -1.
         21   -1    0    0  501  502  0.00000000000E+00 -0.00000000000E+00 -0.14886636439E+03  0.14886636439E+03  0.00000000000E+00 0. -1.
        -24    2    1    2    0    0 -0.90465245483E+02  0.70167018228E+02  0.68853828975E+02  0.16026675177E+03  0.88528023087E+02 0.  0.
         23    2    1    2    0    0  0.48295266181E+01 -0.11932303496E+03  0.38407174027E+02  0.15496737288E+03  0.90986068392E+02 0.  0.
         13    1    3    3    0    0 -0.30693556194E+02  0.49260815989E+02 -0.10251081453E+02  0.58939011315E+02  0.00000000000E+00 0. -1.
        -14    1    3    3    0    0 -0.59771689289E+02  0.20906202239E+02  0.79104910428E+02  0.10132774046E+03  0.00000000000E+00 0.  1.
        -13    1    4    4    0    0 -0.94752848173E+01 -0.94532749178E+02  0.65627047426E+02  0.11546917789E+03  0.00000000000E+00 0. -1.
         13    1    4    4    0    0  0.14304811435E+02 -0.24790285778E+02 -0.27219873399E+02  0.39498194985E+02  0.00000000000E+00 0.  1.
          2    1    1    2  501    0  0.85635718865E+02  0.49156016728E+02  0.94307635119E+01  0.99190370634E+02  0.00000000000E+00 0. -1.
<scales pt_clust_5="13000.00000" pt_clust_6="13000.00000" pt_clust_7="13000.00000" pt_clust_8="13000.00000" pt_clust_9="98.74103"></scales>
<clustering>
<clus scale="   88.528">  5  6 -1 -1</clus>
<clus scale="   90.986">  7  8 -1 -1</clus>
<clus scale="   98.741">  2  9  1 -1</clus>
<clus scale="  138.022">  1  5  2 -1</clus>
<clus scale="   98.741">  2  5  1 -1</clus>
</clustering>
</event>
<event>
 9    1  0.6270443E-005  0.1240839E+03  0.7546771E-02  0.1241107E+00
         21   -1    0    0  501  502  0.00000000000E+00  0.00000000000E+00  0.84020599515E+02  0.84020599515E+02  0.00000000000E+00 0. -1.
         -2   -1    0    0    0  501 -0.00000000000E+00 -0.00000000000E+00 -0.42074580428E+03  0.42074580428E+03  0.00000000000E+00 0.  1.
         23    2    1    2    0    0 -0.73334941548E+02  0.41236635931E+02 -0.33091085774E+03  0.35458820212E+03  0.95667776806E+02 0.  0.
        -24    2    1    2    0    0  0.30446795209E+02 -0.56392151488E+02  0.56749638496E+01  0.10326245791E+03  0.80770340545E+02 0.  0.
         11    1    4    4    0    0  0.38436615257E+02 -0.62248316231E+02  0.28395478663E+02  0.78476298807E+02  0.00000000000E+00 0. -1.
        -12    1    4    4    0    0 -0.79898200484E+01  0.58561647427E+01 -0.22720514813E+02  0.24786159107E+02  0.00000000000E+00 0.  1.
        -11    1    3    3    0    0 -0.92505659135E+02  0.22639989348E+02 -0.29391071088E+03  0.30895529136E+03  0.00000000000E+00 0.  1.
         11    1    3    3    0    0  0.19170717587E+02  0.18596646582E+02 -0.37000146861E+02  0.45632910762E+02  0.00000000000E+00 0. -1.
         -1    1    1    2    0  502  0.42888146339E+02  0.15155515558E+02 -0.11489310877E+02  0.46915743761E+02  0.00000000000E+00 0.  1.
<scales pt_clust_5="13000.00000" pt_clust_6="13000.00000" pt_clust_7="13000.00000" pt_clust_8="13000.00000" pt_clust_9="45.48717"></scales>
<clustering>
<clus scale="   45.487">  1  9  2 -1</clus>
<clus scale="   80.770">  5  6 -1 -1</clus>
<clus scale="   95.668">  7  8 -1 -1</clus>
<clus scale="  112.997">  1  5  2 -1</clus>
<clus scale="   45.487">  1  5  2 -1</clus>
</clustering>
</event>
<event>
 9    1  0.6270443E-005  0.9956459E+02  0.7546771E-02  0.1287886E+00
         -2   -1    0    0    0  501 -0.00000000000E+00  0.00000000000E+00  0.95186042836E+02  0.95186042836E+02  0.00000000000E+00 0.  1.
         21   -1    0    0  501  502  0.00000000000E+00 -0.00000000000E+00 -0.19415184519E+03  0.19415184519E+03  0.00000000000E+00 0.  1.
        -24    2    1    2    0    0  0.51130892267E+01  0.30064398843E+02  0.14938005577E+02  0.86829284288E+02  0.79913508496E+02 0.  0.
         23    2    1    2    0    0  0.20275410796E+02 -0.60605906388E+02 -0.11735972410E+03  0.16264254081E+03  0.92709886577E+02 0.  0.
         11    1    3    3    0    0 -0.30068845193E+02  0.38987491562E+02  0.89611316365E+01  0.50044598408E+02  0.00000000000E+00 0. -1.
        -12    1    3    3    0    0  0.35181934420E+02 -0.89230927197E+01  0.59768739400E+01  0.36784685880E+02  0.00000000000E+00 0.  1.
        -11    1    4    4    0    0  0.27822918742E+02 -0.29613629879E+02 -0.12362801759E+03  0.13013442517E+03  0.00000000000E+00 0.  1.
         11    1    4    4    0    0 -0.75475079463E+01 -0.30992276508E+02  0.62682934873E+01  0.32508115642E+02  0.00000000000E+00 0. -1.
         -1    1    1    2    0  502 -0.25388500023E+02  0.30541507545E+02  0.34559161698E+01  0.39866062924E+02  0.00000000000E+00 0.  1.
<scales pt_clust_5="13000.00000" pt_clust_6="13000.00000" pt_clust_7="13000.00000" pt_clust_8="13000.00000" pt_clust_9="39.71601"></scales>
<clustering>
<clus scale="   39.716">  2  9  1 -1</clus>
<clus scale="   79.914">  5  6 -1 -1</clus>
<clus scale="   87.773">  1  5  2 -1</clus>
<clus scale="   92.710">  7  8 -1 -1</clus>
<clus scale="   39.716">  2  5  1 -1</clus>
</clustering>
</event>
<event>
 9    1  0.6270443E-005  0.1251725E+03  0.7546771E-02  0.1236251E+00
         -2   -1    0    0    0  501 -0.00000000000E+00  0.00000000000E+00  0.52284292244E+03  0.52284292244E+03  0.00000000000E+00 0.  1.
         21   -1    0    0  501  502  0.00000000000E+00 -0.00000000000E+00 -0.69876134911E+02  0.69876134911E+02  0.00000000000E+00 0. -1.
         23    2    1    2    0    0  0.58567085618E+02 -0.73837257890E+02  0.36669547372E+03  0.38893290871E+03  0.89001083468E+02 0.  0.
        -24    2    1    2    0    0 -0.33260345723E+02  0.68907350538E+02  0.11746898876E+03  0.16331356542E+03  0.83772810478E+02 0.  0.
         11    1    4    4    0    0 -0.55110796443E+02  0.52175049464E+02  0.51172630720E+02  0.91531818544E+02  0.00000000000E+00 0. -1.
        -12    1    4    4    0    0  0.21850450720E+02  0.16732301074E+02  0.66296358035E+02  0.71781746877E+02  0.00000000000E+00 0.  1.
        -13    1    3    3    0    0 -0.40056053526E+01 -0.43897681798E+02  0.24432297140E+03  0.24826752848E+03  0.00000000000E+00 0.  1.
         13    1    3    3    0    0  0.62572690971E+02 -0.29939576092E+02  0.12237250232E+03  0.14066538023E+03  0.00000000000E+00 0. -1.
         -1    1    1    2    0  502 -0.25306739895E+02  0.49299073521E+01 -0.31197674947E+02  0.40472583223E+02  0.00000000000E+00 0.  1.
<scales pt_clust_5="13000.00000" pt_clust_6="13000.00000" pt_clust_7="13000.00000" pt_clust_8="13000.00000" pt_clust_9="25.78246"></scales>
<clustering>
<clus scale="   25.782">  2  9  1 -1</clus>
<clus scale="   83.773">  5  6 -1 -1</clus>
<clus scale="   89.001">  7  8 -1 -1</clus>
<clus scale="  121.511">  2  5  1 -1</clus>
<clus scale="   25.782">  2  5  1 -1</clus>
</clustering>
</event>
<event>
 9    1  0.6270443E-005  0.1755238E+03  0.7546771E-02  0.1173512E+00
         21   -1    0    0  501  502  0.00000000000E+00  0.00000000000E+00  0.14309734190E+03  0.14309734190E+03  0.00000000000E+00 0. -1.
          1   -1    0    0  502    0 -0.00000000000E+00 -0.00000000000E+00 -0.95779302195E+03  0.95779302195E+03  0.00000000000E+00 0. -1.
         23    2    1    2    0    0  0.10060693961E+03  0.10226327433E+03 -0.33843207313E+03  0.37879606428E+03  0.91491292607E+02 0.  0.
        -24    2    1    2    0    0 -0.21094922525E+03 -0.43019624911E+02 -0.47143575894E+00  0.23009488886E+03  0.81198348934E+02 0.  0.
         13    1    4    4    0    0 -0.19106810901E+03 -0.14731633077E+02  0.14988359511E+02  0.19222043132E+03  0.00000000000E+00 0. -1.
        -14    1    4    4    0    0 -0.19881116237E+02 -0.28287991834E+02 -0.15459795270E+02  0.37874457549E+02  0.00000000000E+00 0.  1.
        -13    1    3    3    0    0  0.80616117193E+02  0.53732707511E+02 -0.12041883666E+03  0.15455373962E+03  0.00000000000E+00 0. -1.
         13    1    3    3    0    0  0.19990822415E+02  0.48530566818E+02 -0.21801323647E+03  0.22424232467E+03  0.00000000000E+00 0.  1.
          2    1    1    2  501    0  0.11034228564E+03 -0.59243649418E+02 -0.47579217116E+03  0.49199941071E+03  0.00000000000E+00 0. -1.
<scales pt_clust_5="13000.00000" pt_clust_6="13000.00000" pt_clust_7="13000.00000" pt_clust_8="13000.00000" pt_clust_9="125.24075"></scales>
<clustering>
<clus scale="   81.198">  5  6 -1 -1</clus>
<clus scale="   91.491">  7  8 -1 -1</clus>
<clus scale="  125.241">  1  9  2 -1</clus>
<clus scale="  170.385">  1  5  2 -1</clus>
<clus scale="  125.241">  1  5  2 -1</clus>
</clustering>
</event>
<event>
 9    1  0.6270443E-005  0.3185607E+03  0.7546771E-02  0.1076589E+00
          1   -1    0    0  502    0 -0.00000000000E+00  0.00000000000E+00  0.45231231812E+03  0.45231231812E+03  0.00000000000E+00 0. -1.
         21   -1    0    0  501  502  0.00000000000E+00 -0.00000000000E+00 -0.24565277510E+03  0.24565277510E+03  0.00000000000E+00 0. -1.
         23    2    1    2    0    0  0.25936638518E+03 -0.16581894553E+03  0.11198581845E+03  0.33963775632E+03  0.89700264913E+02 0.  0.
        -24    2    1    2    0    0 -0.23927717153E+03  0.18777604141E+03  0.94345221427E+02  0.32856497009E+03  0.80873433319E+02 0.  0.
         11    1    4    4    0    0 -0.85229232528E+02  0.11575498437E+03  0.30673494312E+02  0.14698333830E+03  0.00000000000E+00 0. -1.
        -12    1    4    4    0    0 -0.15404793900E+03  0.72021057040E+02  0.63671727115E+02  0.18158163179E+03  0.00000000000E+00 0.  1.
        -13    1    3    3    0    0  0.59125974332E+02 -0.42291656878E+02 -0.12020414935E+02  0.73681445815E+02  0.00000000000E+00 0.  1.
         13    1    3    3    0    0  0.20024041084E+03 -0.12352728865E+03  0.12400623339E+03  0.26595631050E+03  0.00000000000E+00 0. -1.
          2    1    1    2  501    0 -0.20089213646E+02 -0.21957095883E+02  0.32850314020E+00  0.29762366822E+02  0.00000000000E+00 0. -1.
<scales pt_clust_5="13000.00000" pt_clust_6="13000.00000" pt_clust_7="13000.00000" pt_clust_8="13000.00000" pt_clust_9="29.76055"></scales>
<clustering>
<clus scale="   29.761">  2  9  1 -1</clus>
<clus scale="   80.873">  5  6 -1 -1</clus>
<clus scale="   89.700">  7  8 -1 -1</clus>
<clus scale="  316.189">  2  5  1 -1</clus>
<clus scale="   29.761">  2  5  1 -1</clus>
</clustering>
</event>
<event>
 9    1  0.6270443E-005  0.2943434E+03  0.7546771E-02  0.1108759E+00
         21   -1    0    0  501  502  0.00000000000E+00  0.00000000000E+00  0.42406306437E+03  0.42406306437E+03  0.00000000000E+00 0. -1.
          1   -1    0    0  502    0 -0.00000000000E+00 -0.00000000000E+00 -0.37591686384E+03  0.37591686384E+03  0.00000000000E+00 0. -1.
         23    2    1    2    0    0 -0.14732146047E+03  0.10016370858E+02 -0.59424617969E+02  0.18192320139E+03  0.88095548044E+02 0.  0.
        -24    2    1    2    0    0  0.33472780960E+03 -0.14865069341E+03  0.66500695004E+02  0.38135571262E+03  0.82886078117E+02 0.  0.
         13    1    4    4    0    0  0.18792720594E+03 -0.10087991929E+03  0.76645854299E+02  0.22664505251E+03  0.00000000000E+00 0. -1.
        -14    1    4    4    0    0  0.14680060366E+03 -0.47770774120E+02 -0.10145159295E+02  0.15471066011E+03  0.00000000000E+00 0.  1.
        -11    1    3    3    0    0 -0.96566737200E+02  0.19883866588E+02  0.57139517319E+01  0.98758048424E+02  0.00000000000E+00 0.  1.
         11    1    3    3    0    0 -0.50754723266E+02 -0.98674957295E+01 -0.65138569701E+02  0.83165152970E+02  0.00000000000E+00 0. -1.
          2    1    1    2  501    0 -0.18740634913E+03  0.13863432255E+03  0.41070123495E+02  0.23670101421E+03  0.00000000000E+00 0. -1.
<scales pt_clust_5="13000.00000" pt_clust_6="13000.00000" pt_clust_7="13000.00000" pt_clust_8="13000.00000" pt_clust_9="282.43223"></scales>
<clustering>
<clus scale="   82.886">  5  6 -1 -1</clus>
<clus scale="   88.096">  7  8 -1 -1</clus>
<clus scale="  171.944">  2  7  1 -1</clus>
<clus scale="  282.432">  1  9  2 -1</clus>
<clus scale="  282.432">  1  5  2 -1</clus>
</clustering>
</event>
<event>
 9    1  0.6270443E-005  0.1550857E+03  0.7546771E-02  0.1196419E+00
          1   -1    0    0  502    0 -0.00000000000E+00  0.00000000000E+00  0.33842075361E+03  0.33842075361E+03  0.00000000000E+00 0. -1.
         21   -1    0    0  501  502  0.00000000000E+00 -0.00000000000E+00 -0.42260157713E+03  0.42260157713E+03  0.00000000000E+00 0. -1.
         23    2    1    2    0    0 -0.14725326097E+02  0.11760136292E+03  0.24261225727E+03  0.28513988192E+03  0.91635850466E+02 0.  0.
        -24    2    1    2    0    0  0.82312695643E+02 -0.15631809035E+03 -0.67526362356E+02  0.20516808128E+03  0.79519851162E+02 0.  0.
         11    1    4    4    0    0  0.74736760030E+02 -0.13517820681E+03 -0.24171512070E+02  0.15634254985E+03  0.00000000000E+00 0. -1.
        -12    1    4    4    0    0  0.75759356131E+01 -0.21139883534E+02 -0.43354850286E+02  0.48825531432E+02  0.00000000000E+00 0.  1.
        -13    1    3    3    0    0  0.12515803542E+02  0.10978685038E+03  0.13816560720E+03  0.17691673993E+03  0.00000000000E+00 0. -1.
         13    1    3    3    0    0 -0.27241129640E+02  0.78145125416E+01  0.10444665007E+03  0.10822314198E+03  0.00000000000E+00 0.  1.
          2    1    1    2  501    0 -0.67587369545E+02  0.38716727430E+02 -0.25926671844E+03  0.27071436755E+03  0.00000000000E+00 0. -1.
<scales pt_clust_5="13000.00000" pt_clust_6="13000.00000" pt_clust_7="13000.00000" pt_clust_8="13000.00000" pt_clust_9="77.89119"></scales>
<clustering>
<clus scale="   77.891">  2  9  1 -1</clus>
<clus scale="   79.520">  5  6 -1 -1</clus>
<clus scale="   91.636">  7  8 -1 -1</clus>
<clus scale="  148.249">  2  5  1 -1</clus>
<clus scale="   77.891">  2  5  1 -1</clus>
</clustering>
</event>
<event>
 9    1  0.6270443E-005  0.1518135E+03  0.7546771E-02  0.1200259E+00
         21   -1    0    0  501  502  0.00000000000E+00  0.00000000000E+00  0.83948070051E+02  0.83948070051E+02  0.00000000000E+00 0.  1.
         -2   -1    0    0    0  501 -0.00000000000E+00 -0.00000000000E+00 -0.40071715029E+03  0.40071715029E+03  0.00000000000E+00 0.  1.
        -24    2    1    2    0    0  0.46683111257E+02 -0.12069613124E+03 -0.23609456973E+03  0.28073435992E+03  0.79525253927E+02 0.  0.
         23    2    1    2    0    0 -0.45954929604E+02  0.99002450835E+02 -0.10097171623E+03  0.17421348204E+03  0.90783858815E+02 0.  0.
         11    1    3    3    0    0  0.36989458564E+02 -0.67431784579E+02 -0.20348003020E+03  0.21753020091E+03  0.00000000000E+00 0. -1.
        -12    1    3    3    0    0  0.96936526925E+01 -0.53264346662E+02 -0.32614539523E+02  0.63204159010E+02  0.00000000000E+00 0.  1.
        -13    1    4    4    0    0  0.83308104103E-01  0.50279694648E+02 -0.94277417670E+02  0.10684702203E+03  0.00000000000E+00 0. -1.
         13    1    4    4    0    0 -0.46038237708E+02  0.48722756187E+02 -0.66942985608E+01  0.67366460015E+02  0.00000000000E+00 0.  1.
         -1    1    1    2    0  502 -0.72818165255E+00  0.21693680406E+02  0.20297205712E+02  0.29717378381E+02  0.00000000000E+00 0.  1.
<scales pt_clust_5="13000.00000" pt_clust_6="13000.00000" pt_clust_7="13000.00000" pt_clust_8="13000.00000" pt_clust_9="21.70590"></scales>
<clustering>
<clus scale="   21.706">  1  9  2 -1</clus>
<clus scale="   79.525">  5  6 -1 -1</clus>
<clus scale="   90.784">  7  8 -1 -1</clus>
<clus scale="  145.361">  2  5  1 -1</clus>
<clus scale="   21.706">  1  5  2 -1</clus>
</clustering>
</event>
<event>
 9    1  0.6270443E-005  0.1016449E+03  0.7546771E-02  0.1284130E+00
         21   -1    0    0  501  502  0.00000000000E+00  0.00000000000E+00  0.12873122852E+03  0.12873122852E+03  0.00000000000E+00 0. -1.
          1   -1    0    0  502    0 -0.00000000000E+00 -0.00000000000E+00 -0.93123597189E+02  0.93123597189E+02  0.00000000000E+00 0. -1.
         23    2    1    2    0    0 -0.54469803733E+01 -0.34705810386E+02  0.51480017411E+00  0.99057525002E+02  0.92617306000E+02 0.  0.
        -24    2    1    2    0    0 -0.80447785508E+01  0.51799708984E+02  0.36832846232E+02  0.10095109782E+03  0.78016262898E+02 0.  0.
         11    1    4    4    0    0 -0.10125146307E+02  0.21020205801E+02  0.58680406353E+02  0.63148695390E+02  0.00000000000E+00 0. -1.
        -12    1    4    4    0    0  0.20803677562E+01  0.30779503183E+02 -0.21847560121E+02  0.37802402429E+02  0.00000000000E+00 0.  1.
        -13    1    3    3    0    0  0.23766344689E+02  0.12321913220E+02  0.26704536938E+02  0.37812709217E+02  0.00000000000E+00 0.  1.
         13    1    3    3    0    0 -0.29213325063E+02 -0.47027723606E+02 -0.26189736764E+02  0.61244815785E+02  0.00000000000E+00 0. -1.
          2    1    1    2  501    0  0.13491758924E+02 -0.17093898598E+02 -0.17400150750E+01  0.21846202888E+02  0.00000000000E+00 0. -1.
<scales pt_clust_5="13000.00000" pt_clust_6="13000.00000" pt_clust_7="13000.00000" pt_clust_8="13000.00000" pt_clust_9="21.77681"></scales>
<clustering>
<clus scale="   21.777">  1  9  2 -1</clus>
<clus scale="   78.016">  5  6 -1 -1</clus>
<clus scale="   88.545">  1  5  2 -1</clus>
<clus scale="   92.617">  7  8 -1 -1</clus>
<clus scale="   21.777">  1  5  2 -1</clus>
</clustering>
</event>
<event>
 9    1  0.6270443E-005  0.9631643E+02  0.7546771E-02  0.1294266E+00
          1   -1    0    0  502    0 -0.00000000000E+00  0.00000000000E+00  0.14192649323E+03  0.14192649323E+03  0.00000000000E+00 0. -1.
         21   -1    0    0  501  502  0.00000000000E+00 -0.00000000000E+00 -0.12069143368E+03  0.12069143368E+03  0.00000000000E+00 0. -1.
        -24    2    1    2    0    0  0.84875992961E+01  0.30960761058E+02  0.78017992490E+02  0.11755399782E+03  0.81862855952E+02 0.  0.
         23    2    1    2    0    0  0.17277616455E+02 -0.67426016818E+01 -0.55809154925E+02  0.10969001455E+03  0.92591893867E+02 0.  0.
         11    1    3    3    0    0  0.11713500493E+02  0.51828113382E+02  0.80329135656E+02  0.96312665137E+02  0.00000000000E+00 0. -1.
        -12    1    3    3    0    0 -0.32259011972E+01 -0.20867352324E+02 -0.23111431654E+01  0.21241332686E+02  0.00000000000E+00 0.  1.
        -11    1    4    4    0    0  0.26105442406E+02 -0.46378196020E+02 -0.37744628769E+02  0.65246365340E+02  0.00000000000E+00 0. -1.
         11    1    4    4    0    0 -0.88278259506E+01  0.39635594338E+02 -0.18064526156E+02  0.44443649206E+02  0.00000000000E+00 0.  1.
          2    1    1    2  501    0 -0.25765215751E+02 -0.24218159376E+02 -0.97377802181E+00  0.35373914540E+02  0.00000000000E+00 0. -1.
<scales pt_clust_5="13000.00000" pt_clust_6="13000.00000" pt_clust_7="13000.00000" pt_clust_8="13000.00000" pt_clust_9="35.36051"></scales>
<clustering>
<clus scale="   35.361">  2  9  1 -1</clus>
<clus scale="   81.863">  5  6 -1 -1</clus>
<clus scale="   86.053">  1  5  2 -1</clus>
<clus scale="   92.592">  7  8 -1 -1</clus>
<clus scale="   35.361">  2  5  1 -1</clus>
</clustering>
</event>
<event>
 9    1  0.6270443E-005  0.1056416E+03  0.7546771E-02  0.1272364E+00
         -2   -1    0    0    0  501 -0.00000000000E+00  0.00000000000E+00  0.29258615935E+03  0.29258615935E+03  0.00000000000E+00 0.  1.
         21   -1    0    0  501  502  0.00000000000E+00 -0.00000000000E+00 -0.50145762575E+02  0.50145762575E+02  0.00000000000E+00 0. -1.
         23    2    1    2    0    0  0.31863574602E+02 -0.49931754762E+02  0.11607838898E+03  0.15804444656E+03  0.89416928935E+02 0.  0.
        -24    2    1    2    0    0 -0.83284624437E+01  0.54561178632E+02  0.62176596956E+02  0.11616667535E+03  0.81132495050E+02 0.  0.
         13    1    4    4    0    0  0.22103646827E+02  0.60457486841E+02  0.28508390740E+02  0.70401756092E+02  0.00000000000E+00 0. -1.
        -14    1    4    4    0    0 -0.30432109270E+02 -0.58963082095E+01  0.33668206216E+02  0.45764919261E+02  0.00000000000E+00 0.  1.
        -13    1    3    3    0    0  0.33316081002E+02  0.14045446698E+02  0.16656907611E+02  0.39808144862E+02  0.00000000000E+00 0.  1.
         13    1    3    3    0    0 -0.14525063993E+01 -0.63977201460E+02  0.99421481366E+02  0.11823630169E+03  0.00000000000E+00 0. -1.
         -1    1    1    2    0  502 -0.23535112159E+02 -0.46294238700E+01  0.64185410841E+02  0.68520800014E+02  0.00000000000E+00 0.  1.
<scales pt_clust_5="13000.00000" pt_clust_6="13000.00000" pt_clust_7="13000.00000" pt_clust_8="13000.00000" pt_clust_9="23.98611"></scales>
<clustering>
<clus scale="   23.986">  2  9  1 -1</clus>
<clus scale="   81.132">  5  6 -1 -1</clus>
<clus scale="   89.417">  7  8 -1 -1</clus>
<clus scale="   98.728">  2  5  1 -1</clus>
<clus scale="   23.986">  2  5  1 -1</clus>
</clustering>
</event>
<event>
 9    1  0.6270443E-005  0.8224340E+02  0.7546771E-02  0.1323942E+00
          1   -1    0    0  502    0 -0.00000000000E+00  0.00000000000E+00  0.68860241475E+02  0.68860241475E+02  0.00000000000E+00 0. -1.
         21   -1    0    0  501  502  0.00000000000E+00 -0.00000000000E+00 -0.40645405413E+03  0.40645405413E+03  0.00000000000E+00 0.  1.
         23    2    1    2    0    0 -0.41344213683E+01 -0.15518415744E+02  0.12061487806E+02  0.84098321896E+02  0.81664763456E+02 0.  0.
        -24    2    1    2    0    0 -0.92113019290E+00 -0.45340558236E+02 -0.29588998475E+03  0.30985208436E+03  0.80005102394E+02 0.  0.
         13    1    4    4    0    0 -0.12769756185E+02  0.20245948987E+02 -0.56589987773E+02  0.61444217299E+02  0.00000000000E+00 0. -1.
        -14    1    4    4    0    0  0.11848625992E+02 -0.65586507223E+02 -0.23929999697E+03  0.24840786707E+03  0.00000000000E+00 0.  1.
        -11    1    3    3    0    0  0.32611814314E+02  0.12131197297E+02  0.15273044953E+02  0.37999503718E+02  0.00000000000E+00 0. -1.
         11    1    3    3    0    0 -0.36746235682E+02 -0.27649613041E+02 -0.32115571470E+01  0.46098818178E+02  0.00000000000E+00 0.  1.
          2    1    1    2  501    0  0.50555515612E+01  0.60858973980E+02 -0.53765315713E+02  0.81363889344E+02  0.00000000000E+00 0. -1.
<scales pt_clust_5="13000.00000" pt_clust_6="13000.00000" pt_clust_7="13000.00000" pt_clust_8="13000.00000" pt_clust_9="61.06863"></scales>
<clustering>
<clus scale="   61.069">  2  9  1 -1</clus>
<clus scale="   80.005">  5  6 -1 -1</clus>
<clus scale="   80.596">  2  5  1 -1</clus>
<clus scale="   81.665">  7  8 -1 -1</clus>
<clus scale="   61.069">  2  5  1 -1</clus>
</clustering>
</event>
<event>
 9    1  0.6270443E-005  0.1061501E+03  0.7546771E-02  0.1279622E+00
          3   -1    0    0  502    0 -0.00000000000E+00  0.00000000000E+00  0.10776773147E+03  0.10776773147E+03  0.00000000000E+00 0. -1.
         21   -1    0    0  501  502  0.00000000000E+00 -0.00000000000E+00 -0.24521303581E+03  0.24521303581E+03  0.00000000000E+00 0. -1.
        -24    2    1    2    0    0  0.32639872534E+02  0.27836473445E+02  0.37401276173E+02  0.97915945531E+02  0.79677138483E+02 0.  0.
         23    2    1    2    0    0  0.36933538407E+02  0.49587598243E+01 -0.10115169407E+03  0.14854288447E+03  0.10219905947E+03 0.  0.
         13    1    3    3    0    0  0.46682316622E+02  0.46594187571E+02  0.34108917141E+02  0.74254126007E+02  0.00000000000E+00 0. -1.
        -14    1    3    3    0    0 -0.14042444087E+02 -0.18757714125E+02  0.32923590311E+01  0.23661819523E+02  0.00000000000E+00 0.  1.
        -13    1    4    4    0    0  0.58921869002E+02  0.35501925393E+02 -0.50019147950E+02  0.85053445050E+02  0.00000000000E+00 0. -1.
         13    1    4    4    0    0 -0.21988330595E+02 -0.30543165569E+02 -0.51132546124E+02  0.63489439424E+02  0.00000000000E+00 0.  1.
          4    1    1    2  501    0 -0.69573410941E+02 -0.32795233270E+02 -0.73694886439E+02  0.10652193728E+03  0.00000000000E+00 0. -1.
<scales pt_clust_5="13000.00000" pt_clust_6="13000.00000" pt_clust_7="13000.00000" pt_clust_8="13000.00000" pt_clust_9="76.91545"></scales>
<clustering>
<clus scale="   76.915">  2  9  1 -1</clus>
<clus scale="   79.677">  5  6 -1 -1</clus>
<clus scale="   84.686">  1  5  2 -1</clus>
<clus scale="  102.199">  7  8 -1 -1</clus>
<clus scale="   76.915">  2  5  1 -1</clus>
</clustering>
</event>
<event>
 9    1  0.6270443E-005  0.1552134E+03  0.7546771E-02  0.1210720E+00
         21   -1    0    0  501  502  0.00000000000E+00  0.00000000000E+00  0.84344982135E+02  0.84344982135E+02  0.00000000000E+00 0. -1.
          1   -1    0    0  502    0 -0.00000000000E+00 -0.00000000000E+00 -0.51045017633E+03  0.51045017633E+03  0.00000000000E+00 0. -1.
         23    2    1    2    0    0  0.15185289859E+02 -0.59290465490E+02 -0.15592544564E+03  0.19001880363E+03  0.89713147360E+02 0.  0.
        -24    2    1    2    0    0  0.11987725282E+03  0.14818668582E+02 -0.19629842075E+03  0.24453253513E+03  0.81688077859E+02 0.  0.
         11    1    4    4    0    0  0.88382028223E+02 -0.13217335368E+02 -0.76864396788E+02  0.11787373058E+03  0.00000000000E+00 0. -1.
        -12    1    4    4    0    0  0.31495224598E+02  0.28036003950E+02 -0.11943402396E+03  0.12665880455E+03  0.00000000000E+00 0.  1.
        -11    1    3    3    0    0 -0.19877305111E+01  0.19983541577E+02 -0.65664637083E+02  0.68666859326E+02  0.00000000000E+00 0.  1.
         11    1    3    3    0    0  0.17173020371E+02 -0.79274007068E+02 -0.90260808560E+02  0.12135194431E+03  0.00000000000E+00 0. -1.
          2    1    1    2  501    0 -0.13506254268E+03  0.44471796908E+02 -0.73881327804E+02  0.16024381971E+03  0.00000000000E+00 0. -1.
<scales pt_clust_5="13000.00000" pt_clust_6="13000.00000" pt_clust_7="13000.00000" pt_clust_8="13000.00000" pt_clust_9="131.97822"></scales>
<clustering>
<clus scale="   81.688">  5  6 -1 -1</clus>
<clus scale="   89.713">  7  8 -1 -1</clus>
<clus scale="  108.602">  2  7  1 -1</clus>
<clus scale="  131.978">  1  9  2 -1</clus>
<clus scale="  131.978">  1  5  2 -1</clus>
</clustering>
</event>
<event>
 9    1  0.6270443E-005  0.1256474E+03  0.7546771E-02  0.1237513E+00
          1   -1    0    0  502    0 -0.00000000000E+00  0.00000000000E+00  0.45393414594E+03  0.45393414594E+03  0.00000000000E+00 0. -1.
         21   -1    0    0  501  502  0.00000000000E+00 -0.00000000000E+00 -0.22296855566E+03  0.22296855566E+03  0.00000000000E+00 0. -1.
         23    2    1    2    0    0 -0.10459925997E+01  0.85277299853E+02  0.31572796246E+03  0.33989095911E+03  0.92565683868E+02 0.  0.
        -24    2    1    2    0    0  0.26357516502E+02 -0.82764277939E+02  0.97225211215E+02  0.15325519422E+03  0.80559099301E+02 0.  0.
         11    1    4    4    0    0  0.29358675001E+02 -0.35171052697E+02  0.95053215688E+02  0.10551800111E+03  0.00000000000E+00 0. -1.
        -12    1    4    4    0    0 -0.30011584989E+01 -0.47593225241E+02  0.21719955266E+01  0.47737193108E+02  0.00000000000E+00 0.  1.
        -11    1    3    3    0    0  0.32227687830E+02  0.69314220091E+02  0.13236899627E+03  0.15285495132E+03  0.00000000000E+00 0.  1.
         11    1    3    3    0    0 -0.33273680430E+02  0.15963079761E+02  0.18335896619E+03  0.18703600778E+03  0.00000000000E+00 0. -1.
          2    1    1    2  501    0 -0.25311523902E+02 -0.25130219137E+01 -0.18198758340E+03  0.18375654827E+03  0.00000000000E+00 0. -1.
<scales pt_clust_5="13000.00000" pt_clust_6="13000.00000" pt_clust_7="13000.00000" pt_clust_8="13000.00000" pt_clust_9="25.43597"></scales>
<clustering>
<clus scale="   25.436">  2  9  1 -1</clus>
<clus scale="   80.559">  5  6 -1 -1</clus>
<clus scale="   92.566">  7  8 -1 -1</clus>
<clus scale="  117.084">  2  5  1 -1</clus>
<clus scale="   25.436">  2  5  1 -1</clus>
</clustering>
</event>
<event>
 9    1  0.6270443E-005  0.1801405E+03  0.7546771E-02  0.1169060E+00
         21   -1    0    0  501  502  0.00000000000E+00  0.00000000000E+00  0.11255295212E+04  0.11255295212E+04  0.00000000000E+00 0. -1.
         -2   -1    0    0    0  501 -0.00000000000E+00 -0.00000000000E+00 -0.74861978020E+02  0.74861978020E+02  0.00000000000E+00 0.  1.
         23    2    1    2    0    0  0.13041476289E+03 -0.69197502800E+02  0.75622753349E+02  0.19061626773E+03  0.93911958368E+02 0.  0.
        -24    2    1    2    0    0 -0.17975283397E+03  0.55830576490E+02  0.68156384504E+03  0.71187594493E+03  0.82522430396E+02 0.  0.
         13    1    4    4    0    0 -0.15713449235E+03  0.36448679797E+02  0.44288876399E+03  0.47134935262E+03  0.00000000000E+00 0. -1.
        -14    1    4    4    0    0 -0.22618341622E+02  0.19381896692E+02  0.23867508105E+03  0.24052659232E+03  0.00000000000E+00 0.  1.
        -11    1    3    3    0    0  0.65067235237E+02 -0.20582379307E+01 -0.72895002491E+01  0.65506627594E+02  0.00000000000E+00 0.  1.
         11    1    3    3    0    0  0.65347527653E+02 -0.67139264870E+02  0.82912253598E+02  0.12510964013E+03  0.00000000000E+00 0. -1.
         -1    1    1    2    0  502  0.49338071080E+02  0.13366926311E+02  0.29348094478E+03  0.29789928655E+03  0.00000000000E+00 0.  1.
<scales pt_clust_5="13000.00000" pt_clust_6="13000.00000" pt_clust_7="13000.00000" pt_clust_8="13000.00000" pt_clust_9="51.11673"></scales>
<clustering>
<clus scale="   51.117">  1  9  2 -1</clus>
<clus scale="   82.522">  5  6 -1 -1</clus>
<clus scale="   93.912">  7  8 -1 -1</clus>
<clus scale="  174.474">  1  5  2 -1</clus>
<clus scale="   51.117">  1  5  2 -1</clus>
</clustering>
</event>
<event>
 9    1  0.6270443E-005  0.1398175E+03  0.7546771E-02  0.1214741E+00
          3   -1    0    0  502    0 -0.00000000000E+00  0.00000000000E+00  0.11431298446E+03  0.11431298446E+03  0.00000000000E+00 0. -1.
         21   -1    0    0  501  502  0.00000000000E+00 -0.00000000000E+00 -0.66655899272E+03  0.66655899272E+03  0.00000000000E+00 0.  1.
        -24    2    1    2    0    0 -0.95301050754E+02  0.46502919975E+02  0.55722162540E+02  0.14726111208E+03  0.85650825406E+02 0.  0.
         23    2    1    2    0    0  0.83016752864E+02 -0.73606355137E+02 -0.43370767410E+03  0.45682788832E+03  0.90992835971E+02 0.  0.
         11    1    3    3    0    0 -0.40911841550E+02  0.52547100018E+02  0.63463387100E+02  0.91992271422E+02  0.00000000000E+00 0. -1.
        -12    1    3    3    0    0 -0.54389209204E+02 -0.60441800430E+01 -0.77412245598E+01  0.55268840660E+02  0.00000000000E+00 0.  1.
        -11    1    4    4    0    0  0.79273341503E+02 -0.11812781424E+02 -0.27610235899E+03  0.28750011672E+03  0.00000000000E+00 0.  1.
         11    1    4    4    0    0  0.37434113607E+01 -0.61793573712E+02 -0.15760531512E+03  0.16932777160E+03  0.00000000000E+00 0. -1.
          4    1    1    2  501    0  0.12284297891E+02  0.27103435162E+02 -0.17426049670E+03  0.17678297679E+03  0.00000000000E+00 0. -1.
<scales pt_clust_5="13000.00000" pt_clust_6="13000.00000" pt_clust_7="13000.00000" pt_clust_8="13000.00000" pt_clust_9="29.75735"></scales>
<clustering>
<clus scale="   29.757">  2  9  1 -1</clus>
<clus scale="   85.651">  5  6 -1 -1</clus>
<clus scale="   90.993">  7  8 -1 -1</clus>
<clus scale="  136.401">  1  5  2 -1</clus>
<clus scale="   29.757">  2  5  1 -1</clus>
</clustering>
</event>
<event>
 9    1  0.6270443E-005  0.9724965E+02  0.7546771E-02  0.1288935E+00
          1   -1    0    0  502    0 -0.00000000000E+00  0.00000000000E+00  0.10055505523E+03  0.10055505523E+03  0.00000000000E+00 0. -1.
         21   -1    0    0  501  502  0.00000000000E+00 -0.00000000000E+00 -0.60935998792E+03  0.60935998792E+03  0.00000000000E+00 0. -1.
         23    2    1    2    0    0 -0.17205936126E+02  0.14029881087E+02  0.39247311035E+02  0.10197347912E+03  0.91462326771E+02 0.  0.
        -24    2    1    2    0    0  0.10920221157E+03 -0.59095289288E+01 -0.16212661659E+03  0.21111938158E+03  0.79538091043E+02 0.  0.
         13    1    4    4    0    0  0.10887956002E+03  0.16919043750E+02 -0.11806558903E+03  0.16149456939E+03  0.00000000000E+00 0. -1.
        -14    1    4    4    0    0  0.32265155563E+00 -0.22828572679E+02 -0.44061027566E+02  0.49624812188E+02  0.00000000000E+00 0.  1.
        -11    1    3    3    0    0  0.72149686466E+01  0.42937776716E+02  0.46215662528E+02  0.63494849435E+02  0.00000000000E+00 0.  1.
         11    1    3    3    0    0 -0.24420904773E+02 -0.28907895629E+02 -0.69683514933E+01  0.38478629681E+02  0.00000000000E+00 0. -1.
          2    1    1    2  501    0 -0.91996275449E+02 -0.81203521585E+01 -0.38592562712E+03  0.39682218245E+03  0.00000000000E+00 0. -1.
<scales pt_clust_5="13000.00000" pt_clust_6="13000.00000" pt_clust_7="13000.00000" pt_clust_8="13000.00000" pt_clust_9="92.35396"></scales>
<clustering>
<clus scale="   79.538">  5  6 -1 -1</clus>
<clus scale="   91.462">  7  8 -1 -1</clus>
<clus scale="   92.354">  2  9  1 -1</clus>
<clus scale="   92.354">  2  5  1 -1</clus>
<clus scale="   92.354">  2  5  1 -1</clus>
</clustering>
</event>
<event>
 9    1  0.6270443E-005  0.1343920E+03  0.7546771E-02  0.1235445E+00
         21   -1    0    0  501  502  0.00000000000E+00  0.00000000000E+00  0.13819559753E+03  0.13819559753E+03  0.00000000000E+00 0. -1.
          1   -1    0    0  502    0 -0.00000000000E+00 -0.00000000000E+00 -0.21221258819E+03  0.21221258819E+03  0.00000000000E+00 0. -1.
        -24    2    1    2    0    0  0.29220058039E+02 -0.52731206647E+02 -0.45178631059E+02  0.10955951704E+03  0.79547389174E+02 0.  0.
         23    2    1    2    0    0 -0.67029278428E+02 -0.44843855558E+02 -0.47432534793E+02  0.13456521154E+03  0.96716364961E+02 0.  0.
         11    1    3    3    0    0  0.10565673918E+02 -0.45304431365E+02 -0.65926411046E+02  0.80687152881E+02  0.00000000000E+00 0. -1.
        -12    1    3    3    0    0  0.18654384121E+02 -0.74267752821E+01  0.20747779987E+02  0.28872364164E+02  0.00000000000E+00 0.  1.
        -11    1    4    4    0    0  0.23887814350E+00  0.23009223174E+02  0.76865739943E+01  0.24260355183E+02  0.00000000000E+00 0.  1.
         11    1    4    4    0    0 -0.67268156571E+02 -0.67853078732E+02 -0.55119108787E+02  0.11030485635E+03  0.00000000000E+00 0. -1.
          2    1    1    2  501    0  0.37809220388E+02  0.97575062205E+02  0.18594175185E+02  0.10628345714E+03  0.00000000000E+00 0. -1.
<scales pt_clust_5="13000.00000" pt_clust_6="13000.00000" pt_clust_7="13000.00000" pt_clust_8="13000.00000" pt_clust_9="93.31207"></scales>
<clustering>
<clus scale="   79.547">  5  6 -1 -1</clus>
<clus scale="   96.716">  7  8 -1 -1</clus>
<clus scale="   99.811">  2  5  1 -1</clus>
<clus scale="   93.312">  1  9  2 -1</clus>
<clus scale="   93.312">  1  5  2 -1</clus>
</clustering>
</event>
<event>
 9    1  0.6270443E-005  0.9075850E+02  0.7546771E-02  0.1307416E+00
         21   -1    0    0  501  502  0.00000000000E+00  0.00000000000E+00  0.34623640668E+03  0.34623640668E+03  0.00000000000E+00 0.  1.
          1   -1    0    0  502    0 -0.00000000000E+00 -0.00000000000E+00 -0.54384701444E+02  0.54384701444E+02  0.00000000000E+00 0. -1.
         23    2    1    2    0    0 -0.86576027123E+01 -0.22384485526E+02  0.18531774958E+02  0.93979735270E+02  0.88953609715E+02 0.  0.
        -24    2    1    2    0    0  0.26400737033E+02 -0.22643272854E+02  0.20999997858E+03  0.22694360548E+03  0.78700014908E+02 0.  0.
         11    1    4    4    0    0  0.13742611052E+02  0.23837183044E+02  0.13521426684E+03  0.13798539274E+03  0.00000000000E+00 0. -1.
        -12    1    4    4    0    0  0.12658125981E+02 -0.46480455898E+02  0.74785711740E+02  0.88958212742E+02  0.00000000000E+00 0.  1.
        -11    1    3    3    0    0 -0.95630659527E+01  0.24001331702E+02  0.36080578850E+02  0.44377069800E+02  0.00000000000E+00 0. -1.
         11    1    3    3    0    0  0.90546324045E+00 -0.46385817229E+02 -0.17548803892E+02  0.49602665470E+02  0.00000000000E+00 0.  1.
          2    1    1    2  501    0 -0.17743134321E+02  0.45027758380E+02  0.63319951701E+02  0.79697767369E+02  0.00000000000E+00 0. -1.
<scales pt_clust_5="13000.00000" pt_clust_6="13000.00000" pt_clust_7="13000.00000" pt_clust_8="13000.00000" pt_clust_9="48.39750"></scales>
<clustering>
<clus scale="   48.397">  1  9  2 -1</clus>
<clus scale="   78.700">  5  6 -1 -1</clus>
<clus scale="   80.734">  1  5  2 -1</clus>
<clus scale="   88.954">  7  8 -1 -1</clus>
<clus scale="   48.397">  1  5  2 -1</clus>
</clustering>
</event>
<event>
 9    1  0.6270443E-005  0.1630252E+03  0.7546771E-02  0.1186425E+00
          1   -1    0    0  502    0 -0.00000000000E+00  0.00000000000E+00  0.27213285924E+03  0.27213285924E+03  0.00000000000E+00 0. -1.
         21   -1    0    0  501  502  0.00000000000E+00 -0.00000000000E+00 -0.23888226235E+03  0.23888226235E+03  0.00000000000E+00 0. -1.
        -24    2    1    2    0    0  0.41327633268E+02  0.14170826556E+03  0.18028931422E+03  0.24637105632E+03  0.80032835594E+02 0.  0.
         23    2    1    2    0    0 -0.25488556236E+00 -0.87107941954E+02 -0.15230432082E+03  0.19611748267E+03  0.87621928463E+02 0.  0.
         13    1    3    3    0    0  0.15154403045E+02  0.98658661640E+02  0.16651532385E+03  0.19414051747E+03  0.00000000000E+00 0. -1.
        -14    1    3    3    0    0  0.26173230223E+02  0.43049603922E+02  0.13773990371E+02  0.52230538854E+02  0.00000000000E+00 0.  1.
        -11    1    4    4    0    0  0.19326062685E+02 -0.10355410812E+02  0.26558217091E+01  0.22085846620E+02  0.00000000000E+00 0.  1.
         11    1    4    4    0    0 -0.19580948247E+02 -0.76752531142E+02 -0.15496014253E+03  0.17403163605E+03  0.00000000000E+00 0. -1.
          2    1    1    2  501    0 -0.41072747706E+02 -0.54600323608E+02  0.52656034943E+01  0.68526582597E+02  0.00000000000E+00 0. -1.
<scales pt_clust_5="13000.00000" pt_clust_6="13000.00000" pt_clust_7="13000.00000" pt_clust_8="13000.00000" pt_clust_9="68.32401"></scales>
<clustering>
<clus scale="   68.324">  2  9  1 -1</clus>
<clus scale="   80.033">  5  6 -1 -1</clus>
<clus scale="   87.622">  7  8 -1 -1</clus>
<clus scale="  159.075">  1  5  2 -1</clus>
<clus scale="   68.324">  2  5  1 -1</clus>
</clustering>
</event>
<event>
 9    1  0.6270443E-005  0.1374736E+03  0.7546771E-02  0.1222531E+00
          3   -1    0    0  502    0 -0.00000000000E+00  0.00000000000E+00  0.31215283836E+03  0.31215283836E+03  0.00000000000E+00 0. -1.
         21   -1    0    0  501  502  0.00000000000E+00 -0.00000000000E+00 -0.11668481448E+03  0.11668481448E+03  0.00000000000E+00 0. -1.
         23    2    1    2    0    0  0.56666637232E+01 -0.10525778641E+03  0.19908354864E+03  0.24267488850E+03  0.90252587184E+02 0.  0.
        -24    2    1    2    0    0 -0.60010374855E+02  0.91487877541E+02 -0.18781478062E+02  0.12808647426E+03  0.63891502897E+02 0.  0.
         11    1    4    4    0    0 -0.69339268862E+02  0.61658852681E+02 -0.24456939905E+01  0.92820955281E+02  0.00000000000E+00 0. -1.
        -12    1    4    4    0    0  0.93288940066E+01  0.29829024860E+02 -0.16335784071E+02  0.35265518977E+02  0.00000000000E+00 0.  1.
        -11    1    3    3    0    0 -0.38906366963E+02 -0.73749722458E+02  0.10734439620E+03  0.13592478195E+03  0.00000000000E+00 0. -1.
         11    1    3    3    0    0  0.44573030686E+02 -0.31508063949E+02  0.91739152440E+02  0.10675010655E+03  0.00000000000E+00 0.  1.
          4    1    1    2  501    0  0.54343711132E+02  0.13769908866E+02  0.15165953296E+02  0.58076290078E+02  0.00000000000E+00 0. -1.
<scales pt_clust_5="13000.00000" pt_clust_6="13000.00000" pt_clust_7="13000.00000" pt_clust_8="13000.00000" pt_clust_9="56.06112"></scales>
<clustering>
<clus scale="   56.061">  2  9  1 -1</clus>
<clus scale="   63.892">  5  6 -1 -1</clus>
<clus scale="   90.253">  7  8 -1 -1</clus>
<clus scale="  121.801">  2  5  1 -1</clus>
<clus scale="   56.061">  2  5  1 -1</clus>
</clustering>
</event>
<event>
 9    1  0.6270443E-005  0.1472269E+03  0.7546771E-02  0.1207646E+00
          3   -1    0    0  502    0 -0.00000000000E+00  0.00000000000E+00  0.48993876388E+03  0.48993876388E+03  0.00000000000E+00 0. -1.
         21   -1    0    0  501  502  0.00000000000E+00 -0.00000000000E+00 -0.70203732905E+02  0.70203732905E+02  0.00000000000E+00 0. -1.
        -24    2    1    2    0    0  0.53717386751E+02  0.93262963367E+02  0.18240738784E+03  0.22287345595E+03  0.69401615632E+02 0.  0.
         23    2    1    2    0    0 -0.24005120769E+01 -0.14105901696E+03  0.18795061695E+03  0.25150205954E+03  0.89579254389E+02 0.  0.
         13    1    3    3    0    0  0.59521737855E+02  0.88634258148E+02  0.18612357053E+03  0.21457132264E+03  0.00000000000E+00 0. -1.
        -14    1    3    3    0    0 -0.58043511038E+01  0.46287052192E+01 -0.37161826834E+01  0.83021333089E+01  0.00000000000E+00 0.  1.
        -11    1    4    4    0    0 -0.23286531567E+02 -0.31304732444E+02  0.82136017371E+01  0.39871193602E+02  0.00000000000E+00 0.  1.
         11    1    4    4    0    0  0.20886019490E+02 -0.10975428452E+03  0.17973701521E+03  0.21163086594E+03  0.00000000000E+00 0. -1.
          4    1    1    2  501    0 -0.51316874674E+02  0.47796053596E+02  0.49377026187E+02  0.85766981297E+02  0.00000000000E+00 0. -1.
<scales pt_clust_5="13000.00000" pt_clust_6="13000.00000" pt_clust_7="13000.00000" pt_clust_8="13000.00000" pt_clust_9="70.12763"></scales>
<clustering>
<clus scale="   69.402">  5  6 -1 -1</clus>
<clus scale="   70.128">  2  9  1 -1</clus>
<clus scale="   89.579">  7  8 -1 -1</clus>
<clus scale="  135.897">  1  5  2 -1</clus>
<clus scale="   70.128">  2  5  1 -1</clus>
</clustering>
</event>
<event>
 9    1  0.6270443E-005  0.9786508E+02  0.7546771E-02  0.1290385E+00
          1   -1    0    0  502    0 -0.00000000000E+00  0.00000000000E+00  0.30091815312E+03  0.30091815312E+03  0.00000000000E+00 0. -1.
         21   -1    0    0  501  502  0.00000000000E+00 -0.00000000000E+00 -0.93711057806E+02  0.93711057806E+02  0.00000000000E+00 0.  1.
         23    2    1    2    0    0  0.14823909010E+02 -0.36473155296E+02  0.14467972374E+03  0.17576368632E+03  0.91709386832E+02 0.  0.
        -24    2    1    2    0    0  0.13129156279E+02  0.14088500200E+02 -0.52304254295E+02  0.98579411761E+02  0.81309930656E+02 0.  0.
         11    1    4    4    0    0 -0.39277749493E+01  0.28904696083E+02  0.11145531980E+02  0.31227099687E+02  0.00000000000E+00 0. -1.
        -12    1    4    4    0    0  0.17056931228E+02 -0.14816195884E+02 -0.63449786275E+02  0.67352312074E+02  0.00000000000E+00 0.  1.
        -11    1    3    3    0    0  0.42571270212E+02 -0.43540532393E+02  0.56561587332E+02  0.83110192937E+02  0.00000000000E+00 0. -1.
         11    1    3    3    0    0 -0.27747361203E+02  0.70673770964E+01  0.88118136407E+02  0.92653493385E+02  0.00000000000E+00 0.  1.
          2    1    1    2  501    0 -0.27953065289E+02  0.22384655097E+02  0.11483162587E+03  0.12028611284E+03  0.00000000000E+00 0. -1.
<scales pt_clust_5="13000.00000" pt_clust_6="13000.00000" pt_clust_7="13000.00000" pt_clust_8="13000.00000" pt_clust_9="35.81128"></scales>
<clustering>
<clus scale="   35.811">  2  9  1 -1</clus>
<clus scale="   81.310">  5  6 -1 -1</clus>
<clus scale="   88.194">  2  5  1 -1</clus>
<clus scale="   91.709">  7  8 -1 -1</clus>
<clus scale="   35.811">  2  5  1 -1</clus>
</clustering>
</event>
<event>
 9    1  0.6270443E-005  0.1955186E+03  0.7546771E-02  0.1154766E+00
          1   -1    0    0  502    0 -0.00000000000E+00  0.00000000000E+00  0.88738447744E+03  0.88738447744E+03  0.00000000000E+00 0. -1.
         21   -1    0    0  501  502  0.00000000000E+00 -0.00000000000E+00 -0.87145036820E+02  0.87145036820E+02  0.00000000000E+00 0.  1.
         23    2    1    2    0    0  0.51411613344E+02  0.18605864936E+03  0.65701945275E+03  0.69054789060E+03  0.88999173759E+02 0.  0.
        -24    2    1    2    0    0  0.22482707684E+01 -0.13835916378E+03  0.14151482195E+03  0.21216566667E+03  0.76416702092E+02 0.  0.
         11    1    4    4    0    0  0.23197963204E+02 -0.55669904155E+02  0.10122064064E+03  0.11782572647E+03  0.00000000000E+00 0. -1.
        -12    1    4    4    0    0 -0.20949692436E+02 -0.82689259623E+02  0.40294181310E+02  0.94339940203E+02  0.00000000000E+00 0.  1.
        -13    1    3    3    0    0  0.76785995864E+02  0.14938185193E+03  0.51895531729E+03  0.54545911689E+03  0.00000000000E+00 0.  1.
         13    1    3    3    0    0 -0.25374382520E+02  0.36676797423E+02  0.13806413546E+03  0.14508877371E+03  0.00000000000E+00 0. -1.
          2    1    1    2  501    0 -0.53659884112E+02 -0.47699485579E+02  0.17051659150E+01  0.71815956989E+02  0.00000000000E+00 0. -1.
<scales pt_clust_5="13000.00000" pt_clust_6="13000.00000" pt_clust_7="13000.00000" pt_clust_8="13000.00000" pt_clust_9="71.79571"></scales>
<clustering>
<clus scale="   71.796">  2  9  1 -1</clus>
<clus scale="   76.417">  5  6 -1 -1</clus>
<clus scale="   88.999">  7  8 -1 -1</clus>
<clus scale="  190.121">  2  5  1 -1</clus>
<clus scale="   71.796">  2  5  1 -1</clus>
</clustering>
</event>
<event>
 9    1  0.6270443E-005  0.1606026E+03  0.7546771E-02  0.1200557E+00
         -2   -1    0    0    0  501 -0.00000000000E+00  0.00000000000E+00  0.50487230480E+03  0.50487230480E+03  0.00000000000E+00 0.  1.
         21   -1    0    0  501  502  0.00000000000E+00 -0.00000000000E+00 -0.12820152216E+03  0.12820152216E+03  0.00000000000E+00 0.  1.
        -24    2    1    2    0    0  0.92150547539E+02  0.35585377665E+01  0.25931539349E+03  0.28657538488E+03  0.79853561692E+02 0.  0.
         23    2    1    2    0    0 -0.79355237745E+01 -0.12181788315E+03  0.13099991845E+03  0.20067794909E+03  0.90598517781E+02 0.  0.
         11    1    3    3    0    0  0.54479537255E+02 -0.20687906561E+02  0.21792535937E+03  0.22558251642E+03  0.00000000000E+00 0. -1.
        -12    1    3    3    0    0  0.37671010284E+02  0.24246444328E+02  0.41390034115E+02  0.60992868455E+02  0.00000000000E+00 0.  1.
        -11    1    4    4    0    0 -0.40271897428E+02 -0.10426963645E+03  0.11557499912E+03  0.16078421324E+03  0.00000000000E+00 0.  1.
         11    1    4    4    0    0  0.32336373653E+02 -0.17548246700E+02  0.15424919334E+02  0.39893735846E+02  0.00000000000E+00 0. -1.
         -1    1    1    2    0  502 -0.84215023764E+02  0.11825934538E+03 -0.13644529296E+02  0.14582049299E+03  0.00000000000E+00 0.  1.
<scales pt_clust_5="13000.00000" pt_clust_6="13000.00000" pt_clust_7="13000.00000" pt_clust_8="13000.00000" pt_clust_9="132.60881"></scales>
<clustering>
<clus scale="   79.854">  5  6 -1 -1</clus>
<clus scale="   90.599">  7  8 -1 -1</clus>
<clus scale="  121.988">  1  5  2 -1</clus>
<clus scale="  132.609">  2  9  1 -1</clus>
<clus scale="  132.609">  2  5  1 -1</clus>
</clustering>
</event>
<event>
 9    1  0.6270443E-005  0.9506825E+02  0.7546771E-02  0.1295363E+00
         21   -1    0    0  501  502  0.00000000000E+00  0.00000000000E+00  0.70872143484E+02  0.70872143484E+02  0.00000000000E+00 0.  1.
         -2   -1    0    0    0  501 -0.00000000000E+00 -0.00000000000E+00 -0.31988978662E+03  0.31988978662E+03  0.00000000000E+00 0.  1.
        -24    2    1    2    0    0 -0.31930624949E+02 -0.92857832764E+01 -0.24471352243E+03  0.26061549155E+03  0.83246235939E+02 0.  0.
         23    2    1    2    0    0  0.10091701120E+00  0.51751278740E+01 -0.21632797640E+02  0.93673012059E+02  0.90993753201E+02 0.  0.
         11    1    3    3    0    0 -0.12245011683E+02 -0.46048345635E+02 -0.11995891298E+03  0.12907568032E+03  0.00000000000E+00 0. -1.
        -12    1    3    3    0    0 -0.19685613266E+02  0.36762562358E+02 -0.12475460944E+03  0.13153981123E+03  0.00000000000E+00 0.  1.
        -13    1    4    4    0    0  0.33540781769E+02 -0.26992016727E+02 -0.19393042187E+02  0.47219096709E+02  0.00000000000E+00 0. -1.
         13    1    4    4    0    0 -0.33439864758E+02  0.32167144601E+02 -0.22397554525E+01  0.46453915350E+02  0.00000000000E+00 0.  1.
         -1    1    1    2    0  502  0.31829707938E+02  0.41106554024E+01  0.17328676938E+02  0.36473426486E+02  0.00000000000E+00 0.  1.
<scales pt_clust_5="13000.00000" pt_clust_6="13000.00000" pt_clust_7="13000.00000" pt_clust_8="13000.00000" pt_clust_9="32.09405"></scales>
<clustering>
<clus scale="   32.094">  1  9  2 -1</clus>
<clus scale="   83.246">  5  6 -1 -1</clus>
<clus scale="   87.681">  2  5  1 -1</clus>
<clus scale="   90.994">  7  8 -1 -1</clus>
<clus scale="   32.094">  1  5  2 -1</clus>
</clustering>
</event>
<event>
 9    1  0.6270443E-005  0.1413401E+03  0.7546771E-02  0.1213027E+00
         21   -1    0    0  501  502  0.00000000000E+00  0.00000000000E+00  0.10179763595E+03  0.10179763595E+03  0.00000000000E+00 0. -1.
          1   -1    0    0  502    0 -0.00000000000E+00 -0.00000000000E+00 -0.25138331236E+03  0.25138331236E+03  0.00000000000E+00 0. -1.
         23    2    1    2    0    0 -0.17751960814E+02  0.96117241004E+02 -0.70807831645E+02  0.15086838158E+03  0.90519961375E+02 0.  0.
        -24    2    1    2    0    0 -0.19724934541E+01 -0.12109632504E+03 -0.85000747059E+02  0.16988212967E+03  0.83466162680E+02 0.  0.
         13    1    4    4    0    0  0.20566278632E+02 -0.33438118124E+02 -0.66919740572E+02  0.77584349186E+02  0.00000000000E+00 0. -1.
        -14    1    4    4    0    0 -0.22538772086E+02 -0.87658206916E+02 -0.18081006487E+02  0.92297780485E+02  0.00000000000E+00 0.  1.
        -11    1    3    3    0    0  0.32246318478E+02  0.63802226934E+02 -0.52124494131E+02  0.88473228185E+02  0.00000000000E+00 0.  1.
         11    1    3    3    0    0 -0.49998279292E+02  0.32315014071E+02 -0.18683337514E+02  0.62395153395E+02  0.00000000000E+00 0. -1.
          2    1    1    2  501    0  0.19724454268E+02  0.24979084035E+02  0.62229022931E+01  0.32430437067E+02  0.00000000000E+00 0. -1.
<scales pt_clust_5="13000.00000" pt_clust_6="13000.00000" pt_clust_7="13000.00000" pt_clust_8="13000.00000" pt_clust_9="31.82780"></scales>
<clustering>
<clus scale="   31.828">  1  9  2 -1</clus>
<clus scale="   83.466">  5  6 -1 -1</clus>
<clus scale="   90.520">  7  8 -1 -1</clus>
<clus scale="  136.930">  1  5  2 -1</clus>
<clus scale="   31.828">  1  5  2 -1</clus>
</clustering>
</event>
<event>
 9    1  0.6270443E-005  0.1653471E+03  0.7546771E-02  0.1184110E+00
          1   -1    0    0  502    0 -0.00000000000E+00  0.00000000000E+00  0.47272102047E+03  0.47272102047E+03  0.00000000000E+00 0. -1.
         21   -1    0    0  501  502  0.00000000000E+00 -0.00000000000E+00 -0.45942285750E+03  0.45942285750E+03  0.00000000000E+00 0.  1.
        -24    2    1    2    0    0 -0.39068437213E+02 -0.14663266139E+03 -0.42810434401E+02  0.17692775369E+03  0.80269649070E+02 0.  0.
         23    2    1    2    0    0  0.80217497634E+02  0.78146184773E+02 -0.33059698883E+03  0.36034291292E+03  0.89504037598E+02 0.  0.
         13    1    3    3    0    0 -0.28204937439E+02 -0.97551231282E+01  0.73645336521E+01  0.30739506813E+02  0.00000000000E+00 0. -1.
        -14    1    3    3    0    0 -0.10863499774E+02 -0.13687753826E+03 -0.50174968053E+02  0.14618824688E+03  0.00000000000E+00 0.  1.
        -11    1    4    4    0    0  0.16141619797E+02  0.69076453558E+02 -0.23032236732E+03  0.24099896518E+03  0.00000000000E+00 0. -1.
         11    1    4    4    0    0  0.64075877837E+02  0.90697312152E+01 -0.10027462150E+03  0.11934394774E+03  0.00000000000E+00 0.  1.
          2    1    1    2  501    0 -0.41149060421E+02  0.68486476612E+02  0.38670558620E+03  0.39487321136E+03  0.00000000000E+00 0. -1.
<scales pt_clust_5="13000.00000" pt_clust_6="13000.00000" pt_clust_7="13000.00000" pt_clust_8="13000.00000" pt_clust_9="79.89774"></scales>
<clustering>
<clus scale="   79.898">  2  9  1 -1</clus>
<clus scale="   80.270">  5  6 -1 -1</clus>
<clus scale="   89.504">  7  8 -1 -1</clus>
<clus scale="  160.536">  1  5  2 -1</clus>
<clus scale="   79.898">  2  5  1 -1</clus>
</clustering>
</event>
<event>
 9    1  0.6270443E-005  0.9698305E+02  0.7546771E-02  0.1304613E+00
          1   -1    0    0  502    0 -0.00000000000E+00  0.00000000000E+00  0.23862770349E+03  0.23862770349E+03  0.00000000000E+00 0. -1.
         21   -1    0    0  501  502  0.00000000000E+00 -0.00000000000E+00 -0.23742190052E+03  0.23742190052E+03  0.00000000000E+00 0.  1.
        -24    2    1    2    0    0 -0.23997583262E+02  0.28454224540E+00  0.20449000741E+03  0.21620951014E+03  0.65988060876E+02 0.  0.
         23    2    1    2    0    0 -0.35312496224E+01  0.15573595735E+02 -0.59792002534E+02  0.11287299147E+03  0.94393972417E+02 0.  0.
         13    1    3    3    0    0  0.15467111443E+01  0.19944289061E+02  0.17861807967E+02  0.26818112636E+02  0.00000000000E+00 0. -1.
        -14    1    3    3    0    0 -0.25544294407E+02 -0.19659746816E+02  0.18662819944E+03  0.18939139751E+03  0.00000000000E+00 0.  1.
        -13    1    4    4    0    0  0.16553646174E+02 -0.35840477088E+02 -0.16785382898E+02  0.42898858709E+02  0.00000000000E+00 0. -1.
         13    1    4    4    0    0 -0.20084895796E+02  0.51414072823E+02 -0.43006619636E+02  0.69974132763E+02  0.00000000000E+00 0.  1.
          2    1    1    2  501    0  0.27528832885E+02 -0.15858137981E+02 -0.14349220190E+03  0.14696710240E+03  0.00000000000E+00 0. -1.
<scales pt_clust_5="13000.00000" pt_clust_6="13000.00000" pt_clust_7="13000.00000" pt_clust_8="13000.00000" pt_clust_9="31.76975"></scales>
<clustering>
<clus scale="   31.770">  2  9  1 -1</clus>
<clus scale="   65.988">  5  6 -1 -1</clus>
<clus scale="   69.641">  1  5  2 -1</clus>
<clus scale="   94.394">  7  8 -1 -1</clus>
<clus scale="   31.770">  2  5  1 -1</clus>
</clustering>
</event>
<event>
 9    1  0.6270443E-005  0.9977023E+02  0.7546771E-02  0.1286971E+00
          1   -1    0    0  502    0 -0.00000000000E+00  0.00000000000E+00  0.39343353331E+03  0.39343353331E+03  0.00000000000E+00 0. -1.
         21   -1    0    0  501  502  0.00000000000E+00 -0.00000000000E+00 -0.11120220041E+03  0.11120220041E+03  0.00000000000E+00 0. -1.
        -24    2    1    2    0    0  0.30073175071E+01 -0.40745428314E+02  0.33365051186E+03  0.34579915487E+03  0.81148983705E+02 0.  0.
         23    2    1    2    0    0  0.64912884426E+01 -0.31679650750E+01 -0.38979316992E+01  0.93438730450E+02  0.93077546423E+02 0.  0.
         11    1    3    3    0    0  0.30132722289E+02 -0.52867597071E+02  0.23680974883E+03  0.24450321248E+03  0.00000000000E+00 0. -1.
        -12    1    3    3    0    0 -0.27125404781E+02  0.12122168757E+02  0.96840763032E+02  0.10129594239E+03  0.00000000000E+00 0.  1.
        -13    1    4    4    0    0  0.16785415666E+02  0.19812584917E+02 -0.41040223015E+02  0.48565302484E+02  0.00000000000E+00 0.  1.
         13    1    4    4    0    0 -0.10294127224E+02 -0.22980549992E+02  0.37142291316E+02  0.44873427966E+02  0.00000000000E+00 0. -1.
          2    1    1    2  501    0 -0.94986059497E+01  0.43913393389E+02 -0.47521247258E+02  0.65397848396E+02  0.00000000000E+00 0. -1.
<scales pt_clust_5="13000.00000" pt_clust_6="13000.00000" pt_clust_7="13000.00000" pt_clust_8="13000.00000" pt_clust_9="44.92894"></scales>
<clustering>
<clus scale="   44.929">  2  9  1 -1</clus>
<clus scale="   81.149">  5  6 -1 -1</clus>
<clus scale="   88.746">  1  5  2 -1</clus>
<clus scale="   93.078">  7  8 -1 -1</clus>
<clus scale="   44.929">  2  5  1 -1</clus>
</clustering>
</event>
<event>
 9    1  0.6270443E-005  0.1044342E+03  0.7546771E-02  0.1282369E+00
          1   -1    0    0  502    0 -0.00000000000E+00  0.00000000000E+00  0.29277553915E+03  0.29277553915E+03  0.00000000000E+00 0. -1.
         21   -1    0    0  501  502  0.00000000000E+00 -0.00000000000E+00 -0.12018507449E+03  0.12018507449E+03  0.00000000000E+00 0.  1.
         23    2    1    2    0    0 -0.38427765023E+02  0.56106939098E+00  0.21871462616E+03  0.24275653338E+03  0.98069561419E+02 0.  0.
        -24    2    1    2    0    0  0.12651505724E+02 -0.45592810648E+02 -0.69201710583E+02  0.11341634800E+03  0.76391270877E+02 0.  0.
         13    1    4    4    0    0 -0.30088586270E+02 -0.86180256883E+01 -0.13566117493E+02  0.34112064352E+02  0.00000000000E+00 0. -1.
        -14    1    4    4    0    0  0.42740091994E+02 -0.36974784960E+02 -0.55635593090E+02  0.79304283648E+02  0.00000000000E+00 0.  1.
        -13    1    3    3    0    0 -0.66161189673E+02  0.95391713041E+00  0.19612227780E+03  0.20698347960E+03  0.00000000000E+00 0. -1.
         13    1    3    3    0    0  0.27733424650E+02 -0.39284773943E+00  0.22592348356E+02  0.35773053775E+02  0.00000000000E+00 0.  1.
          2    1    1    2  501    0  0.25776259300E+02  0.45031741257E+02  0.23077549088E+02  0.56787732267E+02  0.00000000000E+00 0. -1.
<scales pt_clust_5="13000.00000" pt_clust_6="13000.00000" pt_clust_7="13000.00000" pt_clust_8="13000.00000" pt_clust_9="51.88712"></scales>
<clustering>
<clus scale="   51.887">  2  9  1 -1</clus>
<clus scale="   76.391">  5  6 -1 -1</clus>
<clus scale="   84.407">  2  5  1 -1</clus>
<clus scale="   98.070">  7  8 -1 -1</clus>
<clus scale="   51.887">  2  5  1 -1</clus>
</clustering>
</event>
<event>
 9    1  0.6270443E-005  0.2162813E+03  0.7546771E-02  0.1168910E+00
         -2   -1    0    0    0  501 -0.00000000000E+00  0.00000000000E+00  0.61475277568E+03  0.61475277568E+03  0.00000000000E+00 0.  1.
         21   -1    0    0  501  502  0.00000000000E+00 -0.00000000000E+00 -0.11264611526E+03  0.11264611526E+03  0.00000000000E+00 0. -1.
         23    2    1    2    0    0 -0.15901160204E+02  0.36953644814E+02  0.62070995562E+02  0.11868371113E+03  0.92814848147E+02 0.  0.
        -24    2    1    2    0    0 -0.35279549145E+01  0.17986257064E+03  0.26055900308E+03  0.32658288120E+03  0.80014957507E+02 0.  0.
         11    1    4    4    0    0  0.29130846416E+02  0.26086121968E+02  0.42345918730E+02  0.57639125646E+02  0.00000000000E+00 0. -1.
        -12    1    4    4    0    0 -0.32658801330E+02  0.15377644867E+03  0.21821308435E+03  0.26894375556E+03  0.00000000000E+00 0.  1.
        -13    1    3    3    0    0 -0.81755891787E+01  0.67996431590E+02  0.48575408336E+02  0.83963833062E+02  0.00000000000E+00 0.  1.
         13    1    3    3    0    0 -0.77255710257E+01 -0.31042786776E+02  0.13495587226E+02  0.34719878068E+02  0.00000000000E+00 0. -1.
         -1    1    1    2    0  502  0.19429115119E+02 -0.21681621545E+03  0.17947666177E+03  0.28213229861E+03  0.00000000000E+00 0.  1.
<scales pt_clust_5="13000.00000" pt_clust_6="13000.00000" pt_clust_7="13000.00000" pt_clust_8="13000.00000" pt_clust_9="200.93587"></scales>
<clustering>
<clus scale="   80.015">  5  6 -1 -1</clus>
<clus scale="   92.815">  7  8 -1 -1</clus>
<clus scale="  101.158">  1  7  2 -1</clus>
<clus scale="  200.936">  2  9  1 -1</clus>
<clus scale="  200.936">  2  5  1 -1</clus>
</clustering>
</event>
<event>
 9    1  0.6270443E-005  0.1223317E+03  0.7546771E-02  0.1242535E+00
         21   -1    0    0  501  502  0.00000000000E+00  0.00000000000E+00  0.99968361385E+02  0.99968361385E+02  0.00000000000E+00 0.  1.
         -2   -1    0    0    0  501 -0.00000000000E+00 -0.00000000000E+00 -0.41669283851E+03  0.41669283851E+03  0.00000000000E+00 0.  1.
         23    2    1    2    0    0 -0.76623803477E+02 -0.34873112875E+02 -0.27670142617E+03  0.30329004471E+03  0.91289817135E+02 0.  0.
        -24    2    1    2    0    0  0.67674774107E+02  0.47201299565E+01  0.51025791702E+02  0.11704265860E+03  0.80580381212E+02 0.  0.
         13    1    4    4    0    0  0.42658833189E+02 -0.37144988896E+02  0.27562740734E+02  0.62922419898E+02  0.00000000000E+00 0. -1.
        -14    1    4    4    0    0  0.25015940918E+02  0.41865118852E+02  0.23463050968E+02  0.54120238703E+02  0.00000000000E+00 0.  1.
        -13    1    3    3    0    0 -0.54847401154E+02  0.24327304762E+02 -0.15511260191E+03  0.16631288117E+03  0.00000000000E+00 0. -1.
         13    1    3    3    0    0 -0.21776402323E+02 -0.59200417638E+02 -0.12158882426E+03  0.13697716354E+03  0.00000000000E+00 0.  1.
         -1    1    1    2    0  502  0.89490293701E+01  0.30152982919E+02 -0.91048842659E+02  0.96328496589E+02  0.00000000000E+00 0.  1.
<scales pt_clust_5="13000.00000" pt_clust_6="13000.00000" pt_clust_7="13000.00000" pt_clust_8="13000.00000" pt_clust_9="31.45296"></scales>
<clustering>
<clus scale="   31.453">  1  9  2 -1</clus>
<clus scale="   80.580">  5  6 -1 -1</clus>
<clus scale="   91.290">  7  8 -1 -1</clus>
<clus scale="  114.562">  1  5  2 -1</clus>
<clus scale="   31.453">  1  5  2 -1</clus>
</clustering>
</event>
<event>
 9    1  0.6270443E-005  0.1398479E+03  0.7546771E-02  0.1218688E+00
         -4   -1    0    0    0  501 -0.00000000000E+00  0.00000000000E+00  0.91066029159E+03  0.91066029159E+03  0.00000000000E+00 0.  1.
         21   -1    0    0  501  502  0.00000000000E+00 -0.00000000000E+00 -0.60855233381E+02  0.60855233381E+02  0.00000000000E+00 0. -1.
         23    2    1    2    0    0 -0.10276819262E+03  0.26959536007E+01  0.69552770327E+03  0.71039566469E+03  0.10165945513E+03 0.  0.
        -24    2    1    2    0    0  0.53747934167E+02  0.40266598494E+02  0.13292150089E+02  0.10579570051E+03  0.80658599112E+02 0.  0.
         13    1    4    4    0    0  0.24234536759E+02  0.11071618293E+02 -0.33786393593E+02  0.43028059398E+02  0.00000000000E+00 0. -1.
        -14    1    4    4    0    0  0.29513397408E+02  0.29194980201E+02  0.47078543681E+02  0.62767641111E+02  0.00000000000E+00 0.  1.
        -13    1    3    3    0    0  0.19154605128E+02  0.10787547393E+02  0.88253078177E+02  0.90949853678E+02  0.00000000000E+00 0. -1.
         13    1    3    3    0    0 -0.12192279775E+03 -0.80915937921E+01  0.60727462509E+03  0.61944581101E+03  0.00000000000E+00 0.  1.
         -3    1    1    2    0  502  0.49020258454E+02 -0.42962552095E+02  0.14098520486E+03  0.15532415977E+03  0.00000000000E+00 0.  1.
<scales pt_clust_5="13000.00000" pt_clust_6="13000.00000" pt_clust_7="13000.00000" pt_clust_8="13000.00000" pt_clust_9="65.18260"></scales>
<clustering>
<clus scale="   65.183">  2  9  1 -1</clus>
<clus scale="   80.659">  5  6 -1 -1</clus>
<clus scale="  101.659">  7  8 -1 -1</clus>
<clus scale="  125.414">  2  5  1 -1</clus>
<clus scale="   65.183">  2  5  1 -1</clus>
</clustering>
</event>
<event>
 9    1  0.6270443E-005  0.1059128E+03  0.7546771E-02  0.1270036E+00
          1   -1    0    0  502    0 -0.00000000000E+00  0.00000000000E+00  0.71841433418E+03  0.71841433418E+03  0.00000000000E+00 0. -1.
         21   -1    0    0  501  502  0.00000000000E+00 -0.00000000000E+00 -0.62120376024E+02  0.62120376024E+02  0.00000000000E+00 0. -1.
         23    2    1    2    0    0 -0.60306959517E+02 -0.11322033967E+02  0.56004810468E+03  0.57057180214E+03  0.90184167226E+02 0.  0.
        -24    2    1    2    0    0  0.40363067208E+02 -0.15989988893E+02  0.13020685720E+03  0.16203530426E+03  0.86120596976E+02 0.  0.
         13    1    4    4    0    0 -0.56504997083E+01 -0.33583986754E+02  0.15940134879E+02  0.37601864491E+02  0.00000000000E+00 0. -1.
        -14    1    4    4    0    0  0.46013566916E+02  0.17593997861E+02  0.11426672232E+03  0.12443343976E+03  0.00000000000E+00 0.  1.
        -11    1    3    3    0    0 -0.62390473409E+02  0.27641992569E+02  0.40378472623E+03  0.40951038578E+03  0.00000000000E+00 0. -1.
         11    1    3    3    0    0  0.20835138926E+01 -0.38964026535E+02  0.15626337845E+03  0.16106141636E+03  0.00000000000E+00 0.  1.
          2    1    1    2  501    0  0.19943892309E+02  0.27312022860E+02 -0.33961003726E+02  0.47927603813E+02  0.00000000000E+00 0. -1.
<scales pt_clust_5="13000.00000" pt_clust_6="13000.00000" pt_clust_7="13000.00000" pt_clust_8="13000.00000" pt_clust_9="33.81871"></scales>
<clustering>
<clus scale="   33.819">  2  9  1 -1</clus>
<clus scale="   86.121">  5  6 -1 -1</clus>
<clus scale="   90.184">  7  8 -1 -1</clus>
<clus scale="  102.475">  2  5  1 -1</clus>
<clus scale="   33.819">  2  5  1 -1</clus>
</clustering>
</event>
<event>
 9    1  0.6270443E-005  0.9887209E+02  0.7546771E-02  0.1288794E+00
         -2   -1    0    0    0  501 -0.00000000000E+00  0.00000000000E+00  0.32039226552E+03  0.32039226552E+03  0.00000000000E+00 0.  1.
         21   -1    0    0  501  502  0.00000000000E+00 -0.00000000000E+00 -0.13248174145E+03  0.13248174145E+03  0.00000000000E+00 0. -1.
         23    2    1    2    0    0 -0.83215157976E+01 -0.33540433011E+02  0.26489606794E+03  0.28237676108E+03  0.91501366737E+02 0.  0.
        -24    2    1    2    0    0 -0.15301757340E+02  0.70976834372E+02 -0.53993062309E+02  0.12061541164E+03  0.79755701686E+02 0.  0.
         11    1    4    4    0    0 -0.17824085154E+02  0.88202298652E+02 -0.40963724399E+02  0.98870471910E+02  0.00000000000E+00 0. -1.
        -12    1    4    4    0    0  0.25223278140E+01 -0.17225464281E+02 -0.13029337910E+02  0.21744939725E+02  0.00000000000E+00 0.  1.
        -13    1    3    3    0    0 -0.27020528744E+02 -0.59683044897E+02  0.17014498820E+03  0.18232249403E+03  0.00000000000E+00 0.  1.
         13    1    3    3    0    0  0.18699012946E+02  0.26142611886E+02  0.94751079744E+02  0.10005426705E+03  0.00000000000E+00 0. -1.
         -1    1    1    2    0  502  0.23623273137E+02 -0.37436401361E+02 -0.22992481563E+02  0.49881834259E+02  0.00000000000E+00 0.  1.
<scales pt_clust_5="13000.00000" pt_clust_6="13000.00000" pt_clust_7="13000.00000" pt_clust_8="13000.00000" pt_clust_9="44.26673"></scales>
<clustering>
<clus scale="   44.267">  2  9  1 -1</clus>
<clus scale="   79.756">  5  6 -1 -1</clus>
<clus scale="   88.114">  2  5  1 -1</clus>
<clus scale="   91.501">  7  8 -1 -1</clus>
<clus scale="   44.267">  2  5  1 -1</clus>
</clustering>
</event>
<event>
 9    1  0.6270443E-005  0.1010114E+03  0.7546771E-02  0.1285001E+00
         -2   -1    0    0    0  501 -0.00000000000E+00  0.00000000000E+00  0.16813541242E+03  0.16813541242E+03  0.00000000000E+00 0.  1.
         21   -1    0    0  501  502  0.00000000000E+00 -0.00000000000E+00 -0.21814177168E+03  0.21814177168E+03  0.00000000000E+00 0.  1.
        -24    2    1    2    0    0 -0.75219585710E+01 -0.57404439900E+02  0.10341573018E+03  0.14211681544E+03  0.78425291853E+02 0.  0.
         23    2    1    2    0    0  0.14930408388E+02 -0.12897719329E+02 -0.24771218652E+02  0.97366890348E+02  0.92072959136E+02 0.  0.
         11    1    3    3    0    0 -0.34024152309E+02 -0.13276276234E+02  0.14338830423E+02  0.39236520091E+02  0.00000000000E+00 0. -1.
        -12    1    3    3    0    0  0.26502193738E+02 -0.44128163666E+02  0.89076899755E+02  0.10288029535E+03  0.00000000000E+00 0.  1.
        -13    1    4    4    0    0  0.29379458826E+02 -0.43836045106E+02  0.37112774645E+01  0.52901087247E+02  0.00000000000E+00 0.  1.
         13    1    4    4    0    0 -0.14449050438E+02  0.30938325777E+02 -0.28482496116E+02  0.44465803102E+02  0.00000000000E+00 0. -1.
         -1    1    1    2    0  502 -0.74084498169E+01  0.70302159229E+02 -0.12865087079E+03  0.14679347831E+03  0.00000000000E+00 0.  1.
<scales pt_clust_5="13000.00000" pt_clust_6="13000.00000" pt_clust_7="13000.00000" pt_clust_8="13000.00000" pt_clust_9="70.69143"></scales>
<clustering>
<clus scale="   70.691">  2  9  1 -1</clus>
<clus scale="   78.425">  5  6 -1 -1</clus>
<clus scale="   88.749">  1  5  2 -1</clus>
<clus scale="   92.073">  7  8 -1 -1</clus>
<clus scale="   70.691">  2  5  1 -1</clus>
</clustering>
</event>
<event>
 9    1  0.6270443E-005  0.1625352E+03  0.7546771E-02  0.1209852E+00
         21   -1    0    0  501  502  0.00000000000E+00  0.00000000000E+00  0.79475829379E+03  0.79475829379E+03  0.00000000000E+00 0.  1.
         -2   -1    0    0    0  501 -0.00000000000E+00 -0.00000000000E+00 -0.51849028337E+02  0.51849028337E+02  0.00000000000E+00 0.  1.
         23    2    1    2    0    0 -0.20971442130E+02 -0.15449605767E+02  0.23496904297E+03  0.25395428614E+03  0.92756868166E+02 0.  0.
        -24    2    1    2    0    0  0.43495095792E+02  0.14594666604E+03  0.31061081859E+03  0.35500688863E+03  0.79740564729E+02 0.  0.
         11    1    4    4    0    0  0.10700012821E+02  0.10078272837E+03  0.26225993022E+03  0.28116173213E+03  0.00000000000E+00 0. -1.
        -12    1    4    4    0    0  0.32795082972E+02  0.45163937669E+02  0.48350888365E+02  0.73845156501E+02  0.00000000000E+00 0.  1.
        -13    1    3    3    0    0 -0.59752251106E+01 -0.46850727373E+02  0.64347735581E+02  0.79820580334E+02  0.00000000000E+00 0. -1.
         13    1    3    3    0    0 -0.14996217019E+02  0.31401121606E+02  0.17062130739E+03  0.17413370581E+03  0.00000000000E+00 0.  1.
         -1    1    1    2    0  502 -0.22523653663E+02 -0.13049706027E+03  0.19732940390E+03  0.23764614736E+03  0.00000000000E+00 0.  1.
<scales pt_clust_5="13000.00000" pt_clust_6="13000.00000" pt_clust_7="13000.00000" pt_clust_8="13000.00000" pt_clust_9="141.63032"></scales>
<clustering>
<clus scale="   79.741">  5  6 -1 -1</clus>
<clus scale="   92.757">  7  8 -1 -1</clus>
<clus scale="   96.345">  2  7  1 -1</clus>
<clus scale="  141.630">  1  9  2 -1</clus>
<clus scale="  141.630">  1  5  2 -1</clus>
</clustering>
</event>
<event>
 9    1  0.6270443E-005  0.2161443E+03  0.7546771E-02  0.1137684E+00
         21   -1    0    0  501  502  0.00000000000E+00  0.00000000000E+00  0.22622104689E+03  0.22622104689E+03  0.00000000000E+00 0. -1.
          1   -1    0    0  502    0 -0.00000000000E+00 -0.00000000000E+00 -0.27118926151E+03  0.27118926151E+03  0.00000000000E+00 0. -1.
         23    2    1    2    0    0 -0.17458944783E+03  0.12943817656E+03 -0.97032287082E+02  0.25484701778E+03  0.91082494976E+02 0.  0.
        -24    2    1    2    0    0  0.12828006175E+03 -0.10209162527E+03  0.49137817084E+02  0.18870276633E+03  0.79471597189E+02 0.  0.
         13    1    4    4    0    0  0.86900722698E+02 -0.18872261001E+02  0.18378664616E+02  0.90805688995E+02  0.00000000000E+00 0. -1.
        -14    1    4    4    0    0  0.41379339050E+02 -0.83219364274E+02  0.30759152468E+02  0.97897077336E+02  0.00000000000E+00 0.  1.
        -11    1    3    3    0    0 -0.65698727183E+02  0.37035308644E+02 -0.81740353353E+02  0.11121790416E+03  0.00000000000E+00 0.  1.
         11    1    3    3    0    0 -0.10889072064E+03  0.92402867916E+02 -0.15291933728E+02  0.14362911362E+03  0.00000000000E+00 0. -1.
          2    1    1    2  501    0  0.46309386078E+02 -0.27346551286E+02  0.29262553757E+01  0.53860524289E+02  0.00000000000E+00 0. -1.
<scales pt_clust_5="13000.00000" pt_clust_6="13000.00000" pt_clust_7="13000.00000" pt_clust_8="13000.00000" pt_clust_9="53.78097"></scales>
<clustering>
<clus scale="   53.781">  1  9  2 -1</clus>
<clus scale="   79.472">  5  6 -1 -1</clus>
<clus scale="   91.082">  7  8 -1 -1</clus>
<clus scale="  211.514">  1  5  2 -1</clus>
<clus scale="   53.781">  1  5  2 -1</clus>
</clustering>
</event>
<event>
 9    1  0.6270443E-005  0.1021108E+03  0.7546771E-02  0.1276569E+00
          3   -1    0    0  502    0 -0.00000000000E+00  0.00000000000E+00  0.75563388193E+02  0.75563388193E+02  0.00000000000E+00 0. -1.
         21   -1    0    0  501  502  0.00000000000E+00 -0.00000000000E+00 -0.45895969398E+03  0.45895969398E+03  0.00000000000E+00 0.  1.
        -24    2    1    2    0    0  0.54737715361E+02  0.22713511290E+02  0.17525682017E+02  0.10298551205E+03  0.82381703573E+02 0.  0.
         23    2    1    2    0    0 -0.25350489873E+02 -0.63651653523E+02 -0.29425289633E+03  0.31356369341E+03  0.83924028104E+02 0.  0.
         13    1    3    3    0    0  0.46824440296E+02  0.10242263115E+01  0.46458820444E+02  0.65969684293E+02  0.00000000000E+00 0. -1.
        -14    1    3    3    0    0  0.79132750649E+01  0.21689284978E+02 -0.28933138428E+02  0.37015827755E+02  0.00000000000E+00 0.  1.
        -13    1    4    4    0    0 -0.37723272713E+02  0.35285954112E+01 -0.13639850519E+03  0.14156287828E+03  0.00000000000E+00 0.  1.
         13    1    4    4    0    0  0.12372782839E+02 -0.67180248934E+02 -0.15785439114E+03  0.17200081512E+03  0.00000000000E+00 0. -1.
          4    1    1    2  501    0 -0.29387225488E+02  0.40938142234E+02 -0.10666909148E+03  0.11797387672E+03  0.00000000000E+00 0. -1.
<scales pt_clust_5="13000.00000" pt_clust_6="13000.00000" pt_clust_7="13000.00000" pt_clust_8="13000.00000" pt_clust_9="50.39385"></scales>
<clustering>
<clus scale="   50.394">  2  9  1 -1</clus>
<clus scale="   82.382">  5  6 -1 -1</clus>
<clus scale="   83.924">  7  8 -1 -1</clus>
<clus scale="  100.847">  1  5  2 -1</clus>
<clus scale="   50.394">  2  5  1 -1</clus>
</clustering>
</event>
<event>
 9    1  0.6270443E-005  0.9697650E+02  0.7546771E-02  0.1292130E+00
         21   -1    0    0  501  502  0.00000000000E+00  0.00000000000E+00  0.14983228923E+03  0.14983228923E+03  0.00000000000E+00 0.  1.
         -2   -1    0    0    0  501 -0.00000000000E+00 -0.00000000000E+00 -0.66497608667E+03  0.66497608667E+03  0.00000000000E+00 0.  1.
        -24    2    1    2    0    0  0.12002614567E+02 -0.23118059230E+02 -0.51758446802E+03  0.52523820318E+03  0.85457481394E+02 0.  0.
         23    2    1    2    0    0  0.18196342850E+01 -0.58660383097E+01 -0.12560524792E+03  0.15755922727E+03  0.94923707885E+02 0.  0.
         13    1    3    3    0    0  0.12044785411E+01  0.31208913923E+02 -0.12905896657E+03  0.13278427591E+03  0.00000000000E+00 0. -1.
        -14    1    3    3    0    0  0.10798136026E+02 -0.54326973152E+02 -0.38852550145E+03  0.39245392727E+03  0.00000000000E+00 0.  1.
        -11    1    4    4    0    0 -0.32125391235E+02 -0.22353165507E+01 -0.11835678778E+03  0.12265955575E+03  0.00000000000E+00 0. -1.
         11    1    4    4    0    0  0.33945025520E+02 -0.36307217591E+01 -0.72484601379E+01  0.34899671523E+02  0.00000000000E+00 0.  1.
         -1    1    1    2    0  502 -0.13822248852E+02  0.28984097539E+02  0.12804591850E+03  0.13201094545E+03  0.00000000000E+00 0.  1.
<scales pt_clust_5="13000.00000" pt_clust_6="13000.00000" pt_clust_7="13000.00000" pt_clust_8="13000.00000" pt_clust_9="32.11125"></scales>
<clustering>
<clus scale="   32.111">  1  9  2 -1</clus>
<clus scale="   85.457">  5  6 -1 -1</clus>
<clus scale="   87.732">  2  5  1 -1</clus>
<clus scale="   94.924">  7  8 -1 -1</clus>
<clus scale="   32.111">  1  5  2 -1</clus>
</clustering>
</event>
<event>
 9    1  0.6270443E-005  0.1080640E+03  0.7546771E-02  0.1268912E+00
         21   -1    0    0  501  502  0.00000000000E+00  0.00000000000E+00  0.11794056847E+03  0.11794056847E+03  0.00000000000E+00 0. -1.
         -2   -1    0    0    0  501 -0.00000000000E+00 -0.00000000000E+00 -0.24100462552E+03  0.24100462552E+03  0.00000000000E+00 0.  1.
        -24    2    1    2    0    0 -0.19487863419E+02  0.56547992691E+02 -0.14547474403E+03  0.17639415099E+03  0.79840735570E+02 0.  0.
         23    2    1    2    0    0  0.42711891858E+02 -0.39355955758E+02 -0.38744145463E+02  0.11491351523E+03  0.91273272188E+02 0.  0.
         11    1    3    3    0    0  0.35418270784E+01  0.52441719664E+02 -0.14361064029E+03  0.15292708885E+03  0.00000000000E+00 0. -1.
        -12    1    3    3    0    0 -0.23029690498E+02  0.41062730272E+01 -0.18641037337E+01  0.23467062137E+02  0.00000000000E+00 0.  1.
        -13    1    4    4    0    0  0.46467880640E+02  0.14757262314E+01  0.13582593887E+02  0.48434786629E+02  0.00000000000E+00 0. -1.
         13    1    4    4    0    0 -0.37559887827E+01 -0.40831681989E+02 -0.52326739350E+02  0.66478728604E+02  0.00000000000E+00 0.  1.
         -1    1    1    2    0  502 -0.23224028438E+02 -0.17192036933E+02  0.61154832440E+02  0.67637527761E+02  0.00000000000E+00 0.  1.
<scales pt_clust_5="13000.00000" pt_clust_6="13000.00000" pt_clust_7="13000.00000" pt_clust_8="13000.00000" pt_clust_9="28.89501"></scales>
<clustering>
<clus scale="   28.895">  1  9  2 -1</clus>
<clus scale="   79.841">  5  6 -1 -1</clus>
<clus scale="   91.273">  7  8 -1 -1</clus>
<clus scale="   98.598">  2  5  1 -1</clus>
<clus scale="   28.895">  1  5  2 -1</clus>
</clustering>
</event>
<event>
 9    1  0.6270443E-005  0.2619385E+03  0.7546771E-02  0.1144123E+00
         21   -1    0    0  501  502  0.00000000000E+00  0.00000000000E+00  0.37949657488E+03  0.37949657488E+03  0.00000000000E+00 0.  1.
          3   -1    0    0  502    0 -0.00000000000E+00 -0.00000000000E+00 -0.25978387199E+03  0.25978387199E+03  0.00000000000E+00 0. -1.
         23    2    1    2    0    0 -0.18735974791E+02 -0.39114675403E+02  0.57026689180E+02  0.11666070238E+03  0.92068896032E+02 0.  0.
        -24    2    1    2    0    0  0.96909810176E+02  0.24948202860E+03  0.95711286872E+02  0.29578006433E+03  0.81807103103E+02 0.  0.
         13    1    4    4    0    0  0.56739425877E+02  0.49168923004E+02  0.33521740804E+02  0.82223187391E+02  0.00000000000E+00 0. -1.
        -14    1    4    4    0    0  0.40170384300E+02  0.20031310559E+03  0.62189546068E+02  0.21355687694E+03  0.00000000000E+00 0.  1.
        -11    1    3    3    0    0 -0.45769458140E+02 -0.45872871990E+01  0.56433287745E+02  0.72805236543E+02  0.00000000000E+00 0. -1.
         11    1    3    3    0    0  0.27033483349E+02 -0.34527388204E+02  0.59340143490E+00  0.43855465833E+02  0.00000000000E+00 0.  1.
          4    1    1    2  501    0 -0.78173835385E+02 -0.21036735320E+03 -0.33025273172E+02  0.22683968016E+03  0.00000000000E+00 0. -1.
<scales pt_clust_5="13000.00000" pt_clust_6="13000.00000" pt_clust_7="13000.00000" pt_clust_8="13000.00000" pt_clust_9="248.83614"></scales>
<clustering>
<clus scale="   81.807">  5  6 -1 -1</clus>
<clus scale="   92.069">  7  8 -1 -1</clus>
<clus scale="  101.773">  2  7  1 -1</clus>
<clus scale="  248.836">  1  9  2 -1</clus>
<clus scale="  248.836">  1  5  2 -1</clus>
</clustering>
</event>
<event>
 9    1  0.6270443E-005  0.1396495E+03  0.7546771E-02  0.1216475E+00
         21   -1    0    0  501  502  0.00000000000E+00  0.00000000000E+00  0.10059102888E+03  0.10059102888E+03  0.00000000000E+00 0. -1.
         -2   -1    0    0    0  501 -0.00000000000E+00 -0.00000000000E+00 -0.32887421005E+03  0.32887421005E+03  0.00000000000E+00 0.  1.
         23    2    1    2    0    0  0.10486208882E+03  0.58240355812E+02 -0.20978237045E+03  0.25912978950E+03  0.93550030131E+02 0.  0.
        -24    2    1    2    0    0 -0.60124818216E+02 -0.50196324285E+02 -0.40073882125E+02  0.12002116483E+03  0.81636384293E+02 0.  0.
         13    1    4    4    0    0 -0.52133498128E+02 -0.31060143711E+02  0.13851722940E+02  0.62245516969E+02  0.00000000000E+00 0. -1.
        -14    1    4    4    0    0 -0.79913200882E+01 -0.19136180575E+02 -0.53925605065E+02  0.57775647857E+02  0.00000000000E+00 0.  1.
        -13    1    3    3    0    0 -0.11645196202E+02  0.30038553226E+02 -0.46501481384E+02  0.56571309383E+02  0.00000000000E+00 0. -1.
         13    1    3    3    0    0  0.11650728503E+03  0.28201802586E+02 -0.16328088907E+03  0.20255848012E+03  0.00000000000E+00 0.  1.
         -1    1    1    2    0  502 -0.44737270609E+02 -0.80440315268E+01  0.21573071405E+02  0.50314284598E+02  0.00000000000E+00 0.  1.
<scales pt_clust_5="13000.00000" pt_clust_6="13000.00000" pt_clust_7="13000.00000" pt_clust_8="13000.00000" pt_clust_9="45.45470"></scales>
<clustering>
<clus scale="   45.455">  1  9  2 -1</clus>
<clus scale="   81.636">  5  6 -1 -1</clus>
<clus scale="   93.550">  7  8 -1 -1</clus>
<clus scale="  131.965">  1  5  2 -1</clus>
<clus scale="   45.455">  1  5  2 -1</clus>
</clustering>
</event>
<event>
 9    1  0.6270443E-005  0.1233735E+03  0.7546771E-02  0.1241096E+00
         21   -1    0    0  501  502  0.00000000000E+00  0.00000000000E+00  0.13616763363E+03  0.13616763363E+03  0.00000000000E+00 0. -1.
         -4   -1    0    0    0  501 -0.00000000000E+00 -0.00000000000E+00 -0.16894693350E+03  0.16894693350E+03  0.00000000000E+00 0.  1.
         23    2    1    2    0    0  0.70014483762E+02  0.32845625562E+02 -0.74610726635E+02  0.14133135995E+03  0.91798310007E+02 0.  0.
        -24    2    1    2    0    0 -0.72641799354E+02 -0.62336844531E+02  0.18795367410E+02  0.12626927891E+03  0.80174508176E+02 0.  0.
         11    1    4    4    0    0 -0.41346992473E+02 -0.37257730804E+02  0.50495237911E+02  0.75149726166E+02  0.00000000000E+00 0. -1.
        -12    1    4    4    0    0 -0.31294806881E+02 -0.25079113727E+02 -0.31699870501E+02  0.51119552745E+02  0.00000000000E+00 0.  1.
        -11    1    3    3    0    0  0.74872344293E+02  0.12448012027E+02 -0.88186939554E+02  0.11635186828E+03  0.00000000000E+00 0.  1.
         11    1    3    3    0    0 -0.48578605310E+01  0.20397613535E+02  0.13576212919E+02  0.24979491670E+02  0.00000000000E+00 0. -1.
         -3    1    1    2    0  502  0.26273155916E+01  0.29491218968E+02  0.23036059361E+02  0.37513928271E+02  0.00000000000E+00 0.  1.
<scales pt_clust_5="13000.00000" pt_clust_6="13000.00000" pt_clust_7="13000.00000" pt_clust_8="13000.00000" pt_clust_9="29.60802"></scales>
<clustering>
<clus scale="   29.608">  1  9  2 -1</clus>
<clus scale="   80.175">  5  6 -1 -1</clus>
<clus scale="   91.798">  7  8 -1 -1</clus>
<clus scale="  114.987">  1  5  2 -1</clus>
<clus scale="   29.608">  1  5  2 -1</clus>
</clustering>
</event>
<event>
 9    1  0.6270443E-005  0.1088367E+03  0.7546771E-02  0.1267645E+00
         -2   -1    0    0    0  501 -0.00000000000E+00  0.00000000000E+00  0.14081787711E+03  0.14081787711E+03  0.00000000000E+00 0.  1.
         21   -1    0    0  501  502  0.00000000000E+00 -0.00000000000E+00 -0.35480935176E+03  0.35480935176E+03  0.00000000000E+00 0.  1.
         23    2    1    2    0    0  0.60621871814E+02 -0.13513141361E+02  0.92724372288E+02  0.14507383873E+03  0.92687610474E+02 0.  0.
        -24    2    1    2    0    0 -0.11491589917E+02 -0.25612103941E+02 -0.25573105788E+03  0.26965828438E+03  0.80803340690E+02 0.  0.
         11    1    4    4    0    0 -0.12393618696E+02 -0.30611393411E+02 -0.32383997505E+02  0.46253459171E+02  0.00000000000E+00 0. -1.
        -12    1    4    4    0    0  0.90202877877E+00  0.49992894700E+01 -0.22334706037E+03  0.22340482521E+03  0.00000000000E+00 0.  1.
        -11    1    3    3    0    0  0.39706085878E+02  0.27076884480E+02  0.86547449917E+02  0.98995919189E+02  0.00000000000E+00 0.  1.
         11    1    3    3    0    0  0.20915785936E+02 -0.40590025841E+02  0.61769223708E+01  0.46077919539E+02  0.00000000000E+00 0. -1.
         -1    1    1    2    0  502 -0.49130281897E+02  0.39125245302E+02 -0.50984789063E+02  0.80895105754E+02  0.00000000000E+00 0.  1.
<scales pt_clust_5="13000.00000" pt_clust_6="13000.00000" pt_clust_7="13000.00000" pt_clust_8="13000.00000" pt_clust_9="62.80581"></scales>
<clustering>
<clus scale="   62.806">  2  9  1 -1</clus>
<clus scale="   80.803">  5  6 -1 -1</clus>
<clus scale="   92.688">  7  8 -1 -1</clus>
<clus scale="   98.912">  2  5  1 -1</clus>
<clus scale="   62.806">  2  5  1 -1</clus>
</clustering>
</event>
<event>
 9    1  0.6270443E-005  0.1260866E+03  0.7546771E-02  0.1237850E+00
         21   -1    0    0  501  502  0.00000000000E+00  0.00000000000E+00  0.48934785395E+03  0.48934785395E+03  0.00000000000E+00 0. -1.
          1   -1    0    0  502    0 -0.00000000000E+00 -0.00000000000E+00 -0.85177808310E+02  0.85177808310E+02  0.00000000000E+00 0. -1.
        -24    2    1    2    0    0  0.83600970285E+02  0.41450967412E+02 -0.80857740836E+01  0.12257041772E+03  0.79062144068E+02 0.  0.
         23    2    1    2    0    0 -0.17842079592E+02 -0.60080662706E+02  0.21225187384E+03  0.24059565611E+03  0.94378948694E+02 0.  0.
         13    1    3    3    0    0  0.61291851860E+02  0.44858966701E+02 -0.38135237764E+02  0.84990083876E+02  0.00000000000E+00 0. -1.
        -14    1    3    3    0    0  0.22309118425E+02 -0.34079992891E+01  0.30049463681E+02  0.37580333840E+02  0.00000000000E+00 0.  1.
        -13    1    4    4    0    0 -0.30111976713E+02 -0.77385750509E+02  0.11995342669E+03  0.14589074713E+03  0.00000000000E+00 0. -1.
         13    1    4    4    0    0  0.12269897121E+02  0.17305087803E+02  0.92298447151E+02  0.94704908984E+02  0.00000000000E+00 0.  1.
          2    1    1    2  501    0 -0.65758890693E+02  0.18629695294E+02  0.20000394588E+03  0.21135958843E+03  0.00000000000E+00 0. -1.
<scales pt_clust_5="13000.00000" pt_clust_6="13000.00000" pt_clust_7="13000.00000" pt_clust_8="13000.00000" pt_clust_9="68.34689"></scales>
<clustering>
<clus scale="   68.347">  1  9  2 -1</clus>
<clus scale="   79.062">  5  6 -1 -1</clus>
<clus scale="   94.379">  7  8 -1 -1</clus>
<clus scale="  115.071">  2  5  1 -1</clus>
<clus scale="   68.347">  1  5  2 -1</clus>
</clustering>
</event>
<event>
 9    1  0.6270443E-005  0.1236345E+03  0.7546771E-02  0.1241222E+00
          3   -1    0    0  502    0 -0.00000000000E+00  0.00000000000E+00  0.18666085477E+03  0.18666085477E+03  0.00000000000E+00 0. -1.
         21   -1    0    0  501  502  0.00000000000E+00 -0.00000000000E+00 -0.22892806519E+03  0.22892806519E+03  0.00000000000E+00 0. -1.
         23    2    1    2    0    0  0.81781615615E+02  0.11544924754E+02  0.12063154693E+03  0.17250932915E+03  0.91574999804E+02 0.  0.
        -24    2    1    2    0    0 -0.74970009936E+02 -0.59164874741E+02 -0.79287020348E+02  0.14661726567E+03  0.78033365971E+02 0.  0.
         11    1    4    4    0    0 -0.68335849581E+02 -0.77552539169E+02 -0.70915389997E+02  0.12535221262E+03  0.00000000000E+00 0. -1.
        -12    1    4    4    0    0 -0.66341603557E+01  0.18387664428E+02 -0.83716303511E+01  0.21265053056E+02  0.00000000000E+00 0.  1.
        -11    1    3    3    0    0 -0.16838325994E+02 -0.10997253513E+02  0.95435345379E+01  0.22260904263E+02  0.00000000000E+00 0.  1.
         11    1    3    3    0    0  0.98619941610E+02  0.22542178267E+02  0.11108801239E+03  0.15024842489E+03  0.00000000000E+00 0. -1.
          4    1    1    2  501    0 -0.68116056790E+01  0.47619949986E+02 -0.83611736999E+02  0.96462325146E+02  0.00000000000E+00 0. -1.
<scales pt_clust_5="13000.00000" pt_clust_6="13000.00000" pt_clust_7="13000.00000" pt_clust_8="13000.00000" pt_clust_9="48.10465"></scales>
<clustering>
<clus scale="   48.105">  2  9  1 -1</clus>
<clus scale="   78.033">  5  6 -1 -1</clus>
<clus scale="   91.575">  7  8 -1 -1</clus>
<clus scale="  113.968">  2  5  1 -1</clus>
<clus scale="   48.105">  2  5  1 -1</clus>
</clustering>
</event>
<event>
 9    1  0.6270443E-005  0.1967449E+03  0.7546771E-02  0.1186988E+00
          1   -1    0    0  502    0 -0.00000000000E+00  0.00000000000E+00  0.23323881233E+03  0.23323881233E+03  0.00000000000E+00 0. -1.
         21   -1    0    0  501  502  0.00000000000E+00 -0.00000000000E+00 -0.46972577235E+03  0.46972577235E+03  0.00000000000E+00 0. -1.
         23    2    1    2    0    0  0.15120729576E+02 -0.42371622316E+01  0.12745296559E+03  0.15566821062E+03  0.87987177219E+02 0.  0.
        -24    2    1    2    0    0 -0.17847016113E+03 -0.57756161147E+02 -0.93906412769E+02  0.22566878353E+03  0.83190221405E+02 0.  0.
         11    1    4    4    0    0 -0.15492504918E+03 -0.36727159170E+02 -0.41582671763E+02  0.16455933178E+03  0.00000000000E+00 0. -1.
        -12    1    4    4    0    0 -0.23545111951E+02 -0.21029001977E+02 -0.52323741006E+02  0.61109451755E+02  0.00000000000E+00 0.  1.
        -11    1    3    3    0    0  0.17665234362E+02 -0.31745184236E+02  0.14054270748E+02  0.38953045497E+02  0.00000000000E+00 0.  1.
         11    1    3    3    0    0 -0.25445047852E+01  0.27508022005E+02  0.11339869484E+03  0.11671516512E+03  0.00000000000E+00 0. -1.
          2    1    1    2  501    0  0.16334943156E+03  0.61993323379E+02 -0.27003351283E+03  0.32162759052E+03  0.00000000000E+00 0. -1.
<scales pt_clust_5="13000.00000" pt_clust_6="13000.00000" pt_clust_7="13000.00000" pt_clust_8="13000.00000" pt_clust_9="178.29172"></scales>
<clustering>
<clus scale="   83.190">  5  6 -1 -1</clus>
<clus scale="   87.987">  7  8 -1 -1</clus>
<clus scale="   89.377">  1  7  2 -1</clus>
<clus scale="  178.292">  2  9  1 -1</clus>
<clus scale="  178.292">  2  5  1 -1</clus>
</clustering>
</event>
<event>
 9    1  0.6270443E-005  0.1925911E+03  0.7546771E-02  0.1156978E+00
         21   -1    0    0  501  502  0.00000000000E+00  0.00000000000E+00  0.86424344502E+02  0.86424344502E+02  0.00000000000E+00 0. -1.
          1   -1    0    0  502    0 -0.00000000000E+00 -0.00000000000E+00 -0.14708767545E+04  0.14708767545E+04  0.00000000000E+00 0. -1.
        -24    2    1    2    0    0  0.23562928293E+02 -0.17838843125E+03 -0.79852443168E+03  0.82248497480E+03  0.80390433347E+02 0.  0.
         23    2    1    2    0    0 -0.69776149128E+02  0.10765127145E+03 -0.13952091762E+02  0.15663291591E+03  0.88778951614E+02 0.  0.
         11    1    3    3    0    0  0.31958730808E+02 -0.17741575373E+03 -0.67455849714E+03  0.69823124837E+03  0.00000000000E+00 0. -1.
        -12    1    3    3    0    0 -0.83958025143E+01 -0.97267752187E+00 -0.12396593455E+03  0.12425372642E+03  0.00000000000E+00 0.  1.
        -11    1    4    4    0    0 -0.71740507952E+00  0.44282475452E+02 -0.39653379585E+02  0.59446133723E+02  0.00000000000E+00 0.  1.
         11    1    4    4    0    0 -0.69058744048E+02  0.63368796003E+02  0.25701287823E+02  0.97186782189E+02  0.00000000000E+00 0. -1.
          2    1    1    2  501    0  0.46213220834E+02  0.70737159799E+02 -0.57197588657E+03  0.57818320831E+03  0.00000000000E+00 0. -1.
<scales pt_clust_5="13000.00000" pt_clust_6="13000.00000" pt_clust_7="13000.00000" pt_clust_8="13000.00000" pt_clust_9="84.49506"></scales>
<clustering>
<clus scale="   80.390">  5  6 -1 -1</clus>
<clus scale="   84.495">  1  9  2 -1</clus>
<clus scale="   88.779">  7  8 -1 -1</clus>
<clus scale="  188.871">  2  5  1 -1</clus>
<clus scale="   84.495">  1  5  2 -1</clus>
</clustering>
</event>
<event>
 9    1  0.6270443E-005  0.9916408E+02  0.7546771E-02  0.1288104E+00
          1   -1    0    0  502    0 -0.00000000000E+00  0.00000000000E+00  0.29776066383E+03  0.29776066383E+03  0.00000000000E+00 0. -1.
         21   -1    0    0  501  502  0.00000000000E+00 -0.00000000000E+00 -0.90199528737E+02  0.90199528737E+02  0.00000000000E+00 0.  1.
        -24    2    1    2    0    0 -0.16613617329E+02  0.29289717400E+02  0.22514826357E+03  0.24162982844E+03  0.80989712796E+02 0.  0.
         23    2    1    2    0    0  0.38084657372E+02 -0.30686158028E+02  0.16553523017E+02  0.10597519480E+03  0.92545347624E+02 0.  0.
         13    1    3    3    0    0 -0.16382571982E+02  0.43972486178E+02  0.22161180085E+03  0.22652540361E+03  0.00000000000E+00 0. -1.
        -14    1    3    3    0    0 -0.23104534621E+00 -0.14682768778E+02  0.35364627200E+01  0.15104424832E+02  0.00000000000E+00 0.  1.
        -11    1    4    4    0    0 -0.46119277885E+01 -0.31396077707E+02  0.44709129459E+02  0.54825995935E+02  0.00000000000E+00 0. -1.
         11    1    4    4    0    0  0.42696585161E+02  0.70991967870E+00 -0.28155606442E+02  0.51149198864E+02  0.00000000000E+00 0.  1.
          2    1    1    2  501    0 -0.21471040044E+02  0.13964406278E+01 -0.34140651493E+02  0.40355169326E+02  0.00000000000E+00 0. -1.
<scales pt_clust_5="13000.00000" pt_clust_6="13000.00000" pt_clust_7="13000.00000" pt_clust_8="13000.00000" pt_clust_9="21.51640"></scales>
<clustering>
<clus scale="   21.516">  2  9  1 -1</clus>
<clus scale="   80.990">  5  6 -1 -1</clus>
<clus scale="   88.477">  1  5  2 -1</clus>
<clus scale="   92.545">  7  8 -1 -1</clus>
<clus scale="   21.516">  2  5  1 -1</clus>
</clustering>
</event>
<event>
 9    1  0.6270443E-005  0.1552491E+03  0.7546771E-02  0.1196698E+00
          1   -1    0    0  502    0 -0.00000000000E+00  0.00000000000E+00  0.10317478269E+04  0.10317478269E+04  0.00000000000E+00 0. -1.
         21   -1    0    0  501  502  0.00000000000E+00 -0.00000000000E+00 -0.49596768030E+02  0.49596768030E+02  0.00000000000E+00 0. -1.
         23    2    1    2    0    0 -0.68349739751E+02  0.91908306348E+02  0.52798838534E+03  0.54802586250E+03  0.91879199060E+02 0.  0.
        -24    2    1    2    0    0  0.13895386380E+03 -0.22702679866E+02  0.33753689381E+03  0.38042683085E+03  0.10473696106E+03 0.  0.
         13    1    4    4    0    0  0.12126381327E+03 -0.56736291646E+02  0.28947784146E+03  0.31893783077E+03  0.00000000000E+00 0. -1.
        -14    1    4    4    0    0  0.17690050534E+02  0.34033611781E+02  0.48059052344E+02  0.61489000081E+02  0.00000000000E+00 0.  1.
        -11    1    3    3    0    0 -0.28280351261E+02 -0.14081720403E+02  0.15581158611E+03  0.15898214832E+03  0.00000000000E+00 0.  1.
         11    1    3    3    0    0 -0.40069388490E+02  0.10599002675E+03  0.37217679923E+03  0.38904371419E+03  0.00000000000E+00 0. -1.
          2    1    1    2  501    0 -0.70604124053E+02 -0.69205626483E+02  0.11662577971E+03  0.15289190156E+03  0.00000000000E+00 0. -1.
<scales pt_clust_5="13000.00000" pt_clust_6="13000.00000" pt_clust_7="13000.00000" pt_clust_8="13000.00000" pt_clust_9="98.86537"></scales>
<clustering>
<clus scale="   91.879">  7  8 -1 -1</clus>
<clus scale="   98.865">  2  9  1 -1</clus>
<clus scale="  104.737">  5  6 -1 -1</clus>
<clus scale="  146.882">  1  7  2 -1</clus>
<clus scale="   98.865">  2  5  1 -1</clus>
</clustering>
</event>
<event>
 9    1  0.6270443E-005  0.1979138E+03  0.7546771E-02  0.1189090E+00
          1   -1    0    0  502    0 -0.00000000000E+00  0.00000000000E+00  0.43154330372E+03  0.43154330372E+03  0.00000000000E+00 0. -1.
         21   -1    0    0  501  502  0.00000000000E+00 -0.00000000000E+00 -0.16141229029E+03  0.16141229029E+03  0.00000000000E+00 0. -1.
        -24    2    1    2    0    0  0.69631444505E+01 -0.18236847211E+02  0.12077342602E+03  0.14700142267E+03  0.81499262917E+02 0.  0.
         23    2    1    2    0    0  0.25172924058E+02 -0.16192036944E+03  0.18243805258E+03  0.25998732810E+03  0.86359050480E+02 0.  0.
         11    1    3    3    0    0  0.12917854956E+02 -0.42695675411E+02  0.11164113912E+03  0.12022285814E+03  0.00000000000E+00 0. -1.
        -12    1    3    3    0    0 -0.59547105059E+01  0.24458828200E+02  0.91322869074E+01  0.26778564530E+02  0.00000000000E+00 0.  1.
        -11    1    4    4    0    0 -0.81679889213E+00 -0.89786967611E+02  0.15389490867E+03  0.17817409920E+03  0.00000000000E+00 0.  1.
         11    1    4    4    0    0  0.25989722950E+02 -0.72133401829E+02  0.28543143910E+02  0.81813228898E+02  0.00000000000E+00 0. -1.
          2    1    1    2  501    0 -0.32136068508E+02  0.18015721665E+03 -0.33080465176E+02  0.18596684325E+03  0.00000000000E+00 0. -1.
<scales pt_clust_5="13000.00000" pt_clust_6="13000.00000" pt_clust_7="13000.00000" pt_clust_8="13000.00000" pt_clust_9="178.07864"></scales>
<clustering>
<clus scale="   81.499">  5  6 -1 -1</clus>
<clus scale="   83.805">  1  5  2 -1</clus>
<clus scale="   86.359">  7  8 -1 -1</clus>
<clus scale="  178.079">  2  9  1 -1</clus>
<clus scale="  178.079">  2  5  1 -1</clus>
</clustering>
</event>
<event>
 9    1  0.6270443E-005  0.1188782E+03  0.7546771E-02  0.1248946E+00
         21   -1    0    0  501  502  0.00000000000E+00  0.00000000000E+00  0.10691946378E+03  0.10691946378E+03  0.00000000000E+00 0.  1.
          1   -1    0    0  502    0 -0.00000000000E+00 -0.00000000000E+00 -0.55607424770E+03  0.55607424770E+03  0.00000000000E+00 0. -1.
         23    2    1    2    0    0  0.47060632124E+02 -0.59755544664E+02 -0.48995535454E+03  0.50430614490E+03  0.92103257974E+02 0.  0.
        -24    2    1    2    0    0 -0.66243189924E+02  0.33553612586E+02  0.34181374255E+01  0.10917031625E+03  0.79952918389E+02 0.  0.
         13    1    4    4    0    0 -0.41649390927E+02  0.30104091705E+02 -0.35884609779E+02  0.62678810781E+02  0.00000000000E+00 0. -1.
        -14    1    4    4    0    0 -0.24593798997E+02  0.34495208807E+01  0.39302747204E+02  0.46491505473E+02  0.00000000000E+00 0.  1.
        -11    1    3    3    0    0  0.74127109649E+02 -0.34253591106E+02 -0.35922409273E+03  0.36838849831E+03  0.00000000000E+00 0. -1.
         11    1    3    3    0    0 -0.27066477525E+02 -0.25501953559E+02 -0.13073126181E+03  0.13591764659E+03  0.00000000000E+00 0.  1.
          2    1    1    2  501    0  0.19182557800E+02  0.26201932079E+02  0.37382433198E+02  0.49517250330E+02  0.00000000000E+00 0. -1.
<scales pt_clust_5="13000.00000" pt_clust_6="13000.00000" pt_clust_7="13000.00000" pt_clust_8="13000.00000" pt_clust_9="32.47325"></scales>
<clustering>
<clus scale="   32.473">  1  9  2 -1</clus>
<clus scale="   79.953">  5  6 -1 -1</clus>
<clus scale="   92.103">  7  8 -1 -1</clus>
<clus scale="  109.734">  1  5  2 -1</clus>
<clus scale="   32.473">  1  5  2 -1</clus>
</clustering>
</event>
<event>
 9    1  0.6270443E-005  0.9496409E+02  0.7546771E-02  0.1296721E+00
         21   -1    0    0  501  502  0.00000000000E+00  0.00000000000E+00  0.30739495774E+02  0.30739495774E+02  0.00000000000E+00 0.  1.
          1   -1    0    0  502    0 -0.00000000000E+00 -0.00000000000E+00 -0.35775834866E+03  0.35775834866E+03  0.00000000000E+00 0. -1.
         23    2    1    2    0    0 -0.49390431136E+01 -0.16997582042E+02 -0.13749046678E+03  0.16538664954E+03  0.90198688731E+02 0.  0.
        -24    2    1    2    0    0 -0.16872667167E+01  0.42189723635E+02 -0.13582681129E+03  0.16342525754E+03  0.80474048533E+02 0.  0.
         13    1    4    4    0    0 -0.25476577844E+02  0.11613233873E+00 -0.10017930270E+03  0.10336809080E+03  0.00000000000E+00 0. -1.
        -14    1    4    4    0    0  0.23789311127E+02  0.42073591296E+02 -0.35647508587E+02  0.60057166740E+02  0.00000000000E+00 0.  1.
        -13    1    3    3    0    0  0.24671981475E+02  0.24737565610E+02 -0.28895623110E+02  0.45338844903E+02  0.00000000000E+00 0.  1.
         13    1    3    3    0    0 -0.29611024588E+02 -0.41735147652E+02 -0.10859484367E+03  0.12004780464E+03  0.00000000000E+00 0. -1.
          2    1    1    2  501    0  0.66263098303E+01 -0.25192141592E+02 -0.53701574816E+02  0.59685937352E+02  0.00000000000E+00 0. -1.
<scales pt_clust_5="13000.00000" pt_clust_6="13000.00000" pt_clust_7="13000.00000" pt_clust_8="13000.00000" pt_clust_9="26.04904"></scales>
<clustering>
<clus scale="   26.049">  1  9  2 -1</clus>
<clus scale="   80.474">  5  6 -1 -1</clus>
<clus scale="   85.781">  1  5  2 -1</clus>
<clus scale="   90.199">  7  8 -1 -1</clus>
<clus scale="   26.049">  1  5  2 -1</clus>
</clustering>
</event>
<event>
 9    1  0.6270443E-005  0.1481480E+03  0.7546771E-02  0.1209328E+00
         21   -1    0    0  501  502  0.00000000000E+00  0.00000000000E+00  0.39204509236E+03  0.39204509236E+03  0.00000000000E+00 0.  1.
         -4   -1    0    0    0  501 -0.00000000000E+00 -0.00000000000E+00 -0.72469351079E+02  0.72469351079E+02  0.00000000000E+00 0.  1.
        -24    2    1    2    0    0  0.17879103468E+02 -0.10775575540E+03  0.66095226437E+02  0.14829417062E+03  0.75442805613E+02 0.  0.
         23    2    1    2    0    0  0.18771691057E+02  0.97651905095E+02  0.16281037215E+03  0.21790220069E+03  0.10528950961E+03 0.  0.
         13    1    3    3    0    0  0.82497910670E+01 -0.11781797449E+03  0.63609951553E+02  0.13414678565E+03  0.00000000000E+00 0. -1.
        -14    1    3    3    0    0  0.96293124009E+01  0.10062219082E+02  0.24852748841E+01  0.14147384967E+02  0.00000000000E+00 0.  1.
        -11    1    4    4    0    0  0.40121933855E+02  0.99723221244E+02  0.84562286565E+02  0.13676721369E+03  0.00000000000E+00 0.  1.
         11    1    4    4    0    0 -0.21350242798E+02 -0.20713161488E+01  0.78248085585E+02  0.81134987002E+02  0.00000000000E+00 0. -1.
         -3    1    1    2    0  502 -0.36650794525E+02  0.10103850309E+02  0.90670142698E+02  0.98318072130E+02  0.00000000000E+00 0.  1.
<scales pt_clust_5="13000.00000" pt_clust_6="13000.00000" pt_clust_7="13000.00000" pt_clust_8="13000.00000" pt_clust_9="38.01800"></scales>
<clustering>
<clus scale="   38.018">  1  9  2 -1</clus>
<clus scale="   75.443">  5  6 -1 -1</clus>
<clus scale="  105.290">  7  8 -1 -1</clus>
<clus scale="  128.661">  2  5  1 -1</clus>
<clus scale="   38.018">  1  5  2 -1</clus>
</clustering>
</event>
<event>
 9    1  0.6270443E-005  0.1245439E+03  0.7546771E-02  0.1238162E+00
         -4   -1    0    0    0  501 -0.00000000000E+00  0.00000000000E+00  0.20077996714E+03  0.20077996714E+03  0.00000000000E+00 0.  1.
         21   -1    0    0  501  502  0.00000000000E+00 -0.00000000000E+00 -0.96489050192E+02  0.96489050192E+02  0.00000000000E+00 0. -1.
        -24    2    1    2    0    0  0.70223103866E+02 -0.41263191271E+02  0.54322307097E+02  0.12768725767E+03  0.81970649949E+02 0.  0.
         23    2    1    2    0    0 -0.65212527929E+02  0.67829798735E+02  0.25017187202E+02  0.13279230471E+03  0.90301612053E+02 0.  0.
         13    1    3    3    0    0  0.94365766793E+01  0.20485529738E+02 -0.44472768835E+01  0.22988783782E+02  0.00000000000E+00 0. -1.
        -14    1    3    3    0    0  0.60786527187E+02 -0.61748721009E+02  0.58769583981E+02  0.10469847389E+03  0.00000000000E+00 0.  1.
        -11    1    4    4    0    0 -0.86686567494E+02  0.57478051594E+02  0.97126801393E+01  0.10446350346E+03  0.00000000000E+00 0. -1.
         11    1    4    4    0    0  0.21474039564E+02  0.10351747141E+02  0.15304507063E+02  0.28328801254E+02  0.00000000000E+00 0.  1.
         -3    1    1    2    0  502 -0.50105759367E+01 -0.26566607464E+02  0.24951422651E+02  0.36789454952E+02  0.00000000000E+00 0.  1.
<scales pt_clust_5="13000.00000" pt_clust_6="13000.00000" pt_clust_7="13000.00000" pt_clust_8="13000.00000" pt_clust_9="27.03500"></scales>
<clustering>
<clus scale="   27.035">  2  9  1 -1</clus>
<clus scale="   81.971">  5  6 -1 -1</clus>
<clus scale="   90.302">  7  8 -1 -1</clus>
<clus scale="  118.642">  1  5  2 -1</clus>
<clus scale="   27.035">  2  5  1 -1</clus>
</clustering>
</event>
<event>
 9    1  0.6270443E-005  0.1058239E+03  0.7546771E-02  0.1274216E+00
         21   -1    0    0  501  502  0.00000000000E+00  0.00000000000E+00  0.27119406865E+02  0.27119406865E+02  0.00000000000E+00 0. -1.
          1   -1    0    0  502    0 -0.00000000000E+00 -0.00000000000E+00 -0.98673262277E+03  0.98673262277E+03  0.00000000000E+00 0. -1.
        -24    2    1    2    0    0  0.61912087595E+02  0.84199339664E+01 -0.52974524112E+03  0.53939008046E+03  0.80047714074E+02 0.  0.
         23    2    1    2    0    0  0.35562055258E+01 -0.60589619709E+02 -0.18536606190E+03  0.21602635000E+03  0.92860424175E+02 0.  0.
         13    1    3    3    0    0  0.66877455878E+02 -0.21819262685E+02 -0.39378988301E+03  0.40002393215E+03  0.00000000000E+00 0. -1.
        -14    1    3    3    0    0 -0.49653682832E+01  0.30239196651E+02 -0.13595535811E+03  0.13936614831E+03  0.00000000000E+00 0.  1.
        -13    1    4    4    0    0  0.30272003200E+02 -0.20120789610E+02 -0.15749507663E+02  0.39614231582E+02  0.00000000000E+00 0. -1.
         13    1    4    4    0    0 -0.26715797674E+02 -0.40468830100E+02 -0.16961655424E+03  0.17641211842E+03  0.00000000000E+00 0.  1.
          2    1    1    2  501    0 -0.65468293121E+02  0.52169685743E+02 -0.24450191288E+03  0.25843559917E+03  0.00000000000E+00 0. -1.
<scales pt_clust_5="13000.00000" pt_clust_6="13000.00000" pt_clust_7="13000.00000" pt_clust_8="13000.00000" pt_clust_9="83.71245"></scales>
<clustering>
<clus scale="   80.048">  5  6 -1 -1</clus>
<clus scale="   83.712">  1  9  2 -1</clus>
<clus scale="   92.860">  7  8 -1 -1</clus>
<clus scale="   94.780">  2  5  1 -1</clus>
<clus scale="   83.712">  1  5  2 -1</clus>
</clustering>
</event>
<event>
 9    1  0.6270443E-005  0.1449645E+03  0.7546771E-02  0.1210426E+00
          3   -1    0    0  502    0 -0.00000000000E+00  0.00000000000E+00  0.13747229080E+03  0.13747229080E+03  0.00000000000E+00 0. -1.
         21   -1    0    0  501  502  0.00000000000E+00 -0.00000000000E+00 -0.25858536793E+03  0.25858536793E+03  0.00000000000E+00 0. -1.
         23    2    1    2    0    0  0.11036972991E+03 -0.38111656964E+02  0.58957948267E+02  0.15915501092E+03  0.90665882004E+02 0.  0.
        -24    2    1    2    0    0 -0.10238241536E+03  0.13161204282E+02 -0.13380723016E+03  0.18373629536E+03  0.72105999168E+02 0.  0.
         11    1    4    4    0    0 -0.92429416115E+02  0.93786100588E+00 -0.13918391623E+03  0.16708153424E+03  0.00000000000E+00 0. -1.
        -12    1    4    4    0    0 -0.99529992492E+01  0.12223343276E+02  0.53766860709E+01  0.16654761121E+02  0.00000000000E+00 0.  1.
        -13    1    3    3    0    0  0.21042762270E+02  0.67807270253E+01  0.54804322160E+02  0.59095599078E+02  0.00000000000E+00 0.  1.
         13    1    3    3    0    0  0.89326967642E+02 -0.44892383989E+02  0.41536261075E+01  0.10005941184E+03  0.00000000000E+00 0. -1.
          4    1    1    2  501    0 -0.79873145484E+01  0.24950452682E+02 -0.46263795234E+02  0.53166352444E+02  0.00000000000E+00 0. -1.
<scales pt_clust_5="13000.00000" pt_clust_6="13000.00000" pt_clust_7="13000.00000" pt_clust_8="13000.00000" pt_clust_9="26.19775"></scales>
<clustering>
<clus scale="   26.198">  2  9  1 -1</clus>
<clus scale="   72.106">  5  6 -1 -1</clus>
<clus scale="   90.666">  7  8 -1 -1</clus>
<clus scale="  134.141">  2  5  1 -1</clus>
<clus scale="   26.198">  2  5  1 -1</clus>
</clustering>
</event>
<event>
 9    1  0.6270443E-005  0.9067329E+02  0.7546771E-02  0.1304277E+00
         21   -1    0    0  501  502  0.00000000000E+00  0.00000000000E+00  0.50621605450E+03  0.50621605450E+03  0.00000000000E+00 0.  1.
          1   -1    0    0  502    0 -0.00000000000E+00 -0.00000000000E+00 -0.78851171557E+02  0.78851171557E+02  0.00000000000E+00 0. -1.
         23    2    1    2    0    0  0.16174709248E+02  0.19755215930E+02 -0.36194129181E+02  0.97322967500E+02  0.86659420954E+02 0.  0.
        -24    2    1    2    0    0 -0.43687312908E+02 -0.19798406395E+02  0.44407938734E+03  0.45403371113E+03  0.81483436260E+02 0.  0.
         13    1    4    4    0    0 -0.46617570410E+01  0.27091374458E+02  0.73618860909E+02  0.78583784780E+02  0.00000000000E+00 0. -1.
        -14    1    4    4    0    0 -0.39025555867E+02 -0.46889780853E+02  0.37046052643E+03  0.37544992636E+03  0.00000000000E+00 0.  1.
        -13    1    3    3    0    0 -0.13978630080E+02 -0.28229104494E+02 -0.23356975864E+02  0.39215210837E+02  0.00000000000E+00 0.  1.
         13    1    3    3    0    0  0.30153339329E+02  0.47984320423E+02 -0.12837153317E+02  0.58107756663E+02  0.00000000000E+00 0. -1.
          2    1    1    2  501    0  0.27512603660E+02  0.43190465030E-01  0.19479624784E+02  0.33710547419E+02  0.00000000000E+00 0. -1.
<scales pt_clust_5="13000.00000" pt_clust_6="13000.00000" pt_clust_7="13000.00000" pt_clust_8="13000.00000" pt_clust_9="27.51265"></scales>
<clustering>
<clus scale="   27.513">  1  9  2 -1</clus>
<clus scale="   81.483">  5  6 -1 -1</clus>
<clus scale="   85.740">  1  5  2 -1</clus>
<clus scale="   86.659">  7  8 -1 -1</clus>
<clus scale="   27.513">  1  5  2 -1</clus>
</clustering>
</event>
<event>
 9    1  0.6270443E-005  0.3129669E+03  0.7546771E-02  0.1106052E+00
          1   -1    0    0  502    0 -0.00000000000E+00  0.00000000000E+00  0.37469993766E+03  0.37469993766E+03  0.00000000000E+00 0. -1.
         21   -1    0    0  501  502  0.00000000000E+00 -0.00000000000E+00 -0.47469439146E+03  0.47469439146E+03  0.00000000000E+00 0. -1.
        -24    2    1    2    0    0 -0.15036730450E+02  0.12693578382E+03 -0.15832252691E+03  0.22038042777E+03  0.84632818340E+02 0.  0.
         23    2    1    2    0    0 -0.12226700003E+03  0.20808512932E+03  0.68444452070E+02  0.26680723690E+03  0.90845023552E+02 0.  0.
         13    1    3    3    0    0  0.32542996304E+02  0.73841179406E+02 -0.69607106299E+02  0.10656789212E+03  0.00000000000E+00 0. -1.
        -14    1    3    3    0    0 -0.47579726753E+02  0.53094604415E+02 -0.88715420613E+02  0.11381253565E+03  0.00000000000E+00 0.  1.
        -13    1    4    4    0    0 -0.16343030836E+02  0.16397693864E+02  0.39652198054E+02  0.45915964887E+02  0.00000000000E+00 0.  1.
         13    1    4    4    0    0 -0.10592396920E+03  0.19168743546E+03  0.28792254015E+02  0.22089127202E+03  0.00000000000E+00 0. -1.
          2    1    1    2  501    0  0.13730373048E+03 -0.33502091314E+03 -0.10116378952E+02  0.36220666445E+03  0.00000000000E+00 0. -1.
<scales pt_clust_5="13000.00000" pt_clust_6="13000.00000" pt_clust_7="13000.00000" pt_clust_8="13000.00000" pt_clust_9="299.49219"></scales>
<clustering>
<clus scale="   84.633">  5  6 -1 -1</clus>
<clus scale="   90.845">  7  8 -1 -1</clus>
<clus scale="  153.302">  1  5  2 -1</clus>
<clus scale="  299.492">  2  9  1 -1</clus>
<clus scale="  299.492">  2  5  1 -1</clus>
</clustering>
</event>
<event>
 9    1  0.6270443E-005  0.1031113E+03  0.7546771E-02  0.1282587E+00
          3   -1    0    0  502    0 -0.00000000000E+00  0.00000000000E+00  0.25103837539E+03  0.25103837539E+03  0.00000000000E+00 0. -1.
         21   -1    0    0  501  502  0.00000000000E+00 -0.00000000000E+00 -0.11846091420E+03  0.11846091420E+03  0.00000000000E+00 0. -1.
        -24    2    1    2    0    0 -0.21763226187E+02 -0.54867859441E-01  0.60214906591E+02  0.10212787187E+03  0.79565232433E+02 0.  0.
         23    2    1    2    0    0  0.90736184107E+02 -0.32775574160E+02 -0.29856435707E+02  0.13976331129E+03  0.96618233587E+02 0.  0.
         13    1    3    3    0    0 -0.22540100473E+02  0.36363285906E+02  0.46547086460E+02  0.63221641462E+02  0.00000000000E+00 0. -1.
        -14    1    3    3    0    0  0.77687428603E+00 -0.36418153766E+02  0.13667820131E+02  0.38906230407E+02  0.00000000000E+00 0.  1.
        -11    1    4    4    0    0 -0.15409891995E+02 -0.23715704103E+02 -0.15548729443E+02  0.32274794805E+02  0.00000000000E+00 0.  1.
         11    1    4    4    0    0  0.10614607610E+03 -0.90598700576E+01 -0.14307706264E+02  0.10748851648E+03  0.00000000000E+00 0. -1.
          4    1    1    2  501    0 -0.68972957920E+02  0.32830442020E+02  0.10221899031E+03  0.12760810643E+03  0.00000000000E+00 0. -1.
<scales pt_clust_5="13000.00000" pt_clust_6="13000.00000" pt_clust_7="13000.00000" pt_clust_8="13000.00000" pt_clust_9="76.38791"></scales>
<clustering>
<clus scale="   76.388">  2  9  1 -1</clus>
<clus scale="   79.565">  5  6 -1 -1</clus>
<clus scale="   87.335">  1  5  2 -1</clus>
<clus scale="   96.618">  7  8 -1 -1</clus>
<clus scale="   76.388">  2  5  1 -1</clus>
</clustering>
</event>
<event>
 9    1  0.6270443E-005  0.9878877E+02  0.7546771E-02  0.1285453E+00
          1   -1    0    0  502    0 -0.00000000000E+00  0.00000000000E+00  0.12400732805E+03  0.12400732805E+03  0.00000000000E+00 0. -1.
         21   -1    0    0  501  502  0.00000000000E+00 -0.00000000000E+00 -0.26274042501E+03  0.26274042501E+03  0.00000000000E+00 0. -1.
         23    2    1    2    0    0  0.26148245357E+02  0.67300339948E+02  0.65090367277E+02  0.12266601977E+03  0.74813969289E+02 0.  0.
        -24    2    1    2    0    0  0.25907617822E+02 -0.24754632480E+01 -0.10454633897E+03  0.13459032381E+03  0.80667748761E+02 0.  0.
         13    1    4    4    0    0 -0.14079115769E+02  0.26632274404E+02 -0.18527680841E+02  0.35366290420E+02  0.00000000000E+00 0. -1.
        -14    1    4    4    0    0  0.39986733591E+02 -0.29107737652E+02 -0.86018658133E+02  0.99224033387E+02  0.00000000000E+00 0.  1.
        -11    1    3    3    0    0 -0.26282123131E+02  0.17445726145E+02  0.17604526758E+02  0.36125098192E+02  0.00000000000E+00 0. -1.
         11    1    3    3    0    0  0.52430368488E+02  0.49854613804E+02  0.47485840519E+02  0.86540921575E+02  0.00000000000E+00 0.  1.
          2    1    1    2  501    0 -0.52055863179E+02 -0.64824876700E+02 -0.99277125266E+02  0.12949140949E+03  0.00000000000E+00 0. -1.
<scales pt_clust_5="13000.00000" pt_clust_6="13000.00000" pt_clust_7="13000.00000" pt_clust_8="13000.00000" pt_clust_9="83.13891"></scales>
<clustering>
<clus scale="   74.814">  7  8 -1 -1</clus>
<clus scale="   80.668">  5  6 -1 -1</clus>
<clus scale="   83.139">  2  9  1 -1</clus>
<clus scale="   94.069">  1  7  2 -1</clus>
<clus scale="   83.139">  2  5  1 -1</clus>
</clustering>
</event>
<event>
 9    1  0.6270443E-005  0.1094813E+03  0.7546771E-02  0.1265919E+00
         21   -1    0    0  501  502  0.00000000000E+00  0.00000000000E+00  0.58013040287E+02  0.58013040287E+02  0.00000000000E+00 0.  1.
         -2   -1    0    0    0  501 -0.00000000000E+00 -0.00000000000E+00 -0.35564605144E+03  0.35564605144E+03  0.00000000000E+00 0.  1.
        -24    2    1    2    0    0 -0.43148626040E+02  0.34643774118E+02 -0.18668074361E+03  0.21073646350E+03  0.80611177883E+02 0.  0.
         23    2    1    2    0    0  0.71503870531E+02 -0.17163486423E+02 -0.12050512783E+03  0.16826952609E+03  0.91573788875E+02 0.  0.
         13    1    3    3    0    0 -0.48220391463E+02  0.25400563931E+02 -0.50984311771E+02  0.74631058197E+02  0.00000000000E+00 0. -1.
        -14    1    3    3    0    0  0.50717654224E+01  0.92432101876E+01 -0.13569643184E+03  0.13610540530E+03  0.00000000000E+00 0.  1.
        -11    1    4    4    0    0  0.44838216066E+02 -0.54930512785E+02 -0.66954658800E+02  0.97523090547E+02  0.00000000000E+00 0.  1.
         11    1    4    4    0    0  0.26665654465E+02  0.37767026361E+02 -0.53550469035E+02  0.70746435543E+02  0.00000000000E+00 0. -1.
         -1    1    1    2    0  502 -0.28355244491E+02 -0.17480287695E+02  0.95528602909E+01  0.34653102138E+02  0.00000000000E+00 0.  1.
<scales pt_clust_5="13000.00000" pt_clust_6="13000.00000" pt_clust_7="13000.00000" pt_clust_8="13000.00000" pt_clust_9="33.31036"></scales>
<clustering>
<clus scale="   33.310">  1  9  2 -1</clus>
<clus scale="   80.611">  5  6 -1 -1</clus>
<clus scale="   91.574">  7  8 -1 -1</clus>
<clus scale="  100.492">  2  5  1 -1</clus>
<clus scale="   33.310">  1  5  2 -1</clus>
</clustering>
</event>
<event>
 9    1  0.6270443E-005  0.1744313E+03  0.7546771E-02  0.1174683E+00
         21   -1    0    0  501  502  0.00000000000E+00  0.00000000000E+00  0.44589940912E+03  0.44589940912E+03  0.00000000000E+00 0. -1.
         -2   -1    0    0    0  501 -0.00000000000E+00 -0.00000000000E+00 -0.14617290377E+03  0.14617290377E+03  0.00000000000E+00 0.  1.
        -24    2    1    2    0    0 -0.33256350720E+02 -0.16743014458E+03  0.42550096080E+02  0.19375474075E+03  0.81188365608E+02 0.  0.
         23    2    1    2    0    0  0.93357194160E+02  0.74896700304E+02  0.24442963481E+03  0.28724538862E+03  0.91863950994E+02 0.  0.
         13    1    3    3    0    0 -0.15655196036E+02 -0.16423447516E+03  0.52694158348E+02  0.17318984473E+03  0.00000000000E+00 0. -1.
        -14    1    3    3    0    0 -0.17601154683E+02 -0.31956694257E+01 -0.10144062268E+02  0.20564896026E+02  0.00000000000E+00 0.  1.
        -11    1    4    4    0    0  0.10486689523E+03  0.55967095469E+02  0.15624701446E+03  0.19632246693E+03  0.00000000000E+00 0.  1.
         11    1    4    4    0    0 -0.11509701074E+02  0.18929604835E+02  0.88182620351E+02  0.90922921697E+02  0.00000000000E+00 0. -1.
         -1    1    1    2    0  502 -0.60100843441E+02  0.92533444277E+02  0.12746774460E+02  0.11107218352E+03  0.00000000000E+00 0.  1.
<scales pt_clust_5="13000.00000" pt_clust_6="13000.00000" pt_clust_7="13000.00000" pt_clust_8="13000.00000" pt_clust_9="110.33840"></scales>
<clustering>
<clus scale="   81.188">  5  6 -1 -1</clus>
<clus scale="   91.864">  7  8 -1 -1</clus>
<clus scale="  110.338">  1  9  2 -1</clus>
<clus scale="  169.053">  2  5  1 -1</clus>
<clus scale="  110.338">  1  5  2 -1</clus>
</clustering>
</event>
<event>
 9    1  0.6270443E-005  0.1128259E+03  0.7546771E-02  0.1260373E+00
          3   -1    0    0  502    0 -0.00000000000E+00  0.00000000000E+00  0.53298896663E+03  0.53298896663E+03  0.00000000000E+00 0. -1.
         21   -1    0    0  501  502  0.00000000000E+00 -0.00000000000E+00 -0.83451867580E+02  0.83451867580E+02  0.00000000000E+00 0.  1.
         23    2    1    2    0    0  0.61016379135E+02  0.74337068710E+01  0.32127083672E+03  0.33971499310E+03  0.91722775206E+02 0.  0.
        -24    2    1    2    0    0 -0.93087224208E+02  0.76355250144E+02  0.36241106101E+02  0.14820441176E+03  0.78458743042E+02 0.  0.
         13    1    4    4    0    0 -0.70544518945E+01  0.54358262318E+02  0.16393138393E+02  0.57212943991E+02  0.00000000000E+00 0. -1.
        -14    1    4    4    0    0 -0.86032772314E+02  0.21996987826E+02  0.19847967708E+02  0.90991467774E+02  0.00000000000E+00 0.  1.
        -13    1    3    3    0    0  0.65820244359E+02  0.35388708789E+02  0.16842818043E+03  0.18426263115E+03  0.00000000000E+00 0.  1.
         13    1    3    3    0    0 -0.48038652241E+01 -0.27955001918E+02  0.15284265629E+03  0.15545236195E+03  0.00000000000E+00 0. -1.
          4    1    1    2  501    0  0.32070845073E+02 -0.83788957015E+02  0.92025156228E+02  0.12852142934E+03  0.00000000000E+00 0. -1.
<scales pt_clust_5="13000.00000" pt_clust_6="13000.00000" pt_clust_7="13000.00000" pt_clust_8="13000.00000" pt_clust_9="89.71693"></scales>
<clustering>
<clus scale="   78.459">  5  6 -1 -1</clus>
<clus scale="   89.717">  2  9  1 -1</clus>
<clus scale="   91.723">  7  8 -1 -1</clus>
<clus scale="  102.335">  2  5  1 -1</clus>
<clus scale="   89.717">  2  5  1 -1</clus>
</clustering>
</event>
<event>
 9    1  0.6270443E-005  0.9615454E+02  0.7546771E-02  0.1293658E+00
         21   -1    0    0  501  502  0.00000000000E+00  0.00000000000E+00  0.60111857067E+02  0.60111857067E+02  0.00000000000E+00 0.  1.
          1   -1    0    0  502    0 -0.00000000000E+00 -0.00000000000E+00 -0.29345994004E+03  0.29345994004E+03  0.00000000000E+00 0. -1.
         23    2    1    2    0    0 -0.25433278641E+02 -0.25669902335E+02 -0.19572581568E+03  0.21832873874E+03  0.89738774732E+02 0.  0.
        -24    2    1    2    0    0  0.40217604864E+02 -0.38259490823E+01 -0.69889198753E+01  0.90221024573E+02  0.80367248594E+02 0.  0.
         11    1    4    4    0    0  0.39877975267E+02  0.14243605793E+02 -0.36307557562E+02  0.55779673300E+02  0.00000000000E+00 0. -1.
        -12    1    4    4    0    0  0.33962959677E+00 -0.18069554875E+02  0.29318637687E+02  0.34441351272E+02  0.00000000000E+00 0.  1.
        -13    1    3    3    0    0 -0.56504134013E+02 -0.31530173321E+02 -0.14069748094E+03  0.15486332727E+03  0.00000000000E+00 0.  1.
         13    1    3    3    0    0  0.31070855371E+02  0.58602709869E+01 -0.55028334740E+02  0.63465411476E+02  0.00000000000E+00 0. -1.
          2    1    1    2  501    0 -0.14784326222E+02  0.29495851417E+02 -0.30633347424E+02  0.45022033795E+02  0.00000000000E+00 0. -1.
<scales pt_clust_5="13000.00000" pt_clust_6="13000.00000" pt_clust_7="13000.00000" pt_clust_8="13000.00000" pt_clust_9="32.99368"></scales>
<clustering>
<clus scale="   32.994">  1  9  2 -1</clus>
<clus scale="   80.367">  5  6 -1 -1</clus>
<clus scale="   87.473">  1  5  2 -1</clus>
<clus scale="   89.739">  7  8 -1 -1</clus>
<clus scale="   32.994">  1  5  2 -1</clus>
</clustering>
</event>
<event>
 9    1  0.6270443E-005  0.1157038E+03  0.7546771E-02  0.1254254E+00
         21   -1    0    0  501  502  0.00000000000E+00  0.00000000000E+00  0.11453800268E+03  0.11453800268E+03  0.00000000000E+00 0. -1.
          1   -1    0    0  502    0 -0.00000000000E+00 -0.00000000000E+00 -0.47248696740E+03  0.47248696740E+03  0.00000000000E+00 0. -1.
        -24    2    1    2    0    0  0.62356453802E+01  0.83230282489E+02 -0.33482320709E+03  0.35450424504E+03  0.81243563115E+02 0.  0.
         23    2    1    2    0    0  0.37731246644E+02 -0.35255917116E+02 -0.90234423045E+02  0.13904238369E+03  0.92325005789E+02 0.  0.
         13    1    3    3    0    0 -0.19457868965E+02  0.87506956211E+02 -0.27541472092E+03  0.28963657322E+03  0.00000000000E+00 0. -1.
        -14    1    3    3    0    0  0.25693514345E+02 -0.42766737215E+01 -0.59408486176E+02  0.64867671819E+02  0.00000000000E+00 0.  1.
        -11    1    4    4    0    0  0.32685407796E+02 -0.62076701762E+02 -0.86690841186E+02  0.11152199214E+03  0.00000000000E+00 0.  1.
         11    1    4    4    0    0  0.50458388488E+01  0.26820784646E+02 -0.35435818590E+01  0.27520391551E+02  0.00000000000E+00 0. -1.
          2    1    1    2  501    0 -0.43966892025E+02 -0.47974365374E+02  0.67108665415E+02  0.93478341348E+02  0.00000000000E+00 0. -1.
<scales pt_clust_5="13000.00000" pt_clust_6="13000.00000" pt_clust_7="13000.00000" pt_clust_8="13000.00000" pt_clust_9="65.07401"></scales>
<clustering>
<clus scale="   65.074">  1  9  2 -1</clus>
<clus scale="   81.244">  5  6 -1 -1</clus>
<clus scale="   92.325">  7  8 -1 -1</clus>
<clus scale="  107.070">  2  5  1 -1</clus>
<clus scale="   65.074">  1  5  2 -1</clus>
</clustering>
</event>
<event>
 9    1  0.6270443E-005  0.1083745E+03  0.7546771E-02  0.1267447E+00
         21   -1    0    0  501  502  0.00000000000E+00  0.00000000000E+00  0.49361754047E+02  0.49361754047E+02  0.00000000000E+00 0.  1.
         -2   -1    0    0    0  501 -0.00000000000E+00 -0.00000000000E+00 -0.64484874787E+03  0.64484874787E+03  0.00000000000E+00 0.  1.
        -24    2    1    2    0    0  0.58355455509E+01  0.60484624559E+02 -0.29708479192E+03  0.31377104730E+03  0.80625387653E+02 0.  0.
         23    2    1    2    0    0  0.73615457081E+02 -0.46362504869E+02 -0.26494953234E+03  0.29308399008E+03  0.90173461585E+02 0.  0.
         13    1    3    3    0    0 -0.22217458629E+02  0.68312150979E+02 -0.21074683269E+03  0.22265307751E+03  0.00000000000E+00 0. -1.
        -14    1    3    3    0    0  0.28053004180E+02 -0.78275264197E+01 -0.86337959228E+02  0.91117969782E+02  0.00000000000E+00 0.  1.
        -11    1    4    4    0    0  0.51376694492E+02  0.15843469295E+02 -0.16267402268E+03  0.17132839202E+03  0.00000000000E+00 0.  1.
         11    1    4    4    0    0  0.22238762589E+02 -0.62205974164E+02 -0.10227550966E+03  0.12175559806E+03  0.00000000000E+00 0. -1.
         -1    1    1    2    0  502 -0.79451002632E+02 -0.14122119690E+02 -0.33452669564E+02  0.87355464539E+02  0.00000000000E+00 0.  1.
<scales pt_clust_5="13000.00000" pt_clust_6="13000.00000" pt_clust_7="13000.00000" pt_clust_8="13000.00000" pt_clust_9="80.69632"></scales>
<clustering>
<clus scale="   80.625">  5  6 -1 -1</clus>
<clus scale="   80.696">  1  9  2 -1</clus>
<clus scale="   90.173">  7  8 -1 -1</clus>
<clus scale="  100.570">  2  5  1 -1</clus>
<clus scale="   80.696">  1  5  2 -1</clus>
</clustering>
</event>
<event>
 9    1  0.6270443E-005  0.2809054E+03  0.7546771E-02  0.1095687E+00
         21   -1    0    0  501  502  0.00000000000E+00  0.00000000000E+00  0.92646261922E+03  0.92646261922E+03  0.00000000000E+00 0.  1.
         -2   -1    0    0    0  501 -0.00000000000E+00 -0.00000000000E+00 -0.54580549205E+03  0.54580549205E+03  0.00000000000E+00 0.  1.
        -24    2    1    2    0    0  0.17766287780E+03 -0.22478026735E+03 -0.39022646096E+03  0.49057152308E+03  0.79331341095E+02 0.  0.
         23    2    1    2    0    0 -0.21898635430E+03  0.72384597293E+02  0.62228792887E+02  0.25566374542E+03  0.91087731137E+02 0.  0.
         11    1    3    3    0    0  0.36894472812E+02 -0.86450584681E+02 -0.82886113448E+02  0.12531964538E+03  0.00000000000E+00 0. -1.
        -12    1    3    3    0    0  0.14076840499E+03 -0.13832968267E+03 -0.30734034752E+03  0.36525187770E+03  0.00000000000E+00 0.  1.
        -13    1    4    4    0    0 -0.20305225524E+03  0.33533673713E+02  0.47990703469E+02  0.21132400065E+03  0.00000000000E+00 0.  1.
         13    1    4    4    0    0 -0.15934099053E+02  0.38850923580E+02  0.14238089417E+02  0.44339744766E+02  0.00000000000E+00 0. -1.
         -1    1    1    2    0  502  0.41323476499E+02  0.15239567006E+03  0.70865479525E+03  0.72603284278E+03  0.00000000000E+00 0.  1.
<scales pt_clust_5="13000.00000" pt_clust_6="13000.00000" pt_clust_7="13000.00000" pt_clust_8="13000.00000" pt_clust_9="157.89892"></scales>
<clustering>
<clus scale="   79.331">  5  6 -1 -1</clus>
<clus scale="   91.088">  7  8 -1 -1</clus>
<clus scale="  157.899">  1  9  2 -1</clus>
<clus scale="  277.316">  2  5  1 -1</clus>
<clus scale="  157.899">  1  5  2 -1</clus>
</clustering>
</event>
<event>
 9    1  0.6270443E-005  0.1130881E+03  0.7546771E-02  0.1258766E+00
         21   -1    0    0  501  502  0.00000000000E+00  0.00000000000E+00  0.11055359509E+03  0.11055359509E+03  0.00000000000E+00 0.  1.
          1   -1    0    0  502    0 -0.00000000000E+00 -0.00000000000E+00 -0.74267216353E+03  0.74267216353E+03  0.00000000000E+00 0. -1.
        -24    2    1    2    0    0 -0.30626069590E+02  0.48969704474E+02 -0.60697892153E+03  0.61622021788E+03  0.89263417154E+02 0.  0.
         23    2    1    2    0    0 -0.40240927144E+02 -0.26105026090E+02  0.58998896248E+02  0.12464799010E+03  0.98769666763E+02 0.  0.
         13    1    3    3    0    0 -0.60704759684E+02  0.19052962638E+02 -0.34226501015E+03  0.34812845389E+03  0.00000000000E+00 0. -1.
        -14    1    3    3    0    0  0.30078690093E+02  0.29916741836E+02 -0.26471391138E+03  0.26809176399E+03  0.00000000000E+00 0.  1.
        -13    1    4    4    0    0 -0.57971911137E+02  0.91644094866E+01  0.61603549917E+02  0.85086580872E+02  0.00000000000E+00 0.  1.
         13    1    4    4    0    0  0.17730983993E+02 -0.35269435577E+02 -0.26046536684E+01  0.39561409227E+02  0.00000000000E+00 0. -1.
          2    1    1    2  501    0  0.70866996735E+02 -0.22864678383E+02 -0.84138543150E+02  0.11235755065E+03  0.00000000000E+00 0. -1.
<scales pt_clust_5="13000.00000" pt_clust_6="13000.00000" pt_clust_7="13000.00000" pt_clust_8="13000.00000" pt_clust_9="74.46429"></scales>
<clustering>
<clus scale="   74.464">  1  9  2 -1</clus>
<clus scale="   89.263">  5  6 -1 -1</clus>
<clus scale="   98.770">  7  8 -1 -1</clus>
<clus scale="  104.888">  2  5  1 -1</clus>
<clus scale="   74.464">  1  5  2 -1</clus>
</clustering>
</event>
<event>
 9    1  0.6270443E-005  0.1106050E+03  0.7546771E-02  0.1261792E+00
         21   -1    0    0  501  502  0.00000000000E+00  0.00000000000E+00  0.19076948130E+03  0.19076948130E+03  0.00000000000E+00 0.  1.
          3   -1    0    0  502    0 -0.00000000000E+00 -0.00000000000E+00 -0.25278786075E+03  0.25278786075E+03  0.00000000000E+00 0. -1.
         23    2    1    2    0    0 -0.49395507122E+02 -0.24222259269E+02 -0.69409296876E+02  0.12724655225E+03  0.91364110016E+02 0.  0.
        -24    2    1    2    0    0  0.11580086032E+03 -0.27373333901E+02  0.11038068615E+03  0.18334963521E+03  0.85288065965E+02 0.  0.
         13    1    4    4    0    0  0.43712688999E+02  0.22382443093E+02  0.99854134096E+01  0.50114682672E+02  0.00000000000E+00 0. -1.
        -14    1    4    4    0    0  0.72088171322E+02 -0.49755776994E+02  0.10039527274E+03  0.13323495254E+03  0.00000000000E+00 0.  1.
        -13    1    3    3    0    0 -0.19458169714E+02 -0.58166364493E+02 -0.37919728670E+02  0.72110000343E+02  0.00000000000E+00 0.  1.
         13    1    3    3    0    0 -0.29937337408E+02  0.33944105224E+02 -0.31489568206E+02  0.55136551909E+02  0.00000000000E+00 0. -1.
          4    1    1    2  501    0 -0.66405353200E+02  0.51595593170E+02 -0.10298976873E+03  0.13296115459E+03  0.00000000000E+00 0. -1.
<scales pt_clust_5="13000.00000" pt_clust_6="13000.00000" pt_clust_7="13000.00000" pt_clust_8="13000.00000" pt_clust_9="84.09390"></scales>
<clustering>
<clus scale="   84.094">  1  9  2 -1</clus>
<clus scale="   85.288">  5  6 -1 -1</clus>
<clus scale="   91.364">  7  8 -1 -1</clus>
<clus scale="  105.641">  1  5  2 -1</clus>
<clus scale="   84.094">  1  5  2 -1</clus>
</clustering>
</event>
<event>
 9    1  0.6270443E-005  0.1058003E+03  0.7546771E-02  0.1272450E+00
          1   -1    0    0  502    0 -0.00000000000E+00  0.00000000000E+00  0.20323558503E+03  0.20323558503E+03  0.00000000000E+00 0. -1.
         21   -1    0    0  501  502  0.00000000000E+00 -0.00000000000E+00 -0.15530875456E+03  0.15530875456E+03  0.00000000000E+00 0. -1.
         23    2    1    2    0    0 -0.19302386835E+02  0.53494287339E+02  0.15973276840E+03  0.19162927406E+03  0.89291659511E+02 0.  0.
        -24    2    1    2    0    0  0.40707571823E+02 -0.44103259027E+02 -0.96310604751E+02  0.13887083783E+03  0.80044819646E+02 0.  0.
         13    1    4    4    0    0  0.33124815512E+02  0.12673358951E+02 -0.13011838717E+02  0.37777974755E+02  0.00000000000E+00 0. -1.
        -14    1    4    4    0    0  0.75827563109E+01 -0.56776617979E+02 -0.83298766034E+02  0.10109286308E+03  0.00000000000E+00 0.  1.
        -13    1    3    3    0    0 -0.71359191161E+01  0.18834407129E+02 -0.66728631950E+01  0.21217524284E+02  0.00000000000E+00 0.  1.
         13    1    3    3    0    0 -0.12166467719E+02  0.34659880210E+02  0.16640563160E+03  0.17041174977E+03  0.00000000000E+00 0. -1.
          2    1    1    2  501    0 -0.21405184987E+02 -0.93910283119E+01 -0.15495333184E+02  0.28044227705E+02  0.00000000000E+00 0. -1.
<scales pt_clust_5="13000.00000" pt_clust_6="13000.00000" pt_clust_7="13000.00000" pt_clust_8="13000.00000" pt_clust_9="23.37463"></scales>
<clustering>
<clus scale="   23.375">  2  9  1 -1</clus>
<clus scale="   80.045">  5  6 -1 -1</clus>
<clus scale="   89.292">  7  8 -1 -1</clus>
<clus scale="   98.122">  2  5  1 -1</clus>
<clus scale="   23.375">  2  5  1 -1</clus>
</clustering>
</event>
<event>
 9    1  0.6270443E-005  0.1604328E+03  0.7546771E-02  0.1190144E+00
          1   -1    0    0  502    0 -0.00000000000E+00  0.00000000000E+00  0.94623113928E+03  0.94623113928E+03  0.00000000000E+00 0. -1.
         21   -1    0    0  501  502  0.00000000000E+00 -0.00000000000E+00 -0.39657143060E+02  0.39657143060E+02  0.00000000000E+00 0.  1.
        -24    2    1    2    0    0  0.27635676933E+01 -0.14224177397E+03  0.56732421136E+03  0.59041849228E+03  0.80603198846E+02 0.  0.
         23    2    1    2    0    0 -0.25496223433E+01  0.10502586625E+03  0.16139285600E+03  0.21376080101E+03  0.92785197753E+02 0.  0.
         11    1    3    3    0    0  0.19051012983E+02 -0.13476798171E+03  0.54527430122E+03  0.56200481631E+03  0.00000000000E+00 0. -1.
        -12    1    3    3    0    0 -0.16287445290E+02 -0.74737922534E+01  0.22049910144E+02  0.28413675969E+02  0.00000000000E+00 0.  1.
        -11    1    4    4    0    0 -0.28974842511E+02 -0.27432857959E+01  0.30354273283E+02  0.42052931194E+02  0.00000000000E+00 0. -1.
         11    1    4    4    0    0  0.26425220168E+02  0.10776915205E+03  0.13103858272E+03  0.17170786981E+03  0.00000000000E+00 0.  1.
          2    1    1    2  501    0 -0.21394535002E+00  0.37215907715E+02  0.17785692885E+03  0.18170898905E+03  0.00000000000E+00 0. -1.
<scales pt_clust_5="13000.00000" pt_clust_6="13000.00000" pt_clust_7="13000.00000" pt_clust_8="13000.00000" pt_clust_9="37.21654"></scales>
<clustering>
<clus scale="   37.217">  2  9  1 -1</clus>
<clus scale="   80.603">  5  6 -1 -1</clus>
<clus scale="   92.785">  7  8 -1 -1</clus>
<clus scale="  153.709">  1  5  2 -1</clus>
<clus scale="   37.217">  2  5  1 -1</clus>
</clustering>
</event>
<event>
 9    1  0.6270443E-005  0.1197013E+03  0.7546771E-02  0.1247411E+00
          1   -1    0    0  502    0 -0.00000000000E+00  0.00000000000E+00  0.14550539861E+03  0.14550539861E+03  0.00000000000E+00 0. -1.
         21   -1    0    0  501  502  0.00000000000E+00 -0.00000000000E+00 -0.14612832025E+03  0.14612832025E+03  0.00000000000E+00 0.  1.
        -24    2    1    2    0    0  0.57024535473E+02 -0.40558613788E+02  0.45530607009E+02  0.11615907310E+03  0.80765681396E+02 0.  0.
         23    2    1    2    0    0 -0.90529813719E+02  0.24271658154E+02 -0.31437788933E+02  0.13541941402E+03  0.92549027866E+02 0.  0.
         13    1    3    3    0    0  0.70696717266E+02 -0.19530442371E+02  0.52415675891E+02  0.90149138047E+02  0.00000000000E+00 0. -1.
        -14    1    3    3    0    0 -0.13672181793E+02 -0.21028171417E+02 -0.68850688821E+01  0.26009935057E+02  0.00000000000E+00 0.  1.
        -13    1    4    4    0    0 -0.10198484365E+03 -0.13540848380E+01 -0.15570355838E+02  0.10317547122E+03  0.00000000000E+00 0.  1.
         13    1    4    4    0    0  0.11455029929E+02  0.25625742992E+02 -0.15867433095E+02  0.32243942804E+02  0.00000000000E+00 0. -1.
          2    1    1    2  501    0  0.33505278246E+02  0.16286955634E+02 -0.14715739716E+02  0.40055231738E+02  0.00000000000E+00 0. -1.
<scales pt_clust_5="13000.00000" pt_clust_6="13000.00000" pt_clust_7="13000.00000" pt_clust_8="13000.00000" pt_clust_9="37.25411"></scales>
<clustering>
<clus scale="   37.254">  2  9  1 -1</clus>
<clus scale="   80.766">  5  6 -1 -1</clus>
<clus scale="   92.549">  7  8 -1 -1</clus>
<clus scale="  110.843">  1  5  2 -1</clus>
<clus scale="   37.254">  2  5  1 -1</clus>
</clustering>
</event>
<event>
 9    1  0.6270443E-005  0.1706284E+03  0.7546771E-02  0.1178699E+00
          1   -1    0    0  502    0 -0.00000000000E+00  0.00000000000E+00  0.41162612069E+03  0.41162612069E+03  0.00000000000E+00 0. -1.
         21   -1    0    0  501  502  0.00000000000E+00 -0.00000000000E+00 -0.24302991937E+03  0.24302991937E+03  0.00000000000E+00 0. -1.
        -24    2    1    2    0    0 -0.60611890504E+02 -0.12691244931E+03  0.22974713687E+03  0.28122738735E+03  0.80774534551E+02 0.  0.
         23    2    1    2    0    0  0.81576311417E+02  0.12674011586E+03  0.10539090504E+03  0.20557240079E+03  0.91842351603E+02 0.  0.
         13    1    3    3    0    0  0.19401308883E+02 -0.15423934141E+02  0.30622934572E+02  0.39396353290E+02  0.00000000000E+00 0. -1.
        -14    1    3    3    0    0 -0.80013199386E+02 -0.11148851517E+03  0.19912420230E+03  0.24183103406E+03  0.00000000000E+00 0.  1.
        -13    1    4    4    0    0  0.51043460663E+01  0.52187198955E+02  0.80235729432E+02  0.95850562654E+02  0.00000000000E+00 0.  1.
         13    1    4    4    0    0  0.76471965351E+02  0.74552916906E+02  0.25155175608E+02  0.10972183813E+03  0.00000000000E+00 0. -1.
          2    1    1    2  501    0 -0.20964420914E+02  0.17233344827E+00 -0.16654184059E+03  0.16785625192E+03  0.00000000000E+00 0. -1.
<scales pt_clust_5="13000.00000" pt_clust_6="13000.00000" pt_clust_7="13000.00000" pt_clust_8="13000.00000" pt_clust_9="20.96513"></scales>
<clustering>
<clus scale="   20.965">  2  9  1 -1</clus>
<clus scale="   80.775">  5  6 -1 -1</clus>
<clus scale="   91.842">  7  8 -1 -1</clus>
<clus scale="  164.935">  1  5  2 -1</clus>
<clus scale="   20.965">  2  5  1 -1</clus>
</clustering>
</event>
<event>
 9    1  0.6270443E-005  0.1007611E+03  0.7546771E-02  0.1285388E+00
          1   -1    0    0  502    0 -0.00000000000E+00  0.00000000000E+00  0.21004848066E+03  0.21004848066E+03  0.00000000000E+00 0. -1.
         21   -1    0    0  501  502  0.00000000000E+00 -0.00000000000E+00 -0.93839838638E+02  0.93839838638E+02  0.00000000000E+00 0.  1.
         23    2    1    2    0    0  0.32567400809E+02  0.14028589484E+02  0.11901106104E+03  0.15450090803E+03  0.91920949814E+02 0.  0.
        -24    2    1    2    0    0 -0.31506314207E+02 -0.59708198827E+02  0.14008417972E+00  0.10360083092E+03  0.78583685973E+02 0.  0.
         13    1    4    4    0    0  0.68095558472E+01 -0.49874296923E+02  0.25685673320E+02  0.56511674531E+02  0.00000000000E+00 0. -1.
        -14    1    4    4    0    0 -0.38315870054E+02 -0.98339019041E+01 -0.25545589140E+02  0.47089156386E+02  0.00000000000E+00 0.  1.
        -13    1    3    3    0    0 -0.31550742874E+02  0.43293860740E+01  0.25981569241E+02  0.41100302918E+02  0.00000000000E+00 0.  1.
         13    1    3    3    0    0  0.64118143683E+02  0.96992034099E+01  0.93029491801E+02  0.11340060512E+03  0.00000000000E+00 0. -1.
          2    1    1    2  501    0 -0.10610866018E+01  0.45679609344E+02 -0.29425032013E+01  0.45786580345E+02  0.00000000000E+00 0. -1.
<scales pt_clust_5="13000.00000" pt_clust_6="13000.00000" pt_clust_7="13000.00000" pt_clust_8="13000.00000" pt_clust_9="45.69193"></scales>
<clustering>
<clus scale="   45.692">  2  9  1 -1</clus>
<clus scale="   78.584">  5  6 -1 -1</clus>
<clus scale="   88.762">  2  5  1 -1</clus>
<clus scale="   91.921">  7  8 -1 -1</clus>
<clus scale="   45.692">  2  5  1 -1</clus>
</clustering>
</event>
<event>
 9    1  0.6270443E-005  0.2010126E+03  0.7546771E-02  0.1150072E+00
          3   -1    0    0  502    0 -0.00000000000E+00  0.00000000000E+00  0.38394522481E+03  0.38394522481E+03  0.00000000000E+00 0. -1.
         21   -1    0    0  501  502  0.00000000000E+00 -0.00000000000E+00 -0.26935802883E+03  0.26935802883E+03  0.00000000000E+00 0.  1.
         23    2    1    2    0    0  0.64536603627E+02 -0.17204828591E+03  0.27960580359E+03  0.34707586143E+03  0.92285764294E+02 0.  0.
        -24    2    1    2    0    0 -0.33890913564E+02  0.15812461242E+03 -0.50861972399E+02  0.18721157660E+03  0.79430769252E+02 0.  0.
         11    1    4    4    0    0 -0.24903043820E+01  0.94576959831E+02  0.81769948283E+01  0.94962446215E+02  0.00000000000E+00 0. -1.
        -12    1    4    4    0    0 -0.31400609182E+02  0.63547652587E+02 -0.59038967227E+02  0.92249130389E+02  0.00000000000E+00 0.  1.
        -11    1    3    3    0    0  0.30619004988E+02 -0.64752548952E+01  0.77715335705E+02  0.83780223180E+02  0.00000000000E+00 0.  1.
         11    1    3    3    0    0  0.33917598638E+02 -0.16557303101E+03  0.20189046789E+03  0.26329563825E+03  0.00000000000E+00 0. -1.
          4    1    1    2  501    0 -0.30645690062E+02  0.13923673488E+02 -0.11415663521E+03  0.11901581561E+03  0.00000000000E+00 0. -1.
<scales pt_clust_5="13000.00000" pt_clust_6="13000.00000" pt_clust_7="13000.00000" pt_clust_8="13000.00000" pt_clust_9="33.66047"></scales>
<clustering>
<clus scale="   33.660">  2  9  1 -1</clus>
<clus scale="   79.431">  5  6 -1 -1</clus>
<clus scale="   92.286">  7  8 -1 -1</clus>
<clus scale="  195.445">  2  5  1 -1</clus>
<clus scale="   33.660">  2  5  1 -1</clus>
</clustering>
</event>
<event>
 9    1  0.6270443E-005  0.2327495E+03  0.7546771E-02  0.1126628E+00
         21   -1    0    0  501  502  0.00000000000E+00  0.00000000000E+00  0.41964891291E+03  0.41964891291E+03  0.00000000000E+00 0. -1.
          3   -1    0    0  502    0 -0.00000000000E+00 -0.00000000000E+00 -0.23128826005E+03  0.23128826005E+03  0.00000000000E+00 0. -1.
         23    2    1    2    0    0  0.18288213853E+03  0.90270406235E+02 -0.10560345953E+03  0.25283495212E+03  0.10572984213E+03 0.  0.
        -24    2    1    2    0    0 -0.20310380537E+03 -0.92021365656E+02  0.29448009346E+03  0.37779833192E+03  0.79334523788E+02 0.  0.
         13    1    4    4    0    0 -0.15478593496E+03 -0.10017357419E+03  0.20451314375E+03  0.27535260412E+03  0.00000000000E+00 0. -1.
        -14    1    4    4    0    0 -0.48317870408E+02  0.81522085362E+01  0.89966949707E+02  0.10244572780E+03  0.00000000000E+00 0.  1.
        -13    1    3    3    0    0  0.30734858989E+02 -0.24357091372E+02 -0.16988669034E+02  0.42737738975E+02  0.00000000000E+00 0.  1.
         13    1    3    3    0    0  0.15214727954E+03  0.11462749761E+03 -0.88614790493E+02  0.21009721315E+03  0.00000000000E+00 0. -1.
          4    1    1    2  501    0  0.20221666841E+02  0.17509594207E+01 -0.51598107465E+00  0.20303888918E+02  0.00000000000E+00 0. -1.
<scales pt_clust_5="13000.00000" pt_clust_6="13000.00000" pt_clust_7="13000.00000" pt_clust_8="13000.00000" pt_clust_9="20.29734"></scales>
<clustering>
<clus scale="   20.297">  1  9  2 -1</clus>
<clus scale="   79.335">  5  6 -1 -1</clus>
<clus scale="  105.730">  7  8 -1 -1</clus>
<clus scale="  222.008">  1  5  2 -1</clus>
<clus scale="   20.297">  1  5  2 -1</clus>
</clustering>
</event>
<event>
 9    1  0.6270443E-005  0.2033579E+03  0.7546771E-02  0.1148176E+00
         21   -1    0    0  501  502  0.00000000000E+00  0.00000000000E+00  0.14370992647E+03  0.14370992647E+03  0.00000000000E+00 0. -1.
          1   -1    0    0  502    0 -0.00000000000E+00 -0.00000000000E+00 -0.47394182211E+03  0.47394182211E+03  0.00000000000E+00 0. -1.
        -24    2    1    2    0    0 -0.12015603366E+03  0.13071150702E+03 -0.18605688078E+03  0.27015921104E+03  0.82739748203E+02 0.  0.
         23    2    1    2    0    0  0.18089294834E+03 -0.73195906098E+02 -0.53157286342E+02  0.22387520841E+03  0.95992251869E+02 0.  0.
         13    1    3    3    0    0 -0.19760652359E+02  0.80133438493E+02 -0.91894804368E+02  0.12351723125E+03  0.00000000000E+00 0. -1.
        -14    1    3    3    0    0 -0.10039538130E+03  0.50578068529E+02 -0.94162076408E+02  0.14664197979E+03  0.00000000000E+00 0.  1.
        -13    1    4    4    0    0  0.50807484951E+02  0.26269439089E+01 -0.52775730258E+02  0.73304700160E+02  0.00000000000E+00 0.  1.
         13    1    4    4    0    0  0.13008546339E+03 -0.75822850006E+02 -0.38155608425E+00  0.15057050825E+03  0.00000000000E+00 0. -1.
          2    1    1    2  501    0 -0.60736914685E+02 -0.57515600924E+02 -0.91017728523E+02  0.12361732913E+03  0.00000000000E+00 0. -1.
<scales pt_clust_5="13000.00000" pt_clust_6="13000.00000" pt_clust_7="13000.00000" pt_clust_8="13000.00000" pt_clust_9="83.64822"></scales>
<clustering>
<clus scale="   82.740">  5  6 -1 -1</clus>
<clus scale="   83.648">  1  9  2 -1</clus>
<clus scale="   95.992">  7  8 -1 -1</clus>
<clus scale="  197.448">  2  5  1 -1</clus>
<clus scale="   83.648">  1  5  2 -1</clus>
</clustering>
</event>
<event>
 9    1  0.6270443E-005  0.9239628E+02  0.7546771E-02  0.1303354E+00
          1   -1    0    0  502    0 -0.00000000000E+00  0.00000000000E+00  0.16754159683E+03  0.16754159683E+03  0.00000000000E+00 0. -1.
         21   -1    0    0  501  502  0.00000000000E+00 -0.00000000000E+00 -0.10626860879E+03  0.10626860879E+03  0.00000000000E+00 0.  1.
        -24    2    1    2    0    0 -0.11509347924E+02  0.25265269651E+02  0.11527373140E+03  0.14243478326E+03  0.78922971263E+02 0.  0.
         23    2    1    2    0    0 -0.11543627257E+00 -0.49113789720E+00 -0.53311981558E+02  0.10400084282E+03  0.89295875538E+02 0.  0.
         13    1    3    3    0    0  0.67808640658E+01 -0.20767618928E+02  0.63081571351E+01  0.22739106400E+02  0.00000000000E+00 0. -1.
        -14    1    3    3    0    0 -0.18290211990E+02  0.46032888579E+02  0.10896557426E+03  0.11969567686E+03  0.00000000000E+00 0.  1.
        -13    1    4    4    0    0  0.21807997481E+02 -0.85034922029E+01 -0.70971275438E+02  0.74731653742E+02  0.00000000000E+00 0.  1.
         13    1    4    4    0    0 -0.21923433753E+02  0.80123543057E+01  0.17659293880E+02  0.29269189080E+02  0.00000000000E+00 0. -1.
          2    1    1    2  501    0  0.11624784197E+02 -0.24774131754E+02 -0.68876180191E+00  0.27374579533E+02  0.00000000000E+00 0. -1.
<scales pt_clust_5="13000.00000" pt_clust_6="13000.00000" pt_clust_7="13000.00000" pt_clust_8="13000.00000" pt_clust_9="27.36591"></scales>
<clustering>
<clus scale="   27.366">  2  9  1 -1</clus>
<clus scale="   78.923">  5  6 -1 -1</clus>
<clus scale="   82.415">  1  5  2 -1</clus>
<clus scale="   89.296">  7  8 -1 -1</clus>
<clus scale="   27.366">  2  5  1 -1</clus>
</clustering>
</event>
<event>
 9    1  0.6270443E-005  0.1677777E+03  0.7546771E-02  0.1181831E+00
          1   -1    0    0  502    0 -0.00000000000E+00  0.00000000000E+00  0.18363366626E+03  0.18363366626E+03  0.00000000000E+00 0. -1.
         21   -1    0    0  501  502  0.00000000000E+00 -0.00000000000E+00 -0.71270529065E+03  0.71270529065E+03  0.00000000000E+00 0. -1.
        -24    2    1    2    0    0 -0.96778057193E+02  0.10391892138E+03  0.70711356921E+02  0.17811363790E+03  0.80989119223E+02 0.  0.
         23    2    1    2    0    0  0.29889321189E+02 -0.14764293392E+03 -0.83010316821E+02  0.19531052764E+03  0.92540164532E+02 0.  0.
         11    1    3    3    0    0 -0.87081308377E+02  0.38274904475E+02  0.27836568634E+02  0.99111034373E+02  0.00000000000E+00 0. -1.
        -12    1    3    3    0    0 -0.96967488162E+01  0.65644016902E+02  0.42874788287E+02  0.79002603523E+02  0.00000000000E+00 0.  1.
        -11    1    4    4    0    0  0.58417751544E+02 -0.58540938491E+02 -0.46521874754E+02  0.94889198571E+02  0.00000000000E+00 0.  1.
         11    1    4    4    0    0 -0.28528430356E+02 -0.89101995427E+02 -0.36488442067E+02  0.10042132907E+03  0.00000000000E+00 0. -1.
          2    1    1    2  501    0  0.66888736004E+02  0.43724012541E+02 -0.51677266449E+03  0.52291479138E+03  0.00000000000E+00 0. -1.
<scales pt_clust_5="13000.00000" pt_clust_6="13000.00000" pt_clust_7="13000.00000" pt_clust_8="13000.00000" pt_clust_9="79.91178"></scales>
<clustering>
<clus scale="   79.912">  2  9  1 -1</clus>
<clus scale="   80.989">  5  6 -1 -1</clus>
<clus scale="   92.540">  7  8 -1 -1</clus>
<clus scale="  161.694">  1  5  2 -1</clus>
<clus scale="   79.912">  2  5  1 -1</clus>
</clustering>
</event>
<event>
 9    1  0.6270443E-005  0.1022285E+03  0.7546771E-02  0.1283374E+00
          1   -1    0    0  502    0 -0.00000000000E+00  0.00000000000E+00  0.12104208071E+04  0.12104208071E+04  0.00000000000E+00 0. -1.
         21   -1    0    0  501  502  0.00000000000E+00 -0.00000000000E+00 -0.17917307500E+02  0.17917307500E+02  0.00000000000E+00 0. -1.
        -24    2    1    2    0    0 -0.22387447529E+02 -0.51195190142E+00  0.34669900600E+03  0.35688233713E+03  0.81629295552E+02 0.  0.
         23    2    1    2    0    0 -0.11979835193E+02 -0.75724211212E+02  0.57354609918E+03  0.58664409228E+03  0.96532328826E+02 0.  0.
         11    1    3    3    0    0  0.11916030873E+02 -0.19850909971E+02  0.30765564883E+02  0.38504160827E+02  0.00000000000E+00 0. -1.
        -12    1    3    3    0    0 -0.34303478402E+02  0.19338958070E+02  0.31593344111E+03  0.31837817630E+03  0.00000000000E+00 0.  1.
        -13    1    4    4    0    0 -0.26994427359E+02  0.14920179550E+02  0.16946009735E+03  0.17224411590E+03  0.00000000000E+00 0.  1.
         13    1    4    4    0    0  0.15014592166E+02 -0.90644390762E+02  0.40408600182E+03  0.41439997638E+03  0.00000000000E+00 0. -1.
          2    1    1    2  501    0  0.34367282722E+02  0.76236163113E+02  0.27225839444E+03  0.28481168521E+03  0.00000000000E+00 0. -1.
<scales pt_clust_5="13000.00000" pt_clust_6="13000.00000" pt_clust_7="13000.00000" pt_clust_8="13000.00000" pt_clust_9="83.62453"></scales>
<clustering>
<clus scale="   81.629">  5  6 -1 -1</clus>
<clus scale="   83.625">  2  9  1 -1</clus>
<clus scale="   88.292">  1  5  2 -1</clus>
<clus scale="   96.532">  7  8 -1 -1</clus>
<clus scale="   83.625">  2  5  1 -1</clus>
</clustering>
</event>
<event>
 9    1  0.6270443E-005  0.1003939E+03  0.7546771E-02  0.1280498E+00
         21   -1    0    0  501  502  0.00000000000E+00  0.00000000000E+00  0.21479832032E+03  0.21479832032E+03  0.00000000000E+00 0.  1.
         -4   -1    0    0    0  501 -0.00000000000E+00 -0.00000000000E+00 -0.21851908141E+03  0.21851908141E+03  0.00000000000E+00 0.  1.
        -24    2    1    2    0    0  0.41624871110E+02 -0.23364394090E+02 -0.10134038582E+03  0.13684218520E+03  0.78596342440E+02 0.  0.
         23    2    1    2    0    0 -0.98446392723E+02 -0.12468987773E+02 -0.47445791320E+02  0.13661061286E+03  0.81019679924E+02 0.  0.
         13    1    3    3    0    0  0.31802697681E+02  0.14489353411E+02 -0.83042854799E+01  0.35920942351E+02  0.00000000000E+00 0. -1.
        -14    1    3    3    0    0  0.98221734292E+01 -0.37853747501E+02 -0.93036100344E+02  0.10092124285E+03  0.00000000000E+00 0.  1.
        -13    1    4    4    0    0 -0.32566441659E+02 -0.43972771742E+02 -0.25426141079E+02  0.60337935224E+02  0.00000000000E+00 0.  1.
         13    1    4    4    0    0 -0.65879951065E+02  0.31503783969E+02 -0.22019650241E+02  0.76272677633E+02  0.00000000000E+00 0. -1.
         -3    1    1    2    0  502  0.56821521613E+02  0.35833381863E+02  0.14506541605E+03  0.15986460367E+03  0.00000000000E+00 0.  1.
<scales pt_clust_5="13000.00000" pt_clust_6="13000.00000" pt_clust_7="13000.00000" pt_clust_8="13000.00000" pt_clust_9="67.17676"></scales>
<clustering>
<clus scale="   67.177">  1  9  2 -1</clus>
<clus scale="   78.596">  5  6 -1 -1</clus>
<clus scale="   81.020">  7  8 -1 -1</clus>
<clus scale="   98.449">  2  5  1 -1</clus>
<clus scale="   67.177">  1  5  2 -1</clus>
</clustering>
</event>
<event>
 9    1  0.6270443E-005  0.1487011E+03  0.7546771E-02  0.1222638E+00
         21   -1    0    0  501  502  0.00000000000E+00  0.00000000000E+00  0.27952057528E+03  0.27952057528E+03  0.00000000000E+00 0. -1.
         -4   -1    0    0    0  501 -0.00000000000E+00 -0.00000000000E+00 -0.28182284963E+03  0.28182284963E+03  0.00000000000E+00 0.  1.
         23    2    1    2    0    0 -0.37719364482E+01  0.54582381241E+01 -0.19298288614E+03  0.21555403698E+03  0.95797331104E+02 0.  0.
        -24    2    1    2    0    0  0.27318474664E+02 -0.12591908975E+03  0.52801372360E+02  0.16119268996E+03  0.81198412236E+02 0.  0.
         13    1    4    4    0    0  0.56202851060E+02 -0.89573920682E+02  0.33629520278E+02  0.11096482491E+03  0.00000000000E+00 0. -1.
        -14    1    4    4    0    0 -0.28884376396E+02 -0.36345169073E+02  0.19171852082E+02  0.50227865045E+02  0.00000000000E+00 0.  1.
        -11    1    3    3    0    0  0.21719607407E+02  0.32228334409E+02 -0.31886162880E+02  0.50270610379E+02  0.00000000000E+00 0.  1.
         11    1    3    3    0    0 -0.25491543855E+02 -0.26770096285E+02 -0.16109672326E+03  0.16528342660E+03  0.00000000000E+00 0. -1.
         -3    1    1    2    0  502 -0.23546538216E+02  0.12046085163E+03  0.13787923943E+03  0.18459669798E+03  0.00000000000E+00 0.  1.
<scales pt_clust_5="13000.00000" pt_clust_6="13000.00000" pt_clust_7="13000.00000" pt_clust_8="13000.00000" pt_clust_9="124.57456"></scales>
<clustering>
<clus scale="   81.198">  5  6 -1 -1</clus>
<clus scale="   95.797">  7  8 -1 -1</clus>
<clus scale="   96.027">  2  7  1 -1</clus>
<clus scale="  124.575">  1  9  2 -1</clus>
<clus scale="  124.575">  1  5  2 -1</clus>
</clustering>
</event>
<event>
 9    1  0.6270443E-005  0.1212124E+03  0.7546771E-02  0.1243029E+00
          1   -1    0    0  502    0 -0.00000000000E+00  0.00000000000E+00  0.13040350292E+03  0.13040350292E+03  0.00000000000E+00 0. -1.
         21   -1    0    0  501  502  0.00000000000E+00 -0.00000000000E+00 -0.19544228315E+03  0.19544228315E+03  0.00000000000E+00 0. -1.
        -24    2    1    2    0    0 -0.85187441934E+02 -0.37794496227E+02  0.39236413596E+02  0.13198120443E+03  0.84818735910E+02 0.  0.
         23    2    1    2    0    0  0.55541747028E+02 -0.81677494318E+01 -0.82093789059E+02  0.13484416171E+03  0.91060199600E+02 0.  0.
         11    1    3    3    0    0 -0.84373062362E+02 -0.21569160323E+02  0.59898621846E+02  0.10569714863E+03  0.00000000000E+00 0. -1.
        -12    1    3    3    0    0 -0.81437957188E+00 -0.16225335903E+02 -0.20662208251E+02  0.26284055795E+02  0.00000000000E+00 0.  1.
        -11    1    4    4    0    0  0.80068334093E+02 -0.18247404528E+01 -0.51922056099E+02  0.95447198554E+02  0.00000000000E+00 0. -1.
         11    1    4    4    0    0 -0.24526587066E+02 -0.63430089790E+01 -0.30171732960E+02  0.39396963155E+02  0.00000000000E+00 0.  1.
          2    1    1    2  501    0  0.29645694907E+02  0.45962245658E+02 -0.22181404765E+02  0.59020419939E+02  0.00000000000E+00 0. -1.
<scales pt_clust_5="13000.00000" pt_clust_6="13000.00000" pt_clust_7="13000.00000" pt_clust_8="13000.00000" pt_clust_9="54.69365"></scales>
<clustering>
<clus scale="   54.694">  2  9  1 -1</clus>
<clus scale="   84.819">  5  6 -1 -1</clus>
<clus scale="   91.060">  7  8 -1 -1</clus>
<clus scale="  116.596">  1  5  2 -1</clus>
<clus scale="   54.694">  2  5  1 -1</clus>
</clustering>
</event>
<event>
 9    1  0.6270443E-005  0.1310868E+03  0.7546771E-02  0.1228934E+00
          1   -1    0    0  502    0 -0.00000000000E+00  0.00000000000E+00  0.25912274016E+03  0.25912274016E+03  0.00000000000E+00 0. -1.
         21   -1    0    0  501  502  0.00000000000E+00 -0.00000000000E+00 -0.97786149310E+02  0.97786149310E+02  0.00000000000E+00 0. -1.
        -24    2    1    2    0    0 -0.81191061967E+02 -0.23275091231E+02  0.50393553916E+02  0.12645471529E+03  0.79483119763E+02 0.  0.
         23    2    1    2    0    0  0.78595657335E+02  0.79718589691E+02  0.69904171613E+02  0.16062013441E+03  0.91541812718E+02 0.  0.
         13    1    3    3    0    0 -0.94688729974E+02 -0.14157353590E+02  0.29951970218E+02  0.10031703128E+03  0.00000000000E+00 0. -1.
        -14    1    3    3    0    0  0.13497668006E+02 -0.91177376405E+01  0.20441583698E+02  0.26137684009E+02  0.00000000000E+00 0.  1.
        -13    1    4    4    0    0 -0.13130364540E+02  0.38980003536E+02  0.58244546103E+01  0.41542405084E+02  0.00000000000E+00 0.  1.
         13    1    4    4    0    0  0.91726021876E+02  0.40738586155E+02  0.64079717003E+02  0.11907772933E+03  0.00000000000E+00 0. -1.
          2    1    1    2  501    0  0.25954046319E+01 -0.56443498461E+02  0.41038865323E+02  0.69834039771E+02  0.00000000000E+00 0. -1.
<scales pt_clust_5="13000.00000" pt_clust_6="13000.00000" pt_clust_7="13000.00000" pt_clust_8="13000.00000" pt_clust_9="56.50317"></scales>
<clustering>
<clus scale="   56.503">  2  9  1 -1</clus>
<clus scale="   79.483">  5  6 -1 -1</clus>
<clus scale="   91.542">  7  8 -1 -1</clus>
<clus scale="  122.969">  1  5  2 -1</clus>
<clus scale="   56.503">  2  5  1 -1</clus>
</clustering>
</event>
<event>
 9    1  0.6270443E-005  0.1545358E+03  0.7546771E-02  0.1221871E+00
          1   -1    0    0  502    0 -0.00000000000E+00  0.00000000000E+00  0.10998822148E+04  0.10998822148E+04  0.00000000000E+00 0. -1.
         21   -1    0    0  501  502  0.00000000000E+00 -0.00000000000E+00 -0.32966620773E+02  0.32966620773E+02  0.00000000000E+00 0. -1.
        -24    2    1    2    0    0  0.28671050512E+02 -0.28010596858E+02  0.15088448886E+03  0.17413970531E+03  0.77148462793E+02 0.  0.
         23    2    1    2    0    0 -0.95028517138E+02  0.11230202522E+03  0.49508594218E+03  0.52430932765E+03  0.90266366810E+02 0.  0.
         11    1    3    3    0    0  0.30896251813E+02 -0.98165195189E+01  0.12815643996E+02  0.34859477371E+02  0.00000000000E+00 0. -1.
        -12    1    3    3    0    0 -0.22252013011E+01 -0.18194077339E+02  0.13806884487E+03  0.13928022794E+03  0.00000000000E+00 0.  1.
        -11    1    4    4    0    0 -0.99768490923E+02  0.57585284065E+02  0.37425366357E+03  0.39158092576E+03  0.00000000000E+00 0. -1.
         11    1    4    4    0    0  0.47399737847E+01  0.54716741159E+02  0.12083227861E+03  0.13272840189E+03  0.00000000000E+00 0.  1.
          2    1    1    2  501    0  0.66357466626E+02 -0.84291428366E+02  0.42094516297E+03  0.43439980260E+03  0.00000000000E+00 0. -1.
<scales pt_clust_5="13000.00000" pt_clust_6="13000.00000" pt_clust_7="13000.00000" pt_clust_8="13000.00000" pt_clust_9="125.43251"></scales>
<clustering>
<clus scale="   77.148">  5  6 -1 -1</clus>
<clus scale="   86.940">  1  5  2 -1</clus>
<clus scale="   90.266">  7  8 -1 -1</clus>
<clus scale="  125.433">  2  9  1 -1</clus>
<clus scale="  125.433">  2  5  1 -1</clus>
</clustering>
</event>
<event>
 9    1  0.6270443E-005  0.3411636E+03  0.7546771E-02  0.1066633E+00
         21   -1    0    0  501  502  0.00000000000E+00  0.00000000000E+00  0.37547855878E+03  0.37547855878E+03  0.00000000000E+00 0.  1.
          1   -1    0    0  502    0 -0.00000000000E+00 -0.00000000000E+00 -0.40261015574E+03  0.40261015574E+03  0.00000000000E+00 0. -1.
         23    2    1    2    0    0  0.33531307997E+03 -0.12258824432E+02 -0.17105433486E+03  0.38842782948E+03  0.95033956356E+02 0.  0.
        -24    2    1    2    0    0 -0.31130545044E+03  0.20110620522E+02  0.98249006669E+02  0.33746790944E+03  0.83163706362E+02 0.  0.
         13    1    4    4    0    0 -0.15114943647E+03 -0.99667862756E+00  0.89560375171E+02  0.17569350106E+03  0.00000000000E+00 0. -1.
        -14    1    4    4    0    0 -0.16015601398E+03  0.21107299150E+02  0.86886314984E+01  0.16177440838E+03  0.00000000000E+00 0.  1.
        -11    1    3    3    0    0  0.29815192694E+03  0.13368143759E+02 -0.12389411263E+03  0.32314552442E+03  0.00000000000E+00 0. -1.
         11    1    3    3    0    0  0.37161153034E+02 -0.25626968191E+02 -0.47160222229E+02  0.65282305061E+02  0.00000000000E+00 0.  1.
          2    1    1    2  501    0 -0.24007629531E+02 -0.78517960901E+01  0.45673731233E+02  0.52192975602E+02  0.00000000000E+00 0. -1.
<scales pt_clust_5="13000.00000" pt_clust_6="13000.00000" pt_clust_7="13000.00000" pt_clust_8="13000.00000" pt_clust_9="25.25900"></scales>
<clustering>
<clus scale="   25.259">  1  9  2 -1</clus>
<clus scale="   83.164">  5  6 -1 -1</clus>
<clus scale="   95.034">  7  8 -1 -1</clus>
<clus scale="  338.049">  1  5  2 -1</clus>
<clus scale="   25.259">  1  5  2 -1</clus>
</clustering>
</event>
<event>
 9    1  0.6270443E-005  0.1102115E+03  0.7546771E-02  0.1264769E+00
         -4   -1    0    0    0  501 -0.00000000000E+00  0.00000000000E+00  0.21097419060E+03  0.21097419060E+03  0.00000000000E+00 0.  1.
         21   -1    0    0  501  502  0.00000000000E+00 -0.00000000000E+00 -0.89998807776E+02  0.89998807776E+02  0.00000000000E+00 0.  1.
         23    2    1    2    0    0 -0.69909258190E+02  0.27840705473E+01  0.13442169549E+03  0.17712075482E+03  0.91692497732E+02 0.  0.
        -24    2    1    2    0    0  0.42461615701E+02 -0.93571451501E+01  0.30602483975E+01  0.91155990772E+02  0.80059381462E+02 0.  0.
         13    1    4    4    0    0  0.65975458463E+02 -0.25770078006E+01 -0.24509627168E+01  0.66071244175E+02  0.00000000000E+00 0. -1.
        -14    1    4    4    0    0 -0.23513842762E+02 -0.67801373496E+01  0.55112111143E+01  0.25084746597E+02  0.00000000000E+00 0.  1.
        -13    1    3    3    0    0 -0.20124626548E+01  0.37037260841E+02  0.61135053800E+02  0.71507366751E+02  0.00000000000E+00 0.  1.
         13    1    3    3    0    0 -0.67896795535E+02 -0.34253190294E+02  0.73286641691E+02  0.10561338807E+03  0.00000000000E+00 0. -1.
         -3    1    1    2    0  502  0.27447642489E+02  0.65730746029E+01 -0.16506561063E+02  0.32696252783E+02  0.00000000000E+00 0.  1.
<scales pt_clust_5="13000.00000" pt_clust_6="13000.00000" pt_clust_7="13000.00000" pt_clust_8="13000.00000" pt_clust_9="28.22372"></scales>
<clustering>
<clus scale="   28.224">  2  9  1 -1</clus>
<clus scale="   80.059">  5  6 -1 -1</clus>
<clus scale="   91.692">  7  8 -1 -1</clus>
<clus scale="  100.740">  2  5  1 -1</clus>
<clus scale="   28.224">  2  5  1 -1</clus>
</clustering>
</event>
<event>
 9    1  0.6270443E-005  0.3809642E+03  0.7546771E-02  0.1050698E+00
         21   -1    0    0  501  502  0.00000000000E+00  0.00000000000E+00  0.26776257885E+03  0.26776257885E+03  0.00000000000E+00 0.  1.
          1   -1    0    0  502    0 -0.00000000000E+00 -0.00000000000E+00 -0.85363305353E+03  0.85363305353E+03  0.00000000000E+00 0. -1.
         23    2    1    2    0    0 -0.96974389645E+02  0.40008581665E+03 -0.29293997987E+03  0.51284961770E+03  0.87910213513E+02 0.  0.
        -24    2    1    2    0    0 -0.53952681988E+02 -0.33517396190E+03 -0.11825002529E+03  0.36874235276E+03  0.82069346341E+02 0.  0.
         11    1    4    4    0    0 -0.27462148950E+02 -0.17931919733E+03 -0.19760958483E+02  0.18248298451E+03  0.00000000000E+00 0. -1.
        -12    1    4    4    0    0 -0.26490533038E+02 -0.15585476457E+03 -0.98489066809E+02  0.18625936825E+03  0.00000000000E+00 0.  1.
        -13    1    3    3    0    0 -0.83421037840E+02  0.37464556313E+03 -0.24031202523E+03  0.45284460580E+03  0.00000000000E+00 0.  1.
         13    1    3    3    0    0 -0.13553351805E+02  0.25440253517E+02 -0.52627954641E+02  0.60005011906E+02  0.00000000000E+00 0. -1.
          2    1    1    2  501    0  0.15092707163E+03 -0.64911854752E+02 -0.17468046951E+03  0.23980366191E+03  0.00000000000E+00 0. -1.
<scales pt_clust_5="13000.00000" pt_clust_6="13000.00000" pt_clust_7="13000.00000" pt_clust_8="13000.00000" pt_clust_9="164.29412"></scales>
<clustering>
<clus scale="   82.069">  5  6 -1 -1</clus>
<clus scale="   87.910">  7  8 -1 -1</clus>
<clus scale="  164.294">  1  9  2 -1</clus>
<clus scale="  379.659">  1  5  2 -1</clus>
<clus scale="  164.294">  1  5  2 -1</clus>
</clustering>
</event>
<event>
 9    1  0.6270443E-005  0.1608233E+03  0.7546771E-02  0.1188410E+00
         21   -1    0    0  501  502  0.00000000000E+00  0.00000000000E+00  0.12485874114E+04  0.12485874114E+04  0.00000000000E+00 0. -1.
          1   -1    0    0  502    0 -0.00000000000E+00 -0.00000000000E+00 -0.31062617983E+02  0.31062617983E+02  0.00000000000E+00 0. -1.
        -24    2    1    2    0    0  0.10999760223E+03 -0.10199385833E+03  0.50358491357E+03  0.53126016434E+03  0.78341415642E+02 0.  0.
         23    2    1    2    0    0 -0.13168572927E+03  0.40081479487E+02  0.55267807436E+03  0.57429538662E+03  0.73583156525E+02 0.  0.
         11    1    3    3    0    0  0.49369246310E+02 -0.77178705208E+02  0.19038726412E+03  0.21128460748E+03  0.00000000000E+00 0. -1.
        -12    1    3    3    0    0  0.60628355923E+02 -0.24815153119E+02  0.31319764945E+03  0.31997555686E+03  0.00000000000E+00 0.  1.
        -13    1    4    4    0    0 -0.91049893877E+02  0.29544945068E+02  0.48720786191E+03  0.49652239391E+03  0.00000000000E+00 0. -1.
         13    1    4    4    0    0 -0.40635835397E+02  0.10536534420E+02  0.65470212449E+02  0.77772992704E+02  0.00000000000E+00 0.  1.
          2    1    1    2  501    0  0.21688127041E+02  0.61912378840E+02  0.16126180548E+03  0.17409447841E+03  0.00000000000E+00 0. -1.
<scales pt_clust_5="13000.00000" pt_clust_6="13000.00000" pt_clust_7="13000.00000" pt_clust_8="13000.00000" pt_clust_9="65.60123"></scales>
<clustering>
<clus scale="   65.601">  1  9  2 -1</clus>
<clus scale="   73.583">  7  8 -1 -1</clus>
<clus scale="   78.341">  5  6 -1 -1</clus>
<clus scale="  158.560">  1  7  2 -1</clus>
<clus scale="   65.601">  1  5  2 -1</clus>
</clustering>
</event>
<event>
 9    1  0.6270443E-005  0.1046579E+03  0.7546771E-02  0.1274664E+00
          1   -1    0    0  502    0 -0.00000000000E+00  0.00000000000E+00  0.12893433204E+03  0.12893433204E+03  0.00000000000E+00 0. -1.
         21   -1    0    0  501  502  0.00000000000E+00 -0.00000000000E+00 -0.21001360773E+03  0.21001360773E+03  0.00000000000E+00 0.  1.
         23    2    1    2    0    0  0.41202038687E+02 -0.39671798248E+02  0.57843111691E+02  0.12139581476E+03  0.90109148828E+02 0.  0.
        -24    2    1    2    0    0 -0.37442602409E+02  0.66453855683E+01 -0.15616758830E+03  0.18010517252E+03  0.81261601696E+02 0.  0.
         11    1    4    4    0    0 -0.60837603079E+01 -0.22902088429E+02 -0.68077451608E+01  0.24654881628E+02  0.00000000000E+00 0. -1.
        -12    1    4    4    0    0 -0.31358842101E+02  0.29547473997E+02 -0.14935984314E+03  0.15545029090E+03  0.00000000000E+00 0.  1.
        -11    1    3    3    0    0  0.58648234239E+02 -0.53558114023E+02  0.59196031408E+02  0.99056837682E+02  0.00000000000E+00 0.  1.
         11    1    3    3    0    0 -0.17446195552E+02  0.13886315775E+02 -0.13529197177E+01  0.22338977076E+02  0.00000000000E+00 0. -1.
          2    1    1    2  501    0 -0.37594362781E+01  0.33026412680E+02  0.17245200920E+02  0.37446952485E+02  0.00000000000E+00 0. -1.
<scales pt_clust_5="13000.00000" pt_clust_6="13000.00000" pt_clust_7="13000.00000" pt_clust_8="13000.00000" pt_clust_9="33.23971"></scales>
<clustering>
<clus scale="   33.240">  2  9  1 -1</clus>
<clus scale="   81.262">  5  6 -1 -1</clus>
<clus scale="   90.109">  7  8 -1 -1</clus>
<clus scale="   97.145">  2  5  1 -1</clus>
<clus scale="   33.240">  2  5  1 -1</clus>
</clustering>
</event>
<event>
 9    1  0.6270443E-005  0.1111363E+03  0.7546771E-02  0.1271223E+00
         21   -1    0    0  501  502  0.00000000000E+00  0.00000000000E+00  0.14712445757E+03  0.14712445757E+03  0.00000000000E+00 0.  1.
          1   -1    0    0  502    0 -0.00000000000E+00 -0.00000000000E+00 -0.30653468592E+03  0.30653468592E+03  0.00000000000E+00 0. -1.
        -24    2    1    2    0    0 -0.29158852874E+02  0.16534116315E+02 -0.15471125145E+03  0.17734002907E+03  0.79939345023E+02 0.  0.
         23    2    1    2    0    0 -0.44251699335E+02  0.45000961057E+02  0.90958974542E+02  0.14094511915E+03  0.87227817650E+02 0.  0.
         13    1    3    3    0    0 -0.47945212608E+02  0.19050788370E+02 -0.14879290713E+03  0.15748334884E+03  0.00000000000E+00 0. -1.
        -14    1    3    3    0    0  0.18786359735E+02 -0.25166720549E+01 -0.59183443182E+01  0.19856680231E+02  0.00000000000E+00 0.  1.
        -11    1    4    4    0    0 -0.79555355440E+01  0.20408543135E+02  0.94456422125E+02  0.96962956118E+02  0.00000000000E+00 0.  1.
         11    1    4    4    0    0 -0.36296163791E+02  0.24592417922E+02 -0.34974475826E+01  0.43982163030E+02  0.00000000000E+00 0. -1.
          2    1    1    2  501    0  0.73410552208E+02 -0.61535077372E+02 -0.95657951437E+02  0.13537399527E+03  0.00000000000E+00 0. -1.
<scales pt_clust_5="13000.00000" pt_clust_6="13000.00000" pt_clust_7="13000.00000" pt_clust_8="13000.00000" pt_clust_9="68.86644"></scales>
<clustering>
<clus scale="   79.939">  5  6 -1 -1</clus>
<clus scale="   86.683">  2  5  1 -1</clus>
<clus scale="   68.866">  1  9  2 -1</clus>
<clus scale="   87.228">  7  8 -1 -1</clus>
<clus scale="   68.866">  1  5  2 -1</clus>
</clustering>
</event>
<event>
 9    1  0.6270443E-005  0.1677798E+03  0.7546771E-02  0.1202328E+00
         21   -1    0    0  501  502  0.00000000000E+00  0.00000000000E+00  0.99982566759E+03  0.99982566759E+03  0.00000000000E+00 0.  1.
         -2   -1    0    0    0  501 -0.00000000000E+00 -0.00000000000E+00 -0.52729220389E+02  0.52729220389E+02  0.00000000000E+00 0.  1.
         23    2    1    2    0    0  0.44337354028E+02 -0.15080980509E+02  0.44112891979E+03  0.45298635075E+03  0.91698817629E+02 0.  0.
        -24    2    1    2    0    0  0.11373461817E+03 -0.55478365713E+02  0.20190655805E+03  0.24968506689E+03  0.74585266697E+02 0.  0.
         13    1    4    4    0    0  0.55586128169E+02  0.12510487763E+02  0.88204524161E+02  0.10500651423E+03  0.00000000000E+00 0. -1.
        -14    1    4    4    0    0  0.58148489999E+02 -0.67988853476E+02  0.11370203389E+03  0.14467855265E+03  0.00000000000E+00 0.  1.
        -11    1    3    3    0    0  0.69732836174E+02  0.41062924467E+01  0.33412677216E+03  0.34135059683E+03  0.00000000000E+00 0.  1.
         11    1    3    3    0    0 -0.25395482145E+02 -0.19187272956E+02  0.10700214763E+03  0.11163575393E+03  0.00000000000E+00 0. -1.
         -1    1    1    2    0  502 -0.15807197220E+03  0.70559346222E+02  0.30406096935E+03  0.34988347034E+03  0.00000000000E+00 0.  1.
<scales pt_clust_5="13000.00000" pt_clust_6="13000.00000" pt_clust_7="13000.00000" pt_clust_8="13000.00000" pt_clust_9="150.29013"></scales>
<clustering>
<clus scale="   74.585">  5  6 -1 -1</clus>
<clus scale="   91.699">  7  8 -1 -1</clus>
<clus scale="  102.966">  2  7  1 -1</clus>
<clus scale="  150.290">  1  9  2 -1</clus>
<clus scale="  150.290">  1  5  2 -1</clus>
</clustering>
</event>
<event>
 9    1  0.6270443E-005  0.1108375E+03  0.7546771E-02  0.1262110E+00
          3   -1    0    0  502    0 -0.00000000000E+00  0.00000000000E+00  0.72416196976E+02  0.72416196976E+02  0.00000000000E+00 0. -1.
         21   -1    0    0  501  502  0.00000000000E+00 -0.00000000000E+00 -0.51070507730E+03  0.51070507730E+03  0.00000000000E+00 0. -1.
         23    2    1    2    0    0  0.58047318443E+02  0.41761292056E+02  0.63439489876E+01  0.11466939583E+03  0.89416597780E+02 0.  0.
        -24    2    1    2    0    0 -0.88453774264E+01 -0.48597736899E+02 -0.24660103796E+03  0.26428489198E+03  0.81206228036E+02 0.  0.
         11    1    4    4    0    0 -0.19933813254E+02  0.17249048261E+02 -0.95819491968E+02  0.99379382256E+02  0.00000000000E+00 0. -1.
        -12    1    4    4    0    0  0.11088435828E+02 -0.65846785160E+02 -0.15078154600E+03  0.16490550973E+03  0.00000000000E+00 0.  1.
        -11    1    3    3    0    0  0.89706935466E+01 -0.27734671564E+02  0.50393532793E+01  0.29581758415E+02  0.00000000000E+00 0.  1.
         11    1    3    3    0    0  0.49076624896E+02  0.69495963620E+02  0.13045957082E+01  0.85087637414E+02  0.00000000000E+00 0. -1.
          4    1    1    2  501    0 -0.49201941016E+02  0.68364448430E+01 -0.19803179135E+03  0.20416698647E+03  0.00000000000E+00 0. -1.
<scales pt_clust_5="13000.00000" pt_clust_6="13000.00000" pt_clust_7="13000.00000" pt_clust_8="13000.00000" pt_clust_9="49.67462"></scales>
<clustering>
<clus scale="   49.675">  2  9  1 -1</clus>
<clus scale="   81.206">  5  6 -1 -1</clus>
<clus scale="   89.417">  7  8 -1 -1</clus>
<clus scale="  104.327">  2  5  1 -1</clus>
<clus scale="   49.675">  2  5  1 -1</clus>
</clustering>
</event>
<event>
 9    1  0.6270443E-005  0.1146626E+03  0.7546771E-02  0.1255240E+00
         21   -1    0    0  501  502  0.00000000000E+00  0.00000000000E+00  0.18729242494E+03  0.18729242494E+03  0.00000000000E+00 0.  1.
          1   -1    0    0  502    0 -0.00000000000E+00 -0.00000000000E+00 -0.39939371655E+03  0.39939371655E+03  0.00000000000E+00 0. -1.
         23    2    1    2    0    0  0.61069573920E+02  0.24845220660E+02 -0.32529653418E+03  0.34420670857E+03  0.91179192946E+02 0.  0.
        -24    2    1    2    0    0 -0.11644714171E+03  0.66582258285E+01  0.46488388018E+02  0.15023548136E+03  0.82494004966E+02 0.  0.
         13    1    4    4    0    0  0.10800859795E+01  0.24006508383E+02  0.89877121892E+01  0.25656539144E+02  0.00000000000E+00 0. -1.
        -14    1    4    4    0    0 -0.11752722769E+03 -0.17348282555E+02  0.37500675828E+02  0.12457894222E+03  0.00000000000E+00 0.  1.
        -11    1    3    3    0    0  0.82242848181E+02  0.29028070683E+02 -0.29003624857E+03  0.30286554847E+03  0.00000000000E+00 0. -1.
         11    1    3    3    0    0 -0.21173274261E+02 -0.41828500225E+01 -0.35260285614E+02  0.41341160105E+02  0.00000000000E+00 0.  1.
          2    1    1    2  501    0  0.55377567790E+02 -0.31503446489E+02  0.66706854554E+02  0.92243951560E+02  0.00000000000E+00 0. -1.
<scales pt_clust_5="13000.00000" pt_clust_6="13000.00000" pt_clust_7="13000.00000" pt_clust_8="13000.00000" pt_clust_9="63.71140"></scales>
<clustering>
<clus scale="   63.711">  1  9  2 -1</clus>
<clus scale="   82.494">  5  6 -1 -1</clus>
<clus scale="   91.179">  7  8 -1 -1</clus>
<clus scale="  107.885">  1  5  2 -1</clus>
<clus scale="   63.711">  1  5  2 -1</clus>
</clustering>
</event>
<event>
 9    1  0.6270443E-005  0.1065663E+03  0.7546771E-02  0.1271677E+00
          1   -1    0    0  502    0 -0.00000000000E+00  0.00000000000E+00  0.26496257018E+03  0.26496257018E+03  0.00000000000E+00 0. -1.
         21   -1    0    0  501  502  0.00000000000E+00 -0.00000000000E+00 -0.88399701817E+02  0.88399701817E+02  0.00000000000E+00 0. -1.
        -24    2    1    2    0    0 -0.11841210773E+02 -0.51009104258E+02  0.17820504576E+03  0.20206902400E+03  0.79578320763E+02 0.  0.
         23    2    1    2    0    0  0.32293932753E+02  0.72010438674E+02 -0.10848509098E+02  0.12056660765E+03  0.90499808619E+02 0.  0.
         13    1    3    3    0    0 -0.43904957413E+02 -0.37474874190E+02  0.13325658954E+03  0.14522165864E+03  0.00000000000E+00 0. -1.
        -14    1    3    3    0    0  0.32063746640E+02 -0.13534230068E+02  0.44948456224E+02  0.56847365366E+02  0.00000000000E+00 0.  1.
        -13    1    4    4    0    0  0.18884900430E+02 -0.12052978206E+02  0.19991476034E+02  0.30026202923E+02  0.00000000000E+00 0.  1.
         13    1    4    4    0    0  0.13409032322E+02  0.84063416880E+02 -0.30839985132E+02  0.90540404728E+02  0.00000000000E+00 0. -1.
          2    1    1    2  501    0 -0.20452721980E+02 -0.21001334416E+02  0.92063316984E+01  0.30726640346E+02  0.00000000000E+00 0. -1.
<scales pt_clust_5="13000.00000" pt_clust_6="13000.00000" pt_clust_7="13000.00000" pt_clust_8="13000.00000" pt_clust_9="29.31501"></scales>
<clustering>
<clus scale="   29.315">  2  9  1 -1</clus>
<clus scale="   79.578">  5  6 -1 -1</clus>
<clus scale="   90.500">  7  8 -1 -1</clus>
<clus scale="   97.462">  1  5  2 -1</clus>
<clus scale="   29.315">  2  5  1 -1</clus>
</clustering>
</event>
<event>
 9    1  0.6270443E-005  0.1316484E+03  0.7546771E-02  0.1249817E+00
          3   -1    0    0  502    0 -0.00000000000E+00  0.00000000000E+00  0.27255684136E+03  0.27255684136E+03  0.00000000000E+00 0. -1.
         21   -1    0    0  501  502  0.00000000000E+00 -0.00000000000E+00 -0.11817662581E+03  0.11817662581E+03  0.00000000000E+00 0.  1.
        -24    2    1    2    0    0  0.62041195129E+01  0.13294644655E+02  0.47084107842E+02  0.92312387316E+02  0.78034767670E+02 0.  0.
         23    2    1    2    0    0  0.75703175327E+02  0.30703008655E+02  0.15060797574E+03  0.19585151148E+03  0.94875743458E+02 0.  0.
         13    1    3    3    0    0  0.31335611632E+02 -0.77004285351E+01  0.49921737057E+02  0.59442383757E+02  0.00000000000E+00 0. -1.
        -14    1    3    3    0    0 -0.25131492119E+02  0.20995073191E+02 -0.28376292144E+01  0.32870003559E+02  0.00000000000E+00 0.  1.
        -11    1    4    4    0    0  0.32322900677E+02 -0.34237220811E+02  0.55007458400E+02  0.72407027813E+02  0.00000000000E+00 0.  1.
         11    1    4    4    0    0  0.43380274650E+02  0.64940229466E+02  0.95600517340E+02  0.12344448367E+03  0.00000000000E+00 0. -1.
          4    1    1    2  501    0 -0.81907294840E+02 -0.43997653310E+02 -0.43311868035E+02  0.10256956838E+03  0.00000000000E+00 0. -1.
<scales pt_clust_5="13000.00000" pt_clust_6="13000.00000" pt_clust_7="13000.00000" pt_clust_8="13000.00000" pt_clust_9="91.26819"></scales>
<clustering>
<clus scale="   78.035">  5  6 -1 -1</clus>
<clus scale="   79.402">  1  5  2 -1</clus>
<clus scale="   91.268">  2  9  1 -1</clus>
<clus scale="   94.876">  7  8 -1 -1</clus>
<clus scale="   91.268">  2  5  1 -1</clus>
</clustering>
</event>
<event>
 9    1  0.6270443E-005  0.9984253E+02  0.7546771E-02  0.1283812E+00
         -4   -1    0    0    0  501 -0.00000000000E+00  0.00000000000E+00  0.58785237545E+02  0.58785237545E+02  0.00000000000E+00 0.  1.
         21   -1    0    0  501  502  0.00000000000E+00 -0.00000000000E+00 -0.44820490886E+03  0.44820490886E+03  0.00000000000E+00 0. -1.
         23    2    1    2    0    0  0.20692199196E+02  0.27094499055E+02 -0.52218907440E+02  0.10925540505E+03  0.89708696640E+02 0.  0.
        -24    2    1    2    0    0 -0.91231450995E+02  0.17937315875E+02 -0.17106785539E+03  0.21171379177E+03  0.83148021791E+02 0.  0.
         11    1    4    4    0    0 -0.93384880900E+02  0.40033742365E+02 -0.12963618594E+03  0.16470876483E+03  0.00000000000E+00 0. -1.
        -12    1    4    4    0    0  0.21534299054E+01 -0.22096426490E+02 -0.41431669451E+02  0.47005026938E+02  0.00000000000E+00 0.  1.
        -13    1    3    3    0    0 -0.28876684232E+02  0.29920662756E+02 -0.71332969642E+01  0.42189961810E+02  0.00000000000E+00 0.  1.
         13    1    3    3    0    0  0.49568883428E+02 -0.28261637011E+01 -0.45085610475E+02  0.67065443244E+02  0.00000000000E+00 0. -1.
         -3    1    1    2    0  502  0.70539251799E+02 -0.45031814930E+02 -0.16613290849E+03  0.18602094958E+03  0.00000000000E+00 0.  1.
<scales pt_clust_5="13000.00000" pt_clust_6="13000.00000" pt_clust_7="13000.00000" pt_clust_8="13000.00000" pt_clust_9="83.68782"></scales>
<clustering>
<clus scale="   83.148">  5  6 -1 -1</clus>
<clus scale="   83.688">  2  9  1 -1</clus>
<clus scale="   89.709">  7  8 -1 -1</clus>
<clus scale="   93.992">  2  5  1 -1</clus>
<clus scale="   83.688">  2  5  1 -1</clus>
</clustering>
</event>
<event>
 9    1  0.9645330E-005  0.1005419E+03  0.7546771E-02  0.1285000E+00
          1   -1    0    0  502    0 -0.00000000000E+00  0.00000000000E+00  0.23592596031E+03  0.23592596031E+03  0.00000000000E+00 0. -1.
         21   -1    0    0  501  502  0.00000000000E+00 -0.00000000000E+00 -0.25185960744E+03  0.25185960744E+03  0.00000000000E+00 0.  1.
         23    2    1    2    0    0  0.25287036006E+02  0.30019278228E+02  0.20695494731E+03  0.22996727187E+03  0.92271364231E+02 0.  0.
        -24    2    1    2    0    0 -0.15408027885E+02 -0.49753688542E+02 -0.12579666664E+03  0.15824980591E+03  0.80655829832E+02 0.  0.
         11    1    4    4    0    0  0.14455167518E+02 -0.28651975598E+02 -0.55525138383E+01  0.32568665670E+02  0.00000000000E+00 0. -1.
        -12    1    4    4    0    0 -0.29863195403E+02 -0.21101712945E+02 -0.12024415280E+03  0.12568114024E+03  0.00000000000E+00 0.  1.
        -13    1    3    3    0    0 -0.15190746514E+02  0.27186085445E+02  0.16510828273E+02  0.35248396726E+02  0.00000000000E+00 0.  1.
         13    1    3    3    0    0  0.40477782520E+02  0.28331927828E+01  0.19044411904E+03  0.19471887514E+03  0.00000000000E+00 0. -1.
          2    1    1    2  501    0 -0.98790081216E+01  0.19734410314E+02 -0.97091927805E+02  0.99568489979E+02  0.00000000000E+00 0. -1.
<scales pt_clust_5="13000.00000" pt_clust_6="13000.00000" pt_clust_7="13000.00000" pt_clust_8="13000.00000" pt_clust_9="22.06902"></scales>
<clustering>
<clus scale="   22.069">  2  9  1 -1</clus>
<clus scale="   80.656">  5  6 -1 -1</clus>
<clus scale="   90.000">  2  5  1 -1</clus>
<clus scale="   92.271">  7  8 -1 -1</clus>
<clus scale="   22.069">  2  5  1 -1</clus>
</clustering>
</event>
<event>
 9    1  0.8642077E-005  0.1014808E+03  0.7546771E-02  0.1282820E+00
         21   -1    0    0  501  502  0.00000000000E+00  0.00000000000E+00  0.75216666072E+02  0.75216666072E+02  0.00000000000E+00 0.  1.
         -4   -1    0    0    0  501 -0.00000000000E+00 -0.00000000000E+00 -0.42410901732E+03  0.42410901732E+03  0.00000000000E+00 0.  1.
        -24    2    1    2    0    0 -0.43370294242E+02 -0.19296249501E+02 -0.35907207711E+03  0.37079910638E+03  0.79409653513E+02 0.  0.
         23    2    1    2    0    0  0.17916406331E+02  0.22564727177E+02 -0.98391910619E+01  0.95979067262E+02  0.91022014608E+02 0.  0.
         13    1    3    3    0    0  0.19755320425E+02 -0.77601187029E+01 -0.39434557752E+02  0.44783663008E+02  0.00000000000E+00 0. -1.
        -14    1    3    3    0    0 -0.63125614667E+02 -0.11536130798E+02 -0.31963751935E+03  0.32601544338E+03  0.00000000000E+00 0.  1.
        -11    1    4    4    0    0 -0.23471746633E+02 -0.86956378661E+01  0.23489994492E+02  0.34326620124E+02  0.00000000000E+00 0.  1.
         11    1    4    4    0    0  0.41388152964E+02  0.31260365043E+02 -0.33329185554E+02  0.61652447138E+02  0.00000000000E+00 0. -1.
         -3    1    1    2    0  502  0.25453887911E+02 -0.32684776757E+01  0.20018916919E+02  0.32547509747E+02  0.00000000000E+00 0.  1.
<scales pt_clust_5="13000.00000" pt_clust_6="13000.00000" pt_clust_7="13000.00000" pt_clust_8="13000.00000" pt_clust_9="25.66288"></scales>
<clustering>
<clus scale="   25.663">  1  9  2 -1</clus>
<clus scale="   79.410">  5  6 -1 -1</clus>
<clus scale="   91.022">  7  8 -1 -1</clus>
<clus scale="   91.210">  2  5  1 -1</clus>
<clus scale="   25.663">  1  5  2 -1</clus>
</clustering>
</event>
<event>
 9    1  0.6270443E-005  0.1786800E+03  0.7546771E-02  0.1194714E+00
         21   -1    0    0  501  502  0.00000000000E+00  0.00000000000E+00  0.73625057516E+03  0.73625057516E+03  0.00000000000E+00 0. -1.
          3   -1    0    0  502    0 -0.00000000000E+00 -0.00000000000E+00 -0.22873514604E+03  0.22873514604E+03  0.00000000000E+00 0. -1.
        -24    2    1    2    0    0  0.34421476920E+02  0.49532185872E+02  0.84505581735E+02  0.13139801549E+03  0.80535517759E+02 0.  0.
         23    2    1    2    0    0  0.11927738760E+03 -0.57772027613E+02 -0.16171274193E+03  0.22894587586E+03  0.93276475077E+02 0.  0.
         11    1    3    3    0    0  0.46026252122E+02  0.36327192206E+02  0.16150762788E+02  0.60818812194E+02  0.00000000000E+00 0. -1.
        -12    1    3    3    0    0 -0.11604775202E+02  0.13204993666E+02  0.68354818947E+02  0.70579203300E+02  0.00000000000E+00 0.  1.
        -11    1    4    4    0    0  0.79379297410E+02  0.12545023702E+02 -0.92347793494E+02  0.12241962849E+03  0.00000000000E+00 0.  1.
         11    1    4    4    0    0  0.39898090195E+02 -0.70317051315E+02 -0.69364948439E+02  0.10652624737E+03  0.00000000000E+00 0. -1.
          4    1    1    2  501    0 -0.15369886453E+03  0.82398417413E+01  0.58472258932E+03  0.60464182985E+03  0.00000000000E+00 0. -1.
<scales pt_clust_5="13000.00000" pt_clust_6="13000.00000" pt_clust_7="13000.00000" pt_clust_8="13000.00000" pt_clust_9="152.40098"></scales>
<clustering>
<clus scale="   80.536">  5  6 -1 -1</clus>
<clus scale="   93.276">  7  8 -1 -1</clus>
<clus scale="  100.619">  2  5  1 -1</clus>
<clus scale="  152.401">  1  9  2 -1</clus>
<clus scale="  152.401">  1  5  2 -1</clus>
</clustering>
</event>
<event>
 9    1  0.6270443E-005  0.1136523E+03  0.7546771E-02  0.1256011E+00
         -2   -1    0    0    0  501 -0.00000000000E+00  0.00000000000E+00  0.11836009248E+03  0.11836009248E+03  0.00000000000E+00 0.  1.
         21   -1    0    0  501  502  0.00000000000E+00 -0.00000000000E+00 -0.20089311654E+03  0.20089311654E+03  0.00000000000E+00 0.  1.
        -24    2    1    2    0    0  0.47220632797E+02 -0.74748609989E+02  0.49773098666E+02  0.12939499311E+03  0.80302926686E+02 0.  0.
         23    2    1    2    0    0 -0.22940044601E+02  0.58640665995E+02 -0.65603804542E+02  0.11706939758E+03  0.73732023736E+02 0.  0.
         11    1    3    3    0    0  0.38563928270E+02 -0.91683215998E+01  0.49280497088E+02  0.63243988471E+02  0.00000000000E+00 0. -1.
        -12    1    3    3    0    0  0.86567045276E+01 -0.65580288390E+02  0.49260157792E+00  0.66151004640E+02  0.00000000000E+00 0.  1.
        -11    1    4    4    0    0 -0.38795210200E+02  0.12280012764E+02 -0.80444519684E+01  0.41479877717E+02  0.00000000000E+00 0. -1.
         11    1    4    4    0    0  0.15855165598E+02  0.46360653231E+02 -0.57559352573E+02  0.75589519861E+02  0.00000000000E+00 0.  1.
         -1    1    1    2    0  502 -0.24280588196E+02  0.16107943994E+02 -0.66702318185E+02  0.72788818331E+02  0.00000000000E+00 0.  1.
<scales pt_clust_5="13000.00000" pt_clust_6="13000.00000" pt_clust_7="13000.00000" pt_clust_8="13000.00000" pt_clust_9="29.13782"></scales>
<clustering>
<clus scale="   29.138">  2  9  1 -1</clus>
<clus scale="   73.732">  7  8 -1 -1</clus>
<clus scale="   80.303">  5  6 -1 -1</clus>
<clus scale="  109.109">  2  7  1 -1</clus>
<clus scale="   29.138">  2  5  1 -1</clus>
</clustering>
</event>
<event>
 9    1  0.6270443E-005  0.9034911E+02  0.7546771E-02  0.1308281E+00
         -2   -1    0    0    0  501 -0.00000000000E+00  0.00000000000E+00  0.10066965204E+03  0.10066965204E+03  0.00000000000E+00 0.  1.
         21   -1    0    0  501  502  0.00000000000E+00 -0.00000000000E+00 -0.18177727288E+03  0.18177727288E+03  0.00000000000E+00 0. -1.
        -24    2    1    2    0    0 -0.16156303847E+01  0.39000724971E+01  0.57621413160E+02  0.99133313472E+02  0.80556599720E+02 0.  0.
         23    2    1    2    0    0 -0.10665828887E+02  0.19743795001E+02 -0.10485940032E+03  0.14022047048E+03  0.90347712530E+02 0.  0.
         13    1    3    3    0    0  0.29119695267E+02 -0.24839356252E+02  0.31820208474E+02  0.49774249756E+02  0.00000000000E+00 0. -1.
        -14    1    3    3    0    0 -0.30735325651E+02  0.28739428749E+02  0.25801204686E+02  0.49359063716E+02  0.00000000000E+00 0.  1.
        -11    1    4    4    0    0 -0.41184184304E+02  0.13105163484E+02 -0.99567929292E+02  0.10854333186E+03  0.00000000000E+00 0. -1.
         11    1    4    4    0    0  0.30518355417E+02  0.66386315165E+01 -0.52914710267E+01  0.31677138624E+02  0.00000000000E+00 0.  1.
         -1    1    1    2    0  502  0.12281459272E+02 -0.23643867498E+02 -0.33869633683E+02  0.43093140961E+02  0.00000000000E+00 0.  1.
<scales pt_clust_5="13000.00000" pt_clust_6="13000.00000" pt_clust_7="13000.00000" pt_clust_8="13000.00000" pt_clust_9="26.64332"></scales>
<clustering>
<clus scale="   26.643">  2  9  1 -1</clus>
<clus scale="   80.557">  5  6 -1 -1</clus>
<clus scale="   80.558">  1  5  2 -1</clus>
<clus scale="   90.348">  7  8 -1 -1</clus>
<clus scale="   26.643">  2  5  1 -1</clus>
</clustering>
</event>
<event>
 9    1  0.6270443E-005  0.1274432E+03  0.7546771E-02  0.1233574E+00
         21   -1    0    0  501  502  0.00000000000E+00  0.00000000000E+00  0.17624401235E+03  0.17624401235E+03  0.00000000000E+00 0. -1.
         -4   -1    0    0    0  501 -0.00000000000E+00 -0.00000000000E+00 -0.20280649564E+03  0.20280649564E+03  0.00000000000E+00 0.  1.
         23    2    1    2    0    0 -0.12871384102E+02  0.72808644692E+02 -0.71616277074E+02  0.13676445858E+03  0.90049179437E+02 0.  0.
        -24    2    1    2    0    0  0.26525605677E+02 -0.14187895299E+03  0.45281023051E+02  0.17187868553E+03  0.81600652156E+02 0.  0.
         11    1    4    4    0    0  0.48311163300E+02 -0.13342111061E+03  0.33932574670E+02  0.14589921480E+03  0.00000000000E+00 0. -1.
        -12    1    4    4    0    0 -0.21785557623E+02 -0.84578423823E+01  0.11348448381E+02  0.25979470729E+02  0.00000000000E+00 0.  1.
        -11    1    3    3    0    0 -0.44325406894E+02  0.45058442480E+02 -0.12744498095E+02  0.64478113858E+02  0.00000000000E+00 0. -1.
         11    1    3    3    0    0  0.31454022792E+02  0.27750202213E+02 -0.58871778979E+02  0.72286344719E+02  0.00000000000E+00 0.  1.
         -3    1    1    2    0  502 -0.13654221575E+02  0.69070308303E+02 -0.22722927234E+00  0.70407363883E+02  0.00000000000E+00 0.  1.
<scales pt_clust_5="13000.00000" pt_clust_6="13000.00000" pt_clust_7="13000.00000" pt_clust_8="13000.00000" pt_clust_9="70.40700"></scales>
<clustering>
<clus scale="   70.407">  1  9  2 -1</clus>
<clus scale="   81.601">  5  6 -1 -1</clus>
<clus scale="   90.049">  7  8 -1 -1</clus>
<clus scale="  121.621">  1  5  2 -1</clus>
<clus scale="   70.407">  1  5  2 -1</clus>
</clustering>
</event>
<event>
 9    1  0.6270443E-005  0.1045457E+03  0.7546771E-02  0.1274115E+00
          1   -1    0    0  502    0 -0.00000000000E+00  0.00000000000E+00  0.59014780682E+03  0.59014780682E+03  0.00000000000E+00 0. -1.
         21   -1    0    0  501  502  0.00000000000E+00 -0.00000000000E+00 -0.30529177365E+02  0.30529177365E+02  0.00000000000E+00 0. -1.
        -24    2    1    2    0    0  0.23257283982E+02 -0.18996729951E+02  0.31075531737E+03  0.32543885439E+03  0.91868404070E+02 0.  0.
         23    2    1    2    0    0 -0.54237748639E+02 -0.64069075427E+01  0.21555199717E+03  0.24313460122E+03  0.98331017414E+02 0.  0.
         13    1    3    3    0    0  0.23196699830E+02 -0.18378462276E+02  0.22484305264E+02  0.37167172906E+02  0.00000000000E+00 0. -1.
        -14    1    3    3    0    0  0.60584152524E-01 -0.61826767498E+00  0.28827101211E+03  0.28827168149E+03  0.00000000000E+00 0.  1.
        -13    1    4    4    0    0 -0.51067798233E+02  0.38128516826E+02  0.93341217551E+02  0.11302339008E+03  0.00000000000E+00 0. -1.
         13    1    4    4    0    0 -0.31699504062E+01 -0.44535424368E+02  0.12221077962E+03  0.13011121114E+03  0.00000000000E+00 0.  1.
          2    1    1    2  501    0  0.30980464657E+02  0.25403637494E+02  0.33311314910E+02  0.52103528569E+02  0.00000000000E+00 0. -1.
<scales pt_clust_5="13000.00000" pt_clust_6="13000.00000" pt_clust_7="13000.00000" pt_clust_8="13000.00000" pt_clust_9="40.06412"></scales>
<clustering>
<clus scale="   40.064">  2  9  1 -1</clus>
<clus scale="   91.868">  5  6 -1 -1</clus>
<clus scale="   98.331">  7  8 -1 -1</clus>
<clus scale="   98.492">  1  5  2 -1</clus>
<clus scale="   40.064">  2  5  1 -1</clus>
</clustering>
</event>
<event>
 9    1  0.6270443E-005  0.9284704E+02  0.7546771E-02  0.1304573E+00
         21   -1    0    0  501  502  0.00000000000E+00  0.00000000000E+00  0.11815334154E+03  0.11815334154E+03  0.00000000000E+00 0.  1.
          1   -1    0    0  502    0 -0.00000000000E+00 -0.00000000000E+00 -0.19834532435E+03  0.19834532435E+03  0.00000000000E+00 0. -1.
        -24    2    1    2    0    0 -0.10697290678E+02  0.10968870547E+02 -0.95606201120E+01  0.78274275073E+02  0.76162382660E+02 0.  0.
         23    2    1    2    0    0  0.45606263542E+01 -0.43829144654E+02  0.50707579755E+02  0.11236496440E+03  0.90071268153E+02 0.  0.
         13    1    3    3    0    0 -0.72490299114E+01  0.23123240041E+02  0.28944518064E+02  0.37749407818E+02  0.00000000000E+00 0. -1.
        -14    1    3    3    0    0 -0.34482607671E+01 -0.12154369494E+02 -0.38505138176E+02  0.40524867255E+02  0.00000000000E+00 0.  1.
        -11    1    4    4    0    0 -0.20454587500E+02 -0.14635326836E+02  0.66275384884E+02  0.70887301987E+02  0.00000000000E+00 0.  1.
         11    1    4    4    0    0  0.25015213854E+02 -0.29193817818E+02 -0.15567805129E+02  0.41477662416E+02  0.00000000000E+00 0. -1.
          2    1    1    2  501    0  0.61366643242E+01  0.32860274107E+02 -0.12133894245E+03  0.12585942642E+03  0.00000000000E+00 0. -1.
<scales pt_clust_5="13000.00000" pt_clust_6="13000.00000" pt_clust_7="13000.00000" pt_clust_8="13000.00000" pt_clust_9="33.42839"></scales>
<clustering>
<clus scale="   33.428">  1  9  2 -1</clus>
<clus scale="   76.162">  5  6 -1 -1</clus>
<clus scale="   79.426">  2  5  1 -1</clus>
<clus scale="   90.071">  7  8 -1 -1</clus>
<clus scale="   33.428">  1  5  2 -1</clus>
</clustering>
</event>
<event>
 9    1  0.6270443E-005  0.1097126E+03  0.7546771E-02  0.1266309E+00
         21   -1    0    0  501  502  0.00000000000E+00  0.00000000000E+00  0.67009976904E+03  0.67009976904E+03  0.00000000000E+00 0. -1.
          3   -1    0    0  502    0 -0.00000000000E+00 -0.00000000000E+00 -0.43377269181E+02  0.43377269181E+02  0.00000000000E+00 0. -1.
         23    2    1    2    0    0  0.38066670095E+02  0.52289756557E+01  0.15283563263E+03  0.18350998307E+03  0.94025367463E+02 0.  0.
        -24    2    1    2    0    0 -0.10455490208E+03  0.33193041241E+01  0.42970255873E+03  0.44968000018E+03  0.81394522243E+02 0.  0.
         11    1    4    4    0    0 -0.14820917791E+02  0.34137404873E+02  0.13835047293E+03  0.14326854287E+03  0.00000000000E+00 0. -1.
        -12    1    4    4    0    0 -0.89733984285E+02 -0.30818100749E+02  0.29135208580E+03  0.30641145731E+03  0.00000000000E+00 0.  1.
        -13    1    3    3    0    0  0.21299100859E+02 -0.31912327365E+02  0.17495664328E+02  0.42168075668E+02  0.00000000000E+00 0. -1.
         13    1    3    3    0    0  0.16767569236E+02  0.37141303021E+02  0.13533996830E+03  0.14134190740E+03  0.00000000000E+00 0.  1.
          4    1    1    2  501    0  0.66488231981E+02 -0.85482797798E+01  0.44184308500E+02  0.80287054976E+02  0.00000000000E+00 0. -1.
<scales pt_clust_5="13000.00000" pt_clust_6="13000.00000" pt_clust_7="13000.00000" pt_clust_8="13000.00000" pt_clust_9="67.03553"></scales>
<clustering>
<clus scale="   67.036">  1  9  2 -1</clus>
<clus scale="   81.395">  5  6 -1 -1</clus>
<clus scale="   94.025">  7  8 -1 -1</clus>
<clus scale="   99.102">  1  5  2 -1</clus>
<clus scale="   67.036">  1  5  2 -1</clus>
</clustering>
</event>
<event>
 9    1  0.6270443E-005  0.3340232E+03  0.7546771E-02  0.1069668E+00
          3   -1    0    0  502    0 -0.00000000000E+00  0.00000000000E+00  0.58203682225E+03  0.58203682225E+03  0.00000000000E+00 0. -1.
         21   -1    0    0  501  502  0.00000000000E+00 -0.00000000000E+00 -0.31974969203E+03  0.31974969203E+03  0.00000000000E+00 0. -1.
        -24    2    1    2    0    0  0.16005514326E+03  0.30080565389E+03  0.31509597886E+03  0.47109061242E+03  0.80865313452E+02 0.  0.
         23    2    1    2    0    0 -0.19083321356E+03 -0.22116260083E+03  0.35184577013E+02  0.30808616135E+03  0.91372408041E+02 0.  0.
         11    1    3    3    0    0  0.80924090439E+02  0.17842243859E+03  0.12838263428E+03  0.23423359236E+03  0.00000000000E+00 0. -1.
        -12    1    3    3    0    0  0.79131052819E+02  0.12238321531E+03  0.18671334458E+03  0.23685702006E+03  0.00000000000E+00 0.  1.
        -11    1    4    4    0    0 -0.95612239810E+02 -0.60867439567E+02 -0.16677251569E+02  0.11456297971E+03  0.00000000000E+00 0.  1.
         11    1    4    4    0    0 -0.95220973748E+02 -0.16029516126E+03  0.51861828582E+02  0.19352318163E+03  0.00000000000E+00 0. -1.
          4    1    1    2  501    0  0.30778070299E+02 -0.79643053063E+02 -0.87993425653E+02  0.12260974052E+03  0.00000000000E+00 0. -1.
<scales pt_clust_5="13000.00000" pt_clust_6="13000.00000" pt_clust_7="13000.00000" pt_clust_8="13000.00000" pt_clust_9="85.38329"></scales>
<clustering>
<clus scale="   80.865">  5  6 -1 -1</clus>
<clus scale="   85.383">  2  9  1 -1</clus>
<clus scale="   91.372">  7  8 -1 -1</clus>
<clus scale="  331.303">  1  5  2 -1</clus>
<clus scale="   85.383">  2  5  1 -1</clus>
</clustering>
</event>
<event>
 9    1  0.6270443E-005  0.9518397E+02  0.7546771E-02  0.1295453E+00
         21   -1    0    0  501  502  0.00000000000E+00  0.00000000000E+00  0.10763567275E+03  0.10763567275E+03  0.00000000000E+00 0.  1.
          1   -1    0    0  502    0 -0.00000000000E+00 -0.00000000000E+00 -0.40192898300E+03  0.40192898300E+03  0.00000000000E+00 0. -1.
         23    2    1    2    0    0  0.25788176957E+02  0.42251054718E+01 -0.20089614759E+03  0.22150804878E+03  0.89574951697E+02 0.  0.
        -24    2    1    2    0    0 -0.86280286181E+02  0.43019899051E+02  0.41697415142E+02  0.13267986906E+03  0.81057225009E+02 0.  0.
         11    1    4    4    0    0 -0.14792212391E+02  0.37428967723E+02 -0.13217973193E+02  0.42360972458E+02  0.00000000000E+00 0. -1.
        -12    1    4    4    0    0 -0.71488073790E+02  0.55909313278E+01  0.54915388334E+02  0.90318896601E+02  0.00000000000E+00 0.  1.
        -11    1    3    3    0    0  0.59017683050E+02 -0.32632517495E+01 -0.13317529394E+03  0.14570310443E+03  0.00000000000E+00 0. -1.
         11    1    3    3    0    0 -0.33229506093E+02  0.74883572213E+01 -0.67720853646E+02  0.75804944348E+02  0.00000000000E+00 0.  1.
          2    1    1    2  501    0  0.60492109224E+02 -0.47245004523E+02 -0.13509457780E+03  0.15537673791E+03  0.00000000000E+00 0. -1.
<scales pt_clust_5="13000.00000" pt_clust_6="13000.00000" pt_clust_7="13000.00000" pt_clust_8="13000.00000" pt_clust_9="76.75540"></scales>
<clustering>
<clus scale="   76.755">  1  9  2 -1</clus>
<clus scale="   81.057">  5  6 -1 -1</clus>
<clus scale="   87.216">  1  5  2 -1</clus>
<clus scale="   89.575">  7  8 -1 -1</clus>
<clus scale="   76.755">  1  5  2 -1</clus>
</clustering>
</event>
<event>
 9    1  0.6270443E-005  0.2401218E+03  0.7546771E-02  0.1138261E+00
          1   -1    0    0  502    0 -0.00000000000E+00  0.00000000000E+00  0.19552268164E+04  0.19552268164E+04  0.00000000000E+00 0. -1.
         21   -1    0    0  501  502  0.00000000000E+00 -0.00000000000E+00 -0.56518730567E+02  0.56518730567E+02  0.00000000000E+00 0. -1.
        -24    2    1    2    0    0 -0.34195490453E+02 -0.12239576449E+03  0.74975020840E+03  0.76502865513E+03  0.83626631224E+02 0.  0.
         23    2    1    2    0    0  0.19746347632E+03 -0.62346743604E+02  0.68517706823E+03  0.72147516797E+03  0.90442590902E+02 0.  0.
         13    1    3    3    0    0 -0.34253783947E+02 -0.13072496447E+03  0.73984975712E+03  0.75209042086E+03  0.00000000000E+00 0. -1.
        -14    1    3    3    0    0  0.58293493401E-01  0.83291999797E+01  0.99004512822E+01  0.12938234270E+02  0.00000000000E+00 0.  1.
        -11    1    4    4    0    0  0.12352390382E+03 -0.53324821912E+01  0.28702464849E+03  0.31252158169E+03  0.00000000000E+00 0. -1.
         11    1    4    4    0    0  0.73939572502E+02 -0.57014261413E+02  0.39815241975E+03  0.40895358629E+03  0.00000000000E+00 0.  1.
          2    1    1    2  501    0 -0.16326798586E+03  0.18474250809E+03  0.46378080921E+03  0.52524172387E+03  0.00000000000E+00 0. -1.
<scales pt_clust_5="13000.00000" pt_clust_6="13000.00000" pt_clust_7="13000.00000" pt_clust_8="13000.00000" pt_clust_9="222.43792"></scales>
<clustering>
<clus scale="   83.627">  5  6 -1 -1</clus>
<clus scale="   90.443">  7  8 -1 -1</clus>
<clus scale="  152.130">  1  5  2 -1</clus>
<clus scale="  222.438">  2  9  1 -1</clus>
<clus scale="  222.438">  2  5  1 -1</clus>
</clustering>
</event>
<event>
 9    1  0.6270443E-005  0.1746635E+03  0.7546771E-02  0.1190734E+00
         21   -1    0    0  501  502  0.00000000000E+00  0.00000000000E+00  0.10783169655E+03  0.10783169655E+03  0.00000000000E+00 0. -1.
          1   -1    0    0  502    0 -0.00000000000E+00 -0.00000000000E+00 -0.52543653059E+03  0.52543653059E+03  0.00000000000E+00 0. -1.
        -24    2    1    2    0    0 -0.29813278714E+02  0.80132014217E+02 -0.13321370094E+03  0.17767960341E+03  0.80710470565E+02 0.  0.
         23    2    1    2    0    0  0.15653117170E+03 -0.11910398101E+03 -0.21759339246E+03  0.30713601596E+03  0.91092710209E+02 0.  0.
         11    1    3    3    0    0 -0.49085451988E+02  0.37571538234E+02 -0.40618835451E+02  0.73965477593E+02  0.00000000000E+00 0. -1.
        -12    1    3    3    0    0  0.19272173275E+02  0.42560475983E+02 -0.92594865488E+02  0.10371412581E+03  0.00000000000E+00 0.  1.
        -11    1    4    4    0    0  0.26232272285E+02  0.13318660170E+02 -0.43636239892E+02  0.52627371679E+02  0.00000000000E+00 0.  1.
         11    1    4    4    0    0  0.13029889942E+03 -0.13242264118E+03 -0.17395715257E+03  0.25450864429E+03  0.00000000000E+00 0. -1.
          2    1    1    2  501    0 -0.12671789299E+03  0.38971966792E+02 -0.66797740634E+02  0.14845260777E+03  0.00000000000E+00 0. -1.
<scales pt_clust_5="13000.00000" pt_clust_6="13000.00000" pt_clust_7="13000.00000" pt_clust_8="13000.00000" pt_clust_9="149.02840"></scales>
<clustering>
<clus scale="   80.710">  5  6 -1 -1</clus>
<clus scale="   91.093">  7  8 -1 -1</clus>
<clus scale="  117.576">  2  5  1 -1</clus>
<clus scale="  149.028">  1  9  2 -1</clus>
<clus scale="  149.028">  1  5  2 -1</clus>
</clustering>
</event>
<event>
 9    1  0.6270443E-005  0.1293908E+03  0.7546771E-02  0.1246209E+00
         -2   -1    0    0    0  501 -0.00000000000E+00  0.00000000000E+00  0.17814200750E+03  0.17814200750E+03  0.00000000000E+00 0.  1.
         21   -1    0    0  501  502  0.00000000000E+00 -0.00000000000E+00 -0.38405998144E+03  0.38405998144E+03  0.00000000000E+00 0.  1.
         23    2    1    2    0    0 -0.19316536544E+02  0.37499146825E+02 -0.27603600850E+02  0.94046539414E+02  0.79394446904E+02 0.  0.
        -24    2    1    2    0    0 -0.69494698811E+02  0.19471269853E+02  0.11490262985E+03  0.15653183887E+03  0.78044594426E+02 0.  0.
         11    1    4    4    0    0 -0.43640583929E+02 -0.26277438429E+02  0.38732154066E+02  0.63993625422E+02  0.00000000000E+00 0. -1.
        -12    1    4    4    0    0 -0.25854114883E+02  0.45748708282E+02  0.76170475787E+02  0.92538213444E+02  0.00000000000E+00 0.  1.
        -13    1    3    3    0    0 -0.45467618769E+02  0.39762585628E+02 -0.72586309290E+01  0.60836299159E+02  0.00000000000E+00 0.  1.
         13    1    3    3    0    0  0.26151082224E+02 -0.22634388033E+01 -0.20344969921E+02  0.33210240255E+02  0.00000000000E+00 0. -1.
         -1    1    1    2    0  502  0.88811235356E+02 -0.56970416678E+02 -0.29321700295E+03  0.31162361066E+03  0.00000000000E+00 0.  1.
<scales pt_clust_5="13000.00000" pt_clust_6="13000.00000" pt_clust_7="13000.00000" pt_clust_8="13000.00000" pt_clust_9="103.20372"></scales>
<clustering>
<clus scale="   78.045">  5  6 -1 -1</clus>
<clus scale="   79.394">  7  8 -1 -1</clus>
<clus scale="   89.904">  1  7  2 -1</clus>
<clus scale="  103.204">  2  9  1 -1</clus>
<clus scale="  103.204">  2  5  1 -1</clus>
</clustering>
</event>
<event>
 9    1  0.6270443E-005  0.4361836E+03  0.7546771E-02  0.1078820E+00
         21   -1    0    0  501  502  0.00000000000E+00  0.00000000000E+00  0.34228697605E+03  0.34228697605E+03  0.00000000000E+00 0.  1.
          1   -1    0    0  502    0 -0.00000000000E+00 -0.00000000000E+00 -0.84596924208E+03  0.84596924208E+03  0.00000000000E+00 0. -1.
         23    2    1    2    0    0  0.70861140590E+02  0.30693411923E+01  0.20328518144E+02  0.11772644809E+03  0.91736284142E+02 0.  0.
        -24    2    1    2    0    0 -0.44167913029E+03 -0.90872616521E+02 -0.47794433048E+02  0.46061386623E+03  0.80885965174E+02 0.  0.
         13    1    4    4    0    0 -0.59441655750E+02 -0.41800505793E+02 -0.10835722158E+02  0.73471120841E+02  0.00000000000E+00 0. -1.
        -14    1    4    4    0    0 -0.38223747454E+03 -0.49072110728E+02 -0.36958710890E+02  0.38714274539E+03  0.00000000000E+00 0.  1.
        -13    1    3    3    0    0  0.37492869175E+02  0.46736875216E+02  0.25732089508E+01  0.59972261490E+02  0.00000000000E+00 0.  1.
         13    1    3    3    0    0  0.33368271415E+02 -0.43667534024E+02  0.17755309193E+02  0.57754186597E+02  0.00000000000E+00 0. -1.
          2    1    1    2  501    0  0.37081798970E+03  0.87803275329E+02 -0.47621635113E+03  0.60991590382E+03  0.00000000000E+00 0. -1.
<scales pt_clust_5="13000.00000" pt_clust_6="13000.00000" pt_clust_7="13000.00000" pt_clust_8="13000.00000" pt_clust_9="428.61848"></scales>
<clustering>
<clus scale="   80.886">  5  6 -1 -1</clus>
<clus scale="   91.736">  7  8 -1 -1</clus>
<clus scale="  115.958">  2  7  1 -1</clus>
<clus scale="  428.618">  1  9  2 -1</clus>
<clus scale="  428.618">  1  5  2 -1</clus>
</clustering>
</event>
<event>
 9    1  0.6270443E-005  0.1725012E+03  0.7546771E-02  0.1176595E+00
          3   -1    0    0  502    0 -0.00000000000E+00  0.00000000000E+00  0.23853585907E+03  0.23853585907E+03  0.00000000000E+00 0. -1.
         21   -1    0    0  501  502  0.00000000000E+00 -0.00000000000E+00 -0.32795339485E+03  0.32795339485E+03  0.00000000000E+00 0. -1.
        -24    2    1    2    0    0  0.10770482945E+03  0.70573814768E+02  0.81372809575E+02  0.17231409625E+03  0.80558177809E+02 0.  0.
         23    2    1    2    0    0 -0.13163363524E+03 -0.17658888008E+03 -0.76196937142E+02  0.25009290790E+03  0.90716276715E+02 0.  0.
         13    1    3    3    0    0  0.50161841785E+02  0.94926811622E+01  0.71446458032E+02  0.87811831391E+02  0.00000000000E+00 0. -1.
        -14    1    3    3    0    0  0.57542987666E+02  0.61081133606E+02  0.99263515429E+01  0.84502264864E+02  0.00000000000E+00 0.  1.
        -11    1    4    4    0    0  0.91850952457E+01 -0.41022234290E+02 -0.20933649406E+02  0.46961764855E+02  0.00000000000E+00 0.  1.
         11    1    4    4    0    0 -0.14081873048E+03 -0.13556664579E+03 -0.55263287736E+02  0.20313114305E+03  0.00000000000E+00 0. -1.
          4    1    1    2  501    0  0.23928805786E+02  0.10601506531E+03 -0.94593408211E+02  0.14408224976E+03  0.00000000000E+00 0. -1.
<scales pt_clust_5="13000.00000" pt_clust_6="13000.00000" pt_clust_7="13000.00000" pt_clust_8="13000.00000" pt_clust_9="108.68202"></scales>
<clustering>
<clus scale="   80.558">  5  6 -1 -1</clus>
<clus scale="   90.716">  7  8 -1 -1</clus>
<clus scale="  108.682">  2  9  1 -1</clus>
<clus scale="  167.382">  1  5  2 -1</clus>
<clus scale="  108.682">  2  5  1 -1</clus>
</clustering>
</event>
<event>
 9    1  0.6270443E-005  0.1652879E+03  0.7546771E-02  0.1212716E+00
         21   -1    0    0  501  502  0.00000000000E+00  0.00000000000E+00  0.69027155825E+03  0.69027155825E+03  0.00000000000E+00 0. -1.
          1   -1    0    0  502    0 -0.00000000000E+00 -0.00000000000E+00 -0.86759432177E+02  0.86759432177E+02  0.00000000000E+00 0. -1.
        -24    2    1    2    0    0 -0.28326797077E+02 -0.61983598009E+01  0.18583366529E+03  0.20484747833E+03  0.81163483943E+02 0.  0.
         23    2    1    2    0    0 -0.52888969201E+02  0.11811703746E+03  0.32233319806E+02  0.16268412528E+03  0.93157179597E+02 0.  0.
         11    1    3    3    0    0  0.27366993244E+02 -0.10359111454E+02  0.79965149334E+02  0.85150975434E+02  0.00000000000E+00 0. -1.
        -12    1    3    3    0    0 -0.55693790321E+02  0.41607516532E+01  0.10586851596E+03  0.11969650290E+03  0.00000000000E+00 0.  1.
        -11    1    4    4    0    0 -0.73514469306E+01  0.27595165368E+02 -0.31859538407E+02  0.42785127219E+02  0.00000000000E+00 0.  1.
         11    1    4    4    0    0 -0.45537522270E+02  0.90521872095E+02  0.64092858213E+02  0.11989899806E+03  0.00000000000E+00 0. -1.
          2    1    1    2  501    0  0.81215766278E+02 -0.11191867766E+03  0.38544514098E+03  0.40949938682E+03  0.00000000000E+00 0. -1.
<scales pt_clust_5="13000.00000" pt_clust_6="13000.00000" pt_clust_7="13000.00000" pt_clust_8="13000.00000" pt_clust_9="136.53511"></scales>
<clustering>
<clus scale="   81.163">  5  6 -1 -1</clus>
<clus scale="   86.188">  2  5  1 -1</clus>
<clus scale="   93.157">  7  8 -1 -1</clus>
<clus scale="  136.535">  1  9  2 -1</clus>
<clus scale="  136.535">  1  5  2 -1</clus>
</clustering>
</event>
<event>
 9    1  0.6270443E-005  0.1005532E+03  0.7546771E-02  0.1284143E+00
         21   -1    0    0  501  502  0.00000000000E+00  0.00000000000E+00  0.46196922873E+03  0.46196922873E+03  0.00000000000E+00 0. -1.
         -2   -1    0    0    0  501 -0.00000000000E+00 -0.00000000000E+00 -0.55474130340E+02  0.55474130340E+02  0.00000000000E+00 0.  1.
         23    2    1    2    0    0 -0.44026518811E+02  0.13015601662E+02  0.43687889193E+02  0.11122144067E+03  0.91399326893E+02 0.  0.
        -24    2    1    2    0    0 -0.15676263849E+01 -0.64884762056E+02  0.27822506473E+03  0.29702771050E+03  0.81263671863E+02 0.  0.
         13    1    4    4    0    0  0.13272843625E+02 -0.81006742229E+02  0.21886726738E+03  0.23375444679E+03  0.00000000000E+00 0. -1.
        -14    1    4    4    0    0 -0.14840470010E+02  0.16121980172E+02  0.59357797349E+02  0.63273263713E+02  0.00000000000E+00 0.  1.
        -11    1    3    3    0    0 -0.34735565093E+02 -0.34300730952E+02  0.39544083800E+02  0.62823834567E+02  0.00000000000E+00 0.  1.
         11    1    3    3    0    0 -0.92909537186E+01  0.47316332614E+02  0.41438053931E+01  0.48397606099E+02  0.00000000000E+00 0. -1.
         -1    1    1    2    0  502  0.45594145196E+02  0.51869160394E+02  0.84582144472E+02  0.10919420790E+03  0.00000000000E+00 0.  1.
<scales pt_clust_5="13000.00000" pt_clust_6="13000.00000" pt_clust_7="13000.00000" pt_clust_8="13000.00000" pt_clust_9="69.05969"></scales>
<clustering>
<clus scale="   69.060">  1  9  2 -1</clus>
<clus scale="   81.264">  5  6 -1 -1</clus>
<clus scale="   91.399">  7  8 -1 -1</clus>
<clus scale="   91.438">  1  5  2 -1</clus>
<clus scale="   69.060">  1  5  2 -1</clus>
</clustering>
</event>
<event>
 9    1  0.6270443E-005  0.1252002E+03  0.7546771E-02  0.1238702E+00
         -2   -1    0    0    0  501 -0.00000000000E+00  0.00000000000E+00  0.62048299169E+03  0.62048299169E+03  0.00000000000E+00 0.  1.
         21   -1    0    0  501  502  0.00000000000E+00 -0.00000000000E+00 -0.48354813677E+02  0.48354813677E+02  0.00000000000E+00 0.  1.
        -24    2    1    2    0    0  0.34580401826E+02 -0.64650237833E+02  0.14692937538E+03  0.18049465877E+03  0.74930788408E+02 0.  0.
         23    2    1    2    0    0 -0.16094359803E+02  0.11563928903E+03  0.15816832663E+03  0.21586031741E+03  0.89145855187E+02 0.  0.
         13    1    3    3    0    0 -0.16770413836E+02 -0.12274525280E+02  0.74756668282E+02  0.77591689012E+02  0.00000000000E+00 0. -1.
        -14    1    3    3    0    0  0.51350815662E+02 -0.52375712553E+02  0.72172707101E+02  0.10290296976E+03  0.00000000000E+00 0.  1.
        -11    1    4    4    0    0  0.36554029797E+02  0.59023208559E+02  0.79836009583E+02  0.10580040014E+03  0.00000000000E+00 0.  1.
         11    1    4    4    0    0 -0.52648389600E+02  0.56616080473E+02  0.78332317047E+02  0.11005991727E+03  0.00000000000E+00 0. -1.
         -1    1    1    2    0  502 -0.18486042023E+02 -0.50989051199E+02  0.26703047600E+03  0.27248282919E+03  0.00000000000E+00 0.  1.
<scales pt_clust_5="13000.00000" pt_clust_6="13000.00000" pt_clust_7="13000.00000" pt_clust_8="13000.00000" pt_clust_9="54.23670"></scales>
<clustering>
<clus scale="   54.237">  2  9  1 -1</clus>
<clus scale="   74.931">  5  6 -1 -1</clus>
<clus scale="   89.146">  7  8 -1 -1</clus>
<clus scale="  115.511">  1  5  2 -1</clus>
<clus scale="   54.237">  2  5  1 -1</clus>
</clustering>
</event>
<event>
 9    1  0.6270443E-005  0.1555981E+03  0.7546771E-02  0.1196393E+00
          1   -1    0    0  502    0 -0.00000000000E+00  0.00000000000E+00  0.20394521979E+03  0.20394521979E+03  0.00000000000E+00 0. -1.
         21   -1    0    0  501  502  0.00000000000E+00 -0.00000000000E+00 -0.23197139083E+03  0.23197139083E+03  0.00000000000E+00 0. -1.
         23    2    1    2    0    0  0.32815929534E+02 -0.11328805106E+03  0.23109129051E+02  0.15170376704E+03  0.92568533222E+02 0.  0.
        -24    2    1    2    0    0 -0.11856153378E+03  0.88177301632E+02  0.22891956784E+02  0.16818313556E+03  0.77002932333E+02 0.  0.
         13    1    4    4    0    0 -0.11212397249E+03  0.41631597489E+02  0.17763388847E+02  0.12091531376E+03  0.00000000000E+00 0. -1.
        -14    1    4    4    0    0 -0.64375612836E+01  0.46545704143E+02  0.51285679378E+01  0.47267821808E+02  0.00000000000E+00 0.  1.
        -11    1    3    3    0    0  0.26148566944E+02 -0.62425214869E+01 -0.22596042903E+02  0.35118339691E+02  0.00000000000E+00 0.  1.
         11    1    3    3    0    0  0.66673625895E+01 -0.10704552958E+03  0.45705171954E+02  0.11658542735E+03  0.00000000000E+00 0. -1.
          2    1    1    2  501    0  0.85745604243E+02  0.25110749431E+02 -0.74027256874E+02  0.11602970802E+03  0.00000000000E+00 0. -1.
<scales pt_clust_5="13000.00000" pt_clust_6="13000.00000" pt_clust_7="13000.00000" pt_clust_8="13000.00000" pt_clust_9="89.34684"></scales>
<clustering>
<clus scale="   77.003">  5  6 -1 -1</clus>
<clus scale="   89.347">  2  9  1 -1</clus>
<clus scale="   92.569">  7  8 -1 -1</clus>
<clus scale="  146.872">  2  5  1 -1</clus>
<clus scale="   89.347">  2  5  1 -1</clus>
</clustering>
</event>
<event>
 9    1  0.6270443E-005  0.1020076E+03  0.7546771E-02  0.1280790E+00
          1   -1    0    0  502    0 -0.00000000000E+00  0.00000000000E+00  0.15738441715E+03  0.15738441715E+03  0.00000000000E+00 0. -1.
         21   -1    0    0  501  502  0.00000000000E+00 -0.00000000000E+00 -0.14920756912E+03  0.14920756912E+03  0.00000000000E+00 0.  1.
        -24    2    1    2    0    0  0.41208291854E+02  0.22937123962E+02  0.79594319223E+02  0.12385797570E+03  0.82348694702E+02 0.  0.
         23    2    1    2    0    0 -0.45747267721E+00 -0.55711789907E+02 -0.20114838264E+02  0.10947578143E+03  0.92066971198E+02 0.  0.
         13    1    3    3    0    0  0.87527399834E+01  0.47394994779E+02  0.21054276790E+02  0.52594472699E+02  0.00000000000E+00 0. -1.
        -14    1    3    3    0    0  0.32455551871E+02 -0.24457870817E+02  0.58540042432E+02  0.71263503002E+02  0.00000000000E+00 0.  1.
        -13    1    4    4    0    0 -0.23937614596E+02 -0.67958597001E+02 -0.33891855696E+02  0.79624356710E+02  0.00000000000E+00 0.  1.
         13    1    4    4    0    0  0.23480141919E+02  0.12246807094E+02  0.13777017433E+02  0.29851424721E+02  0.00000000000E+00 0. -1.
          2    1    1    2  501    0 -0.40750819177E+02  0.32774665945E+02 -0.51302632931E+02  0.73258229142E+02  0.00000000000E+00 0. -1.
<scales pt_clust_5="13000.00000" pt_clust_6="13000.00000" pt_clust_7="13000.00000" pt_clust_8="13000.00000" pt_clust_9="52.29539"></scales>
<clustering>
<clus scale="   52.295">  2  9  1 -1</clus>
<clus scale="   82.349">  5  6 -1 -1</clus>
<clus scale="   92.067">  7  8 -1 -1</clus>
<clus scale="   93.330">  1  5  2 -1</clus>
<clus scale="   52.295">  2  5  1 -1</clus>
</clustering>
</event>
<event>
 9    1  0.6270443E-005  0.9276222E+02  0.7546771E-02  0.1300707E+00
         21   -1    0    0  501  502  0.00000000000E+00  0.00000000000E+00  0.46514839096E+02  0.46514839096E+02  0.00000000000E+00 0.  1.
          1   -1    0    0  502    0 -0.00000000000E+00 -0.00000000000E+00 -0.36431035531E+03  0.36431035531E+03  0.00000000000E+00 0. -1.
         23    2    1    2    0    0  0.23060402207E+02  0.17169893478E+02 -0.26353955965E+03  0.27943620305E+03  0.88345371616E+02 0.  0.
        -24    2    1    2    0    0 -0.33640577621E+02  0.43220730997E+01 -0.20330043703E+02  0.89858131707E+02  0.80689555572E+02 0.  0.
         13    1    4    4    0    0 -0.43745630173E+02 -0.19506001265E+02 -0.35716248195E+02  0.59747925735E+02  0.00000000000E+00 0. -1.
        -14    1    4    4    0    0  0.10105052551E+02  0.23828074365E+02  0.15386204492E+02  0.30110205972E+02  0.00000000000E+00 0.  1.
        -11    1    3    3    0    0 -0.24281267229E+02  0.32190286798E+02 -0.84368552227E+02  0.93508540290E+02  0.00000000000E+00 0.  1.
         11    1    3    3    0    0  0.47341669436E+02 -0.15020393321E+02 -0.17917100742E+03  0.18592766276E+03  0.00000000000E+00 0. -1.
          2    1    1    2  501    0  0.10580175415E+02 -0.21491966578E+02 -0.33925912862E+02  0.41530859643E+02  0.00000000000E+00 0. -1.
<scales pt_clust_5="13000.00000" pt_clust_6="13000.00000" pt_clust_7="13000.00000" pt_clust_8="13000.00000" pt_clust_9="23.95507"></scales>
<clustering>
<clus scale="   23.955">  1  9  2 -1</clus>
<clus scale="   80.690">  5  6 -1 -1</clus>
<clus scale="   85.503">  1  5  2 -1</clus>
<clus scale="   88.345">  7  8 -1 -1</clus>
<clus scale="   23.955">  1  5  2 -1</clus>
</clustering>
</event>
<event>
 9    1  0.6270443E-005  0.1584513E+03  0.7546771E-02  0.1192248E+00
         21   -1    0    0  501  502  0.00000000000E+00  0.00000000000E+00  0.91894685597E+02  0.91894685597E+02  0.00000000000E+00 0. -1.
          1   -1    0    0  502    0 -0.00000000000E+00 -0.00000000000E+00 -0.55902520434E+03  0.55902520434E+03  0.00000000000E+00 0. -1.
        -24    2    1    2    0    0  0.76252718241E+02  0.33434157781E+02 -0.63836639981E+02  0.13227769190E+03  0.80560233518E+02 0.  0.
         23    2    1    2    0    0 -0.15675556594E+03 -0.10562513223E+03 -0.20921457760E+03  0.29647329738E+03  0.91633512249E+02 0.  0.
         13    1    3    3    0    0  0.38212856435E+02 -0.25191812191E+02 -0.29076738943E+02  0.54224593552E+02  0.00000000000E+00 0. -1.
        -14    1    3    3    0    0  0.38039861807E+02  0.58625969972E+02 -0.34759901038E+02  0.78053098347E+02  0.00000000000E+00 0.  1.
        -11    1    4    4    0    0 -0.14250214356E+03 -0.12224161216E+03 -0.19278265993E+03  0.26910040251E+03  0.00000000000E+00 0. -1.
         11    1    4    4    0    0 -0.14253422387E+02  0.16616479936E+02 -0.16431917669E+02  0.27372894868E+02  0.00000000000E+00 0.  1.
          2    1    1    2  501    0  0.80502847703E+02  0.72190974444E+02 -0.19407930116E+03  0.22216890066E+03  0.00000000000E+00 0. -1.
<scales pt_clust_5="13000.00000" pt_clust_6="13000.00000" pt_clust_7="13000.00000" pt_clust_8="13000.00000" pt_clust_9="108.13074"></scales>
<clustering>
<clus scale="   80.560">  5  6 -1 -1</clus>
<clus scale="   91.634">  7  8 -1 -1</clus>
<clus scale="  108.131">  1  9  2 -1</clus>
<clus scale="  152.316">  2  5  1 -1</clus>
<clus scale="  108.131">  1  5  2 -1</clus>
</clustering>
</event>
<event>
 9    1  0.6270443E-005  0.1570080E+03  0.7546771E-02  0.1194430E+00
         21   -1    0    0  501  502  0.00000000000E+00  0.00000000000E+00  0.12085075194E+03  0.12085075194E+03  0.00000000000E+00 0. -1.
          1   -1    0    0  502    0 -0.00000000000E+00 -0.00000000000E+00 -0.58893596752E+03  0.58893596752E+03  0.00000000000E+00 0. -1.
        -24    2    1    2    0    0 -0.44159042701E+02  0.10864845738E+03 -0.12219729797E+03  0.18649501693E+03  0.78062176265E+02 0.  0.
         23    2    1    2    0    0  0.16621922164E+03 -0.74005512422E+02 -0.63281627181E+02  0.21350930098E+03  0.92065258126E+02 0.  0.
         13    1    3    3    0    0  0.97169618691E+01  0.53298661147E+02 -0.84916905195E+02  0.10072759014E+03  0.00000000000E+00 0. -1.
        -14    1    3    3    0    0 -0.53876004570E+02  0.55349796234E+02 -0.37280392779E+02  0.85767426785E+02  0.00000000000E+00 0.  1.
        -11    1    4    4    0    0  0.98872583736E+02 -0.43976757665E+02  0.11090798219E+02  0.10877843920E+03  0.00000000000E+00 0.  1.
         11    1    4    4    0    0  0.67346637906E+02 -0.30028754757E+02 -0.74372425400E+02  0.10473086178E+03  0.00000000000E+00 0. -1.
          2    1    1    2  501    0 -0.12206017894E+03 -0.34642944959E+02 -0.28260629043E+03  0.30978240154E+03  0.00000000000E+00 0. -1.
<scales pt_clust_5="13000.00000" pt_clust_6="13000.00000" pt_clust_7="13000.00000" pt_clust_8="13000.00000" pt_clust_9="126.88119"></scales>
<clustering>
<clus scale="   78.062">  5  6 -1 -1</clus>
<clus scale="   92.065">  7  8 -1 -1</clus>
<clus scale="  126.881">  1  9  2 -1</clus>
<clus scale="  149.229">  2  5  1 -1</clus>
<clus scale="  126.881">  1  5  2 -1</clus>
</clustering>
</event>
<event>
 9    1  0.6270443E-005  0.1289994E+03  0.7546771E-02  0.1231627E+00
          1   -1    0    0  502    0 -0.00000000000E+00  0.00000000000E+00  0.27363499180E+03  0.27363499180E+03  0.00000000000E+00 0. -1.
         21   -1    0    0  501  502  0.00000000000E+00 -0.00000000000E+00 -0.13785506828E+03  0.13785506828E+03  0.00000000000E+00 0.  1.
        -24    2    1    2    0    0 -0.82754734717E+02  0.54582947707E+02  0.19179831985E+03  0.23038637307E+03  0.80396772951E+02 0.  0.
         23    2    1    2    0    0  0.44307861535E+02 -0.28512116165E+02 -0.77089334636E+02  0.13009550379E+03  0.90586683509E+02 0.  0.
         13    1    3    3    0    0 -0.49787797399E+02  0.47219702473E+01  0.14817404509E+03  0.15638628268E+03  0.00000000000E+00 0. -1.
        -14    1    3    3    0    0 -0.32966937318E+02  0.49860977460E+02  0.43624274764E+02  0.74000090392E+02  0.00000000000E+00 0.  1.
        -13    1    4    4    0    0  0.24109852898E+02 -0.47519876267E+02 -0.85820936018E+02  0.10101810088E+03  0.00000000000E+00 0.  1.
         13    1    4    4    0    0  0.20198008636E+02  0.19007760102E+02  0.87316013818E+01  0.29077402904E+02  0.00000000000E+00 0. -1.
          2    1    1    2  501    0  0.38446873183E+02 -0.26070831542E+02  0.21070938303E+02  0.51008183224E+02  0.00000000000E+00 0. -1.
<scales pt_clust_5="13000.00000" pt_clust_6="13000.00000" pt_clust_7="13000.00000" pt_clust_8="13000.00000" pt_clust_9="46.45269"></scales>
<clustering>
<clus scale="   46.453">  2  9  1 -1</clus>
<clus scale="   80.397">  5  6 -1 -1</clus>
<clus scale="   90.587">  7  8 -1 -1</clus>
<clus scale="  122.060">  1  5  2 -1</clus>
<clus scale="   46.453">  2  5  1 -1</clus>
</clustering>
</event>
<event>
 9    1  0.6270443E-005  0.1190854E+03  0.7546771E-02  0.1245458E+00
         21   -1    0    0  501  502  0.00000000000E+00  0.00000000000E+00  0.40861597131E+03  0.40861597131E+03  0.00000000000E+00 0.  1.
          1   -1    0    0  502    0 -0.00000000000E+00 -0.00000000000E+00 -0.89457319449E+02  0.89457319449E+02  0.00000000000E+00 0. -1.
         23    2    1    2    0    0 -0.67848248307E+02 -0.25320689030E+02  0.29954347765E+02  0.11443169941E+03  0.83383624218E+02 0.  0.
        -24    2    1    2    0    0  0.12665999671E+03  0.51702445061E+02  0.27517818228E+03  0.31767530530E+03  0.80490185764E+02 0.  0.
         11    1    4    4    0    0  0.50695851882E+02  0.33761186550E+02  0.48267522716E+02  0.77715126356E+02  0.00000000000E+00 0. -1.
        -12    1    4    4    0    0  0.75964144828E+02  0.17941258511E+02  0.22691065956E+03  0.23996017895E+03  0.00000000000E+00 0.  1.
        -11    1    3    3    0    0 -0.25926969451E+02 -0.49894467197E+02  0.33936253426E+02  0.65675984183E+02  0.00000000000E+00 0.  1.
         11    1    3    3    0    0 -0.41921278856E+02  0.24573778167E+02 -0.39819056606E+01  0.48755715224E+02  0.00000000000E+00 0. -1.
          2    1    1    2  501    0 -0.58811748403E+02 -0.26381756031E+02  0.14026121812E+02  0.65966286045E+02  0.00000000000E+00 0. -1.
<scales pt_clust_5="13000.00000" pt_clust_6="13000.00000" pt_clust_7="13000.00000" pt_clust_8="13000.00000" pt_clust_9="64.45792"></scales>
<clustering>
<clus scale="   64.458">  1  9  2 -1</clus>
<clus scale="   80.490">  5  6 -1 -1</clus>
<clus scale="   83.384">  7  8 -1 -1</clus>
<clus scale="  117.078">  1  5  2 -1</clus>
<clus scale="   64.458">  1  5  2 -1</clus>
</clustering>
</event>
<event>
 9    1  0.6270443E-005  0.1305862E+03  0.7546771E-02  0.1231306E+00
         21   -1    0    0  501  502  0.00000000000E+00  0.00000000000E+00  0.10418805016E+03  0.10418805016E+03  0.00000000000E+00 0. -1.
         -2   -1    0    0    0  501 -0.00000000000E+00 -0.00000000000E+00 -0.77003655239E+03  0.77003655239E+03  0.00000000000E+00 0.  1.
        -24    2    1    2    0    0 -0.41210927918E+02  0.77204786237E+02 -0.60143299770E+03  0.61259930252E+03  0.76794108684E+02 0.  0.
         23    2    1    2    0    0  0.93595351793E+02 -0.70429664971E+02 -0.11430933046E+03  0.18896565511E+03  0.94450877168E+02 0.  0.
         13    1    3    3    0    0  0.14630900110E+02  0.32527346971E+02 -0.10165033107E+03  0.10772595483E+03  0.00000000000E+00 0. -1.
        -14    1    3    3    0    0 -0.55841828028E+02  0.44677439266E+02 -0.49978266663E+03  0.50487334769E+03  0.00000000000E+00 0.  1.
        -11    1    4    4    0    0  0.72630029389E+01 -0.42506055408E+02 -0.12840888508E+00  0.43122296401E+02  0.00000000000E+00 0.  1.
         11    1    4    4    0    0  0.86332348854E+02 -0.27923609563E+02 -0.11418092157E+03  0.14584335871E+03  0.00000000000E+00 0. -1.
         -1    1    1    2    0  502 -0.52384423875E+02 -0.67751212662E+01  0.49893825934E+02  0.72659644916E+02  0.00000000000E+00 0.  1.
<scales pt_clust_5="13000.00000" pt_clust_6="13000.00000" pt_clust_7="13000.00000" pt_clust_8="13000.00000" pt_clust_9="52.82074"></scales>
<clustering>
<clus scale="   52.821">  1  9  2 -1</clus>
<clus scale="   76.794">  5  6 -1 -1</clus>
<clus scale="   94.451">  7  8 -1 -1</clus>
<clus scale="  118.445">  2  5  1 -1</clus>
<clus scale="   52.821">  1  5  2 -1</clus>
</clustering>
</event>
<event>
 9    1  0.6270443E-005  0.1057108E+03  0.7546771E-02  0.1273839E+00
          1   -1    0    0  502    0 -0.00000000000E+00  0.00000000000E+00  0.70022915400E+03  0.70022915400E+03  0.00000000000E+00 0. -1.
         21   -1    0    0  501  502  0.00000000000E+00 -0.00000000000E+00 -0.19762304898E+02  0.19762304898E+02  0.00000000000E+00 0. -1.
         23    2    1    2    0    0 -0.49714797368E+02  0.65061473448E+00  0.38893963225E+03  0.40275710313E+03  0.92017727680E+02 0.  0.
        -24    2    1    2    0    0  0.53002516008E+02 -0.25347328531E+02  0.21994366150E+03  0.24143895906E+03  0.80410216697E+02 0.  0.
         11    1    4    4    0    0  0.41998005185E+02  0.10720224754E+02  0.18506353366E+03  0.19007174212E+03  0.00000000000E+00 0. -1.
        -12    1    4    4    0    0  0.11004510823E+02 -0.36067553285E+02  0.34880127835E+02  0.51367216941E+02  0.00000000000E+00 0.  1.
        -13    1    3    3    0    0 -0.57702446947E+02  0.35278084641E+02  0.22183915498E+03  0.23191965488E+03  0.00000000000E+00 0.  1.
         13    1    3    3    0    0  0.79876495789E+01 -0.34627469907E+02  0.16710047728E+03  0.17083744825E+03  0.00000000000E+00 0. -1.
          2    1    1    2  501    0 -0.32877186399E+01  0.24696713797E+02  0.71583555348E+02  0.75795396710E+02  0.00000000000E+00 0. -1.
<scales pt_clust_5="13000.00000" pt_clust_6="13000.00000" pt_clust_7="13000.00000" pt_clust_8="13000.00000" pt_clust_9="24.91459"></scales>
<clustering>
<clus scale="   24.915">  2  9  1 -1</clus>
<clus scale="   80.410">  5  6 -1 -1</clus>
<clus scale="   92.018">  7  8 -1 -1</clus>
<clus scale="   95.777">  2  5  1 -1</clus>
<clus scale="   24.915">  2  5  1 -1</clus>
</clustering>
</event>
<event>
 9    1  0.6270443E-005  0.1554294E+03  0.7546771E-02  0.1220586E+00
         21   -1    0    0  501  502  0.00000000000E+00  0.00000000000E+00  0.41959349853E+02  0.41959349853E+02  0.00000000000E+00 0. -1.
          3   -1    0    0  502    0 -0.00000000000E+00 -0.00000000000E+00 -0.94467120490E+03  0.94467120490E+03  0.00000000000E+00 0. -1.
        -24    2    1    2    0    0  0.21290348054E+01  0.30277359351E+02 -0.36935893962E+03  0.37964658763E+03  0.82366582668E+02 0.  0.
         23    2    1    2    0    0 -0.11540886302E+03 -0.77047002815E+02 -0.34558021949E+03  0.38275572544E+03  0.88435348964E+02 0.  0.
         13    1    3    3    0    0  0.27766330014E+02 -0.16271849664E+02 -0.18511426329E+03  0.18789101268E+03  0.00000000000E+00 0. -1.
        -14    1    3    3    0    0 -0.25637295209E+02  0.46549209014E+02 -0.18424467633E+03  0.19175557495E+03  0.00000000000E+00 0.  1.
        -13    1    4    4    0    0 -0.93846298020E+02 -0.40448365643E+02 -0.14295100584E+03  0.17572190531E+03  0.00000000000E+00 0. -1.
         13    1    4    4    0    0 -0.21562565004E+02 -0.36598637172E+02 -0.20262921365E+03  0.20703382013E+03  0.00000000000E+00 0.  1.
          4    1    1    2  501    0  0.11327982822E+03  0.46769643465E+02 -0.18777269594E+03  0.22422824169E+03  0.00000000000E+00 0. -1.
<scales pt_clust_5="13000.00000" pt_clust_6="13000.00000" pt_clust_7="13000.00000" pt_clust_8="13000.00000" pt_clust_9="127.81818"></scales>
<clustering>
<clus scale="   82.367">  5  6 -1 -1</clus>
<clus scale="   87.781">  2  5  1 -1</clus>
<clus scale="   88.435">  7  8 -1 -1</clus>
<clus scale="  127.818">  1  9  2 -1</clus>
<clus scale="  127.818">  1  5  2 -1</clus>
</clustering>
</event>
<event>
 9    1  0.6270443E-005  0.1674305E+03  0.7546771E-02  0.1193873E+00
         21   -1    0    0  501  502  0.00000000000E+00  0.00000000000E+00  0.18085177921E+03  0.18085177921E+03  0.00000000000E+00 0. -1.
          3   -1    0    0  502    0 -0.00000000000E+00 -0.00000000000E+00 -0.68767437965E+03  0.68767437965E+03  0.00000000000E+00 0. -1.
        -24    2    1    2    0    0 -0.90355885477E+02 -0.32962676119E+02  0.10187981783E+03  0.16092739030E+03  0.79166935081E+02 0.  0.
         23    2    1    2    0    0 -0.17716938745E+01  0.14736781507E+03 -0.16145166512E+03  0.23684483828E+03  0.91150564623E+02 0.  0.
         11    1    3    3    0    0 -0.88259567073E+02 -0.35899350666E+02  0.47566826982E+02  0.10649468338E+03  0.00000000000E+00 0. -1.
        -12    1    3    3    0    0 -0.20963184038E+01  0.29366745462E+01  0.54312990846E+02  0.54432706922E+02  0.00000000000E+00 0.  1.
        -11    1    4    4    0    0 -0.15544259269E+02  0.13146317144E+03 -0.16883779506E+03  0.21454694237E+03  0.00000000000E+00 0. -1.
         11    1    4    4    0    0  0.13772565395E+02  0.15904643624E+02  0.73861299346E+01  0.22297895904E+02  0.00000000000E+00 0.  1.
          4    1    1    2  501    0  0.92127579352E+02 -0.11440513895E+03 -0.44725075314E+03  0.47075393029E+03  0.00000000000E+00 0. -1.
<scales pt_clust_5="13000.00000" pt_clust_6="13000.00000" pt_clust_7="13000.00000" pt_clust_8="13000.00000" pt_clust_9="140.44421"></scales>
<clustering>
<clus scale="   79.167">  5  6 -1 -1</clus>
<clus scale="   91.151">  7  8 -1 -1</clus>
<clus scale="  124.572">  2  5  1 -1</clus>
<clus scale="  140.444">  1  9  2 -1</clus>
<clus scale="  140.444">  1  5  2 -1</clus>
</clustering>
</event>
<event>
 9    1  0.6270443E-005  0.2161392E+03  0.7546771E-02  0.1138412E+00
          3   -1    0    0  502    0 -0.00000000000E+00  0.00000000000E+00  0.33589373483E+03  0.33589373483E+03  0.00000000000E+00 0. -1.
         21   -1    0    0  501  502  0.00000000000E+00 -0.00000000000E+00 -0.19383473353E+03  0.19383473353E+03  0.00000000000E+00 0.  1.
         23    2    1    2    0    0 -0.19549963509E+03  0.42747844099E+02  0.20147381124E+03  0.30093422859E+03  0.99610380105E+02 0.  0.
        -24    2    1    2    0    0  0.16835164535E+03 -0.27306839547E+02 -0.59509511523E+02  0.19756209390E+03  0.80009118261E+02 0.  0.
         11    1    4    4    0    0  0.96112012993E+02 -0.48911193688E+02 -0.12155935229E+02  0.10852460860E+03  0.00000000000E+00 0. -1.
        -12    1    4    4    0    0  0.72239632360E+02  0.21604354141E+02 -0.47353576294E+02  0.89037485304E+02  0.00000000000E+00 0.  1.
        -11    1    3    3    0    0 -0.12496627775E+03  0.50404297973E+02  0.70736638968E+02  0.15218684542E+03  0.00000000000E+00 0.  1.
         11    1    3    3    0    0 -0.70533357343E+02 -0.76564538744E+01  0.13073717227E+03  0.14874738316E+03  0.00000000000E+00 0. -1.
          4    1    1    2  501    0  0.27147989735E+02 -0.15441004552E+02  0.94701584589E-01  0.31232145886E+02  0.00000000000E+00 0. -1.
<scales pt_clust_5="13000.00000" pt_clust_6="13000.00000" pt_clust_7="13000.00000" pt_clust_8="13000.00000" pt_clust_9="31.23200"></scales>
<clustering>
<clus scale="   31.232">  2  9  1 -1</clus>
<clus scale="   80.009">  5  6 -1 -1</clus>
<clus scale="   99.610">  7  8 -1 -1</clus>
<clus scale="  207.835">  2  5  1 -1</clus>
<clus scale="   31.232">  2  5  1 -1</clus>
</clustering>
</event>
<event>
 9    1  0.6270443E-005  0.9485547E+02  0.7546771E-02  0.1296948E+00
         21   -1    0    0  501  502  0.00000000000E+00  0.00000000000E+00  0.52238530712E+03  0.52238530712E+03  0.00000000000E+00 0. -1.
         -4   -1    0    0    0  501 -0.00000000000E+00 -0.00000000000E+00 -0.29570932667E+02  0.29570932667E+02  0.00000000000E+00 0.  1.
        -24    2    1    2    0    0 -0.11927873164E+02  0.32843578509E+02  0.71688237875E+02  0.11360788026E+03  0.80910890494E+02 0.  0.
         23    2    1    2    0    0  0.99203386837E+01 -0.31611487413E+01  0.29474412071E+03  0.30851195952E+03  0.90537983700E+02 0.  0.
         13    1    3    3    0    0  0.34576246121E+02  0.19249475228E+02  0.35059986814E+02  0.52870235178E+02  0.00000000000E+00 0. -1.
        -14    1    3    3    0    0 -0.46504119286E+02  0.13594103281E+02  0.36628251060E+02  0.60737645083E+02  0.00000000000E+00 0.  1.
        -11    1    4    4    0    0 -0.35879725980E+02 -0.20664744471E+02  0.15413323777E+03  0.15959774869E+03  0.00000000000E+00 0.  1.
         11    1    4    4    0    0  0.45800064664E+02  0.17503595730E+02  0.14061088294E+03  0.14891421083E+03  0.00000000000E+00 0. -1.
         -3    1    1    2    0  502  0.20075344807E+01 -0.29682429768E+02  0.12638201587E+03  0.12983640001E+03  0.00000000000E+00 0.  1.
<scales pt_clust_5="13000.00000" pt_clust_6="13000.00000" pt_clust_7="13000.00000" pt_clust_8="13000.00000" pt_clust_9="29.75024"></scales>
<clustering>
<clus scale="   29.750">  1  9  2 -1</clus>
<clus scale="   80.911">  5  6 -1 -1</clus>
<clus scale="   85.715">  2  5  1 -1</clus>
<clus scale="   90.538">  7  8 -1 -1</clus>
<clus scale="   29.750">  1  5  2 -1</clus>
</clustering>
</event>
<event>
 9    1  0.6270443E-005  0.3907423E+03  0.7546771E-02  0.1047228E+00
         21   -1    0    0  501  502  0.00000000000E+00  0.00000000000E+00  0.22548719473E+03  0.22548719473E+03  0.00000000000E+00 0. -1.
          3   -1    0    0  502    0 -0.00000000000E+00 -0.00000000000E+00 -0.10919081596E+04  0.10919081596E+04  0.00000000000E+00 0. -1.
         23    2    1    2    0    0 -0.26218352485E+03  0.32720769148E+03 -0.51466956177E+03  0.67011460155E+03  0.91453525587E+02 0.  0.
        -24    2    1    2    0    0  0.23746942662E+03 -0.20667626308E+03 -0.60096776601E+02  0.33073528520E+03  0.81654148814E+02 0.  0.
         13    1    4    4    0    0  0.54519868824E+02 -0.96934733000E+02 -0.10522125567E+02  0.11171156469E+03  0.00000000000E+00 0. -1.
        -14    1    4    4    0    0  0.18294955780E+03 -0.10974153008E+03 -0.49574651033E+02  0.21902372051E+03  0.00000000000E+00 0.  1.
        -13    1    3    3    0    0 -0.18449267997E+03  0.23561909128E+03 -0.29764325917E+03  0.42207276016E+03  0.00000000000E+00 0. -1.
         13    1    3    3    0    0 -0.77690844878E+02  0.91588600196E+02 -0.21702630259E+03  0.24804184139E+03  0.00000000000E+00 0.  1.
          4    1    1    2  501    0  0.24714098224E+02 -0.12053142840E+03 -0.29165462654E+03  0.31654546761E+03  0.00000000000E+00 0. -1.
<scales pt_clust_5="13000.00000" pt_clust_6="13000.00000" pt_clust_7="13000.00000" pt_clust_8="13000.00000" pt_clust_9="123.03913"></scales>
<clustering>
<clus scale="   81.654">  5  6 -1 -1</clus>
<clus scale="   91.454">  7  8 -1 -1</clus>
<clus scale="  123.039">  1  9  2 -1</clus>
<clus scale="  388.566">  1  5  2 -1</clus>
<clus scale="  123.039">  1  5  2 -1</clus>
</clustering>
</event>
<event>
 9    1  0.6270443E-005  0.9946098E+02  0.7546771E-02  0.1283695E+00
         21   -1    0    0  501  502  0.00000000000E+00  0.00000000000E+00  0.77189313885E+02  0.77189313885E+02  0.00000000000E+00 0.  1.
          3   -1    0    0  502    0 -0.00000000000E+00 -0.00000000000E+00 -0.16250947406E+03  0.16250947406E+03  0.00000000000E+00 0. -1.
         23    2    1    2    0    0 -0.16331343405E+02  0.38879642714E+02 -0.66924327036E+02  0.12206828755E+03  0.92970220404E+02 0.  0.
        -24    2    1    2    0    0  0.23035197501E+02 -0.16932505815E+02 -0.17742533261E+02  0.94673033659E+02  0.88492122467E+02 0.  0.
         13    1    4    4    0    0  0.15908769535E+02 -0.53400553271E+02 -0.12974494581E+02  0.57210537031E+02  0.00000000000E+00 0. -1.
        -14    1    4    4    0    0  0.71264279668E+01  0.36468047456E+02 -0.47680386804E+01  0.37462496629E+02  0.00000000000E+00 0.  1.
        -11    1    3    3    0    0  0.92162908346E+01  0.31526229085E+02 -0.84188950742E+02  0.90369367399E+02  0.00000000000E+00 0.  1.
         11    1    3    3    0    0 -0.25547634240E+02  0.73534136288E+01  0.17264623706E+02  0.31698920154E+02  0.00000000000E+00 0. -1.
          4    1    1    2  501    0 -0.67038540960E+01 -0.21947136899E+02 -0.65329987295E+00  0.22957466727E+02  0.00000000000E+00 0. -1.
<scales pt_clust_5="13000.00000" pt_clust_6="13000.00000" pt_clust_7="13000.00000" pt_clust_8="13000.00000" pt_clust_9="22.94817"></scales>
<clustering>
<clus scale="   22.948">  1  9  2 -1</clus>
<clus scale="   88.492">  5  6 -1 -1</clus>
<clus scale="   92.970">  7  8 -1 -1</clus>
<clus scale="   95.288">  1  5  2 -1</clus>
<clus scale="   22.948">  1  5  2 -1</clus>
</clustering>
</event>
<event>
 9    1  0.6270443E-005  0.3087369E+03  0.7546771E-02  0.1081252E+00
         21   -1    0    0  501  502  0.00000000000E+00  0.00000000000E+00  0.42964338962E+03  0.42964338962E+03  0.00000000000E+00 0.  1.
         -2   -1    0    0    0  501 -0.00000000000E+00 -0.00000000000E+00 -0.31202862923E+03  0.31202862923E+03  0.00000000000E+00 0.  1.
        -24    2    1    2    0    0  0.18673119640E+03 -0.16878196145E+03  0.42469665346E+02  0.26799430700E+03  0.81617313673E+02 0.  0.
         23    2    1    2    0    0 -0.26058199192E+03  0.23921304453E+03  0.49506484933E+02  0.36845501567E+03  0.90456350466E+02 0.  0.
         11    1    3    3    0    0  0.10095829397E+03 -0.38971419889E+02  0.71991580453E+01  0.10845817888E+03  0.00000000000E+00 0. -1.
        -12    1    3    3    0    0  0.85772902435E+02 -0.12981054156E+03  0.35270507300E+02  0.15953612812E+03  0.00000000000E+00 0.  1.
        -11    1    4    4    0    0 -0.21862858455E+03  0.19834016998E+03  0.55825177600E+01  0.29524302789E+03  0.00000000000E+00 0.  1.
         11    1    4    4    0    0 -0.41953407364E+02  0.40872874552E+02  0.43923967173E+02  0.73211987788E+02  0.00000000000E+00 0. -1.
         -1    1    1    2    0  502  0.73850795515E+02 -0.70431083087E+02  0.25638610108E+02  0.10522269618E+03  0.00000000000E+00 0.  1.
<scales pt_clust_5="13000.00000" pt_clust_6="13000.00000" pt_clust_7="13000.00000" pt_clust_8="13000.00000" pt_clust_9="102.05135"></scales>
<clustering>
<clus scale="   81.617">  5  6 -1 -1</clus>
<clus scale="   90.456">  7  8 -1 -1</clus>
<clus scale="  102.051">  1  9  2 -1</clus>
<clus scale="  306.264">  2  5  1 -1</clus>
<clus scale="  102.051">  1  5  2 -1</clus>
</clustering>
</event>
<event>
 9    1  0.6270443E-005  0.1960960E+03  0.7546771E-02  0.1187472E+00
         -4   -1    0    0    0  501 -0.00000000000E+00  0.00000000000E+00  0.14047845298E+03  0.14047845298E+03  0.00000000000E+00 0.  1.
         21   -1    0    0  501  502  0.00000000000E+00 -0.00000000000E+00 -0.42570495522E+03  0.42570495522E+03  0.00000000000E+00 0.  1.
        -24    2    1    2    0    0 -0.66338588970E+01 -0.39317013553E+02 -0.45654570810E+01  0.89419334416E+02  0.79907060579E+02 0.  0.
         23    2    1    2    0    0  0.77658625975E+02 -0.12959525048E+03 -0.55125102867E+02  0.18617444606E+03  0.93788892007E+02 0.  0.
         11    1    3    3    0    0  0.14473274674E+02  0.17342701093E+02 -0.16263940697E+02  0.27834524030E+02  0.00000000000E+00 0. -1.
        -12    1    3    3    0    0 -0.21107133571E+02 -0.56659714646E+02  0.11698483616E+02  0.61584810386E+02  0.00000000000E+00 0.  1.
        -11    1    4    4    0    0  0.95971742661E+02 -0.84498739969E+02 -0.49745322040E+02  0.13720499084E+03  0.00000000000E+00 0.  1.
         11    1    4    4    0    0 -0.18313116686E+02 -0.45096510509E+02 -0.53797808275E+01  0.48969455220E+02  0.00000000000E+00 0. -1.
         -3    1    1    2    0  502 -0.71024767078E+02  0.16891226403E+03 -0.22553594229E+03  0.29058962773E+03  0.00000000000E+00 0.  1.
<scales pt_clust_5="13000.00000" pt_clust_6="13000.00000" pt_clust_7="13000.00000" pt_clust_8="13000.00000" pt_clust_9="172.21289"></scales>
<clustering>
<clus scale="   79.907">  5  6 -1 -1</clus>
<clus scale="   89.303">  1  5  2 -1</clus>
<clus scale="   93.789">  7  8 -1 -1</clus>
<clus scale="  172.213">  2  9  1 -1</clus>
<clus scale="  172.213">  2  5  1 -1</clus>
</clustering>
</event>
<event>
 9    1  0.6270443E-005  0.1367786E+03  0.7546771E-02  0.1237639E+00
         21   -1    0    0  501  502  0.00000000000E+00  0.00000000000E+00  0.37580248326E+03  0.37580248326E+03  0.00000000000E+00 0. -1.
          1   -1    0    0  502    0 -0.00000000000E+00 -0.00000000000E+00 -0.25237716593E+03  0.25237716593E+03  0.00000000000E+00 0. -1.
        -24    2    1    2    0    0  0.17995247080E+02 -0.59506614205E+01  0.13709207718E+03  0.16428527578E+03  0.88522171936E+02 0.  0.
         23    2    1    2    0    0 -0.72359575888E+02 -0.80492589854E+02 -0.20387293460E+03  0.24800943913E+03  0.90716829685E+02 0.  0.
         11    1    3    3    0    0 -0.32048509216E+02 -0.19459400472E+02  0.44669763777E+02  0.58319490786E+02  0.00000000000E+00 0. -1.
        -12    1    3    3    0    0  0.50043756295E+02  0.13508739052E+02  0.92422313402E+02  0.10596578499E+03  0.00000000000E+00 0.  1.
        -13    1    4    4    0    0 -0.91909456648E+02 -0.70174703527E+02 -0.18828912726E+03  0.22096296676E+03  0.00000000000E+00 0. -1.
         13    1    4    4    0    0  0.19549880761E+02 -0.10317886327E+02 -0.15583807344E+02  0.27046472364E+02  0.00000000000E+00 0.  1.
          2    1    1    2  501    0  0.54364328808E+02  0.86443251274E+02  0.19020617475E+03  0.21588493429E+03  0.00000000000E+00 0. -1.
<scales pt_clust_5="13000.00000" pt_clust_6="13000.00000" pt_clust_7="13000.00000" pt_clust_8="13000.00000" pt_clust_9="102.36622"></scales>
<clustering>
<clus scale="   88.522">  5  6 -1 -1</clus>
<clus scale="   90.529">  2  5  1 -1</clus>
<clus scale="   90.717">  7  8 -1 -1</clus>
<clus scale="  102.366">  1  9  2 -1</clus>
<clus scale="  102.366">  1  5  2 -1</clus>
</clustering>
</event>
<event>
 9    1  0.6270443E-005  0.9975119E+02  0.7546771E-02  0.1285895E+00
         -4   -1    0    0    0  501 -0.00000000000E+00  0.00000000000E+00  0.36964219348E+03  0.36964219348E+03  0.00000000000E+00 0.  1.
         21   -1    0    0  501  502  0.00000000000E+00 -0.00000000000E+00 -0.44761857740E+02  0.44761857740E+02  0.00000000000E+00 0.  1.
         23    2    1    2    0    0 -0.27742844415E+02 -0.43112250026E+02  0.26802488579E+03  0.28666447546E+03  0.87811448963E+02 0.  0.
        -24    2    1    2    0    0  0.24417874438E+01  0.40852655296E+02  0.52423456032E+02  0.10195407941E+03  0.77275570489E+02 0.  0.
         11    1    4    4    0    0  0.43138478375E+01 -0.21654427837E+02  0.25879379148E+02  0.34018609513E+02  0.00000000000E+00 0. -1.
        -12    1    4    4    0    0 -0.18720603936E+01  0.62507083133E+02  0.26544076884E+02  0.67935469892E+02  0.00000000000E+00 0.  1.
        -11    1    3    3    0    0 -0.48526957081E+02 -0.31110182724E+02  0.25023822317E+03  0.25679150564E+03  0.00000000000E+00 0.  1.
         11    1    3    3    0    0  0.20784112666E+02 -0.12002067302E+02  0.17786662623E+02  0.29872969824E+02  0.00000000000E+00 0. -1.
         -3    1    1    2    0  502  0.25301056971E+02  0.22595947308E+01  0.44319939169E+01  0.25785496355E+02  0.00000000000E+00 0.  1.
<scales pt_clust_5="13000.00000" pt_clust_6="13000.00000" pt_clust_7="13000.00000" pt_clust_8="13000.00000" pt_clust_9="25.40176"></scales>
<clustering>
<clus scale="   25.402">  2  9  1 -1</clus>
<clus scale="   77.276">  5  6 -1 -1</clus>
<clus scale="   87.811">  7  8 -1 -1</clus>
<clus scale="   90.614">  2  5  1 -1</clus>
<clus scale="   25.402">  2  5  1 -1</clus>
</clustering>
</event>
<event>
 9    1  0.6270443E-005  0.1826852E+03  0.7546771E-02  0.1194132E+00
         -2   -1    0    0    0  501 -0.00000000000E+00  0.00000000000E+00  0.26882866904E+03  0.26882866904E+03  0.00000000000E+00 0.  1.
         21   -1    0    0  501  502  0.00000000000E+00 -0.00000000000E+00 -0.19723506208E+03  0.19723506208E+03  0.00000000000E+00 0. -1.
         23    2    1    2    0    0 -0.51966408725E+01 -0.33661509189E+02 -0.15141135166E+02  0.96549324657E+02  0.89064110844E+02 0.  0.
        -24    2    1    2    0    0 -0.29447306569E+02  0.18296544243E+03  0.77597423351E+02  0.21597171478E+03  0.79239664854E+02 0.  0.
         13    1    4    4    0    0  0.42953049903E+01  0.12755989423E+03  0.19939859001E+02  0.12918039417E+03  0.00000000000E+00 0. -1.
        -14    1    4    4    0    0 -0.33742611559E+02  0.55405548197E+02  0.57657564350E+02  0.86791320607E+02  0.00000000000E+00 0.  1.
        -13    1    3    3    0    0 -0.23663636631E+02 -0.58308600912E+02 -0.17113473708E+01  0.62950689820E+02  0.00000000000E+00 0.  1.
         13    1    3    3    0    0  0.18466995759E+02  0.24647091723E+02 -0.13429787795E+02  0.33598634838E+02  0.00000000000E+00 0. -1.
         -1    1    1    2    0  502  0.34643947442E+02 -0.14930393324E+03  0.91373187711E+01  0.15354269168E+03  0.00000000000E+00 0.  1.
<scales pt_clust_5="13000.00000" pt_clust_6="13000.00000" pt_clust_7="13000.00000" pt_clust_8="13000.00000" pt_clust_9="164.60548"></scales>
<clustering>
<clus scale="   79.240">  5  6 -1 -1</clus>
<clus scale="   89.064">  7  8 -1 -1</clus>
<clus scale="   95.355">  1  7  2 -1</clus>
<clus scale="  164.605">  2  9  1 -1</clus>
<clus scale="  164.605">  2  5  1 -1</clus>
</clustering>
</event>
<event>
 9    1  0.6270443E-005  0.9394440E+02  0.7546771E-02  0.1302031E+00
         21   -1    0    0  501  502  0.00000000000E+00  0.00000000000E+00  0.53682469112E+02  0.53682469112E+02  0.00000000000E+00 0. -1.
          1   -1    0    0  502    0 -0.00000000000E+00 -0.00000000000E+00 -0.51013007797E+03  0.51013007797E+03  0.00000000000E+00 0. -1.
         23    2    1    2    0    0 -0.20071431642E+02 -0.47092270630E+01 -0.33967925008E+03  0.35280070618E+03  0.93066138639E+02 0.  0.
        -24    2    1    2    0    0 -0.42996396568E+02  0.34047262951E+02 -0.10110489549E+03  0.13971236413E+03  0.79305980651E+02 0.  0.
         11    1    4    4    0    0  0.20920266249E+02  0.22066383425E+02 -0.23286322684E+02  0.38299290352E+02  0.00000000000E+00 0. -1.
        -12    1    4    4    0    0 -0.63916662816E+02  0.11980879526E+02 -0.77818572804E+02  0.10141307378E+03  0.00000000000E+00 0.  1.
        -13    1    3    3    0    0 -0.56928690794E+02  0.21153995923E+01 -0.22752240054E+03  0.23454593047E+03  0.00000000000E+00 0. -1.
         13    1    3    3    0    0  0.36857259152E+02 -0.68246266553E+01 -0.11215684954E+03  0.11825477572E+03  0.00000000000E+00 0.  1.
          2    1    1    2  501    0  0.63067828209E+02 -0.29338035888E+02 -0.15663463288E+02  0.71299476765E+02  0.00000000000E+00 0. -1.
<scales pt_clust_5="13000.00000" pt_clust_6="13000.00000" pt_clust_7="13000.00000" pt_clust_8="13000.00000" pt_clust_9="69.55768"></scales>
<clustering>
<clus scale="   69.558">  1  9  2 -1</clus>
<clus scale="   79.306">  5  6 -1 -1</clus>
<clus scale="   80.335">  1  5  2 -1</clus>
<clus scale="   93.066">  7  8 -1 -1</clus>
<clus scale="   69.558">  1  5  2 -1</clus>
</clustering>
</event>
<event>
 9    1  0.6270443E-005  0.1917985E+03  0.7546771E-02  0.1158309E+00
          3   -1    0    0  502    0 -0.00000000000E+00  0.00000000000E+00  0.23881695845E+03  0.23881695845E+03  0.00000000000E+00 0. -1.
         21   -1    0    0  501  502  0.00000000000E+00 -0.00000000000E+00 -0.49469377525E+03  0.49469377525E+03  0.00000000000E+00 0.  1.
         23    2    1    2    0    0  0.14754200624E+03  0.82095439144E+02  0.13282996987E+03  0.23428064753E+03  0.93462913396E+02 0.  0.
        -24    2    1    2    0    0 -0.17623228855E+03 -0.95047477563E+01 -0.14082804719E+03  0.23935240290E+03  0.79428421498E+02 0.  0.
         11    1    4    4    0    0 -0.80023265097E+02 -0.41961581203E+02 -0.50840546368E+02  0.10367863043E+03  0.00000000000E+00 0. -1.
        -12    1    4    4    0    0 -0.96209023455E+02  0.32456833446E+02 -0.89987500819E+02  0.13567377247E+03  0.00000000000E+00 0.  1.
        -13    1    3    3    0    0  0.12432092457E+03  0.37536560853E+02  0.13030975298E+03  0.18397096893E+03  0.00000000000E+00 0.  1.
         13    1    3    3    0    0  0.23221081666E+02  0.44558878291E+02  0.25202168910E+01  0.50309678606E+02  0.00000000000E+00 0. -1.
          4    1    1    2  501    0  0.28690282316E+02 -0.72590691388E+02 -0.24787873947E+03  0.25987768326E+03  0.00000000000E+00 0. -1.
<scales pt_clust_5="13000.00000" pt_clust_6="13000.00000" pt_clust_7="13000.00000" pt_clust_8="13000.00000" pt_clust_9="78.05473"></scales>
<clustering>
<clus scale="   78.055">  2  9  1 -1</clus>
<clus scale="   79.428">  5  6 -1 -1</clus>
<clus scale="   93.463">  7  8 -1 -1</clus>
<clus scale="  185.365">  2  5  1 -1</clus>
<clus scale="   78.055">  2  5  1 -1</clus>
</clustering>
</event>
<event>
 9    1  0.6270443E-005  0.2526007E+03  0.7546771E-02  0.1148688E+00
         21   -1    0    0  501  502  0.00000000000E+00  0.00000000000E+00  0.22580984819E+03  0.22580984819E+03  0.00000000000E+00 0.  1.
          1   -1    0    0  502    0 -0.00000000000E+00 -0.00000000000E+00 -0.58306804948E+03  0.58306804948E+03  0.00000000000E+00 0. -1.
         23    2    1    2    0    0  0.63325229514E+01 -0.44211517506E+02 -0.15768782644E+03  0.18768067262E+03  0.91453950930E+02 0.  0.
        -24    2    1    2    0    0 -0.16336389170E+03 -0.14456164958E+03 -0.27875494310E+03  0.36319653662E+03  0.81373056186E+02 0.  0.
         13    1    4    4    0    0  0.35496505238E+00 -0.36701563775E+02 -0.47170329357E+02  0.59767639701E+02  0.00000000000E+00 0. -1.
        -14    1    4    4    0    0 -0.16371885675E+03 -0.10786008580E+03 -0.23158461374E+03  0.30342889692E+03  0.00000000000E+00 0.  1.
        -13    1    3    3    0    0  0.22440048297E+01  0.24017848064E+02 -0.12411980753E+02  0.27128395631E+02  0.00000000000E+00 0.  1.
         13    1    3    3    0    0  0.40885181216E+01 -0.68229365570E+02 -0.14527584569E+03  0.16055227699E+03  0.00000000000E+00 0. -1.
          2    1    1    2  501    0  0.15703136875E+03  0.18877316708E+03  0.79184568248E+02  0.25800068843E+03  0.00000000000E+00 0. -1.
<scales pt_clust_5="13000.00000" pt_clust_6="13000.00000" pt_clust_7="13000.00000" pt_clust_8="13000.00000" pt_clust_9="239.13502"></scales>
<clustering>
<clus scale="   81.373">  5  6 -1 -1</clus>
<clus scale="   91.454">  7  8 -1 -1</clus>
<clus scale="  101.777">  2  7  1 -1</clus>
<clus scale="  239.135">  1  9  2 -1</clus>
<clus scale="  239.135">  1  5  2 -1</clus>
</clustering>
</event>
<event>
 9    1  0.6270443E-005  0.1014092E+03  0.7546771E-02  0.1283311E+00
         21   -1    0    0  501  502  0.00000000000E+00  0.00000000000E+00  0.39764543239E+02  0.39764543239E+02  0.00000000000E+00 0.  1.
         -2   -1    0    0    0  501 -0.00000000000E+00 -0.00000000000E+00 -0.45355913710E+03  0.45355913710E+03  0.00000000000E+00 0.  1.
         23    2    1    2    0    0  0.36344921478E+02 -0.39086949629E+02 -0.18530650266E+03  0.21342306166E+03  0.91444848797E+02 0.  0.
        -24    2    1    2    0    0 -0.33889765890E+02  0.32531176880E+01 -0.54001335820E+02  0.10175539954E+03  0.79239624289E+02 0.  0.
         13    1    4    4    0    0 -0.45809719062E+02  0.15040857012E+02 -0.65568513454E+02  0.81387884213E+02  0.00000000000E+00 0. -1.
        -14    1    4    4    0    0  0.11919953172E+02 -0.11787739324E+02  0.11567177633E+02  0.20367515322E+02  0.00000000000E+00 0.  1.
        -11    1    3    3    0    0  0.16757945551E+02  0.22241406350E+02 -0.15610206788E+02  0.31924715370E+02  0.00000000000E+00 0.  1.
         11    1    3    3    0    0  0.19586975927E+02 -0.61328355979E+02 -0.16969629588E+03  0.18149834629E+03  0.00000000000E+00 0. -1.
         -1    1    1    2    0  502 -0.24551555878E+01  0.35833831941E+02 -0.17448675537E+03  0.17814521914E+03  0.00000000000E+00 0.  1.
<scales pt_clust_5="13000.00000" pt_clust_6="13000.00000" pt_clust_7="13000.00000" pt_clust_8="13000.00000" pt_clust_9="35.91786"></scales>
<clustering>
<clus scale="   35.918">  1  9  2 -1</clus>
<clus scale="   79.240">  5  6 -1 -1</clus>
<clus scale="   90.557">  1  5  2 -1</clus>
<clus scale="   91.445">  7  8 -1 -1</clus>
<clus scale="   35.918">  1  5  2 -1</clus>
</clustering>
</event>
<event>
 9    1  0.6270443E-005  0.1193616E+03  0.7546771E-02  0.1248187E+00
          1   -1    0    0  502    0 -0.00000000000E+00  0.00000000000E+00  0.68473024809E+02  0.68473024809E+02  0.00000000000E+00 0. -1.
         21   -1    0    0  501  502  0.00000000000E+00 -0.00000000000E+00 -0.42879954746E+03  0.42879954746E+03  0.00000000000E+00 0.  1.
         23    2    1    2    0    0  0.12086083183E+02  0.47329765007E+02 -0.74574526842E+02  0.12886905514E+03  0.93057472870E+02 0.  0.
        -24    2    1    2    0    0  0.15386246789E+02 -0.91660971506E+02 -0.28383275276E+03  0.31621474173E+03  0.10388580778E+03 0.  0.
         11    1    4    4    0    0  0.51030261402E+02 -0.44434381324E+02 -0.84316524612E+02  0.10811002796E+03  0.00000000000E+00 0. -1.
        -12    1    4    4    0    0 -0.35644014614E+02 -0.47226590182E+02 -0.19951622815E+03  0.20810471377E+03  0.00000000000E+00 0.  1.
        -13    1    3    3    0    0  0.22936406780E+02 -0.15155593511E+02  0.41217110380E+01  0.27798548030E+02  0.00000000000E+00 0.  1.
         13    1    3    3    0    0 -0.10850323597E+02  0.62485358519E+02 -0.78696237880E+02  0.10107050711E+03  0.00000000000E+00 0. -1.
          2    1    1    2  501    0 -0.27472329972E+02  0.44331206499E+02 -0.19192430461E+01  0.52188775398E+02  0.00000000000E+00 0. -1.
<scales pt_clust_5="13000.00000" pt_clust_6="13000.00000" pt_clust_7="13000.00000" pt_clust_8="13000.00000" pt_clust_9="52.15350"></scales>
<clustering>
<clus scale="   52.153">  2  9  1 -1</clus>
<clus scale="   93.057">  7  8 -1 -1</clus>
<clus scale="  103.886">  5  6 -1 -1</clus>
<clus scale="  110.066">  1  7  2 -1</clus>
<clus scale="   52.153">  2  5  1 -1</clus>
</clustering>
</event>
<event>
 9    1  0.6270443E-005  0.1386534E+03  0.7546771E-02  0.1218570E+00
          1   -1    0    0  502    0 -0.00000000000E+00  0.00000000000E+00  0.56130001311E+03  0.56130001311E+03  0.00000000000E+00 0. -1.
         21   -1    0    0  501  502  0.00000000000E+00 -0.00000000000E+00 -0.20493352477E+03  0.20493352477E+03  0.00000000000E+00 0. -1.
         23    2    1    2    0    0 -0.10766185547E+03  0.13608472272E+02  0.50222520582E+03  0.52182824806E+03  0.91094991497E+02 0.  0.
        -24    2    1    2    0    0  0.77418622876E+02 -0.16388667783E+02 -0.15474819908E+02  0.11053093323E+03  0.75600168974E+02 0.  0.
         11    1    4    4    0    0  0.30780356411E+02 -0.44991163685E+02 -0.11219264192E+02  0.55655251680E+02  0.00000000000E+00 0. -1.
        -12    1    4    4    0    0  0.46638266465E+02  0.28602495902E+02 -0.42555557157E+01  0.54875681546E+02  0.00000000000E+00 0.  1.
        -13    1    3    3    0    0 -0.87333423262E+02  0.23308141697E+02  0.48532046791E+03  0.49366623630E+03  0.00000000000E+00 0. -1.
         13    1    3    3    0    0 -0.20328432205E+02 -0.96996694249E+01  0.16904737910E+02  0.28162011765E+02  0.00000000000E+00 0.  1.
          2    1    1    2  501    0  0.30243232591E+02  0.27801955108E+01 -0.13038389758E+03  0.13387435659E+03  0.00000000000E+00 0. -1.
<scales pt_clust_5="13000.00000" pt_clust_6="13000.00000" pt_clust_7="13000.00000" pt_clust_8="13000.00000" pt_clust_9="30.37075"></scales>
<clustering>
<clus scale="   30.371">  2  9  1 -1</clus>
<clus scale="   75.600">  5  6 -1 -1</clus>
<clus scale="   91.095">  7  8 -1 -1</clus>
<clus scale="  129.003">  2  5  1 -1</clus>
<clus scale="   30.371">  2  5  1 -1</clus>
</clustering>
</event>
<event>
 9    1  0.6270443E-005  0.1003203E+03  0.7546771E-02  0.1285703E+00
          1   -1    0    0  502    0 -0.00000000000E+00  0.00000000000E+00  0.45813548548E+03  0.45813548548E+03  0.00000000000E+00 0. -1.
         21   -1    0    0  501  502  0.00000000000E+00 -0.00000000000E+00 -0.79454907134E+02  0.79454907134E+02  0.00000000000E+00 0. -1.
         23    2    1    2    0    0 -0.21128561857E+02  0.20686819955E+02  0.32919776100E+03  0.34342313221E+03  0.93241199274E+02 0.  0.
        -24    2    1    2    0    0  0.72955505638E+02 -0.56450795579E+02  0.19961129786E+02  0.12462141876E+03  0.81380914140E+02 0.  0.
         13    1    4    4    0    0  0.77827285232E+02 -0.28780937807E+02  0.37966271979E+02  0.91251665823E+02  0.00000000000E+00 0. -1.
        -14    1    4    4    0    0 -0.48717795933E+01 -0.27669857771E+02 -0.18005142192E+02  0.33369752934E+02  0.00000000000E+00 0.  1.
        -11    1    3    3    0    0  0.48939441465E+01  0.48797822175E+02  0.10391160950E+03  0.11490344088E+03  0.00000000000E+00 0.  1.
         11    1    3    3    0    0 -0.26022506004E+02 -0.28111002220E+02  0.22528615150E+03  0.22851969132E+03  0.00000000000E+00 0. -1.
          2    1    1    2  501    0 -0.51826943781E+02  0.35763975623E+02  0.29521687556E+02  0.69545841646E+02  0.00000000000E+00 0. -1.
<scales pt_clust_5="13000.00000" pt_clust_6="13000.00000" pt_clust_7="13000.00000" pt_clust_8="13000.00000" pt_clust_9="62.96899"></scales>
<clustering>
<clus scale="   62.969">  2  9  1 -1</clus>
<clus scale="   81.381">  5  6 -1 -1</clus>
<clus scale="   89.404">  2  5  1 -1</clus>
<clus scale="   93.241">  7  8 -1 -1</clus>
<clus scale="   62.969">  2  5  1 -1</clus>
</clustering>
</event>
<event>
 9    1  0.6270443E-005  0.1056160E+03  0.7546771E-02  0.1273194E+00
         21   -1    0    0  501  502  0.00000000000E+00  0.00000000000E+00  0.20095111427E+03  0.20095111427E+03  0.00000000000E+00 0.  1.
         -4   -1    0    0    0  501 -0.00000000000E+00 -0.00000000000E+00 -0.25399092986E+03  0.25399092986E+03  0.00000000000E+00 0.  1.
         23    2    1    2    0    0  0.35915833723E+02 -0.39493663281E+02 -0.13667588277E+03  0.17243710647E+03  0.90579038449E+02 0.  0.
        -24    2    1    2    0    0  0.29679201736E+02  0.79410662920E+02 -0.50898764228E+02  0.12759949424E+03  0.80647618249E+02 0.  0.
         11    1    4    4    0    0  0.17094831372E+02  0.44917429013E+02 -0.71002475260E+02  0.85738907048E+02  0.00000000000E+00 0. -1.
        -12    1    4    4    0    0  0.12584370364E+02  0.34493233907E+02  0.20103711031E+02  0.41860587192E+02  0.00000000000E+00 0.  1.
        -11    1    3    3    0    0 -0.19516115342E+02 -0.12724982870E+02 -0.85049652236E+00  0.23313671771E+02  0.00000000000E+00 0.  1.
         11    1    3    3    0    0  0.55431949065E+02 -0.26768680411E+02 -0.13582538625E+03  0.14912343470E+03  0.00000000000E+00 0. -1.
         -3    1    1    2    0  502 -0.65595035458E+02 -0.39916999638E+02  0.13453483141E+03  0.15490544341E+03  0.00000000000E+00 0.  1.
<scales pt_clust_5="13000.00000" pt_clust_6="13000.00000" pt_clust_7="13000.00000" pt_clust_8="13000.00000" pt_clust_9="76.78591"></scales>
<clustering>
<clus scale="   76.786">  1  9  2 -1</clus>
<clus scale="   80.648">  5  6 -1 -1</clus>
<clus scale="   90.579">  7  8 -1 -1</clus>
<clus scale="   97.233">  1  5  2 -1</clus>
<clus scale="   76.786">  1  5  2 -1</clus>
</clustering>
</event>
<event>
 9    1  0.6270443E-005  0.1285266E+03  0.7546771E-02  0.1230674E+00
         21   -1    0    0  501  502  0.00000000000E+00  0.00000000000E+00  0.75202572739E+02  0.75202572739E+02  0.00000000000E+00 0.  1.
         -2   -1    0    0    0  501 -0.00000000000E+00 -0.00000000000E+00 -0.34654754095E+03  0.34654754095E+03  0.00000000000E+00 0.  1.
        -24    2    1    2    0    0 -0.34859506734E+02 -0.10904170729E+03 -0.12283120776E+03  0.18598740011E+03  0.79990801107E+02 0.  0.
         23    2    1    2    0    0  0.36568809625E+02  0.74653447475E+02 -0.35865728792E+02  0.11797029800E+03  0.75632173390E+02 0.  0.
         13    1    3    3    0    0 -0.39025263880E+02 -0.12280451174E+02 -0.23166328019E+02  0.47015523562E+02  0.00000000000E+00 0. -1.
        -14    1    3    3    0    0  0.41657571452E+01 -0.96761256118E+02 -0.99664879737E+02  0.13897187655E+03  0.00000000000E+00 0.  1.
        -13    1    4    4    0    0  0.48459605347E+01  0.39158549460E+02  0.20276297828E+02  0.44362186408E+02  0.00000000000E+00 0.  1.
         13    1    4    4    0    0  0.31722849090E+02  0.35494898015E+02 -0.56142026620E+02  0.73608111594E+02  0.00000000000E+00 0. -1.
         -1    1    1    2    0  502 -0.17093028901E+01  0.34388259817E+02 -0.11264803166E+03  0.11779241558E+03  0.00000000000E+00 0.  1.
<scales pt_clust_5="13000.00000" pt_clust_6="13000.00000" pt_clust_7="13000.00000" pt_clust_8="13000.00000" pt_clust_9="34.43073"></scales>
<clustering>
<clus scale="   34.431">  1  9  2 -1</clus>
<clus scale="   75.632">  7  8 -1 -1</clus>
<clus scale="   79.991">  5  6 -1 -1</clus>
<clus scale="  125.860">  1  7  2 -1</clus>
<clus scale="   34.431">  1  5  2 -1</clus>
</clustering>
</event>
<event>
 9    1  0.6270443E-005  0.9788895E+02  0.7546771E-02  0.1289013E+00
          1   -1    0    0  502    0 -0.00000000000E+00  0.00000000000E+00  0.10586544905E+03  0.10586544905E+03  0.00000000000E+00 0. -1.
         21   -1    0    0  501  502  0.00000000000E+00 -0.00000000000E+00 -0.18930661195E+03  0.18930661195E+03  0.00000000000E+00 0. -1.
         23    2    1    2    0    0  0.37970345992E+02 -0.23345476827E+02  0.30781345097E+02  0.10571794182E+03  0.90785646182E+02 0.  0.
        -24    2    1    2    0    0 -0.29577911190E+02 -0.42310460516E+01 -0.18973482748E+02  0.89938922411E+02  0.82681691660E+02 0.  0.
         13    1    4    4    0    0  0.56185705925E+01 -0.35063137816E+02 -0.24027623908E+02  0.42875618709E+02  0.00000000000E+00 0. -1.
        -14    1    4    4    0    0 -0.35196481783E+02  0.30832091764E+02  0.50541411609E+01  0.47063303702E+02  0.00000000000E+00 0.  1.
        -13    1    3    3    0    0  0.16438738167E+02 -0.15013947115E+02 -0.31910958059E+02  0.38909638456E+02  0.00000000000E+00 0.  1.
         13    1    3    3    0    0  0.21531607825E+02 -0.83315297127E+01  0.62692303156E+02  0.66808303360E+02  0.00000000000E+00 0. -1.
          2    1    1    2  501    0 -0.83924348017E+01  0.27576522879E+02 -0.95249025255E+02  0.99515196769E+02  0.00000000000E+00 0. -1.
<scales pt_clust_5="13000.00000" pt_clust_6="13000.00000" pt_clust_7="13000.00000" pt_clust_8="13000.00000" pt_clust_9="28.82529"></scales>
<clustering>
<clus scale="   28.825">  2  9  1 -1</clus>
<clus scale="   82.682">  5  6 -1 -1</clus>
<clus scale="   90.424">  2  5  1 -1</clus>
<clus scale="   90.786">  7  8 -1 -1</clus>
<clus scale="   28.825">  2  5  1 -1</clus>
</clustering>
</event>
<event>
 9    1  0.6270443E-005  0.1353240E+03  0.7546771E-02  0.1238617E+00
         21   -1    0    0  501  502  0.00000000000E+00  0.00000000000E+00  0.47509702176E+02  0.47509702176E+02  0.00000000000E+00 0. -1.
          1   -1    0    0  502    0 -0.00000000000E+00 -0.00000000000E+00 -0.59135848707E+03  0.59135848707E+03  0.00000000000E+00 0. -1.
        -24    2    1    2    0    0  0.23627627539E+02  0.30364039872E+02 -0.12261250310E+03  0.15307128063E+03  0.83167008706E+02 0.  0.
         23    2    1    2    0    0 -0.65778199950E+02  0.64076955408E+02 -0.29448386353E+03  0.32220611462E+03  0.93077422700E+02 0.  0.
         11    1    3    3    0    0  0.30144887260E+02  0.50936973078E+02 -0.50518158629E+02  0.77816282394E+02  0.00000000000E+00 0. -1.
        -12    1    3    3    0    0 -0.65172597212E+01 -0.20572933206E+02 -0.72094344472E+02  0.75254998238E+02  0.00000000000E+00 0.  1.
        -11    1    4    4    0    0 -0.85976853367E+02  0.35424155398E+02 -0.18189606174E+03  0.20428672834E+03  0.00000000000E+00 0. -1.
         11    1    4    4    0    0  0.20198653417E+02  0.28652800010E+02 -0.11258780179E+03  0.11791938628E+03  0.00000000000E+00 0.  1.
          2    1    1    2  501    0  0.42150572411E+02 -0.94440995280E+02 -0.12675241826E+03  0.16359079399E+03  0.00000000000E+00 0. -1.
<scales pt_clust_5="13000.00000" pt_clust_6="13000.00000" pt_clust_7="13000.00000" pt_clust_8="13000.00000" pt_clust_9="98.23024"></scales>
<clustering>
<clus scale="   83.167">  5  6 -1 -1</clus>
<clus scale="   91.635">  2  5  1 -1</clus>
<clus scale="   93.077">  7  8 -1 -1</clus>
<clus scale="   98.230">  1  9  2 -1</clus>
<clus scale="   98.230">  1  5  2 -1</clus>
</clustering>
</event>
<event>
 9    1  0.6270443E-005  0.1265494E+03  0.7546771E-02  0.1235574E+00
         21   -1    0    0  501  502  0.00000000000E+00  0.00000000000E+00  0.84634408356E+02  0.84634408356E+02  0.00000000000E+00 0.  1.
          3   -1    0    0  502    0 -0.00000000000E+00 -0.00000000000E+00 -0.34319112458E+03  0.34319112458E+03  0.00000000000E+00 0. -1.
        -24    2    1    2    0    0  0.27202715416E+02 -0.52774327850E+02 -0.44427023850E+02  0.10972805600E+03  0.80878726623E+02 0.  0.
         23    2    1    2    0    0 -0.63107559588E+02  0.10818233969E+03 -0.94735124162E+02  0.18166335902E+03  0.91328251733E+02 0.  0.
         11    1    3    3    0    0  0.14720003416E+02 -0.68704602869E+02 -0.52733735609E+02  0.87851282445E+02  0.00000000000E+00 0. -1.
        -12    1    3    3    0    0  0.12482712000E+02  0.15930275019E+02  0.83067117591E+01  0.21876773558E+02  0.00000000000E+00 0.  1.
        -13    1    4    4    0    0 -0.78599251425E+02  0.79097876550E+02 -0.41354545363E+02  0.11893071437E+03  0.00000000000E+00 0.  1.
         13    1    4    4    0    0  0.15491691837E+02  0.29084463137E+02 -0.53380578798E+02  0.62732644650E+02  0.00000000000E+00 0. -1.
          4    1    1    2  501    0  0.35904844172E+02 -0.55408011837E+02 -0.11939456821E+03  0.13643411791E+03  0.00000000000E+00 0. -1.
<scales pt_clust_5="13000.00000" pt_clust_6="13000.00000" pt_clust_7="13000.00000" pt_clust_8="13000.00000" pt_clust_9="66.02431"></scales>
<clustering>
<clus scale="   66.024">  1  9  2 -1</clus>
<clus scale="   80.879">  5  6 -1 -1</clus>
<clus scale="   91.328">  7  8 -1 -1</clus>
<clus scale="  119.228">  2  5  1 -1</clus>
<clus scale="   66.024">  1  5  2 -1</clus>
</clustering>
</event>
<event>
 9    1  0.6270443E-005  0.1046591E+03  0.7546771E-02  0.1273780E+00
         21   -1    0    0  501  502  0.00000000000E+00  0.00000000000E+00  0.16220582195E+03  0.16220582195E+03  0.00000000000E+00 0.  1.
          1   -1    0    0  502    0 -0.00000000000E+00 -0.00000000000E+00 -0.22792067427E+03  0.22792067427E+03  0.00000000000E+00 0. -1.
         23    2    1    2    0    0 -0.65382484752E+02  0.24334812510E+02 -0.15638923234E+03  0.19331957900E+03  0.89709616101E+02 0.  0.
        -24    2    1    2    0    0  0.12089583539E+02  0.34809643864E+02  0.26156219570E+02  0.94333539863E+02  0.82805794392E+02 0.  0.
         13    1    4    4    0    0  0.43599469006E+02  0.49999610637E+01  0.40048922609E+00  0.43887056177E+02  0.00000000000E+00 0. -1.
        -14    1    4    4    0    0 -0.31509885467E+02  0.29809682800E+02  0.25755730344E+02  0.50446483686E+02  0.00000000000E+00 0.  1.
        -11    1    3    3    0    0  0.35948123789E+01 -0.26377655233E+02 -0.25138624539E+02  0.36614939784E+02  0.00000000000E+00 0. -1.
         11    1    3    3    0    0 -0.68977297131E+02  0.50712467744E+02 -0.13125060780E+03  0.15670463921E+03  0.00000000000E+00 0.  1.
          2    1    1    2  501    0  0.53292901212E+02 -0.59144456374E+02  0.64518160449E+02  0.10247337736E+03  0.00000000000E+00 0. -1.
<scales pt_clust_5="13000.00000" pt_clust_6="13000.00000" pt_clust_7="13000.00000" pt_clust_8="13000.00000" pt_clust_9="79.61281"></scales>
<clustering>
<clus scale="   79.613">  1  9  2 -1</clus>
<clus scale="   82.806">  5  6 -1 -1</clus>
<clus scale="   89.710">  7  8 -1 -1</clus>
<clus scale="   98.805">  1  5  2 -1</clus>
<clus scale="   79.613">  1  5  2 -1</clus>
</clustering>
</event>
<event>
 9    1  0.6270443E-005  0.3269529E+03  0.7546771E-02  0.1096072E+00
         21   -1    0    0  501  502  0.00000000000E+00  0.00000000000E+00  0.96642592092E+02  0.96642592092E+02  0.00000000000E+00 0. -1.
          1   -1    0    0  502    0 -0.00000000000E+00 -0.00000000000E+00 -0.19685770861E+04  0.19685770861E+04  0.00000000000E+00 0. -1.
        -24    2    1    2    0    0 -0.15382835035E+03  0.11945309524E+02 -0.61610799321E+03  0.64023769507E+03  0.80680822382E+02 0.  0.
         23    2    1    2    0    0  0.14831702726E+03 -0.30691833350E+03 -0.48582591770E+03  0.60039702234E+03  0.90845793076E+02 0.  0.
         13    1    3    3    0    0 -0.92812394318E+02 -0.21848884644E+02 -0.45156231498E+03  0.46151927219E+03  0.00000000000E+00 0. -1.
        -14    1    3    3    0    0 -0.61015956034E+02  0.33794194168E+02 -0.16454567823E+03  0.17871842287E+03  0.00000000000E+00 0.  1.
        -11    1    4    4    0    0 -0.74673406531E+01 -0.43137213207E+02 -0.38954372938E+02  0.58600541897E+02  0.00000000000E+00 0.  1.
         11    1    4    4    0    0  0.15578436791E+03 -0.26378112030E+03 -0.44687154476E+03  0.54179648045E+03  0.00000000000E+00 0. -1.
          2    1    1    2  501    0  0.55113230970E+01  0.29497302398E+03 -0.77000058308E+03  0.82458496075E+03  0.00000000000E+00 0. -1.
<scales pt_clust_5="13000.00000" pt_clust_6="13000.00000" pt_clust_7="13000.00000" pt_clust_8="13000.00000" pt_clust_9="314.07855"></scales>
<clustering>
<clus scale="   80.681">  5  6 -1 -1</clus>
<clus scale="   90.846">  7  8 -1 -1</clus>
<clus scale="  174.113">  2  5  1 -1</clus>
<clus scale="  314.079">  1  9  2 -1</clus>
<clus scale="  314.079">  1  5  2 -1</clus>
</clustering>
</event>
<event>
 9    1  0.6270443E-005  0.7034579E+03  0.7546771E-02  0.9711337E-01
         21   -1    0    0  501  502  0.00000000000E+00  0.00000000000E+00  0.51243630417E+03  0.51243630417E+03  0.00000000000E+00 0. -1.
          1   -1    0    0  502    0 -0.00000000000E+00 -0.00000000000E+00 -0.95932160102E+03  0.95932160102E+03  0.00000000000E+00 0. -1.
        -24    2    1    2    0    0 -0.45515271360E+02  0.22360975888E+03 -0.68747539435E+02  0.25140654648E+03  0.80037886285E+02 0.  0.
         23    2    1    2    0    0  0.16573716794E+03  0.39819520716E+03 -0.38733623419E+03  0.58696416893E+03  0.92029046797E+02 0.  0.
         13    1    3    3    0    0 -0.55258877925E+02  0.85070967738E+02 -0.42899079290E+02  0.11014056539E+03  0.00000000000E+00 0. -1.
        -14    1    3    3    0    0  0.97436065655E+01  0.13853879114E+03 -0.25848460145E+02  0.14126598109E+03  0.00000000000E+00 0.  1.
        -13    1    4    4    0    0  0.80336640653E+02  0.97922996582E+02 -0.13902872183E+03  0.18807411992E+03  0.00000000000E+00 0.  1.
         13    1    4    4    0    0  0.85400527284E+02  0.30027221057E+03 -0.24830751236E+03  0.39889004901E+03  0.00000000000E+00 0. -1.
          2    1    1    2  501    0 -0.12022189658E+03 -0.62180496604E+03  0.91984767783E+01  0.63338718978E+03  0.00000000000E+00 0. -1.
<scales pt_clust_5="13000.00000" pt_clust_6="13000.00000" pt_clust_7="13000.00000" pt_clust_8="13000.00000" pt_clust_9="633.32039"></scales>
<clustering>
<clus scale="   80.038">  5  6 -1 -1</clus>
<clus scale="   92.029">  7  8 -1 -1</clus>
<clus scale="  202.506">  5  7 -1 -1</clus>
<clus scale="  633.320">  1  9  2 -1</clus>
<clus scale="  633.320">  1  5  2 -1</clus>
</clustering>
</event>
<event>
 9    1  0.6270443E-005  0.1061176E+03  0.7546771E-02  0.1268166E+00
          1   -1    0    0  502    0 -0.00000000000E+00  0.00000000000E+00  0.11588515874E+04  0.11588515874E+04  0.00000000000E+00 0. -1.
         21   -1    0    0  501  502  0.00000000000E+00 -0.00000000000E+00 -0.52466154266E+02  0.52466154266E+02  0.00000000000E+00 0.  1.
         23    2    1    2    0    0  0.65255040721E+02 -0.11629889537E+01  0.26258264085E+03  0.28534427637E+03  0.90620857986E+02 0.  0.
        -24    2    1    2    0    0 -0.51119792986E+01 -0.86557101031E+02  0.54739375723E+02  0.12977432099E+03  0.79540625237E+02 0.  0.
         13    1    4    4    0    0  0.16926930107E+02 -0.13379563789E+02  0.48515618947E+02  0.53097071217E+02  0.00000000000E+00 0. -1.
        -14    1    4    4    0    0 -0.22038909406E+02 -0.73177537242E+02  0.62237567757E+01  0.76677249774E+02  0.00000000000E+00 0.  1.
        -13    1    3    3    0    0  0.52401291798E+02 -0.19687866727E+02  0.25572056357E+03  0.26177569427E+03  0.00000000000E+00 0.  1.
         13    1    3    3    0    0  0.12853748923E+02  0.18524877773E+02  0.68620772797E+01  0.23568582105E+02  0.00000000000E+00 0. -1.
          2    1    1    2  501    0 -0.60143061422E+02  0.87720089985E+02  0.78906341655E+03  0.79619914429E+03  0.00000000000E+00 0. -1.
<scales pt_clust_5="13000.00000" pt_clust_6="13000.00000" pt_clust_7="13000.00000" pt_clust_8="13000.00000" pt_clust_9="106.35795"></scales>
<clustering>
<clus scale="   79.541">  5  6 -1 -1</clus>
<clus scale="   90.621">  7  8 -1 -1</clus>
<clus scale="  106.358">  2  9  1 -1</clus>
<clus scale="  106.358">  2  5  1 -1</clus>
<clus scale="  106.118">  2  5  1 -1</clus>
</clustering>
</event>
<event>
 9    1  0.6270443E-005  0.1046082E+03  0.7546771E-02  0.1277046E+00
         21   -1    0    0  501  502  0.00000000000E+00  0.00000000000E+00  0.24711752677E+03  0.24711752677E+03  0.00000000000E+00 0. -1.
          1   -1    0    0  502    0 -0.00000000000E+00 -0.00000000000E+00 -0.20395662468E+03  0.20395662468E+03  0.00000000000E+00 0. -1.
        -24    2    1    2    0    0 -0.64913483177E+02 -0.32185139321E+02  0.35318283806E+02  0.11221226236E+03  0.78067708835E+02 0.  0.
         23    2    1    2    0    0 -0.31290377295E+02  0.47519399700E+02  0.13870930648E+03  0.17571651714E+03  0.91645194263E+02 0.  0.
         11    1    3    3    0    0 -0.69096493531E+01 -0.30526851250E+02  0.43521885377E+02  0.53607708477E+02  0.00000000000E+00 0. -1.
        -12    1    3    3    0    0 -0.58003833824E+02 -0.16582880709E+01 -0.82036015711E+01  0.58604553887E+02  0.00000000000E+00 0.  1.
        -13    1    4    4    0    0  0.21781798157E+02 -0.61951525393E+01  0.66651946736E+01  0.23606174319E+02  0.00000000000E+00 0.  1.
         13    1    4    4    0    0 -0.53072175452E+02  0.53714552239E+02  0.13204411181E+03  0.15211034282E+03  0.00000000000E+00 0. -1.
          2    1    1    2  501    0  0.96203860472E+02 -0.15334260379E+02 -0.13086668819E+03  0.16314537195E+03  0.00000000000E+00 0. -1.
<scales pt_clust_5="13000.00000" pt_clust_6="13000.00000" pt_clust_7="13000.00000" pt_clust_8="13000.00000" pt_clust_9="97.41833"></scales>
<clustering>
<clus scale="   78.068">  5  6 -1 -1</clus>
<clus scale="   91.645">  7  8 -1 -1</clus>
<clus scale="   97.418">  1  9  2 -1</clus>
<clus scale="   92.944">  2  5  1 -1</clus>
<clus scale="   97.418">  1  5  2 -1</clus>
</clustering>
</event>
<event>
 9    1  0.6270443E-005  0.1042381E+03  0.7546771E-02  0.1276500E+00
         21   -1    0    0  501  502  0.00000000000E+00  0.00000000000E+00  0.45009424010E+02  0.45009424010E+02  0.00000000000E+00 0. -1.
         -4   -1    0    0    0  501 -0.00000000000E+00 -0.00000000000E+00 -0.39019295355E+03  0.39019295355E+03  0.00000000000E+00 0.  1.
        -24    2    1    2    0    0  0.15367966403E+02 -0.18604703186E+02 -0.80366257018E+02  0.11685539782E+03  0.81327359242E+02 0.  0.
         23    2    1    2    0    0 -0.55542764647E+02  0.53675544338E+02 -0.15363221447E+03  0.19503398185E+03  0.92028984509E+02 0.  0.
         13    1    3    3    0    0  0.18913825243E+02 -0.33721827951E+02 -0.90432141752E+02  0.98350733233E+02  0.00000000000E+00 0. -1.
        -14    1    3    3    0    0 -0.35458588403E+01  0.15117124766E+02  0.10065884734E+02  0.18504664590E+02  0.00000000000E+00 0.  1.
        -11    1    4    4    0    0 -0.51748701619E+02 -0.65977675984E+01 -0.10591402234E+03  0.11806455347E+03  0.00000000000E+00 0.  1.
         11    1    4    4    0    0 -0.37940630279E+01  0.60273311937E+02 -0.47718192124E+02  0.76969428383E+02  0.00000000000E+00 0. -1.
         -3    1    1    2    0  502  0.40174798244E+02 -0.35070841153E+02 -0.11118505805E+03  0.12331299788E+03  0.00000000000E+00 0.  1.
<scales pt_clust_5="13000.00000" pt_clust_6="13000.00000" pt_clust_7="13000.00000" pt_clust_8="13000.00000" pt_clust_9="53.32899"></scales>
<clustering>
<clus scale="   53.329">  1  9  2 -1</clus>
<clus scale="   81.327">  5  6 -1 -1</clus>
<clus scale="   92.029">  7  8 -1 -1</clus>
<clus scale="   94.923">  2  5  1 -1</clus>
<clus scale="   53.329">  1  5  2 -1</clus>
</clustering>
</event>
<event>
 9    1  0.6270443E-005  0.1028887E+03  0.7546771E-02  0.1281178E+00
          1   -1    0    0  502    0 -0.00000000000E+00  0.00000000000E+00  0.39819315296E+03  0.39819315296E+03  0.00000000000E+00 0. -1.
         21   -1    0    0  501  502  0.00000000000E+00 -0.00000000000E+00 -0.16555170003E+03  0.16555170003E+03  0.00000000000E+00 0.  1.
        -24    2    1    2    0    0  0.33283449041E+02 -0.27511947741E+02  0.36454765486E+03  0.37577625645E+03  0.80300105830E+02 0.  0.
         23    2    1    2    0    0 -0.94628784839E+01 -0.16136189179E+01 -0.80851686715E+02  0.12454713536E+03  0.94248840033E+02 0.  0.
         13    1    3    3    0    0  0.48912474418E+02 -0.45779558725E+02  0.27717747092E+03  0.28515881284E+03  0.00000000000E+00 0. -1.
        -14    1    3    3    0    0 -0.15629025377E+02  0.18267610984E+02  0.87370183935E+02  0.90617443608E+02  0.00000000000E+00 0.  1.
        -11    1    4    4    0    0  0.16432022000E+02 -0.12610524649E+02 -0.91987100313E+02  0.94290313940E+02  0.00000000000E+00 0.  1.
         11    1    4    4    0    0 -0.25894900484E+02  0.10996905731E+02  0.11135413598E+02  0.30256821424E+02  0.00000000000E+00 0. -1.
          2    1    1    2  501    0 -0.23820570557E+02  0.29125566659E+02 -0.51054515207E+02  0.63421461177E+02  0.00000000000E+00 0. -1.
<scales pt_clust_5="13000.00000" pt_clust_6="13000.00000" pt_clust_7="13000.00000" pt_clust_8="13000.00000" pt_clust_9="37.62603"></scales>
<clustering>
<clus scale="   37.626">  2  9  1 -1</clus>
<clus scale="   80.300">  5  6 -1 -1</clus>
<clus scale="   90.285">  1  5  2 -1</clus>
<clus scale="   94.249">  7  8 -1 -1</clus>
<clus scale="   37.626">  2  5  1 -1</clus>
</clustering>
</event>
<event>
 9    1  0.6270443E-005  0.1024882E+03  0.7546771E-02  0.1280564E+00
          3   -1    0    0  502    0 -0.00000000000E+00  0.00000000000E+00  0.90428531302E+03  0.90428531302E+03  0.00000000000E+00 0. -1.
         21   -1    0    0  501  502  0.00000000000E+00 -0.00000000000E+00 -0.23591775551E+02  0.23591775551E+02  0.00000000000E+00 0. -1.
        -24    2    1    2    0    0  0.41269746888E+02  0.27879841787E+02  0.61000566459E+03  0.61721832512E+03  0.79818998056E+02 0.  0.
         23    2    1    2    0    0 -0.17223391521E+02 -0.39905457796E+02  0.26436508968E+03  0.28303956298E+03  0.91287473377E+02 0.  0.
         13    1    3    3    0    0  0.31678928878E+02  0.54728452484E+02  0.35125496168E+03  0.35690167574E+03  0.00000000000E+00 0. -1.
        -14    1    3    3    0    0  0.95908180103E+01 -0.26848610697E+02  0.25875070291E+03  0.26031664938E+03  0.00000000000E+00 0.  1.
        -11    1    4    4    0    0  0.36929996848E+02 -0.12942026782E+02  0.81085542724E+02  0.90034359904E+02  0.00000000000E+00 0. -1.
         11    1    4    4    0    0 -0.54153388369E+02 -0.26963431014E+02  0.18327954696E+03  0.19300520308E+03  0.00000000000E+00 0.  1.
          4    1    1    2  501    0 -0.24046355367E+02  0.12025616009E+02  0.63227831992E+01  0.27619200463E+02  0.00000000000E+00 0. -1.
<scales pt_clust_5="13000.00000" pt_clust_6="13000.00000" pt_clust_7="13000.00000" pt_clust_8="13000.00000" pt_clust_9="26.88573"></scales>
<clustering>
<clus scale="   26.886">  2  9  1 -1</clus>
<clus scale="   79.819">  5  6 -1 -1</clus>
<clus scale="   91.287">  7  8 -1 -1</clus>
<clus scale="   92.420">  1  5  2 -1</clus>
<clus scale="   26.886">  2  5  1 -1</clus>
</clustering>
</event>
<event>
 9    1  0.6270443E-005  0.1095205E+03  0.7546771E-02  0.1266112E+00
         21   -1    0    0  501  502  0.00000000000E+00  0.00000000000E+00  0.75887782504E+02  0.75887782504E+02  0.00000000000E+00 0.  1.
          1   -1    0    0  502    0 -0.00000000000E+00 -0.00000000000E+00 -0.42925791381E+03  0.42925791381E+03  0.00000000000E+00 0. -1.
        -24    2    1    2    0    0  0.61024902329E+02  0.21390826783E+02 -0.33339192342E+03  0.34892383791E+03  0.80100336352E+02 0.  0.
         23    2    1    2    0    0 -0.17039949014E+02 -0.23372743587E+02  0.18297842384E+02  0.97880962486E+02  0.91701836275E+02 0.  0.
         11    1    3    3    0    0  0.80558653072E+02  0.16647515578E+02 -0.25200215300E+03  0.26508851630E+03  0.00000000000E+00 0. -1.
        -12    1    3    3    0    0 -0.19533750743E+02  0.47433112054E+01 -0.81389770425E+02  0.83835321608E+02  0.00000000000E+00 0.  1.
        -13    1    4    4    0    0 -0.47700993887E+02  0.95184417996E+01 -0.16946466754E+01  0.48670908965E+02  0.00000000000E+00 0. -1.
         13    1    4    4    0    0  0.30661044873E+02 -0.32891185386E+02  0.19992489059E+02  0.49210053522E+02  0.00000000000E+00 0.  1.
          2    1    1    2  501    0 -0.43984953315E+02  0.19819168038E+01 -0.38276050266E+02  0.58340895917E+02  0.00000000000E+00 0. -1.
<scales pt_clust_5="13000.00000" pt_clust_6="13000.00000" pt_clust_7="13000.00000" pt_clust_8="13000.00000" pt_clust_9="44.02958"></scales>
<clustering>
<clus scale="   44.030">  1  9  2 -1</clus>
<clus scale="   80.100">  5  6 -1 -1</clus>
<clus scale="   91.702">  7  8 -1 -1</clus>
<clus scale="  100.008">  2  5  1 -1</clus>
<clus scale="   44.030">  1  5  2 -1</clus>
</clustering>
</event>
<event>
 9    1  0.6270443E-005  0.2544577E+03  0.7546771E-02  0.1110540E+00
         21   -1    0    0  501  502  0.00000000000E+00  0.00000000000E+00  0.41865496133E+03  0.41865496133E+03  0.00000000000E+00 0. -1.
          1   -1    0    0  502    0 -0.00000000000E+00 -0.00000000000E+00 -0.77511366875E+03  0.77511366875E+03  0.00000000000E+00 0. -1.
         23    2    1    2    0    0 -0.14945088852E+03 -0.16968545694E+03 -0.37654732214E+03  0.44637414916E+03  0.79581862595E+02 0.  0.
        -24    2    1    2    0    0  0.15745028442E+03  0.21392293337E+03 -0.30899801995E+03  0.41525150301E+03  0.80002630764E+02 0.  0.
         13    1    4    4    0    0  0.58956891412E+02  0.13094441698E+03 -0.12336527754E+03  0.18931811082E+03  0.00000000000E+00 0. -1.
        -14    1    4    4    0    0  0.98493393005E+02  0.82978516393E+02 -0.18563274241E+03  0.22593339218E+03  0.00000000000E+00 0.  1.
        -11    1    3    3    0    0 -0.29039913703E+02 -0.61860753301E+02 -0.17599223547E+03  0.18879442876E+03  0.00000000000E+00 0. -1.
         11    1    3    3    0    0 -0.12041097482E+03 -0.10782470364E+03 -0.20055508667E+03  0.25757972040E+03  0.00000000000E+00 0.  1.
          2    1    1    2  501    0 -0.79993958943E+01 -0.44237476430E+02  0.32908663467E+03  0.33214297791E+03  0.00000000000E+00 0. -1.
<scales pt_clust_5="13000.00000" pt_clust_6="13000.00000" pt_clust_7="13000.00000" pt_clust_8="13000.00000" pt_clust_9="44.95492"></scales>
<clustering>
<clus scale="   44.955">  1  9  2 -1</clus>
<clus scale="   79.582">  7  8 -1 -1</clus>
<clus scale="   80.003">  5  6 -1 -1</clus>
<clus scale="  254.326">  2  7  1 -1</clus>
<clus scale="   44.955">  1  5  2 -1</clus>
</clustering>
</event>
<event>
 9    1  0.6270443E-005  0.1066818E+03  0.7546771E-02  0.1270742E+00
         21   -1    0    0  501  502  0.00000000000E+00  0.00000000000E+00  0.23509238212E+02  0.23509238212E+02  0.00000000000E+00 0.  1.
         -2   -1    0    0    0  501 -0.00000000000E+00 -0.00000000000E+00 -0.12971656780E+04  0.12971656780E+04  0.00000000000E+00 0.  1.
        -24    2    1    2    0    0  0.66747068295E+02 -0.23849170358E+02 -0.87346441902E+03  0.87999620018E+03  0.80182709986E+02 0.  0.
         23    2    1    2    0    0  0.97781551112E+01  0.20722770085E+02 -0.12794590860E+03  0.15786459018E+03  0.89588100696E+02 0.  0.
         11    1    3    3    0    0  0.40583801370E+02 -0.14223364203E+02 -0.15127187036E+03  0.15726578708E+03  0.00000000000E+00 0. -1.
        -12    1    3    3    0    0  0.26163266925E+02 -0.96258061553E+01 -0.72219254866E+03  0.72273041310E+03  0.00000000000E+00 0.  1.
        -13    1    4    4    0    0 -0.34113456488E+02 -0.13947490058E+01 -0.20787675746E+02  0.39972499312E+02  0.00000000000E+00 0.  1.
         13    1    4    4    0    0  0.43891611599E+02  0.22117519091E+02 -0.10715823286E+03  0.11789209087E+03  0.00000000000E+00 0. -1.
         -1    1    1    2    0  502 -0.76525223406E+02  0.31264002725E+01 -0.27224611219E+03  0.28281412588E+03  0.00000000000E+00 0.  1.
<scales pt_clust_5="13000.00000" pt_clust_6="13000.00000" pt_clust_7="13000.00000" pt_clust_8="13000.00000" pt_clust_9="76.58906"></scales>
<clustering>
<clus scale="   76.589">  1  9  2 -1</clus>
<clus scale="   80.183">  5  6 -1 -1</clus>
<clus scale="   89.588">  7  8 -1 -1</clus>
<clus scale="   98.915">  2  5  1 -1</clus>
<clus scale="   76.589">  1  5  2 -1</clus>
</clustering>
</event>
<event>
 9    1  0.6270443E-005  0.2744459E+03  0.7546771E-02  0.1134512E+00
          1   -1    0    0  502    0 -0.00000000000E+00  0.00000000000E+00  0.69485947395E+03  0.69485947395E+03  0.00000000000E+00 0. -1.
         21   -1    0    0  501  502  0.00000000000E+00 -0.00000000000E+00 -0.32198501594E+03  0.32198501594E+03  0.00000000000E+00 0. -1.
         23    2    1    2    0    0 -0.59475041943E+02  0.73013317816E+01  0.14605797982E+03  0.18381295666E+03  0.94147116287E+02 0.  0.
        -24    2    1    2    0    0 -0.24876277179E+03 -0.49613099270E+01 -0.18043518194E+03  0.32227724769E+03  0.96944511309E+02 0.  0.
         13    1    4    4    0    0 -0.25586797422E+03 -0.65766643702E+01 -0.16317486894E+03  0.30354194207E+03  0.00000000000E+00 0. -1.
        -14    1    4    4    0    0  0.71052024303E+01  0.16153544432E+01 -0.17260313005E+02  0.18735305618E+02  0.00000000000E+00 0.  1.
        -11    1    3    3    0    0 -0.81831463246E+02  0.14245409878E+02  0.86999557125E+02  0.12028400982E+03  0.00000000000E+00 0. -1.
         11    1    3    3    0    0  0.22356421303E+02 -0.69440780961E+01  0.59058422698E+02  0.63528946832E+02  0.00000000000E+00 0.  1.
          2    1    1    2  501    0  0.30823781373E+03 -0.23400218547E+01  0.40725166014E+03  0.51075428554E+03  0.00000000000E+00 0. -1.
<scales pt_clust_5="13000.00000" pt_clust_6="13000.00000" pt_clust_7="13000.00000" pt_clust_8="13000.00000" pt_clust_9="256.75351"></scales>
<clustering>
<clus scale="   94.147">  7  8 -1 -1</clus>
<clus scale="   96.945">  5  6 -1 -1</clus>
<clus scale="  111.599">  1  7  2 -1</clus>
<clus scale="  256.754">  2  9  1 -1</clus>
<clus scale="  256.754">  2  5  1 -1</clus>
</clustering>
</event>
<event>
 9    1  0.6270443E-005  0.1376917E+03  0.7546771E-02  0.1239731E+00
         -4   -1    0    0    0  501 -0.00000000000E+00  0.00000000000E+00  0.66685803695E+02  0.66685803695E+02  0.00000000000E+00 0.  1.
         21   -1    0    0  501  502  0.00000000000E+00 -0.00000000000E+00 -0.47974372725E+03  0.47974372725E+03  0.00000000000E+00 0.  1.
        -24    2    1    2    0    0  0.34726205507E+01  0.33748429479E+02 -0.37881504707E+02  0.93095677887E+02  0.77979364300E+02 0.  0.
         23    2    1    2    0    0  0.78997982407E+02 -0.92283930771E+02 -0.18304695260E+03  0.23621283366E+03  0.86794647452E+02 0.  0.
         13    1    3    3    0    0  0.11473225803E+02  0.58189228416E+02 -0.27182607121E+02  0.65241975321E+02  0.00000000000E+00 0. -1.
        -14    1    3    3    0    0 -0.80006052524E+01 -0.24440798937E+02 -0.10698897586E+02  0.27853702566E+02  0.00000000000E+00 0.  1.
        -11    1    4    4    0    0  0.47748448662E+02 -0.98441071414E+02 -0.16917793787E+03  0.20147390291E+03  0.00000000000E+00 0.  1.
         11    1    4    4    0    0  0.31249533745E+02  0.61571406427E+01 -0.13869014728E+02  0.34738930751E+02  0.00000000000E+00 0. -1.
         -3    1    1    2    0  502 -0.82470602958E+02  0.58535501292E+02 -0.19212946625E+03  0.21712101940E+03  0.00000000000E+00 0.  1.
<scales pt_clust_5="13000.00000" pt_clust_6="13000.00000" pt_clust_7="13000.00000" pt_clust_8="13000.00000" pt_clust_9="106.89105"></scales>
<clustering>
<clus scale="   77.979">  5  6 -1 -1</clus>
<clus scale="   85.040">  1  5  2 -1</clus>
<clus scale="   86.795">  7  8 -1 -1</clus>
<clus scale="  106.891">  2  9  1 -1</clus>
<clus scale="  106.891">  2  5  1 -1</clus>
</clustering>
</event>
<event>
 9    1  0.6270443E-005  0.9317303E+02  0.7546771E-02  0.1298381E+00
         21   -1    0    0  501  502  0.00000000000E+00  0.00000000000E+00  0.31077895749E+03  0.31077895749E+03  0.00000000000E+00 0.  1.
         -2   -1    0    0    0  501 -0.00000000000E+00 -0.00000000000E+00 -0.47550341819E+02  0.47550341819E+02  0.00000000000E+00 0.  1.
        -24    2    1    2    0    0  0.10333155740E+02 -0.10182113179E+02  0.48310624765E+02  0.10035375590E+03  0.86755462774E+02 0.  0.
         23    2    1    2    0    0  0.13595082036E+02  0.22827897634E+02  0.94254139072E+02  0.13431374023E+03  0.91926051344E+02 0.  0.
         11    1    3    3    0    0 -0.28247783311E+01 -0.27369620382E+02  0.66571835404E+02  0.72033913968E+02  0.00000000000E+00 0. -1.
        -12    1    3    3    0    0  0.13157934071E+02  0.17187507203E+02 -0.18261210639E+02  0.28319841929E+02  0.00000000000E+00 0.  1.
        -13    1    4    4    0    0  0.30957692295E+02 -0.24348389331E+02  0.65421264072E+02  0.76362062361E+02  0.00000000000E+00 0.  1.
         13    1    4    4    0    0 -0.17362610258E+02  0.47176286965E+02  0.28832875001E+02  0.57951677867E+02  0.00000000000E+00 0. -1.
         -1    1    1    2    0  502 -0.23928237776E+02 -0.12645784455E+02  0.12066385184E+03  0.12366180319E+03  0.00000000000E+00 0.  1.
<scales pt_clust_5="13000.00000" pt_clust_6="13000.00000" pt_clust_7="13000.00000" pt_clust_8="13000.00000" pt_clust_9="27.06430"></scales>
<clustering>
<clus scale="   27.064">  1  9  2 -1</clus>
<clus scale="   86.755">  5  6 -1 -1</clus>
<clus scale="   88.076">  2  5  1 -1</clus>
<clus scale="   91.926">  7  8 -1 -1</clus>
<clus scale="   27.064">  1  5  2 -1</clus>
</clustering>
</event>
<event>
 9    1  0.6270443E-005  0.1137999E+03  0.7546771E-02  0.1257385E+00
          1   -1    0    0  502    0 -0.00000000000E+00  0.00000000000E+00  0.66848429972E+02  0.66848429972E+02  0.00000000000E+00 0. -1.
         21   -1    0    0  501  502  0.00000000000E+00 -0.00000000000E+00 -0.23954511916E+03  0.23954511916E+03  0.00000000000E+00 0.  1.
         23    2    1    2    0    0 -0.21178001096E+02  0.67565424416E+02 -0.52367323398E+02  0.12605984320E+03  0.90195084122E+02 0.  0.
        -24    2    1    2    0    0 -0.58150266466E+01 -0.70231358622E+02 -0.10298582138E+03  0.14813853107E+03  0.79829109439E+02 0.  0.
         13    1    4    4    0    0  0.15655643181E+02 -0.73475130314E+02 -0.48331887503E+02  0.89328972275E+02  0.00000000000E+00 0. -1.
        -14    1    4    4    0    0 -0.21470669827E+02  0.32437716925E+01 -0.54653933873E+02  0.58809558793E+02  0.00000000000E+00 0.  1.
        -13    1    3    3    0    0 -0.44165921273E+02  0.14173670026E+01 -0.14867241501E+02  0.46622659737E+02  0.00000000000E+00 0.  1.
         13    1    3    3    0    0  0.22987920177E+02  0.66148057413E+02 -0.37500081897E+02  0.79437183459E+02  0.00000000000E+00 0. -1.
          2    1    1    2  501    0  0.26993027742E+02  0.26659342063E+01 -0.17343544410E+02  0.32195174865E+02  0.00000000000E+00 0. -1.
<scales pt_clust_5="13000.00000" pt_clust_6="13000.00000" pt_clust_7="13000.00000" pt_clust_8="13000.00000" pt_clust_9="27.12437"></scales>
<clustering>
<clus scale="   27.124">  2  9  1 -1</clus>
<clus scale="   79.829">  5  6 -1 -1</clus>
<clus scale="   90.195">  7  8 -1 -1</clus>
<clus scale="  105.773">  2  5  1 -1</clus>
<clus scale="   27.124">  2  5  1 -1</clus>
</clustering>
</event>
<event>
 9    1  0.6270443E-005  0.1380535E+03  0.7546771E-02  0.1218879E+00
         21   -1    0    0  501  502  0.00000000000E+00  0.00000000000E+00  0.25774868367E+03  0.25774868367E+03  0.00000000000E+00 0. -1.
         -2   -1    0    0    0  501 -0.00000000000E+00 -0.00000000000E+00 -0.30437755036E+03  0.30437755036E+03  0.00000000000E+00 0.  1.
        -24    2    1    2    0    0  0.60534584955E+02 -0.84335200957E+02 -0.25390692365E+03  0.28586881674E+03  0.80469822980E+02 0.  0.
         23    2    1    2    0    0 -0.75010128916E+02  0.51212550636E+02  0.10311519933E+03  0.16600066128E+03  0.93135548693E+02 0.  0.
         13    1    3    3    0    0  0.70564073726E+02 -0.59590443467E+02 -0.13219838175E+03  0.16126599638E+03  0.00000000000E+00 0. -1.
        -14    1    3    3    0    0 -0.10029488771E+02 -0.24744757490E+02 -0.12170854190E+03  0.12460282035E+03  0.00000000000E+00 0.  1.
        -11    1    4    4    0    0 -0.42560058189E+02 -0.15175131613E+02  0.85463797269E+01  0.45985691024E+02  0.00000000000E+00 0.  1.
         11    1    4    4    0    0 -0.32450070727E+02  0.66387682249E+02  0.94568819606E+02  0.12001497026E+03  0.00000000000E+00 0. -1.
         -1    1    1    2    0  502  0.14475543961E+02  0.33122650321E+02  0.10416285762E+03  0.11025675601E+03  0.00000000000E+00 0.  1.
<scales pt_clust_5="13000.00000" pt_clust_6="13000.00000" pt_clust_7="13000.00000" pt_clust_8="13000.00000" pt_clust_9="36.14763"></scales>
<clustering>
<clus scale="   36.148">  1  9  2 -1</clus>
<clus scale="   80.470">  5  6 -1 -1</clus>
<clus scale="   93.136">  7  8 -1 -1</clus>
<clus scale="  129.846">  2  5  1 -1</clus>
<clus scale="   36.148">  1  5  2 -1</clus>
</clustering>
</event>
<event>
 9    1  0.6270443E-005  0.3819466E+03  0.7546771E-02  0.1050437E+00
          3   -1    0    0  502    0 -0.00000000000E+00  0.00000000000E+00  0.98536286348E+03  0.98536286348E+03  0.00000000000E+00 0. -1.
         21   -1    0    0  501  502  0.00000000000E+00 -0.00000000000E+00 -0.19604078279E+03  0.19604078279E+03  0.00000000000E+00 0.  1.
        -24    2    1    2    0    0 -0.16841073145E+03 -0.32835858678E+03  0.63139478210E+03  0.73564005114E+03  0.79532245033E+02 0.  0.
         23    2    1    2    0    0  0.19215070609E+03  0.32466193243E+03  0.13042567287E+03  0.40924522898E+03  0.90241548526E+02 0.  0.
         11    1    3    3    0    0 -0.10010322192E+03 -0.26815487844E+03  0.48955206240E+03  0.56708810221E+03  0.00000000000E+00 0. -1.
        -12    1    3    3    0    0 -0.68307509533E+02 -0.60203708349E+02  0.14184271970E+03  0.16855194894E+03  0.00000000000E+00 0.  1.
        -11    1    4    4    0    0  0.52589798865E+02  0.32882993664E+02  0.38484055540E+02  0.72993155486E+02  0.00000000000E+00 0. -1.
         11    1    4    4    0    0  0.13956090722E+03  0.29177893876E+03  0.91941617329E+02  0.33625207349E+03  0.00000000000E+00 0.  1.
          4    1    1    2  501    0 -0.23739974638E+02  0.36966543553E+01  0.27501625715E+02  0.36518366149E+02  0.00000000000E+00 0. -1.
<scales pt_clust_5="13000.00000" pt_clust_6="13000.00000" pt_clust_7="13000.00000" pt_clust_8="13000.00000" pt_clust_9="24.02607"></scales>
<clustering>
<clus scale="   24.026">  2  9  1 -1</clus>
<clus scale="   79.532">  5  6 -1 -1</clus>
<clus scale="   90.242">  7  8 -1 -1</clus>
<clus scale="  379.559">  1  5  2 -1</clus>
<clus scale="   24.026">  2  5  1 -1</clus>
</clustering>
</event>
<event>
 9    1  0.6270443E-005  0.1060692E+03  0.7546771E-02  0.1272741E+00
          1   -1    0    0  502    0 -0.00000000000E+00  0.00000000000E+00  0.36557160886E+03  0.36557160886E+03  0.00000000000E+00 0. -1.
         21   -1    0    0  501  502  0.00000000000E+00 -0.00000000000E+00 -0.11427901873E+03  0.11427901873E+03  0.00000000000E+00 0. -1.
         23    2    1    2    0    0 -0.41602420661E+02  0.56217161401E+01  0.23404800349E+03  0.25461272050E+03  0.91031886755E+02 0.  0.
        -24    2    1    2    0    0  0.10777176471E+03 -0.34798582927E+01  0.59285192634E+02  0.14681353461E+03  0.80078818661E+02 0.  0.
         13    1    4    4    0    0  0.42148326202E+02 -0.91806826455E+01  0.67836669567E+02  0.80390173985E+02  0.00000000000E+00 0. -1.
        -14    1    4    4    0    0  0.65623438503E+02  0.57008243528E+01 -0.85514769320E+01  0.66423360627E+02  0.00000000000E+00 0.  1.
        -11    1    3    3    0    0 -0.98645480762E+01  0.42007095390E+02  0.59431060398E+02  0.73443558682E+02  0.00000000000E+00 0.  1.
         11    1    3    3    0    0 -0.31737872584E+02 -0.36385379250E+02  0.17461694309E+03  0.18116916182E+03  0.00000000000E+00 0. -1.
          2    1    1    2  501    0 -0.66169344045E+02 -0.21418578474E+01 -0.42040605997E+02  0.78424372480E+02  0.00000000000E+00 0. -1.
<scales pt_clust_5="13000.00000" pt_clust_6="13000.00000" pt_clust_7="13000.00000" pt_clust_8="13000.00000" pt_clust_9="66.20400"></scales>
<clustering>
<clus scale="   66.204">  2  9  1 -1</clus>
<clus scale="   80.079">  5  6 -1 -1</clus>
<clus scale="   91.032">  7  8 -1 -1</clus>
<clus scale="   96.832">  2  5  1 -1</clus>
<clus scale="   66.204">  2  5  1 -1</clus>
</clustering>
</event>
<event>
 9    1  0.6270443E-005  0.9984372E+02  0.7546771E-02  0.1287573E+00
          1   -1    0    0  502    0 -0.00000000000E+00  0.00000000000E+00  0.20134296964E+03  0.20134296964E+03  0.00000000000E+00 0. -1.
         21   -1    0    0  501  502  0.00000000000E+00 -0.00000000000E+00 -0.13258128747E+03  0.13258128747E+03  0.00000000000E+00 0.  1.
        -24    2    1    2    0    0  0.23259177818E+02  0.31033566711E+02  0.14622647451E+03  0.17136500967E+03  0.80496664995E+02 0.  0.
         23    2    1    2    0    0  0.10918228551E+02 -0.22339921064E+02 -0.26379970912E+02  0.10048402241E+03  0.93716893393E+02 0.  0.
         11    1    3    3    0    0  0.30582611237E+02 -0.13822740919E+02  0.24855395523E+02  0.41763081342E+02  0.00000000000E+00 0. -1.
        -12    1    3    3    0    0 -0.73234334188E+01  0.44856307630E+02  0.12137107899E+03  0.12960192833E+03  0.00000000000E+00 0.  1.
        -11    1    4    4    0    0  0.25513064866E+02 -0.53410182580E+02 -0.36295593630E+01  0.59302089198E+02  0.00000000000E+00 0.  1.
         11    1    4    4    0    0 -0.14594836315E+02  0.31070261516E+02 -0.22750411549E+02  0.41181933216E+02  0.00000000000E+00 0. -1.
          2    1    1    2  501    0 -0.34177406369E+02 -0.86936456467E+01 -0.51084821429E+02  0.62075225019E+02  0.00000000000E+00 0. -1.
<scales pt_clust_5="13000.00000" pt_clust_6="13000.00000" pt_clust_7="13000.00000" pt_clust_8="13000.00000" pt_clust_9="35.26577"></scales>
<clustering>
<clus scale="   35.266">  2  9  1 -1</clus>
<clus scale="   80.497">  5  6 -1 -1</clus>
<clus scale="   87.554">  1  5  2 -1</clus>
<clus scale="   93.717">  7  8 -1 -1</clus>
<clus scale="   35.266">  2  5  1 -1</clus>
</clustering>
</event>
<event>
 9    1  0.6270443E-005  0.1106479E+03  0.7546771E-02  0.1264015E+00
         21   -1    0    0  501  502  0.00000000000E+00  0.00000000000E+00  0.66403871335E+02  0.66403871335E+02  0.00000000000E+00 0. -1.
          1   -1    0    0  502    0 -0.00000000000E+00 -0.00000000000E+00 -0.40716694414E+03  0.40716694414E+03  0.00000000000E+00 0. -1.
         23    2    1    2    0    0 -0.34503044062E+02  0.85189926102E+02 -0.23797045129E+03  0.27126090397E+03  0.92221249066E+02 0.  0.
        -24    2    1    2    0    0 -0.49423933874E+01 -0.35126336591E+02 -0.10695056971E+03  0.13843821148E+03  0.80426533314E+02 0.  0.
         13    1    4    4    0    0  0.19871402956E+00 -0.41547919214E+02 -0.11774851221E+03  0.12486385068E+03  0.00000000000E+00 0. -1.
        -14    1    4    4    0    0 -0.51411074170E+01  0.64215826235E+01  0.10797942500E+02  0.13574360799E+02  0.00000000000E+00 0.  1.
        -11    1    3    3    0    0 -0.31605430002E+02  0.33120946993E+01 -0.13993562578E+03  0.14349861511E+03  0.00000000000E+00 0.  1.
         11    1    3    3    0    0 -0.28976140603E+01  0.81877831403E+02 -0.98034825509E+02  0.12776228886E+03  0.00000000000E+00 0. -1.
          2    1    1    2  501    0  0.39445437450E+02 -0.50063589512E+02  0.41579481958E+01  0.63871700021E+02  0.00000000000E+00 0. -1.
<scales pt_clust_5="13000.00000" pt_clust_6="13000.00000" pt_clust_7="13000.00000" pt_clust_8="13000.00000" pt_clust_9="63.73622"></scales>
<clustering>
<clus scale="   63.736">  1  9  2 -1</clus>
<clus scale="   80.427">  5  6 -1 -1</clus>
<clus scale="   92.221">  7  8 -1 -1</clus>
<clus scale="  101.028">  1  5  2 -1</clus>
<clus scale="   63.736">  1  5  2 -1</clus>
</clustering>
</event>
<event>
 9    1  0.6270443E-005  0.2965796E+03  0.7546771E-02  0.1087985E+00
          3   -1    0    0  502    0 -0.00000000000E+00  0.00000000000E+00  0.11527330807E+04  0.11527330807E+04  0.00000000000E+00 0. -1.
         21   -1    0    0  501  502  0.00000000000E+00 -0.00000000000E+00 -0.48579711071E+03  0.48579711071E+03  0.00000000000E+00 0.  1.
         23    2    1    2    0    0  0.15057810310E+03  0.23944282634E+03  0.10674280239E+04  0.11094903910E+04  0.10751608792E+03 0.  0.
        -24    2    1    2    0    0 -0.89013168206E+02 -0.19050192764E+03 -0.16265326118E+03  0.27853482228E+03  0.83133839675E+02 0.  0.
         13    1    4    4    0    0  0.93411248941E+01 -0.58609383195E+02 -0.26585577550E+02  0.65031602675E+02  0.00000000000E+00 0. -1.
        -14    1    4    4    0    0 -0.98354293100E+02 -0.13189254444E+03 -0.13606768363E+03  0.21350321960E+03  0.00000000000E+00 0.  1.
        -13    1    3    3    0    0  0.94863059168E+02  0.22443050270E+03  0.89995040503E+03  0.93235121175E+03  0.00000000000E+00 0. -1.
         13    1    3    3    0    0  0.55715043937E+02  0.15012323634E+02  0.16747761892E+03  0.17713917924E+03  0.00000000000E+00 0.  1.
          4    1    1    2  501    0 -0.61564934898E+02 -0.48940898698E+02 -0.23783879273E+03  0.25050497819E+03  0.00000000000E+00 0. -1.
<scales pt_clust_5="13000.00000" pt_clust_6="13000.00000" pt_clust_7="13000.00000" pt_clust_8="13000.00000" pt_clust_9="78.64765"></scales>
<clustering>
<clus scale="   78.648">  2  9  1 -1</clus>
<clus scale="   83.134">  5  6 -1 -1</clus>
<clus scale="  107.516">  7  8 -1 -1</clus>
<clus scale="  288.636">  2  5  1 -1</clus>
<clus scale="   78.648">  2  5  1 -1</clus>
</clustering>
</event>
<event>
 9    1  0.6270443E-005  0.1722672E+03  0.7546771E-02  0.1176412E+00
         21   -1    0    0  501  502  0.00000000000E+00  0.00000000000E+00  0.60477205957E+03  0.60477205957E+03  0.00000000000E+00 0.  1.
         -4   -1    0    0    0  501 -0.00000000000E+00 -0.00000000000E+00 -0.10654733188E+03  0.10654733188E+03  0.00000000000E+00 0.  1.
        -24    2    1    2    0    0 -0.52464138955E+02 -0.12814576585E+03  0.48304565347E+02  0.16900653223E+03  0.84000319777E+02 0.  0.
         23    2    1    2    0    0  0.65837744217E+02  0.16874452613E+03  0.45613502913E+03  0.49911867878E+03  0.90834833886E+02 0.  0.
         13    1    3    3    0    0  0.16315927253E+02 -0.33718112754E+02  0.35287609896E+02  0.51461986184E+02  0.00000000000E+00 0. -1.
        -14    1    3    3    0    0 -0.68780066208E+02 -0.94427653095E+02  0.13016955450E+02  0.11754454605E+03  0.00000000000E+00 0.  1.
        -11    1    4    4    0    0 -0.22454276207E+02  0.35405133736E+02  0.77915076782E+02  0.88478682205E+02  0.00000000000E+00 0. -1.
         11    1    4    4    0    0  0.88292020424E+02  0.13333939240E+03  0.37821995235E+03  0.41063999657E+03  0.00000000000E+00 0.  1.
         -3    1    1    2    0  502 -0.13373605262E+02 -0.40598760284E+02 -0.62148667827E+01  0.43194180435E+02  0.00000000000E+00 0.  1.
<scales pt_clust_5="13000.00000" pt_clust_6="13000.00000" pt_clust_7="13000.00000" pt_clust_8="13000.00000" pt_clust_9="42.74476"></scales>
<clustering>
<clus scale="   42.745">  1  9  2 -1</clus>
<clus scale="   84.000">  5  6 -1 -1</clus>
<clus scale="   90.835">  7  8 -1 -1</clus>
<clus scale="  168.763">  2  5  1 -1</clus>
<clus scale="   42.745">  1  5  2 -1</clus>
</clustering>
</event>
<event>
 9    1  0.6270443E-005  0.1076966E+03  0.7546771E-02  0.1278876E+00
         21   -1    0    0  501  502  0.00000000000E+00  0.00000000000E+00  0.29289219722E+03  0.29289219722E+03  0.00000000000E+00 0. -1.
          1   -1    0    0  502    0 -0.00000000000E+00 -0.00000000000E+00 -0.63089818511E+03  0.63089818511E+03  0.00000000000E+00 0. -1.
         23    2    1    2    0    0  0.10477610278E+02  0.65755143667E+01 -0.61365158210E+03  0.62303018267E+03  0.10698283316E+03 0.  0.
        -24    2    1    2    0    0  0.65037818899E+01 -0.32910111924E+02  0.21938339203E+03  0.23636055600E+03  0.81313375843E+02 0.  0.
         13    1    4    4    0    0  0.16988937271E+02 -0.41507533705E+02  0.21818667271E+03  0.22274856564E+03  0.00000000000E+00 0. -1.
        -14    1    4    4    0    0 -0.10485155381E+02  0.85974217811E+01  0.11967193162E+01  0.13611990368E+02  0.00000000000E+00 0.  1.
        -11    1    3    3    0    0  0.95978209342E+01 -0.50080240663E+02 -0.28205365822E+03  0.28662591437E+03  0.00000000000E+00 0.  1.
         11    1    3    3    0    0  0.87978934385E+00  0.56655755029E+02 -0.33159792388E+03  0.33640426830E+03  0.00000000000E+00 0. -1.
          2    1    1    2  501    0 -0.16981392168E+02  0.26334597557E+02  0.56262202183E+02  0.64399643655E+02  0.00000000000E+00 0. -1.
<scales pt_clust_5="13000.00000" pt_clust_6="13000.00000" pt_clust_7="13000.00000" pt_clust_8="13000.00000" pt_clust_9="31.33494"></scales>
<clustering>
<clus scale="   31.335">  1  9  2 -1</clus>
<clus scale="   81.313">  5  6 -1 -1</clus>
<clus scale="   82.250">  1  5  2 -1</clus>
<clus scale="  106.983">  7  8 -1 -1</clus>
<clus scale="   31.335">  1  5  2 -1</clus>
</clustering>
</event>
<event>
 9    1  0.6270443E-005  0.2518727E+03  0.7546771E-02  0.1127278E+00
         21   -1    0    0  501  502  0.00000000000E+00  0.00000000000E+00  0.14529892242E+03  0.14529892242E+03  0.00000000000E+00 0. -1.
          1   -1    0    0  502    0 -0.00000000000E+00 -0.00000000000E+00 -0.80481559215E+03  0.80481559215E+03  0.00000000000E+00 0. -1.
         23    2    1    2    0    0  0.12674538418E+03 -0.73238338070E+02 -0.18268586494E+03  0.25118487623E+03  0.91057510513E+02 0.  0.
        -24    2    1    2    0    0 -0.34338210833E+02  0.27389356654E+03 -0.24160386300E+03  0.37623268989E+03  0.83557236726E+02 0.  0.
         13    1    4    4    0    0 -0.41629607325E+02  0.21804986032E+03 -0.14736867198E+03  0.26645129249E+03  0.00000000000E+00 0. -1.
        -14    1    4    4    0    0  0.72913964912E+01  0.55843706225E+02 -0.94235191023E+02  0.10978139740E+03  0.00000000000E+00 0.  1.
        -13    1    3    3    0    0  0.64270947817E+02 -0.33430709383E+02 -0.24438258708E+02  0.76456494504E+02  0.00000000000E+00 0. -1.
         13    1    3    3    0    0  0.62474436365E+02 -0.39807628687E+02 -0.15824760623E+03  0.17472838172E+03  0.00000000000E+00 0.  1.
          2    1    1    2  501    0 -0.92407173349E+02 -0.20065522847E+03 -0.23522694179E+03  0.32269694846E+03  0.00000000000E+00 0. -1.
<scales pt_clust_5="13000.00000" pt_clust_6="13000.00000" pt_clust_7="13000.00000" pt_clust_8="13000.00000" pt_clust_9="237.60907"></scales>
<clustering>
<clus scale="   83.557">  5  6 -1 -1</clus>
<clus scale="   91.058">  7  8 -1 -1</clus>
<clus scale="  172.394">  2  7  1 -1</clus>
<clus scale="  237.609">  1  9  2 -1</clus>
<clus scale="  237.609">  1  5  2 -1</clus>
</clustering>
</event>
<event>
 9    1  0.6270443E-005  0.1979855E+03  0.7546771E-02  0.1187432E+00
         21   -1    0    0  501  502  0.00000000000E+00  0.00000000000E+00  0.90376852820E+02  0.90376852820E+02  0.00000000000E+00 0. -1.
          1   -1    0    0  502    0 -0.00000000000E+00 -0.00000000000E+00 -0.92526354324E+03  0.92526354324E+03  0.00000000000E+00 0. -1.
        -24    2    1    2    0    0 -0.83002337912E+01  0.35770928196E+02 -0.16337423278E+03  0.18502296357E+03  0.78701359109E+02 0.  0.
         23    2    1    2    0    0  0.83525207540E+02  0.14848469462E+03 -0.84666914673E+02  0.21094282230E+03  0.91127509617E+02 0.  0.
         13    1    3    3    0    0 -0.25700920523E+02 -0.17291627831E+02 -0.56073587231E+02  0.64060790611E+02  0.00000000000E+00 0. -1.
        -14    1    3    3    0    0  0.17400686732E+02  0.53062556027E+02 -0.10730064555E+03  0.12096217296E+03  0.00000000000E+00 0.  1.
        -11    1    4    4    0    0  0.96132999426E+02  0.13098982398E+03 -0.49790711362E+02  0.16993823143E+03  0.00000000000E+00 0. -1.
         11    1    4    4    0    0 -0.12607791886E+02  0.17494870646E+02 -0.34876203311E+02  0.41004590872E+02  0.00000000000E+00 0.  1.
          2    1    1    2  501    0 -0.75224973749E+02 -0.18425562282E+03 -0.58684554296E+03  0.61967461019E+03  0.00000000000E+00 0. -1.
<scales pt_clust_5="13000.00000" pt_clust_6="13000.00000" pt_clust_7="13000.00000" pt_clust_8="13000.00000" pt_clust_9="175.76708"></scales>
<clustering>
<clus scale="   78.701">  5  6 -1 -1</clus>
<clus scale="   86.847">  2  5  1 -1</clus>
<clus scale="   91.128">  7  8 -1 -1</clus>
<clus scale="  175.767">  1  9  2 -1</clus>
<clus scale="  175.767">  1  5  2 -1</clus>
</clustering>
</event>
<event>
 9    1  0.6270443E-005  0.1000059E+03  0.7546771E-02  0.1285794E+00
          3   -1    0    0  502    0 -0.00000000000E+00  0.00000000000E+00  0.56269238923E+02  0.56269238923E+02  0.00000000000E+00 0. -1.
         21   -1    0    0  501  502  0.00000000000E+00 -0.00000000000E+00 -0.23921036262E+03  0.23921036262E+03  0.00000000000E+00 0.  1.
         23    2    1    2    0    0 -0.29404400509E+02  0.21436874254E+02 -0.43042334644E+02  0.10840122136E+03  0.92596025153E+02 0.  0.
        -24    2    1    2    0    0  0.42434141696E+02 -0.43437430093E+01 -0.75553285768E+02  0.11923817762E+03  0.81791928245E+02 0.  0.
         11    1    4    4    0    0 -0.22956629229E+02 -0.81803326076E+01 -0.33391157527E+02  0.41338771971E+02  0.00000000000E+00 0. -1.
        -12    1    4    4    0    0  0.65390770925E+02  0.38365895983E+01 -0.42162128242E+02  0.77899405645E+02  0.00000000000E+00 0.  1.
        -13    1    3    3    0    0  0.33824565133E+02  0.96034190714E+01 -0.15487546197E+02  0.38421230479E+02  0.00000000000E+00 0.  1.
         13    1    3    3    0    0 -0.63228965642E+02  0.11833455183E+02 -0.27554788447E+02  0.69979990883E+02  0.00000000000E+00 0. -1.
          4    1    1    2  501    0 -0.13029741188E+02 -0.17093131245E+02 -0.64345503282E+02  0.67840202563E+02  0.00000000000E+00 0. -1.
<scales pt_clust_5="13000.00000" pt_clust_6="13000.00000" pt_clust_7="13000.00000" pt_clust_8="13000.00000" pt_clust_9="21.49301"></scales>
<clustering>
<clus scale="   21.493">  2  9  1 -1</clus>
<clus scale="   81.792">  5  6 -1 -1</clus>
<clus scale="   90.095">  2  5  1 -1</clus>
<clus scale="   92.596">  7  8 -1 -1</clus>
<clus scale="   21.493">  2  5  1 -1</clus>
</clustering>
</event>
<event>
 9    1  0.6270443E-005  0.1201627E+03  0.7546771E-02  0.1259050E+00
         21   -1    0    0  501  502  0.00000000000E+00  0.00000000000E+00  0.11535489248E+03  0.11535489248E+03  0.00000000000E+00 0.  1.
         -2   -1    0    0    0  501 -0.00000000000E+00 -0.00000000000E+00 -0.24641590177E+03  0.24641590177E+03  0.00000000000E+00 0.  1.
        -24    2    1    2    0    0 -0.30207992332E+02  0.11414156513E+02 -0.13223917669E+03  0.15826096261E+03  0.80725006448E+02 0.  0.
         23    2    1    2    0    0 -0.20394119081E+02  0.64572380888E+02 -0.40433056421E+01  0.11206700073E+03  0.89202869153E+02 0.  0.
         13    1    3    3    0    0  0.13357976745E+02  0.33316647758E+02 -0.74426713353E+02  0.82630322649E+02  0.00000000000E+00 0. -1.
        -14    1    3    3    0    0 -0.43565969077E+02 -0.21902491244E+02 -0.57812463333E+02  0.75630639962E+02  0.00000000000E+00 0.  1.
        -13    1    4    4    0    0  0.16222541073E+01  0.70074424206E+02 -0.31160044288E+02  0.76707268210E+02  0.00000000000E+00 0.  1.
         13    1    4    4    0    0 -0.22016373188E+02 -0.55020433181E+01  0.27116738645E+02  0.35359732519E+02  0.00000000000E+00 0. -1.
         -1    1    1    2    0  502  0.50602111413E+02 -0.75986537401E+02  0.52214730380E+01  0.91442830919E+02  0.00000000000E+00 0.  1.
<scales pt_clust_5="13000.00000" pt_clust_6="13000.00000" pt_clust_7="13000.00000" pt_clust_8="13000.00000" pt_clust_9="80.51038"></scales>
<clustering>
<clus scale="   80.725">  5  6 -1 -1</clus>
<clus scale="   86.944">  2  5  1 -1</clus>
<clus scale="   80.510">  1  9  2 -1</clus>
<clus scale="   89.203">  7  8 -1 -1</clus>
<clus scale="   80.510">  1  5  2 -1</clus>
</clustering>
</event>
<event>
 9    1  0.6270443E-005  0.2743880E+03  0.7546771E-02  0.1098916E+00
         21   -1    0    0  501  502  0.00000000000E+00  0.00000000000E+00  0.37809140034E+03  0.37809140034E+03  0.00000000000E+00 0. -1.
          1   -1    0    0  502    0 -0.00000000000E+00 -0.00000000000E+00 -0.26800397317E+03  0.26800397317E+03  0.00000000000E+00 0. -1.
         23    2    1    2    0    0 -0.11436934208E+03  0.23250299680E+03 -0.38206043001E+02  0.27506009761E+03  0.84025981967E+02 0.  0.
        -24    2    1    2    0    0  0.79805050049E+02 -0.25551964330E+03  0.16668376534E+03  0.32561876727E+03  0.81147827115E+02 0.  0.
         11    1    4    4    0    0  0.60037195912E+02 -0.23773784302E+03  0.12261441886E+03  0.27414967191E+03  0.00000000000E+00 0. -1.
        -12    1    4    4    0    0  0.19767854137E+02 -0.17781800288E+02  0.44069346478E+02  0.51469095365E+02  0.00000000000E+00 0.  1.
        -11    1    3    3    0    0 -0.60709587097E+02  0.13821507272E+03  0.19441588048E+02  0.15220721283E+03  0.00000000000E+00 0.  1.
         11    1    3    3    0    0 -0.53659754980E+02  0.94287924086E+02 -0.57647631049E+02  0.12285288478E+03  0.00000000000E+00 0. -1.
          2    1    1    2  501    0  0.34564292028E+02  0.23016646500E+02 -0.18390295169E+02  0.45416508628E+02  0.00000000000E+00 0. -1.
<scales pt_clust_5="13000.00000" pt_clust_6="13000.00000" pt_clust_7="13000.00000" pt_clust_8="13000.00000" pt_clust_9="41.52659"></scales>
<clustering>
<clus scale="   41.527">  1  9  2 -1</clus>
<clus scale="   81.148">  5  6 -1 -1</clus>
<clus scale="   84.026">  7  8 -1 -1</clus>
<clus scale="  273.520">  1  5  2 -1</clus>
<clus scale="   41.527">  1  5  2 -1</clus>
</clustering>
</event>
<event>
 9    1  0.6270443E-005  0.9421763E+02  0.7546771E-02  0.1299312E+00
          1   -1    0    0  502    0 -0.00000000000E+00  0.00000000000E+00  0.34459133242E+03  0.34459133242E+03  0.00000000000E+00 0. -1.
         21   -1    0    0  501  502  0.00000000000E+00 -0.00000000000E+00 -0.39802558084E+02  0.39802558084E+02  0.00000000000E+00 0.  1.
        -24    2    1    2    0    0  0.21824866591E+02 -0.25353908414E+01  0.21812394166E+03  0.23345722779E+03  0.80258770688E+02 0.  0.
         23    2    1    2    0    0 -0.30572792146E+02 -0.19846937614E+02  0.60049207289E+02  0.11507740529E+03  0.91149905977E+02 0.  0.
         13    1    3    3    0    0  0.26440100675E+02 -0.34542065694E+02  0.17000292235E+03  0.17547998984E+03  0.00000000000E+00 0. -1.
        -14    1    3    3    0    0 -0.46152340839E+01  0.32006674853E+02  0.48121019312E+02  0.57977237950E+02  0.00000000000E+00 0.  1.
        -13    1    4    4    0    0 -0.16358921920E+02 -0.33969877601E+02 -0.12570555546E+02  0.39744003036E+02  0.00000000000E+00 0.  1.
         13    1    4    4    0    0 -0.14213870226E+02  0.14122939987E+02  0.72619762834E+02  0.75333402252E+02  0.00000000000E+00 0. -1.
          2    1    1    2  501    0  0.87479255549E+01  0.22382328456E+02  0.26615625386E+02  0.35859257428E+02  0.00000000000E+00 0. -1.
<scales pt_clust_5="13000.00000" pt_clust_6="13000.00000" pt_clust_7="13000.00000" pt_clust_8="13000.00000" pt_clust_9="24.03112"></scales>
<clustering>
<clus scale="   24.031">  2  9  1 -1</clus>
<clus scale="   80.259">  5  6 -1 -1</clus>
<clus scale="   83.727">  1  5  2 -1</clus>
<clus scale="   91.150">  7  8 -1 -1</clus>
<clus scale="   24.031">  2  5  1 -1</clus>
</clustering>
</event>
<event>
 9    1  0.6270443E-005  0.1195363E+03  0.7546771E-02  0.1248590E+00
         -4   -1    0    0    0  501 -0.00000000000E+00  0.00000000000E+00  0.27949716658E+03  0.27949716658E+03  0.00000000000E+00 0.  1.
         21   -1    0    0  501  502  0.00000000000E+00 -0.00000000000E+00 -0.77040883092E+02  0.77040883092E+02  0.00000000000E+00 0.  1.
        -24    2    1    2    0    0  0.50686180786E+02 -0.38517090934E+02  0.11316475792E+03  0.15175731417E+03  0.78558034295E+02 0.  0.
         23    2    1    2    0    0 -0.58529697700E+02  0.80622485933E+02  0.87437965602E+02  0.16191092410E+03  0.92973322853E+02 0.  0.
         13    1    3    3    0    0  0.10931519105E+02 -0.50327006645E+02  0.32059086416E+02  0.60663751364E+02  0.00000000000E+00 0. -1.
        -14    1    3    3    0    0  0.39754661681E+02  0.11809915711E+02  0.81105671507E+02  0.91093562809E+02  0.00000000000E+00 0.  1.
        -11    1    4    4    0    0 -0.64963375670E+02  0.10455067915E+02  0.43194001334E+02  0.78710039861E+02  0.00000000000E+00 0. -1.
         11    1    4    4    0    0  0.64336779702E+01  0.70167418018E+02  0.44243964267E+02  0.83200884236E+02  0.00000000000E+00 0.  1.
         -3    1    1    2    0  502  0.78435169139E+01 -0.42105394999E+02  0.18535599671E+01  0.42869811408E+02  0.00000000000E+00 0.  1.
<scales pt_clust_5="13000.00000" pt_clust_6="13000.00000" pt_clust_7="13000.00000" pt_clust_8="13000.00000" pt_clust_9="42.82972"></scales>
<clustering>
<clus scale="   42.830">  2  9  1 -1</clus>
<clus scale="   78.558">  5  6 -1 -1</clus>
<clus scale="   92.973">  7  8 -1 -1</clus>
<clus scale="  108.703">  1  5  2 -1</clus>
<clus scale="   42.830">  2  5  1 -1</clus>
</clustering>
</event>
<event>
 9    1  0.6270443E-005  0.1051414E+03  0.7546771E-02  0.1274796E+00
          1   -1    0    0  502    0 -0.00000000000E+00  0.00000000000E+00  0.12970933469E+04  0.12970933469E+04  0.00000000000E+00 0. -1.
         21   -1    0    0  501  502  0.00000000000E+00 -0.00000000000E+00 -0.15191103686E+02  0.15191103686E+02  0.00000000000E+00 0. -1.
        -24    2    1    2    0    0 -0.43104538218E+02 -0.45763019635E+02  0.68014614282E+03  0.68771765391E+03  0.80028374474E+02 0.  0.
         23    2    1    2    0    0 -0.17710074480E+02  0.50857227495E+02  0.39870605574E+03  0.41254394719E+03  0.91246288438E+02 0.  0.
         13    1    3    3    0    0 -0.48837140729E+02 -0.56906703917E+02  0.38103245528E+03  0.38834156518E+03  0.00000000000E+00 0. -1.
        -14    1    3    3    0    0  0.57326025113E+01  0.11143684283E+02  0.29911368754E+03  0.29937608873E+03  0.00000000000E+00 0.  1.
        -13    1    4    4    0    0  0.36492905194E+02  0.17526377104E+02  0.11922226661E+03  0.12590812078E+03  0.00000000000E+00 0.  1.
         13    1    4    4    0    0 -0.54202979674E+02  0.33330850391E+02  0.27948378913E+03  0.28663582641E+03  0.00000000000E+00 0. -1.
          2    1    1    2  501    0  0.60814612698E+02 -0.50942078602E+01  0.20305004466E+03  0.21202284949E+03  0.00000000000E+00 0. -1.
<scales pt_clust_5="13000.00000" pt_clust_6="13000.00000" pt_clust_7="13000.00000" pt_clust_8="13000.00000" pt_clust_9="61.02760"></scales>
<clustering>
<clus scale="   61.028">  2  9  1 -1</clus>
<clus scale="   80.028">  5  6 -1 -1</clus>
<clus scale="   91.246">  7  8 -1 -1</clus>
<clus scale="   95.569">  1  5  2 -1</clus>
<clus scale="   61.028">  2  5  1 -1</clus>
</clustering>
</event>
<event>
 9    1  0.6270443E-005  0.1011713E+03  0.7546771E-02  0.1283105E+00
         21   -1    0    0  501  502  0.00000000000E+00  0.00000000000E+00  0.54529712590E+03  0.54529712590E+03  0.00000000000E+00 0.  1.
         -4   -1    0    0    0  501 -0.00000000000E+00 -0.00000000000E+00 -0.47509432288E+02  0.47509432288E+02  0.00000000000E+00 0.  1.
         23    2    1    2    0    0 -0.16636269296E+02  0.41035929394E+02  0.79676041295E+02  0.12849077373E+03  0.90558789855E+02 0.  0.
        -24    2    1    2    0    0 -0.14953517057E+02 -0.55516750100E+02  0.41817816412E+03  0.42956505506E+03  0.79670837642E+02 0.  0.
         11    1    4    4    0    0  0.30434468539E+02 -0.12220628268E+02  0.19503072437E+03  0.19776901698E+03  0.00000000000E+00 0. -1.
        -12    1    4    4    0    0 -0.45387985596E+02 -0.43296121832E+02  0.22314743975E+03  0.23179603807E+03  0.00000000000E+00 0.  1.
        -11    1    3    3    0    0  0.29411887588E+02  0.33965743037E+02  0.66174122441E+02  0.79985906961E+02  0.00000000000E+00 0. -1.
         11    1    3    3    0    0 -0.46048156884E+02  0.70701863569E+01  0.13501918854E+02  0.48504866769E+02  0.00000000000E+00 0.  1.
         -3    1    1    2    0  502  0.31589786353E+02  0.14480820706E+02 -0.66511796281E-01  0.34750729402E+02  0.00000000000E+00 0.  1.
<scales pt_clust_5="13000.00000" pt_clust_6="13000.00000" pt_clust_7="13000.00000" pt_clust_8="13000.00000" pt_clust_9="34.75068"></scales>
<clustering>
<clus scale="   34.751">  1  9  2 -1</clus>
<clus scale="   79.671">  5  6 -1 -1</clus>
<clus scale="   90.559">  7  8 -1 -1</clus>
<clus scale="   91.554">  1  5  2 -1</clus>
<clus scale="   34.751">  1  5  2 -1</clus>
</clustering>
</event>
<event>
 9    1  0.6270443E-005  0.1239589E+03  0.7546771E-02  0.1237671E+00
         21   -1    0    0  501  502  0.00000000000E+00  0.00000000000E+00  0.18564510522E+03  0.18564510522E+03  0.00000000000E+00 0.  1.
          1   -1    0    0  502    0 -0.00000000000E+00 -0.00000000000E+00 -0.55051720377E+03  0.55051720377E+03  0.00000000000E+00 0. -1.
        -24    2    1    2    0    0 -0.13776039098E+02 -0.88752224072E+02 -0.50524240621E+03  0.51999266651E+03  0.83998497911E+02 0.  0.
         23    2    1    2    0    0 -0.17187396653E+02  0.66433038850E+02  0.58005693361E+02  0.12539073484E+03  0.87460966540E+02 0.  0.
         13    1    3    3    0    0  0.28518199207E+01 -0.10147960806E+03 -0.43540271075E+03  0.44708138438E+03  0.00000000000E+00 0. -1.
        -14    1    3    3    0    0 -0.16627859018E+02  0.12727383992E+02 -0.69839695465E+02  0.72911282127E+02  0.00000000000E+00 0.  1.
        -11    1    4    4    0    0 -0.41957231924E+02  0.20345836798E+02  0.56215921135E+02  0.73038292524E+02  0.00000000000E+00 0.  1.
         11    1    4    4    0    0  0.24769835271E+02  0.46087202053E+02  0.17897722253E+01  0.52352442321E+02  0.00000000000E+00 0. -1.
          2    1    1    2  501    0  0.30963435751E+02  0.22319185221E+02  0.82364614302E+02  0.90778907636E+02  0.00000000000E+00 0. -1.
<scales pt_clust_5="13000.00000" pt_clust_6="13000.00000" pt_clust_7="13000.00000" pt_clust_8="13000.00000" pt_clust_9="38.16910"></scales>
<clustering>
<clus scale="   38.169">  1  9  2 -1</clus>
<clus scale="   83.998">  5  6 -1 -1</clus>
<clus scale="   87.461">  7  8 -1 -1</clus>
<clus scale="  121.541">  2  5  1 -1</clus>
<clus scale="   38.169">  1  5  2 -1</clus>
</clustering>
</event>
<event>
 9    1  0.6270443E-005  0.1164586E+03  0.7546771E-02  0.1258943E+00
          3   -1    0    0  502    0 -0.00000000000E+00  0.00000000000E+00  0.10892683187E+03  0.10892683187E+03  0.00000000000E+00 0. -1.
         21   -1    0    0  501  502  0.00000000000E+00 -0.00000000000E+00 -0.18360803148E+03  0.18360803148E+03  0.00000000000E+00 0.  1.
        -24    2    1    2    0    0  0.61361402342E+02 -0.12534569037E+02  0.12975075505E+02  0.10272071020E+03  0.80379441409E+02 0.  0.
         23    2    1    2    0    0 -0.30840152965E+02 -0.32120299834E+02 -0.68500564810E+02  0.13243344894E+03  0.10422793447E+03 0.  0.
         13    1    3    3    0    0  0.47300258367E+02  0.23109899966E+02 -0.15616645094E+02  0.54911397014E+02  0.00000000000E+00 0. -1.
        -14    1    3    3    0    0  0.14061143975E+02 -0.35644469004E+02  0.28591720600E+02  0.47809313186E+02  0.00000000000E+00 0.  1.
        -13    1    4    4    0    0 -0.22141600143E+02  0.16332963962E+02 -0.77634082802E+02  0.82365447739E+02  0.00000000000E+00 0.  1.
         13    1    4    4    0    0 -0.86985528220E+01 -0.48453263796E+02  0.91335179924E+01  0.50068001204E+02  0.00000000000E+00 0. -1.
          4    1    1    2  501    0 -0.30521249377E+02  0.44654868871E+02 -0.19155710312E+02  0.57380704204E+02  0.00000000000E+00 0. -1.
<scales pt_clust_5="13000.00000" pt_clust_6="13000.00000" pt_clust_7="13000.00000" pt_clust_8="13000.00000" pt_clust_9="54.08885"></scales>
<clustering>
<clus scale="   54.089">  2  9  1 -1</clus>
<clus scale="   80.379">  5  6 -1 -1</clus>
<clus scale="   95.708">  1  5  2 -1</clus>
<clus scale="  104.228">  7  8 -1 -1</clus>
<clus scale="   54.089">  2  5  1 -1</clus>
</clustering>
</event>
<event>
 9    1  0.6270443E-005  0.1070117E+03  0.7546771E-02  0.1269923E+00
          1   -1    0    0  502    0 -0.00000000000E+00  0.00000000000E+00  0.31160567686E+03  0.31160567686E+03  0.00000000000E+00 0. -1.
         21   -1    0    0  501  502  0.00000000000E+00 -0.00000000000E+00 -0.52013376512E+02  0.52013376512E+02  0.00000000000E+00 0.  1.
         23    2    1    2    0    0 -0.27093738936E+02  0.55073105053E+02  0.17167898775E+03  0.20378698071E+03  0.91040326677E+02 0.  0.
        -24    2    1    2    0    0  0.91765653151E+01 -0.45526063215E+02  0.30892828258E+02  0.99305163335E+02  0.82160311857E+02 0.  0.
         11    1    4    4    0    0 -0.21681476498E+01  0.23916283778E+02  0.79867132305E+01  0.25307648690E+02  0.00000000000E+00 0. -1.
        -12    1    4    4    0    0  0.11344712965E+02 -0.69442346993E+02  0.22906115027E+02  0.73997514646E+02  0.00000000000E+00 0.  1.
        -13    1    3    3    0    0  0.20619328410E+02 -0.10300656856E+02  0.70784431332E+02  0.74442568163E+02  0.00000000000E+00 0.  1.
         13    1    3    3    0    0 -0.47713067346E+02  0.65373761909E+02  0.10089455642E+03  0.12934441254E+03  0.00000000000E+00 0. -1.
          2    1    1    2  501    0  0.17917173621E+02 -0.95470418377E+01  0.57020484346E+02  0.60526909333E+02  0.00000000000E+00 0. -1.
<scales pt_clust_5="13000.00000" pt_clust_6="13000.00000" pt_clust_7="13000.00000" pt_clust_8="13000.00000" pt_clust_9="20.30201"></scales>
<clustering>
<clus scale="   20.302">  2  9  1 -1</clus>
<clus scale="   82.160">  5  6 -1 -1</clus>
<clus scale="   91.040">  7  8 -1 -1</clus>
<clus scale="   99.566">  2  5  1 -1</clus>
<clus scale="   20.302">  2  5  1 -1</clus>
</clustering>
</event>
<event>
 9    1  0.6270443E-005  0.9561684E+02  0.7546771E-02  0.1297787E+00
          1   -1    0    0  502    0 -0.00000000000E+00  0.00000000000E+00  0.21104207745E+03  0.21104207745E+03  0.00000000000E+00 0. -1.
         21   -1    0    0  501  502  0.00000000000E+00 -0.00000000000E+00 -0.27739865469E+03  0.27739865469E+03  0.00000000000E+00 0. -1.
         23    2    1    2    0    0  0.13640378167E+02  0.15501537708E+02  0.18337654631E+03  0.20670771406E+03  0.93138411678E+02 0.  0.
        -24    2    1    2    0    0 -0.61343193188E+01 -0.36720584662E+02 -0.11266950541E+03  0.14283368659E+03  0.79504800878E+02 0.  0.
         13    1    4    4    0    0 -0.12341142364E+01  0.20654768460E+02 -0.58848378896E+01  0.21512178297E+02  0.00000000000E+00 0. -1.
        -14    1    4    4    0    0 -0.49002050823E+01 -0.57375353122E+02 -0.10678466752E+03  0.12132150829E+03  0.00000000000E+00 0.  1.
        -13    1    3    3    0    0 -0.39446492306E+02  0.15105582888E+02  0.77291915357E+02  0.88080897868E+02  0.00000000000E+00 0.  1.
         13    1    3    3    0    0  0.53086870473E+02  0.39595481957E+00  0.10608463095E+03  0.11862681620E+03  0.00000000000E+00 0. -1.
          2    1    1    2  501    0 -0.75060588482E+01  0.21219046954E+02 -0.13706361814E+03  0.13889933150E+03  0.00000000000E+00 0. -1.
<scales pt_clust_5="13000.00000" pt_clust_6="13000.00000" pt_clust_7="13000.00000" pt_clust_8="13000.00000" pt_clust_9="22.50753"></scales>
<clustering>
<clus scale="   22.508">  2  9  1 -1</clus>
<clus scale="   79.505">  5  6 -1 -1</clus>
<clus scale="   82.394">  2  5  1 -1</clus>
<clus scale="   93.138">  7  8 -1 -1</clus>
<clus scale="   22.508">  2  5  1 -1</clus>
</clustering>
</event>
<event>
 9    1  0.6270443E-005  0.1191307E+03  0.7546771E-02  0.1248178E+00
         21   -1    0    0  501  502  0.00000000000E+00  0.00000000000E+00  0.41161962744E+03  0.41161962744E+03  0.00000000000E+00 0.  1.
         -4   -1    0    0    0  501 -0.00000000000E+00 -0.00000000000E+00 -0.62961377700E+02  0.62961377700E+02  0.00000000000E+00 0.  1.
         23    2    1    2    0    0  0.34003409022E+02  0.74454814549E+02  0.49124931215E+02  0.13228317919E+03  0.91574174273E+02 0.  0.
        -24    2    1    2    0    0 -0.68594432877E+02 -0.33554165915E+02  0.18132418223E+03  0.21251800513E+03  0.80339063789E+02 0.  0.
         11    1    4    4    0    0 -0.35664761613E+01 -0.36928626150E+02  0.10928856499E+03  0.11541418292E+03  0.00000000000E+00 0. -1.
        -12    1    4    4    0    0 -0.65027956716E+02  0.33744602349E+01  0.72035617242E+02  0.97103822211E+02  0.00000000000E+00 0.  1.
        -11    1    3    3    0    0  0.52793804892E+02  0.83733825669E+01  0.28368516877E+02  0.60515056972E+02  0.00000000000E+00 0. -1.
         11    1    3    3    0    0 -0.18790395870E+02  0.66081431982E+02  0.20756414338E+02  0.71768122213E+02  0.00000000000E+00 0.  1.
         -3    1    1    2    0  502  0.34591023855E+02 -0.40900648634E+02  0.11820913630E+03  0.12977982083E+03  0.00000000000E+00 0.  1.
<scales pt_clust_5="13000.00000" pt_clust_6="13000.00000" pt_clust_7="13000.00000" pt_clust_8="13000.00000" pt_clust_9="53.56680"></scales>
<clustering>
<clus scale="   53.567">  1  9  2 -1</clus>
<clus scale="   80.339">  5  6 -1 -1</clus>
<clus scale="   91.574">  7  8 -1 -1</clus>
<clus scale="  110.728">  1  5  2 -1</clus>
<clus scale="   53.567">  1  5  2 -1</clus>
</clustering>
</event>
<event>
 9    1  0.6270443E-005  0.1036231E+03  0.7546771E-02  0.1275602E+00
          1   -1    0    0  502    0 -0.00000000000E+00  0.00000000000E+00  0.70523416719E+03  0.70523416719E+03  0.00000000000E+00 0. -1.
         21   -1    0    0  501  502  0.00000000000E+00 -0.00000000000E+00 -0.33734207044E+02  0.33734207044E+02  0.00000000000E+00 0.  1.
        -24    2    1    2    0    0  0.30366298435E+02 -0.55668597265E+02  0.49462774034E+03  0.50527938559E+03  0.81422055903E+02 0.  0.
         23    2    1    2    0    0  0.15016511535E+01  0.39902152677E+02  0.17282105828E+03  0.19790409106E+03  0.87775135028E+02 0.  0.
         13    1    3    3    0    0 -0.58437280130E+01 -0.64063912419E+02  0.26724775140E+03  0.27488123738E+03  0.00000000000E+00 0. -1.
        -14    1    3    3    0    0  0.36210026448E+02  0.83953151546E+01  0.22737998893E+03  0.23039814821E+03  0.00000000000E+00 0.  1.
        -13    1    4    4    0    0  0.23149664808E+02 -0.82054865640E+01  0.96013972514E+01  0.26370889625E+02  0.00000000000E+00 0.  1.
         13    1    4    4    0    0 -0.21648013654E+02  0.48107639241E+02  0.16321966102E+03  0.17153320143E+03  0.00000000000E+00 0. -1.
          2    1    1    2  501    0 -0.31867949588E+02  0.15766444588E+02  0.40511615365E+01  0.35784897592E+02  0.00000000000E+00 0. -1.
<scales pt_clust_5="13000.00000" pt_clust_6="13000.00000" pt_clust_7="13000.00000" pt_clust_8="13000.00000" pt_clust_9="35.55484"></scales>
<clustering>
<clus scale="   35.555">  2  9  1 -1</clus>
<clus scale="   81.422">  5  6 -1 -1</clus>
<clus scale="   87.775">  7  8 -1 -1</clus>
<clus scale="   98.300">  1  5  2 -1</clus>
<clus scale="   35.555">  2  5  1 -1</clus>
</clustering>
</event>
<event>
 9    1  0.6653511E-005  0.1144278E+03  0.7546771E-02  0.1265217E+00
         21   -1    0    0  501  502  0.00000000000E+00  0.00000000000E+00  0.25421506090E+03  0.25421506090E+03  0.00000000000E+00 0.  1.
          1   -1    0    0  502    0 -0.00000000000E+00 -0.00000000000E+00 -0.29912803092E+03  0.29912803092E+03  0.00000000000E+00 0. -1.
         23    2    1    2    0    0 -0.10269235851E+02 -0.36460181159E+02 -0.27183357084E+03  0.29477839812E+03  0.10754539388E+03 0.  0.
        -24    2    1    2    0    0  0.20477487485E+02  0.57120685006E+02  0.19154007287E+03  0.21634092576E+03  0.80210326603E+02 0.  0.
         13    1    4    4    0    0  0.13343191582E+02  0.38710390111E+02  0.23631760180E+02  0.47275735354E+02  0.00000000000E+00 0. -1.
        -14    1    4    4    0    0  0.71342959035E+01  0.18410294896E+02  0.16790831269E+03  0.16906519040E+03  0.00000000000E+00 0.  1.
        -13    1    3    3    0    0  0.35129137308E+02  0.46943451180E+01 -0.33765593524E+02  0.48951082420E+02  0.00000000000E+00 0.  1.
         13    1    3    3    0    0 -0.45398373159E+02 -0.41154526277E+02 -0.23806797732E+03  0.24582731570E+03  0.00000000000E+00 0. -1.
          2    1    1    2  501    0 -0.10208251634E+02 -0.20660503848E+02  0.35380527959E+02  0.42223767943E+02  0.00000000000E+00 0. -1.
<scales pt_clust_5="13000.00000" pt_clust_6="13000.00000" pt_clust_7="13000.00000" pt_clust_8="13000.00000" pt_clust_9="23.04484"></scales>
<clustering>
<clus scale="   23.045">  1  9  2 -1</clus>
<clus scale="   80.210">  5  6 -1 -1</clus>
<clus scale="   89.227">  1  5  2 -1</clus>
<clus scale="  107.545">  7  8 -1 -1</clus>
<clus scale="   23.045">  1  5  2 -1</clus>
</clustering>
</event>
<event>
 9    1  0.6270443E-005  0.9675354E+02  0.7546771E-02  0.1293915E+00
          3   -1    0    0  502    0 -0.00000000000E+00  0.00000000000E+00  0.16853233498E+03  0.16853233498E+03  0.00000000000E+00 0. -1.
         21   -1    0    0  501  502  0.00000000000E+00 -0.00000000000E+00 -0.14645259128E+03  0.14645259128E+03  0.00000000000E+00 0.  1.
         23    2    1    2    0    0  0.59213234628E+01  0.28373320302E+02  0.12849479886E+03  0.16093665145E+03  0.92463966324E+02 0.  0.
        -24    2    1    2    0    0 -0.27747772788E+02 -0.18711266423E+02 -0.87905767435E+02  0.12384326020E+03  0.80558542453E+02 0.  0.
         13    1    4    4    0    0  0.12762764674E+02 -0.38995911319E+02 -0.32974427097E+02  0.52639168915E+02  0.00000000000E+00 0. -1.
        -14    1    4    4    0    0 -0.40510537461E+02  0.20284644896E+02 -0.54931340338E+02  0.71204091282E+02  0.00000000000E+00 0.  1.
        -13    1    3    3    0    0  0.48422936569E+02  0.16465830082E+02  0.83414126899E+02  0.97845903913E+02  0.00000000000E+00 0. -1.
         13    1    3    3    0    0 -0.42501613106E+02  0.11907490220E+02  0.45080671965E+02  0.63090747537E+02  0.00000000000E+00 0.  1.
          4    1    1    2  501    0  0.21826449325E+02 -0.96620538791E+01 -0.18509287734E+02  0.30205014612E+02  0.00000000000E+00 0. -1.
<scales pt_clust_5="13000.00000" pt_clust_6="13000.00000" pt_clust_7="13000.00000" pt_clust_8="13000.00000" pt_clust_9="23.86942"></scales>
<clustering>
<clus scale="   23.869">  2  9  1 -1</clus>
<clus scale="   80.559">  5  6 -1 -1</clus>
<clus scale="   85.448">  2  5  1 -1</clus>
<clus scale="   92.464">  7  8 -1 -1</clus>
<clus scale="   23.869">  2  5  1 -1</clus>
</clustering>
</event>
<event>
 9    1  0.6270443E-005  0.1620105E+03  0.7546771E-02  0.1196984E+00
         -2   -1    0    0    0  501 -0.00000000000E+00  0.00000000000E+00  0.38739083532E+03  0.38739083532E+03  0.00000000000E+00 0.  1.
         21   -1    0    0  501  502  0.00000000000E+00 -0.00000000000E+00 -0.15398403445E+03  0.15398403445E+03  0.00000000000E+00 0.  1.
         23    2    1    2    0    0  0.10839716508E+01  0.89744017690E+02 -0.22908003802E+02  0.13047244903E+03  0.91886449551E+02 0.  0.
        -24    2    1    2    0    0  0.10461963135E+03  0.53080410710E+02  0.10820134282E+03  0.17958085535E+03  0.82334414172E+02 0.  0.
         11    1    4    4    0    0  0.66334050716E+02 -0.11814029014E+02  0.59298141720E+02  0.89755485500E+02  0.00000000000E+00 0. -1.
        -12    1    4    4    0    0  0.38285580631E+02  0.64894439724E+02  0.48903201102E+02  0.89825369854E+02  0.00000000000E+00 0.  1.
        -13    1    3    3    0    0 -0.34067646452E+02  0.31094555186E+02 -0.38799317506E+02  0.60273235652E+02  0.00000000000E+00 0.  1.
         13    1    3    3    0    0  0.35151618103E+02  0.58649462504E+02  0.15891313704E+02  0.70199213375E+02  0.00000000000E+00 0. -1.
         -1    1    1    2    0  502 -0.10570360300E+03 -0.14282442840E+03  0.14811346185E+03  0.23132156539E+03  0.00000000000E+00 0.  1.
<scales pt_clust_5="13000.00000" pt_clust_6="13000.00000" pt_clust_7="13000.00000" pt_clust_8="13000.00000" pt_clust_9="139.52945"></scales>
<clustering>
<clus scale="   82.334">  5  6 -1 -1</clus>
<clus scale="   91.886">  7  8 -1 -1</clus>
<clus scale="  128.446">  1  7  2 -1</clus>
<clus scale="  139.529">  2  9  1 -1</clus>
<clus scale="  139.529">  2  5  1 -1</clus>
</clustering>
</event>
<event>
 9    1  0.6270443E-005  0.1991804E+03  0.7546771E-02  0.1182689E+00
         21   -1    0    0  501  502  0.00000000000E+00  0.00000000000E+00  0.13646782910E+03  0.13646782910E+03  0.00000000000E+00 0.  1.
         -2   -1    0    0    0  501 -0.00000000000E+00 -0.00000000000E+00 -0.49398378641E+03  0.49398378641E+03  0.00000000000E+00 0.  1.
         23    2    1    2    0    0 -0.25909820475E+01  0.24747690627E+02 -0.12713841785E+03  0.15859182009E+03  0.91476919096E+02 0.  0.
        -24    2    1    2    0    0  0.11491336248E+03  0.12600132881E+03 -0.21126847974E+03  0.28289752360E+03  0.79468374772E+02 0.  0.
         13    1    4    4    0    0  0.38740022008E+02  0.46956088979E+02 -0.13824216450E+03  0.15105151321E+03  0.00000000000E+00 0. -1.
        -14    1    4    4    0    0  0.76173340472E+02  0.79045239827E+02 -0.73026315243E+02  0.13184601039E+03  0.00000000000E+00 0.  1.
        -11    1    3    3    0    0 -0.27020681064E+02  0.19365891631E+02 -0.12927903951E+03  0.13348492432E+03  0.00000000000E+00 0.  1.
         11    1    3    3    0    0  0.24429699017E+02  0.53817989956E+01  0.21406216548E+01  0.25106895777E+02  0.00000000000E+00 0. -1.
         -1    1    1    2    0  502 -0.11232238043E+03 -0.15074901943E+03 -0.19109059714E+02  0.18896227181E+03  0.00000000000E+00 0.  1.
<scales pt_clust_5="13000.00000" pt_clust_6="13000.00000" pt_clust_7="13000.00000" pt_clust_8="13000.00000" pt_clust_9="182.64066"></scales>
<clustering>
<clus scale="   79.468">  5  6 -1 -1</clus>
<clus scale="   91.477">  7  8 -1 -1</clus>
<clus scale="   94.801">  2  7  1 -1</clus>
<clus scale="  182.641">  1  9  2 -1</clus>
<clus scale="  182.641">  1  5  2 -1</clus>
</clustering>
</event>
<event>
 9    1  0.6270443E-005  0.1003516E+03  0.7546771E-02  0.1283339E+00
         21   -1    0    0  501  502  0.00000000000E+00  0.00000000000E+00  0.14454052911E+03  0.14454052911E+03  0.00000000000E+00 0. -1.
          1   -1    0    0  502    0 -0.00000000000E+00 -0.00000000000E+00 -0.20523170378E+03  0.20523170378E+03  0.00000000000E+00 0. -1.
         23    2    1    2    0    0  0.23001423963E+01 -0.63860577944E+02 -0.11580720867E+03  0.15865154161E+03  0.87610147843E+02 0.  0.
        -24    2    1    2    0    0  0.66607919747E+01  0.29389906786E+02 -0.36692343390E+02  0.92645802729E+02  0.79553654405E+02 0.  0.
         11    1    4    4    0    0 -0.25618334556E+02 -0.32718601122E+01 -0.38876226127E+02  0.46672958894E+02  0.00000000000E+00 0. -1.
        -12    1    4    4    0    0  0.32279126530E+02  0.32661766898E+02  0.21838827365E+01  0.45972843835E+02  0.00000000000E+00 0.  1.
        -13    1    3    3    0    0  0.35980323983E+02 -0.10726793317E+01 -0.50377027393E+02  0.61915904611E+02  0.00000000000E+00 0. -1.
         13    1    3    3    0    0 -0.33680181586E+02 -0.62787898612E+02 -0.65430181280E+02  0.96735637002E+02  0.00000000000E+00 0.  1.
          2    1    1    2  501    0 -0.89609343710E+01  0.34470671158E+02  0.91808377396E+02  0.98474888550E+02  0.00000000000E+00 0. -1.
<scales pt_clust_5="13000.00000" pt_clust_6="13000.00000" pt_clust_7="13000.00000" pt_clust_8="13000.00000" pt_clust_9="35.61637"></scales>
<clustering>
<clus scale="   35.616">  1  9  2 -1</clus>
<clus scale="   79.554">  5  6 -1 -1</clus>
<clus scale="   87.610">  7  8 -1 -1</clus>
<clus scale="   93.401">  1  5  2 -1</clus>
<clus scale="   35.616">  1  5  2 -1</clus>
</clustering>
</event>
<event>
 9    1  0.6270443E-005  0.2018974E+03  0.7546771E-02  0.1182772E+00
         21   -1    0    0  501  502  0.00000000000E+00  0.00000000000E+00  0.69796586140E+02  0.69796586140E+02  0.00000000000E+00 0. -1.
          1   -1    0    0  502    0 -0.00000000000E+00 -0.00000000000E+00 -0.13823829106E+04  0.13823829106E+04  0.00000000000E+00 0. -1.
        -24    2    1    2    0    0 -0.25363017174E+02 -0.35218567685E+02 -0.80232450697E+03  0.80745250011E+03  0.79820394056E+02 0.  0.
         23    2    1    2    0    0  0.18897478781E+03 -0.25884416338E+02 -0.34068560628E+03  0.40129635444E+03  0.92685534586E+02 0.  0.
         13    1    3    3    0    0 -0.21519918907E+02  0.20790806047E+02 -0.16761512713E+03  0.17026507384E+03  0.00000000000E+00 0. -1.
        -14    1    3    3    0    0 -0.38430982668E+01 -0.56009373732E+02 -0.63470937984E+03  0.63718742627E+03  0.00000000000E+00 0.  1.
        -13    1    4    4    0    0  0.93007183988E+02 -0.38027296504E+02 -0.24690017757E+03  0.26656351820E+03  0.00000000000E+00 0. -1.
         13    1    4    4    0    0  0.95967603818E+02  0.12142880166E+02 -0.93785428717E+02  0.13473283624E+03  0.00000000000E+00 0.  1.
          2    1    1    2  501    0 -0.16361177063E+03  0.61102984022E+02 -0.16957621120E+03  0.24343064217E+03  0.00000000000E+00 0. -1.
<scales pt_clust_5="13000.00000" pt_clust_6="13000.00000" pt_clust_7="13000.00000" pt_clust_8="13000.00000" pt_clust_9="179.36543"></scales>
<clustering>
<clus scale="   79.820">  5  6 -1 -1</clus>
<clus scale="   90.857">  2  5  1 -1</clus>
<clus scale="   92.686">  7  8 -1 -1</clus>
<clus scale="  179.365">  1  9  2 -1</clus>
<clus scale="  179.365">  1  5  2 -1</clus>
</clustering>
</event>
<event>
 9    1  0.6270443E-005  0.1971771E+03  0.7546771E-02  0.1152887E+00
         21   -1    0    0  501  502  0.00000000000E+00  0.00000000000E+00  0.78624304035E+02  0.78624304035E+02  0.00000000000E+00 0. -1.
          1   -1    0    0  502    0 -0.00000000000E+00 -0.00000000000E+00 -0.13887122490E+04  0.13887122490E+04  0.00000000000E+00 0. -1.
        -24    2    1    2    0    0  0.13806510873E+03 -0.12590350820E+03 -0.99447640115E+03  0.10153295875E+04  0.83649214656E+02 0.  0.
         23    2    1    2    0    0 -0.12571696503E+02  0.16726193178E+03 -0.19834783904E+03  0.27534374878E+03  0.91311080203E+02 0.  0.
         13    1    3    3    0    0  0.22830657166E+02 -0.70569777917E+02 -0.28905073366E+03  0.29841524608E+03  0.00000000000E+00 0. -1.
        -14    1    3    3    0    0  0.11523445156E+03 -0.55333730283E+02 -0.70542566749E+03  0.71691434139E+03  0.00000000000E+00 0.  1.
        -11    1    4    4    0    0  0.16197457424E+02  0.21854659174E+02 -0.83535018333E+02  0.87852621148E+02  0.00000000000E+00 0.  1.
         11    1    4    4    0    0 -0.28769153927E+02  0.14540727260E+03 -0.11481282071E+03  0.18749112764E+03  0.00000000000E+00 0. -1.
          2    1    1    2  501    0 -0.12549341223E+03 -0.41358423576E+02 -0.11726370482E+03  0.17666321683E+03  0.00000000000E+00 0. -1.
<scales pt_clust_5="13000.00000" pt_clust_6="13000.00000" pt_clust_7="13000.00000" pt_clust_8="13000.00000" pt_clust_9="132.13295"></scales>
<clustering>
<clus scale="   83.649">  5  6 -1 -1</clus>
<clus scale="   91.311">  7  8 -1 -1</clus>
<clus scale="  132.133">  1  9  2 -1</clus>
<clus scale="  193.748">  2  5  1 -1</clus>
<clus scale="  132.133">  1  5  2 -1</clus>
</clustering>
</event>
<event>
 9    1  0.6270443E-005  0.2020457E+03  0.7546771E-02  0.1149025E+00
          1   -1    0    0  502    0 -0.00000000000E+00  0.00000000000E+00  0.39377904485E+03  0.39377904485E+03  0.00000000000E+00 0. -1.
         21   -1    0    0  501  502  0.00000000000E+00 -0.00000000000E+00 -0.20250103936E+03  0.20250103936E+03  0.00000000000E+00 0.  1.
         23    2    1    2    0    0 -0.84154163776E+02 -0.15311908648E+03  0.26079821133E+03  0.32664052982E+03  0.90282616082E+02 0.  0.
        -24    2    1    2    0    0  0.11105909669E+03  0.17681492627E+03 -0.69306964522E+02  0.23378688768E+03  0.79089900809E+02 0.  0.
         11    1    4    4    0    0  0.52063226403E+02  0.40947375387E+02  0.79753515654E+01  0.66714865864E+02  0.00000000000E+00 0. -1.
        -12    1    4    4    0    0  0.58995870288E+02  0.13586755088E+03 -0.77282316088E+02  0.16707202181E+03  0.00000000000E+00 0.  1.
        -11    1    3    3    0    0 -0.61111803375E+02 -0.53916000200E+02  0.17660457028E+03  0.19450131576E+03  0.00000000000E+00 0. -1.
         11    1    3    3    0    0 -0.23042360401E+02 -0.99203086278E+02  0.84193641048E+02  0.13213921406E+03  0.00000000000E+00 0.  1.
          2    1    1    2  501    0 -0.26904932915E+02 -0.23695839788E+02 -0.21324131105E+00  0.35852666711E+02  0.00000000000E+00 0. -1.
<scales pt_clust_5="13000.00000" pt_clust_6="13000.00000" pt_clust_7="13000.00000" pt_clust_8="13000.00000" pt_clust_9="35.85203"></scales>
<clustering>
<clus scale="   35.852">  2  9  1 -1</clus>
<clus scale="   79.090">  5  6 -1 -1</clus>
<clus scale="   90.283">  7  8 -1 -1</clus>
<clus scale="  197.299">  2  5  1 -1</clus>
<clus scale="   35.852">  2  5  1 -1</clus>
</clustering>
</event>
<event>
 9    1  0.6270443E-005  0.1432763E+03  0.7546771E-02  0.1211275E+00
          1   -1    0    0  502    0 -0.00000000000E+00  0.00000000000E+00  0.56861324732E+03  0.56861324732E+03  0.00000000000E+00 0. -1.
         21   -1    0    0  501  502  0.00000000000E+00 -0.00000000000E+00 -0.58054096818E+02  0.58054096818E+02  0.00000000000E+00 0. -1.
         23    2    1    2    0    0  0.53950617634E+02  0.99294988027E+02  0.40234262446E+03  0.42794436340E+03  0.92122890282E+02 0.  0.
        -24    2    1    2    0    0 -0.64450048537E+02 -0.77025432768E+02  0.55442920605E+02  0.14048875909E+03  0.81095301566E+02 0.  0.
         11    1    4    4    0    0 -0.32473326525E+02  0.54951177545E+01 -0.50083746178E+01  0.33313616901E+02  0.00000000000E+00 0. -1.
        -12    1    4    4    0    0 -0.31976722012E+02 -0.82520550522E+02  0.60451295223E+02  0.10717514219E+03  0.00000000000E+00 0.  1.
        -13    1    3    3    0    0  0.34067687965E+02 -0.42111190136E+01  0.16054412454E+03  0.16417294786E+03  0.00000000000E+00 0.  1.
         13    1    3    3    0    0  0.19882929669E+02  0.10350610704E+03  0.24179849993E+03  0.26377141553E+03  0.00000000000E+00 0. -1.
          2    1    1    2  501    0  0.10499430903E+02 -0.22269555259E+02  0.52773605432E+02  0.58234221649E+02  0.00000000000E+00 0. -1.
<scales pt_clust_5="13000.00000" pt_clust_6="13000.00000" pt_clust_7="13000.00000" pt_clust_8="13000.00000" pt_clust_9="24.62056"></scales>
<clustering>
<clus scale="   24.621">  2  9  1 -1</clus>
<clus scale="   81.095">  5  6 -1 -1</clus>
<clus scale="   92.123">  7  8 -1 -1</clus>
<clus scale="  136.447">  2  5  1 -1</clus>
<clus scale="   24.621">  2  5  1 -1</clus>
</clustering>
</event>
<event>
 9    1  0.6270443E-005  0.1056600E+03  0.7546771E-02  0.1273047E+00
         21   -1    0    0  501  502  0.00000000000E+00  0.00000000000E+00  0.10531820912E+03  0.10531820912E+03  0.00000000000E+00 0. -1.
         -2   -1    0    0    0  501 -0.00000000000E+00 -0.00000000000E+00 -0.48448978268E+03  0.48448978268E+03  0.00000000000E+00 0.  1.
        -24    2    1    2    0    0 -0.52134733905E+02  0.66107351034E-01 -0.43143171877E+03  0.44218794605E+03  0.81724028400E+02 0.  0.
         23    2    1    2    0    0  0.65037131519E+02  0.19817411020E+02  0.38793601842E+02  0.12035882865E+03  0.91426176966E+02 0.  0.
         13    1    3    3    0    0 -0.47967858813E+02  0.30267417147E+02 -0.17528314647E+03  0.18423141278E+03  0.00000000000E+00 0. -1.
        -14    1    3    3    0    0 -0.41668750928E+01 -0.30201309796E+02 -0.25614857230E+03  0.25795653327E+03  0.00000000000E+00 0.  1.
        -11    1    4    4    0    0  0.88274386081E+02  0.15690372887E+02  0.25239962735E+02  0.93142958715E+02  0.00000000000E+00 0. -1.
         11    1    4    4    0    0 -0.23237254562E+02  0.41270381332E+01  0.13553639108E+02  0.27215869936E+02  0.00000000000E+00 0.  1.
         -1    1    1    2    0  502 -0.12902397614E+02 -0.19883518371E+02  0.13466543373E+02  0.27261217093E+02  0.00000000000E+00 0.  1.
<scales pt_clust_5="13000.00000" pt_clust_6="13000.00000" pt_clust_7="13000.00000" pt_clust_8="13000.00000" pt_clust_9="23.70287"></scales>
<clustering>
<clus scale="   23.703">  1  9  2 -1</clus>
<clus scale="   81.724">  5  6 -1 -1</clus>
<clus scale="   91.426">  7  8 -1 -1</clus>
<clus scale="   97.386">  2  5  1 -1</clus>
<clus scale="   23.703">  1  5  2 -1</clus>
</clustering>
</event>
<event>
 9    1  0.6270443E-005  0.1370465E+03  0.7546771E-02  0.1225844E+00
          1   -1    0    0  502    0 -0.00000000000E+00  0.00000000000E+00  0.23365544074E+03  0.23365544074E+03  0.00000000000E+00 0. -1.
         21   -1    0    0  501  502  0.00000000000E+00 -0.00000000000E+00 -0.13285661935E+03  0.13285661935E+03  0.00000000000E+00 0. -1.
         23    2    1    2    0    0  0.37584948126E+02  0.19398595932E+02  0.36154387647E+02  0.12408084339E+03  0.11090528437E+03 0.  0.
        -24    2    1    2    0    0 -0.11010019695E+03 -0.57792622233E+02  0.59344035881E+02  0.16020800351E+03  0.81748695651E+02 0.  0.
         11    1    4    4    0    0 -0.42313601157E+02  0.82329744870E+01  0.48614764775E+02  0.64973979915E+02  0.00000000000E+00 0. -1.
        -12    1    4    4    0    0 -0.67786595795E+02 -0.66025596720E+02  0.10729271106E+02  0.95234023596E+02  0.00000000000E+00 0.  1.
        -13    1    3    3    0    0 -0.25332885133E+02  0.27510180499E+02  0.46639810001E+02  0.59781577239E+02  0.00000000000E+00 0.  1.
         13    1    3    3    0    0  0.62917833259E+02 -0.81115845668E+01 -0.10485422353E+02  0.64299266155E+02  0.00000000000E+00 0. -1.
          2    1    1    2  501    0  0.72515248827E+02  0.38394026301E+02  0.53003978586E+01  0.82223213179E+02  0.00000000000E+00 0. -1.
<scales pt_clust_5="13000.00000" pt_clust_6="13000.00000" pt_clust_7="13000.00000" pt_clust_8="13000.00000" pt_clust_9="82.05219"></scales>
<clustering>
<clus scale="   81.749">  5  6 -1 -1</clus>
<clus scale="   82.052">  2  9  1 -1</clus>
<clus scale="  110.905">  7  8 -1 -1</clus>
<clus scale="  114.737">  2  5  1 -1</clus>
<clus scale="   82.052">  2  5  1 -1</clus>
</clustering>
</event>
<event>
 9    1  0.6270443E-005  0.2293127E+03  0.7546771E-02  0.1127820E+00
         21   -1    0    0  501  502  0.00000000000E+00  0.00000000000E+00  0.56796077121E+02  0.56796077121E+02  0.00000000000E+00 0. -1.
          1   -1    0    0  502    0 -0.00000000000E+00 -0.00000000000E+00 -0.10757296462E+04  0.10757296462E+04  0.00000000000E+00 0. -1.
         23    2    1    2    0    0 -0.21189100707E+03 -0.54361153024E+02 -0.56978314497E+03  0.61715175444E+03  0.91490556273E+02 0.  0.
        -24    2    1    2    0    0  0.18907745939E+03  0.69866805463E+02 -0.42998738396E+03  0.48178668971E+03  0.81225660090E+02 0.  0.
         11    1    4    4    0    0  0.70781066965E+02  0.69233696602E+02 -0.19324770405E+03  0.21713576238E+03  0.00000000000E+00 0. -1.
        -12    1    4    4    0    0  0.11829639242E+03  0.63310886168E+00 -0.23673967992E+03  0.26465092732E+03  0.00000000000E+00 0.  1.
        -13    1    3    3    0    0 -0.12914117407E+02  0.20523868183E+02 -0.67684661538E+02  0.71897266993E+02  0.00000000000E+00 0.  1.
         13    1    3    3    0    0 -0.19897688966E+03 -0.74885021207E+02 -0.50209848343E+03  0.54525448745E+03  0.00000000000E+00 0. -1.
          2    1    1    2  501    0  0.22813547678E+02 -0.15505652440E+02 -0.19163040174E+02  0.33587279199E+02  0.00000000000E+00 0. -1.
<scales pt_clust_5="13000.00000" pt_clust_6="13000.00000" pt_clust_7="13000.00000" pt_clust_8="13000.00000" pt_clust_9="27.58411"></scales>
<clustering>
<clus scale="   27.584">  1  9  2 -1</clus>
<clus scale="   81.226">  5  6 -1 -1</clus>
<clus scale="   91.491">  7  8 -1 -1</clus>
<clus scale="  225.414">  1  5  2 -1</clus>
<clus scale="   27.584">  1  5  2 -1</clus>
</clustering>
</event>
<event>
 9    1  0.6270443E-005  0.1497493E+03  0.7546771E-02  0.1203148E+00
         21   -1    0    0  501  502  0.00000000000E+00  0.00000000000E+00  0.35770959023E+03  0.35770959023E+03  0.00000000000E+00 0. -1.
          3   -1    0    0  502    0 -0.00000000000E+00 -0.00000000000E+00 -0.12130349432E+03  0.12130349432E+03  0.00000000000E+00 0. -1.
         23    2    1    2    0    0 -0.13487837142E+03 -0.23649066160E+02  0.83719369793E+02  0.18405082105E+03  0.90079511782E+02 0.  0.
        -24    2    1    2    0    0  0.67424323812E+02  0.10235467864E+03  0.11425542197E+03  0.18441097624E+03  0.77010304688E+02 0.  0.
         11    1    4    4    0    0  0.25788018828E+02  0.70895724907E+02  0.22278098820E+02  0.78660914133E+02  0.00000000000E+00 0. -1.
        -12    1    4    4    0    0  0.41636304984E+02  0.31458953737E+02  0.91977323149E+02  0.10575006211E+03  0.00000000000E+00 0.  1.
        -11    1    3    3    0    0 -0.25615647106E+02 -0.27805772341E+01  0.66719055727E+02  0.71521502945E+02  0.00000000000E+00 0.  1.
         11    1    3    3    0    0 -0.10926272431E+03 -0.20868488926E+02  0.17000314066E+02  0.11252931810E+03  0.00000000000E+00 0. -1.
          4    1    1    2  501    0  0.67454047607E+02 -0.78705612485E+02  0.38431304157E+02  0.11055128726E+03  0.00000000000E+00 0. -1.
<scales pt_clust_5="13000.00000" pt_clust_6="13000.00000" pt_clust_7="13000.00000" pt_clust_8="13000.00000" pt_clust_9="103.65632"></scales>
<clustering>
<clus scale="   77.010">  5  6 -1 -1</clus>
<clus scale="   90.080">  7  8 -1 -1</clus>
<clus scale="  103.656">  1  9  2 -1</clus>
<clus scale="  142.271">  1  5  2 -1</clus>
<clus scale="  103.656">  1  5  2 -1</clus>
</clustering>
</event>
<event>
 9    1  0.6270443E-005  0.9279676E+02  0.7546771E-02  0.1301187E+00
         21   -1    0    0  501  502  0.00000000000E+00  0.00000000000E+00  0.25705524965E+02  0.25705524965E+02  0.00000000000E+00 0.  1.
          1   -1    0    0  502    0 -0.00000000000E+00 -0.00000000000E+00 -0.73469942830E+03  0.73469942830E+03  0.00000000000E+00 0. -1.
        -24    2    1    2    0    0  0.18999029666E+02  0.13063476065E+02 -0.56852876431E+03  0.57491952410E+03  0.82315768901E+02 0.  0.
         23    2    1    2    0    0  0.90953718884E+01 -0.13081801888E+02 -0.96976338177E+02  0.13371119297E+03  0.90666496724E+02 0.  0.
         13    1    3    3    0    0 -0.41164478525E+00  0.39404060197E+02 -0.14920223056E+03  0.15431835606E+03  0.00000000000E+00 0. -1.
        -14    1    3    3    0    0  0.19410674451E+02 -0.26340584133E+02 -0.41932653374E+03  0.42060116804E+03  0.00000000000E+00 0.  1.
        -11    1    4    4    0    0  0.19399550644E+02  0.35588025702E+02 -0.30727149870E+02  0.50862637345E+02  0.00000000000E+00 0. -1.
         11    1    4    4    0    0 -0.10304178755E+02 -0.48669827590E+02 -0.66249188307E+02  0.82848555623E+02  0.00000000000E+00 0.  1.
          2    1    1    2  501    0 -0.28094401554E+02  0.18325823516E-01 -0.43488800850E+02  0.51774236198E+02  0.00000000000E+00 0. -1.
<scales pt_clust_5="13000.00000" pt_clust_6="13000.00000" pt_clust_7="13000.00000" pt_clust_8="13000.00000" pt_clust_9="28.09441"></scales>
<clustering>
<clus scale="   28.094">  1  9  2 -1</clus>
<clus scale="   82.316">  5  6 -1 -1</clus>
<clus scale="   84.656">  2  5  1 -1</clus>
<clus scale="   90.666">  7  8 -1 -1</clus>
<clus scale="   28.094">  1  5  2 -1</clus>
</clustering>
</event>
<event>
 9    1  0.6270443E-005  0.1189934E+03  0.7546771E-02  0.1248184E+00
         -2   -1    0    0    0  501 -0.00000000000E+00  0.00000000000E+00  0.31078578988E+02  0.31078578988E+02  0.00000000000E+00 0.  1.
         21   -1    0    0  501  502  0.00000000000E+00 -0.00000000000E+00 -0.54503484459E+03  0.54503484459E+03  0.00000000000E+00 0. -1.
        -24    2    1    2    0    0  0.31580743723E+02 -0.68477169482E+02 -0.17590299119E+03  0.20644471350E+03  0.77402140186E+02 0.  0.
         23    2    1    2    0    0 -0.15092938753E+02  0.86832039315E+02 -0.28728885755E+03  0.31322604024E+03  0.88363254600E+02 0.  0.
         13    1    3    3    0    0 -0.23778795588E+02 -0.27424610313E+02 -0.84529795009E+02  0.91993622685E+02  0.00000000000E+00 0. -1.
        -14    1    3    3    0    0  0.55359539310E+02 -0.41052559170E+02 -0.91373196185E+02  0.11445109081E+03  0.00000000000E+00 0.  1.
        -11    1    4    4    0    0 -0.38232484966E+02  0.40719917181E+02 -0.68246015792E+02  0.88189303396E+02  0.00000000000E+00 0.  1.
         11    1    4    4    0    0  0.23139546213E+02  0.46112122134E+02 -0.21904284175E+03  0.22503673685E+03  0.00000000000E+00 0. -1.
         -1    1    1    2    0  502 -0.16487804969E+02 -0.18354869833E+02 -0.50764416859E+02  0.56442669837E+02  0.00000000000E+00 0.  1.
<scales pt_clust_5="13000.00000" pt_clust_6="13000.00000" pt_clust_7="13000.00000" pt_clust_8="13000.00000" pt_clust_9="24.67284"></scales>
<clustering>
<clus scale="   24.673">  2  9  1 -1</clus>
<clus scale="   77.402">  5  6 -1 -1</clus>
<clus scale="   88.363">  7  8 -1 -1</clus>
<clus scale="  111.097">  1  5  2 -1</clus>
<clus scale="   24.673">  2  5  1 -1</clus>
</clustering>
</event>
<event>
 9    1  0.6270443E-005  0.9047380E+02  0.7546771E-02  0.1305793E+00
         21   -1    0    0  501  502  0.00000000000E+00  0.00000000000E+00  0.30820550565E+03  0.30820550565E+03  0.00000000000E+00 0. -1.
          1   -1    0    0  502    0 -0.00000000000E+00 -0.00000000000E+00 -0.15680146073E+03  0.15680146073E+03  0.00000000000E+00 0. -1.
         23    2    1    2    0    0  0.16147443821E+02  0.96458053810E+01 -0.11023766144E+03  0.14356066282E+03  0.90019666776E+02 0.  0.
        -24    2    1    2    0    0  0.45690762249E+02  0.24924860130E+02  0.81029639195E+02  0.12743647533E+03  0.83458722794E+02 0.  0.
         11    1    4    4    0    0  0.53807299040E+02  0.46641156661E+02  0.75130231768E+02  0.10351412778E+03  0.00000000000E+00 0. -1.
        -12    1    4    4    0    0 -0.81165367912E+01 -0.21716296531E+02  0.58994074271E+01  0.23922347554E+02  0.00000000000E+00 0.  1.
        -13    1    3    3    0    0  0.33767789399E+02 -0.22397296570E+02 -0.96208990424E+02  0.10439383283E+03  0.00000000000E+00 0. -1.
         13    1    3    3    0    0 -0.17620345578E+02  0.32043101951E+02 -0.14028671012E+02  0.39166829988E+02  0.00000000000E+00 0.  1.
          2    1    1    2  501    0 -0.61838206070E+02 -0.34570665511E+02  0.18061206716E+03  0.19400982823E+03  0.00000000000E+00 0. -1.
<scales pt_clust_5="13000.00000" pt_clust_6="13000.00000" pt_clust_7="13000.00000" pt_clust_8="13000.00000" pt_clust_9="70.84557"></scales>
<clustering>
<clus scale="   70.846">  1  9  2 -1</clus>
<clus scale="   83.459">  5  6 -1 -1</clus>
<clus scale="   83.948">  1  5  2 -1</clus>
<clus scale="   90.020">  7  8 -1 -1</clus>
<clus scale="   70.846">  1  5  2 -1</clus>
</clustering>
</event>
<event>
 9    1  0.6270443E-005  0.2025251E+03  0.7546771E-02  0.1157813E+00
          1   -1    0    0  502    0 -0.00000000000E+00  0.00000000000E+00  0.17656312527E+04  0.17656312527E+04  0.00000000000E+00 0. -1.
         21   -1    0    0  501  502  0.00000000000E+00 -0.00000000000E+00 -0.64603504692E+02  0.64603504692E+02  0.00000000000E+00 0.  1.
         23    2    1    2    0    0  0.13061997927E+03 -0.48203551194E+00  0.49759895399E+03  0.52246895620E+03  0.91144280338E+02 0.  0.
        -24    2    1    2    0    0  0.47390172905E+02  0.16431035472E+03  0.21431931486E+03  0.28950017072E+03  0.92918560939E+02 0.  0.
         13    1    4    4    0    0  0.26770896661E+02  0.92121325647E+01  0.74383033919E+02  0.79588818495E+02  0.00000000000E+00 0. -1.
        -14    1    4    4    0    0  0.20619276245E+02  0.15509822215E+03  0.13993628094E+03  0.20991135222E+03  0.00000000000E+00 0.  1.
        -11    1    3    3    0    0  0.49251713474E+02 -0.38524819132E+02  0.13295338588E+03  0.14692343512E+03  0.00000000000E+00 0. -1.
         11    1    3    3    0    0  0.81368265794E+02  0.38042783620E+02  0.36464556811E+03  0.37554552109E+03  0.00000000000E+00 0.  1.
          2    1    1    2  501    0 -0.17801015217E+03 -0.16382831920E+03  0.98910947911E+03  0.10182656304E+04  0.00000000000E+00 0. -1.
<scales pt_clust_5="13000.00000" pt_clust_6="13000.00000" pt_clust_7="13000.00000" pt_clust_8="13000.00000" pt_clust_9="179.95161"></scales>
<clustering>
<clus scale="   91.144">  7  8 -1 -1</clus>
<clus scale="   92.919">  5  6 -1 -1</clus>
<clus scale="  159.277">  1  7  2 -1</clus>
<clus scale="  179.952">  2  9  1 -1</clus>
<clus scale="  179.952">  2  5  1 -1</clus>
</clustering>
</event>
<event>
 9    1  0.6270443E-005  0.1111627E+03  0.7546771E-02  0.1262964E+00
         21   -1    0    0  501  502  0.00000000000E+00  0.00000000000E+00  0.11661872895E+03  0.11661872895E+03  0.00000000000E+00 0. -1.
          1   -1    0    0  502    0 -0.00000000000E+00 -0.00000000000E+00 -0.37632496080E+03  0.37632496080E+03  0.00000000000E+00 0. -1.
         23    2    1    2    0    0 -0.39915586575E+02 -0.52947984041E+02 -0.31129330553E+03  0.33123243855E+03  0.91731473392E+02 0.  0.
        -24    2    1    2    0    0  0.68848894576E+01  0.52204741804E+02 -0.53039925350E+01  0.95922401268E+02  0.80001487227E+02 0.  0.
         13    1    4    4    0    0 -0.27062119715E+02  0.34266431596E+02  0.21917912516E+02  0.48856335790E+02  0.00000000000E+00 0. -1.
        -14    1    4    4    0    0  0.33947009173E+02  0.17938310208E+02 -0.27221905052E+02  0.47066065477E+02  0.00000000000E+00 0.  1.
        -13    1    3    3    0    0 -0.25173011401E+02  0.22723739577E+02 -0.67504260579E+02  0.75543855075E+02  0.00000000000E+00 0.  1.
         13    1    3    3    0    0 -0.14742575174E+02 -0.75671723618E+02 -0.24378904495E+03  0.25568858347E+03  0.00000000000E+00 0. -1.
          2    1    1    2  501    0  0.33030697117E+02  0.74324223697E+00  0.56891066211E+02  0.65788849934E+02  0.00000000000E+00 0. -1.
<scales pt_clust_5="13000.00000" pt_clust_6="13000.00000" pt_clust_7="13000.00000" pt_clust_8="13000.00000" pt_clust_9="33.03906"></scales>
<clustering>
<clus scale="   33.039">  1  9  2 -1</clus>
<clus scale="   80.001">  5  6 -1 -1</clus>
<clus scale="   91.731">  7  8 -1 -1</clus>
<clus scale="  101.699">  1  5  2 -1</clus>
<clus scale="   33.039">  1  5  2 -1</clus>
</clustering>
</event>
<event>
 9    1  0.6270443E-005  0.1029599E+03  0.7546771E-02  0.1279917E+00
          1   -1    0    0  502    0 -0.00000000000E+00  0.00000000000E+00  0.23458395346E+03  0.23458395346E+03  0.00000000000E+00 0. -1.
         21   -1    0    0  501  502  0.00000000000E+00 -0.00000000000E+00 -0.97004913601E+02  0.97004913601E+02  0.00000000000E+00 0. -1.
        -24    2    1    2    0    0  0.66678708393E+02 -0.20991310967E+01  0.13010264626E+03  0.16671755017E+03  0.80109840022E+02 0.  0.
         23    2    1    2    0    0  0.54232645179E+01  0.53012840194E+01  0.32887119367E+01  0.92576884464E+02  0.92207095717E+02 0.  0.
         11    1    3    3    0    0  0.82238115033E+02 -0.51207459007E+01  0.12564403581E+03  0.15025229894E+03  0.00000000000E+00 0. -1.
        -12    1    3    3    0    0 -0.15559406641E+02  0.30216148041E+01  0.44586104501E+01  0.16465251233E+02  0.00000000000E+00 0.  1.
        -11    1    4    4    0    0 -0.29494178960E+02  0.33526528546E+02 -0.99868636273E+01  0.45756662400E+02  0.00000000000E+00 0.  1.
         11    1    4    4    0    0  0.34917443478E+02 -0.28225244526E+02  0.13275575564E+02  0.46820222065E+02  0.00000000000E+00 0. -1.
          2    1    1    2  501    0 -0.72101972911E+02 -0.32021529227E+01  0.41876816601E+01  0.72294432418E+02  0.00000000000E+00 0. -1.
<scales pt_clust_5="13000.00000" pt_clust_6="13000.00000" pt_clust_7="13000.00000" pt_clust_8="13000.00000" pt_clust_9="72.17304"></scales>
<clustering>
<clus scale="   72.173">  2  9  1 -1</clus>
<clus scale="   80.110">  5  6 -1 -1</clus>
<clus scale="   92.207">  7  8 -1 -1</clus>
<clus scale="   92.283">  1  5  2 -1</clus>
<clus scale="   72.173">  2  5  1 -1</clus>
</clustering>
</event>
<event>
 9    1  0.6270443E-005  0.9340386E+02  0.7546771E-02  0.1299746E+00
         -4   -1    0    0    0  501 -0.00000000000E+00  0.00000000000E+00  0.11640843441E+03  0.11640843441E+03  0.00000000000E+00 0.  1.
         21   -1    0    0  501  502  0.00000000000E+00 -0.00000000000E+00 -0.10059877623E+03  0.10059877623E+03  0.00000000000E+00 0. -1.
        -24    2    1    2    0    0 -0.19065743350E+02 -0.95271995318E+01  0.34171455919E+02  0.89975341874E+02  0.80458707703E+02 0.  0.
         23    2    1    2    0    0  0.42502861056E+02  0.23168578632E+01 -0.43702869149E+01  0.98799796781E+02  0.89053014592E+02 0.  0.
         13    1    3    3    0    0 -0.38155713251E+02 -0.34724444545E+02  0.20002032553E+02  0.55332872770E+02  0.00000000000E+00 0. -1.
        -14    1    3    3    0    0  0.19089969902E+02  0.25197245013E+02  0.14169423366E+02  0.34642469104E+02  0.00000000000E+00 0.  1.
        -11    1    4    4    0    0 -0.12152246648E+02  0.30525990359E+02 -0.15445004104E+02  0.36305114485E+02  0.00000000000E+00 0. -1.
         11    1    4    4    0    0  0.54655107705E+02 -0.28209132496E+02  0.11074717190E+02  0.62494682296E+02  0.00000000000E+00 0.  1.
         -3    1    1    2    0  502 -0.23437117707E+02  0.72103416686E+01 -0.13991510820E+02  0.28232071982E+02  0.00000000000E+00 0.  1.
<scales pt_clust_5="13000.00000" pt_clust_6="13000.00000" pt_clust_7="13000.00000" pt_clust_8="13000.00000" pt_clust_9="24.52116"></scales>
<clustering>
<clus scale="   24.521">  2  9  1 -1</clus>
<clus scale="   80.459">  5  6 -1 -1</clus>
<clus scale="   85.249">  1  5  2 -1</clus>
<clus scale="   89.053">  7  8 -1 -1</clus>
<clus scale="   24.521">  2  5  1 -1</clus>
</clustering>
</event>
<event>
 9    1  0.6270443E-005  0.8969339E+02  0.7546771E-02  0.1306722E+00
         -2   -1    0    0    0  501 -0.00000000000E+00  0.00000000000E+00  0.37158034401E+03  0.37158034401E+03  0.00000000000E+00 0.  1.
         21   -1    0    0  501  502  0.00000000000E+00 -0.00000000000E+00 -0.12183963589E+03  0.12183963589E+03  0.00000000000E+00 0.  1.
        -24    2    1    2    0    0  0.47408310936E+02 -0.61903748028E+01  0.31394901270E+03  0.32740011671E+03  0.79630303037E+02 0.  0.
         23    2    1    2    0    0  0.35012012303E+01 -0.35675082631E+02 -0.14509783979E+02  0.83470254435E+02  0.73971478379E+02 0.  0.
         11    1    3    3    0    0  0.95960718607E+01 -0.28462395936E+02  0.40340195244E+02  0.50294372746E+02  0.00000000000E+00 0. -1.
        -12    1    3    3    0    0  0.37812239075E+02  0.22272021134E+02  0.27360881745E+03  0.27710574396E+03  0.00000000000E+00 0.  1.
        -11    1    4    4    0    0  0.31195936964E+02 -0.53474453993E+01 -0.25847191417E+02  0.40863907785E+02  0.00000000000E+00 0.  1.
         11    1    4    4    0    0 -0.27694735733E+02 -0.30327637232E+02  0.11337407438E+02  0.42606346650E+02  0.00000000000E+00 0. -1.
         -1    1    1    2    0  502 -0.50909512166E+02  0.41865457434E+02 -0.49698520599E+02  0.82549608751E+02  0.00000000000E+00 0.  1.
<scales pt_clust_5="13000.00000" pt_clust_6="13000.00000" pt_clust_7="13000.00000" pt_clust_8="13000.00000" pt_clust_9="65.91278"></scales>
<clustering>
<clus scale="   65.913">  2  9  1 -1</clus>
<clus scale="   73.971">  7  8 -1 -1</clus>
<clus scale="   79.630">  5  6 -1 -1</clus>
<clus scale="   84.709">  2  7  1 -1</clus>
<clus scale="   65.913">  2  5  1 -1</clus>
</clustering>
</event>
<event>
 9    1  0.6270443E-005  0.9710414E+02  0.7546771E-02  0.1292466E+00
         -4   -1    0    0    0  501 -0.00000000000E+00  0.00000000000E+00  0.27741089059E+03  0.27741089059E+03  0.00000000000E+00 0.  1.
         21   -1    0    0  501  502  0.00000000000E+00 -0.00000000000E+00 -0.15060309343E+03  0.15060309343E+03  0.00000000000E+00 0.  1.
         23    2    1    2    0    0 -0.38968786279E+02  0.15999113678E+02  0.20733414349E+03  0.23033936645E+03  0.91072711258E+02 0.  0.
        -24    2    1    2    0    0  0.10186012323E+02 -0.76849435064E+01  0.27486876994E+02  0.85583449692E+02  0.80038648481E+02 0.  0.
         11    1    4    4    0    0  0.44193785356E+02  0.24545037935E+01  0.22797055293E+02  0.49787759369E+02  0.00000000000E+00 0. -1.
        -12    1    4    4    0    0 -0.34007773032E+02 -0.10139447300E+02  0.46898217015E+01  0.35795690324E+02  0.00000000000E+00 0.  1.
        -13    1    3    3    0    0 -0.19848597757E+02  0.45530606128E+02  0.17716022165E+03  0.18399116028E+03  0.00000000000E+00 0.  1.
         13    1    3    3    0    0 -0.19120188522E+02 -0.29531492450E+02  0.30173921842E+02  0.46348206166E+02  0.00000000000E+00 0. -1.
         -3    1    1    2    0  502  0.28782773956E+02 -0.83141701718E+01 -0.10801322332E+03  0.11209116787E+03  0.00000000000E+00 0.  1.
<scales pt_clust_5="13000.00000" pt_clust_6="13000.00000" pt_clust_7="13000.00000" pt_clust_8="13000.00000" pt_clust_9="29.95953"></scales>
<clustering>
<clus scale="   29.960">  2  9  1 -1</clus>
<clus scale="   80.039">  5  6 -1 -1</clus>
<clus scale="   86.840">  2  5  1 -1</clus>
<clus scale="   91.073">  7  8 -1 -1</clus>
<clus scale="   29.960">  2  5  1 -1</clus>
</clustering>
</event>
<event>
 9    1  0.6270443E-005  0.1371341E+03  0.7546771E-02  0.1221256E+00
          3   -1    0    0  502    0 -0.00000000000E+00  0.00000000000E+00  0.23717740373E+03  0.23717740373E+03  0.00000000000E+00 0. -1.
         21   -1    0    0  501  502  0.00000000000E+00 -0.00000000000E+00 -0.11898253471E+03  0.11898253471E+03  0.00000000000E+00 0. -1.
        -24    2    1    2    0    0  0.99437710194E+02 -0.21747939437E+02  0.14945977089E+03  0.19754123088E+03  0.79520335173E+02 0.  0.
         23    2    1    2    0    0 -0.86013635642E+02 -0.82231725151E+00 -0.29173634580E+02  0.13227491012E+03  0.96158874630E+02 0.  0.
         11    1    3    3    0    0  0.72372503354E+02  0.71871418204E+01  0.13849804216E+03  0.15643254755E+03  0.00000000000E+00 0. -1.
        -12    1    3    3    0    0  0.27065206840E+02 -0.28935081258E+02  0.10961728721E+02  0.41108683331E+02  0.00000000000E+00 0.  1.
        -11    1    4    4    0    0 -0.39097777748E+02  0.10527602065E+01 -0.63175733621E+02  0.74302879133E+02  0.00000000000E+00 0. -1.
         11    1    4    4    0    0 -0.46915857894E+02 -0.18750774580E+01  0.34002099041E+02  0.57972030986E+02  0.00000000000E+00 0.  1.
          4    1    1    2  501    0 -0.13424074552E+02  0.22570256689E+02 -0.20912672914E+01  0.26343797438E+02  0.00000000000E+00 0. -1.
<scales pt_clust_5="13000.00000" pt_clust_6="13000.00000" pt_clust_7="13000.00000" pt_clust_8="13000.00000" pt_clust_9="26.26066"></scales>
<clustering>
<clus scale="   26.261">  2  9  1 -1</clus>
<clus scale="   79.520">  5  6 -1 -1</clus>
<clus scale="   96.159">  7  8 -1 -1</clus>
<clus scale="  126.027">  1  5  2 -1</clus>
<clus scale="   26.261">  2  5  1 -1</clus>
</clustering>
</event>
<event>
 9    1  0.6270443E-005  0.1419837E+03  0.7546771E-02  0.1213734E+00
         21   -1    0    0  501  502  0.00000000000E+00  0.00000000000E+00  0.20228573522E+03  0.20228573522E+03  0.00000000000E+00 0. -1.
          3   -1    0    0  502    0 -0.00000000000E+00 -0.00000000000E+00 -0.22211688849E+03  0.22211688849E+03  0.00000000000E+00 0. -1.
        -24    2    1    2    0    0  0.12945187156E+03 -0.96270025513E+01 -0.77465011390E+02  0.16943860310E+03  0.76538526258E+02 0.  0.
         23    2    1    2    0    0 -0.52676251104E+02 -0.48364294492E+02  0.96897407977E+02  0.15104524090E+03  0.91168331740E+02 0.  0.
         11    1    3    3    0    0  0.75782089390E+02 -0.43325757240E+02 -0.46508238215E+02  0.98909365252E+02  0.00000000000E+00 0. -1.
        -12    1    3    3    0    0  0.53669782174E+02  0.33698754689E+02 -0.30956773175E+02  0.70529237849E+02  0.00000000000E+00 0.  1.
        -11    1    4    4    0    0 -0.34155531268E+02 -0.29410682558E+02  0.11186931997E+03  0.12060818096E+03  0.00000000000E+00 0. -1.
         11    1    4    4    0    0 -0.18520719836E+02 -0.18953611934E+02 -0.14971911993E+02  0.30437059932E+02  0.00000000000E+00 0.  1.
          4    1    1    2  501    0 -0.76775620459E+02  0.57991297043E+02 -0.39263549860E+02  0.10391877971E+03  0.00000000000E+00 0. -1.
<scales pt_clust_5="13000.00000" pt_clust_6="13000.00000" pt_clust_7="13000.00000" pt_clust_8="13000.00000" pt_clust_9="96.21588"></scales>
<clustering>
<clus scale="   76.539">  5  6 -1 -1</clus>
<clus scale="   91.168">  7  8 -1 -1</clus>
<clus scale="   96.216">  1  9  2 -1</clus>
<clus scale="  133.063">  2  5  1 -1</clus>
<clus scale="   96.216">  1  5  2 -1</clus>
</clustering>
</event>
<event>
 9    1  0.6270443E-005  0.1466291E+03  0.7546771E-02  0.1218695E+00
         -2   -1    0    0    0  501 -0.00000000000E+00  0.00000000000E+00  0.11183619995E+03  0.11183619995E+03  0.00000000000E+00 0.  1.
         21   -1    0    0  501  502  0.00000000000E+00 -0.00000000000E+00 -0.33473333248E+03  0.33473333248E+03  0.00000000000E+00 0.  1.
        -24    2    1    2    0    0  0.29717578574E+02 -0.67873460052E+02 -0.49076345521E+02  0.11934794567E+03  0.79658668020E+02 0.  0.
         23    2    1    2    0    0  0.62028839927E+02 -0.31966478057E+02 -0.13463596740E+02  0.11722195100E+03  0.93221696273E+02 0.  0.
         13    1    3    3    0    0 -0.18668070052E+02 -0.31952960003E+02 -0.45958645421E+02  0.59005809726E+02  0.00000000000E+00 0. -1.
        -14    1    3    3    0    0  0.48385648626E+02 -0.35920500049E+02 -0.31177001001E+01  0.60342135946E+02  0.00000000000E+00 0.  1.
        -13    1    4    4    0    0  0.37714764551E+02 -0.54858600161E+02  0.20433838126E+02  0.69637714044E+02  0.00000000000E+00 0.  1.
         13    1    4    4    0    0  0.24314075375E+02  0.22892122104E+02 -0.33897434866E+02  0.47584236951E+02  0.00000000000E+00 0. -1.
         -1    1    1    2    0  502 -0.91746418500E+02  0.99839938108E+02 -0.16035719027E+03  0.20999963576E+03  0.00000000000E+00 0.  1.
<scales pt_clust_5="13000.00000" pt_clust_6="13000.00000" pt_clust_7="13000.00000" pt_clust_8="13000.00000" pt_clust_9="113.18036"></scales>
<clustering>
<clus scale="   79.659">  5  6 -1 -1</clus>
<clus scale="   93.222">  7  8 -1 -1</clus>
<clus scale="  108.791">  1  5  2 -1</clus>
<clus scale="  113.180">  2  9  1 -1</clus>
<clus scale="  113.180">  2  5  1 -1</clus>
</clustering>
</event>
<event>
 9    1  0.6270443E-005  0.1323382E+03  0.7546771E-02  0.1228535E+00
          3   -1    0    0  502    0 -0.00000000000E+00  0.00000000000E+00  0.67589962514E+03  0.67589962514E+03  0.00000000000E+00 0. -1.
         21   -1    0    0  501  502  0.00000000000E+00 -0.00000000000E+00 -0.11718803996E+03  0.11718803996E+03  0.00000000000E+00 0.  1.
         23    2    1    2    0    0  0.83863791570E+02 -0.24334097657E+02  0.38258078279E+03  0.40367611625E+03  0.94662915774E+02 0.  0.
        -24    2    1    2    0    0 -0.10784223324E+03 -0.49716399236E+02  0.24661057653E+03  0.28440754740E+03  0.77260655825E+02 0.  0.
         13    1    4    4    0    0 -0.85039427252E+02 -0.24446278108E+02  0.23020142835E+03  0.24662121222E+03  0.00000000000E+00 0. -1.
        -14    1    4    4    0    0 -0.22802805986E+02 -0.25270121128E+02  0.16409148183E+02  0.37786335186E+02  0.00000000000E+00 0.  1.
        -11    1    3    3    0    0  0.10037991463E+03 -0.10701102675E+02  0.35303990376E+03  0.36718907187E+03  0.00000000000E+00 0. -1.
         11    1    3    3    0    0 -0.16516123059E+02 -0.13632994982E+02  0.29540879039E+02  0.36487044378E+02  0.00000000000E+00 0.  1.
          4    1    1    2  501    0  0.23978441667E+02  0.74050496893E+02 -0.70479774145E+02  0.10500400144E+03  0.00000000000E+00 0. -1.
<scales pt_clust_5="13000.00000" pt_clust_6="13000.00000" pt_clust_7="13000.00000" pt_clust_8="13000.00000" pt_clust_9="77.83599"></scales>
<clustering>
<clus scale="   77.261">  5  6 -1 -1</clus>
<clus scale="   77.836">  2  9  1 -1</clus>
<clus scale="   94.663">  7  8 -1 -1</clus>
<clus scale="  120.505">  2  5  1 -1</clus>
<clus scale="   77.836">  2  5  1 -1</clus>
</clustering>
</event>
<event>
 9    1  0.6270443E-005  0.1091304E+03  0.7546771E-02  0.1266623E+00
          1   -1    0    0  502    0 -0.00000000000E+00  0.00000000000E+00  0.32246163627E+03  0.32246163627E+03  0.00000000000E+00 0. -1.
         21   -1    0    0  501  502  0.00000000000E+00 -0.00000000000E+00 -0.88747134204E+02  0.88747134204E+02  0.00000000000E+00 0. -1.
        -24    2    1    2    0    0  0.47896515033E+02 -0.43882401708E+02  0.19996641170E+03  0.22511201984E+03  0.80430804637E+02 0.  0.
         23    2    1    2    0    0 -0.49921970825E+02 -0.11147830964E+02 -0.22732514318E+02  0.10721400421E+03  0.91441774833E+02 0.  0.
         13    1    3    3    0    0  0.40830095410E+02  0.76905236542E+01  0.13833177271E+03  0.14443656111E+03  0.00000000000E+00 0. -1.
        -14    1    3    3    0    0  0.70664196229E+01 -0.51572925362E+02  0.61634638993E+02  0.80675458725E+02  0.00000000000E+00 0.  1.
        -11    1    4    4    0    0 -0.41456986385E+02  0.25969586472E+02  0.17376666935E+02  0.51913868045E+02  0.00000000000E+00 0.  1.
         11    1    4    4    0    0 -0.84649844393E+01 -0.37117417435E+02 -0.40109181253E+02  0.55300136161E+02  0.00000000000E+00 0. -1.
          2    1    1    2  501    0  0.20254557919E+01  0.55030232672E+02  0.56480604680E+02  0.78882746428E+02  0.00000000000E+00 0. -1.
<scales pt_clust_5="13000.00000" pt_clust_6="13000.00000" pt_clust_7="13000.00000" pt_clust_8="13000.00000" pt_clust_9="55.06752"></scales>
<clustering>
<clus scale="   55.068">  2  9  1 -1</clus>
<clus scale="   80.431">  5  6 -1 -1</clus>
<clus scale="   91.442">  7  8 -1 -1</clus>
<clus scale="  100.085">  1  5  2 -1</clus>
<clus scale="   55.068">  2  5  1 -1</clus>
</clustering>
</event>
<event>
 9    1  0.6270443E-005  0.9715970E+02  0.7546771E-02  0.1292358E+00
         21   -1    0    0  501  502  0.00000000000E+00  0.00000000000E+00  0.57390760712E+02  0.57390760712E+02  0.00000000000E+00 0.  1.
          1   -1    0    0  502    0 -0.00000000000E+00 -0.00000000000E+00 -0.27593904615E+03  0.27593904615E+03  0.00000000000E+00 0. -1.
        -24    2    1    2    0    0  0.19972191780E+02 -0.34632213264E+02 -0.16557825701E+03  0.18796307761E+03  0.79471257146E+02 0.  0.
         23    2    1    2    0    0 -0.57510259652E+00  0.18167461388E+02 -0.68179598208E+01  0.92666173653E+02  0.90609865727E+02 0.  0.
         11    1    3    3    0    0  0.12902724884E+02 -0.59420374440E+02 -0.94671945126E+02  0.11251683608E+03  0.00000000000E+00 0. -1.
        -12    1    3    3    0    0  0.70694668957E+01  0.24788161175E+02 -0.70906311879E+02  0.75446241530E+02  0.00000000000E+00 0.  1.
        -13    1    4    4    0    0 -0.19783678316E+02  0.50459944183E+02  0.13441122767E+01  0.54216293976E+02  0.00000000000E+00 0.  1.
         13    1    4    4    0    0  0.19208575719E+02 -0.32292482795E+02 -0.81620720975E+01  0.38449879677E+02  0.00000000000E+00 0. -1.
          2    1    1    2  501    0 -0.19397089184E+02  0.16464751876E+02 -0.46152068611E+02  0.52700555597E+02  0.00000000000E+00 0. -1.
<scales pt_clust_5="13000.00000" pt_clust_6="13000.00000" pt_clust_7="13000.00000" pt_clust_8="13000.00000" pt_clust_9="25.44279"></scales>
<clustering>
<clus scale="   25.443">  1  9  2 -1</clus>
<clus scale="   79.471">  5  6 -1 -1</clus>
<clus scale="   86.865">  2  5  1 -1</clus>
<clus scale="   90.610">  7  8 -1 -1</clus>
<clus scale="   25.443">  1  5  2 -1</clus>
</clustering>
</event>
<event>
 9    1  0.6270443E-005  0.9303361E+02  0.7546771E-02  0.1301526E+00
         -4   -1    0    0    0  501 -0.00000000000E+00  0.00000000000E+00  0.55590842198E+02  0.55590842198E+02  0.00000000000E+00 0.  1.
         21   -1    0    0  501  502  0.00000000000E+00 -0.00000000000E+00 -0.52033596492E+03  0.52033596492E+03  0.00000000000E+00 0. -1.
        -24    2    1    2    0    0 -0.10785159932E+02  0.98883367680E+01 -0.35532424321E+02  0.90208898433E+02  0.81614908561E+02 0.  0.
         23    2    1    2    0    0  0.50735966006E+02  0.75599236712E+01 -0.42952847407E+03  0.44212194083E+03  0.91355403966E+02 0.  0.
         13    1    3    3    0    0  0.23016179868E+02 -0.46787676552E+01  0.14869594238E+02  0.27798205612E+02  0.00000000000E+00 0. -1.
        -14    1    3    3    0    0 -0.33801339800E+02  0.14567104423E+02 -0.50402018559E+02  0.62410692820E+02  0.00000000000E+00 0.  1.
        -13    1    4    4    0    0  0.67507479318E+02  0.32242552660E+02 -0.31631987985E+03  0.32504631725E+03  0.00000000000E+00 0. -1.
         13    1    4    4    0    0 -0.16771513313E+02 -0.24682628989E+02 -0.11320859422E+03  0.11707562359E+03  0.00000000000E+00 0.  1.
         -3    1    1    2    0  502 -0.39950806073E+02 -0.17448260439E+02  0.31577567678E+00  0.43595967847E+02  0.00000000000E+00 0.  1.
<scales pt_clust_5="13000.00000" pt_clust_6="13000.00000" pt_clust_7="13000.00000" pt_clust_8="13000.00000" pt_clust_9="43.59485"></scales>
<clustering>
<clus scale="   43.595">  2  9  1 -1</clus>
<clus scale="   81.615">  5  6 -1 -1</clus>
<clus scale="   83.489">  1  5  2 -1</clus>
<clus scale="   91.355">  7  8 -1 -1</clus>
<clus scale="   43.595">  2  5  1 -1</clus>
</clustering>
</event>
<event>
 9    1  0.6270443E-005  0.9835856E+02  0.7546771E-02  0.1287187E+00
          3   -1    0    0  502    0 -0.00000000000E+00  0.00000000000E+00  0.17750354456E+02  0.17750354456E+02  0.00000000000E+00 0. -1.
         21   -1    0    0  501  502  0.00000000000E+00 -0.00000000000E+00 -0.16400110038E+04  0.16400110038E+04  0.00000000000E+00 0.  1.
         23    2    1    2    0    0 -0.50132144177E+01 -0.47181497263E+02 -0.34330876569E+03  0.35858157743E+03  0.92025067595E+02 0.  0.
        -24    2    1    2    0    0  0.43761991549E+01 -0.92446745306E+01 -0.11945778045E+04  0.11976745895E+04  0.85461546796E+02 0.  0.
         11    1    4    4    0    0  0.25347673749E+02 -0.14854094625E+02 -0.14886127972E+03  0.15173275616E+03  0.00000000000E+00 0. -1.
        -12    1    4    4    0    0 -0.20971474595E+02  0.56094200948E+01 -0.10457165248E+04  0.10459418333E+04  0.00000000000E+00 0.  1.
        -13    1    3    3    0    0 -0.38947841189E+02 -0.50809182667E+02 -0.27329115319E+03  0.28068944010E+03  0.00000000000E+00 0.  1.
         13    1    3    3    0    0  0.33934626771E+02  0.36276854047E+01 -0.70017612509E+02  0.77892137324E+02  0.00000000000E+00 0. -1.
          4    1    1    2  501    0  0.63701526278E+00  0.56426171793E+02 -0.84374079113E+02  0.10150519138E+03  0.00000000000E+00 0. -1.
<scales pt_clust_5="13000.00000" pt_clust_6="13000.00000" pt_clust_7="13000.00000" pt_clust_8="13000.00000" pt_clust_9="56.42980"></scales>
<clustering>
<clus scale="   56.430">  2  9  1 -1</clus>
<clus scale="   85.462">  5  6 -1 -1</clus>
<clus scale="   92.025">  7  8 -1 -1</clus>
<clus scale="   92.247">  2  5  1 -1</clus>
<clus scale="   56.430">  2  5  1 -1</clus>
</clustering>
</event>
<event>
 9    1  0.6270443E-005  0.9466281E+02  0.7546771E-02  0.1297861E+00
         21   -1    0    0  501  502  0.00000000000E+00  0.00000000000E+00  0.25283546766E+03  0.25283546766E+03  0.00000000000E+00 0.  1.
         -2   -1    0    0    0  501 -0.00000000000E+00 -0.00000000000E+00 -0.12935066676E+03  0.12935066676E+03  0.00000000000E+00 0.  1.
        -24    2    1    2    0    0 -0.15730611308E+02 -0.15056998470E+01 -0.57649545015E+02  0.10002054230E+03  0.80193014513E+02 0.  0.
         23    2    1    2    0    0  0.63497123218E+02  0.43149087580E+01  0.17982709635E+02  0.11214210041E+03  0.90564726821E+02 0.  0.
         11    1    3    3    0    0 -0.44271150695E+02  0.12518796539E+02 -0.18510544834E+02  0.49591282709E+02  0.00000000000E+00 0. -1.
        -12    1    3    3    0    0  0.28540539387E+02 -0.14024496386E+02 -0.39139000182E+02  0.50429259588E+02  0.00000000000E+00 0.  1.
        -13    1    4    4    0    0  0.33533443703E+02 -0.42465273506E+02  0.16499110250E+02  0.56568648026E+02  0.00000000000E+00 0.  1.
         13    1    4    4    0    0  0.29963679515E+02  0.46780182264E+02  0.14835993849E+01  0.55573452384E+02  0.00000000000E+00 0. -1.
         -1    1    1    2    0  502 -0.47766511909E+02 -0.28092089110E+01  0.16315163628E+03  0.17002349172E+03  0.00000000000E+00 0.  1.
<scales pt_clust_5="13000.00000" pt_clust_6="13000.00000" pt_clust_7="13000.00000" pt_clust_8="13000.00000" pt_clust_9="47.84905"></scales>
<clustering>
<clus scale="   47.849">  1  9  2 -1</clus>
<clus scale="   80.193">  5  6 -1 -1</clus>
<clus scale="   84.794">  2  5  1 -1</clus>
<clus scale="   90.565">  7  8 -1 -1</clus>
<clus scale="   47.849">  1  5  2 -1</clus>
</clustering>
</event>
<event>
 9    1  0.6270443E-005  0.2313600E+03  0.7546771E-02  0.1126373E+00
          1   -1    0    0  502    0 -0.00000000000E+00  0.00000000000E+00  0.29698188174E+03  0.29698188174E+03  0.00000000000E+00 0. -1.
         21   -1    0    0  501  502  0.00000000000E+00 -0.00000000000E+00 -0.20214591537E+03  0.20214591537E+03  0.00000000000E+00 0. -1.
         23    2    1    2    0    0 -0.19215025065E+03 -0.79137402585E+02  0.90093128642E+02  0.24400527373E+03  0.90759872581E+02 0.  0.
        -24    2    1    2    0    0  0.20963016253E+03  0.68936733620E+02  0.37966790967E+01  0.23486181799E+03  0.80303054061E+02 0.  0.
         13    1    4    4    0    0  0.11501112310E+03  0.70482897815E+02  0.26678053196E+02  0.13750314848E+03  0.00000000000E+00 0. -1.
        -14    1    4    4    0    0  0.94619039431E+02 -0.15461641950E+01 -0.22881374100E+02  0.97358669503E+02  0.00000000000E+00 0.  1.
        -11    1    3    3    0    0 -0.93520253440E+02  0.47080948906E+01  0.16453385746E+02  0.95073223694E+02  0.00000000000E+00 0. -1.
         11    1    3    3    0    0 -0.98629997205E+02 -0.83845497475E+02  0.73639742896E+02  0.14893205004E+03  0.00000000000E+00 0.  1.
          2    1    1    2  501    0 -0.17479911883E+02  0.10200668965E+02  0.94615863839E+00  0.20260705391E+02  0.00000000000E+00 0. -1.
<scales pt_clust_5="13000.00000" pt_clust_6="13000.00000" pt_clust_7="13000.00000" pt_clust_8="13000.00000" pt_clust_9="20.23860"></scales>
<clustering>
<clus scale="   20.239">  2  9  1 -1</clus>
<clus scale="   80.303">  5  6 -1 -1</clus>
<clus scale="   90.760">  7  8 -1 -1</clus>
<clus scale="  227.461">  2  5  1 -1</clus>
<clus scale="   20.239">  2  5  1 -1</clus>
</clustering>
</event>
<event>
 9    1  0.6270443E-005  0.1481755E+03  0.7546771E-02  0.1204431E+00
         -2   -1    0    0    0  501 -0.00000000000E+00  0.00000000000E+00  0.51135879680E+03  0.51135879680E+03  0.00000000000E+00 0.  1.
         21   -1    0    0  501  502  0.00000000000E+00 -0.00000000000E+00 -0.10358857865E+03  0.10358857865E+03  0.00000000000E+00 0.  1.
        -24    2    1    2    0    0  0.26299300097E+01  0.12218722304E+03  0.30216101980E+03  0.33626654807E+03  0.82687819304E+02 0.  0.
         23    2    1    2    0    0 -0.20002081505E+02 -0.10661483082E+03  0.16333907174E+03  0.21641503157E+03  0.91591528644E+02 0.  0.
         11    1    3    3    0    0  0.28927235814E+02  0.84449875990E+01  0.75893425671E+02  0.81657301250E+02  0.00000000000E+00 0. -1.
        -12    1    3    3    0    0 -0.26297305804E+02  0.11374223544E+03  0.22626759413E+03  0.25460924682E+03  0.00000000000E+00 0.  1.
        -11    1    4    4    0    0 -0.32214639242E+02 -0.19738259112E+02  0.10360611997E+03  0.11027968965E+03  0.00000000000E+00 0. -1.
         11    1    4    4    0    0  0.12212557737E+02 -0.86876571704E+02  0.59732951767E+02  0.10613534192E+03  0.00000000000E+00 0.  1.
         -1    1    1    2    0  502  0.17372151495E+02 -0.15572392223E+02 -0.57729873380E+02  0.62265795808E+02  0.00000000000E+00 0.  1.
<scales pt_clust_5="13000.00000" pt_clust_6="13000.00000" pt_clust_7="13000.00000" pt_clust_8="13000.00000" pt_clust_9="23.33005"></scales>
<clustering>
<clus scale="   23.330">  2  9  1 -1</clus>
<clus scale="   82.688">  5  6 -1 -1</clus>
<clus scale="   91.592">  7  8 -1 -1</clus>
<clus scale="  142.843">  1  5  2 -1</clus>
<clus scale="   23.330">  2  5  1 -1</clus>
</clustering>
</event>
<event>
 9    1  0.6270443E-005  0.1020717E+03  0.7546771E-02  0.1291416E+00
          1   -1    0    0  502    0 -0.00000000000E+00  0.00000000000E+00  0.21050626697E+03  0.21050626697E+03  0.00000000000E+00 0. -1.
         21   -1    0    0  501  502  0.00000000000E+00 -0.00000000000E+00 -0.21372666207E+03  0.21372666207E+03  0.00000000000E+00 0. -1.
         23    2    1    2    0    0  0.86554178422E+01 -0.42113183989E+02  0.16507507884E+03  0.19426213414E+03  0.92949225837E+02 0.  0.
        -24    2    1    2    0    0 -0.43320698606E+02  0.27505436385E+02 -0.30556027792E+02  0.87186961752E+02  0.63519001147E+02 0.  0.
         11    1    4    4    0    0 -0.39898327526E+02 -0.61206053745E+01  0.17883744002E+01  0.40404661025E+02  0.00000000000E+00 0. -1.
        -12    1    4    4    0    0 -0.34223710799E+01  0.33626041759E+02 -0.32344402192E+02  0.46782300727E+02  0.00000000000E+00 0.  1.
        -13    1    3    3    0    0  0.21970612598E+02  0.26432688783E+01 -0.59510915696E+00  0.22137046849E+02  0.00000000000E+00 0.  1.
         13    1    3    3    0    0 -0.13315194756E+02 -0.44756452867E+02  0.16567018800E+03  0.17212508729E+03  0.00000000000E+00 0. -1.
          2    1    1    2  501    0  0.34665280764E+02  0.14607747604E+02 -0.13773944615E+03  0.14278383314E+03  0.00000000000E+00 0. -1.
<scales pt_clust_5="13000.00000" pt_clust_6="13000.00000" pt_clust_7="13000.00000" pt_clust_8="13000.00000" pt_clust_9="37.61739"></scales>
<clustering>
<clus scale="   37.617">  2  9  1 -1</clus>
<clus scale="   63.519">  5  6 -1 -1</clus>
<clus scale="   76.248">  2  5  1 -1</clus>
<clus scale="   92.949">  7  8 -1 -1</clus>
<clus scale="   37.617">  2  5  1 -1</clus>
</clustering>
</event>
<event>
 9    1  0.6270443E-005  0.1476774E+03  0.7546771E-02  0.1203374E+00
         21   -1    0    0  501  502  0.00000000000E+00  0.00000000000E+00  0.83525112316E+03  0.83525112316E+03  0.00000000000E+00 0. -1.
          1   -1    0    0  502    0 -0.00000000000E+00 -0.00000000000E+00 -0.31297968130E+02  0.31297968130E+02  0.00000000000E+00 0. -1.
        -24    2    1    2    0    0 -0.87514954828E+02 -0.86597751155E+02  0.30332560955E+03  0.34010395759E+03  0.92229272660E+02 0.  0.
         23    2    1    2    0    0  0.83519975211E+02  0.63943226921E+02  0.42997444982E+03  0.45214138375E+03  0.92138378936E+02 0.  0.
         13    1    3    3    0    0 -0.83619610886E+02 -0.10462295483E+03  0.24902381578E+03  0.28275618972E+03  0.00000000000E+00 0. -1.
        -14    1    3    3    0    0 -0.38953439425E+01  0.18025203680E+02  0.54301793777E+02  0.57347767869E+02  0.00000000000E+00 0.  1.
        -13    1    4    4    0    0  0.93579933997E+02  0.38216612863E+02  0.39414056675E+03  0.40689617828E+03  0.00000000000E+00 0. -1.
         13    1    4    4    0    0 -0.10059958786E+02  0.25726614058E+02  0.35833883073E+02  0.45245205467E+02  0.00000000000E+00 0.  1.
          2    1    1    2  501    0  0.39949796177E+01  0.22654524234E+02  0.70653095653E+02  0.74303749944E+02  0.00000000000E+00 0. -1.
<scales pt_clust_5="13000.00000" pt_clust_6="13000.00000" pt_clust_7="13000.00000" pt_clust_8="13000.00000" pt_clust_9="23.00407"></scales>
<clustering>
<clus scale="   23.004">  1  9  2 -1</clus>
<clus scale="   92.138">  7  8 -1 -1</clus>
<clus scale="   92.229">  5  6 -1 -1</clus>
<clus scale="  147.621">  1  7  2 -1</clus>
<clus scale="   23.004">  1  5  2 -1</clus>
</clustering>
</event>
<event>
 9    1  0.6934422E-005  0.1589466E+03  0.7546771E-02  0.1217439E+00
         21   -1    0    0  501  502  0.00000000000E+00  0.00000000000E+00  0.22019282996E+03  0.22019282996E+03  0.00000000000E+00 0.  1.
         -4   -1    0    0    0  501 -0.00000000000E+00 -0.00000000000E+00 -0.21433748676E+03  0.21433748676E+03  0.00000000000E+00 0.  1.
        -24    2    1    2    0    0  0.17819488029E+02 -0.32932349026E+02 -0.66423160611E+02  0.11001298613E+03  0.79301620959E+02 0.  0.
         23    2    1    2    0    0 -0.10460366435E+03 -0.73781680674E+02  0.97106934731E+02  0.18474670284E+03  0.91191690632E+02 0.  0.
         11    1    3    3    0    0  0.32424800388E+02 -0.19412432540E+00  0.22947550461E+01  0.32506480356E+02  0.00000000000E+00 0. -1.
        -12    1    3    3    0    0 -0.14605312359E+02 -0.32738224701E+02 -0.68717915657E+02  0.77506505778E+02  0.00000000000E+00 0.  1.
        -13    1    4    4    0    0 -0.14773054722E+02 -0.44084534081E+02 -0.35191255886E+01  0.46626961469E+02  0.00000000000E+00 0. -1.
         13    1    4    4    0    0 -0.89830609629E+02 -0.29697146593E+02  0.10062606032E+03  0.13811974138E+03  0.00000000000E+00 0.  1.
         -3    1    1    2    0  502  0.86784176322E+02  0.10671402970E+03 -0.24828430921E+02  0.13977062773E+03  0.00000000000E+00 0.  1.
<scales pt_clust_5="13000.00000" pt_clust_6="13000.00000" pt_clust_7="13000.00000" pt_clust_8="13000.00000" pt_clust_9="130.18496"></scales>
<clustering>
<clus scale="   79.302">  5  6 -1 -1</clus>
<clus scale="   87.697">  2  5  1 -1</clus>
<clus scale="   91.192">  7  8 -1 -1</clus>
<clus scale="  130.185">  1  9  2 -1</clus>
<clus scale="  130.185">  1  5  2 -1</clus>
</clustering>
</event>
<event>
 9    1  0.6270443E-005  0.1062490E+03  0.7546771E-02  0.1272183E+00
         21   -1    0    0  501  502  0.00000000000E+00  0.00000000000E+00  0.69336981652E+02  0.69336981652E+02  0.00000000000E+00 0. -1.
          1   -1    0    0  502    0 -0.00000000000E+00 -0.00000000000E+00 -0.22752795777E+03  0.22752795777E+03  0.00000000000E+00 0. -1.
         23    2    1    2    0    0 -0.92399349253E+01  0.43085190593E+02 -0.58398519924E+02  0.11635595063E+03  0.90479887659E+02 0.  0.
        -24    2    1    2    0    0 -0.23100100645E+02 -0.68652136242E+02 -0.60947561236E+02  0.12386560900E+03  0.79883373816E+02 0.  0.
         11    1    4    4    0    0 -0.36407180948E+02 -0.77388577393E+02 -0.65020270314E+02  0.10743421376E+03  0.00000000000E+00 0. -1.
        -12    1    4    4    0    0  0.13307080302E+02  0.87364411516E+01  0.40727090786E+01  0.16431395236E+02  0.00000000000E+00 0.  1.
        -13    1    3    3    0    0  0.37086011193E+02 -0.90459271298E-01 -0.25373880257E+02  0.44935667442E+02  0.00000000000E+00 0. -1.
         13    1    3    3    0    0 -0.46325946118E+02  0.43175649864E+02 -0.33024639667E+02  0.71420283184E+02  0.00000000000E+00 0.  1.
          2    1    1    2  501    0  0.32340035571E+02  0.25566945649E+02 -0.38844894960E+02  0.56643379799E+02  0.00000000000E+00 0. -1.
<scales pt_clust_5="13000.00000" pt_clust_6="13000.00000" pt_clust_7="13000.00000" pt_clust_8="13000.00000" pt_clust_9="41.22558"></scales>
<clustering>
<clus scale="   41.226">  1  9  2 -1</clus>
<clus scale="   79.883">  5  6 -1 -1</clus>
<clus scale="   90.480">  7  8 -1 -1</clus>
<clus scale="   97.384">  1  5  2 -1</clus>
<clus scale="   41.226">  1  5  2 -1</clus>
</clustering>
</event>
<event>
 9    1  0.6270443E-005  0.1373990E+03  0.7546771E-02  0.1218980E+00
          1   -1    0    0  502    0 -0.00000000000E+00  0.00000000000E+00  0.53821832285E+03  0.53821832285E+03  0.00000000000E+00 0. -1.
         21   -1    0    0  501  502  0.00000000000E+00 -0.00000000000E+00 -0.59035253138E+02  0.59035253138E+02  0.00000000000E+00 0. -1.
        -24    2    1    2    0    0 -0.87557420060E+02 -0.22519702966E+02  0.25812635298E+03  0.28529533367E+03  0.81183585040E+02 0.  0.
         23    2    1    2    0    0  0.12102423581E+03  0.66202220091E+02  0.16956615618E+03  0.23659599789E+03  0.90528367367E+02 0.  0.
         13    1    3    3    0    0 -0.38245536536E+02 -0.48076732937E+02  0.17364356282E+03  0.18419060840E+03  0.00000000000E+00 0. -1.
        -14    1    3    3    0    0 -0.49311883525E+02  0.25557029970E+02  0.84482790165E+02  0.10110472527E+03  0.00000000000E+00 0.  1.
        -11    1    4    4    0    0  0.52510914899E+02  0.18361104881E+02  0.13528221021E+03  0.14627304179E+03  0.00000000000E+00 0.  1.
         11    1    4    4    0    0  0.68513320916E+02  0.47841115210E+02  0.34283945967E+02  0.90322956099E+02  0.00000000000E+00 0. -1.
          2    1    1    2  501    0 -0.33466815754E+02 -0.43682517124E+02  0.51490560550E+02  0.75362244425E+02  0.00000000000E+00 0. -1.
<scales pt_clust_5="13000.00000" pt_clust_6="13000.00000" pt_clust_7="13000.00000" pt_clust_8="13000.00000" pt_clust_9="55.02899"></scales>
<clustering>
<clus scale="   55.029">  2  9  1 -1</clus>
<clus scale="   81.184">  5  6 -1 -1</clus>
<clus scale="   90.528">  7  8 -1 -1</clus>
<clus scale="  131.430">  1  5  2 -1</clus>
<clus scale="   55.029">  2  5  1 -1</clus>
</clustering>
</event>
<event>
 9    1  0.6270443E-005  0.9623518E+02  0.7546771E-02  0.1291556E+00
         21   -1    0    0  501  502  0.00000000000E+00  0.00000000000E+00  0.39433133784E+03  0.39433133784E+03  0.00000000000E+00 0.  1.
          1   -1    0    0  502    0 -0.00000000000E+00 -0.00000000000E+00 -0.36728154703E+02  0.36728154703E+02  0.00000000000E+00 0. -1.
        -24    2    1    2    0    0 -0.41894790555E+02 -0.12803794238E+02  0.11836176889E+03  0.14971850661E+03  0.80541990685E+02 0.  0.
         23    2    1    2    0    0  0.15654303391E+02  0.48518656331E+02  0.13736428956E+03  0.17024164717E+03  0.86684215150E+02 0.  0.
         13    1    3    3    0    0 -0.24738091101E+02 -0.18149934248E+02  0.69768517137E+00  0.30690064013E+02  0.00000000000E+00 0. -1.
        -14    1    3    3    0    0 -0.17156699454E+02  0.53461400092E+01  0.11766408372E+03  0.11902844260E+03  0.00000000000E+00 0.  1.
        -11    1    4    4    0    0  0.39864887757E+02  0.31017565377E+02  0.29887665665E+02  0.58690469386E+02  0.00000000000E+00 0.  1.
         11    1    4    4    0    0 -0.24210584366E+02  0.17501090954E+02  0.10747662390E+03  0.11155117778E+03  0.00000000000E+00 0. -1.
          2    1    1    2  501    0  0.26240487164E+02 -0.35714862092E+02  0.10187712468E+03  0.11109933877E+03  0.00000000000E+00 0. -1.
<scales pt_clust_5="13000.00000" pt_clust_6="13000.00000" pt_clust_7="13000.00000" pt_clust_8="13000.00000" pt_clust_9="44.31833"></scales>
<clustering>
<clus scale="   44.318">  1  9  2 -1</clus>
<clus scale="   80.542">  5  6 -1 -1</clus>
<clus scale="   86.684">  7  8 -1 -1</clus>
<clus scale="   90.742">  2  5  1 -1</clus>
<clus scale="   44.318">  1  5  2 -1</clus>
</clustering>
</event>
<event>
 9    1  0.6270443E-005  0.1614100E+03  0.7546771E-02  0.1189105E+00
          1   -1    0    0  502    0 -0.00000000000E+00  0.00000000000E+00  0.67272479451E+03  0.67272479451E+03  0.00000000000E+00 0. -1.
         21   -1    0    0  501  502  0.00000000000E+00 -0.00000000000E+00 -0.56511108400E+02  0.56511108400E+02  0.00000000000E+00 0. -1.
         23    2    1    2    0    0 -0.11530442108E+03  0.11437438690E+02  0.28501035930E+03  0.32158078942E+03  0.93580845762E+02 0.  0.
        -24    2    1    2    0    0  0.14895785225E+03 -0.58711292048E+02  0.24256770130E+03  0.30171340899E+03  0.80971809239E+02 0.  0.
         13    1    4    4    0    0  0.11478182343E+03 -0.46521578252E+01  0.16730048061E+03  0.20294324422E+03  0.00000000000E+00 0. -1.
        -14    1    4    4    0    0  0.34176028821E+02 -0.54059134223E+02  0.75267220689E+02  0.98770164772E+02  0.00000000000E+00 0.  1.
        -13    1    3    3    0    0 -0.13476985037E+02  0.30290806886E+02  0.13690061139E+03  0.14085786988E+03  0.00000000000E+00 0.  1.
         13    1    3    3    0    0 -0.10182743604E+03 -0.18853368195E+02  0.14810974791E+03  0.18072291954E+03  0.00000000000E+00 0. -1.
          2    1    1    2  501    0 -0.33653431176E+02  0.47273853358E+02  0.88635625512E+02  0.10594170449E+03  0.00000000000E+00 0. -1.
<scales pt_clust_5="13000.00000" pt_clust_6="13000.00000" pt_clust_7="13000.00000" pt_clust_8="13000.00000" pt_clust_9="58.02905"></scales>
<clustering>
<clus scale="   58.029">  2  9  1 -1</clus>
<clus scale="   80.972">  5  6 -1 -1</clus>
<clus scale="   93.581">  7  8 -1 -1</clus>
<clus scale="  154.442">  2  5  1 -1</clus>
<clus scale="   58.029">  2  5  1 -1</clus>
</clustering>
</event>
<event>
 9    1  0.6270443E-005  0.1345817E+03  0.7546771E-02  0.1223687E+00
          1   -1    0    0  502    0 -0.00000000000E+00  0.00000000000E+00  0.23807403232E+03  0.23807403232E+03  0.00000000000E+00 0. -1.
         21   -1    0    0  501  502  0.00000000000E+00 -0.00000000000E+00 -0.26592971658E+03  0.26592971658E+03  0.00000000000E+00 0. -1.
        -24    2    1    2    0    0  0.82774298349E+02 -0.50671179185E+02  0.18776784456E+03  0.22707736394E+03  0.82995258263E+02 0.  0.
         23    2    1    2    0    0 -0.83281328474E+02  0.29221278465E+02 -0.11198056472E+03  0.17108584770E+03  0.94557165893E+02 0.  0.
         11    1    3    3    0    0  0.72748848531E+02 -0.67367229128E+02  0.18114932793E+03  0.20650863792E+03  0.00000000000E+00 0. -1.
        -12    1    3    3    0    0  0.10025449818E+02  0.16696049943E+02  0.66185166260E+01  0.20568726020E+02  0.00000000000E+00 0.  1.
        -13    1    4    4    0    0 -0.87229709101E+02  0.52896631463E+02 -0.10427280043E+03  0.14587629238E+03  0.00000000000E+00 0.  1.
         13    1    4    4    0    0  0.39483806263E+01 -0.23675352999E+02 -0.77077642962E+01  0.25209555324E+02  0.00000000000E+00 0. -1.
          2    1    1    2  501    0  0.50703012529E+00  0.21449900720E+02 -0.10364296409E+03  0.10584053726E+03  0.00000000000E+00 0. -1.
<scales pt_clust_5="13000.00000" pt_clust_6="13000.00000" pt_clust_7="13000.00000" pt_clust_8="13000.00000" pt_clust_9="21.45589"></scales>
<clustering>
<clus scale="   21.456">  2  9  1 -1</clus>
<clus scale="   82.995">  5  6 -1 -1</clus>
<clus scale="   94.557">  7  8 -1 -1</clus>
<clus scale="  126.726">  1  5  2 -1</clus>
<clus scale="   21.456">  2  5  1 -1</clus>
</clustering>
</event>
<event>
 9    1  0.6270443E-005  0.2776971E+03  0.7546771E-02  0.1097961E+00
          1   -1    0    0  502    0 -0.00000000000E+00  0.00000000000E+00  0.37908339160E+03  0.37908339160E+03  0.00000000000E+00 0. -1.
         21   -1    0    0  501  502  0.00000000000E+00 -0.00000000000E+00 -0.22563501840E+03  0.22563501840E+03  0.00000000000E+00 0. -1.
         23    2    1    2    0    0 -0.25381508510E+03  0.10497795042E+03  0.93551460562E+02  0.30400305982E+03  0.90683609909E+02 0.  0.
        -24    2    1    2    0    0  0.22586860369E+03 -0.10548400779E+03  0.29468225176E+02  0.25939747344E+03  0.65384791057E+02 0.  0.
         13    1    4    4    0    0  0.20196049509E+03 -0.85292736929E+02  0.43592609684E+01  0.21927584387E+03  0.00000000000E+00 0. -1.
        -14    1    4    4    0    0  0.23908108598E+02 -0.20191270859E+02  0.25108964208E+02  0.40121629568E+02  0.00000000000E+00 0.  1.
        -11    1    3    3    0    0 -0.15184594914E+03  0.95010120077E+02  0.25305381952E+02  0.18089908110E+03  0.00000000000E+00 0.  1.
         11    1    3    3    0    0 -0.10196913596E+03  0.99678303428E+01  0.68246078610E+02  0.12310397871E+03  0.00000000000E+00 0. -1.
          2    1    1    2  501    0  0.27946481408E+02  0.50605736721E+00  0.30428687467E+02  0.41317876737E+02  0.00000000000E+00 0. -1.
<scales pt_clust_5="13000.00000" pt_clust_6="13000.00000" pt_clust_7="13000.00000" pt_clust_8="13000.00000" pt_clust_9="27.95108"></scales>
<clustering>
<clus scale="   27.951">  2  9  1 -1</clus>
<clus scale="   65.385">  5  6 -1 -1</clus>
<clus scale="   90.684">  7  8 -1 -1</clus>
<clus scale="  270.495">  2  5  1 -1</clus>
<clus scale="   27.951">  2  5  1 -1</clus>
</clustering>
</event>
<event>
 9    1  0.6270443E-005  0.1134804E+03  0.7546771E-02  0.1258676E+00
          1   -1    0    0  502    0 -0.00000000000E+00  0.00000000000E+00  0.58988292868E+03  0.58988292868E+03  0.00000000000E+00 0. -1.
         21   -1    0    0  501  502  0.00000000000E+00 -0.00000000000E+00 -0.52767133689E+02  0.52767133689E+02  0.00000000000E+00 0.  1.
         23    2    1    2    0    0 -0.56485113939E+02 -0.32696817883E+02  0.43417257499E+03  0.44857177899E+03  0.91930223722E+02 0.  0.
        -24    2    1    2    0    0  0.53879550722E+02  0.54357013375E+02  0.25411980682E+02  0.11353608265E+03  0.79918598662E+02 0.  0.
         11    1    4    4    0    0 -0.14129433676E+01  0.47529899337E+02  0.32176678240E+02  0.57414513518E+02  0.00000000000E+00 0. -1.
        -12    1    4    4    0    0  0.55292494090E+02  0.68271140381E+01 -0.67646975579E+01  0.56121569132E+02  0.00000000000E+00 0.  1.
        -13    1    3    3    0    0  0.19745418550E+02 -0.23904886352E+02  0.72556068517E+02  0.78903157249E+02  0.00000000000E+00 0.  1.
         13    1    3    3    0    0 -0.76230532490E+02 -0.87919315313E+01  0.36161650647E+03  0.36966862174E+03  0.00000000000E+00 0. -1.
          2    1    1    2  501    0  0.26055632172E+01 -0.21660195492E+02  0.77531239321E+02  0.80542200734E+02  0.00000000000E+00 0. -1.
<scales pt_clust_5="13000.00000" pt_clust_6="13000.00000" pt_clust_7="13000.00000" pt_clust_8="13000.00000" pt_clust_9="21.81636"></scales>
<clustering>
<clus scale="   21.816">  2  9  1 -1</clus>
<clus scale="   79.919">  5  6 -1 -1</clus>
<clus scale="   91.930">  7  8 -1 -1</clus>
<clus scale="  103.989">  2  5  1 -1</clus>
<clus scale="   21.816">  2  5  1 -1</clus>
</clustering>
</event>
<event>
 9    1  0.6270443E-005  0.1553574E+03  0.7546771E-02  0.1223144E+00
          3   -1    0    0  502    0 -0.00000000000E+00  0.00000000000E+00  0.25579274212E+03  0.25579274212E+03  0.00000000000E+00 0. -1.
         21   -1    0    0  501  502  0.00000000000E+00 -0.00000000000E+00 -0.13362816733E+03  0.13362816733E+03  0.00000000000E+00 0. -1.
        -24    2    1    2    0    0 -0.70265280722E+01 -0.21077467540E+02  0.54094857917E+02  0.99340110854E+02  0.80303002663E+02 0.  0.
         23    2    1    2    0    0  0.23815290789E+02  0.13589041734E+03  0.40333350642E+02  0.17077789835E+03  0.92222219616E+02 0.  0.
         13    1    3    3    0    0  0.24857083523E+02 -0.96357553341E+01  0.59347976661E+02  0.65060777093E+02  0.00000000000E+00 0. -1.
        -14    1    3    3    0    0 -0.31883611595E+02 -0.11441712206E+02 -0.52531187440E+01  0.34279333761E+02  0.00000000000E+00 0.  1.
        -11    1    4    4    0    0 -0.22037873302E+02  0.42597525351E+02  0.46289208242E+02  0.66655141028E+02  0.00000000000E+00 0.  1.
         11    1    4    4    0    0  0.45853164091E+02  0.93292891990E+02 -0.59558575999E+01  0.10412275732E+03  0.00000000000E+00 0. -1.
          4    1    1    2  501    0 -0.16788762717E+02 -0.11481294980E+03  0.27736366225E+02  0.11930290025E+03  0.00000000000E+00 0. -1.
<scales pt_clust_5="13000.00000" pt_clust_6="13000.00000" pt_clust_7="13000.00000" pt_clust_8="13000.00000" pt_clust_9="125.02393"></scales>
<clustering>
<clus scale="   80.303">  5  6 -1 -1</clus>
<clus scale="   83.320">  1  5  2 -1</clus>
<clus scale="   92.222">  7  8 -1 -1</clus>
<clus scale="  125.024">  2  9  1 -1</clus>
<clus scale="  125.024">  2  5  1 -1</clus>
</clustering>
</event>
<event>
 9    1  0.6270443E-005  0.1280499E+03  0.7546771E-02  0.1244464E+00
          3   -1    0    0  502    0 -0.00000000000E+00  0.00000000000E+00  0.64590869948E+03  0.64590869948E+03  0.00000000000E+00 0. -1.
         21   -1    0    0  501  502  0.00000000000E+00 -0.00000000000E+00 -0.84713647860E+02  0.84713647860E+02  0.00000000000E+00 0. -1.
        -24    2    1    2    0    0  0.52763419388E+02  0.52254819583E+02  0.35388615209E+03  0.36669544580E+03  0.60955694857E+02 0.  0.
         23    2    1    2    0    0 -0.33346541135E+02  0.54754598945E+02  0.23077758235E+03  0.25266680138E+03  0.80449748849E+02 0.  0.
         13    1    3    3    0    0  0.61440855251E+02  0.38034721926E+02  0.32834098462E+03  0.33619848445E+03  0.00000000000E+00 0. -1.
        -14    1    3    3    0    0 -0.86774358634E+01  0.14220097657E+02  0.25545167468E+02  0.30496961349E+02  0.00000000000E+00 0.  1.
        -13    1    4    4    0    0 -0.45787356636E+02  0.83381713588E+01  0.16346386537E+03  0.16996012006E+03  0.00000000000E+00 0.  1.
         13    1    4    4    0    0  0.12440815501E+02  0.46416427586E+02  0.67313716981E+02  0.82706681314E+02  0.00000000000E+00 0. -1.
          4    1    1    2  501    0 -0.19416878253E+02 -0.10700941853E+03 -0.23468682823E+02  0.11126010016E+03  0.00000000000E+00 0. -1.
<scales pt_clust_5="13000.00000" pt_clust_6="13000.00000" pt_clust_7="13000.00000" pt_clust_8="13000.00000" pt_clust_9="99.62238"></scales>
<clustering>
<clus scale="   60.956">  5  6 -1 -1</clus>
<clus scale="   80.450">  7  8 -1 -1</clus>
<clus scale="   96.074">  1  5  2 -1</clus>
<clus scale="   99.622">  2  9  1 -1</clus>
<clus scale="   99.622">  2  5  1 -1</clus>
</clustering>
</event>
<event>
 9    1  0.6270443E-005  0.9530989E+02  0.7546771E-02  0.1298918E+00
          1   -1    0    0  502    0 -0.00000000000E+00  0.00000000000E+00  0.48084076441E+03  0.48084076441E+03  0.00000000000E+00 0. -1.
         21   -1    0    0  501  502  0.00000000000E+00 -0.00000000000E+00 -0.27857643260E+03  0.27857643260E+03  0.00000000000E+00 0. -1.
        -24    2    1    2    0    0  0.15928454915E+02  0.10120741187E+01  0.25447995846E+03  0.26606887323E+03  0.76012210049E+02 0.  0.
         23    2    1    2    0    0 -0.60194147419E+02  0.20130371473E+02  0.20420541114E+03  0.23227706308E+03  0.90687468020E+02 0.  0.
         13    1    3    3    0    0 -0.75687731168E+00 -0.35233141870E+02  0.15345324593E+03  0.15744791468E+03  0.00000000000E+00 0. -1.
        -14    1    3    3    0    0  0.16685332227E+02  0.36245215989E+02  0.10102671252E+03  0.10862095855E+03  0.00000000000E+00 0.  1.
        -11    1    4    4    0    0 -0.52612811234E+02 -0.87597574121E+01  0.43519768535E+02  0.68839026062E+02  0.00000000000E+00 0. -1.
         11    1    4    4    0    0 -0.75813361850E+01  0.28890128885E+02  0.16068564261E+03  0.16343803702E+03  0.00000000000E+00 0.  1.
          2    1    1    2  501    0  0.44265692504E+02 -0.21142445592E+02 -0.25642103779E+03  0.26107126069E+03  0.00000000000E+00 0. -1.
<scales pt_clust_5="13000.00000" pt_clust_6="13000.00000" pt_clust_7="13000.00000" pt_clust_8="13000.00000" pt_clust_9="49.05563"></scales>
<clustering>
<clus scale="   49.056">  2  9  1 -1</clus>
<clus scale="   76.012">  5  6 -1 -1</clus>
<clus scale="   81.472">  1  5  2 -1</clus>
<clus scale="   90.687">  7  8 -1 -1</clus>
<clus scale="   49.056">  2  5  1 -1</clus>
</clustering>
</event>
<event>
 9    1  0.6270443E-005  0.3358860E+03  0.7546771E-02  0.1114273E+00
         21   -1    0    0  501  502  0.00000000000E+00  0.00000000000E+00  0.17074340809E+03  0.17074340809E+03  0.00000000000E+00 0. -1.
          1   -1    0    0  502    0 -0.00000000000E+00 -0.00000000000E+00 -0.15534146710E+04  0.15534146710E+04  0.00000000000E+00 0. -1.
        -24    2    1    2    0    0  0.26136019060E+02 -0.54195402214E+02 -0.75968062385E+02  0.12605283022E+03  0.80609778497E+02 0.  0.
         23    2    1    2    0    0  0.29205599219E+03 -0.28704424284E+02 -0.12198817408E+04  0.12580221662E+04  0.91584183078E+02 0.  0.
         13    1    3    3    0    0 -0.65266860153E+01 -0.61732176031E+02 -0.67033408996E+02  0.91361573484E+02  0.00000000000E+00 0. -1.
        -14    1    3    3    0    0  0.32662705076E+02  0.75367738169E+01 -0.89346533892E+01  0.34691256732E+02  0.00000000000E+00 0.  1.
        -13    1    4    4    0    0  0.19562598539E+03 -0.86648733088E+00 -0.95345149250E+03  0.97331393986E+03  0.00000000000E+00 0. -1.
         13    1    4    4    0    0  0.96430006807E+02 -0.27837936953E+02 -0.26643024826E+03  0.28470822632E+03  0.00000000000E+00 0.  1.
          2    1    1    2  501    0 -0.31819201125E+03  0.82899826498E+02 -0.86821459745E+02  0.34008308269E+03  0.00000000000E+00 0. -1.
<scales pt_clust_5="13000.00000" pt_clust_6="13000.00000" pt_clust_7="13000.00000" pt_clust_8="13000.00000" pt_clust_9="323.15904"></scales>
<clustering>
<clus scale="   80.610">  5  6 -1 -1</clus>
<clus scale="   91.584">  7  8 -1 -1</clus>
<clus scale="  100.589">  2  5  1 -1</clus>
<clus scale="  323.159">  1  9  2 -1</clus>
<clus scale="  323.159">  1  5  2 -1</clus>
</clustering>
</event>
<event>
 9    1  0.6270443E-005  0.1022266E+03  0.7546771E-02  0.1278279E+00
          1   -1    0    0  502    0 -0.00000000000E+00  0.00000000000E+00  0.62599532452E+02  0.62599532452E+02  0.00000000000E+00 0. -1.
         21   -1    0    0  501  502  0.00000000000E+00 -0.00000000000E+00 -0.38125653430E+03  0.38125653430E+03  0.00000000000E+00 0. -1.
         23    2    1    2    0    0  0.94193570076E+01  0.53400248208E+02 -0.16070938627E+02  0.10663969563E+03  0.90407072842E+02 0.  0.
        -24    2    1    2    0    0 -0.12179933591E+02 -0.15347144208E+02 -0.27925800758E+03  0.29249660271E+03  0.84766397719E+02 0.  0.
         11    1    4    4    0    0 -0.48787099078E+02 -0.11900884242E+02 -0.16385939802E+03  0.17138177966E+03  0.00000000000E+00 0. -1.
        -12    1    4    4    0    0  0.36607165487E+02 -0.34462599658E+01 -0.11539860957E+03  0.12111482305E+03  0.00000000000E+00 0.  1.
        -13    1    3    3    0    0 -0.17613541582E+00  0.24442481457E+02 -0.53223205893E+02  0.58567700732E+02  0.00000000000E+00 0.  1.
         13    1    3    3    0    0  0.95954924235E+01  0.28957766751E+02  0.37152267267E+02  0.48071994894E+02  0.00000000000E+00 0. -1.
          2    1    1    2  501    0  0.27605765834E+01 -0.38053104001E+02 -0.23328055643E+02  0.44719768416E+02  0.00000000000E+00 0. -1.
<scales pt_clust_5="13000.00000" pt_clust_6="13000.00000" pt_clust_7="13000.00000" pt_clust_8="13000.00000" pt_clust_9="38.15313"></scales>
<clustering>
<clus scale="   38.153">  2  9  1 -1</clus>
<clus scale="   84.766">  5  6 -1 -1</clus>
<clus scale="   90.407">  7  8 -1 -1</clus>
<clus scale="   97.274">  2  5  1 -1</clus>
<clus scale="   38.153">  2  5  1 -1</clus>
</clustering>
</event>
<event>
 9    1  0.6270443E-005  0.1901283E+03  0.7546771E-02  0.1159353E+00
         -2   -1    0    0    0  501 -0.00000000000E+00  0.00000000000E+00  0.75859613848E+03  0.75859613848E+03  0.00000000000E+00 0.  1.
         21   -1    0    0  501  502  0.00000000000E+00 -0.00000000000E+00 -0.35830796836E+03  0.35830796836E+03  0.00000000000E+00 0.  1.
         23    2    1    2    0    0 -0.17128456050E+03  0.42082620590E+02  0.68864259527E+03  0.71656775476E+03  0.90174140019E+02 0.  0.
        -24    2    1    2    0    0  0.10277148443E+03 -0.39054172861E+02 -0.38970246285E+02  0.14169435674E+03  0.80445038428E+02 0.  0.
         11    1    4    4    0    0  0.17509412029E+02 -0.26177011548E+02 -0.45368988066E+02  0.55228258359E+02  0.00000000000E+00 0. -1.
        -12    1    4    4    0    0  0.85262072399E+02 -0.12877161313E+02  0.63987417811E+01  0.86466098383E+02  0.00000000000E+00 0.  1.
        -13    1    3    3    0    0 -0.11374540691E+03  0.17397055986E+02  0.57885948977E+03  0.59018555052E+03  0.00000000000E+00 0.  1.
         13    1    3    3    0    0 -0.57539153592E+02  0.24685564604E+02  0.10978310550E+03  0.12638220424E+03  0.00000000000E+00 0. -1.
         -1    1    1    2    0  502  0.68513076075E+02 -0.30284477289E+01 -0.24938417885E+03  0.25864199533E+03  0.00000000000E+00 0.  1.
<scales pt_clust_5="13000.00000" pt_clust_6="13000.00000" pt_clust_7="13000.00000" pt_clust_8="13000.00000" pt_clust_9="68.57998"></scales>
<clustering>
<clus scale="   68.580">  2  9  1 -1</clus>
<clus scale="   80.445">  5  6 -1 -1</clus>
<clus scale="   90.174">  7  8 -1 -1</clus>
<clus scale="  185.712">  2  5  1 -1</clus>
<clus scale="   68.580">  2  5  1 -1</clus>
</clustering>
</event>
<event>
 9    1  0.6270443E-005  0.9872121E+02  0.7546771E-02  0.1286386E+00
         21   -1    0    0  501  502  0.00000000000E+00  0.00000000000E+00  0.23306612881E+02  0.23306612881E+02  0.00000000000E+00 0. -1.
          1   -1    0    0  502    0 -0.00000000000E+00 -0.00000000000E+00 -0.11065896477E+04  0.11065896477E+04  0.00000000000E+00 0. -1.
        -24    2    1    2    0    0 -0.27499079791E+02  0.19249626131E+02 -0.65638020795E+03  0.66258720250E+03  0.84024258598E+02 0.  0.
         23    2    1    2    0    0  0.28722066997E+02 -0.72721293763E+02 -0.19114191430E+03  0.22555727870E+03  0.90705627579E+02 0.  0.
         11    1    3    3    0    0 -0.38965004511E+02 -0.18176176416E+02 -0.20205730596E+03  0.20658121855E+03  0.00000000000E+00 0. -1.
        -12    1    3    3    0    0  0.11465924720E+02  0.37425802547E+02 -0.45432290199E+03  0.45600598395E+03  0.00000000000E+00 0.  1.
        -13    1    4    4    0    0  0.50003707110E+02 -0.29979952314E+02 -0.50846893117E+02  0.77360033643E+02  0.00000000000E+00 0. -1.
         13    1    4    4    0    0 -0.21281640113E+02 -0.42741341448E+02 -0.14029502118E+03  0.14819724506E+03  0.00000000000E+00 0.  1.
          2    1    1    2  501    0 -0.12229872061E+01  0.53471667632E+02 -0.23576091255E+03  0.24175177936E+03  0.00000000000E+00 0. -1.
<scales pt_clust_5="13000.00000" pt_clust_6="13000.00000" pt_clust_7="13000.00000" pt_clust_8="13000.00000" pt_clust_9="53.48568"></scales>
<clustering>
<clus scale="   53.486">  1  9  2 -1</clus>
<clus scale="   84.024">  5  6 -1 -1</clus>
<clus scale="   90.706">  7  8 -1 -1</clus>
<clus scale="   92.620">  2  5  1 -1</clus>
<clus scale="   53.486">  1  5  2 -1</clus>
</clustering>
</event>
<event>
 9    1  0.6270443E-005  0.1371799E+03  0.7546771E-02  0.1224145E+00
          1   -1    0    0  502    0 -0.00000000000E+00  0.00000000000E+00  0.72954402582E+02  0.72954402582E+02  0.00000000000E+00 0. -1.
         21   -1    0    0  501  502  0.00000000000E+00 -0.00000000000E+00 -0.71926765234E+03  0.71926765234E+03  0.00000000000E+00 0. -1.
        -24    2    1    2    0    0 -0.54565650985E+02  0.67901073497E+02 -0.15998319218E+03  0.19910295411E+03  0.80370383260E+02 0.  0.
         23    2    1    2    0    0 -0.78768703013E+02  0.34094377682E+02 -0.36452489841E+03  0.38571220889E+03  0.92350264538E+02 0.  0.
         13    1    3    3    0    0 -0.15717056240E+02  0.76905779453E+02 -0.11071870095E+03  0.13572087352E+03  0.00000000000E+00 0. -1.
        -14    1    3    3    0    0 -0.38848594746E+02 -0.90047059565E+01 -0.49264491229E+02  0.63382080584E+02  0.00000000000E+00 0.  1.
        -13    1    4    4    0    0  0.90907204042E+01  0.36294885814E+02 -0.12930514816E+03  0.13460973692E+03  0.00000000000E+00 0.  1.
         13    1    4    4    0    0 -0.87859423418E+02 -0.22005081315E+01 -0.23521975025E+03  0.25110247197E+03  0.00000000000E+00 0. -1.
          2    1    1    2  501    0  0.13333435400E+03 -0.10199545118E+03 -0.12180515916E+03  0.20740689192E+03  0.00000000000E+00 0. -1.
<scales pt_clust_5="13000.00000" pt_clust_6="13000.00000" pt_clust_7="13000.00000" pt_clust_8="13000.00000" pt_clust_9="101.43848"></scales>
<clustering>
<clus scale="   80.370">  5  6 -1 -1</clus>
<clus scale="   92.350">  7  8 -1 -1</clus>
<clus scale="  118.522">  1  5  2 -1</clus>
<clus scale="  101.438">  2  9  1 -1</clus>
<clus scale="  101.438">  2  5  1 -1</clus>
</clustering>
</event>
<event>
 9    1  0.6270443E-005  0.1543528E+03  0.7546771E-02  0.1196383E+00
          1   -1    0    0  502    0 -0.00000000000E+00  0.00000000000E+00  0.62086340493E+03  0.62086340493E+03  0.00000000000E+00 0. -1.
         21   -1    0    0  501  502  0.00000000000E+00 -0.00000000000E+00 -0.55663336000E+02  0.55663336000E+02  0.00000000000E+00 0.  1.
        -24    2    1    2    0    0 -0.10886460754E+03  0.80495795024E+02  0.36655436279E+03  0.39916297508E+03  0.81473333099E+02 0.  0.
         23    2    1    2    0    0  0.10481140398E+03 -0.37552878786E+02  0.11350828498E+03  0.18192319273E+03  0.88409661153E+02 0.  0.
         13    1    3    3    0    0 -0.14626523085E+02  0.58718533628E+02  0.16078309792E+03  0.17179349797E+03  0.00000000000E+00 0. -1.
        -14    1    3    3    0    0 -0.94238084455E+02  0.21777261396E+02  0.20577126487E+03  0.22736947711E+03  0.00000000000E+00 0.  1.
        -13    1    4    4    0    0  0.17298656348E+02  0.25475882400E+02  0.43679135900E+02  0.53442782567E+02  0.00000000000E+00 0.  1.
         13    1    4    4    0    0  0.87512747637E+02 -0.63028761186E+02  0.69829149079E+02  0.12848041017E+03  0.00000000000E+00 0. -1.
          2    1    1    2  501    0  0.40532035551E+01 -0.42942916237E+02  0.85137421167E+02  0.95440573118E+02  0.00000000000E+00 0. -1.
<scales pt_clust_5="13000.00000" pt_clust_6="13000.00000" pt_clust_7="13000.00000" pt_clust_8="13000.00000" pt_clust_9="43.13380"></scales>
<clustering>
<clus scale="   43.134">  2  9  1 -1</clus>
<clus scale="   81.473">  5  6 -1 -1</clus>
<clus scale="   88.410">  7  8 -1 -1</clus>
<clus scale="  150.487">  1  5  2 -1</clus>
<clus scale="   43.134">  2  5  1 -1</clus>
</clustering>
</event>
<event>
 9    1  0.6270443E-005  0.1493951E+03  0.7546771E-02  0.1213482E+00
         21   -1    0    0  501  502  0.00000000000E+00  0.00000000000E+00  0.96486832068E+02  0.96486832068E+02  0.00000000000E+00 0. -1.
         -4   -1    0    0    0  501 -0.00000000000E+00 -0.00000000000E+00 -0.36509880003E+03  0.36509880003E+03  0.00000000000E+00 0.  1.
         23    2    1    2    0    0 -0.51553356870E+02  0.64682404186E+02 -0.27693324059E+03  0.31574978772E+03  0.12713908400E+03 0.  0.
        -24    2    1    2    0    0  0.16085338981E+02 -0.69020408741E+02  0.81711929403E+01  0.11010321083E+03  0.83865330669E+02 0.  0.
         13    1    4    4    0    0  0.39530138775E+02 -0.75716038296E+02  0.67178349036E+01  0.85677766268E+02  0.00000000000E+00 0. -1.
        -14    1    4    4    0    0 -0.23444799794E+02  0.66956295550E+01  0.14533580367E+01  0.24425444563E+02  0.00000000000E+00 0.  1.
        -11    1    3    3    0    0  0.12783642890E+02  0.51442080015E+02 -0.22736004874E+03  0.23345727850E+03  0.00000000000E+00 0.  1.
         11    1    3    3    0    0 -0.64336999760E+02  0.13240324171E+02 -0.49573191852E+02  0.82292509214E+02  0.00000000000E+00 0. -1.
         -3    1    1    2    0  502  0.35468017889E+02  0.43380045553E+01  0.15007969357E+00  0.35732633550E+02  0.00000000000E+00 0.  1.
<scales pt_clust_5="13000.00000" pt_clust_6="13000.00000" pt_clust_7="13000.00000" pt_clust_8="13000.00000" pt_clust_9="35.73232"></scales>
<clustering>
<clus scale="   35.732">  1  9  2 -1</clus>
<clus scale="   83.865">  5  6 -1 -1</clus>
<clus scale="  114.839">  1  5  2 -1</clus>
<clus scale="  127.139">  7  8 -1 -1</clus>
<clus scale="   35.732">  1  5  2 -1</clus>
</clustering>
</event>
<event>
 9    1  0.6270443E-005  0.1176175E+03  0.7546771E-02  0.1252853E+00
          3   -1    0    0  502    0 -0.00000000000E+00  0.00000000000E+00  0.95143064047E+03  0.95143064047E+03  0.00000000000E+00 0. -1.
         21   -1    0    0  501  502  0.00000000000E+00 -0.00000000000E+00 -0.20908374971E+02  0.20908374971E+02  0.00000000000E+00 0.  1.
        -24    2    1    2    0    0  0.52115573793E+02 -0.41422729678E+02  0.36775057059E+03  0.38146180580E+03  0.76424809768E+02 0.  0.
         23    2    1    2    0    0 -0.40239619943E+02  0.75519070021E+02  0.29942536606E+03  0.32506733846E+03  0.93224823615E+02 0.  0.
         13    1    3    3    0    0  0.41880156258E+02  0.14222473564E+02  0.18121518219E+03  0.18653463083E+03  0.00000000000E+00 0. -1.
        -14    1    3    3    0    0  0.10235417535E+02 -0.55645203242E+02  0.18653538840E+03  0.19492717497E+03  0.00000000000E+00 0.  1.
        -13    1    4    4    0    0 -0.49116968711E+02  0.11624471916E+02  0.20207824319E+03  0.20828639258E+03  0.00000000000E+00 0. -1.
         13    1    4    4    0    0  0.88773487680E+01  0.63894598105E+02  0.97347122877E+02  0.11678094588E+03  0.00000000000E+00 0.  1.
          4    1    1    2  501    0 -0.11875953849E+02 -0.34096340343E+02  0.26334632885E+03  0.26580987119E+03  0.00000000000E+00 0. -1.
<scales pt_clust_5="13000.00000" pt_clust_6="13000.00000" pt_clust_7="13000.00000" pt_clust_8="13000.00000" pt_clust_9="36.10540"></scales>
<clustering>
<clus scale="   36.105">  2  9  1 -1</clus>
<clus scale="   76.425">  5  6 -1 -1</clus>
<clus scale="   93.225">  7  8 -1 -1</clus>
<clus scale="  104.803">  1  5  2 -1</clus>
<clus scale="   36.105">  2  5  1 -1</clus>
</clustering>
</event>
<event>
 9    1  0.6270443E-005  0.9463771E+02  0.7546771E-02  0.1299809E+00
         -2   -1    0    0    0  501 -0.00000000000E+00  0.00000000000E+00  0.80854352215E+02  0.80854352215E+02  0.00000000000E+00 0.  1.
         21   -1    0    0  501  502  0.00000000000E+00 -0.00000000000E+00 -0.17451792308E+03  0.17451792308E+03  0.00000000000E+00 0. -1.
        -24    2    1    2    0    0  0.13375625381E+02  0.80404005727E+01  0.17044550986E+02  0.83577937347E+02  0.80319359417E+02 0.  0.
         23    2    1    2    0    0 -0.22713895352E+02  0.20803779120E+02 -0.68302767783E+02  0.11966561226E+03  0.93305264606E+02 0.  0.
         11    1    3    3    0    0  0.36428666301E+01 -0.34282736721E+02  0.20334230312E+02  0.40025709697E+02  0.00000000000E+00 0. -1.
        -12    1    3    3    0    0  0.97327587508E+01  0.42323137293E+02 -0.32896793258E+01  0.43552227650E+02  0.00000000000E+00 0.  1.
        -11    1    4    4    0    0  0.27336431991E+02 -0.14663627415E+02 -0.43658810284E+02  0.53557391632E+02  0.00000000000E+00 0. -1.
         11    1    4    4    0    0 -0.50050327344E+02  0.35467406535E+02 -0.24643957499E+02  0.66108220629E+02  0.00000000000E+00 0.  1.
         -1    1    1    2    0  502  0.93382699715E+01 -0.28844179692E+02 -0.42405354072E+02  0.52128725691E+02  0.00000000000E+00 0.  1.
<scales pt_clust_5="13000.00000" pt_clust_6="13000.00000" pt_clust_7="13000.00000" pt_clust_8="13000.00000" pt_clust_9="30.31815"></scales>
<clustering>
<clus scale="   30.318">  2  9  1 -1</clus>
<clus scale="   80.319">  5  6 -1 -1</clus>
<clus scale="   81.863">  1  5  2 -1</clus>
<clus scale="   93.305">  7  8 -1 -1</clus>
<clus scale="   30.318">  2  5  1 -1</clus>
</clustering>
</event>
<event>
 9    1  0.6270443E-005  0.1392204E+03  0.7546771E-02  0.1232780E+00
         -2   -1    0    0    0  501 -0.00000000000E+00  0.00000000000E+00  0.16083534471E+03  0.16083534471E+03  0.00000000000E+00 0.  1.
         21   -1    0    0  501  502  0.00000000000E+00 -0.00000000000E+00 -0.40881377080E+03  0.40881377080E+03  0.00000000000E+00 0.  1.
         23    2    1    2    0    0  0.19837522634E+01  0.21571310105E+02 -0.10005107834E+03  0.13784825354E+03  0.92318286560E+02 0.  0.
        -24    2    1    2    0    0  0.10483225955E+03  0.17627784013E+02  0.94590396953E+02  0.16391826483E+03  0.81371450379E+02 0.  0.
         11    1    4    4    0    0  0.37461513844E+02 -0.91163935436E+01  0.81639329169E+02  0.90285401466E+02  0.00000000000E+00 0. -1.
        -12    1    4    4    0    0  0.67370745703E+02  0.26744177556E+02  0.12951067784E+02  0.73632863359E+02  0.00000000000E+00 0.  1.
        -11    1    3    3    0    0 -0.89454911771E+01  0.56932742761E+02 -0.56708981307E+02  0.80853370812E+02  0.00000000000E+00 0. -1.
         11    1    3    3    0    0  0.10929243441E+02 -0.35361432656E+02 -0.43342097034E+02  0.56994882726E+02  0.00000000000E+00 0.  1.
         -1    1    1    2    0  502 -0.10681601181E+03 -0.39199094118E+02 -0.24251774470E+03  0.26788259714E+03  0.00000000000E+00 0.  1.
<scales pt_clust_5="13000.00000" pt_clust_6="13000.00000" pt_clust_7="13000.00000" pt_clust_8="13000.00000" pt_clust_9="112.96460"></scales>
<clustering>
<clus scale="   81.371">  5  6 -1 -1</clus>
<clus scale="   92.318">  7  8 -1 -1</clus>
<clus scale="   94.826">  1  7  2 -1</clus>
<clus scale="  112.965">  2  9  1 -1</clus>
<clus scale="  112.965">  2  5  1 -1</clus>
</clustering>
</event>
<event>
 9    1  0.6270443E-005  0.9667674E+02  0.7546771E-02  0.1296437E+00
          1   -1    0    0  502    0 -0.00000000000E+00  0.00000000000E+00  0.25958328228E+03  0.25958328228E+03  0.00000000000E+00 0. -1.
         21   -1    0    0  501  502  0.00000000000E+00 -0.00000000000E+00 -0.92874476330E+02  0.92874476330E+02  0.00000000000E+00 0. -1.
         23    2    1    2    0    0 -0.15746935025E+02  0.18493307707E+02  0.18052229679E+03  0.20531028352E+03  0.94731433475E+02 0.  0.
        -24    2    1    2    0    0 -0.68407073992E+01 -0.15089351284E+02  0.38694592194E+02  0.89885906001E+02  0.79421161114E+02 0.  0.
         13    1    4    4    0    0 -0.28168366966E+02 -0.23877356284E+02 -0.80189485167E+01  0.37787412930E+02  0.00000000000E+00 0. -1.
        -14    1    4    4    0    0  0.21327659567E+02  0.87880050000E+01  0.46713540711E+02  0.52098493071E+02  0.00000000000E+00 0.  1.
        -11    1    3    3    0    0 -0.53144693849E+02 -0.51724790672E+01  0.10421240107E+03  0.11709542075E+03  0.00000000000E+00 0. -1.
         11    1    3    3    0    0  0.37397758824E+02  0.23665786774E+02  0.76309895721E+02  0.88214862770E+02  0.00000000000E+00 0.  1.
          2    1    1    2  501    0  0.22587642424E+02 -0.34039564231E+01 -0.52508083039E+02  0.57261569085E+02  0.00000000000E+00 0. -1.
<scales pt_clust_5="13000.00000" pt_clust_6="13000.00000" pt_clust_7="13000.00000" pt_clust_8="13000.00000" pt_clust_9="22.84269"></scales>
<clustering>
<clus scale="   22.843">  2  9  1 -1</clus>
<clus scale="   79.421">  5  6 -1 -1</clus>
<clus scale="   81.732">  2  5  1 -1</clus>
<clus scale="   94.731">  7  8 -1 -1</clus>
<clus scale="   22.843">  2  5  1 -1</clus>
</clustering>
</event>
<event>
 9    1  0.6270443E-005  0.9471418E+02  0.7546771E-02  0.1298746E+00
         21   -1    0    0  501  502  0.00000000000E+00  0.00000000000E+00  0.10852775269E+03  0.10852775269E+03  0.00000000000E+00 0.  1.
         -4   -1    0    0    0  501 -0.00000000000E+00 -0.00000000000E+00 -0.29690079181E+03  0.29690079181E+03  0.00000000000E+00 0.  1.
         23    2    1    2    0    0 -0.33527916708E+02 -0.80486564021E+01 -0.21350775867E+03  0.23523040640E+03  0.92514209814E+02 0.  0.
        -24    2    1    2    0    0 -0.13605568981E+02 -0.22250157533E+01 -0.38345597914E+02  0.90468190667E+02  0.80771569509E+02 0.  0.
         13    1    4    4    0    0 -0.15752506499E+02 -0.32285923807E+02 -0.46958821773E+02  0.59124049924E+02  0.00000000000E+00 0. -1.
        -14    1    4    4    0    0  0.21469375184E+01  0.30060908054E+02  0.86132238591E+01  0.31344140744E+02  0.00000000000E+00 0.  1.
        -11    1    3    3    0    0  0.10586924442E+02 -0.25078515875E+02 -0.14822861657E+02  0.30995679624E+02  0.00000000000E+00 0. -1.
         11    1    3    3    0    0 -0.44114841150E+02  0.17029859473E+02 -0.19868489701E+03  0.20423472678E+03  0.00000000000E+00 0.  1.
         -3    1    1    2    0  502  0.47133485689E+02  0.10273672155E+02  0.63480317457E+02  0.79729947430E+02  0.00000000000E+00 0.  1.
<scales pt_clust_5="13000.00000" pt_clust_6="13000.00000" pt_clust_7="13000.00000" pt_clust_8="13000.00000" pt_clust_9="48.24017"></scales>
<clustering>
<clus scale="   48.240">  1  9  2 -1</clus>
<clus scale="   80.772">  5  6 -1 -1</clus>
<clus scale="   83.282">  1  5  2 -1</clus>
<clus scale="   92.514">  7  8 -1 -1</clus>
<clus scale="   48.240">  1  5  2 -1</clus>
</clustering>
</event>
<event>
 9    1  0.6270443E-005  0.3264659E+03  0.7546771E-02  0.1095576E+00
         21   -1    0    0  501  502  0.00000000000E+00  0.00000000000E+00  0.12346107452E+03  0.12346107452E+03  0.00000000000E+00 0. -1.
          1   -1    0    0  502    0 -0.00000000000E+00 -0.00000000000E+00 -0.16977499494E+04  0.16977499494E+04  0.00000000000E+00 0. -1.
         23    2    1    2    0    0 -0.14130166044E+03  0.57057612309E+02 -0.20007940319E+03  0.26725105865E+03  0.90386007790E+02 0.  0.
        -24    2    1    2    0    0  0.19071336321E+03  0.26108538399E+03 -0.36602955495E+03  0.49562012051E+03  0.84406777665E+02 0.  0.
         13    1    4    4    0    0  0.18864408156E+03  0.23548123901E+03 -0.35906522924E+03  0.46900516232E+03  0.00000000000E+00 0. -1.
        -14    1    4    4    0    0  0.20692816531E+01  0.25604144986E+02 -0.69643257101E+01  0.26614958193E+02  0.00000000000E+00 0.  1.
        -13    1    3    3    0    0 -0.83982696436E+01  0.27036254652E+02 -0.82697436567E+02  0.87409130034E+02  0.00000000000E+00 0.  1.
         13    1    3    3    0    0 -0.13290339080E+03  0.30021357657E+02 -0.11738196662E+03  0.17984192862E+03  0.00000000000E+00 0. -1.
          2    1    1    2  501    0 -0.49411702775E+02 -0.31814299630E+03 -0.10081799167E+04  0.10583398447E+04  0.00000000000E+00 0. -1.
<scales pt_clust_5="13000.00000" pt_clust_6="13000.00000" pt_clust_7="13000.00000" pt_clust_8="13000.00000" pt_clust_9="315.36584"></scales>
<clustering>
<clus scale="   84.407">  5  6 -1 -1</clus>
<clus scale="   90.386">  7  8 -1 -1</clus>
<clus scale="  177.176">  2  7  1 -1</clus>
<clus scale="  315.366">  1  9  2 -1</clus>
<clus scale="  315.366">  1  5  2 -1</clus>
</clustering>
</event>
<event>
 9    1  0.6270443E-005  0.1157569E+03  0.7546771E-02  0.1256235E+00
         21   -1    0    0  501  502  0.00000000000E+00  0.00000000000E+00  0.11915450179E+03  0.11915450179E+03  0.00000000000E+00 0.  1.
          1   -1    0    0  502    0 -0.00000000000E+00 -0.00000000000E+00 -0.27303464590E+03  0.27303464590E+03  0.00000000000E+00 0. -1.
         23    2    1    2    0    0 -0.27020227609E+02 -0.60045280257E+02 -0.19661387894E+03  0.22687547853E+03  0.92086573305E+02 0.  0.
        -24    2    1    2    0    0  0.17860121784E+02  0.86779414605E+02  0.25847270980E+01  0.11621617125E+03  0.75165596499E+02 0.  0.
         11    1    4    4    0    0 -0.26982476361E+02  0.14850907546E+02 -0.46401349859E+01  0.31146979600E+02  0.00000000000E+00 0. -1.
        -12    1    4    4    0    0  0.44842598145E+02  0.71928507059E+02  0.72248620839E+01  0.85069191651E+02  0.00000000000E+00 0.  1.
        -11    1    3    3    0    0 -0.40986107816E+02 -0.23336157201E+02 -0.30465330087E+02  0.56147783609E+02  0.00000000000E+00 0.  1.
         11    1    3    3    0    0  0.13965880207E+02 -0.36709123056E+02 -0.16614854886E+03  0.17072769492E+03  0.00000000000E+00 0. -1.
          2    1    1    2  501    0  0.91601058258E+01 -0.26734134347E+02  0.40149007745E+02  0.49097497909E+02  0.00000000000E+00 0. -1.
<scales pt_clust_5="13000.00000" pt_clust_6="13000.00000" pt_clust_7="13000.00000" pt_clust_8="13000.00000" pt_clust_9="28.25989"></scales>
<clustering>
<clus scale="   28.260">  1  9  2 -1</clus>
<clus scale="   75.166">  5  6 -1 -1</clus>
<clus scale="   92.087">  7  8 -1 -1</clus>
<clus scale="  102.809">  1  5  2 -1</clus>
<clus scale="   28.260">  1  5  2 -1</clus>
</clustering>
</event>
<event>
 9    1  0.6270443E-005  0.2144675E+03  0.7546771E-02  0.1138391E+00
         -2   -1    0    0    0  501 -0.00000000000E+00  0.00000000000E+00  0.79371902894E+03  0.79371902894E+03  0.00000000000E+00 0.  1.
         21   -1    0    0  501  502  0.00000000000E+00 -0.00000000000E+00 -0.11953216372E+03  0.11953216372E+03  0.00000000000E+00 0.  1.
         23    2    1    2    0    0  0.14042105714E+03 -0.16645395591E+03  0.47269099264E+03  0.52721898345E+03  0.84250158831E+02 0.  0.
        -24    2    1    2    0    0 -0.93513691362E+02  0.14645780120E+03  0.25057707721E+03  0.31525713016E+03  0.80021800109E+02 0.  0.
         13    1    4    4    0    0 -0.80164400769E+01  0.57766787378E+02  0.38136499715E+02  0.69682549078E+02  0.00000000000E+00 0. -1.
        -14    1    4    4    0    0 -0.85497251285E+02  0.88691013820E+02  0.21244057749E+03  0.24557458108E+03  0.00000000000E+00 0.  1.
        -13    1    3    3    0    0  0.90484974239E+01 -0.59395526235E+02  0.84838382673E+02  0.10395794831E+03  0.00000000000E+00 0. -1.
         13    1    3    3    0    0  0.13137255972E+03 -0.10705842967E+03  0.38785260997E+03  0.42326103514E+03  0.00000000000E+00 0.  1.
         -1    1    1    2    0  502 -0.46907365778E+02  0.19996154708E+02 -0.49081204620E+02  0.70775079048E+02  0.00000000000E+00 0.  1.
<scales pt_clust_5="13000.00000" pt_clust_6="13000.00000" pt_clust_7="13000.00000" pt_clust_8="13000.00000" pt_clust_9="50.99164"></scales>
<clustering>
<clus scale="   50.992">  2  9  1 -1</clus>
<clus scale="   80.022">  5  6 -1 -1</clus>
<clus scale="   84.250">  7  8 -1 -1</clus>
<clus scale="  212.842">  2  5  1 -1</clus>
<clus scale="   50.992">  2  5  1 -1</clus>
</clustering>
</event>
<event>
 9    1  0.6270443E-005  0.1458406E+03  0.7546771E-02  0.1208011E+00
         -2   -1    0    0    0  501 -0.00000000000E+00  0.00000000000E+00  0.99561216958E+03  0.99561216958E+03  0.00000000000E+00 0.  1.
         21   -1    0    0  501  502  0.00000000000E+00 -0.00000000000E+00 -0.53335140968E+02  0.53335140968E+02  0.00000000000E+00 0. -1.
         23    2    1    2    0    0 -0.71899305759E+02  0.14064762056E+03  0.62020676413E+03  0.64652305878E+03  0.91566216039E+02 0.  0.
        -24    2    1    2    0    0  0.77992888777E+02 -0.27872192668E+02  0.22836209617E+03  0.25567054757E+03  0.79739777421E+02 0.  0.
         11    1    4    4    0    0  0.41537331248E+02 -0.18764426053E+02  0.31865850047E+02  0.55613721073E+02  0.00000000000E+00 0. -1.
        -12    1    4    4    0    0  0.36455557528E+02 -0.91077666150E+01  0.19649624612E+03  0.20005682650E+03  0.00000000000E+00 0.  1.
        -11    1    3    3    0    0 -0.29830834364E+02  0.48950756110E+02  0.89299785984E+02  0.10611553599E+03  0.00000000000E+00 0.  1.
         11    1    3    3    0    0 -0.42068471395E+02  0.91696864446E+02  0.53090697815E+03  0.54040752278E+03  0.00000000000E+00 0. -1.
         -1    1    1    2    0  502 -0.60935830176E+01 -0.11277542789E+03  0.93708168314E+02  0.14675370421E+03  0.00000000000E+00 0.  1.
<scales pt_clust_5="13000.00000" pt_clust_6="13000.00000" pt_clust_7="13000.00000" pt_clust_8="13000.00000" pt_clust_9="112.93993"></scales>
<clustering>
<clus scale="   79.740">  5  6 -1 -1</clus>
<clus scale="   91.566">  7  8 -1 -1</clus>
<clus scale="  112.940">  2  9  1 -1</clus>
<clus scale="  138.721">  2  5  1 -1</clus>
<clus scale="  112.940">  2  5  1 -1</clus>
</clustering>
</event>
<event>
 9    1  0.6270443E-005  0.1574451E+03  0.7546771E-02  0.1193366E+00
         21   -1    0    0  501  502  0.00000000000E+00  0.00000000000E+00  0.17551258194E+03  0.17551258194E+03  0.00000000000E+00 0. -1.
          1   -1    0    0  502    0 -0.00000000000E+00 -0.00000000000E+00 -0.43928449247E+03  0.43928449247E+03  0.00000000000E+00 0. -1.
         23    2    1    2    0    0  0.85592397517E+02 -0.11286365803E+03 -0.35906039609E+03  0.39646673076E+03  0.90538592576E+02 0.  0.
        -24    2    1    2    0    0 -0.85658838737E+01  0.71212928229E+02  0.66357829097E+02  0.12610860012E+03  0.79720524510E+02 0.  0.
         13    1    4    4    0    0  0.17296634655E+02  0.25130856486E+02  0.66610542180E+02  0.73264574302E+02  0.00000000000E+00 0. -1.
        -14    1    4    4    0    0 -0.25862518528E+02  0.46082071743E+02 -0.25271308297E+00  0.52844025818E+02  0.00000000000E+00 0.  1.
        -11    1    3    3    0    0  0.37561387663E+02  0.76335932967E+01 -0.77342904898E+02  0.86319491008E+02  0.00000000000E+00 0.  1.
         11    1    3    3    0    0  0.48031009855E+02 -0.12049725133E+03 -0.28171749119E+03  0.31014723975E+03  0.00000000000E+00 0. -1.
          2    1    1    2  501    0 -0.77026513644E+02  0.41650729800E+02  0.28930656465E+02  0.92221743534E+02  0.00000000000E+00 0. -1.
<scales pt_clust_5="13000.00000" pt_clust_6="13000.00000" pt_clust_7="13000.00000" pt_clust_8="13000.00000" pt_clust_9="87.56636"></scales>
<clustering>
<clus scale="   79.721">  5  6 -1 -1</clus>
<clus scale="   87.566">  1  9  2 -1</clus>
<clus scale="   90.539">  7  8 -1 -1</clus>
<clus scale="  151.483">  1  5  2 -1</clus>
<clus scale="   87.566">  1  5  2 -1</clus>
</clustering>
</event>
<event>
 9    1  0.6270443E-005  0.2125543E+03  0.7546771E-02  0.1140360E+00
          1   -1    0    0  502    0 -0.00000000000E+00  0.00000000000E+00  0.10485097596E+04  0.10485097596E+04  0.00000000000E+00 0. -1.
         21   -1    0    0  501  502  0.00000000000E+00 -0.00000000000E+00 -0.80062712697E+02  0.80062712697E+02  0.00000000000E+00 0. -1.
        -24    2    1    2    0    0  0.84528138469E+02  0.19253457053E+03  0.77458036282E+03  0.80654852253E+03  0.79568924103E+02 0.  0.
         23    2    1    2    0    0 -0.50926909746E+02 -0.14620185599E+03  0.19517537381E+03  0.26477470804E+03  0.89686602347E+02 0.  0.
         13    1    3    3    0    0  0.80356621890E+02  0.13796895703E+03  0.45227780137E+03  0.47963301534E+03  0.00000000000E+00 0. -1.
        -14    1    3    3    0    0  0.41715165789E+01  0.54565613502E+02  0.32230256144E+03  0.32691550719E+03  0.00000000000E+00 0.  1.
        -11    1    4    4    0    0 -0.53219624153E+01 -0.91729857517E+02  0.16227734787E+03  0.18648492614E+03  0.00000000000E+00 0.  1.
         11    1    4    4    0    0 -0.45604947331E+02 -0.54471998477E+02  0.32898025942E+02  0.78289781900E+02  0.00000000000E+00 0. -1.
          2    1    1    2  501    0 -0.33601228723E+02 -0.46332714537E+02 -0.13086897485E+01  0.57249241715E+02  0.00000000000E+00 0. -1.
<scales pt_clust_5="13000.00000" pt_clust_6="13000.00000" pt_clust_7="13000.00000" pt_clust_8="13000.00000" pt_clust_9="57.23428"></scales>
<clustering>
<clus scale="   57.234">  2  9  1 -1</clus>
<clus scale="   79.569">  5  6 -1 -1</clus>
<clus scale="   89.687">  7  8 -1 -1</clus>
<clus scale="  208.487">  1  5  2 -1</clus>
<clus scale="   57.234">  2  5  1 -1</clus>
</clustering>
</event>
<event>
 9    1  0.6270443E-005  0.1039503E+03  0.7546771E-02  0.1273989E+00
         -2   -1    0    0    0  501 -0.00000000000E+00  0.00000000000E+00  0.12792382091E+03  0.12792382091E+03  0.00000000000E+00 0.  1.
         21   -1    0    0  501  502  0.00000000000E+00 -0.00000000000E+00 -0.21424395865E+03  0.21424395865E+03  0.00000000000E+00 0.  1.
         23    2    1    2    0    0  0.55127292373E+02 -0.95078387537E+01  0.78388936875E+02  0.13240772682E+03  0.90871135875E+02 0.  0.
        -24    2    1    2    0    0 -0.23820251605E+02 -0.12162289091E+02 -0.12717081238E+03  0.15629187178E+03  0.86829764495E+02 0.  0.
         13    1    4    4    0    0 -0.45213620586E+02  0.40864411532E+01 -0.27529902837E+02  0.53092994246E+02  0.00000000000E+00 0. -1.
        -14    1    4    4    0    0  0.21393368981E+02 -0.16248730244E+02 -0.99640909541E+02  0.10319887754E+03  0.00000000000E+00 0.  1.
        -11    1    3    3    0    0  0.32742854576E+02  0.50767762376E+01 -0.14194554598E+02  0.36046547172E+02  0.00000000000E+00 0. -1.
         11    1    3    3    0    0  0.22384437797E+02 -0.14584614991E+02  0.92583491473E+02  0.96361179649E+02  0.00000000000E+00 0.  1.
         -1    1    1    2    0  502 -0.31307040768E+02  0.21670127845E+02 -0.37538262243E+02  0.53468180955E+02  0.00000000000E+00 0.  1.
<scales pt_clust_5="13000.00000" pt_clust_6="13000.00000" pt_clust_7="13000.00000" pt_clust_8="13000.00000" pt_clust_9="38.07526"></scales>
<clustering>
<clus scale="   38.075">  2  9  1 -1</clus>
<clus scale="   86.830">  5  6 -1 -1</clus>
<clus scale="   90.871">  7  8 -1 -1</clus>
<clus scale="  100.437">  2  5  1 -1</clus>
<clus scale="   38.075">  2  5  1 -1</clus>
</clustering>
</event>
<event>
 9    1  0.6270443E-005  0.1107353E+03  0.7546771E-02  0.1259661E+00
         21   -1    0    0  501  502  0.00000000000E+00  0.00000000000E+00  0.99004636044E+02  0.99004636044E+02  0.00000000000E+00 0.  1.
          1   -1    0    0  502    0 -0.00000000000E+00 -0.00000000000E+00 -0.30568952215E+03  0.30568952215E+03  0.00000000000E+00 0. -1.
         23    2    1    2    0    0 -0.86071625052E+01  0.67098459200E+02 -0.31460418166E+02  0.11381961499E+03  0.85958480516E+02 0.  0.
        -24    2    1    2    0    0  0.36679830749E+02 -0.66288530226E+02 -0.23354908979E+00  0.11364431901E+03  0.84707717915E+02 0.  0.
         11    1    4    4    0    0  0.12592582982E+02 -0.25969644641E+02 -0.41887503279E+02  0.50868050089E+02  0.00000000000E+00 0. -1.
        -12    1    4    4    0    0  0.24087247768E+02 -0.40318885585E+02  0.41653954189E+02  0.62776268919E+02  0.00000000000E+00 0.  1.
        -11    1    3    3    0    0  0.36246905056E+02  0.41862337442E+02 -0.40818249882E+01  0.55524361477E+02  0.00000000000E+00 0. -1.
         11    1    3    3    0    0 -0.44854067561E+02  0.25236121758E+02 -0.27378593178E+02  0.58295253516E+02  0.00000000000E+00 0.  1.
          2    1    1    2  501    0 -0.28072668244E+02 -0.80992897448E+00 -0.17499091885E+03  0.17723022419E+03  0.00000000000E+00 0. -1.
<scales pt_clust_5="13000.00000" pt_clust_6="13000.00000" pt_clust_7="13000.00000" pt_clust_8="13000.00000" pt_clust_9="28.08436"></scales>
<clustering>
<clus scale="   28.084">  1  9  2 -1</clus>
<clus scale="   84.708">  5  6 -1 -1</clus>
<clus scale="   85.958">  7  8 -1 -1</clus>
<clus scale="  109.767">  1  5  2 -1</clus>
<clus scale="   28.084">  1  5  2 -1</clus>
</clustering>
</event>
<event>
 9    1  0.6270443E-005  0.9140080E+02  0.7546771E-02  0.1302166E+00
         -2   -1    0    0    0  501 -0.00000000000E+00  0.00000000000E+00  0.12611620915E+03  0.12611620915E+03  0.00000000000E+00 0.  1.
         21   -1    0    0  501  502  0.00000000000E+00 -0.00000000000E+00 -0.21633422507E+03  0.21633422507E+03  0.00000000000E+00 0. -1.
         23    2    1    2    0    0 -0.26963351111E+01  0.13813168267E+02  0.79689198570E+02  0.12079975368E+03  0.89689120184E+02 0.  0.
        -24    2    1    2    0    0 -0.23197698597E+02 -0.45630749542E+02 -0.13583363648E+03  0.16832274998E+03  0.85214276019E+02 0.  0.
         13    1    4    4    0    0 -0.18231952011E+02  0.10618766649E+02 -0.98251668038E+02  0.10049155463E+03  0.00000000000E+00 0. -1.
        -14    1    4    4    0    0 -0.49657465855E+01 -0.56249516191E+02 -0.37581968442E+02  0.67831195351E+02  0.00000000000E+00 0.  1.
        -11    1    3    3    0    0 -0.32225120709E+00 -0.33275729223E+02  0.67599903863E+01  0.33956964988E+02  0.00000000000E+00 0.  1.
         11    1    3    3    0    0 -0.23740839040E+01  0.47088897491E+02  0.72929208183E+02  0.86842788690E+02  0.00000000000E+00 0. -1.
         -1    1    1    2    0  502  0.25894033708E+02  0.31817581274E+02 -0.34073578011E+02  0.53327930564E+02  0.00000000000E+00 0.  1.
<scales pt_clust_5="13000.00000" pt_clust_6="13000.00000" pt_clust_7="13000.00000" pt_clust_8="13000.00000" pt_clust_9="41.02267"></scales>
<clustering>
<clus scale="   41.023">  2  9  1 -1</clus>
<clus scale="   85.214">  5  6 -1 -1</clus>
<clus scale="   87.014">  2  5  1 -1</clus>
<clus scale="   89.689">  7  8 -1 -1</clus>
<clus scale="   41.023">  2  5  1 -1</clus>
</clustering>
</event>
<event>
 9    1  0.6270443E-005  0.1093865E+03  0.7546771E-02  0.1267203E+00
         21   -1    0    0  501  502  0.00000000000E+00  0.00000000000E+00  0.11623002073E+03  0.11623002073E+03  0.00000000000E+00 0.  1.
          1   -1    0    0  502    0 -0.00000000000E+00 -0.00000000000E+00 -0.19606292471E+03  0.19606292471E+03  0.00000000000E+00 0. -1.
         23    2    1    2    0    0  0.39576571230E+02 -0.32535557763E+02 -0.91113337296E+02  0.13951943371E+03  0.92407600551E+02 0.  0.
        -24    2    1    2    0    0 -0.69676397823E+02  0.47718646249E+02  0.45969482757E+02  0.12440145484E+03  0.78934523548E+02 0.  0.
         13    1    4    4    0    0 -0.27861132724E+02 -0.11403597419E+02 -0.11219433149E+02  0.32127253710E+02  0.00000000000E+00 0. -1.
        -14    1    4    4    0    0 -0.41815265098E+02  0.59122243668E+02  0.57188915906E+02  0.92274201129E+02  0.00000000000E+00 0.  1.
        -13    1    3    3    0    0  0.50567258793E+02  0.17858349850E+02 -0.52891225776E+02  0.75322308019E+02  0.00000000000E+00 0.  1.
         13    1    3    3    0    0 -0.10990687564E+02 -0.50393907612E+02 -0.38222111520E+02  0.64197125688E+02  0.00000000000E+00 0. -1.
          2    1    1    2  501    0  0.30099826593E+02 -0.15183088486E+02 -0.34689049445E+02  0.48372056895E+02  0.00000000000E+00 0. -1.
<scales pt_clust_5="13000.00000" pt_clust_6="13000.00000" pt_clust_7="13000.00000" pt_clust_8="13000.00000" pt_clust_9="33.71241"></scales>
<clustering>
<clus scale="   33.712">  1  9  2 -1</clus>
<clus scale="   78.935">  5  6 -1 -1</clus>
<clus scale="   92.408">  7  8 -1 -1</clus>
<clus scale="   98.270">  1  5  2 -1</clus>
<clus scale="   33.712">  1  5  2 -1</clus>
</clustering>
</event>
<event>
 9    1  0.6270443E-005  0.2120156E+03  0.7546771E-02  0.1159052E+00
         21   -1    0    0  501  502  0.00000000000E+00  0.00000000000E+00  0.44749682785E+03  0.44749682785E+03  0.00000000000E+00 0. -1.
          1   -1    0    0  502    0 -0.00000000000E+00 -0.00000000000E+00 -0.52550258892E+03  0.52550258892E+03  0.00000000000E+00 0. -1.
        -24    2    1    2    0    0  0.10798546872E+03 -0.10387213068E+02 -0.37071374214E+03  0.39448664660E+03  0.80139129503E+02 0.  0.
         23    2    1    2    0    0 -0.18168571448E+03 -0.10522499066E+03  0.35875225503E+03  0.42632947938E+03  0.94718778470E+02 0.  0.
         11    1    3    3    0    0  0.59790224033E+02  0.22067959489E+02 -0.10781513870E+03  0.12524364199E+03  0.00000000000E+00 0. -1.
        -12    1    3    3    0    0  0.48195244688E+02 -0.32455172556E+02 -0.26289860345E+03  0.26924300461E+03  0.00000000000E+00 0.  1.
        -13    1    4    4    0    0 -0.14690779457E+03 -0.36833269914E+02  0.26452986598E+03  0.30481902807E+03  0.00000000000E+00 0. -1.
         13    1    4    4    0    0 -0.34777919910E+02 -0.68391720742E+02  0.94222389045E+02  0.12151045131E+03  0.00000000000E+00 0.  1.
          2    1    1    2  501    0  0.73700245754E+02  0.11561220372E+03 -0.66044273952E+02  0.15218329079E+03  0.00000000000E+00 0. -1.
<scales pt_clust_5="13000.00000" pt_clust_6="13000.00000" pt_clust_7="13000.00000" pt_clust_8="13000.00000" pt_clust_9="189.68133"></scales>
<clustering>
<clus scale="   80.139">  5  6 -1 -1</clus>
<clus scale="   94.719">  7  8 -1 -1</clus>
<clus scale="  134.874">  2  5  1 -1</clus>
<clus scale="  189.681">  1  9  2 -1</clus>
<clus scale="  189.681">  1  5  2 -1</clus>
</clustering>
</event>
<event>
 9    1  0.6270443E-005  0.2042939E+03  0.7546771E-02  0.1147169E+00
          1   -1    0    0  502    0 -0.00000000000E+00  0.00000000000E+00  0.13879454322E+04  0.13879454322E+04  0.00000000000E+00 0. -1.
         21   -1    0    0  501  502  0.00000000000E+00 -0.00000000000E+00 -0.40661965794E+02  0.40661965794E+02  0.00000000000E+00 0. -1.
        -24    2    1    2    0    0  0.16675325451E+02  0.17396864314E+03  0.77711990091E+03  0.80056665374E+03  0.80302374862E+02 0.  0.
         23    2    1    2    0    0  0.15429647023E+02 -0.20060326297E+03  0.46408479137E+03  0.51405461111E+03  0.91639000948E+02 0.  0.
         11    1    3    3    0    0  0.14512348807E+02  0.10028445700E+03  0.60346975919E+03  0.61191774842E+03  0.00000000000E+00 0. -1.
        -12    1    3    3    0    0  0.21629766437E+01  0.73684186138E+02  0.17365014173E+03  0.18864890532E+03  0.00000000000E+00 0.  1.
        -11    1    4    4    0    0  0.39268964525E+02 -0.10971096361E+03  0.17640554427E+03  0.21141774561E+03  0.00000000000E+00 0. -1.
         11    1    4    4    0    0 -0.23839317502E+02 -0.90892299362E+02  0.28767924710E+03  0.30263686549E+03  0.00000000000E+00 0.  1.
          2    1    1    2  501    0 -0.32104972474E+02  0.26634619829E+02  0.10607877412E+03  0.11398613314E+03  0.00000000000E+00 0. -1.
<scales pt_clust_5="13000.00000" pt_clust_6="13000.00000" pt_clust_7="13000.00000" pt_clust_8="13000.00000" pt_clust_9="41.71489"></scales>
<clustering>
<clus scale="   41.715">  2  9  1 -1</clus>
<clus scale="   80.302">  5  6 -1 -1</clus>
<clus scale="   91.639">  7  8 -1 -1</clus>
<clus scale="  199.466">  1  5  2 -1</clus>
<clus scale="   41.715">  2  5  1 -1</clus>
</clustering>
</event>
<event>
 9    1  0.6270443E-005  0.1717408E+03  0.7546771E-02  0.1204006E+00
         21   -1    0    0  501  502  0.00000000000E+00  0.00000000000E+00  0.48914481045E+02  0.48914481045E+02  0.00000000000E+00 0. -1.
          1   -1    0    0  502    0 -0.00000000000E+00 -0.00000000000E+00 -0.10627361427E+04  0.10627361427E+04  0.00000000000E+00 0. -1.
        -24    2    1    2    0    0  0.47589200667E+02 -0.79966945799E+01 -0.99579282088E+02  0.13597101346E+03  0.79015213325E+02 0.  0.
         23    2    1    2    0    0  0.96985298156E+02 -0.85265074099E+02 -0.32566367808E+03  0.36247130061E+03  0.93017910245E+02 0.  0.
         11    1    3    3    0    0  0.41457579412E+02  0.14129728180E+02 -0.11973550905E+02  0.45406453621E+02  0.00000000000E+00 0. -1.
        -12    1    3    3    0    0  0.61316212547E+01 -0.22126422760E+02 -0.87605731183E+02  0.90564559843E+02  0.00000000000E+00 0.  1.
        -13    1    4    4    0    0  0.54253584192E+02 -0.57509723597E+02 -0.28920380323E+03  0.29981604278E+03  0.00000000000E+00 0. -1.
         13    1    4    4    0    0  0.42731713963E+02 -0.27755350502E+02 -0.36459874851E+02  0.62655257831E+02  0.00000000000E+00 0.  1.
          2    1    1    2  501    0 -0.14457449882E+03  0.93261768679E+02 -0.58857870150E+03  0.61320830969E+03  0.00000000000E+00 0. -1.
<scales pt_clust_5="13000.00000" pt_clust_6="13000.00000" pt_clust_7="13000.00000" pt_clust_8="13000.00000" pt_clust_9="144.36964"></scales>
<clustering>
<clus scale="   79.015">  5  6 -1 -1</clus>
<clus scale="   92.586">  2  5  1 -1</clus>
<clus scale="   93.018">  7  8 -1 -1</clus>
<clus scale="  144.370">  1  9  2 -1</clus>
<clus scale="  144.370">  1  5  2 -1</clus>
</clustering>
</event>
<event>
 9    1  0.6270443E-005  0.1449531E+03  0.7546771E-02  0.1226647E+00
          1   -1    0    0  502    0 -0.00000000000E+00  0.00000000000E+00  0.21847884275E+03  0.21847884275E+03  0.00000000000E+00 0. -1.
         21   -1    0    0  501  502  0.00000000000E+00 -0.00000000000E+00 -0.18791764100E+03  0.18791764100E+03  0.00000000000E+00 0.  1.
        -24    2    1    2    0    0  0.10614500140E+02  0.50924830640E+02  0.64765272279E+02  0.11527666241E+03  0.79925980846E+02 0.  0.
         23    2    1    2    0    0  0.97816179639E+02 -0.68403371092E+02 -0.82869534186E+02  0.17099056159E+03  0.90129830143E+02 0.  0.
         13    1    3    3    0    0  0.44130656442E+02  0.35591718530E+02  0.28053910643E+02  0.63255886432E+02  0.00000000000E+00 0. -1.
        -14    1    3    3    0    0 -0.33516156302E+02  0.15333112109E+02  0.36711361635E+02  0.52020775978E+02  0.00000000000E+00 0.  1.
        -13    1    4    4    0    0  0.11945987331E+02 -0.29245601170E+02 -0.68621401719E+02  0.75544083653E+02  0.00000000000E+00 0.  1.
         13    1    4    4    0    0  0.85870192308E+02 -0.39157769922E+02 -0.14248132468E+02  0.95446477940E+02  0.00000000000E+00 0. -1.
          2    1    1    2  501    0 -0.10843067978E+03  0.17478540452E+02  0.48665463657E+02  0.12012925974E+03  0.00000000000E+00 0. -1.
<scales pt_clust_5="13000.00000" pt_clust_6="13000.00000" pt_clust_7="13000.00000" pt_clust_8="13000.00000" pt_clust_9="113.52546"></scales>
<clustering>
<clus scale="   79.926">  5  6 -1 -1</clus>
<clus scale="   90.130">  7  8 -1 -1</clus>
<clus scale="   95.363">  1  5  2 -1</clus>
<clus scale="  113.525">  2  9  1 -1</clus>
<clus scale="  113.525">  2  5  1 -1</clus>
</clustering>
</event>
<event>
 9    1  0.6270443E-005  0.1067003E+03  0.7546771E-02  0.1273233E+00
         -4   -1    0    0    0  501 -0.00000000000E+00  0.00000000000E+00  0.65836411388E+03  0.65836411388E+03  0.00000000000E+00 0.  1.
         21   -1    0    0  501  502  0.00000000000E+00 -0.00000000000E+00 -0.52760467554E+02  0.52760467554E+02  0.00000000000E+00 0.  1.
        -24    2    1    2    0    0  0.23062971355E+02  0.62063764986E+02  0.35016712720E+03  0.36477036042E+03  0.77824079199E+02 0.  0.
         23    2    1    2    0    0 -0.73205998551E+02  0.20335425046E+02  0.20525779816E+03  0.23762587268E+03  0.92534555289E+02 0.  0.
         11    1    3    3    0    0  0.29312037285E+02  0.40068356560E+02  0.83639934599E+02  0.97264111505E+02  0.00000000000E+00 0. -1.
        -12    1    3    3    0    0 -0.62490659303E+01  0.21995408426E+02  0.26652719260E+03  0.26750624892E+03  0.00000000000E+00 0.  1.
        -13    1    4    4    0    0 -0.32383402162E+02  0.54690558297E+02  0.13669362424E+03  0.15074776552E+03  0.00000000000E+00 0.  1.
         13    1    4    4    0    0 -0.40822596389E+02 -0.34355133252E+02  0.68564173927E+02  0.86878107156E+02  0.00000000000E+00 0. -1.
         -3    1    1    2    0  502  0.50143027196E+02 -0.82399190031E+02  0.50178720971E+02  0.10872834834E+03  0.00000000000E+00 0.  1.
<scales pt_clust_5="13000.00000" pt_clust_6="13000.00000" pt_clust_7="13000.00000" pt_clust_8="13000.00000" pt_clust_9="96.45698"></scales>
<clustering>
<clus scale="   77.824">  5  6 -1 -1</clus>
<clus scale="   92.535">  7  8 -1 -1</clus>
<clus scale="   96.457">  2  9  1 -1</clus>
<clus scale="   94.228">  1  5  2 -1</clus>
<clus scale="   96.457">  2  5  1 -1</clus>
</clustering>
</event>
<event>
 9    1  0.6270443E-005  0.1022401E+03  0.7546771E-02  0.1277690E+00
         21   -1    0    0  501  502  0.00000000000E+00  0.00000000000E+00  0.59295337195E+02  0.59295337195E+02  0.00000000000E+00 0.  1.
          1   -1    0    0  502    0 -0.00000000000E+00 -0.00000000000E+00 -0.25906841733E+03  0.25906841733E+03  0.00000000000E+00 0. -1.
         23    2    1    2    0    0  0.90940303453E+01 -0.52106804862E+02 -0.15384454228E+03  0.18358225207E+03  0.85067500165E+02 0.  0.
        -24    2    1    2    0    0 -0.27160705626E+02  0.60869694481E+02 -0.47412142933E+02  0.11464710219E+03  0.80331955694E+02 0.  0.
         13    1    4    4    0    0 -0.19833838779E+02  0.42986736951E+02 -0.70260445927E+02  0.84721726707E+02  0.00000000000E+00 0. -1.
        -14    1    4    4    0    0 -0.73268668475E+01  0.17882957530E+02  0.22848302994E+02  0.29925375478E+02  0.00000000000E+00 0.  1.
        -11    1    3    3    0    0  0.32667155718E+02  0.35418758140E+01 -0.25066821109E+02  0.41328361538E+02  0.00000000000E+00 0. -1.
         11    1    3    3    0    0 -0.23573125372E+02 -0.55648680676E+02 -0.12877772117E+03  0.14225389053E+03  0.00000000000E+00 0.  1.
          2    1    1    2  501    0  0.18066675281E+02 -0.87628896189E+01  0.14836050809E+01  0.20134400269E+02  0.00000000000E+00 0. -1.
<scales pt_clust_5="13000.00000" pt_clust_6="13000.00000" pt_clust_7="13000.00000" pt_clust_8="13000.00000" pt_clust_9="20.07967"></scales>
<clustering>
<clus scale="   20.080">  1  9  2 -1</clus>
<clus scale="   80.332">  5  6 -1 -1</clus>
<clus scale="   85.068">  7  8 -1 -1</clus>
<clus scale="   98.335">  1  5  2 -1</clus>
<clus scale="   20.080">  1  5  2 -1</clus>
</clustering>
</event>
<event>
 9    1  0.6270443E-005  0.9678161E+02  0.7546771E-02  0.1293404E+00
         21   -1    0    0  501  502  0.00000000000E+00  0.00000000000E+00  0.96989613654E+02  0.96989613654E+02  0.00000000000E+00 0.  1.
          1   -1    0    0  502    0 -0.00000000000E+00 -0.00000000000E+00 -0.21904496330E+03  0.21904496330E+03  0.00000000000E+00 0. -1.
        -24    2    1    2    0    0 -0.13103347714E+02  0.25270474965E+02 -0.13730626847E+03  0.16122976896E+03  0.79572183660E+02 0.  0.
         23    2    1    2    0    0 -0.70363423674E+01 -0.63037322251E+02  0.61269490474E+01  0.11104193909E+03  0.90937113550E+02 0.  0.
         13    1    3    3    0    0 -0.19002322974E+02  0.52153515945E+02 -0.76813263584E+02  0.94770010902E+02  0.00000000000E+00 0. -1.
        -14    1    3    3    0    0  0.58989752601E+01 -0.26883040980E+02 -0.60493004882E+02  0.66459758058E+02  0.00000000000E+00 0.  1.
        -13    1    4    4    0    0 -0.19975901193E+02 -0.43918935594E+02 -0.37883731541E+02  0.61344002540E+02  0.00000000000E+00 0. -1.
         13    1    4    4    0    0  0.12939558825E+02 -0.19118386657E+02  0.44010680589E+02  0.49697936545E+02  0.00000000000E+00 0.  1.
          2    1    1    2  501    0  0.20139690081E+02  0.37766847286E+02  0.91239697749E+01  0.43762868907E+02  0.00000000000E+00 0. -1.
<scales pt_clust_5="13000.00000" pt_clust_6="13000.00000" pt_clust_7="13000.00000" pt_clust_8="13000.00000" pt_clust_9="42.80119"></scales>
<clustering>
<clus scale="   42.801">  1  9  2 -1</clus>
<clus scale="   79.572">  5  6 -1 -1</clus>
<clus scale="   86.191">  2  5  1 -1</clus>
<clus scale="   90.937">  7  8 -1 -1</clus>
<clus scale="   42.801">  1  5  2 -1</clus>
</clustering>
</event>
<event>
 9    1  0.6270443E-005  0.1878102E+03  0.7546771E-02  0.1194528E+00
         21   -1    0    0  501  502  0.00000000000E+00  0.00000000000E+00  0.37744228408E+03  0.37744228408E+03  0.00000000000E+00 0. -1.
          1   -1    0    0  502    0 -0.00000000000E+00 -0.00000000000E+00 -0.17533890326E+03  0.17533890326E+03  0.00000000000E+00 0. -1.
        -24    2    1    2    0    0  0.15028127897E+02  0.28772502393E+02  0.15124866051E+03  0.17448626602E+03  0.80719255443E+02 0.  0.
         23    2    1    2    0    0 -0.54206354352E+02 -0.17832827350E+03 -0.19613217267E+02  0.20839026476E+03  0.91118176963E+02 0.  0.
         11    1    3    3    0    0  0.22737447207E+02 -0.21195979737E+02  0.89115132214E+02  0.94380971874E+02  0.00000000000E+00 0. -1.
        -12    1    3    3    0    0 -0.77093193105E+01  0.49968482130E+02  0.62133528300E+02  0.80105294143E+02  0.00000000000E+00 0.  1.
        -13    1    4    4    0    0 -0.54294390331E+02 -0.11762072445E+03  0.26406591428E+02  0.13221128436E+03  0.00000000000E+00 0. -1.
         13    1    4    4    0    0  0.88035978846E-01 -0.60707549046E+02 -0.46019808696E+02  0.76178980394E+02  0.00000000000E+00 0.  1.
          2    1    1    2  501    0  0.39178226456E+02  0.14955577110E+03  0.70467937568E+02  0.16990465657E+03  0.00000000000E+00 0. -1.
<scales pt_clust_5="13000.00000" pt_clust_6="13000.00000" pt_clust_7="13000.00000" pt_clust_8="13000.00000" pt_clust_9="164.22592"></scales>
<clustering>
<clus scale="   80.719">  5  6 -1 -1</clus>
<clus scale="   87.002">  2  5  1 -1</clus>
<clus scale="   91.118">  7  8 -1 -1</clus>
<clus scale="  164.226">  1  9  2 -1</clus>
<clus scale="  164.226">  1  5  2 -1</clus>
</clustering>
</event>
<event>
 9    1  0.6270443E-005  0.9542559E+02  0.7546771E-02  0.1297167E+00
          1   -1    0    0  502    0 -0.00000000000E+00  0.00000000000E+00  0.54407188223E+03  0.54407188223E+03  0.00000000000E+00 0. -1.
         21   -1    0    0  501  502  0.00000000000E+00 -0.00000000000E+00 -0.46203794276E+02  0.46203794276E+02  0.00000000000E+00 0. -1.
         23    2    1    2    0    0  0.27204243427E+02  0.71926459671E+01  0.45696412705E+03  0.46697076675E+03  0.91943888206E+02 0.  0.
        -24    2    1    2    0    0 -0.10945442044E+02  0.16291869739E+02  0.12791284943E+02  0.83227563905E+02  0.79862273333E+02 0.  0.
         11    1    4    4    0    0 -0.41478547855E+02  0.26333395485E+02  0.14816961230E+01  0.49153973118E+02  0.00000000000E+00 0. -1.
        -12    1    4    4    0    0  0.30533105811E+02 -0.10041525746E+02  0.11309588820E+02  0.34073590786E+02  0.00000000000E+00 0.  1.
        -11    1    3    3    0    0  0.12067376127E+02 -0.41819866830E+02  0.17169053859E+03  0.17712188987E+03  0.00000000000E+00 0.  1.
         11    1    3    3    0    0  0.15136867300E+02  0.49012512797E+02  0.28527358845E+03  0.28984887688E+03  0.00000000000E+00 0. -1.
          2    1    1    2  501    0 -0.16258801383E+02 -0.23484515706E+02  0.28112675964E+02  0.40077345848E+02  0.00000000000E+00 0. -1.
<scales pt_clust_5="13000.00000" pt_clust_6="13000.00000" pt_clust_7="13000.00000" pt_clust_8="13000.00000" pt_clust_9="28.56346"></scales>
<clustering>
<clus scale="   28.563">  2  9  1 -1</clus>
<clus scale="   79.862">  5  6 -1 -1</clus>
<clus scale="   83.847">  2  5  1 -1</clus>
<clus scale="   91.944">  7  8 -1 -1</clus>
<clus scale="   28.563">  2  5  1 -1</clus>
</clustering>
</event>
<event>
 9    1  0.6270443E-005  0.9252382E+02  0.7546771E-02  0.1301503E+00
         21   -1    0    0  501  502  0.00000000000E+00  0.00000000000E+00  0.10031588124E+03  0.10031588124E+03  0.00000000000E+00 0.  1.
          1   -1    0    0  502    0 -0.00000000000E+00 -0.00000000000E+00 -0.16667550525E+03  0.16667550525E+03  0.00000000000E+00 0. -1.
         23    2    1    2    0    0  0.15902581314E+02  0.10935437822E+02 -0.10896373908E+03  0.14270998225E+03  0.90114187049E+02 0.  0.
        -24    2    1    2    0    0 -0.73301207985E+01 -0.34218875319E+02  0.43543194465E+02  0.99452239712E+02  0.82280472170E+02 0.  0.
         11    1    4    4    0    0 -0.11960761931E+02  0.26120404763E+02  0.16893250289E+02  0.33327425287E+02  0.00000000000E+00 0. -1.
        -12    1    4    4    0    0  0.46306411326E+01 -0.60339280082E+02  0.26649944176E+02  0.66124814425E+02  0.00000000000E+00 0.  1.
        -11    1    3    3    0    0  0.27617669794E+02  0.46583484165E+02 -0.71409917436E+02  0.89622167961E+02  0.00000000000E+00 0. -1.
         11    1    3    3    0    0 -0.11715088480E+02 -0.35648046343E+02 -0.37553821645E+02  0.53087814292E+02  0.00000000000E+00 0.  1.
          2    1    1    2  501    0 -0.85724605151E+01  0.23283437497E+02 -0.93907939240E+00  0.24829164526E+02  0.00000000000E+00 0. -1.
<scales pt_clust_5="13000.00000" pt_clust_6="13000.00000" pt_clust_7="13000.00000" pt_clust_8="13000.00000" pt_clust_9="24.81140"></scales>
<clustering>
<clus scale="   24.811">  1  9  2 -1</clus>
<clus scale="   82.280">  5  6 -1 -1</clus>
<clus scale="   84.913">  1  5  2 -1</clus>
<clus scale="   90.114">  7  8 -1 -1</clus>
<clus scale="   24.811">  1  5  2 -1</clus>
</clustering>
</event>
<event>
 9    1  0.6270443E-005  0.1054943E+03  0.7546771E-02  0.1269245E+00
          1   -1    0    0  502    0 -0.00000000000E+00  0.00000000000E+00  0.45967178295E+03  0.45967178295E+03  0.00000000000E+00 0. -1.
         21   -1    0    0  501  502  0.00000000000E+00 -0.00000000000E+00 -0.54667240108E+02  0.54667240108E+02  0.00000000000E+00 0.  1.
         23    2    1    2    0    0 -0.58034124419E+02 -0.24550103774E+02  0.32612943750E+03  0.34399158600E+03  0.89437878126E+02 0.  0.
        -24    2    1    2    0    0  0.19653349863E+02  0.39902415322E+02  0.81281847447E+02  0.12894007378E+03  0.89667981986E+02 0.  0.
         11    1    4    4    0    0  0.48524417568E+02  0.25011935396E+02  0.79457699331E+02  0.96404055908E+02  0.00000000000E+00 0. -1.
        -12    1    4    4    0    0 -0.28871067704E+02  0.14890479926E+02  0.18241481155E+01  0.32536017875E+02  0.00000000000E+00 0.  1.
        -11    1    3    3    0    0 -0.49981365072E+02  0.26665813828E+02  0.14803034117E+03  0.15849979303E+03  0.00000000000E+00 0.  1.
         11    1    3    3    0    0 -0.80527593469E+01 -0.51215917602E+02  0.17809909633E+03  0.18549179298E+03  0.00000000000E+00 0. -1.
          2    1    1    2  501    0  0.38380774555E+02 -0.15352311549E+02 -0.24067421085E+01  0.41407363269E+02  0.00000000000E+00 0. -1.
<scales pt_clust_5="13000.00000" pt_clust_6="13000.00000" pt_clust_7="13000.00000" pt_clust_8="13000.00000" pt_clust_9="41.33736"></scales>
<clustering>
<clus scale="   41.337">  2  9  1 -1</clus>
<clus scale="   89.438">  7  8 -1 -1</clus>
<clus scale="   89.668">  5  6 -1 -1</clus>
<clus scale="  105.299">  1  7  2 -1</clus>
<clus scale="   41.337">  2  5  1 -1</clus>
</clustering>
</event>
<event>
 9    1  0.6270443E-005  0.2829190E+03  0.7546771E-02  0.1094963E+00
         21   -1    0    0  501  502  0.00000000000E+00  0.00000000000E+00  0.10377169149E+03  0.10377169149E+03  0.00000000000E+00 0. -1.
          1   -1    0    0  502    0 -0.00000000000E+00 -0.00000000000E+00 -0.20068646027E+04  0.20068646027E+04  0.00000000000E+00 0. -1.
        -24    2    1    2    0    0 -0.15356963855E+03 -0.24616043005E+03 -0.16703230925E+04  0.16969484235E+04  0.74000861813E+02 0.  0.
         23    2    1    2    0    0  0.34467073004E+02  0.17835040527E+03 -0.14115324342E+03  0.24883272987E+03  0.94850635974E+02 0.  0.
         13    1    3    3    0    0 -0.93545716603E+02 -0.12003492639E+03 -0.67982634583E+03  0.69665130814E+03  0.00000000000E+00 0. -1.
        -14    1    3    3    0    0 -0.60023921952E+02 -0.12612550367E+03 -0.99049674668E+03  0.10002971154E+04  0.00000000000E+00 0.  1.
        -13    1    4    4    0    0  0.38599604843E+01  0.47332297377E+02  0.77826168964E+01  0.48122913417E+02  0.00000000000E+00 0. -1.
         13    1    4    4    0    0  0.30607112520E+02  0.13101810789E+03 -0.14893586031E+03  0.20070981645E+03  0.00000000000E+00 0.  1.
          2    1    1    2  501    0  0.11910256555E+03  0.67810024782E+02 -0.91616575313E+02  0.16485514082E+03  0.00000000000E+00 0. -1.
<scales pt_clust_5="13000.00000" pt_clust_6="13000.00000" pt_clust_7="13000.00000" pt_clust_8="13000.00000" pt_clust_9="137.05335"></scales>
<clustering>
<clus scale="   74.001">  5  6 -1 -1</clus>
<clus scale="   94.851">  7  8 -1 -1</clus>
<clus scale="  137.053">  1  9  2 -1</clus>
<clus scale="  276.627">  2  5  1 -1</clus>
<clus scale="  137.053">  1  5  2 -1</clus>
</clustering>
</event>
<event>
 9    1  0.6270443E-005  0.1308161E+03  0.7546771E-02  0.1230470E+00
          1   -1    0    0  502    0 -0.00000000000E+00  0.00000000000E+00  0.34593345742E+03  0.34593345742E+03  0.00000000000E+00 0. -1.
         21   -1    0    0  501  502  0.00000000000E+00 -0.00000000000E+00 -0.63370608543E+02  0.63370608543E+02  0.00000000000E+00 0.  1.
         23    2    1    2    0    0  0.72284368839E+02 -0.65320818489E+02  0.20561485147E+03  0.24712597956E+03  0.96446582749E+02 0.  0.
        -24    2    1    2    0    0 -0.66688861782E+02  0.34180406828E+02  0.52470026022E+02  0.12217551122E+03  0.80981772118E+02 0.  0.
         13    1    4    4    0    0 -0.84997297851E+02  0.32848919584E+02  0.49105262979E+02  0.10351289297E+03  0.00000000000E+00 0. -1.
        -14    1    4    4    0    0  0.18308436069E+02  0.13314872439E+01  0.33647630436E+01  0.18662618249E+02  0.00000000000E+00 0.  1.
        -13    1    3    3    0    0 -0.10897678189E+02 -0.46891949832E+02  0.10341077632E+03  0.11406753705E+03  0.00000000000E+00 0.  1.
         13    1    3    3    0    0  0.83182047027E+02 -0.18428868657E+02  0.10220407515E+03  0.13305844252E+03  0.00000000000E+00 0. -1.
          2    1    1    2  501    0 -0.55955070562E+01  0.31140411661E+02  0.24477971388E+02  0.40002575178E+02  0.00000000000E+00 0. -1.
<scales pt_clust_5="13000.00000" pt_clust_6="13000.00000" pt_clust_7="13000.00000" pt_clust_8="13000.00000" pt_clust_9="31.63914"></scales>
<clustering>
<clus scale="   31.639">  2  9  1 -1</clus>
<clus scale="   80.982">  5  6 -1 -1</clus>
<clus scale="   96.447">  7  8 -1 -1</clus>
<clus scale="  119.871">  2  5  1 -1</clus>
<clus scale="   31.639">  2  5  1 -1</clus>
</clustering>
</event>
<event>
 9    1  0.6270443E-005  0.1021546E+03  0.7546771E-02  0.1282152E+00
         21   -1    0    0  501  502  0.00000000000E+00  0.00000000000E+00  0.21239691933E+03  0.21239691933E+03  0.00000000000E+00 0. -1.
          1   -1    0    0  502    0 -0.00000000000E+00 -0.00000000000E+00 -0.18677099742E+03  0.18677099742E+03  0.00000000000E+00 0. -1.
         23    2    1    2    0    0  0.18312981705E+02 -0.24971464679E+02 -0.12085444289E+03  0.15628408227E+03  0.94127459642E+02 0.  0.
        -24    2    1    2    0    0 -0.22886669797E+02  0.80752323110E+02  0.41769906203E+02  0.12415429759E+03  0.81393041492E+02 0.  0.
         13    1    4    4    0    0 -0.29407513332E+02  0.47393944674E+02 -0.15204410090E+02  0.57811434148E+02  0.00000000000E+00 0. -1.
        -14    1    4    4    0    0  0.65208435349E+01  0.33358378436E+02  0.56974316293E+02  0.66342863439E+02  0.00000000000E+00 0.  1.
        -13    1    3    3    0    0 -0.23564339921E+02 -0.25090655381E+01  0.27525840782E+01  0.23856869973E+02  0.00000000000E+00 0.  1.
         13    1    3    3    0    0  0.41877321626E+02 -0.22462399141E+02 -0.12360702697E+03  0.13242721230E+03  0.00000000000E+00 0. -1.
          2    1    1    2  501    0  0.45736880925E+01 -0.55780858431E+02  0.10471045859E+03  0.11872953688E+03  0.00000000000E+00 0. -1.
<scales pt_clust_5="13000.00000" pt_clust_6="13000.00000" pt_clust_7="13000.00000" pt_clust_8="13000.00000" pt_clust_9="55.96805"></scales>
<clustering>
<clus scale="   55.968">  1  9  2 -1</clus>
<clus scale="   81.393">  5  6 -1 -1</clus>
<clus scale="   90.556">  1  5  2 -1</clus>
<clus scale="   94.127">  7  8 -1 -1</clus>
<clus scale="   55.968">  1  5  2 -1</clus>
</clustering>
</event>
<event>
 9    1  0.6270443E-005  0.1947721E+03  0.7546771E-02  0.1190022E+00
          1   -1    0    0  502    0 -0.00000000000E+00  0.00000000000E+00  0.26637152108E+03  0.26637152108E+03  0.00000000000E+00 0. -1.
         21   -1    0    0  501  502  0.00000000000E+00 -0.00000000000E+00 -0.36683429132E+03  0.36683429132E+03  0.00000000000E+00 0. -1.
        -24    2    1    2    0    0  0.19460029102E+02  0.22075675109E+02  0.57661455430E+02  0.10365232085E+03  0.80950182285E+02 0.  0.
         23    2    1    2    0    0 -0.18893615191E+03 -0.32412522264E+02  0.89025797955E+02  0.22969995932E+03  0.89939076677E+02 0.  0.
         13    1    3    3    0    0 -0.26417192036E+02  0.19037715582E+02  0.45753361145E+02  0.56157570333E+02  0.00000000000E+00 0. -1.
        -14    1    3    3    0    0  0.45877221139E+02  0.30379595265E+01  0.11908094285E+02  0.47494750521E+02  0.00000000000E+00 0.  1.
        -13    1    4    4    0    0 -0.11618960181E+03 -0.52040339833E+02  0.22701736375E+02  0.12931971765E+03  0.00000000000E+00 0. -1.
         13    1    4    4    0    0 -0.72746550102E+02  0.19627817569E+02  0.66324061580E+02  0.10038024167E+03  0.00000000000E+00 0.  1.
          2    1    1    2  501    0  0.16947612281E+03  0.10336847155E+02 -0.24715002362E+03  0.29985353222E+03  0.00000000000E+00 0. -1.
<scales pt_clust_5="13000.00000" pt_clust_6="13000.00000" pt_clust_7="13000.00000" pt_clust_8="13000.00000" pt_clust_9="172.76324"></scales>
<clustering>
<clus scale="   80.950">  5  6 -1 -1</clus>
<clus scale="   86.133">  1  5  2 -1</clus>
<clus scale="   89.939">  7  8 -1 -1</clus>
<clus scale="  172.763">  2  9  1 -1</clus>
<clus scale="  172.763">  2  5  1 -1</clus>
</clustering>
</event>
<event>
 9    1  0.6270443E-005  0.1393723E+03  0.7546771E-02  0.1233399E+00
          1   -1    0    0  502    0 -0.00000000000E+00  0.00000000000E+00  0.65557273344E+03  0.65557273344E+03  0.00000000000E+00 0. -1.
         21   -1    0    0  501  502  0.00000000000E+00 -0.00000000000E+00 -0.20241890669E+03  0.20241890669E+03  0.00000000000E+00 0.  1.
         23    2    1    2    0    0  0.10648858386E+02 -0.17209666574E+02 -0.14854124276E+03  0.17542411733E+03  0.91101862382E+02 0.  0.
        -24    2    1    2    0    0 -0.12044803588E+03 -0.96153765092E+01  0.52824525027E+03  0.54777019990E+03  0.80055996988E+02 0.  0.
         13    1    4    4    0    0 -0.12379741855E+03  0.41693484343E+01  0.39992868167E+03  0.41867187000E+03  0.00000000000E+00 0. -1.
        -14    1    4    4    0    0  0.33493826708E+01 -0.13784724944E+02  0.12831656860E+03  0.12909832990E+03  0.00000000000E+00 0.  1.
        -11    1    3    3    0    0 -0.33951308024E+02  0.82482374124E+01 -0.29314505375E+02  0.45607729195E+02  0.00000000000E+00 0. -1.
         11    1    3    3    0    0  0.44600166410E+02 -0.25457903986E+02 -0.11922673739E+03  0.12981638813E+03  0.00000000000E+00 0.  1.
          2    1    1    2  501    0  0.10979917750E+03  0.26825043083E+02  0.73449819240E+02  0.13479732290E+03  0.00000000000E+00 0. -1.
<scales pt_clust_5="13000.00000" pt_clust_6="13000.00000" pt_clust_7="13000.00000" pt_clust_8="13000.00000" pt_clust_9="114.08631"></scales>
<clustering>
<clus scale="   80.056">  5  6 -1 -1</clus>
<clus scale="   91.102">  7  8 -1 -1</clus>
<clus scale="   93.323">  1  7  2 -1</clus>
<clus scale="  114.086">  2  9  1 -1</clus>
<clus scale="  114.086">  2  5  1 -1</clus>
</clustering>
</event>
<event>
 9    1  0.6270443E-005  0.1276910E+03  0.7546771E-02  0.1240765E+00
         21   -1    0    0  501  502  0.00000000000E+00  0.00000000000E+00  0.33960542252E+02  0.33960542252E+02  0.00000000000E+00 0.  1.
          1   -1    0    0  502    0 -0.00000000000E+00 -0.00000000000E+00 -0.12092770387E+04  0.12092770387E+04  0.00000000000E+00 0. -1.
         23    2    1    2    0    0  0.41078004982E+02  0.11316882873E+01 -0.31163412973E+03  0.32866034065E+03  0.95984923257E+02 0.  0.
        -24    2    1    2    0    0  0.23376607340E+02  0.97534094010E+02 -0.17210987620E+03  0.21303476597E+03  0.75515804711E+02 0.  0.
         11    1    4    4    0    0 -0.10624865368E+02  0.26047395068E+02 -0.10670115059E+03  0.11034713450E+03  0.00000000000E+00 0. -1.
        -12    1    4    4    0    0  0.34001472708E+02  0.71486698941E+02 -0.65408725605E+02  0.10268763147E+03  0.00000000000E+00 0.  1.
        -11    1    3    3    0    0  0.72105207686E+02 -0.56818416386E+01 -0.22794521169E+03  0.23914527767E+03  0.00000000000E+00 0.  1.
         11    1    3    3    0    0 -0.31027202704E+02  0.68135299259E+01 -0.83688918045E+02  0.89515062985E+02  0.00000000000E+00 0. -1.
          2    1    1    2  501    0 -0.64454612322E+02 -0.98665782297E+02 -0.69157249049E+03  0.70154247430E+03  0.00000000000E+00 0. -1.
<scales pt_clust_5="13000.00000" pt_clust_6="13000.00000" pt_clust_7="13000.00000" pt_clust_8="13000.00000" pt_clust_9="102.96777"></scales>
<clustering>
<clus scale="   75.516">  5  6 -1 -1</clus>
<clus scale="   95.985">  7  8 -1 -1</clus>
<clus scale="  104.412">  2  7  1 -1</clus>
<clus scale="  102.968">  1  9  2 -1</clus>
<clus scale="  102.968">  1  5  2 -1</clus>
</clustering>
</event>
<event>
 9    1  0.6270443E-005  0.1218703E+03  0.7546771E-02  0.1243420E+00
         21   -1    0    0  501  502  0.00000000000E+00  0.00000000000E+00  0.30199513915E+03  0.30199513915E+03  0.00000000000E+00 0. -1.
          1   -1    0    0  502    0 -0.00000000000E+00 -0.00000000000E+00 -0.21889227481E+03  0.21889227481E+03  0.00000000000E+00 0. -1.
        -24    2    1    2    0    0  0.86390529834E+02 -0.17475783121E+02 -0.10492631937E+03  0.15856811192E+03  0.79784628717E+02 0.  0.
         23    2    1    2    0    0 -0.10774354060E+02  0.18417525368E+02  0.24851771185E+03  0.26548152556E+03  0.90907069916E+02 0.  0.
         13    1    3    3    0    0  0.66184198883E+02 -0.25803923926E+02 -0.11446967070E+03  0.13472006599E+03  0.00000000000E+00 0. -1.
        -14    1    3    3    0    0  0.20206330951E+02  0.83281408053E+01  0.95433513277E+01  0.23848045923E+02  0.00000000000E+00 0.  1.
        -13    1    4    4    0    0  0.15652473466E+01  0.54822942376E+02  0.14025149528E+03  0.15059378120E+03  0.00000000000E+00 0.  1.
         13    1    4    4    0    0 -0.12339601407E+02 -0.36405417008E+02  0.10826621658E+03  0.11488774435E+03  0.00000000000E+00 0. -1.
          2    1    1    2  501    0 -0.75616175774E+02 -0.94174224665E+00 -0.60488528152E+02  0.96837776488E+02  0.00000000000E+00 0. -1.
<scales pt_clust_5="13000.00000" pt_clust_6="13000.00000" pt_clust_7="13000.00000" pt_clust_8="13000.00000" pt_clust_9="75.62208"></scales>
<clustering>
<clus scale="   75.622">  1  9  2 -1</clus>
<clus scale="   79.785">  5  6 -1 -1</clus>
<clus scale="   90.907">  7  8 -1 -1</clus>
<clus scale="  113.815">  2  5  1 -1</clus>
<clus scale="   75.622">  1  5  2 -1</clus>
</clustering>
</event>
<event>
 9    1  0.6270443E-005  0.1013438E+03  0.7546771E-02  0.1283612E+00
         21   -1    0    0  501  502  0.00000000000E+00  0.00000000000E+00  0.13642836074E+03  0.13642836074E+03  0.00000000000E+00 0.  1.
         -4   -1    0    0    0  501 -0.00000000000E+00 -0.00000000000E+00 -0.17488195346E+03  0.17488195346E+03  0.00000000000E+00 0.  1.
        -24    2    1    2    0    0 -0.14916588343E+02  0.50155959429E+02 -0.10759904303E+03  0.14430157774E+03  0.80667629212E+02 0.  0.
         23    2    1    2    0    0  0.26357405967E+01  0.72844180000E+01  0.41250765333E+02  0.10198312896E+03  0.92945807207E+02 0.  0.
         11    1    3    3    0    0  0.30639496473E+02  0.32108150074E+02 -0.34113584407E+02  0.55977215780E+02  0.00000000000E+00 0. -1.
        -12    1    3    3    0    0 -0.45556084817E+02  0.18047809355E+02 -0.73485458625E+02  0.88324361960E+02  0.00000000000E+00 0.  1.
        -11    1    4    4    0    0  0.54964428173E+01 -0.29968734097E+02  0.54418765289E+02  0.62367763489E+02  0.00000000000E+00 0.  1.
         11    1    4    4    0    0 -0.28607022206E+01  0.37253152097E+02 -0.13167999957E+02  0.39615365468E+02  0.00000000000E+00 0. -1.
         -3    1    1    2    0  502  0.12280847747E+02 -0.57440377429E+02  0.27894684988E+02  0.65025607503E+02  0.00000000000E+00 0.  1.
<scales pt_clust_5="13000.00000" pt_clust_6="13000.00000" pt_clust_7="13000.00000" pt_clust_8="13000.00000" pt_clust_9="58.73854"></scales>
<clustering>
<clus scale="   58.739">  1  9  2 -1</clus>
<clus scale="   80.668">  5  6 -1 -1</clus>
<clus scale="   90.216">  2  5  1 -1</clus>
<clus scale="   92.946">  7  8 -1 -1</clus>
<clus scale="   58.739">  1  5  2 -1</clus>
</clustering>
</event>
<event>
 9    1  0.6270443E-005  0.1073211E+03  0.7546771E-02  0.1271384E+00
         21   -1    0    0  501  502  0.00000000000E+00  0.00000000000E+00  0.60711829430E+02  0.60711829430E+02  0.00000000000E+00 0.  1.
          3   -1    0    0  502    0 -0.00000000000E+00 -0.00000000000E+00 -0.34573914000E+03  0.34573914000E+03  0.00000000000E+00 0. -1.
        -24    2    1    2    0    0 -0.65312922031E+01 -0.50030318067E+02 -0.23828112721E+03  0.25699887689E+03  0.82005101268E+02 0.  0.
         23    2    1    2    0    0  0.33014050448E+02  0.41634358978E+02 -0.19660713903E+02  0.11065194732E+03  0.95047158825E+02 0.  0.
         11    1    3    3    0    0 -0.16516279811E+02 -0.36756401788E+02 -0.23693166639E+03  0.24033400739E+03  0.00000000000E+00 0. -1.
        -12    1    3    3    0    0  0.99849876077E+01 -0.13273916280E+02 -0.13494608236E+01  0.16664869500E+02  0.00000000000E+00 0.  1.
        -11    1    4    4    0    0  0.20383963776E+02  0.91128574442E+01 -0.55993346159E+02  0.60281049793E+02  0.00000000000E+00 0. -1.
         11    1    4    4    0    0  0.12630086671E+02  0.32521501534E+02  0.36332632256E+02  0.50370897530E+02  0.00000000000E+00 0.  1.
          4    1    1    2  501    0 -0.26482758245E+02  0.83959590891E+01 -0.27085469457E+02  0.38800145218E+02  0.00000000000E+00 0. -1.
<scales pt_clust_5="13000.00000" pt_clust_6="13000.00000" pt_clust_7="13000.00000" pt_clust_8="13000.00000" pt_clust_9="27.78180"></scales>
<clustering>
<clus scale="   27.782">  1  9  2 -1</clus>
<clus scale="   82.005">  5  6 -1 -1</clus>
<clus scale="   95.047">  7  8 -1 -1</clus>
<clus scale="   95.962">  2  5  1 -1</clus>
<clus scale="   27.782">  1  5  2 -1</clus>
</clustering>
</event>
<event>
 9    1  0.6270443E-005  0.1194059E+03  0.7546771E-02  0.1246671E+00
          1   -1    0    0  502    0 -0.00000000000E+00  0.00000000000E+00  0.36756226331E+03  0.36756226331E+03  0.00000000000E+00 0. -1.
         21   -1    0    0  501  502  0.00000000000E+00 -0.00000000000E+00 -0.18430378705E+03  0.18430378705E+03  0.00000000000E+00 0. -1.
        -24    2    1    2    0    0  0.32729042985E+02  0.65960156195E+02  0.14348717537E+03  0.17970486157E+03  0.79267492178E+02 0.  0.
         23    2    1    2    0    0 -0.11530589291E+03 -0.20847880205E+02  0.16172273668E+03  0.21812805509E+03  0.87724123315E+02 0.  0.
         13    1    3    3    0    0  0.47381333921E+02  0.75352198778E+02  0.10629410540E+03  0.13864119701E+03  0.00000000000E+00 0. -1.
        -14    1    3    3    0    0 -0.14652290936E+02 -0.93920425833E+01  0.37193069963E+02  0.41063664557E+02  0.00000000000E+00 0.  1.
        -11    1    4    4    0    0 -0.79041868053E+02 -0.34396014342E+02  0.15702752491E+03  0.17913220338E+03  0.00000000000E+00 0. -1.
         11    1    4    4    0    0 -0.36264024860E+02  0.13548134136E+02  0.46952117697E+01  0.38995851718E+02  0.00000000000E+00 0.  1.
          2    1    1    2  501    0  0.82576849929E+02 -0.45112275989E+02 -0.12195143578E+03  0.15403313370E+03  0.00000000000E+00 0. -1.
<scales pt_clust_5="13000.00000" pt_clust_6="13000.00000" pt_clust_7="13000.00000" pt_clust_8="13000.00000" pt_clust_9="94.09598"></scales>
<clustering>
<clus scale="   79.267">  5  6 -1 -1</clus>
<clus scale="   87.724">  7  8 -1 -1</clus>
<clus scale="   94.096">  2  9  1 -1</clus>
<clus scale="  113.338">  1  5  2 -1</clus>
<clus scale="   94.096">  2  5  1 -1</clus>
</clustering>
</event>
<event>
 9    1  0.6270443E-005  0.9681035E+02  0.7546771E-02  0.1297319E+00
         21   -1    0    0  501  502  0.00000000000E+00  0.00000000000E+00  0.14260255961E+03  0.14260255961E+03  0.00000000000E+00 0. -1.
          3   -1    0    0  502    0 -0.00000000000E+00 -0.00000000000E+00 -0.12218862725E+03  0.12218862725E+03  0.00000000000E+00 0. -1.
        -24    2    1    2    0    0  0.18936544644E+02 -0.43812598828E+02 -0.30736095973E+02  0.85771874144E+02  0.64295958344E+02 0.  0.
         23    2    1    2    0    0 -0.30995141392E+02 -0.39855705500E+02  0.24318231585E+02  0.90330304263E+02  0.70844981685E+02 0.  0.
         11    1    3    3    0    0  0.34138975909E+02 -0.31762815745E+02 -0.42494038662E+02  0.63087950212E+02  0.00000000000E+00 0. -1.
        -12    1    3    3    0    0 -0.15202431264E+02 -0.12049783084E+02  0.11757942689E+02  0.22683923933E+02  0.00000000000E+00 0.  1.
        -11    1    4    4    0    0 -0.63977653523E+01 -0.51972080712E+02 -0.18920751059E+01  0.52398554592E+02  0.00000000000E+00 0.  1.
         11    1    4    4    0    0 -0.24597376040E+02  0.12116375212E+02  0.26210306690E+02  0.37931749672E+02  0.00000000000E+00 0. -1.
          4    1    1    2  501    0  0.12058596748E+02  0.83668304329E+02  0.26831796745E+02  0.88689008458E+02  0.00000000000E+00 0. -1.
<scales pt_clust_5="13000.00000" pt_clust_6="13000.00000" pt_clust_7="13000.00000" pt_clust_8="13000.00000" pt_clust_9="65.97906"></scales>
<clustering>
<clus scale="   64.296">  5  6 -1 -1</clus>
<clus scale="   70.845">  7  8 -1 -1</clus>
<clus scale="   80.076">  2  5  1 -1</clus>
<clus scale="   65.979">  1  9  2 -1</clus>
<clus scale="   65.979">  1  5  2 -1</clus>
</clustering>
</event>
<event>
 9    1  0.6270443E-005  0.1114175E+03  0.7546771E-02  0.1262955E+00
          3   -1    0    0  502    0 -0.00000000000E+00  0.00000000000E+00  0.11210526298E+03  0.11210526298E+03  0.00000000000E+00 0. -1.
         21   -1    0    0  501  502  0.00000000000E+00 -0.00000000000E+00 -0.27132381194E+03  0.27132381194E+03  0.00000000000E+00 0. -1.
         23    2    1    2    0    0  0.71048263002E+02 -0.24825732608E+02 -0.77047900071E+02  0.14278863240E+03  0.93744556979E+02 0.  0.
        -24    2    1    2    0    0 -0.45988377535E+02 -0.36101835515E+02 -0.12649268445E+03  0.16123887292E+03  0.81112893700E+02 0.  0.
         11    1    4    4    0    0 -0.67542852594E+02 -0.37580007960E+02 -0.10794412681E+03  0.13276380700E+03  0.00000000000E+00 0. -1.
        -12    1    4    4    0    0  0.21554475058E+02  0.14781724445E+01 -0.18548557641E+02  0.28475065924E+02  0.00000000000E+00 0.  1.
        -13    1    3    3    0    0  0.36442848857E+02 -0.39438877790E+01 -0.92515357153E+02  0.99512445416E+02  0.00000000000E+00 0.  1.
         13    1    3    3    0    0  0.34605414145E+02 -0.20881844829E+02  0.15467457081E+02  0.43276186987E+02  0.00000000000E+00 0. -1.
          4    1    1    2  501    0 -0.25059885467E+02  0.60927568124E+02  0.44322035569E+02  0.79401569594E+02  0.00000000000E+00 0. -1.
<scales pt_clust_5="13000.00000" pt_clust_6="13000.00000" pt_clust_7="13000.00000" pt_clust_8="13000.00000" pt_clust_9="65.87997"></scales>
<clustering>
<clus scale="   65.880">  2  9  1 -1</clus>
<clus scale="   81.113">  5  6 -1 -1</clus>
<clus scale="   93.745">  7  8 -1 -1</clus>
<clus scale="  101.020">  2  5  1 -1</clus>
<clus scale="   65.880">  2  5  1 -1</clus>
</clustering>
</event>
<event>
 9    1  0.6270443E-005  0.9512044E+02  0.7546771E-02  0.1297194E+00
         -2   -1    0    0    0  501 -0.00000000000E+00  0.00000000000E+00  0.17041345775E+03  0.17041345775E+03  0.00000000000E+00 0.  1.
         21   -1    0    0  501  502  0.00000000000E+00 -0.00000000000E+00 -0.24874007978E+03  0.24874007978E+03  0.00000000000E+00 0.  1.
         23    2    1    2    0    0  0.26749666117E+02  0.12656661923E+02  0.12309390159E+03  0.15593168316E+03  0.91032112339E+02 0.  0.
        -24    2    1    2    0    0  0.16009298482E+02 -0.35118311841E+02 -0.19528615262E+03  0.21453422474E+03  0.79991616537E+02 0.  0.
         13    1    4    4    0    0 -0.17596610647E+02  0.10838865871E+02 -0.15177671909E+02  0.25641439979E+02  0.00000000000E+00 0. -1.
        -14    1    4    4    0    0  0.33605909129E+02 -0.45957177711E+02 -0.18010848071E+03  0.18889278477E+03  0.00000000000E+00 0.  1.
        -13    1    3    3    0    0 -0.28245978189E+02 -0.15762816234E+02  0.29886941162E+02  0.44040105716E+02  0.00000000000E+00 0. -1.
         13    1    3    3    0    0  0.54995644306E+02  0.28419478157E+02  0.93206960428E+02  0.11189157745E+03  0.00000000000E+00 0.  1.
         -1    1    1    2    0  502 -0.42758964599E+02  0.22461649918E+02 -0.61343710069E+01  0.48687629623E+02  0.00000000000E+00 0.  1.
<scales pt_clust_5="13000.00000" pt_clust_6="13000.00000" pt_clust_7="13000.00000" pt_clust_8="13000.00000" pt_clust_9="48.29966"></scales>
<clustering>
<clus scale="   48.300">  2  9  1 -1</clus>
<clus scale="   79.992">  5  6 -1 -1</clus>
<clus scale="   84.615">  2  5  1 -1</clus>
<clus scale="   91.032">  7  8 -1 -1</clus>
<clus scale="   48.300">  2  5  1 -1</clus>
</clustering>
</event>
<event>
 9    1  0.6270443E-005  0.3026544E+03  0.7546771E-02  0.1084199E+00
         21   -1    0    0  501  502  0.00000000000E+00  0.00000000000E+00  0.66386456502E+03  0.66386456502E+03  0.00000000000E+00 0. -1.
         -2   -1    0    0    0  501 -0.00000000000E+00 -0.00000000000E+00 -0.21259484698E+03  0.21259484698E+03  0.00000000000E+00 0.  1.
         23    2    1    2    0    0  0.20586213265E+03 -0.16713751903E+03  0.10082878503E+03  0.29726645595E+03  0.88807285832E+02 0.  0.
        -24    2    1    2    0    0 -0.23794098286E+03  0.24560291542E+03  0.34776660593E+03  0.49438126413E+03  0.80836370120E+02 0.  0.
         13    1    4    4    0    0 -0.22949307824E+03  0.19846579893E+03  0.30412815630E+03  0.42959246008E+03  0.00000000000E+00 0. -1.
        -14    1    4    4    0    0 -0.84479046157E+01  0.47137116491E+02  0.43638449635E+02  0.64788804048E+02  0.00000000000E+00 0.  1.
        -13    1    3    3    0    0  0.12663692809E+02 -0.53013370083E+02  0.28518877509E+02  0.61515143644E+02  0.00000000000E+00 0. -1.
         13    1    3    3    0    0  0.19319843984E+03 -0.11412414895E+03  0.72309907517E+02  0.23575131231E+03  0.00000000000E+00 0.  1.
         -1    1    1    2    0  502  0.32078850210E+02 -0.78465396388E+02  0.26743270751E+01  0.84811691920E+02  0.00000000000E+00 0.  1.
<scales pt_clust_5="13000.00000" pt_clust_6="13000.00000" pt_clust_7="13000.00000" pt_clust_8="13000.00000" pt_clust_9="84.76956"></scales>
<clustering>
<clus scale="   80.836">  5  6 -1 -1</clus>
<clus scale="   84.770">  1  9  2 -1</clus>
<clus scale="   88.807">  7  8 -1 -1</clus>
<clus scale="  300.412">  1  5  2 -1</clus>
<clus scale="   84.770">  1  5  2 -1</clus>
</clustering>
</event>
<event>
 9    1  0.6270443E-005  0.1168701E+03  0.7546771E-02  0.1252542E+00
         21   -1    0    0  501  502  0.00000000000E+00  0.00000000000E+00  0.79230636986E+02  0.79230636986E+02  0.00000000000E+00 0. -1.
          1   -1    0    0  502    0 -0.00000000000E+00 -0.00000000000E+00 -0.38762275678E+03  0.38762275678E+03  0.00000000000E+00 0. -1.
        -24    2    1    2    0    0  0.32791630638E+02 -0.15221073740E+02 -0.96431464437E+02  0.13144644692E+03  0.81683345607E+02 0.  0.
         23    2    1    2    0    0 -0.11283017256E+03  0.37046894366E+02 -0.20125111567E+03  0.25175750644E+03  0.93684098279E+02 0.  0.
         11    1    3    3    0    0  0.30681524637E+02 -0.18718286305E+02 -0.11081322435E+03  0.11649592649E+03  0.00000000000E+00 0. -1.
        -12    1    3    3    0    0  0.21101060006E+01  0.34972125655E+01  0.14381759916E+02  0.14950520437E+02  0.00000000000E+00 0.  1.
        -13    1    4    4    0    0 -0.45270850717E+02 -0.61031291906E+01 -0.14954224595E+03  0.15636361928E+03  0.00000000000E+00 0.  1.
         13    1    4    4    0    0 -0.67559321843E+02  0.43150023557E+02 -0.51708869724E+02  0.95393887168E+02  0.00000000000E+00 0. -1.
          2    1    1    2  501    0  0.80038541923E+02 -0.21825820627E+02 -0.10709539691E+02  0.83649440402E+02  0.00000000000E+00 0. -1.
<scales pt_clust_5="13000.00000" pt_clust_6="13000.00000" pt_clust_7="13000.00000" pt_clust_8="13000.00000" pt_clust_9="82.96104"></scales>
<clustering>
<clus scale="   81.683">  5  6 -1 -1</clus>
<clus scale="   82.961">  1  9  2 -1</clus>
<clus scale="   93.684">  7  8 -1 -1</clus>
<clus scale="  107.490">  2  5  1 -1</clus>
<clus scale="   82.961">  1  5  2 -1</clus>
</clustering>
</event>
<event>
 9    1  0.6270443E-005  0.9550048E+02  0.7546771E-02  0.1296029E+00
         -2   -1    0    0    0  501 -0.00000000000E+00  0.00000000000E+00  0.59590331214E+02  0.59590331214E+02  0.00000000000E+00 0.  1.
         21   -1    0    0  501  502  0.00000000000E+00 -0.00000000000E+00 -0.31278416904E+03  0.31278416904E+03  0.00000000000E+00 0.  1.
         23    2    1    2    0    0  0.46495784765E+02  0.10936258775E+02 -0.22220839338E+02  0.10467733637E+03  0.90455067806E+02 0.  0.
        -24    2    1    2    0    0  0.15518677079E+01  0.95151455624E+01 -0.11261518127E+03  0.13833175219E+03  0.79753045845E+02 0.  0.
         13    1    4    4    0    0  0.65294116299E+01 -0.33943689914E+02 -0.65367034071E+02  0.73943603134E+02  0.00000000000E+00 0. -1.
        -14    1    4    4    0    0 -0.49775439220E+01  0.43458835476E+02 -0.47248147200E+02  0.64388149051E+02  0.00000000000E+00 0.  1.
        -13    1    3    3    0    0  0.72103747413E+02  0.17203834177E+02 -0.75625102165E+01  0.74512508092E+02  0.00000000000E+00 0.  1.
         13    1    3    3    0    0 -0.25607962648E+02 -0.62675754026E+01 -0.14658329122E+02  0.30164828278E+02  0.00000000000E+00 0. -1.
         -1    1    1    2    0  502 -0.48047652473E+02 -0.20451404337E+02 -0.11835781722E+03  0.12936541170E+03  0.00000000000E+00 0.  1.
<scales pt_clust_5="13000.00000" pt_clust_6="13000.00000" pt_clust_7="13000.00000" pt_clust_8="13000.00000" pt_clust_9="52.21912"></scales>
<clustering>
<clus scale="   52.219">  2  9  1 -1</clus>
<clus scale="   79.753">  5  6 -1 -1</clus>
<clus scale="   85.433">  2  5  1 -1</clus>
<clus scale="   90.455">  7  8 -1 -1</clus>
<clus scale="   52.219">  2  5  1 -1</clus>
</clustering>
</event>
<event>
 9    1  0.6270443E-005  0.9984378E+02  0.7546771E-02  0.1287475E+00
          3   -1    0    0  502    0 -0.00000000000E+00  0.00000000000E+00  0.45860171274E+03  0.45860171274E+03  0.00000000000E+00 0. -1.
         21   -1    0    0  501  502  0.00000000000E+00 -0.00000000000E+00 -0.14235887215E+03  0.14235887215E+03  0.00000000000E+00 0. -1.
        -24    2    1    2    0    0 -0.23956061502E+02  0.23685194566E+02  0.36885935869E+03  0.37891835443E+03  0.79918780659E+02 0.  0.
         23    2    1    2    0    0  0.19252662845E+01 -0.78643196585E+02  0.25019788342E+02  0.12440446113E+03  0.93069979694E+02 0.  0.
         13    1    3    3    0    0 -0.53465640409E+02  0.16326071763E+02  0.25602192860E+03  0.26205408459E+03  0.00000000000E+00 0. -1.
        -14    1    3    3    0    0  0.29509578907E+02  0.73591228028E+01  0.11283743009E+03  0.11686426984E+03  0.00000000000E+00 0.  1.
        -11    1    4    4    0    0  0.29656633787E+02 -0.13188066428E+02 -0.21967273946E+02  0.39191863292E+02  0.00000000000E+00 0.  1.
         11    1    4    4    0    0 -0.27731367502E+02 -0.65455130157E+02  0.46987062288E+02  0.85212597835E+02  0.00000000000E+00 0. -1.
          4    1    1    2  501    0  0.22030795217E+02  0.54958002020E+02 -0.77636306440E+02  0.97637769339E+02  0.00000000000E+00 0. -1.
<scales pt_clust_5="13000.00000" pt_clust_6="13000.00000" pt_clust_7="13000.00000" pt_clust_8="13000.00000" pt_clust_9="59.20927"></scales>
<clustering>
<clus scale="   59.209">  2  9  1 -1</clus>
<clus scale="   79.919">  5  6 -1 -1</clus>
<clus scale="   87.714">  1  5  2 -1</clus>
<clus scale="   93.070">  7  8 -1 -1</clus>
<clus scale="   59.209">  2  5  1 -1</clus>
</clustering>
</event>
<event>
 9    1  0.6270443E-005  0.1667638E+03  0.7546771E-02  0.1182396E+00
          1   -1    0    0  502    0 -0.00000000000E+00  0.00000000000E+00  0.34252007463E+03  0.34252007463E+03  0.00000000000E+00 0. -1.
         21   -1    0    0  501  502  0.00000000000E+00 -0.00000000000E+00 -0.97718637762E+02  0.97718637762E+02  0.00000000000E+00 0. -1.
         23    2    1    2    0    0 -0.11676326535E+03  0.61201940151E+02  0.97160064740E+02  0.18670660795E+03  0.89665721760E+02 0.  0.
        -24    2    1    2    0    0  0.14353169006E+03 -0.47039913906E+02  0.10509847025E+03  0.20131132266E+03  0.81648396389E+02 0.  0.
         13    1    4    4    0    0  0.81214606532E+02 -0.24125066848E+02  0.99752788036E+01  0.85307311245E+02  0.00000000000E+00 0. -1.
        -14    1    4    4    0    0  0.62317083528E+02 -0.22914847058E+02  0.95123191444E+02  0.11600401142E+03  0.00000000000E+00 0.  1.
        -13    1    3    3    0    0 -0.43005887146E+02 -0.35391628062E+01  0.74327007996E+02  0.85944959830E+02  0.00000000000E+00 0.  1.
         13    1    3    3    0    0 -0.73757378208E+02  0.64741102957E+02  0.22833056744E+02  0.10076164812E+03  0.00000000000E+00 0. -1.
          2    1    1    2  501    0 -0.26768424706E+02 -0.14162026245E+02  0.42542901878E+02  0.52220781771E+02  0.00000000000E+00 0. -1.
<scales pt_clust_5="13000.00000" pt_clust_6="13000.00000" pt_clust_7="13000.00000" pt_clust_8="13000.00000" pt_clust_9="30.28386"></scales>
<clustering>
<clus scale="   30.284">  2  9  1 -1</clus>
<clus scale="   81.648">  5  6 -1 -1</clus>
<clus scale="   89.666">  7  8 -1 -1</clus>
<clus scale="  162.594">  2  5  1 -1</clus>
<clus scale="   30.284">  2  5  1 -1</clus>
</clustering>
</event>
<event>
 9    1  0.6270443E-005  0.1699597E+03  0.7546771E-02  0.1179488E+00
         21   -1    0    0  501  502  0.00000000000E+00  0.00000000000E+00  0.28175370246E+03  0.28175370246E+03  0.00000000000E+00 0. -1.
          1   -1    0    0  502    0 -0.00000000000E+00 -0.00000000000E+00 -0.19682243905E+03  0.19682243905E+03  0.00000000000E+00 0. -1.
         23    2    1    2    0    0 -0.12103547341E+03 -0.88362333185E+02 -0.10173736307E+03  0.20308538806E+03  0.91846045354E+02 0.  0.
        -24    2    1    2    0    0  0.70097951566E+02  0.10439692496E+03  0.14061490381E+03  0.20497348864E+03  0.80181912653E+02 0.  0.
         13    1    4    4    0    0  0.87519025603E+02  0.92963654211E+02  0.12697814887E+03  0.18007018392E+03  0.00000000000E+00 0. -1.
        -14    1    4    4    0    0 -0.17421074037E+02  0.11433270750E+02  0.13636754938E+02  0.24903304718E+02  0.00000000000E+00 0.  1.
        -13    1    3    3    0    0 -0.10053722436E+03 -0.10468639937E+03 -0.67774095967E+02  0.16018833847E+03  0.00000000000E+00 0. -1.
         13    1    3    3    0    0 -0.20498249051E+02  0.16324066190E+02 -0.33963267105E+02  0.42897049591E+02  0.00000000000E+00 0.  1.
          2    1    1    2  501    0  0.50937521848E+02 -0.16034591775E+02  0.46053722667E+02  0.70517264814E+02  0.00000000000E+00 0. -1.
<scales pt_clust_5="13000.00000" pt_clust_6="13000.00000" pt_clust_7="13000.00000" pt_clust_8="13000.00000" pt_clust_9="53.40168"></scales>
<clustering>
<clus scale="   53.402">  1  9  2 -1</clus>
<clus scale="   80.182">  5  6 -1 -1</clus>
<clus scale="   91.846">  7  8 -1 -1</clus>
<clus scale="  163.950">  1  5  2 -1</clus>
<clus scale="   53.402">  1  5  2 -1</clus>
</clustering>
</event>
<event>
 9    1  0.6270443E-005  0.1424933E+03  0.7546771E-02  0.1236953E+00
         21   -1    0    0  501  502  0.00000000000E+00  0.00000000000E+00  0.25292703718E+03  0.25292703718E+03  0.00000000000E+00 0.  1.
         -4   -1    0    0    0  501 -0.00000000000E+00 -0.00000000000E+00 -0.25466830688E+03  0.25466830688E+03  0.00000000000E+00 0.  1.
        -24    2    1    2    0    0  0.67501698730E+01 -0.11151745202E+02 -0.17725645649E+03  0.19496794177E+03  0.80141878778E+02 0.  0.
         23    2    1    2    0    0 -0.89804548260E+02 -0.63309035704E+02  0.12862263740E+03  0.19162596077E+03  0.90021303583E+02 0.  0.
         13    1    3    3    0    0 -0.33103918334E+02 -0.71381392735E+01 -0.12268948579E+03  0.12727738355E+03  0.00000000000E+00 0. -1.
        -14    1    3    3    0    0  0.39854088207E+02 -0.40136059282E+01 -0.54566970705E+02  0.67690558214E+02  0.00000000000E+00 0.  1.
        -13    1    4    4    0    0 -0.15841521288E+02 -0.52566121671E+02  0.17339851561E+02  0.57574485638E+02  0.00000000000E+00 0.  1.
         13    1    4    4    0    0 -0.73963026972E+02 -0.10742914032E+02  0.11128278584E+03  0.13405147513E+03  0.00000000000E+00 0. -1.
         -3    1    1    2    0  502  0.83054378387E+02  0.74460780906E+02  0.46892549389E+02  0.12100144152E+03  0.00000000000E+00 0.  1.
<scales pt_clust_5="13000.00000" pt_clust_6="13000.00000" pt_clust_7="13000.00000" pt_clust_8="13000.00000" pt_clust_9="110.45591"></scales>
<clustering>
<clus scale="   80.142">  5  6 -1 -1</clus>
<clus scale="   81.195">  2  5  1 -1</clus>
<clus scale="   90.021">  7  8 -1 -1</clus>
<clus scale="  110.456">  1  9  2 -1</clus>
<clus scale="  110.456">  1  5  2 -1</clus>
</clustering>
</event>
<event>
 9    1  0.6270443E-005  0.9401181E+02  0.7546771E-02  0.1298393E+00
         21   -1    0    0  501  502  0.00000000000E+00  0.00000000000E+00  0.16509980801E+03  0.16509980801E+03  0.00000000000E+00 0.  1.
         -4   -1    0    0    0  501 -0.00000000000E+00 -0.00000000000E+00 -0.10894656135E+03  0.10894656135E+03  0.00000000000E+00 0.  1.
        -24    2    1    2    0    0  0.11128201365E+02 -0.18702324245E+01 -0.20711869990E+02  0.85500813922E+02  0.82183167303E+02 0.  0.
         23    2    1    2    0    0 -0.42703963621E+02 -0.21124241566E+02  0.24039300826E+00  0.10253902737E+03  0.90798305353E+02 0.  0.
         11    1    3    3    0    0 -0.27914060883E+02  0.93881774405E+00  0.15700301182E+02  0.32040218959E+02  0.00000000000E+00 0. -1.
        -12    1    3    3    0    0  0.39042262248E+02 -0.28090501685E+01 -0.36412171173E+02  0.53460594963E+02  0.00000000000E+00 0.  1.
        -13    1    4    4    0    0  0.68954360579E+01 -0.29035277096E+02  0.31490241055E+02  0.43384670520E+02  0.00000000000E+00 0.  1.
         13    1    4    4    0    0 -0.49599399679E+02  0.79110355297E+01 -0.31249848047E+02  0.59154356852E+02  0.00000000000E+00 0. -1.
         -3    1    1    2    0  502  0.31575762256E+02  0.22994473991E+02  0.76624723639E+02  0.86006528060E+02  0.00000000000E+00 0.  1.
<scales pt_clust_5="13000.00000" pt_clust_6="13000.00000" pt_clust_7="13000.00000" pt_clust_8="13000.00000" pt_clust_9="39.06116"></scales>
<clustering>
<clus scale="   39.061">  1  9  2 -1</clus>
<clus scale="   82.183">  5  6 -1 -1</clus>
<clus scale="   85.720">  2  5  1 -1</clus>
<clus scale="   90.798">  7  8 -1 -1</clus>
<clus scale="   39.061">  1  5  2 -1</clus>
</clustering>
</event>
<event>
 9    1  0.6270443E-005  0.1608534E+03  0.7546771E-02  0.1189376E+00
         21   -1    0    0  501  502  0.00000000000E+00  0.00000000000E+00  0.39282356492E+02  0.39282356492E+02  0.00000000000E+00 0. -1.
         -4   -1    0    0    0  501 -0.00000000000E+00 -0.00000000000E+00 -0.10765080862E+04  0.10765080862E+04  0.00000000000E+00 0.  1.
        -24    2    1    2    0    0  0.10165969954E+03 -0.12867771109E+03 -0.56415411004E+03  0.59295844214E+03  0.80232202916E+02 0.  0.
         23    2    1    2    0    0 -0.60604161854E+02  0.65656168166E+02 -0.18176271846E+03  0.22196965999E+03  0.90825366953E+02 0.  0.
         11    1    3    3    0    0  0.75087439642E+02 -0.11615419914E+03 -0.53074820078E+03  0.54847385918E+03  0.00000000000E+00 0. -1.
        -12    1    3    3    0    0  0.26572259900E+02 -0.12523511945E+02 -0.33405909265E+02  0.44484582963E+02  0.00000000000E+00 0.  1.
        -13    1    4    4    0    0 -0.82704106442E+02  0.53322585521E+02 -0.11977168652E+03  0.15501136811E+03  0.00000000000E+00 0.  1.
         13    1    4    4    0    0  0.22099944589E+02  0.12333582645E+02 -0.61991031937E+02  0.66958291886E+02  0.00000000000E+00 0. -1.
         -3    1    1    2    0  502 -0.41055537688E+02  0.63021542922E+02 -0.29130890121E+03  0.30086234056E+03  0.00000000000E+00 0.  1.
<scales pt_clust_5="13000.00000" pt_clust_6="13000.00000" pt_clust_7="13000.00000" pt_clust_8="13000.00000" pt_clust_9="75.21488"></scales>
<clustering>
<clus scale="   75.215">  1  9  2 -1</clus>
<clus scale="   80.232">  5  6 -1 -1</clus>
<clus scale="   90.825">  7  8 -1 -1</clus>
<clus scale="  155.119">  2  5  1 -1</clus>
<clus scale="   75.215">  1  5  2 -1</clus>
</clustering>
</event>
<event>
 9    1  0.6270443E-005  0.1046584E+03  0.7546771E-02  0.1280766E+00
          1   -1    0    0  502    0 -0.00000000000E+00  0.00000000000E+00  0.69743904094E+02  0.69743904094E+02  0.00000000000E+00 0. -1.
         21   -1    0    0  501  502  0.00000000000E+00 -0.00000000000E+00 -0.24919123004E+03  0.24919123004E+03  0.00000000000E+00 0. -1.
         23    2    1    2    0    0  0.45090287481E+02 -0.25373793388E+02 -0.88500683114E+00  0.10505566903E+03  0.91427276791E+02 0.  0.
        -24    2    1    2    0    0 -0.53956007017E+02 -0.67167278804E+00 -0.15117415527E+03  0.17505835217E+03  0.69857709702E+02 0.  0.
         13    1    4    4    0    0 -0.70248597735E+02  0.60308564097E+01 -0.11676162047E+03  0.13639836042E+03  0.00000000000E+00 0. -1.
        -14    1    4    4    0    0  0.16292590718E+02 -0.67025291978E+01 -0.34412534802E+02  0.38659991742E+02  0.00000000000E+00 0.  1.
        -13    1    3    3    0    0 -0.27421600720E+02  0.17568765247E+01 -0.27246882983E+01  0.27612582774E+02  0.00000000000E+00 0.  1.
         13    1    3    3    0    0  0.72511888201E+02 -0.27130669913E+02  0.18396814672E+01  0.77443086252E+02  0.00000000000E+00 0. -1.
          2    1    1    2  501    0  0.88657195356E+01  0.26045466176E+02 -0.27388163850E+02  0.38821112945E+02  0.00000000000E+00 0. -1.
<scales pt_clust_5="13000.00000" pt_clust_6="13000.00000" pt_clust_7="13000.00000" pt_clust_8="13000.00000" pt_clust_9="27.51304"></scales>
<clustering>
<clus scale="   27.513">  2  9  1 -1</clus>
<clus scale="   69.858">  5  6 -1 -1</clus>
<clus scale="   86.455">  2  5  1 -1</clus>
<clus scale="   91.427">  7  8 -1 -1</clus>
<clus scale="   27.513">  2  5  1 -1</clus>
</clustering>
</event>
<event>
 9    1  0.6270443E-005  0.3152430E+03  0.7546771E-02  0.1078266E+00
          1   -1    0    0  502    0 -0.00000000000E+00  0.00000000000E+00  0.60934456938E+03  0.60934456938E+03  0.00000000000E+00 0. -1.
         21   -1    0    0  501  502  0.00000000000E+00 -0.00000000000E+00 -0.22431808562E+03  0.22431808562E+03  0.00000000000E+00 0. -1.
        -24    2    1    2    0    0 -0.18933079037E+03 -0.20157563043E+03  0.18816489460E+03  0.34509332610E+03  0.84879286021E+02 0.  0.
         23    2    1    2    0    0  0.16765797400E+03  0.29251907221E+03  0.17738140525E+03  0.39307117113E+03  0.96768687022E+02 0.  0.
         11    1    3    3    0    0 -0.14727400252E+03 -0.17603258787E+03  0.18670695683E+03  0.29586583368E+03  0.00000000000E+00 0. -1.
        -12    1    3    3    0    0 -0.42056787851E+02 -0.25543042563E+02  0.14579377666E+01  0.49227492422E+02  0.00000000000E+00 0.  1.
        -13    1    4    4    0    0  0.41691644653E+02  0.21655090111E+02  0.49143520649E+02  0.67986923621E+02  0.00000000000E+00 0.  1.
         13    1    4    4    0    0  0.12596632935E+03  0.27086398210E+03  0.12823788460E+03  0.32508424751E+03  0.00000000000E+00 0. -1.
          2    1    1    2  501    0  0.21672816365E+02 -0.90943441780E+02  0.19480183907E+02  0.95498157767E+02  0.00000000000E+00 0. -1.
<scales pt_clust_5="13000.00000" pt_clust_6="13000.00000" pt_clust_7="13000.00000" pt_clust_8="13000.00000" pt_clust_9="93.49022"></scales>
<clustering>
<clus scale="   84.879">  5  6 -1 -1</clus>
<clus scale="   93.490">  2  9  1 -1</clus>
<clus scale="   96.769">  7  8 -1 -1</clus>
<clus scale="  311.799">  1  5  2 -1</clus>
<clus scale="   93.490">  2  5  1 -1</clus>
</clustering>
</event>
<event>
 9    1  0.6270443E-005  0.1596520E+03  0.7546771E-02  0.1191058E+00
         21   -1    0    0  501  502  0.00000000000E+00  0.00000000000E+00  0.78444081341E+02  0.78444081341E+02  0.00000000000E+00 0. -1.
          1   -1    0    0  502    0 -0.00000000000E+00 -0.00000000000E+00 -0.58128557721E+03  0.58128557721E+03  0.00000000000E+00 0. -1.
        -24    2    1    2    0    0  0.13331062794E+03  0.39869396587E+02 -0.38631452468E+03  0.41876959214E+03  0.82266439164E+02 0.  0.
         23    2    1    2    0    0 -0.79640144954E+02 -0.77113207076E+02 -0.77930378109E+02  0.16508306620E+03  0.94288257600E+02 0.  0.
         13    1    3    3    0    0  0.11572705335E+03  0.52298520068E+02 -0.37156806610E+03  0.39267125413E+03  0.00000000000E+00 0. -1.
        -14    1    3    3    0    0  0.17583574589E+02 -0.12429123481E+02 -0.14746458584E+02  0.26098338004E+02  0.00000000000E+00 0.  1.
        -11    1    4    4    0    0 -0.54116700002E+02 -0.65589694955E+02 -0.29949148304E+01  0.85085808560E+02  0.00000000000E+00 0. -1.
         11    1    4    4    0    0 -0.25523444952E+02 -0.11523512121E+02 -0.74935463278E+02  0.79997257644E+02  0.00000000000E+00 0.  1.
          2    1    1    2  501    0 -0.53670482988E+02  0.37243810489E+02 -0.38596593082E+02  0.75877000214E+02  0.00000000000E+00 0. -1.
<scales pt_clust_5="13000.00000" pt_clust_6="13000.00000" pt_clust_7="13000.00000" pt_clust_8="13000.00000" pt_clust_9="65.32704"></scales>
<clustering>
<clus scale="   65.327">  1  9  2 -1</clus>
<clus scale="   82.266">  5  6 -1 -1</clus>
<clus scale="   94.288">  7  8 -1 -1</clus>
<clus scale="  152.860">  2  5  1 -1</clus>
<clus scale="   65.327">  1  5  2 -1</clus>
</clustering>
</event>
<event>
 9    1  0.6270443E-005  0.1374858E+03  0.7546771E-02  0.1220991E+00
         21   -1    0    0  501  502  0.00000000000E+00  0.00000000000E+00  0.20120111245E+03  0.20120111245E+03  0.00000000000E+00 0. -1.
          3   -1    0    0  502    0 -0.00000000000E+00 -0.00000000000E+00 -0.85341138288E+03  0.85341138288E+03  0.00000000000E+00 0. -1.
        -24    2    1    2    0    0 -0.71936607844E+02 -0.66123359698E+02 -0.66404896366E+03  0.67600679584E+03  0.80479734303E+02 0.  0.
         23    2    1    2    0    0  0.84229700780E+02  0.43485737550E+02 -0.15698248027E+03  0.20783049433E+03  0.97797563355E+02 0.  0.
         11    1    3    3    0    0 -0.88839650890E+02 -0.59725865830E+02 -0.59915688616E+03  0.60864491853E+03  0.00000000000E+00 0. -1.
        -12    1    3    3    0    0  0.16903043046E+02 -0.63974938679E+01 -0.64892077498E+02  0.67361877305E+02  0.00000000000E+00 0.  1.
        -11    1    4    4    0    0  0.60180446182E+02 -0.16801037013E+02 -0.40422717993E+02  0.74417451430E+02  0.00000000000E+00 0.  1.
         11    1    4    4    0    0  0.24049254598E+02  0.60286774563E+02 -0.11655976228E+03  0.13341304290E+03  0.00000000000E+00 0. -1.
          4    1    1    2  501    0 -0.12293092936E+02  0.22637622147E+02  0.16882117351E+03  0.17077520515E+03  0.00000000000E+00 0. -1.
<scales pt_clust_5="13000.00000" pt_clust_6="13000.00000" pt_clust_7="13000.00000" pt_clust_8="13000.00000" pt_clust_9="25.76009"></scales>
<clustering>
<clus scale="   25.760">  1  9  2 -1</clus>
<clus scale="   80.480">  5  6 -1 -1</clus>
<clus scale="   97.798">  7  8 -1 -1</clus>
<clus scale="  125.758">  2  5  1 -1</clus>
<clus scale="   25.760">  1  5  2 -1</clus>
</clustering>
</event>
<event>
 9    1  0.6270443E-005  0.9493070E+02  0.7546771E-02  0.1297324E+00
         21   -1    0    0  501  502  0.00000000000E+00  0.00000000000E+00  0.87155986740E+02  0.87155986740E+02  0.00000000000E+00 0.  1.
          1   -1    0    0  502    0 -0.00000000000E+00 -0.00000000000E+00 -0.51944350504E+03  0.51944350504E+03  0.00000000000E+00 0. -1.
        -24    2    1    2    0    0  0.21707275449E+02  0.14584707462E+02 -0.40137325013E+03  0.41017890055E+03  0.80388587768E+02 0.  0.
         23    2    1    2    0    0 -0.23758807483E+01 -0.72409459941E+02  0.18800708154E+02  0.11775049722E+03  0.90900705550E+02 0.  0.
         13    1    3    3    0    0 -0.15804137875E+02  0.29770429684E+02 -0.88531681222E+02  0.94730712219E+02  0.00000000000E+00 0. -1.
        -14    1    3    3    0    0  0.37511413324E+02 -0.15185722222E+02 -0.31284156891E+03  0.31544818834E+03  0.00000000000E+00 0.  1.
        -13    1    4    4    0    0 -0.29131089947E+02 -0.54770978962E+02  0.44769277447E+02  0.76503390390E+02  0.00000000000E+00 0.  1.
         13    1    4    4    0    0  0.26755209199E+02 -0.17638480979E+02 -0.25968569293E+02  0.41247106828E+02  0.00000000000E+00 0. -1.
          2    1    1    2  501    0 -0.19331394701E+02  0.57824752479E+02 -0.49714976327E+02  0.78670094010E+02  0.00000000000E+00 0. -1.
<scales pt_clust_5="13000.00000" pt_clust_6="13000.00000" pt_clust_7="13000.00000" pt_clust_8="13000.00000" pt_clust_9="60.97052"></scales>
<clustering>
<clus scale="   60.971">  1  9  2 -1</clus>
<clus scale="   80.389">  5  6 -1 -1</clus>
<clus scale="   84.919">  2  5  1 -1</clus>
<clus scale="   90.901">  7  8 -1 -1</clus>
<clus scale="   60.971">  1  5  2 -1</clus>
</clustering>
</event>
<event>
 9    1  0.6270443E-005  0.4779038E+03  0.7546771E-02  0.1019713E+00
         21   -1    0    0  501  502  0.00000000000E+00  0.00000000000E+00  0.55510771975E+03  0.55510771975E+03  0.00000000000E+00 0. -1.
          1   -1    0    0  502    0 -0.00000000000E+00 -0.00000000000E+00 -0.39055223864E+03  0.39055223864E+03  0.00000000000E+00 0. -1.
        -24    2    1    2    0    0 -0.96814955054E+02  0.95598329352E+02 -0.60390989142E+02  0.16932193534E+03  0.80688723630E+02 0.  0.
         23    2    1    2    0    0 -0.10023090136E+03  0.27968795605E+03  0.29505254417E+02  0.30957884061E+03  0.81834663611E+02 0.  0.
         13    1    3    3    0    0 -0.10388680446E+03  0.56851115158E+02 -0.50284840542E+02  0.12865878370E+03  0.00000000000E+00 0. -1.
        -14    1    3    3    0    0  0.70718494032E+01  0.38747214194E+02 -0.10106148600E+02  0.40663151640E+02  0.00000000000E+00 0.  1.
        -11    1    4    4    0    0 -0.71431906173E+02  0.15292832176E+03 -0.21066272304E+02  0.17009813828E+03  0.00000000000E+00 0. -1.
         11    1    4    4    0    0 -0.28798995189E+02  0.12675963429E+03  0.50571526720E+02  0.13948070233E+03  0.00000000000E+00 0.  1.
          2    1    1    2  501    0  0.19704585642E+03 -0.37528628540E+03  0.19544121584E+03  0.46675918244E+03  0.00000000000E+00 0. -1.
<scales pt_clust_5="13000.00000" pt_clust_6="13000.00000" pt_clust_7="13000.00000" pt_clust_8="13000.00000" pt_clust_9="423.87128"></scales>
<clustering>
<clus scale="   80.689">  5  6 -1 -1</clus>
<clus scale="   81.835">  7  8 -1 -1</clus>
<clus scale="  126.436">  5  7 -1 -1</clus>
<clus scale="  423.871">  1  9  2 -1</clus>
<clus scale="  423.871">  1  5  2 -1</clus>
</clustering>
</event>
<event>
 9    1  0.6270443E-005  0.8990506E+02  0.7546771E-02  0.1308267E+00
          1   -1    0    0  502    0 -0.00000000000E+00  0.00000000000E+00  0.51416907157E+03  0.51416907157E+03  0.00000000000E+00 0. -1.
         21   -1    0    0  501  502  0.00000000000E+00 -0.00000000000E+00 -0.35568479532E+02  0.35568479532E+02  0.00000000000E+00 0. -1.
        -24    2    1    2    0    0  0.14147398221E+02  0.30608758766E+01  0.31699453369E+03  0.32725421736E+03  0.80001690956E+02 0.  0.
         23    2    1    2    0    0 -0.19890721296E+02  0.47331707659E+02  0.11088241951E+03  0.15075268637E+03  0.88292299478E+02 0.  0.
         13    1    3    3    0    0  0.46756931836E+02  0.71323116151E+01  0.21311680594E+03  0.21830220685E+03  0.00000000000E+00 0. -1.
        -14    1    3    3    0    0 -0.32609533614E+02 -0.40714357385E+01  0.10387772775E+03  0.10895201051E+03  0.00000000000E+00 0.  1.
        -13    1    4    4    0    0  0.28562735182E+02  0.30671913412E+02  0.81609479192E+02  0.91742592112E+02  0.00000000000E+00 0.  1.
         13    1    4    4    0    0 -0.48453456479E+02  0.16659794248E+02  0.29272940314E+02  0.59010094253E+02  0.00000000000E+00 0. -1.
          2    1    1    2  501    0  0.57433230752E+01 -0.50392583536E+02  0.50723638845E+02  0.71730647377E+02  0.00000000000E+00 0. -1.
<scales pt_clust_5="13000.00000" pt_clust_6="13000.00000" pt_clust_7="13000.00000" pt_clust_8="13000.00000" pt_clust_9="50.71882"></scales>
<clustering>
<clus scale="   50.719">  2  9  1 -1</clus>
<clus scale="   80.002">  5  6 -1 -1</clus>
<clus scale="   81.778">  1  5  2 -1</clus>
<clus scale="   88.292">  7  8 -1 -1</clus>
<clus scale="   50.719">  2  5  1 -1</clus>
</clustering>
</event>
<event>
 9    1  0.6270443E-005  0.9529332E+02  0.7546771E-02  0.1299221E+00
          1   -1    0    0  502    0 -0.00000000000E+00  0.00000000000E+00  0.31871835315E+03  0.31871835315E+03  0.00000000000E+00 0. -1.
         21   -1    0    0  501  502  0.00000000000E+00 -0.00000000000E+00 -0.79426550100E+02  0.79426550100E+02  0.00000000000E+00 0. -1.
         23    2    1    2    0    0  0.12697439940E+02 -0.28584069639E+01  0.24110711601E+03  0.25948101307E+03  0.95017678804E+02 0.  0.
        -24    2    1    2    0    0  0.10137467299E+02 -0.16628170056E+02  0.35885078924E+02  0.90471782728E+02  0.80735000451E+02 0.  0.
         11    1    4    4    0    0 -0.36115604183E+01 -0.28096246762E+02  0.56478076225E+02  0.63183981711E+02  0.00000000000E+00 0. -1.
        -12    1    4    4    0    0  0.13749027718E+02  0.11468076706E+02 -0.20592997300E+02  0.27287801017E+02  0.00000000000E+00 0.  1.
        -11    1    3    3    0    0 -0.38212752704E+02 -0.13177326298E+02  0.14126566449E+03  0.14693483032E+03  0.00000000000E+00 0. -1.
         11    1    3    3    0    0  0.50910192644E+02  0.10318919334E+02  0.99841451519E+02  0.11254618276E+03  0.00000000000E+00 0.  1.
          2    1    1    2  501    0 -0.22834907240E+02  0.19486577020E+02 -0.37700391880E+02  0.48192107450E+02  0.00000000000E+00 0. -1.
<scales pt_clust_5="13000.00000" pt_clust_6="13000.00000" pt_clust_7="13000.00000" pt_clust_8="13000.00000" pt_clust_9="30.01932"></scales>
<clustering>
<clus scale="   30.019">  2  9  1 -1</clus>
<clus scale="   80.735">  5  6 -1 -1</clus>
<clus scale="   81.059">  2  5  1 -1</clus>
<clus scale="   95.018">  7  8 -1 -1</clus>
<clus scale="   30.019">  2  5  1 -1</clus>
</clustering>
</event>
<event>
 9    1  0.6270443E-005  0.1480868E+03  0.7546771E-02  0.1204914E+00
         21   -1    0    0  501  502  0.00000000000E+00  0.00000000000E+00  0.67014777960E+03  0.67014777960E+03  0.00000000000E+00 0.  1.
          3   -1    0    0  502    0 -0.00000000000E+00 -0.00000000000E+00 -0.78342393586E+02  0.78342393586E+02  0.00000000000E+00 0. -1.
         23    2    1    2    0    0 -0.98703712810E+02 -0.67511175771E+02  0.41787271912E+02  0.15632479180E+03  0.91602852901E+02 0.  0.
        -24    2    1    2    0    0  0.75305408321E+02  0.63514824823E+02  0.55368643068E+03  0.56814647175E+03  0.80726156510E+02 0.  0.
         11    1    4    4    0    0  0.23172718350E+02  0.17284729529E+02  0.37860030045E+02  0.47635266616E+02  0.00000000000E+00 0. -1.
        -12    1    4    4    0    0  0.52132689972E+02  0.46230095295E+02  0.51582640064E+03  0.52051120513E+03  0.00000000000E+00 0.  1.
        -11    1    3    3    0    0  0.11950171749E+02 -0.32205955036E+02  0.12336161308E+02  0.36499466030E+02  0.00000000000E+00 0. -1.
         11    1    3    3    0    0 -0.11065388456E+03 -0.35305220735E+02  0.29451110604E+02  0.11982532577E+03  0.00000000000E+00 0.  1.
          4    1    1    2  501    0  0.23398304489E+02  0.39963509473E+01 -0.36683165791E+01  0.24018909642E+02  0.00000000000E+00 0. -1.
<scales pt_clust_5="13000.00000" pt_clust_6="13000.00000" pt_clust_7="13000.00000" pt_clust_8="13000.00000" pt_clust_9="23.73714"></scales>
<clustering>
<clus scale="   23.737">  1  9  2 -1</clus>
<clus scale="   80.726">  5  6 -1 -1</clus>
<clus scale="   91.603">  7  8 -1 -1</clus>
<clus scale="  141.617">  1  5  2 -1</clus>
<clus scale="   23.737">  1  5  2 -1</clus>
</clustering>
</event>
<event>
 9    1  0.6270443E-005  0.1663109E+03  0.7546771E-02  0.1183535E+00
         21   -1    0    0  501  502  0.00000000000E+00  0.00000000000E+00  0.21969955444E+03  0.21969955444E+03  0.00000000000E+00 0.  1.
         -2   -1    0    0    0  501 -0.00000000000E+00 -0.00000000000E+00 -0.17181701422E+03  0.17181701422E+03  0.00000000000E+00 0.  1.
        -24    2    1    2    0    0 -0.13226183034E+03 -0.15555247412E+02  0.25575319657E+02  0.15730851294E+03  0.79729002125E+02 0.  0.
         23    2    1    2    0    0  0.14619987164E+03 -0.28088163561E+02  0.48221455637E+02  0.18157190943E+03  0.92085298022E+02 0.  0.
         13    1    3    3    0    0 -0.79664174536E+02 -0.42663452903E+02 -0.53786637421E+01  0.90528895618E+02  0.00000000000E+00 0. -1.
        -14    1    3    3    0    0 -0.52597655807E+02  0.27108205491E+02  0.30953983399E+02  0.66779617321E+02  0.00000000000E+00 0.  1.
        -13    1    4    4    0    0  0.11447156258E+03  0.19965917210E+02  0.42404105841E+02  0.12369512797E+03  0.00000000000E+00 0.  1.
         13    1    4    4    0    0  0.31728309053E+02 -0.48054080771E+02  0.58173497955E+01  0.57876781465E+02  0.00000000000E+00 0. -1.
         -1    1    1    2    0  502 -0.13938041294E+02  0.43643410973E+02 -0.25914235074E+02  0.52636146287E+02  0.00000000000E+00 0.  1.
<scales pt_clust_5="13000.00000" pt_clust_6="13000.00000" pt_clust_7="13000.00000" pt_clust_8="13000.00000" pt_clust_9="45.81505"></scales>
<clustering>
<clus scale="   45.815">  1  9  2 -1</clus>
<clus scale="   79.729">  5  6 -1 -1</clus>
<clus scale="   92.085">  7  8 -1 -1</clus>
<clus scale="  159.801">  2  5  1 -1</clus>
<clus scale="   45.815">  1  5  2 -1</clus>
</clustering>
</event>
<event>
 9    1  0.6270443E-005  0.9435854E+02  0.7546771E-02  0.1298406E+00
         21   -1    0    0  501  502  0.00000000000E+00  0.00000000000E+00  0.31208435946E+03  0.31208435946E+03  0.00000000000E+00 0. -1.
          3   -1    0    0  502    0 -0.00000000000E+00 -0.00000000000E+00 -0.18479839440E+03  0.18479839440E+03  0.00000000000E+00 0. -1.
        -24    2    1    2    0    0  0.24568528179E+02 -0.14336890251E+02 -0.16100043079E+03  0.18187710523E+03  0.79680510130E+02 0.  0.
         23    2    1    2    0    0 -0.21724187297E+02  0.37376654569E+02  0.19663599127E+03  0.22046085673E+03  0.89823836860E+02 0.  0.
         13    1    3    3    0    0  0.43198437279E+02 -0.27331716897E+02 -0.62256436829E+02  0.80554277717E+02  0.00000000000E+00 0. -1.
        -14    1    3    3    0    0 -0.18629909100E+02  0.12994826646E+02 -0.98743993957E+02  0.10132282751E+03  0.00000000000E+00 0.  1.
        -11    1    4    4    0    0  0.60507419008E+01  0.20551035445E+02  0.26707891273E+00  0.21424935626E+02  0.00000000000E+00 0. -1.
         11    1    4    4    0    0 -0.27774929198E+02  0.16825619124E+02  0.19636891235E+03  0.19903592110E+03  0.00000000000E+00 0.  1.
          4    1    1    2  501    0 -0.28443408821E+01 -0.23039764319E+02  0.91650404584E+02  0.94544791900E+02  0.00000000000E+00 0. -1.
<scales pt_clust_5="13000.00000" pt_clust_6="13000.00000" pt_clust_7="13000.00000" pt_clust_8="13000.00000" pt_clust_9="23.21467"></scales>
<clustering>
<clus scale="   23.215">  1  9  2 -1</clus>
<clus scale="   79.681">  5  6 -1 -1</clus>
<clus scale="   84.760">  2  5  1 -1</clus>
<clus scale="   89.824">  7  8 -1 -1</clus>
<clus scale="   23.215">  1  5  2 -1</clus>
</clustering>
</event>
<event>
 9    1  0.6270443E-005  0.3429468E+03  0.7546771E-02  0.1065680E+00
          3   -1    0    0  502    0 -0.00000000000E+00  0.00000000000E+00  0.10711388375E+04  0.10711388375E+04  0.00000000000E+00 0. -1.
         21   -1    0    0  501  502  0.00000000000E+00 -0.00000000000E+00 -0.94603710859E+03  0.94603710859E+03  0.00000000000E+00 0. -1.
        -24    2    1    2    0    0  0.21019726068E+03  0.27148262508E+03  0.99927968003E+03  0.10602093451E+04  0.87168070316E+02 0.  0.
         23    2    1    2    0    0 -0.57854961934E+02 -0.16388264772E+03 -0.36311948961E+03  0.41293840123E+03  0.91965431683E+02 0.  0.
         13    1    3    3    0    0  0.10740683204E+03  0.19766405295E+03  0.57432274989E+03  0.61680947337E+03  0.00000000000E+00 0. -1.
        -14    1    3    3    0    0  0.10279042864E+03  0.73818572129E+02  0.42495693014E+03  0.44339987177E+03  0.00000000000E+00 0.  1.
        -13    1    4    4    0    0 -0.49493720885E+02 -0.25404699948E+02 -0.77397238885E+02  0.95317153617E+02  0.00000000000E+00 0.  1.
         13    1    4    4    0    0 -0.83612410493E+01 -0.13847794777E+03 -0.28572225073E+03  0.31762124761E+03  0.00000000000E+00 0. -1.
          4    1    1    2  501    0 -0.15234229875E+03 -0.10759997736E+03 -0.51105846146E+03  0.54402819977E+03  0.00000000000E+00 0. -1.
<scales pt_clust_5="13000.00000" pt_clust_6="13000.00000" pt_clust_7="13000.00000" pt_clust_8="13000.00000" pt_clust_9="186.50987"></scales>
<clustering>
<clus scale="   87.168">  5  6 -1 -1</clus>
<clus scale="   91.965">  7  8 -1 -1</clus>
<clus scale="  186.510">  2  9  1 -1</clus>
<clus scale="  341.692">  1  5  2 -1</clus>
<clus scale="  186.510">  2  5  1 -1</clus>
</clustering>
</event>
<event>
 9    1  0.6270443E-005  0.1109468E+03  0.7546771E-02  0.1260026E+00
          1   -1    0    0  502    0 -0.00000000000E+00  0.00000000000E+00  0.18527934115E+03  0.18527934115E+03  0.00000000000E+00 0. -1.
         21   -1    0    0  501  502  0.00000000000E+00 -0.00000000000E+00 -0.10476909425E+03  0.10476909425E+03  0.00000000000E+00 0. -1.
         23    2    1    2    0    0  0.19569102244E+02 -0.74361661287E+02  0.59418193710E+02  0.12851592960E+03  0.84102413669E+02 0.  0.
        -24    2    1    2    0    0 -0.54059700075E+02  0.48333482241E+02 -0.90617143684E+01  0.10884173677E+03  0.80658739868E+02 0.  0.
         13    1    4    4    0    0  0.17843422398E+02  0.91087808677E+01 -0.17369492480E+02  0.26515219795E+02  0.00000000000E+00 0. -1.
        -14    1    4    4    0    0 -0.71903122473E+02  0.39224701373E+02  0.83077781119E+01  0.82326516970E+02  0.00000000000E+00 0.  1.
        -11    1    3    3    0    0  0.48821430220E+02 -0.22323776357E+02  0.34592707951E+02  0.63863436197E+02  0.00000000000E+00 0.  1.
         11    1    3    3    0    0 -0.29252327976E+02 -0.52037884930E+02  0.24825485759E+02  0.64652493402E+02  0.00000000000E+00 0. -1.
          2    1    1    2  501    0  0.34490597831E+02  0.26028179046E+02  0.30153767557E+02  0.52690769032E+02  0.00000000000E+00 0. -1.
<scales pt_clust_5="13000.00000" pt_clust_6="13000.00000" pt_clust_7="13000.00000" pt_clust_8="13000.00000" pt_clust_9="43.20960"></scales>
<clustering>
<clus scale="   43.210">  2  9  1 -1</clus>
<clus scale="   80.659">  5  6 -1 -1</clus>
<clus scale="   84.102">  7  8 -1 -1</clus>
<clus scale="  108.360">  2  5  1 -1</clus>
<clus scale="   43.210">  2  5  1 -1</clus>
</clustering>
</event>
<event>
 9    1  0.6270443E-005  0.1094919E+03  0.7546771E-02  0.1266771E+00
         21   -1    0    0  501  502  0.00000000000E+00  0.00000000000E+00  0.15925070963E+03  0.15925070963E+03  0.00000000000E+00 0. -1.
         -2   -1    0    0    0  501 -0.00000000000E+00 -0.00000000000E+00 -0.17173720122E+03  0.17173720122E+03  0.00000000000E+00 0.  1.
         23    2    1    2    0    0  0.46361852499E+02  0.34212458455E+02 -0.10812875755E+03  0.15267279628E+03  0.91089191644E+02 0.  0.
        -24    2    1    2    0    0 -0.71061109287E+02 -0.36027295569E+02  0.10374201012E+03  0.15225839231E+03  0.77926671208E+02 0.  0.
         13    1    4    4    0    0 -0.77754153396E+02 -0.19943186864E+02  0.47258606426E+02  0.93149422725E+02  0.00000000000E+00 0. -1.
        -14    1    4    4    0    0  0.66930441089E+01 -0.16084108706E+02  0.56483403698E+02  0.59108969587E+02  0.00000000000E+00 0.  1.
        -11    1    3    3    0    0  0.67780012242E+02  0.45480450952E+02 -0.94599018666E+02  0.12494629171E+03  0.00000000000E+00 0.  1.
         11    1    3    3    0    0 -0.21418159743E+02 -0.11267992498E+02 -0.13529738884E+02  0.27726504576E+02  0.00000000000E+00 0. -1.
         -1    1    1    2    0  502  0.24699256788E+02  0.18148371147E+01 -0.80997441636E+01  0.26056722264E+02  0.00000000000E+00 0.  1.
<scales pt_clust_5="13000.00000" pt_clust_6="13000.00000" pt_clust_7="13000.00000" pt_clust_8="13000.00000" pt_clust_9="24.76585"></scales>
<clustering>
<clus scale="   24.766">  1  9  2 -1</clus>
<clus scale="   77.927">  5  6 -1 -1</clus>
<clus scale="   91.089">  7  8 -1 -1</clus>
<clus scale="   98.812">  1  5  2 -1</clus>
<clus scale="   24.766">  1  5  2 -1</clus>
</clustering>
</event>
<event>
 9    1  0.6270443E-005  0.1352372E+03  0.7546771E-02  0.1222787E+00
          1   -1    0    0  502    0 -0.00000000000E+00  0.00000000000E+00  0.37994461218E+03  0.37994461218E+03  0.00000000000E+00 0. -1.
         21   -1    0    0  501  502  0.00000000000E+00 -0.00000000000E+00 -0.79725800074E+02  0.79725800074E+02  0.00000000000E+00 0. -1.
        -24    2    1    2    0    0  0.10188933164E+03 -0.50257596298E+02  0.23131545206E+03  0.26959891122E+03  0.79180001775E+02 0.  0.
         23    2    1    2    0    0 -0.52717876571E+02  0.34154435400E+02  0.95860033167E+01  0.11135877911E+03  0.91450457939E+02 0.  0.
         13    1    3    3    0    0  0.84307102827E+02 -0.69075376630E+02  0.20815486466E+03  0.23496285435E+03  0.00000000000E+00 0. -1.
        -14    1    3    3    0    0  0.17582228808E+02  0.18817780332E+02  0.23160587402E+02  0.34636056867E+02  0.00000000000E+00 0.  1.
        -13    1    4    4    0    0 -0.43363389133E+02  0.61547109060E+02 -0.10653209548E+02  0.76038944130E+02  0.00000000000E+00 0. -1.
         13    1    4    4    0    0 -0.93544874384E+01 -0.27392673660E+02  0.20239212865E+02  0.35319834978E+02  0.00000000000E+00 0.  1.
          2    1    1    2  501    0 -0.49171455064E+02  0.16103160898E+02  0.59317356729E+02  0.78712721929E+02  0.00000000000E+00 0. -1.
<scales pt_clust_5="13000.00000" pt_clust_6="13000.00000" pt_clust_7="13000.00000" pt_clust_8="13000.00000" pt_clust_9="51.74115"></scales>
<clustering>
<clus scale="   51.741">  2  9  1 -1</clus>
<clus scale="   79.180">  5  6 -1 -1</clus>
<clus scale="   91.450">  7  8 -1 -1</clus>
<clus scale="  127.261">  1  5  2 -1</clus>
<clus scale="   51.741">  2  5  1 -1</clus>
</clustering>
</event>
<event>
 9    1  0.6270443E-005  0.9471187E+02  0.7546771E-02  0.1297277E+00
          1   -1    0    0  502    0 -0.00000000000E+00  0.00000000000E+00  0.29561021980E+02  0.29561021980E+02  0.00000000000E+00 0. -1.
         21   -1    0    0  501  502  0.00000000000E+00 -0.00000000000E+00 -0.47631535257E+03  0.47631535257E+03  0.00000000000E+00 0. -1.
        -24    2    1    2    0    0  0.39908641916E+02  0.89093289305E+01 -0.11126958804E+03  0.14405265892E+03  0.81842357485E+02 0.  0.
         23    2    1    2    0    0  0.10616594209E+01  0.43307674407E+01 -0.20660310053E+03  0.22594015005E+03  0.91346743728E+02 0.  0.
         13    1    3    3    0    0  0.11027506179E+02  0.44350456202E+02 -0.52815877063E+02  0.69843294079E+02  0.00000000000E+00 0. -1.
        -14    1    3    3    0    0  0.28881135736E+02 -0.35441127271E+02 -0.58453710975E+02  0.74209364843E+02  0.00000000000E+00 0.  1.
        -13    1    4    4    0    0  0.11914785146E+02 -0.38152710472E+02 -0.54132317174E+02  0.67289666250E+02  0.00000000000E+00 0.  1.
         13    1    4    4    0    0 -0.10853125725E+02  0.42483477913E+02 -0.15247078335E+03  0.15865048380E+03  0.00000000000E+00 0. -1.
          2    1    1    2  501    0 -0.40970301337E+02 -0.13240096371E+02 -0.12888164202E+03  0.13588356558E+03  0.00000000000E+00 0. -1.
<scales pt_clust_5="13000.00000" pt_clust_6="13000.00000" pt_clust_7="13000.00000" pt_clust_8="13000.00000" pt_clust_9="43.05654"></scales>
<clustering>
<clus scale="   43.057">  2  9  1 -1</clus>
<clus scale="   81.842">  5  6 -1 -1</clus>
<clus scale="   85.582">  1  5  2 -1</clus>
<clus scale="   91.347">  7  8 -1 -1</clus>
<clus scale="   43.057">  2  5  1 -1</clus>
</clustering>
</event>
<event>
 9    1  0.6270443E-005  0.1133064E+03  0.7546771E-02  0.1256997E+00
          3   -1    0    0  502    0 -0.00000000000E+00  0.00000000000E+00  0.33680582703E+03  0.33680582703E+03  0.00000000000E+00 0. -1.
         21   -1    0    0  501  502  0.00000000000E+00 -0.00000000000E+00 -0.85739523863E+02  0.85739523863E+02  0.00000000000E+00 0. -1.
        -24    2    1    2    0    0 -0.59662950027E+02  0.58813733451E+02  0.70467763901E+02  0.13474138456E+03  0.78554516837E+02 0.  0.
         23    2    1    2    0    0  0.48441980496E+02 -0.33470616597E+02 -0.11016274907E+01  0.10400207753E+03  0.85722289383E+02 0.  0.
         11    1    3    3    0    0 -0.61338902300E+02  0.78252035928E+01  0.50938577584E+02  0.80115126118E+02  0.00000000000E+00 0. -1.
        -12    1    3    3    0    0  0.16759522729E+01  0.50988529859E+02  0.19529186317E+02  0.54626258442E+02  0.00000000000E+00 0.  1.
        -11    1    4    4    0    0  0.28428252233E+02 -0.90044407389E+01  0.41408174257E+02  0.51028250738E+02  0.00000000000E+00 0.  1.
         11    1    4    4    0    0  0.20013728263E+02 -0.24466175858E+02 -0.42509801748E+02  0.52973826789E+02  0.00000000000E+00 0. -1.
          4    1    1    2  501    0  0.11220969530E+02 -0.25343116855E+02  0.18170016676E+03  0.18380188881E+03  0.00000000000E+00 0. -1.
<scales pt_clust_5="13000.00000" pt_clust_6="13000.00000" pt_clust_7="13000.00000" pt_clust_8="13000.00000" pt_clust_9="27.71614"></scales>
<clustering>
<clus scale="   27.716">  2  9  1 -1</clus>
<clus scale="   78.555">  5  6 -1 -1</clus>
<clus scale="   85.722">  7  8 -1 -1</clus>
<clus scale="  107.985">  1  5  2 -1</clus>
<clus scale="   27.716">  2  5  1 -1</clus>
</clustering>
</event>
<event>
 9    1  0.6270443E-005  0.1949093E+03  0.7546771E-02  0.1166292E+00
         21   -1    0    0  501  502  0.00000000000E+00  0.00000000000E+00  0.12133236678E+03  0.12133236678E+03  0.00000000000E+00 0. -1.
          1   -1    0    0  502    0 -0.00000000000E+00 -0.00000000000E+00 -0.95448769130E+03  0.95448769130E+03  0.00000000000E+00 0. -1.
        -24    2    1    2    0    0 -0.12069279878E+03  0.25501712241E+02 -0.20841700138E+03  0.25491922442E+03  0.79555486990E+02 0.  0.
         23    2    1    2    0    0  0.25294832341E+03  0.64770638336E+02 -0.59740056550E+03  0.65845707703E+03  0.92196511475E+02 0.  0.
         11    1    3    3    0    0 -0.11953663130E+03  0.33173807188E+02 -0.14412959109E+03  0.19016531423E+03  0.00000000000E+00 0. -1.
        -12    1    3    3    0    0 -0.11561674811E+01 -0.76720949470E+01 -0.64287410289E+02  0.64753910196E+02  0.00000000000E+00 0.  1.
        -11    1    4    4    0    0  0.11887745802E+03  0.58753497912E+02 -0.38513459299E+03  0.40732355475E+03  0.00000000000E+00 0.  1.
         11    1    4    4    0    0  0.13407086539E+03  0.60171404240E+01 -0.21226597251E+03  0.25113352228E+03  0.00000000000E+00 0. -1.
          2    1    1    2  501    0 -0.13225552463E+03 -0.90272350576E+02 -0.27337757640E+02  0.16244375663E+03  0.00000000000E+00 0. -1.
<scales pt_clust_5="13000.00000" pt_clust_6="13000.00000" pt_clust_7="13000.00000" pt_clust_8="13000.00000" pt_clust_9="171.72494"></scales>
<clustering>
<clus scale="   79.555">  5  6 -1 -1</clus>
<clus scale="   92.197">  7  8 -1 -1</clus>
<clus scale="  146.786">  2  5  1 -1</clus>
<clus scale="  171.725">  1  9  2 -1</clus>
<clus scale="  171.725">  1  5  2 -1</clus>
</clustering>
</event>
<event>
 9    1  0.6270443E-005  0.1222572E+03  0.7546771E-02  0.1241796E+00
          1   -1    0    0  502    0 -0.00000000000E+00  0.00000000000E+00  0.44499133802E+02  0.44499133802E+02  0.00000000000E+00 0. -1.
         21   -1    0    0  501  502  0.00000000000E+00 -0.00000000000E+00 -0.43315355595E+03  0.43315355595E+03  0.00000000000E+00 0.  1.
        -24    2    1    2    0    0 -0.85830014812E+02  0.29823883862E+02 -0.11099013938E+03  0.16418999530E+03  0.79895481889E+02 0.  0.
         23    2    1    2    0    0  0.62344574909E+02 -0.41467049310E+02 -0.24954102875E+03  0.27501732274E+03  0.88076333831E+02 0.  0.
         11    1    3    3    0    0 -0.88950496068E+02 -0.20419014670E+01 -0.82017786221E+02  0.12100941025E+03  0.00000000000E+00 0. -1.
        -12    1    3    3    0    0  0.31204812556E+01  0.31865785329E+02 -0.28972353163E+02  0.43180585055E+02  0.00000000000E+00 0.  1.
        -13    1    4    4    0    0  0.27896448159E+02 -0.65770533529E+02 -0.18047509793E+03  0.19410109704E+03  0.00000000000E+00 0.  1.
         13    1    4    4    0    0  0.34448126750E+02  0.24303484219E+02 -0.69065930820E+02  0.80916225701E+02  0.00000000000E+00 0. -1.
          2    1    1    2  501    0  0.23485439903E+02  0.11643165448E+02 -0.28123254019E+02  0.38445371707E+02  0.00000000000E+00 0. -1.
<scales pt_clust_5="13000.00000" pt_clust_6="13000.00000" pt_clust_7="13000.00000" pt_clust_8="13000.00000" pt_clust_9="26.21316"></scales>
<clustering>
<clus scale="   26.213">  2  9  1 -1</clus>
<clus scale="   79.895">  5  6 -1 -1</clus>
<clus scale="   88.076">  7  8 -1 -1</clus>
<clus scale="  116.502">  1  5  2 -1</clus>
<clus scale="   26.213">  2  5  1 -1</clus>
</clustering>
</event>
<event>
 9    1  0.6270443E-005  0.9722101E+02  0.7546771E-02  0.1289847E+00
         21   -1    0    0  501  502  0.00000000000E+00  0.00000000000E+00  0.55193731046E+03  0.55193731046E+03  0.00000000000E+00 0. -1.
          3   -1    0    0  502    0 -0.00000000000E+00 -0.00000000000E+00 -0.16494168561E+03  0.16494168561E+03  0.00000000000E+00 0. -1.
         23    2    1    2    0    0 -0.19016645308E+02  0.35873018055E+02 -0.11142936101E+03  0.14966800631E+03  0.91298978065E+02 0.  0.
        -24    2    1    2    0    0 -0.52025035011E+02 -0.20491763174E+02  0.50109131251E+02  0.11304074763E+03  0.84503070733E+02 0.  0.
         13    1    4    4    0    0 -0.55219834997E+02  0.20282910489E+02  0.19567974860E+02  0.61996227911E+02  0.00000000000E+00 0. -1.
        -14    1    4    4    0    0  0.31947999866E+01 -0.40774673663E+02  0.30541156391E+02  0.51044519716E+02  0.00000000000E+00 0.  1.
        -13    1    3    3    0    0 -0.36656373855E+02  0.25264625369E+02 -0.11952682293E+03  0.12754862775E+03  0.00000000000E+00 0. -1.
         13    1    3    3    0    0  0.17639728547E+02  0.10608392686E+02  0.80974619242E+01  0.22119378568E+02  0.00000000000E+00 0.  1.
          4    1    1    2  501    0  0.71041680319E+02 -0.15381254881E+02  0.44831585461E+03  0.45417024214E+03  0.00000000000E+00 0. -1.
<scales pt_clust_5="13000.00000" pt_clust_6="13000.00000" pt_clust_7="13000.00000" pt_clust_8="13000.00000" pt_clust_9="72.68771"></scales>
<clustering>
<clus scale="   72.688">  1  9  2 -1</clus>
<clus scale="   84.503">  5  6 -1 -1</clus>
<clus scale="   90.869">  1  5  2 -1</clus>
<clus scale="   91.299">  7  8 -1 -1</clus>
<clus scale="   72.688">  1  5  2 -1</clus>
</clustering>
</event>
<event>
 9    1  0.6270443E-005  0.1057902E+03  0.7546771E-02  0.1281252E+00
         21   -1    0    0  501  502  0.00000000000E+00  0.00000000000E+00  0.15095073845E+03  0.15095073845E+03  0.00000000000E+00 0.  1.
          3   -1    0    0  502    0 -0.00000000000E+00 -0.00000000000E+00 -0.25514650178E+03  0.25514650178E+03  0.00000000000E+00 0. -1.
        -24    2    1    2    0    0 -0.31349453024E+00 -0.91644922109E+01 -0.18486653994E+03  0.20244123013E+03  0.81992242755E+02 0.  0.
         23    2    1    2    0    0  0.15422588558E+02  0.57796828259E+02  0.91478111145E+02  0.15159655071E+03  0.10504732159E+03 0.  0.
         13    1    3    3    0    0  0.16608026475E+02 -0.29627018119E+02 -0.16704315038E+03  0.17046114172E+03  0.00000000000E+00 0. -1.
        -14    1    3    3    0    0 -0.16921521005E+02  0.20462525908E+02 -0.17823389555E+02  0.31980088413E+02  0.00000000000E+00 0.  1.
        -11    1    4    4    0    0 -0.20028657882E+02  0.74698546733E+02  0.40670336371E+02  0.87379037996E+02  0.00000000000E+00 0.  1.
         11    1    4    4    0    0  0.35451246440E+02 -0.16901718474E+02  0.50807774774E+02  0.64217512713E+02  0.00000000000E+00 0. -1.
          4    1    1    2  501    0 -0.15109094028E+02 -0.48632336048E+02 -0.10807334545E+02  0.52059459388E+02  0.00000000000E+00 0. -1.
<scales pt_clust_5="13000.00000" pt_clust_6="13000.00000" pt_clust_7="13000.00000" pt_clust_8="13000.00000" pt_clust_9="50.92533"></scales>
<clustering>
<clus scale="   50.925">  1  9  2 -1</clus>
<clus scale="   81.992">  5  6 -1 -1</clus>
<clus scale="   82.942">  2  5  1 -1</clus>
<clus scale="  105.047">  7  8 -1 -1</clus>
<clus scale="   50.925">  1  5  2 -1</clus>
</clustering>
</event>
<event>
 9    1  0.6270443E-005  0.1241849E+03  0.7546771E-02  0.1240364E+00
         -4   -1    0    0    0  501 -0.00000000000E+00  0.00000000000E+00  0.79491561257E+03  0.79491561257E+03  0.00000000000E+00 0.  1.
         21   -1    0    0  501  502  0.00000000000E+00 -0.00000000000E+00 -0.44454689021E+02  0.44454689021E+02  0.00000000000E+00 0. -1.
         23    2    1    2    0    0  0.66009069735E+02  0.42187335580E+02  0.56187213729E+03  0.57469198441E+03  0.91834686851E+02 0.  0.
        -24    2    1    2    0    0 -0.10764989655E+03 -0.34883657388E+02  0.11267607626E+03  0.17778734117E+03  0.78147749420E+02 0.  0.
         13    1    4    4    0    0 -0.46889734991E+02  0.89830741119E+01  0.70250483850E+01  0.48256545389E+02  0.00000000000E+00 0. -1.
        -14    1    4    4    0    0 -0.60760161559E+02 -0.43866731500E+02  0.10565102787E+03  0.12953079578E+03  0.00000000000E+00 0.  1.
        -11    1    3    3    0    0  0.82013858207E+02  0.54964394287E+02  0.49518002443E+03  0.50492634530E+03  0.00000000000E+00 0.  1.
         11    1    3    3    0    0 -0.16004788472E+02 -0.12777058707E+02  0.66692112856E+02  0.69765639110E+02  0.00000000000E+00 0. -1.
         -3    1    1    2    0  502  0.41640826815E+02 -0.73036781920E+01  0.75912710002E+02  0.86890976015E+02  0.00000000000E+00 0.  1.
<scales pt_clust_5="13000.00000" pt_clust_6="13000.00000" pt_clust_7="13000.00000" pt_clust_8="13000.00000" pt_clust_9="42.27650"></scales>
<clustering>
<clus scale="   42.276">  2  9  1 -1</clus>
<clus scale="   78.148">  5  6 -1 -1</clus>
<clus scale="   91.835">  7  8 -1 -1</clus>
<clus scale="  114.435">  2  5  1 -1</clus>
<clus scale="   42.276">  2  5  1 -1</clus>
</clustering>
</event>
<event>
 9    1  0.6344265E-005  0.1810364E+03  0.7546771E-02  0.1200765E+00
         -4   -1    0    0    0  501 -0.00000000000E+00  0.00000000000E+00  0.28662888259E+03  0.28662888259E+03  0.00000000000E+00 0.  1.
         21   -1    0    0  501  502  0.00000000000E+00 -0.00000000000E+00 -0.30471622564E+03  0.30471622564E+03  0.00000000000E+00 0.  1.
        -24    2    1    2    0    0 -0.18378417714E+02  0.11932539510E+02  0.18058531673E+03  0.19949799969E+03  0.81903867578E+02 0.  0.
         23    2    1    2    0    0  0.15107224315E+03  0.60026375163E+02 -0.11238535976E+03  0.21797579160E+03  0.91961884895E+02 0.  0.
         13    1    3    3    0    0 -0.18276306451E+02 -0.30095323523E+02  0.42672912429E+02  0.55323858602E+02  0.00000000000E+00 0. -1.
        -14    1    3    3    0    0 -0.10211126275E+00  0.42027863033E+02  0.13791240430E+03  0.14417414108E+03  0.00000000000E+00 0.  1.
        -13    1    4    4    0    0  0.91183439478E+02  0.19665904937E+02 -0.11199761451E+03  0.14575538792E+03  0.00000000000E+00 0.  1.
         13    1    4    4    0    0  0.59888803669E+02  0.40360470225E+02 -0.38774524489E+00  0.72220403683E+02  0.00000000000E+00 0. -1.
         -3    1    1    2    0  502 -0.13269382543E+03 -0.71958914672E+02 -0.86287300024E+02  0.17387131694E+03  0.00000000000E+00 0.  1.
<scales pt_clust_5="13000.00000" pt_clust_6="13000.00000" pt_clust_7="13000.00000" pt_clust_8="13000.00000" pt_clust_9="155.93976"></scales>
<clustering>
<clus scale="   81.904">  5  6 -1 -1</clus>
<clus scale="   84.784">  1  5  2 -1</clus>
<clus scale="   91.962">  7  8 -1 -1</clus>
<clus scale="  155.940">  2  9  1 -1</clus>
<clus scale="  155.940">  2  5  1 -1</clus>
</clustering>
</event>
<event>
 9    1  0.6270443E-005  0.3043688E+03  0.7546771E-02  0.1083228E+00
         21   -1    0    0  501  502  0.00000000000E+00  0.00000000000E+00  0.86897514352E+02  0.86897514352E+02  0.00000000000E+00 0. -1.
          1   -1    0    0  502    0 -0.00000000000E+00 -0.00000000000E+00 -0.14572143274E+04  0.14572143274E+04  0.00000000000E+00 0. -1.
        -24    2    1    2    0    0  0.31325019994E+03  0.73174018026E+02 -0.86215841972E+03  0.92370262979E+03  0.80182809347E+02 0.  0.
         23    2    1    2    0    0 -0.23733373415E+03 -0.74500558632E+02 -0.29009058723E+03  0.38950092379E+03  0.75370990662E+02 0.  0.
         11    1    3    3    0    0  0.30050886481E+03  0.83963979350E+02 -0.83909914861E+03  0.89523343820E+03  0.00000000000E+00 0. -1.
        -12    1    3    3    0    0  0.12741335130E+02 -0.10789961324E+02 -0.23059271104E+02  0.28469191596E+02  0.00000000000E+00 0.  1.
        -11    1    4    4    0    0 -0.66831038662E+02 -0.53724082773E+02 -0.72529541106E+02  0.11230849982E+03  0.00000000000E+00 0.  1.
         11    1    4    4    0    0 -0.17050269549E+03 -0.20776475860E+02 -0.21756104612E+03  0.27719242398E+03  0.00000000000E+00 0. -1.
          2    1    1    2  501    0 -0.75916465790E+02  0.13265406062E+01 -0.21806780613E+03  0.23090828819E+03  0.00000000000E+00 0. -1.
<scales pt_clust_5="13000.00000" pt_clust_6="13000.00000" pt_clust_7="13000.00000" pt_clust_8="13000.00000" pt_clust_9="75.92809"></scales>
<clustering>
<clus scale="   75.371">  7  8 -1 -1</clus>
<clus scale="   75.928">  1  9  2 -1</clus>
<clus scale="   80.183">  5  6 -1 -1</clus>
<clus scale="  303.137">  1  7  2 -1</clus>
<clus scale="   75.928">  1  5  2 -1</clus>
</clustering>
</event>
<event>
 9    1  0.6270443E-005  0.2922655E+03  0.7546771E-02  0.1122275E+00
          3   -1    0    0  502    0 -0.00000000000E+00  0.00000000000E+00  0.16262180095E+04  0.16262180095E+04  0.00000000000E+00 0. -1.
         21   -1    0    0  501  502  0.00000000000E+00 -0.00000000000E+00 -0.82751893217E+02  0.82751893217E+02  0.00000000000E+00 0.  1.
         23    2    1    2    0    0 -0.45933562789E+02 -0.67767898210E+02  0.16243491899E+03  0.20491024418E+03  0.94343653960E+02 0.  0.
        -24    2    1    2    0    0  0.29498222507E+03  0.61996083217E+02  0.51400484542E+03  0.60195476171E+03  0.85384580559E+02 0.  0.
         13    1    4    4    0    0  0.33417315379E+02  0.19555707511E+02  0.12815512154E+03  0.13387635280E+03  0.00000000000E+00 0. -1.
        -14    1    4    4    0    0  0.26156490969E+03  0.42440375705E+02  0.38584972388E+03  0.46807840891E+03  0.00000000000E+00 0.  1.
        -13    1    3    3    0    0 -0.67770210953E+02 -0.75769204006E+02  0.13248072552E+03  0.16698777321E+03  0.00000000000E+00 0.  1.
         13    1    3    3    0    0  0.21836648164E+02  0.80013057963E+01  0.29954193479E+02  0.37922470970E+02  0.00000000000E+00 0. -1.
          4    1    1    2  501    0 -0.24904866228E+03  0.57718149931E+01  0.86702635187E+03  0.90210489682E+03  0.00000000000E+00 0. -1.
<scales pt_clust_5="13000.00000" pt_clust_6="13000.00000" pt_clust_7="13000.00000" pt_clust_8="13000.00000" pt_clust_9="279.51510"></scales>
<clustering>
<clus scale="   85.385">  5  6 -1 -1</clus>
<clus scale="   94.344">  7  8 -1 -1</clus>
<clus scale="  124.912">  1  7  2 -1</clus>
<clus scale="  279.515">  2  9  1 -1</clus>
<clus scale="  279.515">  2  5  1 -1</clus>
</clustering>
</event>
<event>
 9    1  0.6270443E-005  0.9493313E+02  0.7546771E-02  0.1295912E+00
         21   -1    0    0  501  502  0.00000000000E+00  0.00000000000E+00  0.46798867826E+02  0.46798867826E+02  0.00000000000E+00 0.  1.
          3   -1    0    0  502    0 -0.00000000000E+00 -0.00000000000E+00 -0.57276312127E+03  0.57276312127E+03  0.00000000000E+00 0. -1.
         23    2    1    2    0    0 -0.22618805526E+02 -0.20592129652E+02 -0.43642780578E+03  0.44683906991E+03  0.90886074692E+02 0.  0.
        -24    2    1    2    0    0  0.43379380014E+01  0.30040491735E+00 -0.40175904689E+01  0.82948651458E+02  0.82737112569E+02 0.  0.
         11    1    4    4    0    0  0.34138748802E+02  0.11474489382E+02 -0.25868379607E+02  0.44342881501E+02  0.00000000000E+00 0. -1.
        -12    1    4    4    0    0 -0.29800810800E+02 -0.11174084464E+02  0.21850789138E+02  0.38605769957E+02  0.00000000000E+00 0.  1.
        -11    1    3    3    0    0  0.33678848543E+02  0.38218309955E+01 -0.18075487991E+03  0.18390540460E+03  0.00000000000E+00 0.  1.
         11    1    3    3    0    0 -0.56297654069E+02 -0.24413960647E+02 -0.25567292587E+03  0.26293366531E+03  0.00000000000E+00 0. -1.
          4    1    1    2  501    0  0.18280867524E+02  0.20291724734E+02 -0.85518857197E+02  0.89774267730E+02  0.00000000000E+00 0. -1.
<scales pt_clust_5="13000.00000" pt_clust_6="13000.00000" pt_clust_7="13000.00000" pt_clust_8="13000.00000" pt_clust_9="27.31199"></scales>
<clustering>
<clus scale="   27.312">  1  9  2 -1</clus>
<clus scale="   82.737">  5  6 -1 -1</clus>
<clus scale="   87.163">  1  5  2 -1</clus>
<clus scale="   90.886">  7  8 -1 -1</clus>
<clus scale="   27.312">  1  5  2 -1</clus>
</clustering>
</event>
<event>
 9    1  0.6270443E-005  0.8312862E+02  0.7546771E-02  0.1320996E+00
         21   -1    0    0  501  502  0.00000000000E+00  0.00000000000E+00  0.43936451272E+03  0.43936451272E+03  0.00000000000E+00 0.  1.
          1   -1    0    0  502    0 -0.00000000000E+00 -0.00000000000E+00 -0.26646977192E+02  0.26646977192E+02  0.00000000000E+00 0. -1.
         23    2    1    2    0    0  0.18842575883E+02  0.70108252896E+01  0.76433111300E+02  0.11331709992E+03  0.81206836492E+02 0.  0.
        -24    2    1    2    0    0 -0.30346106269E+01 -0.19359548394E+02  0.22696102001E+03  0.24154588826E+03  0.80306354399E+02 0.  0.
         11    1    4    4    0    0 -0.27719278586E+02 -0.34443816886E+02  0.76742161637E+02  0.88566891668E+02  0.00000000000E+00 0. -1.
        -12    1    4    4    0    0  0.24684667959E+02  0.15084268492E+02  0.15021885837E+03  0.15297899659E+03  0.00000000000E+00 0.  1.
        -13    1    3    3    0    0  0.49290911856E+02  0.58037810691E+01  0.30690436648E+02  0.58353926757E+02  0.00000000000E+00 0. -1.
         13    1    3    3    0    0 -0.30448335973E+02  0.12070442205E+01  0.45742674652E+02  0.54963173158E+02  0.00000000000E+00 0.  1.
          2    1    1    2  501    0 -0.15807965257E+02  0.12348723104E+02  0.10932340422E+03  0.11114850173E+03  0.00000000000E+00 0. -1.
<scales pt_clust_5="13000.00000" pt_clust_6="13000.00000" pt_clust_7="13000.00000" pt_clust_8="13000.00000" pt_clust_9="20.05948"></scales>
<clustering>
<clus scale="   20.059">  1  9  2 -1</clus>
<clus scale="   80.306">  5  6 -1 -1</clus>
<clus scale="   81.207">  7  8 -1 -1</clus>
<clus scale="   82.249">  1  5  2 -1</clus>
<clus scale="   20.059">  1  5  2 -1</clus>
</clustering>
</event>
<event>
 9    1  0.6270443E-005  0.1230460E+03  0.7546771E-02  0.1240691E+00
          1   -1    0    0  502    0 -0.00000000000E+00  0.00000000000E+00  0.55952550662E+02  0.55952550662E+02  0.00000000000E+00 0. -1.
         21   -1    0    0  501  502  0.00000000000E+00 -0.00000000000E+00 -0.41527304101E+03  0.41527304101E+03  0.00000000000E+00 0. -1.
         23    2    1    2    0    0 -0.13314752903E+02  0.81979151005E+02 -0.90585516421E+02  0.15279060871E+03  0.90781994245E+02 0.  0.
        -24    2    1    2    0    0 -0.11675726874E+02 -0.84314196250E+02 -0.12348326445E+03  0.17103065595E+03  0.82208043340E+02 0.  0.
         13    1    4    4    0    0 -0.45681852841E+02 -0.40294586569E+02 -0.79290880189E+02  0.99987644571E+02  0.00000000000E+00 0. -1.
        -14    1    4    4    0    0  0.34006125967E+02 -0.44019609681E+02 -0.44192384261E+02  0.71043011383E+02  0.00000000000E+00 0.  1.
        -13    1    3    3    0    0 -0.32525208351E+02 -0.42346326556E+01 -0.13193104885E+02  0.35353632183E+02  0.00000000000E+00 0.  1.
         13    1    3    3    0    0  0.19210455448E+02  0.86213783660E+02 -0.77392411536E+02  0.11743697652E+03  0.00000000000E+00 0. -1.
          2    1    1    2  501    0  0.24990479778E+02  0.23350452452E+01 -0.14525170948E+03  0.14740432702E+03  0.00000000000E+00 0. -1.
<scales pt_clust_5="13000.00000" pt_clust_6="13000.00000" pt_clust_7="13000.00000" pt_clust_8="13000.00000" pt_clust_9="25.09933"></scales>
<clustering>
<clus scale="   25.099">  2  9  1 -1</clus>
<clus scale="   82.208">  5  6 -1 -1</clus>
<clus scale="   90.782">  7  8 -1 -1</clus>
<clus scale="  116.864">  2  5  1 -1</clus>
<clus scale="   25.099">  2  5  1 -1</clus>
</clustering>
</event>
<event>
 9    1  0.6270443E-005  0.1357132E+03  0.7546771E-02  0.1223576E+00
         21   -1    0    0  501  502  0.00000000000E+00  0.00000000000E+00  0.23251622132E+03  0.23251622132E+03  0.00000000000E+00 0. -1.
          1   -1    0    0  502    0 -0.00000000000E+00 -0.00000000000E+00 -0.10538686797E+03  0.10538686797E+03  0.00000000000E+00 0. -1.
         23    2    1    2    0    0  0.28381609704E+02  0.75800073364E+02  0.31138753188E+02  0.13014031558E+03  0.97034596391E+02 0.  0.
        -24    2    1    2    0    0 -0.56121860292E+02 -0.10351008088E+03  0.89625798651E+02  0.16804027735E+03  0.79628832597E+02 0.  0.
         13    1    4    4    0    0 -0.69454384015E+02 -0.10714958099E+03  0.75814728911E+02  0.14850191004E+03  0.00000000000E+00 0. -1.
        -14    1    4    4    0    0  0.13332523722E+02  0.36395001072E+01  0.13811069740E+02  0.19538367311E+02  0.00000000000E+00 0.  1.
        -13    1    3    3    0    0  0.43505474712E+02  0.92168694051E+02  0.34502135034E+02  0.10760200656E+03  0.00000000000E+00 0.  1.
         13    1    3    3    0    0 -0.15123865008E+02 -0.16368620688E+02 -0.33633818454E+01  0.22538309019E+02  0.00000000000E+00 0. -1.
          2    1    1    2  501    0  0.27740250589E+02  0.27710007517E+02  0.63648015076E+01  0.39722496366E+02  0.00000000000E+00 0. -1.
<scales pt_clust_5="13000.00000" pt_clust_6="13000.00000" pt_clust_7="13000.00000" pt_clust_8="13000.00000" pt_clust_9="39.20928"></scales>
<clustering>
<clus scale="   39.209">  1  9  2 -1</clus>
<clus scale="   79.629">  5  6 -1 -1</clus>
<clus scale="   97.035">  7  8 -1 -1</clus>
<clus scale="  123.867">  1  5  2 -1</clus>
<clus scale="   39.209">  1  5  2 -1</clus>
</clustering>
</event>
<event>
 9    1  0.6270443E-005  0.1001457E+03  0.7546771E-02  0.1285093E+00
         21   -1    0    0  501  502  0.00000000000E+00  0.00000000000E+00  0.38265490957E+02  0.38265490957E+02  0.00000000000E+00 0.  1.
          1   -1    0    0  502    0 -0.00000000000E+00 -0.00000000000E+00 -0.36261245333E+03  0.36261245333E+03  0.00000000000E+00 0. -1.
         23    2    1    2    0    0 -0.34127084534E+02  0.22899455004E+02 -0.17232807168E+03  0.19866146743E+03  0.89890886150E+02 0.  0.
        -24    2    1    2    0    0  0.26086089218E+02 -0.41573676171E+02 -0.15568452710E+03  0.18155682943E+03  0.79475503980E+02 0.  0.
         11    1    4    4    0    0 -0.24044636411E+02 -0.21679194455E+02 -0.95019242438E+02  0.10038320799E+03  0.00000000000E+00 0. -1.
        -12    1    4    4    0    0  0.50130725628E+02 -0.19894481716E+02 -0.60665284660E+02  0.81173621440E+02  0.00000000000E+00 0.  1.
        -11    1    3    3    0    0 -0.21245836504E+02 -0.45874085687E+01  0.18910783746E+01  0.21817563190E+02  0.00000000000E+00 0.  1.
         11    1    3    3    0    0 -0.12881248031E+02  0.27486863573E+02 -0.17421915006E+03  0.17684390424E+03  0.00000000000E+00 0. -1.
          2    1    1    2  501    0  0.80409953168E+01  0.18674221167E+02  0.36656364037E+01  0.20659647435E+02  0.00000000000E+00 0. -1.
<scales pt_clust_5="13000.00000" pt_clust_6="13000.00000" pt_clust_7="13000.00000" pt_clust_8="13000.00000" pt_clust_9="20.33185"></scales>
<clustering>
<clus scale="   20.332">  1  9  2 -1</clus>
<clus scale="   79.476">  5  6 -1 -1</clus>
<clus scale="   89.891">  7  8 -1 -1</clus>
<clus scale="   90.913">  1  5  2 -1</clus>
<clus scale="   20.332">  1  5  2 -1</clus>
</clustering>
</event>
<event>
 9    1  0.6270443E-005  0.1186905E+03  0.7546771E-02  0.1248761E+00
         21   -1    0    0  501  502  0.00000000000E+00  0.00000000000E+00  0.30924346251E+02  0.30924346251E+02  0.00000000000E+00 0. -1.
          1   -1    0    0  502    0 -0.00000000000E+00 -0.00000000000E+00 -0.73755930181E+03  0.73755930181E+03  0.00000000000E+00 0. -1.
        -24    2    1    2    0    0  0.78815531113E+02 -0.47462160669E+02 -0.41741070179E+03  0.43494415100E+03  0.80499539649E+02 0.  0.
         23    2    1    2    0    0 -0.59798586195E+02 -0.77924223395E+00 -0.23171163700E+03  0.25610192068E+03  0.91221888401E+02 0.  0.
         13    1    3    3    0    0  0.83062919347E+02 -0.64001022831E+02 -0.36901639758E+03  0.38362570453E+03  0.00000000000E+00 0. -1.
        -14    1    3    3    0    0 -0.42473882342E+01  0.16538862162E+02 -0.48394304209E+02  0.51318446472E+02  0.00000000000E+00 0.  1.
        -11    1    4    4    0    0 -0.34028988901E+02  0.20066525063E+02 -0.21570719715E+03  0.21929485269E+03  0.00000000000E+00 0.  1.
         11    1    4    4    0    0 -0.25769597294E+02 -0.20845767297E+02 -0.16004439851E+02  0.36807067988E+02  0.00000000000E+00 0. -1.
          2    1    1    2  501    0 -0.19016944918E+02  0.48241402903E+02 -0.57512616765E+02  0.77437576377E+02  0.00000000000E+00 0. -1.
<scales pt_clust_5="13000.00000" pt_clust_6="13000.00000" pt_clust_7="13000.00000" pt_clust_8="13000.00000" pt_clust_9="51.85438"></scales>
<clustering>
<clus scale="   51.854">  1  9  2 -1</clus>
<clus scale="   80.500">  5  6 -1 -1</clus>
<clus scale="   91.222">  7  8 -1 -1</clus>
<clus scale="  110.662">  2  5  1 -1</clus>
<clus scale="   51.854">  1  5  2 -1</clus>
</clustering>
</event>
<event>
 9    1  0.6270443E-005  0.9899514E+02  0.7546771E-02  0.1289032E+00
         21   -1    0    0  501  502  0.00000000000E+00  0.00000000000E+00  0.67072190405E+02  0.67072190405E+02  0.00000000000E+00 0. -1.
          1   -1    0    0  502    0 -0.00000000000E+00 -0.00000000000E+00 -0.24642930132E+03  0.24642930132E+03  0.00000000000E+00 0. -1.
         23    2    1    2    0    0 -0.24484502668E+02 -0.97840491616E+01 -0.12472975144E+03  0.15774878687E+03  0.92908290133E+02 0.  0.
        -24    2    1    2    0    0  0.57857598121E+02 -0.13894811796E+02 -0.19744799875E+02  0.10198240710E+03  0.80436228035E+02 0.  0.
         13    1    4    4    0    0  0.61987658320E+02 -0.39858400438E+02 -0.12912322802E+02  0.74819048040E+02  0.00000000000E+00 0. -1.
        -14    1    4    4    0    0 -0.41300601992E+01  0.25963588642E+02 -0.68324770735E+01  0.27163359059E+02  0.00000000000E+00 0.  1.
        -13    1    3    3    0    0  0.44651081044E+01 -0.38747422080E+02 -0.17092168218E+02  0.42584529146E+02  0.00000000000E+00 0. -1.
         13    1    3    3    0    0 -0.28949610773E+02  0.28963372918E+02 -0.10763758323E+03  0.11516425772E+03  0.00000000000E+00 0.  1.
          2    1    1    2  501    0 -0.33373095453E+02  0.23678860957E+02 -0.34882559592E+02  0.53770297749E+02  0.00000000000E+00 0. -1.
<scales pt_clust_5="13000.00000" pt_clust_6="13000.00000" pt_clust_7="13000.00000" pt_clust_8="13000.00000" pt_clust_9="40.92009"></scales>
<clustering>
<clus scale="   40.920">  1  9  2 -1</clus>
<clus scale="   80.436">  5  6 -1 -1</clus>
<clus scale="   87.396">  1  5  2 -1</clus>
<clus scale="   92.908">  7  8 -1 -1</clus>
<clus scale="   40.920">  1  5  2 -1</clus>
</clustering>
</event>
<event>
 9    1  0.6270443E-005  0.1011417E+03  0.7546771E-02  0.1284121E+00
         21   -1    0    0  501  502  0.00000000000E+00  0.00000000000E+00  0.30412643705E+02  0.30412643705E+02  0.00000000000E+00 0. -1.
          3   -1    0    0  502    0 -0.00000000000E+00 -0.00000000000E+00 -0.48237808759E+03  0.48237808759E+03  0.00000000000E+00 0. -1.
        -24    2    1    2    0    0 -0.40352445331E+02  0.19683283550E+02 -0.31241468965E+03  0.32541767230E+03  0.79233652190E+02 0.  0.
         23    2    1    2    0    0  0.21131329821E+02 -0.33008595523E+02 -0.99160970647E+02  0.14070026351E+03  0.91801773254E+02 0.  0.
         11    1    3    3    0    0 -0.52921232439E+02  0.11617999030E+02 -0.30290566063E+03  0.30771329836E+03  0.00000000000E+00 0. -1.
        -12    1    3    3    0    0  0.12568787108E+02  0.80652845202E+01 -0.95090290227E+01  0.17704373943E+02  0.00000000000E+00 0.  1.
        -11    1    4    4    0    0  0.48712220932E+02  0.71363037975E+01 -0.63424221693E+02  0.80289720372E+02  0.00000000000E+00 0.  1.
         11    1    4    4    0    0 -0.27580891111E+02 -0.40144899320E+02 -0.35736748954E+02  0.60410543134E+02  0.00000000000E+00 0. -1.
          4    1    1    2  501    0  0.19221115510E+02  0.13325311973E+02 -0.40389783584E+02  0.46672795487E+02  0.00000000000E+00 0. -1.
<scales pt_clust_5="13000.00000" pt_clust_6="13000.00000" pt_clust_7="13000.00000" pt_clust_8="13000.00000" pt_clust_9="23.38836"></scales>
<clustering>
<clus scale="   23.388">  1  9  2 -1</clus>
<clus scale="   79.234">  5  6 -1 -1</clus>
<clus scale="   89.889">  2  5  1 -1</clus>
<clus scale="   91.802">  7  8 -1 -1</clus>
<clus scale="   23.388">  1  5  2 -1</clus>
</clustering>
</event>
<event>
 9    1  0.6270443E-005  0.1895816E+03  0.7546771E-02  0.1179896E+00
         21   -1    0    0  501  502  0.00000000000E+00  0.00000000000E+00  0.13138947287E+03  0.13138947287E+03  0.00000000000E+00 0. -1.
          1   -1    0    0  502    0 -0.00000000000E+00 -0.00000000000E+00 -0.10215011632E+04  0.10215011632E+04  0.00000000000E+00 0. -1.
         23    2    1    2    0    0 -0.20863803601E+02 -0.70791440167E+02  0.13338356569E+02  0.11780686628E+03  0.90850534866E+02 0.  0.
        -24    2    1    2    0    0 -0.10892200598E+03 -0.61575783397E+02 -0.81870101097E+03  0.83125090359E+03  0.71071364632E+02 0.  0.
         11    1    4    4    0    0 -0.11821740685E+03 -0.56054708146E+02 -0.78584873317E+03  0.79666537330E+03  0.00000000000E+00 0. -1.
        -12    1    4    4    0    0  0.92954008609E+01 -0.55210752509E+01 -0.32852277799E+02  0.34585530294E+02  0.00000000000E+00 0.  1.
        -13    1    3    3    0    0  0.57594328606E+01 -0.67858617469E+02  0.40846552047E+02  0.79412869522E+02  0.00000000000E+00 0.  1.
         13    1    3    3    0    0 -0.26623236462E+02 -0.29328226984E+01 -0.27508195478E+02  0.38393996759E+02  0.00000000000E+00 0. -1.
          2    1    1    2  501    0  0.12978580959E+03  0.13236722356E+03 -0.84749035900E+02  0.20383286617E+03  0.00000000000E+00 0. -1.
<scales pt_clust_5="13000.00000" pt_clust_6="13000.00000" pt_clust_7="13000.00000" pt_clust_8="13000.00000" pt_clust_9="175.75565"></scales>
<clustering>
<clus scale="   71.071">  5  6 -1 -1</clus>
<clus scale="   90.851">  7  8 -1 -1</clus>
<clus scale="  117.049">  2  7  1 -1</clus>
<clus scale="  175.756">  1  9  2 -1</clus>
<clus scale="  175.756">  1  5  2 -1</clus>
</clustering>
</event>
<event>
 9    1  0.6984139E-005  0.9382990E+02  0.7546771E-02  0.1300517E+00
         -2   -1    0    0    0  501 -0.00000000000E+00  0.00000000000E+00  0.22608473833E+03  0.22608473833E+03  0.00000000000E+00 0.  1.
         21   -1    0    0  501  502  0.00000000000E+00 -0.00000000000E+00 -0.45049457047E+03  0.45049457047E+03  0.00000000000E+00 0.  1.
        -24    2    1    2    0    0  0.12877364191E+02 -0.16374145485E+02  0.20211589764E+03  0.21864454799E+03  0.80750623133E+02 0.  0.
         23    2    1    2    0    0  0.24150521990E+02 -0.91390001700E+01 -0.15026291537E+03  0.17803633713E+03  0.91930542075E+02 0.  0.
         13    1    3    3    0    0  0.31534114953E+02  0.21982983021E+02  0.12155950764E+03  0.12749261095E+03  0.00000000000E+00 0. -1.
        -14    1    3    3    0    0 -0.18656750762E+02 -0.38357128506E+02  0.80556390005E+02  0.91151937044E+02  0.00000000000E+00 0.  1.
        -13    1    4    4    0    0 -0.20034244451E+02  0.26104501956E+02 -0.27487082384E+02  0.42876050087E+02  0.00000000000E+00 0. -1.
         13    1    4    4    0    0  0.44184766441E+02 -0.35243502126E+02 -0.12277583299E+03  0.13516028704E+03  0.00000000000E+00 0.  1.
         -1    1    1    2    0  502 -0.37027886182E+02  0.25513145655E+02 -0.27626281441E+03  0.27989842369E+03  0.00000000000E+00 0.  1.
<scales pt_clust_5="13000.00000" pt_clust_6="13000.00000" pt_clust_7="13000.00000" pt_clust_8="13000.00000" pt_clust_9="44.96649"></scales>
<clustering>
<clus scale="   44.966">  2  9  1 -1</clus>
<clus scale="   80.751">  5  6 -1 -1</clus>
<clus scale="   82.907">  1  5  2 -1</clus>
<clus scale="   91.931">  7  8 -1 -1</clus>
<clus scale="   44.966">  2  5  1 -1</clus>
</clustering>
</event>
<event>
 9    1  0.6270443E-005  0.5174560E+03  0.7546771E-02  0.1009320E+00
         21   -1    0    0  501  502  0.00000000000E+00  0.00000000000E+00  0.79353777605E+03  0.79353777605E+03  0.00000000000E+00 0. -1.
          1   -1    0    0  502    0 -0.00000000000E+00 -0.00000000000E+00 -0.26110278656E+04  0.26110278656E+04  0.00000000000E+00 0. -1.
        -24    2    1    2    0    0 -0.65014117681E+02 -0.10684806601E+03  0.89958104284E+02  0.17425863070E+03  0.81426440054E+02 0.  0.
         23    2    1    2    0    0 -0.18005016237E+03 -0.26850341550E+03  0.59715373485E+03  0.68590608790E+03  0.96759667570E+02 0.  0.
         13    1    3    3    0    0 -0.60706560779E+02 -0.36133715150E+02  0.17207496964E+02  0.72711964930E+02  0.00000000000E+00 0. -1.
        -14    1    3    3    0    0 -0.43075569017E+01 -0.70714350858E+02  0.72750607320E+02  0.10154666577E+03  0.00000000000E+00 0.  1.
        -11    1    4    4    0    0 -0.78158667208E+02 -0.15581113327E+03  0.23025355458E+03  0.28879505867E+03  0.00000000000E+00 0.  1.
         11    1    4    4    0    0 -0.10189149517E+03 -0.11269228223E+03  0.36690018026E+03  0.39711102923E+03  0.00000000000E+00 0. -1.
          2    1    1    2  501    0  0.24506428006E+03  0.37535148151E+03 -0.25046019287E+04  0.25444009231E+04  0.00000000000E+00 0. -1.
<scales pt_clust_5="13000.00000" pt_clust_6="13000.00000" pt_clust_7="13000.00000" pt_clust_8="13000.00000" pt_clust_9="448.26938"></scales>
<clustering>
<clus scale="   81.426">  5  6 -1 -1</clus>
<clus scale="   96.760">  7  8 -1 -1</clus>
<clus scale="  127.966">  5  7 -1 -1</clus>
<clus scale="  448.269">  1  9  2 -1</clus>
<clus scale="  448.269">  1  5  2 -1</clus>
</clustering>
</event>
<event>
 9    1  0.6270443E-005  0.1267759E+03  0.7546771E-02  0.1242980E+00
         21   -1    0    0  501  502  0.00000000000E+00  0.00000000000E+00  0.16226216086E+03  0.16226216086E+03  0.00000000000E+00 0. -1.
          1   -1    0    0  502    0 -0.00000000000E+00 -0.00000000000E+00 -0.15393178717E+03  0.15393178717E+03  0.00000000000E+00 0. -1.
        -24    2    1    2    0    0 -0.85779043858E+02  0.30809578534E+02  0.24983769087E+02  0.11233583295E+03  0.60727886117E+02 0.  0.
         23    2    1    2    0    0  0.68050156526E+02 -0.16252696511E+02  0.52939380772E+02  0.13058212478E+03  0.96716799612E+02 0.  0.
         13    1    3    3    0    0 -0.57594061706E+01  0.25417249566E+02 -0.53227079035E+01  0.26599596884E+02  0.00000000000E+00 0. -1.
        -14    1    3    3    0    0 -0.80019637687E+02  0.53923289680E+01  0.30306476991E+02  0.85736236067E+02  0.00000000000E+00 0.  1.
        -11    1    4    4    0    0 -0.24134942890E+02  0.50882808027E+01  0.12916895724E+02  0.27842993104E+02  0.00000000000E+00 0.  1.
         11    1    4    4    0    0  0.92185099416E+02 -0.21340977314E+02  0.40022485048E+02  0.10273913167E+03  0.00000000000E+00 0. -1.
          2    1    1    2  501    0  0.17728887332E+02 -0.14556882023E+02 -0.69592776173E+02  0.73275990308E+02  0.00000000000E+00 0. -1.
<scales pt_clust_5="13000.00000" pt_clust_6="13000.00000" pt_clust_7="13000.00000" pt_clust_8="13000.00000" pt_clust_9="22.93942"></scales>
<clustering>
<clus scale="   22.939">  1  9  2 -1</clus>
<clus scale="   60.728">  5  6 -1 -1</clus>
<clus scale="   96.717">  7  8 -1 -1</clus>
<clus scale="  102.009">  2  5  1 -1</clus>
<clus scale="   22.939">  1  5  2 -1</clus>
</clustering>
</event>
<event>
 9    1  0.6270443E-005  0.1116901E+03  0.7546771E-02  0.1258970E+00
          1   -1    0    0  502    0 -0.00000000000E+00  0.00000000000E+00  0.10168699326E+03  0.10168699326E+03  0.00000000000E+00 0. -1.
         21   -1    0    0  501  502  0.00000000000E+00 -0.00000000000E+00 -0.40544378121E+03  0.40544378121E+03  0.00000000000E+00 0.  1.
         23    2    1    2    0    0 -0.58000921875E+02  0.41290857825E+02 -0.10982204474E+01  0.11482982954E+03  0.90086856902E+02 0.  0.
        -24    2    1    2    0    0 -0.11582102677E+02 -0.73866535771E+02 -0.29358889036E+03  0.31493666931E+03  0.86024757608E+02 0.  0.
         11    1    4    4    0    0  0.25462070307E+02 -0.11393088522E+01 -0.31995396137E+02  0.40906239413E+02  0.00000000000E+00 0. -1.
        -12    1    4    4    0    0 -0.37044172984E+02 -0.72727226918E+02 -0.26159349423E+03  0.27403042990E+03  0.00000000000E+00 0.  1.
        -11    1    3    3    0    0 -0.63172754943E+02 -0.42401406835E+01  0.17006553354E+02  0.65559123065E+02  0.00000000000E+00 0.  1.
         11    1    3    3    0    0  0.51718330677E+01  0.45530998508E+02 -0.18104773802E+02  0.49270706478E+02  0.00000000000E+00 0. -1.
          2    1    1    2  501    0  0.69583024552E+02  0.32575677946E+02 -0.90696771413E+01  0.77364275624E+02  0.00000000000E+00 0. -1.
<scales pt_clust_5="13000.00000" pt_clust_6="13000.00000" pt_clust_7="13000.00000" pt_clust_8="13000.00000" pt_clust_9="76.83084"></scales>
<clustering>
<clus scale="   76.831">  2  9  1 -1</clus>
<clus scale="   86.025">  5  6 -1 -1</clus>
<clus scale="   90.087">  7  8 -1 -1</clus>
<clus scale="  108.440">  2  5  1 -1</clus>
<clus scale="   76.831">  2  5  1 -1</clus>
</clustering>
</event>
<event>
 9    1  0.6277203E-005  0.1218360E+03  0.7546771E-02  0.1245230E+00
         21   -1    0    0  501  502  0.00000000000E+00  0.00000000000E+00  0.54929047230E+02  0.54929047230E+02  0.00000000000E+00 0.  1.
          1   -1    0    0  502    0 -0.00000000000E+00 -0.00000000000E+00 -0.65745283894E+03  0.65745283894E+03  0.00000000000E+00 0. -1.
         23    2    1    2    0    0 -0.69398754129E+02  0.34746954744E+01 -0.24557787757E+03  0.27150927837E+03  0.92631170257E+02 0.  0.
        -24    2    1    2    0    0  0.10719696415E+03 -0.26844018927E+02 -0.71641575839E+02  0.15212809199E+03  0.76148870693E+02 0.  0.
         11    1    4    4    0    0  0.22203682367E+02 -0.19109053072E+01 -0.58477683798E+02  0.62580304986E+02  0.00000000000E+00 0. -1.
        -12    1    4    4    0    0  0.84993281787E+02 -0.24933113620E+02 -0.13163892041E+02  0.89547787004E+02  0.00000000000E+00 0.  1.
        -13    1    3    3    0    0 -0.59606601318E+02 -0.35431371599E+02 -0.19493367723E+03  0.20689965571E+03  0.00000000000E+00 0. -1.
         13    1    3    3    0    0 -0.97921528105E+01  0.38906067073E+02 -0.50644200347E+02  0.64609622662E+02  0.00000000000E+00 0.  1.
          2    1    1    2  501    0 -0.37798210025E+02  0.23369323452E+02 -0.28530433830E+03  0.28874451581E+03  0.00000000000E+00 0. -1.
<scales pt_clust_5="13000.00000" pt_clust_6="13000.00000" pt_clust_7="13000.00000" pt_clust_8="13000.00000" pt_clust_9="44.43908"></scales>
<clustering>
<clus scale="   44.439">  1  9  2 -1</clus>
<clus scale="   76.149">  5  6 -1 -1</clus>
<clus scale="   92.631">  7  8 -1 -1</clus>
<clus scale="  109.828">  1  5  2 -1</clus>
<clus scale="   44.439">  1  5  2 -1</clus>
</clustering>
</event>
<event>
 9    1  0.6270443E-005  0.2213795E+03  0.7546771E-02  0.1169177E+00
         21   -1    0    0  501  502  0.00000000000E+00  0.00000000000E+00  0.27911310828E+03  0.27911310828E+03  0.00000000000E+00 0. -1.
          1   -1    0    0  502    0 -0.00000000000E+00 -0.00000000000E+00 -0.24926165991E+03  0.24926165991E+03  0.00000000000E+00 0. -1.
        -24    2    1    2    0    0  0.31656058960E+02 -0.36947430718E+02  0.13303088846E+02  0.94694485477E+02  0.80142714587E+02 0.  0.
         23    2    1    2    0    0 -0.10413237312E+03 -0.16262860763E+03  0.43849303463E+02  0.21960377130E+03  0.94928603709E+02 0.  0.
         13    1    3    3    0    0  0.15414868710E+02 -0.60615626435E+02  0.19128419349E+02  0.65404654056E+02  0.00000000000E+00 0. -1.
        -14    1    3    3    0    0  0.16241190250E+02  0.23668195716E+02 -0.58253305025E+01  0.29289831421E+02  0.00000000000E+00 0.  1.
        -13    1    4    4    0    0 -0.38821696255E+02 -0.12644126641E+03 -0.14426017059E+01  0.13227471055E+03  0.00000000000E+00 0.  1.
         13    1    4    4    0    0 -0.65310676862E+02 -0.36187341222E+02  0.45291905169E+02  0.87329060745E+02  0.00000000000E+00 0. -1.
          2    1    1    2  501    0  0.72476314157E+02  0.19957603835E+03 -0.27300943945E+02  0.21407651141E+03  0.00000000000E+00 0. -1.
<scales pt_clust_5="13000.00000" pt_clust_6="13000.00000" pt_clust_7="13000.00000" pt_clust_8="13000.00000" pt_clust_9="199.99374"></scales>
<clustering>
<clus scale="   80.143">  5  6 -1 -1</clus>
<clus scale="   93.755">  2  5  1 -1</clus>
<clus scale="   94.929">  7  8 -1 -1</clus>
<clus scale="  199.994">  1  9  2 -1</clus>
<clus scale="  199.994">  1  5  2 -1</clus>
</clustering>
</event>
<event>
 9    1  0.6270443E-005  0.9187843E+02  0.7546771E-02  0.1304589E+00
         21   -1    0    0  501  502  0.00000000000E+00  0.00000000000E+00  0.12788042537E+03  0.12788042537E+03  0.00000000000E+00 0. -1.
          1   -1    0    0  502    0 -0.00000000000E+00 -0.00000000000E+00 -0.23426833896E+03  0.23426833896E+03  0.00000000000E+00 0. -1.
         23    2    1    2    0    0  0.94779371835E+01 -0.57699359589E+01 -0.15240201289E+02  0.93218078295E+02  0.91291965317E+02 0.  0.
        -24    2    1    2    0    0  0.85870477230E+01  0.18217254871E+02  0.68249954736E+02  0.10803041977E+03  0.81282898017E+02 0.  0.
         11    1    4    4    0    0 -0.30397517749E+01  0.36241053602E+02  0.76772269965E+02  0.84950782766E+02  0.00000000000E+00 0. -1.
        -12    1    4    4    0    0  0.11626799498E+02 -0.18023798731E+02 -0.85223152291E+01  0.23079637002E+02  0.00000000000E+00 0.  1.
        -11    1    3    3    0    0 -0.12600046318E+02 -0.44011888921E+02 -0.17480401140E+02  0.49003795339E+02  0.00000000000E+00 0.  1.
         11    1    3    3    0    0  0.22077983501E+02  0.38241952963E+02  0.22401998509E+01  0.44214282955E+02  0.00000000000E+00 0. -1.
          2    1    1    2  501    0 -0.18064984906E+02 -0.12447318912E+02 -0.15939766704E+03  0.16090026627E+03  0.00000000000E+00 0. -1.
<scales pt_clust_5="13000.00000" pt_clust_6="13000.00000" pt_clust_7="13000.00000" pt_clust_8="13000.00000" pt_clust_9="21.93809"></scales>
<clustering>
<clus scale="   21.938">  1  9  2 -1</clus>
<clus scale="   81.283">  5  6 -1 -1</clus>
<clus scale="   81.941">  1  5  2 -1</clus>
<clus scale="   91.292">  7  8 -1 -1</clus>
<clus scale="   21.938">  1  5  2 -1</clus>
</clustering>
</event>
<event>
 9    1  0.6270443E-005  0.1381019E+03  0.7546771E-02  0.1220034E+00
         -4   -1    0    0    0  501 -0.00000000000E+00  0.00000000000E+00  0.11263211600E+03  0.11263211600E+03  0.00000000000E+00 0.  1.
         21   -1    0    0  501  502  0.00000000000E+00 -0.00000000000E+00 -0.44023932770E+03  0.44023932770E+03  0.00000000000E+00 0. -1.
        -24    2    1    2    0    0  0.63364915972E+02  0.40684670573E+02 -0.15665357063E+03  0.19034486399E+03  0.77591694540E+02 0.  0.
         23    2    1    2    0    0 -0.42931430428E+02 -0.14000106323E+03 -0.19136751881E+03  0.25909544521E+03  0.95213008825E+02 0.  0.
         11    1    3    3    0    0  0.28296753648E+02 -0.12095885221E+02 -0.10240000570E+03  0.10692416880E+03  0.00000000000E+00 0. -1.
        -12    1    3    3    0    0  0.35068162324E+02  0.52780555794E+02 -0.54253564926E+02  0.83420695189E+02  0.00000000000E+00 0.  1.
        -11    1    4    4    0    0 -0.65999207890E+02 -0.73018626173E+02 -0.14188609206E+03  0.17268259418E+03  0.00000000000E+00 0. -1.
         11    1    4    4    0    0  0.23067777462E+02 -0.66982437055E+02 -0.49481426744E+02  0.86412851032E+02  0.00000000000E+00 0.  1.
         -3    1    1    2    0  502 -0.20433485544E+02  0.99316392655E+02  0.20413877732E+02  0.10343113451E+03  0.00000000000E+00 0.  1.
<scales pt_clust_5="13000.00000" pt_clust_6="13000.00000" pt_clust_7="13000.00000" pt_clust_8="13000.00000" pt_clust_9="101.39666"></scales>
<clustering>
<clus scale="   77.592">  5  6 -1 -1</clus>
<clus scale="   95.213">  7  8 -1 -1</clus>
<clus scale="  101.397">  2  9  1 -1</clus>
<clus scale="  126.598">  1  5  2 -1</clus>
<clus scale="  101.397">  2  5  1 -1</clus>
</clustering>
</event>
<event>
 9    1  0.6270443E-005  0.8509014E+02  0.7546771E-02  0.1316178E+00
         21   -1    0    0  501  502  0.00000000000E+00  0.00000000000E+00  0.63895448526E+03  0.63895448526E+03  0.00000000000E+00 0. -1.
         -2   -1    0    0    0  501 -0.00000000000E+00 -0.00000000000E+00 -0.42845892570E+02  0.42845892570E+02  0.00000000000E+00 0.  1.
        -24    2    1    2    0    0  0.16913310048E+02 -0.13368055950E+02  0.15983800576E+02  0.85385895361E+02  0.81058647096E+02 0.  0.
         23    2    1    2    0    0 -0.40384211184E+02  0.43083183006E+02  0.37691276337E+03  0.38970453930E+03  0.79494349444E+02 0.  0.
         13    1    3    3    0    0  0.32347641793E+02  0.18596648302E+02 -0.13049681953E+02  0.39528463880E+02  0.00000000000E+00 0. -1.
        -14    1    3    3    0    0 -0.15434331744E+02 -0.31964704252E+02  0.29033482529E+02  0.45857431481E+02  0.00000000000E+00 0.  1.
        -11    1    4    4    0    0 -0.61830110123E+02  0.26661126942E+02  0.31564259281E+03  0.32274451909E+03  0.00000000000E+00 0. -1.
         11    1    4    4    0    0  0.21445898939E+02  0.16422056064E+02  0.61270170557E+02  0.66960020212E+02  0.00000000000E+00 0.  1.
         -1    1    1    2    0  502  0.23470901136E+02 -0.29715127057E+02  0.20321202875E+03  0.20670994317E+03  0.00000000000E+00 0.  1.
<scales pt_clust_5="13000.00000" pt_clust_6="13000.00000" pt_clust_7="13000.00000" pt_clust_8="13000.00000" pt_clust_9="37.86650"></scales>
<clustering>
<clus scale="   37.867">  1  9  2 -1</clus>
<clus scale="   79.494">  7  8 -1 -1</clus>
<clus scale="   81.059">  5  6 -1 -1</clus>
<clus scale="   83.601">  1  7  2 -1</clus>
<clus scale="   37.867">  1  5  2 -1</clus>
</clustering>
</event>
<event>
 9    1  0.6270443E-005  0.1322146E+03  0.7546771E-02  0.1227098E+00
         21   -1    0    0  501  502  0.00000000000E+00  0.00000000000E+00  0.13943706939E+03  0.13943706939E+03  0.00000000000E+00 0. -1.
          1   -1    0    0  502    0 -0.00000000000E+00 -0.00000000000E+00 -0.15394064653E+03  0.15394064653E+03  0.00000000000E+00 0. -1.
        -24    2    1    2    0    0  0.80290844448E+02 -0.39462432246E+02 -0.16742933243E+02  0.12153820059E+03  0.80543808746E+02 0.  0.
         23    2    1    2    0    0 -0.10262903218E+03  0.21589561565E+02  0.15353166518E+02  0.14036879622E+03  0.92026364790E+02 0.  0.
         13    1    3    3    0    0  0.75842869031E+02 -0.58971343085E+02 -0.99810684028E+00  0.96076825017E+02  0.00000000000E+00 0. -1.
        -14    1    3    3    0    0  0.44479754167E+01  0.19508910839E+02 -0.15744826402E+02  0.25461375569E+02  0.00000000000E+00 0.  1.
        -13    1    4    4    0    0  0.51027140977E+01 -0.21568983823E+02 -0.45305704612E+01  0.22622661714E+02  0.00000000000E+00 0.  1.
         13    1    4    4    0    0 -0.10773174627E+03  0.43158545387E+02  0.19883736980E+02  0.11774613451E+03  0.00000000000E+00 0. -1.
          2    1    1    2  501    0  0.22338187729E+02  0.17872870681E+02 -0.13113810415E+02  0.31470719105E+02  0.00000000000E+00 0. -1.
<scales pt_clust_5="13000.00000" pt_clust_6="13000.00000" pt_clust_7="13000.00000" pt_clust_8="13000.00000" pt_clust_9="28.60830"></scales>
<clustering>
<clus scale="   28.608">  1  9  2 -1</clus>
<clus scale="   80.544">  5  6 -1 -1</clus>
<clus scale="   92.026">  7  8 -1 -1</clus>
<clus scale="  124.496">  2  5  1 -1</clus>
<clus scale="   28.608">  1  5  2 -1</clus>
</clustering>
</event>
<event>
 9    1  0.6270443E-005  0.1020383E+03  0.7546771E-02  0.1279322E+00
         21   -1    0    0  501  502  0.00000000000E+00  0.00000000000E+00  0.47103406015E+02  0.47103406015E+02  0.00000000000E+00 0.  1.
         -2   -1    0    0    0  501 -0.00000000000E+00 -0.00000000000E+00 -0.59938620442E+03  0.59938620442E+03  0.00000000000E+00 0.  1.
         23    2    1    2    0    0  0.57477099193E+02  0.47759788659E+01 -0.41882068607E+03  0.43253490066E+03  0.91374210269E+02 0.  0.
        -24    2    1    2    0    0 -0.11198605502E+02  0.41797611606E+02 -0.10740141073E+03  0.14331507164E+03  0.84449379101E+02 0.  0.
         11    1    4    4    0    0  0.30978898877E+02 -0.53780035875E+01 -0.31711376374E+02  0.44656763091E+02  0.00000000000E+00 0. -1.
        -12    1    4    4    0    0 -0.42177504379E+02  0.47175615193E+02 -0.75690034355E+02  0.98658308546E+02  0.00000000000E+00 0.  1.
        -11    1    3    3    0    0  0.55517408313E+02  0.41521319273E+02 -0.23252479780E+03  0.24263961789E+03  0.00000000000E+00 0.  1.
         11    1    3    3    0    0  0.19596908798E+01 -0.36745340407E+02 -0.18629588828E+03  0.18989528277E+03  0.00000000000E+00 0. -1.
         -1    1    1    2    0  502 -0.46278493691E+02 -0.46573590472E+02 -0.26060701600E+02  0.70639638133E+02  0.00000000000E+00 0.  1.
<scales pt_clust_5="13000.00000" pt_clust_6="13000.00000" pt_clust_7="13000.00000" pt_clust_8="13000.00000" pt_clust_9="65.65667"></scales>
<clustering>
<clus scale="   65.657">  1  9  2 -1</clus>
<clus scale="   84.449">  5  6 -1 -1</clus>
<clus scale="   91.374">  7  8 -1 -1</clus>
<clus scale="   95.887">  1  5  2 -1</clus>
<clus scale="   65.657">  1  5  2 -1</clus>
</clustering>
</event>
<event>
 9    1  0.6270443E-005  0.2410908E+03  0.7546771E-02  0.1120403E+00
         21   -1    0    0  501  502  0.00000000000E+00  0.00000000000E+00  0.10986799811E+03  0.10986799811E+03  0.00000000000E+00 0. -1.
          1   -1    0    0  502    0 -0.00000000000E+00 -0.00000000000E+00 -0.62164648069E+03  0.62164648069E+03  0.00000000000E+00 0. -1.
         23    2    1    2    0    0 -0.48394874449E+02 -0.20432495362E+03 -0.23499161478E+03  0.32983066569E+03  0.97347103044E+02 0.  0.
        -24    2    1    2    0    0  0.49113088723E+02  0.22894824354E+03 -0.18834893627E+03  0.30987918375E+03  0.75633279847E+02 0.  0.
         11    1    4    4    0    0  0.47208887282E+02  0.17770490197E+03 -0.10421309230E+03  0.21134824303E+03  0.00000000000E+00 0. -1.
        -12    1    4    4    0    0  0.19042014413E+01  0.51243341565E+02 -0.84135843974E+02  0.98530940720E+02  0.00000000000E+00 0.  1.
        -11    1    3    3    0    0 -0.70799803871E+02 -0.16156739531E+03 -0.14765066272E+03  0.23003772225E+03  0.00000000000E+00 0. -1.
         11    1    3    3    0    0  0.22404929421E+02 -0.42757558308E+02 -0.87340952059E+02  0.99792943445E+02  0.00000000000E+00 0.  1.
          2    1    1    2  501    0 -0.71821427423E+00 -0.24623289919E+02 -0.88437931532E+02  0.91804629359E+02  0.00000000000E+00 0. -1.
<scales pt_clust_5="13000.00000" pt_clust_6="13000.00000" pt_clust_7="13000.00000" pt_clust_8="13000.00000" pt_clust_9="24.63377"></scales>
<clustering>
<clus scale="   24.634">  1  9  2 -1</clus>
<clus scale="   75.633">  5  6 -1 -1</clus>
<clus scale="   97.347">  7  8 -1 -1</clus>
<clus scale="  233.171">  1  5  2 -1</clus>
<clus scale="   24.634">  1  5  2 -1</clus>
</clustering>
</event>
<event>
 9    1  0.6270443E-005  0.1050655E+03  0.7546771E-02  0.1275389E+00
         -4   -1    0    0    0  501 -0.00000000000E+00  0.00000000000E+00  0.78648760478E+03  0.78648760478E+03  0.00000000000E+00 0.  1.
         21   -1    0    0  501  502  0.00000000000E+00 -0.00000000000E+00 -0.24941379416E+03  0.24941379416E+03  0.00000000000E+00 0.  1.
         23    2    1    2    0    0  0.49054204363E+02 -0.46528918112E+02  0.47650019088E+03  0.48983804975E+03  0.91201030066E+02 0.  0.
        -24    2    1    2    0    0 -0.42657721743E+02  0.30742714608E+01  0.29457467910E+03  0.30797572438E+03  0.79029569626E+02 0.  0.
         13    1    4    4    0    0 -0.30238089091E+02 -0.67942595427E+01  0.30695423056E+02  0.43620098478E+02  0.00000000000E+00 0. -1.
        -14    1    4    4    0    0 -0.12419632652E+02  0.98685310035E+01  0.26387925604E+03  0.26435562591E+03  0.00000000000E+00 0.  1.
        -11    1    3    3    0    0  0.49951534760E+01  0.25250148768E+02  0.67166277252E+02  0.71929342906E+02  0.00000000000E+00 0.  1.
         11    1    3    3    0    0  0.44059050887E+02 -0.71779066880E+02  0.40933391363E+03  0.41790870684E+03  0.00000000000E+00 0. -1.
         -3    1    1    2    0  502 -0.63964826193E+01  0.43454646651E+02 -0.23400105936E+03  0.23808762481E+03  0.00000000000E+00 0.  1.
<scales pt_clust_5="13000.00000" pt_clust_6="13000.00000" pt_clust_7="13000.00000" pt_clust_8="13000.00000" pt_clust_9="43.92290"></scales>
<clustering>
<clus scale="   43.923">  2  9  1 -1</clus>
<clus scale="   79.030">  5  6 -1 -1</clus>
<clus scale="   91.201">  7  8 -1 -1</clus>
<clus scale="   94.693">  2  5  1 -1</clus>
<clus scale="   43.923">  2  5  1 -1</clus>
</clustering>
</event>
<event>
 9    1  0.6270443E-005  0.1002001E+03  0.7546771E-02  0.1283848E+00
         21   -1    0    0  501  502  0.00000000000E+00  0.00000000000E+00  0.35181698265E+03  0.35181698265E+03  0.00000000000E+00 0. -1.
          3   -1    0    0  502    0 -0.00000000000E+00 -0.00000000000E+00 -0.47201674990E+02  0.47201674990E+02  0.00000000000E+00 0. -1.
        -24    2    1    2    0    0  0.53941600756E+01  0.50610798293E+02  0.56943457160E+02  0.11069925989E+03  0.80132508766E+02 0.  0.
         23    2    1    2    0    0  0.11742865709E+02 -0.36092719221E+02  0.24781914905E+03  0.26585889976E+03  0.88464934688E+02 0.  0.
         13    1    3    3    0    0 -0.86434472159E+01  0.30269189543E+02 -0.14824340148E+02  0.34795029476E+02  0.00000000000E+00 0. -1.
        -14    1    3    3    0    0  0.14037607291E+02  0.20341608749E+02  0.71767797308E+02  0.75904230418E+02  0.00000000000E+00 0.  1.
        -13    1    4    4    0    0  0.48802408823E+02 -0.33045086565E+02  0.15887400202E+03  0.16945383256E+03  0.00000000000E+00 0. -1.
         13    1    4    4    0    0 -0.37059543114E+02 -0.30476326558E+01  0.88945147032E+02  0.96405067197E+02  0.00000000000E+00 0.  1.
          4    1    1    2  501    0 -0.17137025785E+02 -0.14518079072E+02 -0.14729855622E+00  0.22460497981E+02  0.00000000000E+00 0. -1.
<scales pt_clust_5="13000.00000" pt_clust_6="13000.00000" pt_clust_7="13000.00000" pt_clust_8="13000.00000" pt_clust_9="22.46003"></scales>
<clustering>
<clus scale="   22.460">  1  9  2 -1</clus>
<clus scale="   80.133">  5  6 -1 -1</clus>
<clus scale="   88.465">  7  8 -1 -1</clus>
<clus scale="   92.926">  2  5  1 -1</clus>
<clus scale="   22.460">  1  5  2 -1</clus>
</clustering>
</event>
<event>
 9    1  0.6270443E-005  0.9421358E+02  0.7546771E-02  0.1299685E+00
          1   -1    0    0  502    0 -0.00000000000E+00  0.00000000000E+00  0.89471813282E+02  0.89471813282E+02  0.00000000000E+00 0. -1.
         21   -1    0    0  501  502  0.00000000000E+00 -0.00000000000E+00 -0.16519870108E+03  0.16519870108E+03  0.00000000000E+00 0. -1.
         23    2    1    2    0    0 -0.33612922873E+01  0.23105864474E+02  0.27671008756E+02  0.98834250499E+02  0.91963824884E+02 0.  0.
        -24    2    1    2    0    0  0.16878961005E+02 -0.69674060124E+01 -0.10623026005E+03  0.13459480694E+03  0.80606760475E+02 0.  0.
         11    1    4    4    0    0  0.41291558295E+02  0.10819053028E+02 -0.28829043140E+02  0.51508818888E+02  0.00000000000E+00 0. -1.
        -12    1    4    4    0    0 -0.24412597290E+02 -0.17786459041E+02 -0.77401216911E+02  0.83085988054E+02  0.00000000000E+00 0.  1.
        -13    1    3    3    0    0 -0.23883042045E+02  0.20477713312E+02  0.55715469745E+02  0.63983982439E+02  0.00000000000E+00 0. -1.
         13    1    3    3    0    0  0.20521749758E+02  0.26281511618E+01 -0.28044460990E+02  0.34850268060E+02  0.00000000000E+00 0.  1.
          2    1    1    2  501    0 -0.13517668718E+02 -0.16138458462E+02  0.28323634986E+01  0.21241456920E+02  0.00000000000E+00 0. -1.
<scales pt_clust_5="13000.00000" pt_clust_6="13000.00000" pt_clust_7="13000.00000" pt_clust_8="13000.00000" pt_clust_9="21.05179"></scales>
<clustering>
<clus scale="   21.052">  2  9  1 -1</clus>
<clus scale="   80.607">  5  6 -1 -1</clus>
<clus scale="   83.164">  2  5  1 -1</clus>
<clus scale="   91.964">  7  8 -1 -1</clus>
<clus scale="   21.052">  2  5  1 -1</clus>
</clustering>
</event>
<event>
 9    1  0.6270443E-005  0.1753413E+03  0.7546771E-02  0.1185484E+00
          1   -1    0    0  502    0 -0.00000000000E+00  0.00000000000E+00  0.19343562572E+03  0.19343562572E+03  0.00000000000E+00 0. -1.
         21   -1    0    0  501  502  0.00000000000E+00 -0.00000000000E+00 -0.42520112581E+03  0.42520112581E+03  0.00000000000E+00 0. -1.
        -24    2    1    2    0    0  0.96262672318E+02 -0.30751324830E+02 -0.23884183040E+03  0.27219641296E+03  0.82663905185E+02 0.  0.
         23    2    1    2    0    0  0.47506526500E+02 -0.84068262627E+02  0.72473816066E+02  0.15117141801E+03  0.90972527541E+02 0.  0.
         13    1    3    3    0    0  0.65254631822E+02 -0.45039431974E+02 -0.21853020226E+03  0.23246971138E+03  0.00000000000E+00 0. -1.
        -14    1    3    3    0    0  0.31008040496E+02  0.14288107144E+02 -0.20311628132E+02  0.39726701581E+02  0.00000000000E+00 0.  1.
        -13    1    4    4    0    0  0.22171373678E+02 -0.42735714534E+02 -0.15623311245E+02  0.50616192683E+02  0.00000000000E+00 0.  1.
         13    1    4    4    0    0  0.25335152821E+02 -0.41332548093E+02  0.88097127311E+02  0.10055522533E+03  0.00000000000E+00 0. -1.
          2    1    1    2  501    0 -0.14376919882E+03  0.11481958746E+03 -0.65397485762E+02  0.19526892056E+03  0.00000000000E+00 0. -1.
<scales pt_clust_5="13000.00000" pt_clust_6="13000.00000" pt_clust_7="13000.00000" pt_clust_8="13000.00000" pt_clust_9="149.89524"></scales>
<clustering>
<clus scale="   82.664">  5  6 -1 -1</clus>
<clus scale="   90.973">  7  8 -1 -1</clus>
<clus scale="  130.558">  1  5  2 -1</clus>
<clus scale="  149.895">  2  9  1 -1</clus>
<clus scale="  149.895">  2  5  1 -1</clus>
</clustering>
</event>
<event>
 9    1  0.6270443E-005  0.9196416E+02  0.7546771E-02  0.1303281E+00
         21   -1    0    0  501  502  0.00000000000E+00  0.00000000000E+00  0.26267154399E+03  0.26267154399E+03  0.00000000000E+00 0. -1.
          1   -1    0    0  502    0 -0.00000000000E+00 -0.00000000000E+00 -0.85620093330E+02  0.85620093330E+02  0.00000000000E+00 0. -1.
        -24    2    1    2    0    0  0.31632804465E+02  0.97949179104E+00 -0.33634839701E+02  0.92033881611E+02  0.79607406692E+02 0.  0.
         23    2    1    2    0    0 -0.65012881939E+01 -0.11116356471E+02  0.71102426803E+02  0.11406772757E+03  0.88261266968E+02 0.  0.
         13    1    3    3    0    0  0.21116118545E+02 -0.38962740360E+02 -0.15883009233E+02  0.47077123755E+02  0.00000000000E+00 0. -1.
        -14    1    3    3    0    0  0.10516685920E+02  0.39942232151E+02 -0.17751830468E+02  0.44956757856E+02  0.00000000000E+00 0.  1.
        -11    1    4    4    0    0 -0.52283883052E+00  0.36149394748E+02  0.11868187749E+02  0.38051359786E+02  0.00000000000E+00 0.  1.
         11    1    4    4    0    0 -0.59784493634E+01 -0.47265751219E+02  0.59234239054E+02  0.76016367786E+02  0.00000000000E+00 0. -1.
          2    1    1    2  501    0 -0.25131516271E+02  0.10136864680E+02  0.13958386355E+03  0.14219002813E+03  0.00000000000E+00 0. -1.
<scales pt_clust_5="13000.00000" pt_clust_6="13000.00000" pt_clust_7="13000.00000" pt_clust_8="13000.00000" pt_clust_9="27.09888"></scales>
<clustering>
<clus scale="   27.099">  1  9  2 -1</clus>
<clus scale="   79.607">  5  6 -1 -1</clus>
<clus scale="   83.694">  2  5  1 -1</clus>
<clus scale="   88.261">  7  8 -1 -1</clus>
<clus scale="   27.099">  1  5  2 -1</clus>
</clustering>
</event>
<event>
 9    1  0.6270443E-005  0.1115632E+03  0.7546771E-02  0.1261820E+00
         21   -1    0    0  501  502  0.00000000000E+00  0.00000000000E+00  0.45379808612E+03  0.45379808612E+03  0.00000000000E+00 0. -1.
          1   -1    0    0  502    0 -0.00000000000E+00 -0.00000000000E+00 -0.13179080155E+03  0.13179080155E+03  0.00000000000E+00 0. -1.
         23    2    1    2    0    0 -0.57737987940E+02  0.15697931322E+02 -0.68548281957E+02  0.12928774715E+03  0.91849628773E+02 0.  0.
        -24    2    1    2    0    0  0.60132853600E+02 -0.56541628253E+02  0.74523308162E+02  0.13763151333E+03  0.81091270764E+02 0.  0.
         13    1    4    4    0    0  0.72482725953E+01  0.19572764473E+02  0.42024803688E+01  0.21290641277E+02  0.00000000000E+00 0. -1.
        -14    1    4    4    0    0  0.52884581005E+02 -0.76114392726E+02  0.70320827793E+02  0.11634087205E+03  0.00000000000E+00 0.  1.
        -13    1    3    3    0    0 -0.31778483202E+02 -0.11843358097E+02  0.15366668624E+02  0.37232668857E+02  0.00000000000E+00 0.  1.
         13    1    3    3    0    0 -0.25959504738E+02  0.27541289419E+02 -0.83914950581E+02  0.92055078297E+02  0.00000000000E+00 0. -1.
          2    1    1    2  501    0 -0.23948656596E+01  0.40843696931E+02  0.31603225837E+03  0.31866962718E+03  0.00000000000E+00 0. -1.
<scales pt_clust_5="13000.00000" pt_clust_6="13000.00000" pt_clust_7="13000.00000" pt_clust_8="13000.00000" pt_clust_9="40.91385"></scales>
<clustering>
<clus scale="   40.914">  1  9  2 -1</clus>
<clus scale="   81.091">  5  6 -1 -1</clus>
<clus scale="   91.850">  7  8 -1 -1</clus>
<clus scale="  102.887">  1  5  2 -1</clus>
<clus scale="   40.914">  1  5  2 -1</clus>
</clustering>
</event>
<event>
 9    1  0.6270443E-005  0.1307494E+03  0.7546771E-02  0.1239177E+00
         21   -1    0    0  501  502  0.00000000000E+00  0.00000000000E+00  0.12949259903E+03  0.12949259903E+03  0.00000000000E+00 0. -1.
          1   -1    0    0  502    0 -0.00000000000E+00 -0.00000000000E+00 -0.27212837276E+03  0.27212837276E+03  0.00000000000E+00 0. -1.
         23    2    1    2    0    0 -0.27333065623E+02 -0.37586440888E+02  0.12805505534E+02  0.10125438872E+03  0.89042873095E+02 0.  0.
        -24    2    1    2    0    0 -0.76485574623E+02 -0.11062394142E+02 -0.14887961642E+03  0.18552724037E+03  0.79264096821E+02 0.  0.
         13    1    4    4    0    0 -0.73111452566E+02 -0.38786523892E+02 -0.11013124841E+03  0.13776273375E+03  0.00000000000E+00 0. -1.
        -14    1    4    4    0    0 -0.33741220574E+01  0.27724129750E+02 -0.38748368005E+02  0.47764506625E+02  0.00000000000E+00 0.  1.
        -13    1    3    3    0    0  0.31187710520E+02 -0.20517874330E+02  0.15056669689E+02  0.40253692460E+02  0.00000000000E+00 0.  1.
         13    1    3    3    0    0 -0.58520776143E+02 -0.17068566558E+02 -0.22511641559E+01  0.61000696265E+02  0.00000000000E+00 0. -1.
          2    1    1    2  501    0  0.10381864025E+03  0.48648835030E+02 -0.65616628418E+01  0.11483934270E+03  0.00000000000E+00 0. -1.
<scales pt_clust_5="13000.00000" pt_clust_6="13000.00000" pt_clust_7="13000.00000" pt_clust_8="13000.00000" pt_clust_9="103.98370"></scales>
<clustering>
<clus scale="   79.264">  5  6 -1 -1</clus>
<clus scale="   89.043">  7  8 -1 -1</clus>
<clus scale="  100.441">  2  7  1 -1</clus>
<clus scale="  103.984">  1  9  2 -1</clus>
<clus scale="  103.984">  1  5  2 -1</clus>
</clustering>
</event>
<event>
 9    1  0.6270443E-005  0.1008361E+03  0.7546771E-02  0.1281845E+00
         21   -1    0    0  501  502  0.00000000000E+00  0.00000000000E+00  0.57934165142E+02  0.57934165142E+02  0.00000000000E+00 0. -1.
          3   -1    0    0  502    0 -0.00000000000E+00 -0.00000000000E+00 -0.31963574332E+03  0.31963574332E+03  0.00000000000E+00 0. -1.
         23    2    1    2    0    0  0.18821272539E+02  0.46837249766E+02 -0.22974480465E+03  0.25216597551E+03  0.90868232489E+02 0.  0.
        -24    2    1    2    0    0  0.72390262195E+01 -0.27468625342E+02 -0.25731437055E+02  0.92342813832E+02  0.84012853390E+02 0.  0.
         13    1    4    4    0    0  0.11174952481E+02  0.22098645646E+02  0.14221743915E+02  0.28556745303E+02  0.00000000000E+00 0. -1.
        -14    1    4    4    0    0 -0.39359262616E+01 -0.49567270988E+02 -0.39953180969E+02  0.63786068528E+02  0.00000000000E+00 0.  1.
        -11    1    3    3    0    0  0.12644324198E+02 -0.16923760151E+02 -0.10186430085E+02  0.23453271626E+02  0.00000000000E+00 0.  1.
         11    1    3    3    0    0  0.61769483411E+01  0.63761009917E+02 -0.21955837456E+03  0.22871270388E+03  0.00000000000E+00 0. -1.
          4    1    1    2  501    0 -0.26060298759E+02 -0.19368624424E+02 -0.62253364781E+01  0.33061119124E+02  0.00000000000E+00 0. -1.
<scales pt_clust_5="13000.00000" pt_clust_6="13000.00000" pt_clust_7="13000.00000" pt_clust_8="13000.00000" pt_clust_9="32.46972"></scales>
<clustering>
<clus scale="   32.470">  1  9  2 -1</clus>
<clus scale="   84.013">  5  6 -1 -1</clus>
<clus scale="   90.868">  7  8 -1 -1</clus>
<clus scale="   94.705">  1  5  2 -1</clus>
<clus scale="   32.470">  1  5  2 -1</clus>
</clustering>
</event>
<event>
 9    1  0.6270443E-005  0.1153816E+03  0.7546771E-02  0.1264406E+00
          3   -1    0    0  502    0 -0.00000000000E+00  0.00000000000E+00  0.28140092520E+03  0.28140092520E+03  0.00000000000E+00 0. -1.
         21   -1    0    0  501  502  0.00000000000E+00 -0.00000000000E+00 -0.13955292970E+03  0.13955292970E+03  0.00000000000E+00 0. -1.
        -24    2    1    2    0    0 -0.23395219640E+02  0.28727437103E+02  0.22651013988E+03  0.24339754168E+03  0.81011837921E+02 0.  0.
         23    2    1    2    0    0 -0.99622222990E+01 -0.24346436712E+02 -0.88812114130E+02  0.14365742907E+03  0.10980833510E+03 0.  0.
         11    1    3    3    0    0 -0.27552716612E+02 -0.20092622424E+02  0.13882296038E+03  0.14294992129E+03  0.00000000000E+00 0. -1.
        -12    1    3    3    0    0  0.41574969726E+01  0.48820059527E+02  0.87687179505E+02  0.10044762039E+03  0.00000000000E+00 0.  1.
        -13    1    4    4    0    0 -0.56376155947E+02 -0.25958315503E+02 -0.30627801398E+02  0.69211034681E+02  0.00000000000E+00 0. -1.
         13    1    4    4    0    0  0.46413933648E+02  0.16118787915E+01 -0.58184312732E+02  0.74446394392E+02  0.00000000000E+00 0.  1.
          4    1    1    2  501    0  0.33357441939E+02 -0.43810003907E+01  0.41499697543E+01  0.33898884142E+02  0.00000000000E+00 0. -1.
<scales pt_clust_5="13000.00000" pt_clust_6="13000.00000" pt_clust_7="13000.00000" pt_clust_8="13000.00000" pt_clust_9="33.64390"></scales>
<clustering>
<clus scale="   33.644">  2  9  1 -1</clus>
<clus scale="   81.012">  5  6 -1 -1</clus>
<clus scale="   88.419">  1  5  2 -1</clus>
<clus scale="  109.808">  7  8 -1 -1</clus>
<clus scale="   33.644">  2  5  1 -1</clus>
</clustering>
</event>
<event>
 9    1  0.6270443E-005  0.1375311E+03  0.7546771E-02  0.1219757E+00
         21   -1    0    0  501  502  0.00000000000E+00  0.00000000000E+00  0.60786732991E+02  0.60786732991E+02  0.00000000000E+00 0. -1.
          1   -1    0    0  502    0 -0.00000000000E+00 -0.00000000000E+00 -0.79094227162E+03  0.79094227162E+03  0.00000000000E+00 0. -1.
         23    2    1    2    0    0  0.77389660915E+02  0.59367527841E+02 -0.58152424796E+03  0.59705908128E+03  0.93783967723E+02 0.  0.
        -24    2    1    2    0    0 -0.84207977017E+02 -0.87967696431E+02 -0.54235658570E+02  0.15580135179E+03  0.80642765022E+02 0.  0.
         13    1    4    4    0    0 -0.70953561480E+02 -0.95826061523E+02 -0.66120710074E+02  0.13634144731E+03  0.00000000000E+00 0. -1.
        -14    1    4    4    0    0 -0.13254415537E+02  0.78583650914E+01  0.11885051504E+02  0.19459904481E+02  0.00000000000E+00 0.  1.
        -11    1    3    3    0    0 -0.15772627670E+00 -0.22158282810E+02 -0.11901738877E+03  0.12106260035E+03  0.00000000000E+00 0.  1.
         11    1    3    3    0    0  0.77547387191E+02  0.81525810650E+02 -0.46250685919E+03  0.47599648094E+03  0.00000000000E+00 0. -1.
          2    1    1    2  501    0  0.68183161025E+01  0.28600168591E+02 -0.94395632098E+02  0.98868571534E+02  0.00000000000E+00 0. -1.
<scales pt_clust_5="13000.00000" pt_clust_6="13000.00000" pt_clust_7="13000.00000" pt_clust_8="13000.00000" pt_clust_9="29.40170"></scales>
<clustering>
<clus scale="   29.402">  1  9  2 -1</clus>
<clus scale="   80.643">  5  6 -1 -1</clus>
<clus scale="   93.784">  7  8 -1 -1</clus>
<clus scale="  128.929">  1  5  2 -1</clus>
<clus scale="   29.402">  1  5  2 -1</clus>
</clustering>
</event>
<event>
 9    1  0.6270443E-005  0.1152112E+03  0.7546771E-02  0.1255513E+00
         -2   -1    0    0    0  501 -0.00000000000E+00  0.00000000000E+00  0.14489516243E+03  0.14489516243E+03  0.00000000000E+00 0.  1.
         21   -1    0    0  501  502  0.00000000000E+00 -0.00000000000E+00 -0.19661140427E+03  0.19661140427E+03  0.00000000000E+00 0.  1.
        -24    2    1    2    0    0  0.84887105742E+02 -0.32696156939E+02  0.34771814462E+02  0.12564024528E+03  0.79382194188E+02 0.  0.
         23    2    1    2    0    0  0.10252924156E+00  0.50504531050E+02 -0.74052596095E+02  0.12814507590E+03  0.91578683770E+02 0.  0.
         11    1    3    3    0    0  0.34617520392E+01 -0.24478841681E+02  0.36143463539E+02  0.43789809018E+02  0.00000000000E+00 0. -1.
        -12    1    3    3    0    0  0.81425353702E+02 -0.82173152577E+01 -0.13716490773E+01  0.81850436265E+02  0.00000000000E+00 0.  1.
        -13    1    4    4    0    0 -0.21609084868E+02  0.33702628644E+01 -0.73036502640E+02  0.76240684273E+02  0.00000000000E+00 0.  1.
         13    1    4    4    0    0  0.21711614109E+02  0.47134268186E+02 -0.10160934552E+01  0.51904391631E+02  0.00000000000E+00 0. -1.
         -1    1    1    2    0  502 -0.84989634983E+02 -0.17808374112E+02 -0.12435460206E+02  0.87721245509E+02  0.00000000000E+00 0.  1.
<scales pt_clust_5="13000.00000" pt_clust_6="13000.00000" pt_clust_7="13000.00000" pt_clust_8="13000.00000" pt_clust_9="86.83538"></scales>
<clustering>
<clus scale="   79.382">  5  6 -1 -1</clus>
<clus scale="   86.835">  2  9  1 -1</clus>
<clus scale="   91.579">  7  8 -1 -1</clus>
<clus scale="  105.776">  1  5  2 -1</clus>
<clus scale="   86.835">  2  5  1 -1</clus>
</clustering>
</event>
<event>
 9    1  0.6270443E-005  0.1341736E+03  0.7546771E-02  0.1225464E+00
          1   -1    0    0  502    0 -0.00000000000E+00  0.00000000000E+00  0.89992421212E+03  0.89992421212E+03  0.00000000000E+00 0. -1.
         21   -1    0    0  501  502  0.00000000000E+00 -0.00000000000E+00 -0.71748663384E+02  0.71748663384E+02  0.00000000000E+00 0.  1.
        -24    2    1    2    0    0  0.23089785780E+02  0.93949640008E+02  0.75893876712E+03  0.76868012986E+03  0.74306236279E+02 0.  0.
         23    2    1    2    0    0 -0.58816023480E+02 -0.10529429841E+03  0.43087250960E+02  0.15728866171E+03  0.91307162977E+02 0.  0.
         13    1    3    3    0    0  0.24123186062E+01  0.93539321266E+02  0.48382341392E+03  0.49278851424E+03  0.00000000000E+00 0. -1.
        -14    1    3    3    0    0  0.20677467174E+02  0.41031874134E+00  0.27511535319E+03  0.27589161563E+03  0.00000000000E+00 0.  1.
        -11    1    4    4    0    0 -0.62167316125E+02 -0.26955660244E+02  0.40280184950E+02  0.78828142900E+02  0.00000000000E+00 0. -1.
         11    1    4    4    0    0  0.33512926452E+01 -0.78338638165E+02  0.28070660095E+01  0.78460518807E+02  0.00000000000E+00 0.  1.
          2    1    1    2  501    0  0.35726237700E+02  0.11344658402E+02  0.26149530662E+02  0.45704083934E+02  0.00000000000E+00 0. -1.
<scales pt_clust_5="13000.00000" pt_clust_6="13000.00000" pt_clust_7="13000.00000" pt_clust_8="13000.00000" pt_clust_9="37.48420"></scales>
<clustering>
<clus scale="   37.484">  2  9  1 -1</clus>
<clus scale="   74.306">  5  6 -1 -1</clus>
<clus scale="   91.307">  7  8 -1 -1</clus>
<clus scale="  123.235">  1  5  2 -1</clus>
<clus scale="   37.484">  2  5  1 -1</clus>
</clustering>
</event>
<event>
 9    1  0.6270443E-005  0.2575552E+03  0.7546771E-02  0.1109208E+00
          1   -1    0    0  502    0 -0.00000000000E+00  0.00000000000E+00  0.66548098918E+03  0.66548098918E+03  0.00000000000E+00 0. -1.
         21   -1    0    0  501  502  0.00000000000E+00 -0.00000000000E+00 -0.27152999871E+03  0.27152999871E+03  0.00000000000E+00 0. -1.
        -24    2    1    2    0    0 -0.18779146990E+03 -0.13275725130E+03  0.45247558730E+03  0.51396069028E+03  0.80816521252E+02 0.  0.
         23    2    1    2    0    0  0.25253935776E+03  0.18419593768E+03 -0.83993084967E+02  0.33652358886E+03  0.92135860903E+02 0.  0.
         13    1    3    3    0    0 -0.12193265104E+03 -0.43629381088E+02  0.20042997996E+03  0.23862789265E+03  0.00000000000E+00 0. -1.
        -14    1    3    3    0    0 -0.65858818862E+02 -0.89127870212E+02  0.25204560734E+03  0.27533279763E+03  0.00000000000E+00 0.  1.
        -13    1    4    4    0    0  0.10493507719E+02  0.19810508048E+02  0.15752498482E+02  0.27399108412E+02  0.00000000000E+00 0.  1.
         13    1    4    4    0    0  0.24204585004E+03  0.16438542963E+03 -0.99745583449E+02  0.30912448045E+03  0.00000000000E+00 0. -1.
          2    1    1    2  501    0 -0.64747887861E+02 -0.51438686382E+02  0.25468488133E+02  0.86526708749E+02  0.00000000000E+00 0. -1.
<scales pt_clust_5="13000.00000" pt_clust_6="13000.00000" pt_clust_7="13000.00000" pt_clust_8="13000.00000" pt_clust_9="82.69358"></scales>
<clustering>
<clus scale="   80.817">  5  6 -1 -1</clus>
<clus scale="   82.694">  2  9  1 -1</clus>
<clus scale="   92.136">  7  8 -1 -1</clus>
<clus scale="  253.726">  1  5  2 -1</clus>
<clus scale="   82.694">  2  5  1 -1</clus>
</clustering>
</event>
<event>
 9    1  0.6270443E-005  0.9952170E+02  0.7546771E-02  0.1288756E+00
         21   -1    0    0  501  502  0.00000000000E+00  0.00000000000E+00  0.77827670390E+02  0.77827670390E+02  0.00000000000E+00 0.  1.
         -2   -1    0    0    0  501 -0.00000000000E+00 -0.00000000000E+00 -0.34257505348E+03  0.34257505348E+03  0.00000000000E+00 0.  1.
         23    2    1    2    0    0 -0.26222957887E+02 -0.37615163696E+01 -0.10926297611E+03  0.14444767107E+03  0.90691450546E+02 0.  0.
        -24    2    1    2    0    0  0.72034495115E+02 -0.63353142610E+02 -0.29392139003E+02  0.12594727155E+03  0.76132964023E+02 0.  0.
         11    1    4    4    0    0  0.43281777548E+02 -0.10785236096E+02 -0.45689759256E+02  0.63852859656E+02  0.00000000000E+00 0. -1.
        -12    1    4    4    0    0  0.28752717567E+02 -0.52567906514E+02  0.16297620252E+02  0.62094411896E+02  0.00000000000E+00 0.  1.
        -13    1    3    3    0    0  0.52153040998E+01 -0.39636415374E+02 -0.77306225026E+02  0.87031587647E+02  0.00000000000E+00 0.  1.
         13    1    3    3    0    0 -0.31438261987E+02  0.35874899005E+02 -0.31956751087E+02  0.57416083421E+02  0.00000000000E+00 0. -1.
         -1    1    1    2    0  502 -0.45811537228E+02  0.67114658979E+02 -0.12609226797E+03  0.15000778125E+03  0.00000000000E+00 0.  1.
<scales pt_clust_5="13000.00000" pt_clust_6="13000.00000" pt_clust_7="13000.00000" pt_clust_8="13000.00000" pt_clust_9="81.25934"></scales>
<clustering>
<clus scale="   76.133">  5  6 -1 -1</clus>
<clus scale="   81.259">  1  9  2 -1</clus>
<clus scale="   86.463">  1  5  2 -1</clus>
<clus scale="   90.691">  7  8 -1 -1</clus>
<clus scale="   81.259">  1  5  2 -1</clus>
</clustering>
</event>
<event>
 9    1  0.6270443E-005  0.9764003E+02  0.7546771E-02  0.1286551E+00
          1   -1    0    0  502    0 -0.00000000000E+00  0.00000000000E+00  0.42073860104E+03  0.42073860104E+03  0.00000000000E+00 0. -1.
         21   -1    0    0  501  502  0.00000000000E+00 -0.00000000000E+00 -0.35506861205E+02  0.35506861205E+02  0.00000000000E+00 0.  1.
         23    2    1    2    0    0  0.36974633185E+02 -0.27533351600E+02  0.23791309179E+03  0.25630222312E+03  0.83444480827E+02 0.  0.
        -24    2    1    2    0    0 -0.59555733196E+02  0.24037646404E+02  0.85576245022E+02  0.13410821529E+03  0.80851876262E+02 0.  0.
         11    1    4    4    0    0 -0.59477514961E+02  0.30818681707E+02  0.98729303248E+02  0.11930985394E+03  0.00000000000E+00 0. -1.
        -12    1    4    4    0    0 -0.78218235142E-01 -0.67810353028E+01 -0.13153058226E+02  0.14798361347E+02  0.00000000000E+00 0.  1.
        -11    1    3    3    0    0  0.42523205905E+02  0.43920736236E+01  0.20751233564E+03  0.21186996671E+03  0.00000000000E+00 0.  1.
         11    1    3    3    0    0 -0.55485727202E+01 -0.31925425224E+02  0.30400756152E+02  0.44432256409E+02  0.00000000000E+00 0. -1.
          2    1    1    2  501    0  0.22581100011E+02  0.34957051961E+01  0.61742403018E+02  0.65835023832E+02  0.00000000000E+00 0. -1.
<scales pt_clust_5="13000.00000" pt_clust_6="13000.00000" pt_clust_7="13000.00000" pt_clust_8="13000.00000" pt_clust_9="22.85009"></scales>
<clustering>
<clus scale="   22.850">  2  9  1 -1</clus>
<clus scale="   80.852">  5  6 -1 -1</clus>
<clus scale="   83.444">  7  8 -1 -1</clus>
<clus scale="   95.434">  2  5  1 -1</clus>
<clus scale="   22.850">  2  5  1 -1</clus>
</clustering>
</event>
<event>
 9    1  0.6270443E-005  0.1145213E+03  0.7546771E-02  0.1255560E+00
         21   -1    0    0  501  502  0.00000000000E+00  0.00000000000E+00  0.70637660744E+02  0.70637660744E+02  0.00000000000E+00 0.  1.
          1   -1    0    0  502    0 -0.00000000000E+00 -0.00000000000E+00 -0.47073204705E+03  0.47073204705E+03  0.00000000000E+00 0. -1.
        -24    2    1    2    0    0  0.34903634040E+02 -0.40051667266E+02 -0.19225738460E+03  0.21563693846E+03  0.81938925883E+02 0.  0.
         23    2    1    2    0    0 -0.10666238329E+02  0.12488334987E+03 -0.16947441357E+03  0.22952698005E+03  0.90837426209E+02 0.  0.
         13    1    3    3    0    0 -0.54939712582E+01  0.22491125900E+02 -0.42809651827E+02  0.48669299912E+02  0.00000000000E+00 0. -1.
        -14    1    3    3    0    0  0.40397605298E+02 -0.62542793166E+02 -0.14944773277E+03  0.16696763854E+03  0.00000000000E+00 0.  1.
        -11    1    4    4    0    0  0.22422177874E+02  0.11675338856E+03 -0.11588146705E+03  0.16601994520E+03  0.00000000000E+00 0.  1.
         11    1    4    4    0    0 -0.33088416203E+02  0.81299613120E+01 -0.53592946526E+02  0.63507034847E+02  0.00000000000E+00 0. -1.
          2    1    1    2  501    0 -0.24237395710E+02 -0.84831682603E+02 -0.38362588134E+02  0.96205789287E+02  0.00000000000E+00 0. -1.
<scales pt_clust_5="13000.00000" pt_clust_6="13000.00000" pt_clust_7="13000.00000" pt_clust_8="13000.00000" pt_clust_9="88.22622"></scales>
<clustering>
<clus scale="   81.939">  5  6 -1 -1</clus>
<clus scale="   88.226">  1  9  2 -1</clus>
<clus scale="   90.837">  7  8 -1 -1</clus>
<clus scale="  107.600">  2  5  1 -1</clus>
<clus scale="   88.226">  1  5  2 -1</clus>
</clustering>
</event>
<event>
 9    1  0.6270443E-005  0.1108275E+03  0.7546771E-02  0.1267710E+00
         21   -1    0    0  501  502  0.00000000000E+00  0.00000000000E+00  0.12512595976E+03  0.12512595976E+03  0.00000000000E+00 0. -1.
          3   -1    0    0  502    0 -0.00000000000E+00 -0.00000000000E+00 -0.23913835820E+03  0.23913835820E+03  0.00000000000E+00 0. -1.
         23    2    1    2    0    0  0.33937946783E+02 -0.44336939368E+02 -0.50240182777E+02  0.11898931650E+03  0.92286689456E+02 0.  0.
        -24    2    1    2    0    0 -0.86434022636E+02  0.17783839364E+02  0.44967266575E+02  0.12164175312E+03  0.70622629702E+02 0.  0.
         11    1    4    4    0    0 -0.12567869388E+02 -0.22140123072E+02  0.24247724178E+02  0.35158050549E+02  0.00000000000E+00 0. -1.
        -12    1    4    4    0    0 -0.73866153248E+02  0.39923962436E+02  0.20719542397E+02  0.86483702566E+02  0.00000000000E+00 0.  1.
        -13    1    3    3    0    0 -0.22810874643E+02  0.13071809132E+02 -0.18975033246E+02  0.32423141159E+02  0.00000000000E+00 0.  1.
         13    1    3    3    0    0  0.56748821425E+02 -0.57408748500E+02 -0.31265149531E+02  0.86566175338E+02  0.00000000000E+00 0. -1.
          4    1    1    2  501    0  0.52496075854E+02  0.26553100004E+02 -0.10873948224E+03  0.12363324835E+03  0.00000000000E+00 0. -1.
<scales pt_clust_5="13000.00000" pt_clust_6="13000.00000" pt_clust_7="13000.00000" pt_clust_8="13000.00000" pt_clust_9="58.82949"></scales>
<clustering>
<clus scale="   58.829">  1  9  2 -1</clus>
<clus scale="   70.623">  5  6 -1 -1</clus>
<clus scale="   92.287">  7  8 -1 -1</clus>
<clus scale="   93.560">  1  5  2 -1</clus>
<clus scale="   58.829">  1  5  2 -1</clus>
</clustering>
</event>
<event>
 9    1  0.6270443E-005  0.1245134E+03  0.7546771E-02  0.1238760E+00
         21   -1    0    0  501  502  0.00000000000E+00  0.00000000000E+00  0.22446500680E+03  0.22446500680E+03  0.00000000000E+00 0. -1.
         -4   -1    0    0    0  501 -0.00000000000E+00 -0.00000000000E+00 -0.15442582810E+03  0.15442582810E+03  0.00000000000E+00 0.  1.
         23    2    1    2    0    0 -0.26918030948E+02  0.77783292005E+02 -0.85497674172E+02  0.14967282492E+03  0.91199130071E+02 0.  0.
        -24    2    1    2    0    0  0.70892970929E+01 -0.95692842312E+02  0.79583933911E+02  0.14870231849E+03  0.81064164615E+02 0.  0.
         11    1    4    4    0    0 -0.33730461926E+02 -0.43570187264E+02  0.55625214881E+02  0.78296039558E+02  0.00000000000E+00 0. -1.
        -12    1    4    4    0    0  0.40819759018E+02 -0.52122655048E+02  0.23958719030E+02  0.70406278933E+02  0.00000000000E+00 0.  1.
        -11    1    3    3    0    0 -0.56123794899E+02  0.69519947957E+02 -0.47980306426E+02  0.10141505471E+03  0.00000000000E+00 0. -1.
         11    1    3    3    0    0  0.29205763951E+02  0.82633440484E+01 -0.37517367746E+02  0.48257770207E+02  0.00000000000E+00 0.  1.
         -3    1    1    2    0  502  0.19828733855E+02  0.17909550307E+02  0.75952918953E+02  0.80515691489E+02  0.00000000000E+00 0.  1.
<scales pt_clust_5="13000.00000" pt_clust_6="13000.00000" pt_clust_7="13000.00000" pt_clust_8="13000.00000" pt_clust_9="26.71948"></scales>
<clustering>
<clus scale="   26.719">  1  9  2 -1</clus>
<clus scale="   81.064">  5  6 -1 -1</clus>
<clus scale="   91.199">  7  8 -1 -1</clus>
<clus scale="  117.293">  1  5  2 -1</clus>
<clus scale="   26.719">  1  5  2 -1</clus>
</clustering>
</event>
<event>
 9    1  0.6270443E-005  0.9432180E+02  0.7546771E-02  0.1300128E+00
         21   -1    0    0  501  502  0.00000000000E+00  0.00000000000E+00  0.14011275232E+03  0.14011275232E+03  0.00000000000E+00 0.  1.
         -2   -1    0    0    0  501 -0.00000000000E+00 -0.00000000000E+00 -0.16588834502E+03  0.16588834502E+03  0.00000000000E+00 0.  1.
         23    2    1    2    0    0  0.13799852021E+02  0.27265393730E+02 -0.12054691946E+03  0.15392814573E+03  0.90710951069E+02 0.  0.
        -24    2    1    2    0    0  0.95410943899E+01 -0.13223153333E+02  0.36355199911E+02  0.87618097873E+02  0.78034263296E+02 0.  0.
         13    1    4    4    0    0  0.23556368765E+01 -0.24292222449E+02 -0.18862276201E+02  0.30845527392E+02  0.00000000000E+00 0. -1.
        -14    1    4    4    0    0  0.71854575134E+01  0.11069069116E+02  0.55217476113E+02  0.56772570481E+02  0.00000000000E+00 0.  1.
        -11    1    3    3    0    0  0.40123422161E+02  0.22705603297E+02 -0.11847902344E+03  0.12713265679E+03  0.00000000000E+00 0.  1.
         11    1    3    3    0    0 -0.26323570139E+02  0.45597904326E+01 -0.20678960279E+01  0.26795488942E+02  0.00000000000E+00 0. -1.
         -1    1    1    2    0  502 -0.23340946411E+02 -0.14042240397E+02  0.58416126848E+02  0.64454853740E+02  0.00000000000E+00 0.  1.
<scales pt_clust_5="13000.00000" pt_clust_6="13000.00000" pt_clust_7="13000.00000" pt_clust_8="13000.00000" pt_clust_9="27.23939"></scales>
<clustering>
<clus scale="   27.239">  1  9  2 -1</clus>
<clus scale="   78.034">  5  6 -1 -1</clus>
<clus scale="   82.204">  1  5  2 -1</clus>
<clus scale="   90.711">  7  8 -1 -1</clus>
<clus scale="   27.239">  1  5  2 -1</clus>
</clustering>
</event>
<event>
 9    1  0.6270443E-005  0.1212943E+03  0.7546771E-02  0.1244374E+00
          1   -1    0    0  502    0 -0.00000000000E+00  0.00000000000E+00  0.46817441434E+03  0.46817441434E+03  0.00000000000E+00 0. -1.
         21   -1    0    0  501  502  0.00000000000E+00 -0.00000000000E+00 -0.48007383908E+02  0.48007383908E+02  0.00000000000E+00 0. -1.
         23    2    1    2    0    0 -0.87294675659E+02 -0.21591271862E+02  0.31313200887E+03  0.33866759167E+03  0.92506968677E+02 0.  0.
        -24    2    1    2    0    0  0.58445026466E+02  0.14937200284E+02  0.10754976530E+03  0.14790265666E+03  0.81665799213E+02 0.  0.
         11    1    4    4    0    0  0.24250978450E+02  0.28505319412E+01 -0.88588536402E+01  0.25975272394E+02  0.00000000000E+00 0. -1.
        -12    1    4    4    0    0  0.34194048015E+02  0.12086668342E+02  0.11640861894E+03  0.12192738427E+03  0.00000000000E+00 0.  1.
        -13    1    3    3    0    0  0.87630869186E+01  0.18572495931E+02  0.25312785826E+02  0.32595496986E+02  0.00000000000E+00 0.  1.
         13    1    3    3    0    0 -0.96057762577E+02 -0.40163767794E+02  0.28781922304E+03  0.30607209469E+03  0.00000000000E+00 0. -1.
          2    1    1    2  501    0  0.28849649193E+02  0.66540715786E+01 -0.51474373191E+00  0.29611549913E+02  0.00000000000E+00 0. -1.
<scales pt_clust_5="13000.00000" pt_clust_6="13000.00000" pt_clust_7="13000.00000" pt_clust_8="13000.00000" pt_clust_9="29.60708"></scales>
<clustering>
<clus scale="   29.607">  2  9  1 -1</clus>
<clus scale="   81.666">  5  6 -1 -1</clus>
<clus scale="   92.507">  7  8 -1 -1</clus>
<clus scale="  113.243">  2  5  1 -1</clus>
<clus scale="   29.607">  2  5  1 -1</clus>
</clustering>
</event>
<event>
 9    1  0.6270443E-005  0.1241735E+03  0.7546771E-02  0.1248756E+00
         21   -1    0    0  501  502  0.00000000000E+00  0.00000000000E+00  0.16893940135E+03  0.16893940135E+03  0.00000000000E+00 0. -1.
          1   -1    0    0  502    0 -0.00000000000E+00 -0.00000000000E+00 -0.33726960437E+03  0.33726960437E+03  0.00000000000E+00 0. -1.
        -24    2    1    2    0    0  0.40390553761E+02 -0.57750138741E+01 -0.23835554469E+03  0.25634412440E+03  0.85054081696E+02 0.  0.
         23    2    1    2    0    0 -0.86419590095E+02  0.66175821775E+02  0.22308950750E+02  0.16017773762E+03  0.11537605214E+03 0.  0.
         13    1    3    3    0    0  0.31163085641E+02  0.37737263248E+02 -0.14252965200E+03  0.15069817730E+03  0.00000000000E+00 0. -1.
        -14    1    3    3    0    0  0.92274681201E+01 -0.43512277122E+02 -0.95825892691E+02  0.10564594710E+03  0.00000000000E+00 0.  1.
        -13    1    4    4    0    0 -0.81976139849E+02  0.88755145535E+02 -0.91885154127E+01  0.12116927077E+03  0.00000000000E+00 0. -1.
         13    1    4    4    0    0 -0.44434502457E+01 -0.22579323761E+02  0.31497466162E+02  0.39008466853E+02  0.00000000000E+00 0.  1.
          2    1    1    2  501    0  0.46029036334E+02 -0.60400807901E+02  0.47716390926E+02  0.89687143694E+02  0.00000000000E+00 0. -1.
<scales pt_clust_5="13000.00000" pt_clust_6="13000.00000" pt_clust_7="13000.00000" pt_clust_8="13000.00000" pt_clust_9="75.94030"></scales>
<clustering>
<clus scale="   75.940">  1  9  2 -1</clus>
<clus scale="   85.054">  5  6 -1 -1</clus>
<clus scale="   96.652">  2  5  1 -1</clus>
<clus scale="  115.376">  7  8 -1 -1</clus>
<clus scale="   75.940">  1  5  2 -1</clus>
</clustering>
</event>
<event>
 9    1  0.6270443E-005  0.4084066E+03  0.7546771E-02  0.1041110E+00
         21   -1    0    0  501  502  0.00000000000E+00  0.00000000000E+00  0.26005211286E+03  0.26005211286E+03  0.00000000000E+00 0. -1.
          1   -1    0    0  502    0 -0.00000000000E+00 -0.00000000000E+00 -0.11873640942E+04  0.11873640942E+04  0.00000000000E+00 0. -1.
        -24    2    1    2    0    0 -0.69254820386E+02 -0.40683056842E+03 -0.92282029353E+03  0.10140341997E+04  0.79754137925E+02 0.  0.
         23    2    1    2    0    0  0.47461472558E+02  0.33422552157E+03  0.28226962970E+02  0.35081716646E+03  0.91195571156E+02 0.  0.
         13    1    3    3    0    0 -0.42310686459E+02 -0.36346659111E+03 -0.84659766014E+03  0.92229374670E+03  0.00000000000E+00 0. -1.
        -14    1    3    3    0    0 -0.26944133926E+02 -0.43363977305E+02 -0.76222633388E+02  0.91740453026E+02  0.00000000000E+00 0.  1.
        -11    1    4    4    0    0  0.38423409027E+02  0.29062020777E+03  0.55838135655E+02  0.29841977301E+03  0.00000000000E+00 0. -1.
         11    1    4    4    0    0  0.90380635309E+01  0.43605313793E+02 -0.27611172685E+02  0.52397393450E+02  0.00000000000E+00 0.  1.
          2    1    1    2  501    0  0.21793347828E+02  0.72605046850E+02 -0.32718650764E+02  0.82564840855E+02  0.00000000000E+00 0. -1.
<scales pt_clust_5="13000.00000" pt_clust_6="13000.00000" pt_clust_7="13000.00000" pt_clust_8="13000.00000" pt_clust_9="75.80530"></scales>
<clustering>
<clus scale="   75.805">  1  9  2 -1</clus>
<clus scale="   79.754">  5  6 -1 -1</clus>
<clus scale="   91.196">  7  8 -1 -1</clus>
<clus scale="  406.005">  2  5  1 -1</clus>
<clus scale="   75.805">  1  5  2 -1</clus>
</clustering>
</event>
<event>
 9    1  0.6270443E-005  0.1242307E+03  0.7546771E-02  0.1237941E+00
         21   -1    0    0  501  502  0.00000000000E+00  0.00000000000E+00  0.31407143065E+03  0.31407143065E+03  0.00000000000E+00 0.  1.
          1   -1    0    0  502    0 -0.00000000000E+00 -0.00000000000E+00 -0.81459036098E+02  0.81459036098E+02  0.00000000000E+00 0. -1.
         23    2    1    2    0    0  0.46500376265E+02  0.88137884512E+02  0.31645909753E+02  0.12494451962E+03  0.68403930439E+02 0.  0.
        -24    2    1    2    0    0 -0.84484247869E+02 -0.60770091352E+02  0.17472929639E+03  0.21691881883E+03  0.75451009295E+02 0.  0.
         11    1    4    4    0    0 -0.35640815322E+02  0.79885033471E+01  0.22535520653E+02  0.42917753828E+02  0.00000000000E+00 0. -1.
        -12    1    4    4    0    0 -0.48843432547E+02 -0.68758594699E+02  0.15219377574E+03  0.17400106500E+03  0.00000000000E+00 0.  1.
        -11    1    3    3    0    0 -0.15285554343E+02  0.30908981650E+02 -0.13129391611E+01  0.34507059096E+02  0.00000000000E+00 0.  1.
         11    1    3    3    0    0  0.61785930608E+02  0.57228902862E+02  0.32958848914E+02  0.90437460522E+02  0.00000000000E+00 0. -1.
          2    1    1    2  501    0  0.37983871604E+02 -0.27367793161E+02  0.26237188407E+02  0.53667128301E+02  0.00000000000E+00 0. -1.
<scales pt_clust_5="13000.00000" pt_clust_6="13000.00000" pt_clust_7="13000.00000" pt_clust_8="13000.00000" pt_clust_9="46.81637"></scales>
<clustering>
<clus scale="   46.816">  1  9  2 -1</clus>
<clus scale="   68.404">  7  8 -1 -1</clus>
<clus scale="   75.451">  5  6 -1 -1</clus>
<clus scale="  120.081">  2  7  1 -1</clus>
<clus scale="   46.816">  1  5  2 -1</clus>
</clustering>
</event>
<event>
 9    1  0.6270443E-005  0.9996990E+02  0.7546771E-02  0.1286074E+00
          3   -1    0    0  502    0 -0.00000000000E+00  0.00000000000E+00  0.16501017023E+03  0.16501017023E+03  0.00000000000E+00 0. -1.
         21   -1    0    0  501  502  0.00000000000E+00 -0.00000000000E+00 -0.15977669498E+03  0.15977669498E+03  0.00000000000E+00 0. -1.
         23    2    1    2    0    0  0.32523509472E+02  0.28125560724E+02  0.12416669922E+03  0.16044262048E+03  0.92063236069E+02 0.  0.
        -24    2    1    2    0    0 -0.45858738665E+01 -0.16699682178E+02 -0.94227160934E+02  0.12533845369E+03  0.80814976902E+02 0.  0.
         11    1    4    4    0    0  0.28121752107E+02 -0.31000345045E+02 -0.72014843833E+02  0.83294610071E+02  0.00000000000E+00 0. -1.
        -12    1    4    4    0    0 -0.32707625974E+02  0.14300662866E+02 -0.22212317100E+02  0.42043843619E+02  0.00000000000E+00 0.  1.
        -11    1    3    3    0    0  0.32169997161E+01  0.26623576502E+02 -0.56030630113E+01  0.27396317782E+02  0.00000000000E+00 0.  1.
         11    1    3    3    0    0  0.29306509755E+02  0.15019842218E+01  0.12976976223E+03  0.13304630269E+03  0.00000000000E+00 0. -1.
          4    1    1    2  501    0 -0.27937635605E+02 -0.11425878545E+02 -0.24706063044E+02  0.39005791043E+02  0.00000000000E+00 0. -1.
<scales pt_clust_5="13000.00000" pt_clust_6="13000.00000" pt_clust_7="13000.00000" pt_clust_8="13000.00000" pt_clust_9="30.18381"></scales>
<clustering>
<clus scale="   30.184">  2  9  1 -1</clus>
<clus scale="   80.815">  5  6 -1 -1</clus>
<clus scale="   89.718">  2  5  1 -1</clus>
<clus scale="   92.063">  7  8 -1 -1</clus>
<clus scale="   30.184">  2  5  1 -1</clus>
</clustering>
</event>
<event>
 9    1  0.6270443E-005  0.2314868E+03  0.7546771E-02  0.1151033E+00
          1   -1    0    0  502    0 -0.00000000000E+00  0.00000000000E+00  0.12702328043E+04  0.12702328043E+04  0.00000000000E+00 0. -1.
         21   -1    0    0  501  502  0.00000000000E+00 -0.00000000000E+00 -0.83047303268E+02  0.83047303268E+02  0.00000000000E+00 0. -1.
         23    2    1    2    0    0 -0.44207559620E+02 -0.66935487367E+02  0.23005352516E+03  0.26186511666E+03  0.95989828042E+02 0.  0.
        -24    2    1    2    0    0 -0.18742346283E+03  0.10427359037E+03  0.21901759764E+03  0.31690876120E+03  0.80386060887E+02 0.  0.
         11    1    4    4    0    0 -0.12547231356E+03  0.10841518716E+03  0.14481363240E+03  0.22015481464E+03  0.00000000000E+00 0. -1.
        -12    1    4    4    0    0 -0.61951149270E+02 -0.41415967923E+01  0.74203965236E+02  0.96753946568E+02  0.00000000000E+00 0.  1.
        -11    1    3    3    0    0  0.11550377962E+02 -0.48884726115E+02  0.43923614070E+02  0.66726393214E+02  0.00000000000E+00 0.  1.
         11    1    3    3    0    0 -0.55757937582E+02 -0.18050761252E+02  0.18612991109E+03  0.19513872344E+03  0.00000000000E+00 0. -1.
          2    1    1    2  501    0  0.23163102245E+03 -0.37338103005E+02  0.73811437823E+03  0.77450622970E+03  0.00000000000E+00 0. -1.
<scales pt_clust_5="13000.00000" pt_clust_6="13000.00000" pt_clust_7="13000.00000" pt_clust_8="13000.00000" pt_clust_9="217.08127"></scales>
<clustering>
<clus scale="   80.386">  5  6 -1 -1</clus>
<clus scale="   95.990">  7  8 -1 -1</clus>
<clus scale="  125.095">  1  7  2 -1</clus>
<clus scale="  217.081">  2  9  1 -1</clus>
<clus scale="  217.081">  2  5  1 -1</clus>
</clustering>
</event>
<event>
 9    1  0.6270443E-005  0.9023255E+02  0.7546771E-02  0.1306031E+00
         21   -1    0    0  501  502  0.00000000000E+00  0.00000000000E+00  0.38270844021E+02  0.38270844021E+02  0.00000000000E+00 0.  1.
          1   -1    0    0  502    0 -0.00000000000E+00 -0.00000000000E+00 -0.28258062572E+03  0.28258062572E+03  0.00000000000E+00 0. -1.
         23    2    1    2    0    0 -0.69298526991E+00  0.25606645353E+02 -0.11890832128E+03  0.15051468096E+03  0.88652691999E+02 0.  0.
        -24    2    1    2    0    0  0.13974999403E+02 -0.29176493702E+01 -0.70642389067E+02  0.10959340780E+03  0.82562428587E+02 0.  0.
         13    1    4    4    0    0 -0.14271983566E+02 -0.17739943120E+02 -0.74088511382E+02  0.77508080970E+02  0.00000000000E+00 0. -1.
        -14    1    4    4    0    0  0.28246982969E+02  0.14822293750E+02  0.34461223148E+01  0.32085326832E+02  0.00000000000E+00 0.  1.
        -13    1    3    3    0    0  0.37803822989E+02  0.22893212315E+01 -0.88316053947E+02  0.96094200704E+02  0.00000000000E+00 0.  1.
         13    1    3    3    0    0 -0.38496808259E+02  0.23317324122E+02 -0.30592267337E+02  0.54420480254E+02  0.00000000000E+00 0. -1.
          2    1    1    2  501    0 -0.13282014133E+02 -0.22688995983E+02 -0.54759071347E+02  0.60743380980E+02  0.00000000000E+00 0. -1.
<scales pt_clust_5="13000.00000" pt_clust_6="13000.00000" pt_clust_7="13000.00000" pt_clust_8="13000.00000" pt_clust_9="26.29074"></scales>
<clustering>
<clus scale="   26.291">  1  9  2 -1</clus>
<clus scale="   82.562">  5  6 -1 -1</clus>
<clus scale="   84.257">  1  5  2 -1</clus>
<clus scale="   88.653">  7  8 -1 -1</clus>
<clus scale="   26.291">  1  5  2 -1</clus>
</clustering>
</event>
<event>
 9    1  0.6270443E-005  0.1067557E+03  0.7546771E-02  0.1270770E+00
         21   -1    0    0  501  502  0.00000000000E+00  0.00000000000E+00  0.12383314496E+03  0.12383314496E+03  0.00000000000E+00 0.  1.
         -4   -1    0    0    0  501 -0.00000000000E+00 -0.00000000000E+00 -0.21853006504E+03  0.21853006504E+03  0.00000000000E+00 0.  1.
         23    2    1    2    0    0  0.19131217146E+01  0.57302138939E+02 -0.15691265097E+03  0.19001125069E+03  0.90529001942E+02 0.  0.
        -24    2    1    2    0    0 -0.28429264506E+02 -0.50286018028E+02  0.72579669871E+02  0.12303058465E+03  0.80819611423E+02 0.  0.
         13    1    4    4    0    0  0.14693930099E+02 -0.37433759343E+02  0.66375279887E+02  0.77607188458E+02  0.00000000000E+00 0. -1.
        -14    1    4    4    0    0 -0.43123194605E+02 -0.12852258685E+02  0.62043899842E+01  0.45423396189E+02  0.00000000000E+00 0.  1.
        -13    1    3    3    0    0  0.26251396761E+02 -0.44336090943E+01 -0.97065975848E+02  0.10065086383E+03  0.00000000000E+00 0. -1.
         13    1    3    3    0    0 -0.24338275046E+02  0.61735748033E+02 -0.59846675123E+02  0.89360386865E+02  0.00000000000E+00 0.  1.
         -3    1    1    2    0  502  0.26516142792E+02 -0.70161209110E+01 -0.10363938972E+02  0.29321374664E+02  0.00000000000E+00 0.  1.
<scales pt_clust_5="13000.00000" pt_clust_6="13000.00000" pt_clust_7="13000.00000" pt_clust_8="13000.00000" pt_clust_9="27.42868"></scales>
<clustering>
<clus scale="   27.429">  1  9  2 -1</clus>
<clus scale="   80.820">  5  6 -1 -1</clus>
<clus scale="   90.529">  7  8 -1 -1</clus>
<clus scale="   98.656">  1  5  2 -1</clus>
<clus scale="   27.429">  1  5  2 -1</clus>
</clustering>
</event>
<event>
 9    1  0.6270443E-005  0.9249869E+02  0.7546771E-02  0.1302761E+00
          1   -1    0    0  502    0 -0.00000000000E+00  0.00000000000E+00  0.47797728127E+03  0.47797728127E+03  0.00000000000E+00 0. -1.
         21   -1    0    0  501  502  0.00000000000E+00 -0.00000000000E+00 -0.51782354593E+02  0.51782354593E+02  0.00000000000E+00 0. -1.
         23    2    1    2    0    0 -0.31300158811E+01 -0.64643693981E+01  0.96677152914E+02  0.13247298239E+03  0.90283077582E+02 0.  0.
        -24    2    1    2    0    0 -0.15740825544E+01  0.44875793623E+02  0.32549668169E+02  0.97807736359E+02  0.80563998191E+02 0.  0.
         11    1    4    4    0    0  0.69221500495E+01  0.67600254436E+02  0.23128604924E+02  0.71781912254E+02  0.00000000000E+00 0. -1.
        -12    1    4    4    0    0 -0.84962326039E+01 -0.22724460813E+02  0.94210632449E+01  0.26025824105E+02  0.00000000000E+00 0.  1.
        -13    1    3    3    0    0  0.43080581104E+02 -0.66798186884E+01  0.38384652641E+02  0.58085609271E+02  0.00000000000E+00 0.  1.
         13    1    3    3    0    0 -0.46210596985E+02  0.21544929030E+00  0.58292500273E+02  0.74387373123E+02  0.00000000000E+00 0. -1.
          2    1    1    2  501    0  0.47040984355E+01 -0.38411424225E+02  0.29696810560E+03  0.29947891711E+03  0.00000000000E+00 0. -1.
<scales pt_clust_5="13000.00000" pt_clust_6="13000.00000" pt_clust_7="13000.00000" pt_clust_8="13000.00000" pt_clust_9="38.69842"></scales>
<clustering>
<clus scale="   38.698">  2  9  1 -1</clus>
<clus scale="   80.564">  5  6 -1 -1</clus>
<clus scale="   83.039">  2  5  1 -1</clus>
<clus scale="   90.283">  7  8 -1 -1</clus>
<clus scale="   38.698">  2  5  1 -1</clus>
</clustering>
</event>
<event>
 9    1  0.6611538E-005  0.4705002E+03  0.7546771E-02  0.1021920E+00
          1   -1    0    0  502    0 -0.00000000000E+00  0.00000000000E+00  0.59617070987E+03  0.59617070987E+03  0.00000000000E+00 0. -1.
         21   -1    0    0  501  502  0.00000000000E+00 -0.00000000000E+00 -0.10490544249E+04  0.10490544249E+04  0.00000000000E+00 0. -1.
        -24    2    1    2    0    0  0.46575035626E+03  0.84207408650E+02  0.41602590365E+03  0.63515785886E+03  0.79584364904E+02 0.  0.
         23    2    1    2    0    0 -0.37255496430E+03 -0.36815151377E+02 -0.79061378001E+03  0.87944704207E+03  0.90578109278E+02 0.  0.
         13    1    3    3    0    0  0.36358455509E+03  0.89379284605E+02  0.29480820008E+03  0.47654407986E+03  0.00000000000E+00 0. -1.
        -14    1    3    3    0    0  0.10216580117E+03 -0.51718759556E+01  0.12121770357E+03  0.15861377900E+03  0.00000000000E+00 0.  1.
        -13    1    4    4    0    0 -0.82126750281E+02 -0.86995851383E+01 -0.99807267398E+02  0.12954526822E+03  0.00000000000E+00 0.  1.
         13    1    4    4    0    0 -0.29042821402E+03 -0.28115566239E+02 -0.69080651261E+03  0.74990177385E+03  0.00000000000E+00 0. -1.
          2    1    1    2  501    0 -0.93195391958E+02 -0.47392257273E+02 -0.78295838627E+02  0.13062023380E+03  0.00000000000E+00 0. -1.
<scales pt_clust_5="13000.00000" pt_clust_6="13000.00000" pt_clust_7="13000.00000" pt_clust_8="13000.00000" pt_clust_9="104.55337"></scales>
<clustering>
<clus scale="   79.584">  5  6 -1 -1</clus>
<clus scale="   90.578">  7  8 -1 -1</clus>
<clus scale="  104.553">  2  9  1 -1</clus>
<clus scale="  468.508">  1  5  2 -1</clus>
<clus scale="  104.553">  2  5  1 -1</clus>
</clustering>
</event>
<event>
 9    1  0.6270443E-005  0.9062605E+02  0.7546771E-02  0.1307606E+00
         21   -1    0    0  501  502  0.00000000000E+00  0.00000000000E+00  0.15640287447E+03  0.15640287447E+03  0.00000000000E+00 0.  1.
         -2   -1    0    0    0  501 -0.00000000000E+00 -0.00000000000E+00 -0.10377028147E+03  0.10377028147E+03  0.00000000000E+00 0.  1.
         23    2    1    2    0    0  0.72041524828E+01  0.68622035493E+01 -0.49924532848E+02  0.10372634650E+03  0.90375363503E+02 0.  0.
        -24    2    1    2    0    0  0.21345229422E+02 -0.51556722054E+01  0.95796295952E+02  0.12705823552E+03  0.80527418440E+02 0.  0.
         13    1    4    4    0    0  0.46764747045E+02  0.15519929756E+02  0.68680743279E+02  0.84527239888E+02  0.00000000000E+00 0. -1.
        -14    1    4    4    0    0 -0.25419517624E+02 -0.20675601962E+02  0.27115552673E+02  0.42530995632E+02  0.00000000000E+00 0.  1.
        -11    1    3    3    0    0 -0.18491746207E+01  0.46640562089E+02 -0.12397173155E+02  0.48295459217E+02  0.00000000000E+00 0.  1.
         11    1    3    3    0    0  0.90533271035E+01 -0.39778358540E+02 -0.37527359693E+02  0.55430887286E+02  0.00000000000E+00 0. -1.
         -1    1    1    2    0  502 -0.28549381905E+02 -0.17065313438E+01  0.67608298970E+01  0.29388573924E+02  0.00000000000E+00 0.  1.
<scales pt_clust_5="13000.00000" pt_clust_6="13000.00000" pt_clust_7="13000.00000" pt_clust_8="13000.00000" pt_clust_9="28.60034"></scales>
<clustering>
<clus scale="   28.600">  1  9  2 -1</clus>
<clus scale="   80.527">  5  6 -1 -1</clus>
<clus scale="   80.809">  1  5  2 -1</clus>
<clus scale="   90.375">  7  8 -1 -1</clus>
<clus scale="   28.600">  1  5  2 -1</clus>
</clustering>
</event>
<event>
 9    1  0.6270443E-005  0.1001212E+03  0.7546771E-02  0.1285502E+00
         21   -1    0    0  501  502  0.00000000000E+00  0.00000000000E+00  0.28897732277E+02  0.28897732277E+02  0.00000000000E+00 0.  1.
          1   -1    0    0  502    0 -0.00000000000E+00 -0.00000000000E+00 -0.57461169519E+03  0.57461169519E+03  0.00000000000E+00 0. -1.
         23    2    1    2    0    0  0.27689982257E+01 -0.42327161944E+02 -0.35024953154E+03  0.36445539721E+03  0.91398830525E+02 0.  0.
        -24    2    1    2    0    0 -0.42563757777E+02  0.28200655593E+02 -0.13897356734E+03  0.16852461236E+03  0.80498087562E+02 0.  0.
         13    1    4    4    0    0  0.17578429222E+02  0.29944863271E+02 -0.43278550164E+02  0.55486294835E+02  0.00000000000E+00 0. -1.
        -14    1    4    4    0    0 -0.60142186999E+02 -0.17442076778E+01 -0.95695017174E+02  0.11303831753E+03  0.00000000000E+00 0.  1.
        -13    1    3    3    0    0 -0.17617390147E+02  0.10630916798E+02 -0.17828968607E+02  0.27226107859E+02  0.00000000000E+00 0.  1.
         13    1    3    3    0    0  0.20386388372E+02 -0.52958078742E+02 -0.33242056293E+03  0.33722928935E+03  0.00000000000E+00 0. -1.
          2    1    1    2  501    0  0.39794759551E+02  0.14126506351E+02 -0.56490864038E+02  0.70529417899E+02  0.00000000000E+00 0. -1.
<scales pt_clust_5="13000.00000" pt_clust_6="13000.00000" pt_clust_7="13000.00000" pt_clust_8="13000.00000" pt_clust_9="42.22773"></scales>
<clustering>
<clus scale="   42.228">  1  9  2 -1</clus>
<clus scale="   80.498">  5  6 -1 -1</clus>
<clus scale="   90.280">  1  5  2 -1</clus>
<clus scale="   91.399">  7  8 -1 -1</clus>
<clus scale="   42.228">  1  5  2 -1</clus>
</clustering>
</event>
<event>
 9    1  0.6270443E-005  0.1004805E+03  0.7546771E-02  0.1283698E+00
         -4   -1    0    0    0  501 -0.00000000000E+00  0.00000000000E+00  0.36847552019E+03  0.36847552019E+03  0.00000000000E+00 0.  1.
         21   -1    0    0  501  502  0.00000000000E+00 -0.00000000000E+00 -0.44471538664E+02  0.44471538664E+02  0.00000000000E+00 0.  1.
        -24    2    1    2    0    0  0.44961083848E+02  0.28498622030E+02  0.25243677154E+03  0.26997010672E+03  0.79535302715E+02 0.  0.
         23    2    1    2    0    0 -0.30171826530E+02 -0.92966789610E+01  0.72233869482E+02  0.11873069089E+03  0.88783318831E+02 0.  0.
         13    1    3    3    0    0 -0.20736943434E+02  0.18549290768E+02  0.54731410299E+02  0.61397266098E+02  0.00000000000E+00 0. -1.
        -14    1    3    3    0    0  0.65698027282E+02  0.99493312612E+01  0.19770536124E+03  0.20857284062E+03  0.00000000000E+00 0.  1.
        -13    1    4    4    0    0 -0.11869269073E+02  0.35252783512E+02  0.73359960219E+01  0.37913785505E+02  0.00000000000E+00 0.  1.
         13    1    4    4    0    0 -0.18302557457E+02 -0.44549462473E+02  0.64897873460E+02  0.80816905383E+02  0.00000000000E+00 0. -1.
         -3    1    1    2    0  502 -0.14789257318E+02 -0.19201943069E+02 -0.66665949603E+00  0.24246261248E+02  0.00000000000E+00 0.  1.
<scales pt_clust_5="13000.00000" pt_clust_6="13000.00000" pt_clust_7="13000.00000" pt_clust_8="13000.00000" pt_clust_9="24.23709"></scales>
<clustering>
<clus scale="   24.237">  2  9  1 -1</clus>
<clus scale="   79.535">  5  6 -1 -1</clus>
<clus scale="   88.783">  7  8 -1 -1</clus>
<clus scale="   92.411">  1  5  2 -1</clus>
<clus scale="   24.237">  2  5  1 -1</clus>
</clustering>
</event>
<event>
 9    1  0.6270443E-005  0.1905338E+03  0.7546771E-02  0.1159277E+00
          1   -1    0    0  502    0 -0.00000000000E+00  0.00000000000E+00  0.39728815131E+03  0.39728815131E+03  0.00000000000E+00 0. -1.
         21   -1    0    0  501  502  0.00000000000E+00 -0.00000000000E+00 -0.13243706537E+03  0.13243706537E+03  0.00000000000E+00 0. -1.
        -24    2    1    2    0    0 -0.17974354790E+03  0.23162563605E+02  0.24710289035E+03  0.31667161661E+03  0.79855037271E+02 0.  0.
         23    2    1    2    0    0  0.13190474216E+03 -0.17490407996E+02  0.56397412035E+00  0.16190653612E+03  0.92242251680E+02 0.  0.
         13    1    3    3    0    0 -0.10142794751E+03 -0.26844899705E+02  0.12387595204E+03  0.16233769947E+03  0.00000000000E+00 0. -1.
        -14    1    3    3    0    0 -0.78315600393E+02  0.50007463311E+02  0.12322693832E+03  0.15433391714E+03  0.00000000000E+00 0.  1.
        -11    1    4    4    0    0  0.49803956402E+02  0.37182298371E+02 -0.90169581910E+01  0.62803367111E+02  0.00000000000E+00 0. -1.
         11    1    4    4    0    0  0.82100785761E+02 -0.54672706367E+02  0.95809323114E+01  0.99103169011E+02  0.00000000000E+00 0.  1.
          2    1    1    2  501    0  0.47838805739E+02 -0.56721556094E+01  0.17184221460E+02  0.51147063953E+02  0.00000000000E+00 0. -1.
<scales pt_clust_5="13000.00000" pt_clust_6="13000.00000" pt_clust_7="13000.00000" pt_clust_8="13000.00000" pt_clust_9="48.17390"></scales>
<clustering>
<clus scale="   48.174">  2  9  1 -1</clus>
<clus scale="   79.855">  5  6 -1 -1</clus>
<clus scale="   92.242">  7  8 -1 -1</clus>
<clus scale="  184.855">  1  5  2 -1</clus>
<clus scale="   48.174">  2  5  1 -1</clus>
</clustering>
</event>
<event>
 9    1  0.6270443E-005  0.1301327E+03  0.7546771E-02  0.1228836E+00
         -4   -1    0    0    0  501 -0.00000000000E+00  0.00000000000E+00  0.17577313929E+03  0.17577313929E+03  0.00000000000E+00 0.  1.
         21   -1    0    0  501  502  0.00000000000E+00 -0.00000000000E+00 -0.14387033426E+03  0.14387033426E+03  0.00000000000E+00 0.  1.
        -24    2    1    2    0    0  0.95722496189E+02 -0.30168908284E+02  0.43140565488E+02  0.13884957084E+03  0.85703766705E+02 0.  0.
         23    2    1    2    0    0 -0.70828324834E+02  0.30013575208E+02 -0.53980998905E+02  0.13132948794E+03  0.91738867798E+02 0.  0.
         11    1    3    3    0    0  0.40711025904E+02  0.13096734933E+02 -0.17536748890E+02  0.46221744425E+02  0.00000000000E+00 0. -1.
        -12    1    3    3    0    0  0.55011470285E+02 -0.43265643216E+02  0.60677314378E+02  0.92627826413E+02  0.00000000000E+00 0.  1.
        -13    1    4    4    0    0 -0.79696030488E+02 -0.84951296762E+01 -0.34215501250E+02  0.87145424605E+02  0.00000000000E+00 0.  1.
         13    1    4    4    0    0  0.88677056547E+01  0.38508704884E+02 -0.19765497655E+02  0.44184063337E+02  0.00000000000E+00 0. -1.
         -3    1    1    2    0  502 -0.24894171356E+02  0.15533307552E+00  0.42743238443E+02  0.49464414769E+02  0.00000000000E+00 0.  1.
<scales pt_clust_5="13000.00000" pt_clust_6="13000.00000" pt_clust_7="13000.00000" pt_clust_8="13000.00000" pt_clust_9="24.89467"></scales>
<clustering>
<clus scale="   24.895">  2  9  1 -1</clus>
<clus scale="   85.704">  5  6 -1 -1</clus>
<clus scale="   91.739">  7  8 -1 -1</clus>
<clus scale="  125.951">  1  5  2 -1</clus>
<clus scale="   24.895">  2  5  1 -1</clus>
</clustering>
</event>
<event>
 9    1  0.6270443E-005  0.9270746E+02  0.7546771E-02  0.1303956E+00
          1   -1    0    0  502    0 -0.00000000000E+00  0.00000000000E+00  0.15038160299E+03  0.15038160299E+03  0.00000000000E+00 0. -1.
         21   -1    0    0  501  502  0.00000000000E+00 -0.00000000000E+00 -0.64877492926E+03  0.64877492926E+03  0.00000000000E+00 0. -1.
         23    2    1    2    0    0 -0.11911352466E+02  0.17549246676E+01  0.12111604414E+03  0.15277036998E+03  0.92329462902E+02 0.  0.
        -24    2    1    2    0    0 -0.44374421166E+02  0.37219344264E+02 -0.22254100216E+03  0.24355745507E+03  0.80258130046E+02 0.  0.
         13    1    4    4    0    0 -0.55281513606E+02  0.20182500247E+02 -0.78538904198E+02  0.98141421099E+02  0.00000000000E+00 0. -1.
        -14    1    4    4    0    0  0.10907092440E+02  0.17036844017E+02 -0.14400209796E+03  0.14541603397E+03  0.00000000000E+00 0.  1.
        -11    1    3    3    0    0 -0.30242108724E+02  0.38955617726E+02  0.48637897766E+02  0.69265939621E+02  0.00000000000E+00 0. -1.
         11    1    3    3    0    0  0.18330756258E+02 -0.37200693058E+02  0.72478146371E+02  0.83504430363E+02  0.00000000000E+00 0.  1.
          2    1    1    2  501    0  0.56285773631E+02 -0.38974268932E+02 -0.39696836825E+03  0.40282870720E+03  0.00000000000E+00 0. -1.
<scales pt_clust_5="13000.00000" pt_clust_6="13000.00000" pt_clust_7="13000.00000" pt_clust_8="13000.00000" pt_clust_9="68.46227"></scales>
<clustering>
<clus scale="   68.462">  2  9  1 -1</clus>
<clus scale="   80.258">  5  6 -1 -1</clus>
<clus scale="   80.693">  2  5  1 -1</clus>
<clus scale="   92.329">  7  8 -1 -1</clus>
<clus scale="   68.462">  2  5  1 -1</clus>
</clustering>
</event>
<event>
 9    1  0.6270443E-005  0.1502785E+03  0.7546771E-02  0.1211891E+00
         -4   -1    0    0    0  501 -0.00000000000E+00  0.00000000000E+00  0.22763573942E+03  0.22763573942E+03  0.00000000000E+00 0.  1.
         21   -1    0    0  501  502  0.00000000000E+00 -0.00000000000E+00 -0.24777215249E+03  0.24777215249E+03  0.00000000000E+00 0.  1.
         23    2    1    2    0    0 -0.23913590574E+02  0.71193178497E+02  0.10931827392E+03  0.15990985583E+03  0.89332796338E+02 0.  0.
        -24    2    1    2    0    0 -0.62960752328E+01  0.84213792620E+02 -0.10022618568E+02  0.11718522877E+03  0.80624571484E+02 0.  0.
         13    1    4    4    0    0  0.14724503003E+02  0.83579323196E+02 -0.28157651309E+02  0.89415700981E+02  0.00000000000E+00 0. -1.
        -14    1    4    4    0    0 -0.21020578236E+02  0.63446942372E+00  0.18135032742E+02  0.27769527784E+02  0.00000000000E+00 0.  1.
        -13    1    3    3    0    0 -0.44572514389E+02  0.78170990102E+02  0.66609062616E+02  0.11195615193E+03  0.00000000000E+00 0.  1.
         13    1    3    3    0    0  0.20658923815E+02 -0.69778116052E+01  0.42709211302E+02  0.47953703903E+02  0.00000000000E+00 0. -1.
         -3    1    1    2    0  502  0.30209665806E+02 -0.15540697112E+03 -0.11943206842E+03  0.19831280732E+03  0.00000000000E+00 0.  1.
<scales pt_clust_5="13000.00000" pt_clust_6="13000.00000" pt_clust_7="13000.00000" pt_clust_8="13000.00000" pt_clust_9="126.81994"></scales>
<clustering>
<clus scale="   80.625">  5  6 -1 -1</clus>
<clus scale="   89.333">  7  8 -1 -1</clus>
<clus scale="  116.708">  1  7  2 -1</clus>
<clus scale="  126.820">  2  9  1 -1</clus>
<clus scale="  126.820">  2  5  1 -1</clus>
</clustering>
</event>
<event>
 9    1  0.6270443E-005  0.9716842E+02  0.7546771E-02  0.1293250E+00
         21   -1    0    0  501  502  0.00000000000E+00  0.00000000000E+00  0.66159320919E+02  0.66159320919E+02  0.00000000000E+00 0. -1.
          1   -1    0    0  502    0 -0.00000000000E+00 -0.00000000000E+00 -0.40061440764E+03  0.40061440764E+03  0.00000000000E+00 0. -1.
        -24    2    1    2    0    0 -0.27728463973E+02  0.28845211811E+01 -0.30570732582E+03  0.31711640528E+03  0.79552858280E+02 0.  0.
         23    2    1    2    0    0  0.48244125858E+02 -0.10015412348E+02 -0.53000799114E+02  0.11710042149E+03  0.92063129651E+02 0.  0.
         11    1    3    3    0    0  0.27518729265E+02  0.46645381921E+01 -0.79639205032E+02  0.84388632854E+02  0.00000000000E+00 0. -1.
        -12    1    3    3    0    0 -0.55247193238E+02 -0.17800170110E+01 -0.22606812079E+03  0.23272777243E+03  0.00000000000E+00 0.  1.
        -13    1    4    4    0    0  0.72543322350E+02  0.49821901403E+01 -0.50303827981E+02  0.88418498889E+02  0.00000000000E+00 0. -1.
         13    1    4    4    0    0 -0.24299196493E+02 -0.14997602488E+02 -0.26969711335E+01  0.28681922597E+02  0.00000000000E+00 0.  1.
          2    1    1    2  501    0 -0.20515661885E+02  0.71308911664E+01  0.24253038217E+02  0.32556901790E+02  0.00000000000E+00 0. -1.
<scales pt_clust_5="13000.00000" pt_clust_6="13000.00000" pt_clust_7="13000.00000" pt_clust_8="13000.00000" pt_clust_9="21.71962"></scales>
<clustering>
<clus scale="   21.720">  1  9  2 -1</clus>
<clus scale="   79.553">  5  6 -1 -1</clus>
<clus scale="   85.409">  2  5  1 -1</clus>
<clus scale="   92.063">  7  8 -1 -1</clus>
<clus scale="   21.720">  1  5  2 -1</clus>
</clustering>
</event>
<event>
 9    1  0.6270443E-005  0.1610724E+03  0.7546771E-02  0.1190619E+00
          1   -1    0    0  502    0 -0.00000000000E+00  0.00000000000E+00  0.39782498244E+03  0.39782498244E+03  0.00000000000E+00 0. -1.
         21   -1    0    0  501  502  0.00000000000E+00 -0.00000000000E+00 -0.13833783768E+03  0.13833783768E+03  0.00000000000E+00 0.  1.
        -24    2    1    2    0    0 -0.58773873338E+02  0.11482241869E+03  0.16419791097E+03  0.22316140996E+03  0.78749634336E+02 0.  0.
         23    2    1    2    0    0  0.86721917983E+02 -0.95863780646E+02  0.16762996172E+03  0.23316592888E+03  0.97754748351E+02 0.  0.
         13    1    3    3    0    0  0.44725234285E+01  0.30237689971E+02  0.87357441633E+02  0.92550764283E+02  0.00000000000E+00 0. -1.
        -14    1    3    3    0    0 -0.63246396766E+02  0.84584728721E+02  0.76840469332E+02  0.13061064568E+03  0.00000000000E+00 0.  1.
        -13    1    4    4    0    0  0.82607536186E+02 -0.67445355755E+02  0.17369224912E+03  0.20381824857E+03  0.00000000000E+00 0. -1.
         13    1    4    4    0    0  0.41143817969E+01 -0.28418424890E+02 -0.60622873980E+01  0.29347680305E+02  0.00000000000E+00 0.  1.
          2    1    1    2  501    0 -0.27948044645E+02 -0.18958638045E+02 -0.72340727917E+02  0.79835481282E+02  0.00000000000E+00 0. -1.
<scales pt_clust_5="13000.00000" pt_clust_6="13000.00000" pt_clust_7="13000.00000" pt_clust_8="13000.00000" pt_clust_9="33.77163"></scales>
<clustering>
<clus scale="   33.772">  2  9  1 -1</clus>
<clus scale="   78.750">  5  6 -1 -1</clus>
<clus scale="   97.755">  7  8 -1 -1</clus>
<clus scale="  150.299">  1  5  2 -1</clus>
<clus scale="   33.772">  2  5  1 -1</clus>
</clustering>
</event>
<event>
 9    1  0.6270443E-005  0.1439960E+03  0.7546771E-02  0.1225145E+00
         21   -1    0    0  501  502  0.00000000000E+00  0.00000000000E+00  0.93814304199E+02  0.93814304199E+02  0.00000000000E+00 0.  1.
          1   -1    0    0  502    0 -0.00000000000E+00 -0.00000000000E+00 -0.57162006780E+03  0.57162006780E+03  0.00000000000E+00 0. -1.
         23    2    1    2    0    0  0.38704546055E+02  0.10822023557E+01 -0.27636945486E+03  0.29402862038E+03  0.92593417550E+02 0.  0.
        -24    2    1    2    0    0  0.10976393942E+03 -0.29335437544E-01 -0.19677276651E+02  0.13671372906E+03  0.79090614113E+02 0.  0.
         13    1    4    4    0    0  0.22409766767E+02 -0.34115581721E+02  0.39963968915E+00  0.40819484007E+02  0.00000000000E+00 0. -1.
        -14    1    4    4    0    0  0.87354172651E+02  0.34086246283E+02 -0.20076916340E+02  0.95894245056E+02  0.00000000000E+00 0.  1.
        -11    1    3    3    0    0 -0.23023104471E+02 -0.14116145012E+02 -0.15171611756E+03  0.15410097085E+03  0.00000000000E+00 0.  1.
         11    1    3    3    0    0  0.61727650525E+02  0.15198347367E+02 -0.12465333731E+03  0.13992764953E+03  0.00000000000E+00 0. -1.
          2    1    1    2  501    0 -0.14846848547E+03 -0.10528669181E+01 -0.18175903209E+03  0.23469202256E+03  0.00000000000E+00 0. -1.
<scales pt_clust_5="13000.00000" pt_clust_6="13000.00000" pt_clust_7="13000.00000" pt_clust_8="13000.00000" pt_clust_9="120.33098"></scales>
<clustering>
<clus scale="   79.091">  5  6 -1 -1</clus>
<clus scale="   92.593">  7  8 -1 -1</clus>
<clus scale="  100.363">  2  7  1 -1</clus>
<clus scale="  120.331">  1  9  2 -1</clus>
<clus scale="  120.331">  1  5  2 -1</clus>
</clustering>
</event>
<event>
 9    1  0.6270443E-005  0.1075858E+03  0.7546771E-02  0.1269415E+00
         21   -1    0    0  501  502  0.00000000000E+00  0.00000000000E+00  0.31446316639E+03  0.31446316639E+03  0.00000000000E+00 0.  1.
         -4   -1    0    0    0  501 -0.00000000000E+00 -0.00000000000E+00 -0.89013673617E+02  0.89013673617E+02  0.00000000000E+00 0.  1.
        -24    2    1    2    0    0  0.39014027431E+02 -0.50862979345E+02  0.81531445417E+02  0.13095449197E+03  0.79953520066E+02 0.  0.
         23    2    1    2    0    0  0.62278568933E+02  0.65959050444E+02  0.92010229417E+02  0.15770726626E+03  0.90423907398E+02 0.  0.
         11    1    3    3    0    0  0.33112386746E+02  0.14380685176E+02  0.21021797110E+02  0.41774995104E+02  0.00000000000E+00 0. -1.
        -12    1    3    3    0    0  0.59016406845E+01 -0.65243664521E+02  0.60509648307E+02  0.89179496866E+02  0.00000000000E+00 0.  1.
        -11    1    4    4    0    0 -0.86242599658E+01  0.43296307720E+02  0.69743843626E+01  0.44694408592E+02  0.00000000000E+00 0. -1.
         11    1    4    4    0    0  0.70902828898E+02  0.22662742724E+02  0.85035845054E+02  0.11301285766E+03  0.00000000000E+00 0.  1.
         -3    1    1    2    0  502 -0.10129259636E+03 -0.15096071099E+02  0.51907817937E+02  0.11481508178E+03  0.00000000000E+00 0.  1.
<scales pt_clust_5="13000.00000" pt_clust_6="13000.00000" pt_clust_7="13000.00000" pt_clust_8="13000.00000" pt_clust_9="102.41139"></scales>
<clustering>
<clus scale="   79.954">  5  6 -1 -1</clus>
<clus scale="   90.424">  7  8 -1 -1</clus>
<clus scale="  102.411">  1  9  2 -1</clus>
<clus scale="   98.948">  2  5  1 -1</clus>
<clus scale="  102.411">  1  5  2 -1</clus>
</clustering>
</event>
<event>
 9    1  0.6270443E-005  0.1679014E+03  0.7546771E-02  0.1203411E+00
         -2   -1    0    0    0  501 -0.00000000000E+00  0.00000000000E+00  0.75547321532E+03  0.75547321532E+03  0.00000000000E+00 0.  1.
         21   -1    0    0  501  502  0.00000000000E+00 -0.00000000000E+00 -0.13761377072E+03  0.13761377072E+03  0.00000000000E+00 0.  1.
        -24    2    1    2    0    0 -0.61132334542E+02  0.20534135263E+01  0.31427480171E+03  0.32991174210E+03  0.79572154364E+02 0.  0.
         23    2    1    2    0    0 -0.75326745408E+01  0.12487004547E+03  0.37245356734E+03  0.40327722434E+03  0.90893291344E+02 0.  0.
         13    1    3    3    0    0 -0.74644293664E+02  0.20438721956E+02  0.23472464346E+03  0.24715414255E+03  0.00000000000E+00 0. -1.
        -14    1    3    3    0    0  0.13511959122E+02 -0.18385308429E+02  0.79550158247E+02  0.82757599546E+02  0.00000000000E+00 0.  1.
        -13    1    4    4    0    0  0.25340169559E+02 -0.29173424036E-01  0.67635874853E+02  0.72226979803E+02  0.00000000000E+00 0. -1.
         13    1    4    4    0    0 -0.32872844099E+02  0.12489921889E+03  0.30481769248E+03  0.33105024454E+03  0.00000000000E+00 0.  1.
         -1    1    1    2    0  502  0.68665009082E+02 -0.12692345900E+03 -0.68868924445E+02  0.15989801959E+03  0.00000000000E+00 0.  1.
<scales pt_clust_5="13000.00000" pt_clust_6="13000.00000" pt_clust_7="13000.00000" pt_clust_8="13000.00000" pt_clust_9="141.17109"></scales>
<clustering>
<clus scale="   79.572">  5  6 -1 -1</clus>
<clus scale="   90.893">  7  8 -1 -1</clus>
<clus scale="  100.365">  1  5  2 -1</clus>
<clus scale="  141.171">  2  9  1 -1</clus>
<clus scale="  141.171">  2  5  1 -1</clus>
</clustering>
</event>
<event>
 9    1  0.6270443E-005  0.1227653E+03  0.7546771E-02  0.1242050E+00
          1   -1    0    0  502    0 -0.00000000000E+00  0.00000000000E+00  0.39941941526E+02  0.39941941526E+02  0.00000000000E+00 0. -1.
         21   -1    0    0  501  502  0.00000000000E+00 -0.00000000000E+00 -0.84882537381E+03  0.84882537381E+03  0.00000000000E+00 0.  1.
        -24    2    1    2    0    0  0.79265630448E+02 -0.32060794922E+02 -0.13853218113E+03  0.18161335305E+03  0.80506583931E+02 0.  0.
         23    2    1    2    0    0 -0.38596762146E+02  0.80619434704E+02 -0.23938229820E+03  0.27155536638E+03  0.91919687867E+02 0.  0.
         11    1    3    3    0    0  0.72464167845E+02 -0.37324687449E+02 -0.56611344511E+02  0.99242290592E+02  0.00000000000E+00 0. -1.
        -12    1    3    3    0    0  0.68014626027E+01  0.52638925268E+01 -0.81920836620E+02  0.82371062459E+02  0.00000000000E+00 0.  1.
        -13    1    4    4    0    0  0.92347785661E+01  0.79817818915E+02 -0.14749944257E+03  0.16796502883E+03  0.00000000000E+00 0.  1.
         13    1    4    4    0    0 -0.47831540712E+02  0.80161578931E+00 -0.91882855631E+02  0.10359033755E+03  0.00000000000E+00 0. -1.
          2    1    1    2  501    0 -0.40668868302E+02 -0.48558639782E+02 -0.43096895295E+03  0.43559859591E+03  0.00000000000E+00 0. -1.
<scales pt_clust_5="13000.00000" pt_clust_6="13000.00000" pt_clust_7="13000.00000" pt_clust_8="13000.00000" pt_clust_9="63.33955"></scales>
<clustering>
<clus scale="   63.340">  2  9  1 -1</clus>
<clus scale="   80.507">  5  6 -1 -1</clus>
<clus scale="   91.920">  7  8 -1 -1</clus>
<clus scale="  114.470">  1  5  2 -1</clus>
<clus scale="   63.340">  2  5  1 -1</clus>
</clustering>
</event>
<event>
 9    1  0.6270443E-005  0.1824502E+03  0.7546771E-02  0.1177542E+00
         21   -1    0    0  501  502  0.00000000000E+00  0.00000000000E+00  0.68912987831E+03  0.68912987831E+03  0.00000000000E+00 0. -1.
          3   -1    0    0  502    0 -0.00000000000E+00 -0.00000000000E+00 -0.11047943599E+03  0.11047943599E+03  0.00000000000E+00 0. -1.
         23    2    1    2    0    0 -0.96227153102E+02 -0.35622746667E+02  0.11576997958E+03  0.18049085423E+03  0.92981800451E+02 0.  0.
        -24    2    1    2    0    0  0.21812769899E+03 -0.52773319232E+02  0.17700301862E+03  0.29600931348E+03  0.76985250360E+02 0.  0.
         13    1    4    4    0    0  0.19800237400E+03 -0.21269901119E+02  0.15716147229E+03  0.25368696690E+03  0.00000000000E+00 0. -1.
        -14    1    4    4    0    0  0.20125324992E+02 -0.31503418113E+02  0.19841546337E+02  0.42322346578E+02  0.00000000000E+00 0.  1.
        -11    1    3    3    0    0 -0.57233370768E+02 -0.11731686144E+01  0.42175952161E+01  0.57400550202E+02  0.00000000000E+00 0. -1.
         11    1    3    3    0    0 -0.38993782334E+02 -0.34449578053E+02  0.11155238436E+03  0.12309030403E+03  0.00000000000E+00 0.  1.
          4    1    1    2  501    0 -0.12190054589E+03  0.88396065899E+02  0.28587744412E+03  0.32310914659E+03  0.00000000000E+00 0. -1.
<scales pt_clust_5="13000.00000" pt_clust_6="13000.00000" pt_clust_7="13000.00000" pt_clust_8="13000.00000" pt_clust_9="165.41263"></scales>
<clustering>
<clus scale="   76.985">  5  6 -1 -1</clus>
<clus scale="   92.982">  7  8 -1 -1</clus>
<clus scale="  138.471">  2  7  1 -1</clus>
<clus scale="  165.413">  1  9  2 -1</clus>
<clus scale="  165.413">  1  5  2 -1</clus>
</clustering>
</event>
<event>
 9    1  0.6270443E-005  0.1974642E+03  0.7546771E-02  0.1152787E+00
          1   -1    0    0  502    0 -0.00000000000E+00  0.00000000000E+00  0.88486646131E+03  0.88486646131E+03  0.00000000000E+00 0. -1.
         21   -1    0    0  501  502  0.00000000000E+00 -0.00000000000E+00 -0.73413296180E+02  0.73413296180E+02  0.00000000000E+00 0. -1.
         23    2    1    2    0    0  0.62176709398E+02  0.20015379122E+03  0.45037845012E+03  0.50482531116E+03  0.89890840065E+02 0.  0.
        -24    2    1    2    0    0 -0.10202024560E+03 -0.10458185172E+03  0.18417774644E+03  0.24848117860E+03  0.80473347200E+02 0.  0.
         11    1    4    4    0    0 -0.59401686798E+02 -0.61739579563E+02  0.16354199256E+03  0.18462480713E+03  0.00000000000E+00 0. -1.
        -12    1    4    4    0    0 -0.42618558806E+02 -0.42842272158E+02  0.20635753888E+02  0.63856371466E+02  0.00000000000E+00 0.  1.
        -13    1    3    3    0    0  0.53257832285E+02  0.60708556535E+02  0.10661387581E+03  0.13374768802E+03  0.00000000000E+00 0.  1.
         13    1    3    3    0    0  0.89188771130E+01  0.13944523468E+03  0.34376457431E+03  0.37107762314E+03  0.00000000000E+00 0. -1.
          2    1    1    2  501    0  0.39843536205E+02 -0.95571939496E+02  0.17689696857E+03  0.20497326773E+03  0.00000000000E+00 0. -1.
<scales pt_clust_5="13000.00000" pt_clust_6="13000.00000" pt_clust_7="13000.00000" pt_clust_8="13000.00000" pt_clust_9="103.54474"></scales>
<clustering>
<clus scale="   80.473">  5  6 -1 -1</clus>
<clus scale="   89.891">  7  8 -1 -1</clus>
<clus scale="  103.545">  2  9  1 -1</clus>
<clus scale="  193.359">  2  5  1 -1</clus>
<clus scale="  103.545">  2  5  1 -1</clus>
</clustering>
</event>
<event>
 9    1  0.6270443E-005  0.1388370E+03  0.7546771E-02  0.1217033E+00
         21   -1    0    0  501  502  0.00000000000E+00  0.00000000000E+00  0.17550999878E+03  0.17550999878E+03  0.00000000000E+00 0.  1.
          1   -1    0    0  502    0 -0.00000000000E+00 -0.00000000000E+00 -0.17073525365E+03  0.17073525365E+03  0.00000000000E+00 0. -1.
        -24    2    1    2    0    0  0.99656531454E+02 -0.23337204254E+02 -0.71524701572E+02  0.14839106267E+03  0.80175277862E+02 0.  0.
         23    2    1    2    0    0 -0.10403813575E+03  0.54252238749E+02  0.47241951014E+02  0.15520121953E+03  0.89935407410E+02 0.  0.
         11    1    3    3    0    0  0.90141350550E+02 -0.24435727021E+02 -0.88650228276E+02  0.12876890466E+03  0.00000000000E+00 0. -1.
        -12    1    3    3    0    0  0.95151809042E+01  0.10985227666E+01  0.17125526704E+02  0.19622158006E+02  0.00000000000E+00 0.  1.
        -11    1    4    4    0    0 -0.31871301729E+02  0.52026243915E+02  0.55564143537E+02  0.82522021163E+02  0.00000000000E+00 0.  1.
         11    1    4    4    0    0 -0.72166834025E+02  0.22259948338E+01 -0.83221925224E+01  0.72679198362E+02  0.00000000000E+00 0. -1.
          2    1    1    2  501    0  0.43816042999E+01 -0.30915034495E+02  0.29057495696E+02  0.42652970239E+02  0.00000000000E+00 0. -1.
<scales pt_clust_5="13000.00000" pt_clust_6="13000.00000" pt_clust_7="13000.00000" pt_clust_8="13000.00000" pt_clust_9="31.22399"></scales>
<clustering>
<clus scale="   31.224">  1  9  2 -1</clus>
<clus scale="   80.175">  5  6 -1 -1</clus>
<clus scale="   89.935">  7  8 -1 -1</clus>
<clus scale="  132.723">  2  5  1 -1</clus>
<clus scale="   31.224">  1  5  2 -1</clus>
</clustering>
</event>
<event>
 9    1  0.6270443E-005  0.1997388E+03  0.7546771E-02  0.1150292E+00
         21   -1    0    0  501  502  0.00000000000E+00  0.00000000000E+00  0.11725686980E+03  0.11725686980E+03  0.00000000000E+00 0. -1.
         -2   -1    0    0    0  501 -0.00000000000E+00 -0.00000000000E+00 -0.54854876578E+03  0.54854876578E+03  0.00000000000E+00 0.  1.
         23    2    1    2    0    0 -0.20960346959E+03  0.68776686563E+02 -0.22234267504E+03  0.32565872642E+03  0.89182363009E+02 0.  0.
        -24    2    1    2    0    0  0.13046421621E+03 -0.35667822757E+02 -0.65393395272E+02  0.17291206420E+03  0.85610633143E+02 0.  0.
         11    1    4    4    0    0  0.23970841807E+02 -0.44983579368E+02 -0.34806976300E+02  0.61722356313E+02  0.00000000000E+00 0. -1.
        -12    1    4    4    0    0  0.10649337441E+03  0.93157566111E+01 -0.30586418972E+02  0.11118970788E+03  0.00000000000E+00 0.  1.
        -11    1    3    3    0    0 -0.84333960235E+02 -0.13980706749E+02 -0.10309634166E+03  0.13392734102E+03  0.00000000000E+00 0.  1.
         11    1    3    3    0    0 -0.12526950936E+03  0.82757393312E+02 -0.11924633338E+03  0.19173138540E+03  0.00000000000E+00 0. -1.
         -1    1    1    2    0  502  0.79139253380E+02 -0.33108863806E+02 -0.14355582566E+03  0.16723484496E+03  0.00000000000E+00 0.  1.
<scales pt_clust_5="13000.00000" pt_clust_6="13000.00000" pt_clust_7="13000.00000" pt_clust_8="13000.00000" pt_clust_9="85.78593"></scales>
<clustering>
<clus scale="   85.611">  5  6 -1 -1</clus>
<clus scale="   85.786">  1  9  2 -1</clus>
<clus scale="   89.182">  7  8 -1 -1</clus>
<clus scale="  198.170">  1  5  2 -1</clus>
<clus scale="   85.786">  1  5  2 -1</clus>
</clustering>
</event>
<event>
 9    1  0.6548039E-005  0.1034554E+03  0.7546771E-02  0.1281313E+00
         -2   -1    0    0    0  501 -0.00000000000E+00  0.00000000000E+00  0.98604428985E+02  0.98604428985E+02  0.00000000000E+00 0.  1.
         21   -1    0    0  501  502  0.00000000000E+00 -0.00000000000E+00 -0.48755460676E+03  0.48755460676E+03  0.00000000000E+00 0. -1.
        -24    2    1    2    0    0 -0.37729507601E+02 -0.47781117201E+01  0.41041600390E+02  0.96485010571E+02  0.78604059735E+02 0.  0.
         23    2    1    2    0    0  0.80331157469E+02  0.33034186246E+02 -0.41770159654E+03  0.43709689247E+03  0.95051130096E+02 0.  0.
         13    1    3    3    0    0  0.10722835522E+02 -0.30511492560E+02  0.17658786079E+02  0.36847837191E+02  0.00000000000E+00 0. -1.
        -14    1    3    3    0    0 -0.48452343123E+02  0.25733380840E+02  0.23382814311E+02  0.59637173380E+02  0.00000000000E+00 0.  1.
        -13    1    4    4    0    0  0.87664891437E+01  0.50683843157E+02 -0.12309494269E+03  0.13340940074E+03  0.00000000000E+00 0.  1.
         13    1    4    4    0    0  0.71564668325E+02 -0.17649656912E+02 -0.29460665385E+03  0.30368749173E+03  0.00000000000E+00 0. -1.
         -1    1    1    2    0  502 -0.42601649868E+02 -0.28256074526E+02 -0.12290181625E+02  0.52577132705E+02  0.00000000000E+00 0.  1.
<scales pt_clust_5="13000.00000" pt_clust_6="13000.00000" pt_clust_7="13000.00000" pt_clust_8="13000.00000" pt_clust_9="51.12053"></scales>
<clustering>
<clus scale="   51.121">  2  9  1 -1</clus>
<clus scale="   78.604">  5  6 -1 -1</clus>
<clus scale="   88.583">  1  5  2 -1</clus>
<clus scale="   95.051">  7  8 -1 -1</clus>
<clus scale="   51.121">  2  5  1 -1</clus>
</clustering>
</event>
<event>
 9    1  0.6270443E-005  0.3654264E+03  0.7546771E-02  0.1084961E+00
         21   -1    0    0  501  502  0.00000000000E+00  0.00000000000E+00  0.13659270019E+04  0.13659270019E+04  0.00000000000E+00 0. -1.
         -2   -1    0    0    0  501 -0.00000000000E+00 -0.00000000000E+00 -0.24307793518E+03  0.24307793518E+03  0.00000000000E+00 0.  1.
        -24    2    1    2    0    0  0.60556333818E+02  0.13393272584E+03  0.64160584044E+03  0.66304216025E+03  0.79760937598E+02 0.  0.
         23    2    1    2    0    0 -0.23388510558E+03  0.24164509568E+03  0.38899343902E+03  0.52215670519E+03  0.90758659629E+02 0.  0.
         13    1    3    3    0    0  0.77029944902E+02  0.12773977721E+03  0.55722472140E+03  0.57684525935E+03  0.00000000000E+00 0. -1.
        -14    1    3    3    0    0 -0.16473611083E+02  0.61929486360E+01  0.84381119042E+02  0.86196900905E+02  0.00000000000E+00 0.  1.
        -13    1    4    4    0    0 -0.13016546058E+02  0.60906976630E+02  0.57892396453E+02  0.85033051460E+02  0.00000000000E+00 0.  1.
         13    1    4    4    0    0 -0.22086855952E+03  0.18073811905E+03  0.33110104257E+03  0.43712365373E+03  0.00000000000E+00 0. -1.
         -1    1    1    2    0  502  0.17332877176E+03 -0.37557782152E+03  0.92249787304E+02  0.42380607168E+03  0.00000000000E+00 0.  1.
<scales pt_clust_5="13000.00000" pt_clust_6="13000.00000" pt_clust_7="13000.00000" pt_clust_8="13000.00000" pt_clust_9="353.97666"></scales>
<clustering>
<clus scale="   79.761">  5  6 -1 -1</clus>
<clus scale="   90.759">  7  8 -1 -1</clus>
<clus scale="  167.233">  2  5  1 -1</clus>
<clus scale="  353.977">  1  9  2 -1</clus>
<clus scale="  353.977">  1  5  2 -1</clus>
</clustering>
</event>
<event>
 9    1  0.6270443E-005  0.9801262E+02  0.7546771E-02  0.1285145E+00
          3   -1    0    0  502    0 -0.00000000000E+00  0.00000000000E+00  0.90070347074E+03  0.90070347074E+03  0.00000000000E+00 0. -1.
         21   -1    0    0  501  502  0.00000000000E+00 -0.00000000000E+00 -0.48018386974E+02  0.48018386974E+02  0.00000000000E+00 0. -1.
        -24    2    1    2    0    0  0.46900498321E+02  0.74837589572E+01  0.80940596123E+03  0.81542869501E+03  0.86777204267E+02 0.  0.
         23    2    1    2    0    0 -0.30097506646E+02  0.16524293093E+02  0.47544533105E+02  0.10368031380E+03  0.85499781714E+02 0.  0.
         13    1    3    3    0    0  0.50825375660E+02  0.21061995997E+02  0.25612616907E+03  0.26196839689E+03  0.00000000000E+00 0. -1.
        -14    1    3    3    0    0 -0.39248773390E+01 -0.13578237040E+02  0.55327979217E+03  0.55346029813E+03  0.00000000000E+00 0.  1.
        -11    1    4    4    0    0  0.15348630911E+02 -0.16447081622E+02  0.41504952075E+02  0.47209617785E+02  0.00000000000E+00 0.  1.
         11    1    4    4    0    0 -0.45446137557E+02  0.32971374715E+02  0.60395810306E+01  0.56470696015E+02  0.00000000000E+00 0. -1.
          4    1    1    2  501    0 -0.16802991675E+02 -0.24008052050E+02 -0.42654105742E+01  0.29612848898E+02  0.00000000000E+00 0. -1.
<scales pt_clust_5="13000.00000" pt_clust_6="13000.00000" pt_clust_7="13000.00000" pt_clust_8="13000.00000" pt_clust_9="29.30405"></scales>
<clustering>
<clus scale="   29.304">  2  9  1 -1</clus>
<clus scale="   85.500">  7  8 -1 -1</clus>
<clus scale="   86.777">  5  6 -1 -1</clus>
<clus scale="   96.883">  2  7  1 -1</clus>
<clus scale="   29.304">  2  5  1 -1</clus>
</clustering>
</event>
<event>
 9    1  0.6270443E-005  0.1001975E+03  0.7546771E-02  0.1284472E+00
         21   -1    0    0  501  502  0.00000000000E+00  0.00000000000E+00  0.29964385183E+02  0.29964385183E+02  0.00000000000E+00 0. -1.
          1   -1    0    0  502    0 -0.00000000000E+00 -0.00000000000E+00 -0.85860844008E+03  0.85860844008E+03  0.00000000000E+00 0. -1.
        -24    2    1    2    0    0  0.23120015640E+02 -0.33410169387E+02 -0.42677567430E+03  0.43625231167E+03  0.80794979545E+02 0.  0.
         23    2    1    2    0    0 -0.33535307596E+01  0.51602166343E+02 -0.41100347056E+03  0.42394600838E+03  0.90179462566E+02 0.  0.
         13    1    3    3    0    0 -0.95121955604E+01  0.22922523585E+02 -0.13971219348E+03  0.14189933389E+03  0.00000000000E+00 0. -1.
        -14    1    3    3    0    0  0.32632211200E+02 -0.56332692972E+02 -0.28706348082E+03  0.29435297778E+03  0.00000000000E+00 0.  1.
        -11    1    4    4    0    0 -0.42243664872E+02  0.19586416200E+02 -0.27498699996E+03  0.27890142536E+03  0.00000000000E+00 0.  1.
         11    1    4    4    0    0  0.38890134112E+02  0.32015750144E+02 -0.13601647060E+03  0.14504458302E+03  0.00000000000E+00 0. -1.
          2    1    1    2  501    0 -0.19766484881E+02 -0.18191996957E+02  0.91350899602E+01  0.28374505218E+02  0.00000000000E+00 0. -1.
<scales pt_clust_5="13000.00000" pt_clust_6="13000.00000" pt_clust_7="13000.00000" pt_clust_8="13000.00000" pt_clust_9="26.86378"></scales>
<clustering>
<clus scale="   26.864">  1  9  2 -1</clus>
<clus scale="   80.795">  5  6 -1 -1</clus>
<clus scale="   90.179">  7  8 -1 -1</clus>
<clus scale="   91.842">  2  5  1 -1</clus>
<clus scale="   26.864">  1  5  2 -1</clus>
</clustering>
</event>
<event>
 9    1  0.6270443E-005  0.1321440E+03  0.7546771E-02  0.1236133E+00
         21   -1    0    0  501  502  0.00000000000E+00  0.00000000000E+00  0.44482117050E+03  0.44482117050E+03  0.00000000000E+00 0. -1.
          3   -1    0    0  502    0 -0.00000000000E+00 -0.00000000000E+00 -0.10422463478E+03  0.10422463478E+03  0.00000000000E+00 0. -1.
         23    2    1    2    0    0  0.30437450571E+02 -0.24967067284E+02  0.15136365281E+02  0.10462638928E+03  0.95748519230E+02 0.  0.
        -24    2    1    2    0    0 -0.93013749954E+02 -0.61825943772E+02  0.43614766071E+02  0.14294694299E+03  0.77830429061E+02 0.  0.
         13    1    4    4    0    0 -0.78586337924E+02 -0.78105533881E+02  0.23380611041E+02  0.11323842062E+03  0.00000000000E+00 0. -1.
        -14    1    4    4    0    0 -0.14427412030E+02  0.16279590109E+02  0.20234155030E+02  0.29708522376E+02  0.00000000000E+00 0.  1.
        -11    1    3    3    0    0 -0.21058697138E+02 -0.29348658955E+02 -0.20795741891E+02  0.41680635653E+02  0.00000000000E+00 0.  1.
         11    1    3    3    0    0  0.51496147709E+02  0.43815916714E+01  0.35932107172E+02  0.62945753632E+02  0.00000000000E+00 0. -1.
          4    1    1    2  501    0  0.62576299383E+02  0.86793011056E+02  0.28184540437E+03  0.30147247300E+03  0.00000000000E+00 0. -1.
<scales pt_clust_5="13000.00000" pt_clust_6="13000.00000" pt_clust_7="13000.00000" pt_clust_8="13000.00000" pt_clust_9="106.79163"></scales>
<clustering>
<clus scale="   77.830">  5  6 -1 -1</clus>
<clus scale="   95.749">  7  8 -1 -1</clus>
<clus scale="  103.526">  2  7  1 -1</clus>
<clus scale="  106.792">  1  9  2 -1</clus>
<clus scale="  106.792">  1  5  2 -1</clus>
</clustering>
</event>
<event>
 9    1  0.6270443E-005  0.1018144E+03  0.7546771E-02  0.1286724E+00
         21   -1    0    0  501  502  0.00000000000E+00  0.00000000000E+00  0.13751725567E+03  0.13751725567E+03  0.00000000000E+00 0. -1.
          3   -1    0    0  502    0 -0.00000000000E+00 -0.00000000000E+00 -0.20928638980E+03  0.20928638980E+03  0.00000000000E+00 0. -1.
         23    2    1    2    0    0 -0.30509458392E+02  0.39294387072E+01 -0.14167264757E+03  0.17612984198E+03  0.10002157080E+03 0.  0.
        -24    2    1    2    0    0 -0.16786034269E+02 -0.19646506950E+02  0.10892149347E+01  0.85707354005E+02  0.81711736975E+02 0.  0.
         13    1    4    4    0    0 -0.49840733864E+02 -0.71380192490E+01  0.32245180562E-01  0.50349291064E+02  0.00000000000E+00 0. -1.
        -14    1    4    4    0    0  0.33054699595E+02 -0.12508487701E+02  0.10569697541E+01  0.35358062941E+02  0.00000000000E+00 0.  1.
        -11    1    3    3    0    0  0.20987341043E+02  0.40979762216E+01  0.38826354593E+01  0.21733309717E+02  0.00000000000E+00 0.  1.
         11    1    3    3    0    0 -0.51496799435E+02 -0.16853751441E+00 -0.14555528303E+03  0.15439653226E+03  0.00000000000E+00 0. -1.
          4    1    1    2  501    0  0.47295492661E+02  0.15717068243E+02  0.68814298508E+02  0.84966449493E+02  0.00000000000E+00 0. -1.
<scales pt_clust_5="13000.00000" pt_clust_6="13000.00000" pt_clust_7="13000.00000" pt_clust_8="13000.00000" pt_clust_9="49.83864"></scales>
<clustering>
<clus scale="   49.839">  1  9  2 -1</clus>
<clus scale="   81.712">  5  6 -1 -1</clus>
<clus scale="   83.897">  1  5  2 -1</clus>
<clus scale="  100.022">  7  8 -1 -1</clus>
<clus scale="   49.839">  1  5  2 -1</clus>
</clustering>
</event>
<event>
 9    1  0.6270443E-005  0.1770418E+03  0.7546771E-02  0.1187203E+00
         21   -1    0    0  501  502  0.00000000000E+00  0.00000000000E+00  0.45995911439E+03  0.45995911439E+03  0.00000000000E+00 0. -1.
          1   -1    0    0  502    0 -0.00000000000E+00 -0.00000000000E+00 -0.16968711350E+03  0.16968711350E+03  0.00000000000E+00 0. -1.
        -24    2    1    2    0    0 -0.46238708363E+02  0.77437912787E+02  0.20466042538E+03  0.23830452305E+03  0.82270939604E+02 0.  0.
         23    2    1    2    0    0 -0.82212165425E+02  0.34642265726E+02 -0.81522089117E+02  0.15260491412E+03  0.93185203115E+02 0.  0.
         13    1    3    3    0    0 -0.66706878885E+02  0.43796381589E+02  0.15976864270E+03  0.17858877322E+03  0.00000000000E+00 0. -1.
        -14    1    3    3    0    0  0.20468170522E+02  0.33641531197E+02  0.44891782685E+02  0.59715749836E+02  0.00000000000E+00 0.  1.
        -13    1    4    4    0    0 -0.85670030488E+02  0.59227994189E+02 -0.64580067851E+02  0.12254751969E+03  0.00000000000E+00 0. -1.
         13    1    4    4    0    0  0.34578650632E+01 -0.24585728463E+02 -0.16942021266E+02  0.30057394422E+02  0.00000000000E+00 0.  1.
          2    1    1    2  501    0  0.12845087379E+03 -0.11208017851E+03  0.16713366463E+03  0.23873679072E+03  0.00000000000E+00 0. -1.
<scales pt_clust_5="13000.00000" pt_clust_6="13000.00000" pt_clust_7="13000.00000" pt_clust_8="13000.00000" pt_clust_9="150.53339"></scales>
<clustering>
<clus scale="   82.271">  5  6 -1 -1</clus>
<clus scale="   93.185">  7  8 -1 -1</clus>
<clus scale="  122.079">  2  5  1 -1</clus>
<clus scale="  150.533">  1  9  2 -1</clus>
<clus scale="  150.533">  1  5  2 -1</clus>
</clustering>
</event>
<event>
 9    1  0.6270443E-005  0.1584065E+03  0.7546771E-02  0.1192386E+00
         21   -1    0    0  501  502  0.00000000000E+00  0.00000000000E+00  0.32135936654E+03  0.32135936654E+03  0.00000000000E+00 0. -1.
         -4   -1    0    0    0  501 -0.00000000000E+00 -0.00000000000E+00 -0.38179377654E+03  0.38179377654E+03  0.00000000000E+00 0.  1.
         23    2    1    2    0    0  0.71215583681E+01 -0.12864837611E+03 -0.17375983380E+03  0.23535893096E+03  0.92737399522E+02 0.  0.
        -24    2    1    2    0    0 -0.10770318566E+03  0.11485104140E+03  0.24447871045E+03  0.30193820591E+03  0.81277933156E+02 0.  0.
         11    1    4    4    0    0 -0.63613681016E+02  0.11487305155E+03  0.16316415504E+03  0.20943987174E+03  0.00000000000E+00 0. -1.
        -12    1    4    4    0    0 -0.44089504646E+02 -0.22010150616E-01  0.81314555410E+02  0.92498334179E+02  0.00000000000E+00 0.  1.
        -11    1    3    3    0    0 -0.16708799984E+02 -0.12452591582E+03 -0.16920156509E+03  0.21074880151E+03  0.00000000000E+00 0.  1.
         11    1    3    3    0    0  0.23830358352E+02 -0.41224602956E+01 -0.45582687089E+01  0.24610129453E+02  0.00000000000E+00 0. -1.
         -3    1    1    2    0  502  0.10058162729E+03  0.13797334718E+02 -0.13115328665E+03  0.16585600620E+03  0.00000000000E+00 0.  1.
<scales pt_clust_5="13000.00000" pt_clust_6="13000.00000" pt_clust_7="13000.00000" pt_clust_8="13000.00000" pt_clust_9="101.52360"></scales>
<clustering>
<clus scale="   81.278">  5  6 -1 -1</clus>
<clus scale="   92.737">  7  8 -1 -1</clus>
<clus scale="  101.524">  1  9  2 -1</clus>
<clus scale="  151.982">  1  5  2 -1</clus>
<clus scale="  101.524">  1  5  2 -1</clus>
</clustering>
</event>
<event>
 9    1  0.6270443E-005  0.1922958E+03  0.7546771E-02  0.1185529E+00
          1   -1    0    0  502    0 -0.00000000000E+00  0.00000000000E+00  0.26530714560E+03  0.26530714560E+03  0.00000000000E+00 0. -1.
         21   -1    0    0  501  502  0.00000000000E+00 -0.00000000000E+00 -0.25660905095E+03  0.25660905095E+03  0.00000000000E+00 0. -1.
         23    2    1    2    0    0 -0.44146311209E+02  0.92593210845E+01  0.11479412300E+03  0.15151074310E+03  0.87995356578E+02 0.  0.
        -24    2    1    2    0    0  0.35129476561E+02 -0.16385081601E+03 -0.72894048797E+02  0.21203182857E+03  0.10753038616E+03 0.  0.
         13    1    4    4    0    0  0.70417396348E+02 -0.12981498592E+03 -0.40043905295E+02  0.15301651750E+03  0.00000000000E+00 0. -1.
        -14    1    4    4    0    0 -0.35287919787E+02 -0.34035830091E+02 -0.32850143502E+02  0.59015311073E+02  0.00000000000E+00 0.  1.
        -11    1    3    3    0    0 -0.98957367399E+01  0.30380770680E+02  0.22979009797E+01  0.32034312567E+02  0.00000000000E+00 0.  1.
         11    1    3    3    0    0 -0.34250574469E+02 -0.21121449595E+02  0.11249622202E+03  0.11947643053E+03  0.00000000000E+00 0. -1.
          2    1    1    2  501    0  0.90168346477E+01  0.15459149492E+03 -0.33201979551E+02  0.15837362487E+03  0.00000000000E+00 0. -1.
<scales pt_clust_5="13000.00000" pt_clust_6="13000.00000" pt_clust_7="13000.00000" pt_clust_8="13000.00000" pt_clust_9="159.42061"></scales>
<clustering>
<clus scale="   87.995">  7  8 -1 -1</clus>
<clus scale="   98.883">  1  7  2 -1</clus>
<clus scale="  107.530">  5  6 -1 -1</clus>
<clus scale="  159.421">  2  9  1 -1</clus>
<clus scale="  159.421">  2  5  1 -1</clus>
</clustering>
</event>
<event>
 9    1  0.6270443E-005  0.1001555E+03  0.7546771E-02  0.1285716E+00
          1   -1    0    0  502    0 -0.00000000000E+00  0.00000000000E+00  0.34176039079E+03  0.34176039079E+03  0.00000000000E+00 0. -1.
         21   -1    0    0  501  502  0.00000000000E+00 -0.00000000000E+00 -0.17890380087E+03  0.17890380087E+03  0.00000000000E+00 0. -1.
        -24    2    1    2    0    0 -0.40705271485E+02  0.10260437465E+02  0.27165082209E+03  0.28648637552E+03  0.80734617794E+02 0.  0.
         23    2    1    2    0    0  0.11552397173E+02 -0.41681340191E+02  0.15302911771E+02  0.10288705354E+03  0.92091121598E+02 0.  0.
         11    1    3    3    0    0 -0.60364623798E+02  0.93907043626E+01  0.24944024914E+03  0.25681220965E+03  0.00000000000E+00 0. -1.
        -12    1    3    3    0    0  0.19659352313E+02  0.86973310266E+00  0.22210572954E+02  0.29674165869E+02  0.00000000000E+00 0.  1.
        -13    1    4    4    0    0  0.44441183729E+02 -0.63473857431E+01  0.28082648164E+02  0.52952273274E+02  0.00000000000E+00 0.  1.
         13    1    4    4    0    0 -0.32888786556E+02 -0.35333954448E+02 -0.12779736393E+02  0.49934780267E+02  0.00000000000E+00 0. -1.
          2    1    1    2  501    0  0.29152874312E+02  0.31420902726E+02 -0.12409714394E+03  0.13129076260E+03  0.00000000000E+00 0. -1.
<scales pt_clust_5="13000.00000" pt_clust_6="13000.00000" pt_clust_7="13000.00000" pt_clust_8="13000.00000" pt_clust_9="42.86214"></scales>
<clustering>
<clus scale="   42.862">  2  9  1 -1</clus>
<clus scale="   80.735">  5  6 -1 -1</clus>
<clus scale="   89.824">  1  5  2 -1</clus>
<clus scale="   92.091">  7  8 -1 -1</clus>
<clus scale="   42.862">  2  5  1 -1</clus>
</clustering>
</event>
<event>
 9    1  0.6270443E-005  0.1338538E+03  0.7546771E-02  0.1227178E+00
         21   -1    0    0  501  502  0.00000000000E+00  0.00000000000E+00  0.29541546030E+03  0.29541546030E+03  0.00000000000E+00 0. -1.
         -4   -1    0    0    0  501 -0.00000000000E+00 -0.00000000000E+00 -0.15788904640E+03  0.15788904640E+03  0.00000000000E+00 0.  1.
        -24    2    1    2    0    0  0.93204079620E+02 -0.14284904838E+02 -0.39875371313E+02  0.12701526324E+03  0.75178274083E+02 0.  0.
         23    2    1    2    0    0 -0.64662056156E+02  0.10526986069E+03  0.16938100700E+03  0.23059576314E+03  0.96028929855E+02 0.  0.
         11    1    3    3    0    0 -0.16674263657E+01 -0.24162175879E+02 -0.17134062735E+01  0.24280173289E+02  0.00000000000E+00 0. -1.
        -12    1    3    3    0    0  0.94871505986E+02  0.98772710409E+01 -0.38161965039E+02  0.10273508995E+03  0.00000000000E+00 0.  1.
        -11    1    4    4    0    0 -0.77115343193E+02  0.73025543381E+02  0.16433066907E+03  0.19566316705E+03  0.00000000000E+00 0. -1.
         11    1    4    4    0    0  0.12453287037E+02  0.32244317306E+02  0.50503379336E+01  0.34932596093E+02  0.00000000000E+00 0.  1.
         -3    1    1    2    0  502 -0.28542023464E+02 -0.90984955850E+02  0.80207782091E+01  0.95693480329E+02  0.00000000000E+00 0.  1.
<scales pt_clust_5="13000.00000" pt_clust_6="13000.00000" pt_clust_7="13000.00000" pt_clust_8="13000.00000" pt_clust_9="95.35680"></scales>
<clustering>
<clus scale="   75.178">  5  6 -1 -1</clus>
<clus scale="   95.357">  1  9  2 -1</clus>
<clus scale="   96.029">  7  8 -1 -1</clus>
<clus scale="  119.779">  2  5  1 -1</clus>
<clus scale="   95.357">  1  5  2 -1</clus>
</clustering>
</event>
<event>
 9    1  0.6706530E-005  0.7419089E+03  0.7546771E-02  0.9648658E-01
         21   -1    0    0  501  502  0.00000000000E+00  0.00000000000E+00  0.17996120981E+04  0.17996120981E+04  0.00000000000E+00 0.  1.
          1   -1    0    0  502    0 -0.00000000000E+00 -0.00000000000E+00 -0.87810095400E+03  0.87810095400E+03  0.00000000000E+00 0. -1.
        -24    2    1    2    0    0 -0.54404282613E+03 -0.56681341445E+03 -0.50552906541E+03  0.93772745149E+03  0.80703741129E+02 0.  0.
         23    2    1    2    0    0  0.50614964537E+03  0.16324067827E+03  0.10759133268E+04  0.12037049518E+04  0.92093114175E+02 0.  0.
         11    1    3    3    0    0 -0.48124917387E+03 -0.46191280084E+03 -0.41520627836E+03  0.78572288787E+03  0.00000000000E+00 0. -1.
        -12    1    3    3    0    0 -0.62793652255E+02 -0.10490061361E+03 -0.90322787047E+02  0.15200456361E+03  0.00000000000E+00 0.  1.
        -13    1    4    4    0    0  0.36464871514E+02  0.98071621952E+01  0.14440437332E+03  0.14925980812E+03  0.00000000000E+00 0. -1.
         13    1    4    4    0    0  0.46968477386E+03  0.15343351607E+03  0.93150895343E+03  0.10544451437E+04  0.00000000000E+00 0.  1.
          2    1    1    2  501    0  0.37893180753E+02  0.40357273619E+03  0.35112688279E+03  0.53628064888E+03  0.00000000000E+00 0. -1.
<scales pt_clust_5="13000.00000" pt_clust_6="13000.00000" pt_clust_7="13000.00000" pt_clust_8="13000.00000" pt_clust_9="405.34781"></scales>
<clustering>
<clus scale="   80.704">  5  6 -1 -1</clus>
<clus scale="   92.093">  7  8 -1 -1</clus>
<clus scale="  405.348">  1  9  2 -1</clus>
<clus scale="  740.581">  2  5  1 -1</clus>
<clus scale="  405.348">  1  5  2 -1</clus>
</clustering>
</event>
<event>
 9    1  0.6270443E-005  0.1939528E+03  0.7546771E-02  0.1170595E+00
          1   -1    0    0  502    0 -0.00000000000E+00  0.00000000000E+00  0.85330524915E+03  0.85330524915E+03  0.00000000000E+00 0. -1.
         21   -1    0    0  501  502  0.00000000000E+00 -0.00000000000E+00 -0.83945216416E+02  0.83945216416E+02  0.00000000000E+00 0. -1.
         23    2    1    2    0    0 -0.99126409204E+02  0.16581905868E+02  0.25358860337E+03  0.28726871702E+03  0.90084024197E+02 0.  0.
        -24    2    1    2    0    0  0.41835643678E+02 -0.18626884700E+03  0.34680470578E+03  0.40375899679E+03  0.79382108137E+02 0.  0.
         11    1    4    4    0    0  0.53122608826E+02 -0.17783389094E+03  0.34155080270E+03  0.38872079332E+03  0.00000000000E+00 0. -1.
        -12    1    4    4    0    0 -0.11286965148E+02 -0.84349560607E+01  0.52539030822E+01  0.15038203470E+02  0.00000000000E+00 0.  1.
        -13    1    3    3    0    0 -0.23116849184E+02 -0.21740019857E+02  0.17360989006E+02  0.36172104152E+02  0.00000000000E+00 0.  1.
         13    1    3    3    0    0 -0.76009560020E+02  0.38321925725E+02  0.23622761436E+03  0.25109661287E+03  0.00000000000E+00 0. -1.
          2    1    1    2  501    0  0.57290765526E+02  0.16968694113E+03  0.16896672358E+03  0.24622275176E+03  0.00000000000E+00 0. -1.
<scales pt_clust_5="13000.00000" pt_clust_6="13000.00000" pt_clust_7="13000.00000" pt_clust_8="13000.00000" pt_clust_9="176.96380"></scales>
<clustering>
<clus scale="   79.382">  5  6 -1 -1</clus>
<clus scale="   90.084">  7  8 -1 -1</clus>
<clus scale="  134.967">  1  7  2 -1</clus>
<clus scale="  176.964">  2  9  1 -1</clus>
<clus scale="  176.964">  2  5  1 -1</clus>
</clustering>
</event>
<event>
 9    1  0.6270443E-005  0.1515555E+03  0.7546771E-02  0.1200778E+00
         -2   -1    0    0    0  501 -0.00000000000E+00  0.00000000000E+00  0.12502469405E+03  0.12502469405E+03  0.00000000000E+00 0.  1.
         21   -1    0    0  501  502  0.00000000000E+00 -0.00000000000E+00 -0.54622811903E+03  0.54622811903E+03  0.00000000000E+00 0.  1.
         23    2    1    2    0    0 -0.82211824156E+02  0.88801668315E+02  0.54339963684E+01  0.15246130071E+03  0.92576452580E+02 0.  0.
        -24    2    1    2    0    0  0.15296469904E+03  0.17222363083E+00 -0.19370333157E+03  0.25959928075E+03  0.80452328063E+02 0.  0.
         13    1    4    4    0    0  0.25553948857E+02  0.29491514998E+02 -0.67005974420E+02  0.77540662668E+02  0.00000000000E+00 0. -1.
        -14    1    4    4    0    0  0.12741075019E+03 -0.29319291367E+02 -0.12669735715E+03  0.18205861808E+03  0.00000000000E+00 0.  1.
        -11    1    3    3    0    0 -0.57365286077E+02  0.22603136638E+02 -0.35110744880E+02  0.70953803553E+02  0.00000000000E+00 0. -1.
         11    1    3    3    0    0 -0.24846538079E+02  0.66198531676E+02  0.40544741248E+02  0.81507497161E+02  0.00000000000E+00 0.  1.
         -1    1    1    2    0  502 -0.70752874886E+02 -0.88973891945E+02 -0.23293408978E+03  0.25919223162E+03  0.00000000000E+00 0.  1.
<scales pt_clust_5="13000.00000" pt_clust_6="13000.00000" pt_clust_7="13000.00000" pt_clust_8="13000.00000" pt_clust_9="113.67639"></scales>
<clustering>
<clus scale="   80.452">  5  6 -1 -1</clus>
<clus scale="   92.576">  7  8 -1 -1</clus>
<clus scale="  113.676">  2  9  1 -1</clus>
<clus scale="  144.469">  2  5  1 -1</clus>
<clus scale="  113.676">  2  5  1 -1</clus>
</clustering>
</event>
<event>
 9    1  0.6270443E-005  0.1036686E+03  0.7546771E-02  0.1277713E+00
          1   -1    0    0  502    0 -0.00000000000E+00  0.00000000000E+00  0.17747476873E+03  0.17747476873E+03  0.00000000000E+00 0. -1.
         21   -1    0    0  501  502  0.00000000000E+00 -0.00000000000E+00 -0.31951888870E+03  0.31951888870E+03  0.00000000000E+00 0.  1.
         23    2    1    2    0    0  0.50629003742E+02  0.44477214582E+01  0.80343726854E+02  0.13232615313E+03  0.92043566378E+02 0.  0.
        -24    2    1    2    0    0 -0.16932849880E+02  0.61933824163E+02 -0.26099219855E+03  0.28080907385E+03  0.81328274741E+02 0.  0.
         11    1    4    4    0    0 -0.41886095805E+02  0.24215159232E+02 -0.19426825386E+03  0.20020233120E+03  0.00000000000E+00 0. -1.
        -12    1    4    4    0    0  0.24953245925E+02  0.37718664931E+02 -0.66723944689E+02  0.80606742654E+02  0.00000000000E+00 0.  1.
        -13    1    3    3    0    0  0.27032342415E+02 -0.42389945707E+02  0.53476803778E+02  0.73399070674E+02  0.00000000000E+00 0. -1.
         13    1    3    3    0    0  0.23596661327E+02  0.46837667166E+02  0.26866923076E+02  0.58927082457E+02  0.00000000000E+00 0.  1.
          2    1    1    2  501    0 -0.33696153862E+02 -0.66381545621E+02  0.38604351730E+02  0.83858430445E+02  0.00000000000E+00 0. -1.
<scales pt_clust_5="13000.00000" pt_clust_6="13000.00000" pt_clust_7="13000.00000" pt_clust_8="13000.00000" pt_clust_9="74.44425"></scales>
<clustering>
<clus scale="   74.444">  2  9  1 -1</clus>
<clus scale="   81.328">  5  6 -1 -1</clus>
<clus scale="   92.044">  7  8 -1 -1</clus>
<clus scale="   94.284">  2  5  1 -1</clus>
<clus scale="   74.444">  2  5  1 -1</clus>
</clustering>
</event>
<event>
 9    1  0.6270443E-005  0.2157586E+03  0.7546771E-02  0.1138493E+00
          1   -1    0    0  502    0 -0.00000000000E+00  0.00000000000E+00  0.27487884175E+03  0.27487884175E+03  0.00000000000E+00 0. -1.
         21   -1    0    0  501  502  0.00000000000E+00 -0.00000000000E+00 -0.18618925579E+03  0.18618925579E+03  0.00000000000E+00 0. -1.
        -24    2    1    2    0    0  0.17960503998E+03 -0.91495961767E+02  0.63112248428E+02  0.22325027627E+03  0.72305245644E+02 0.  0.
         23    2    1    2    0    0 -0.15941341699E+03  0.10236040562E+03  0.34867345447E+02  0.21307833812E+03  0.91084335882E+02 0.  0.
         11    1    3    3    0    0  0.18284274228E+03 -0.75497416654E+02  0.57918854360E+02  0.20612113432E+03  0.00000000000E+00 0. -1.
        -12    1    3    3    0    0 -0.32377022970E+01 -0.15998545112E+02  0.51933940676E+01  0.17129141946E+02  0.00000000000E+00 0.  1.
        -13    1    4    4    0    0 -0.73641679576E+02  0.65109400467E+02  0.61372143572E+02  0.11588300569E+03  0.00000000000E+00 0.  1.
         13    1    4    4    0    0 -0.85771737411E+02  0.37251005158E+02 -0.26504798126E+02  0.97195332437E+02  0.00000000000E+00 0. -1.
          2    1    1    2  501    0 -0.20191622993E+02 -0.10864443858E+02 -0.92900079151E+01  0.24739483149E+02  0.00000000000E+00 0. -1.
<scales pt_clust_5="13000.00000" pt_clust_6="13000.00000" pt_clust_7="13000.00000" pt_clust_8="13000.00000" pt_clust_9="22.92897"></scales>
<clustering>
<clus scale="   22.929">  2  9  1 -1</clus>
<clus scale="   72.305">  5  6 -1 -1</clus>
<clus scale="   91.084">  7  8 -1 -1</clus>
<clus scale="  208.527">  1  5  2 -1</clus>
<clus scale="   22.929">  2  5  1 -1</clus>
</clustering>
</event>
<event>
 9    1  0.6270443E-005  0.1616581E+03  0.7546771E-02  0.1212794E+00
         21   -1    0    0  501  502  0.00000000000E+00  0.00000000000E+00  0.44198857544E+02  0.44198857544E+02  0.00000000000E+00 0. -1.
          1   -1    0    0  502    0 -0.00000000000E+00 -0.00000000000E+00 -0.96411834071E+03  0.96411834071E+03  0.00000000000E+00 0. -1.
        -24    2    1    2    0    0  0.16979234065E+02  0.39257739234E+02 -0.15814491878E+03  0.18294451971E+03  0.81421234794E+02 0.  0.
         23    2    1    2    0    0  0.82324678308E+02 -0.12187920942E+03 -0.55611462496E+03  0.58250731454E+03  0.91757294293E+02 0.  0.
         11    1    3    3    0    0 -0.31235834397E+02  0.35612121885E+01 -0.64102714591E+02  0.71396901898E+02  0.00000000000E+00 0. -1.
        -12    1    3    3    0    0  0.48215068462E+02  0.35696527045E+02 -0.94042204191E+02  0.11154761781E+03  0.00000000000E+00 0.  1.
        -11    1    4    4    0    0  0.59293971400E+02 -0.74722017449E+02 -0.48404400892E+03  0.49335358265E+03  0.00000000000E+00 0. -1.
         11    1    4    4    0    0  0.23030706908E+02 -0.47157191972E+02 -0.72070616035E+02  0.89153731896E+02  0.00000000000E+00 0.  1.
          2    1    1    2  501    0 -0.99303912372E+02  0.82621470187E+02 -0.20565993943E+03  0.24286536400E+03  0.00000000000E+00 0. -1.
<scales pt_clust_5="13000.00000" pt_clust_6="13000.00000" pt_clust_7="13000.00000" pt_clust_8="13000.00000" pt_clust_9="133.09370"></scales>
<clustering>
<clus scale="   81.421">  5  6 -1 -1</clus>
<clus scale="   91.757">  7  8 -1 -1</clus>
<clus scale="   91.972">  2  5  1 -1</clus>
<clus scale="  133.094">  1  9  2 -1</clus>
<clus scale="  133.094">  1  5  2 -1</clus>
</clustering>
</event>
<event>
 9    1  0.6270443E-005  0.1676770E+03  0.7546771E-02  0.1199836E+00
          1   -1    0    0  502    0 -0.00000000000E+00  0.00000000000E+00  0.12378820113E+04  0.12378820113E+04  0.00000000000E+00 0. -1.
         21   -1    0    0  501  502  0.00000000000E+00 -0.00000000000E+00 -0.83470914082E+02  0.83470914082E+02  0.00000000000E+00 0. -1.
         23    2    1    2    0    0 -0.50549885370E+02  0.98873809029E+01  0.24605998066E+03  0.26907344699E+03  0.95926818902E+02 0.  0.
        -24    2    1    2    0    0  0.17499111351E+02 -0.14713231655E+03  0.41659903416E+02  0.17416662404E+03  0.81512746904E+02 0.  0.
         13    1    4    4    0    0 -0.18917998675E+02 -0.12080252262E+03  0.41817583563E+02  0.12922790117E+03  0.00000000000E+00 0. -1.
        -14    1    4    4    0    0  0.36417110025E+02 -0.26329793929E+02 -0.15768014639E+00  0.44938722878E+02  0.00000000000E+00 0.  1.
        -13    1    3    3    0    0 -0.61607905360E+02  0.41093241799E+02  0.19062814237E+03  0.20450740131E+03  0.00000000000E+00 0.  1.
         13    1    3    3    0    0  0.11058019989E+02 -0.31205860896E+02  0.55431838283E+02  0.64566045688E+02  0.00000000000E+00 0. -1.
          2    1    1    2  501    0  0.33050774020E+02  0.13724493564E+03  0.86669121317E+03  0.87811285437E+03  0.00000000000E+00 0. -1.
<scales pt_clust_5="13000.00000" pt_clust_6="13000.00000" pt_clust_7="13000.00000" pt_clust_8="13000.00000" pt_clust_9="146.53081"></scales>
<clustering>
<clus scale="   81.513">  5  6 -1 -1</clus>
<clus scale="   95.927">  7  8 -1 -1</clus>
<clus scale="  108.881">  1  7  2 -1</clus>
<clus scale="  146.531">  2  9  1 -1</clus>
<clus scale="  146.531">  2  5  1 -1</clus>
</clustering>
</event>
<event>
 9    1  0.6270443E-005  0.1770887E+03  0.7546771E-02  0.1172184E+00
         -2   -1    0    0    0  501 -0.00000000000E+00  0.00000000000E+00  0.65630864336E+02  0.65630864336E+02  0.00000000000E+00 0.  1.
         21   -1    0    0  501  502  0.00000000000E+00 -0.00000000000E+00 -0.85083735086E+03  0.85083735086E+03  0.00000000000E+00 0.  1.
        -24    2    1    2    0    0 -0.13858892023E+03 -0.68680460605E+02 -0.12272614810E+03  0.21284214659E+03  0.79474382403E+02 0.  0.
         23    2    1    2    0    0  0.98317672372E+02  0.11309587496E+03 -0.52505427664E+03  0.55369133316E+03  0.91842568339E+02 0.  0.
         11    1    3    3    0    0 -0.48210993516E+02 -0.16491310483E+01 -0.26926111315E+01  0.48314280329E+02  0.00000000000E+00 0. -1.
        -12    1    3    3    0    0 -0.90377926718E+02 -0.67031329556E+02 -0.12003353697E+03  0.16452786627E+03  0.00000000000E+00 0.  1.
        -11    1    4    4    0    0  0.43767144852E+02  0.24769193075E+02 -0.65621683347E+02  0.82675759563E+02  0.00000000000E+00 0. -1.
         11    1    4    4    0    0  0.54550527520E+02  0.88326681886E+02 -0.45943259330E+03  0.47101557360E+03  0.00000000000E+00 0.  1.
         -1    1    1    2    0  502  0.40271247862E+02 -0.44415414356E+02 -0.13742606177E+03  0.14993473544E+03  0.00000000000E+00 0.  1.
<scales pt_clust_5="13000.00000" pt_clust_6="13000.00000" pt_clust_7="13000.00000" pt_clust_8="13000.00000" pt_clust_9="59.95417"></scales>
<clustering>
<clus scale="   59.954">  2  9  1 -1</clus>
<clus scale="   79.474">  5  6 -1 -1</clus>
<clus scale="   91.843">  7  8 -1 -1</clus>
<clus scale="  171.002">  1  5  2 -1</clus>
<clus scale="   59.954">  2  5  1 -1</clus>
</clustering>
</event>
<event>
 9    1  0.6270443E-005  0.1724186E+03  0.7546771E-02  0.1176884E+00
         21   -1    0    0  501  502  0.00000000000E+00  0.00000000000E+00  0.11587718854E+04  0.11587718854E+04  0.00000000000E+00 0.  1.
          1   -1    0    0  502    0 -0.00000000000E+00 -0.00000000000E+00 -0.13425437813E+03  0.13425437813E+03  0.00000000000E+00 0. -1.
         23    2    1    2    0    0  0.13911428683E+03 -0.51230029390E+01 -0.19116234825E+02  0.16786623463E+03  0.91840145556E+02 0.  0.
        -24    2    1    2    0    0 -0.22224733872E+03 -0.10937866628E+03  0.82159691218E+03  0.86186914336E+03  0.80245635166E+02 0.  0.
         11    1    4    4    0    0 -0.12957015575E+03 -0.77450699702E+02  0.36715782208E+03  0.39697846599E+03  0.00000000000E+00 0. -1.
        -12    1    4    4    0    0 -0.92677182975E+02 -0.31927966582E+02  0.45443909010E+03  0.46489067737E+03  0.00000000000E+00 0.  1.
        -13    1    3    3    0    0  0.86390896561E+02 -0.19783115814E+02 -0.53226822012E+02  0.10338207418E+03  0.00000000000E+00 0.  1.
         13    1    3    3    0    0  0.52723390268E+02  0.14660112875E+02  0.34110587187E+02  0.64484160451E+02  0.00000000000E+00 0. -1.
          2    1    1    2  501    0  0.83133051894E+02  0.11450166922E+03  0.22203682987E+03  0.26329088551E+03  0.00000000000E+00 0. -1.
<scales pt_clust_5="13000.00000" pt_clust_6="13000.00000" pt_clust_7="13000.00000" pt_clust_8="13000.00000" pt_clust_9="141.49819"></scales>
<clustering>
<clus scale="   80.246">  5  6 -1 -1</clus>
<clus scale="   91.840">  7  8 -1 -1</clus>
<clus scale="  141.498">  1  9  2 -1</clus>
<clus scale="  166.532">  1  5  2 -1</clus>
<clus scale="  141.498">  1  5  2 -1</clus>
</clustering>
</event>
<event>
 9    1  0.6270443E-005  0.9789917E+02  0.7546771E-02  0.1288802E+00
         -4   -1    0    0    0  501 -0.00000000000E+00  0.00000000000E+00  0.56832570683E+03  0.56832570683E+03  0.00000000000E+00 0.  1.
         21   -1    0    0  501  502  0.00000000000E+00 -0.00000000000E+00 -0.28964398343E+02  0.28964398343E+02  0.00000000000E+00 0.  1.
        -24    2    1    2    0    0 -0.26213463069E+02 -0.12314553466E+02  0.18469655576E+03  0.20392369011E+03  0.81444826770E+02 0.  0.
         23    2    1    2    0    0  0.77267710877E+02  0.37376509322E+02  0.25289704529E+03  0.27678466637E+03  0.72701674163E+02 0.  0.
         11    1    3    3    0    0 -0.11840369718E+02  0.34297200841E+02  0.61257211231E+02  0.71196476517E+02  0.00000000000E+00 0. -1.
        -12    1    3    3    0    0 -0.14373093351E+02 -0.46611754307E+02  0.12343934453E+03  0.13272721360E+03  0.00000000000E+00 0.  1.
        -13    1    4    4    0    0  0.10635625687E+02  0.35850949025E+02  0.14681573570E+03  0.15150335749E+03  0.00000000000E+00 0. -1.
         13    1    4    4    0    0  0.66632085191E+02  0.15255602973E+01  0.10608130959E+03  0.12528130888E+03  0.00000000000E+00 0.  1.
         -3    1    1    2    0  502 -0.51054247809E+02 -0.25061955856E+02  0.10176770744E+03  0.11658174869E+03  0.00000000000E+00 0.  1.
<scales pt_clust_5="13000.00000" pt_clust_6="13000.00000" pt_clust_7="13000.00000" pt_clust_8="13000.00000" pt_clust_9="56.87388"></scales>
<clustering>
<clus scale="   56.874">  2  9  1 -1</clus>
<clus scale="   72.702">  7  8 -1 -1</clus>
<clus scale="   81.445">  5  6 -1 -1</clus>
<clus scale="   90.755">  2  7  1 -1</clus>
<clus scale="   56.874">  2  5  1 -1</clus>
</clustering>
</event>
<event>
 9    1  0.6270443E-005  0.1781295E+03  0.7546771E-02  0.1170897E+00
         21   -1    0    0  501  502  0.00000000000E+00  0.00000000000E+00  0.14095054319E+04  0.14095054319E+04  0.00000000000E+00 0.  1.
          1   -1    0    0  502    0 -0.00000000000E+00 -0.00000000000E+00 -0.27780189152E+02  0.27780189152E+02  0.00000000000E+00 0. -1.
         23    2    1    2    0    0  0.15143962680E+03 -0.18929314641E+02  0.42908347419E+03  0.46453598270E+03  0.91590238995E+02 0.  0.
        -24    2    1    2    0    0 -0.14859212497E+03  0.40897960879E+02  0.82400090383E+03  0.84221534492E+03  0.81221517471E+02 0.  0.
         13    1    4    4    0    0 -0.63527326639E+02  0.54106887990E+02  0.30899099640E+03  0.32006048243E+03  0.00000000000E+00 0. -1.
        -14    1    4    4    0    0 -0.85064798334E+02 -0.13208927111E+02  0.51500990743E+03  0.52215486249E+03  0.00000000000E+00 0.  1.
        -11    1    3    3    0    0  0.64485363979E+01  0.21367033267E+02  0.10317876502E+03  0.10556510447E+03  0.00000000000E+00 0.  1.
         11    1    3    3    0    0  0.14499109040E+03 -0.40296347908E+02  0.32590470918E+03  0.35897087823E+03  0.00000000000E+00 0. -1.
          2    1    1    2  501    0 -0.28475018254E+01 -0.21968646238E+02  0.12864086468E+03  0.13053429339E+03  0.00000000000E+00 0. -1.
<scales pt_clust_5="13000.00000" pt_clust_6="13000.00000" pt_clust_7="13000.00000" pt_clust_8="13000.00000" pt_clust_9="22.15242"></scales>
<clustering>
<clus scale="   22.152">  1  9  2 -1</clus>
<clus scale="   81.222">  5  6 -1 -1</clus>
<clus scale="   91.590">  7  8 -1 -1</clus>
<clus scale="  173.027">  1  5  2 -1</clus>
<clus scale="   22.152">  1  5  2 -1</clus>
</clustering>
</event>
<event>
 9    1  0.6270443E-005  0.1023276E+03  0.7546771E-02  0.1280725E+00
          1   -1    0    0  502    0 -0.00000000000E+00  0.00000000000E+00  0.43285754112E+03  0.43285754112E+03  0.00000000000E+00 0. -1.
         21   -1    0    0  501  502  0.00000000000E+00 -0.00000000000E+00 -0.86136964496E+02  0.86136964496E+02  0.00000000000E+00 0. -1.
        -24    2    1    2    0    0  0.41822947464E+02 -0.29726541578E+02  0.35062373813E+03  0.36308045329E+03  0.79104889935E+02 0.  0.
         23    2    1    2    0    0  0.27133639926E+01  0.24794074240E+02 -0.36434014221E+02  0.10054195962E+03  0.90327956863E+02 0.  0.
         11    1    3    3    0    0  0.79764348033E+01 -0.42838943525E+02  0.90587567960E+02  0.10052316183E+03  0.00000000000E+00 0. -1.
        -12    1    3    3    0    0  0.33846512661E+02  0.13112401947E+02  0.26003617017E+03  0.26255729146E+03  0.00000000000E+00 0.  1.
        -13    1    4    4    0    0 -0.90505380230E+01 -0.32254962782E+02 -0.36457331864E+01  0.33698460396E+02  0.00000000000E+00 0.  1.
         13    1    4    4    0    0  0.11763902016E+02  0.57049037022E+02 -0.32788281035E+02  0.66843499227E+02  0.00000000000E+00 0. -1.
          2    1    1    2  501    0 -0.44536311457E+02  0.49324673387E+01  0.32530852720E+02  0.55372092709E+02  0.00000000000E+00 0. -1.
<scales pt_clust_5="13000.00000" pt_clust_6="13000.00000" pt_clust_7="13000.00000" pt_clust_8="13000.00000" pt_clust_9="44.80862"></scales>
<clustering>
<clus scale="   44.809">  2  9  1 -1</clus>
<clus scale="   79.105">  5  6 -1 -1</clus>
<clus scale="   90.328">  7  8 -1 -1</clus>
<clus scale="   92.571">  1  5  2 -1</clus>
<clus scale="   44.809">  2  5  1 -1</clus>
</clustering>
</event>
<event>
 9    1  0.6270443E-005  0.1207929E+03  0.7546771E-02  0.1245084E+00
         21   -1    0    0  501  502  0.00000000000E+00  0.00000000000E+00  0.42632948424E+03  0.42632948424E+03  0.00000000000E+00 0. -1.
         -2   -1    0    0    0  501 -0.00000000000E+00 -0.00000000000E+00 -0.78085333347E+02  0.78085333347E+02  0.00000000000E+00 0.  1.
         23    2    1    2    0    0 -0.48545265854E+02  0.68476116899E+02  0.90738003277E+01  0.12445590877E+03  0.91440242522E+02 0.  0.
        -24    2    1    2    0    0  0.69554521771E+02 -0.17970056743E+02  0.27568925615E+03  0.29616093573E+03  0.80907227455E+02 0.  0.
         11    1    4    4    0    0  0.56983338630E+02  0.24045584031E+02  0.19140236635E+03  0.20114710248E+03  0.00000000000E+00 0. -1.
        -12    1    4    4    0    0  0.12571183141E+02 -0.42015640774E+02  0.84286889805E+02  0.95013833246E+02  0.00000000000E+00 0.  1.
        -11    1    3    3    0    0  0.72653467828E+00  0.34984352434E+02 -0.35654991753E+02  0.49957093638E+02  0.00000000000E+00 0.  1.
         11    1    3    3    0    0 -0.49271800533E+02  0.33491764465E+02  0.44728792081E+02  0.74498815130E+02  0.00000000000E+00 0. -1.
         -1    1    1    2    0  502 -0.21009255917E+02 -0.50506060156E+02  0.63481094417E+02  0.83797973096E+02  0.00000000000E+00 0.  1.
<scales pt_clust_5="13000.00000" pt_clust_6="13000.00000" pt_clust_7="13000.00000" pt_clust_8="13000.00000" pt_clust_9="54.70147"></scales>
<clustering>
<clus scale="   54.701">  1  9  2 -1</clus>
<clus scale="   80.907">  5  6 -1 -1</clus>
<clus scale="   91.440">  7  8 -1 -1</clus>
<clus scale="  113.029">  1  5  2 -1</clus>
<clus scale="   54.701">  1  5  2 -1</clus>
</clustering>
</event>
<event>
 9    1  0.6270443E-005  0.2735511E+03  0.7546771E-02  0.1144934E+00
          1   -1    0    0  502    0 -0.00000000000E+00  0.00000000000E+00  0.20800532720E+04  0.20800532720E+04  0.00000000000E+00 0. -1.
         21   -1    0    0  501  502  0.00000000000E+00 -0.00000000000E+00 -0.67709234767E+02  0.67709234767E+02  0.00000000000E+00 0. -1.
        -24    2    1    2    0    0 -0.20671274719E+01  0.16752935647E+01  0.16238090525E+03  0.18452064339E+03  0.87596973822E+02 0.  0.
         23    2    1    2    0    0 -0.91489858515E+02 -0.24086360606E+03  0.36499883920E+03  0.45623061282E+03  0.92393444156E+02 0.  0.
         11    1    3    3    0    0  0.13760421045E+02 -0.34853797399E+02  0.12276887985E+03  0.12836017389E+03  0.00000000000E+00 0. -1.
        -12    1    3    3    0    0 -0.15827548517E+02  0.36529090963E+02  0.39612025401E+02  0.56160469505E+02  0.00000000000E+00 0.  1.
        -11    1    4    4    0    0 -0.26748557118E+02 -0.15733525417E+03  0.16220844131E+03  0.22755536896E+03  0.00000000000E+00 0. -1.
         11    1    4    4    0    0 -0.64741301397E+02 -0.83528351889E+02  0.20279039789E+03  0.22867524386E+03  0.00000000000E+00 0.  1.
          2    1    1    2  501    0  0.93556985987E+02  0.23918831249E+03  0.14849642928E+04  0.15070112505E+04  0.00000000000E+00 0. -1.
<scales pt_clust_5="13000.00000" pt_clust_6="13000.00000" pt_clust_7="13000.00000" pt_clust_8="13000.00000" pt_clust_9="257.47567"></scales>
<clustering>
<clus scale="   87.597">  5  6 -1 -1</clus>
<clus scale="   87.637">  1  5  2 -1</clus>
<clus scale="   92.393">  7  8 -1 -1</clus>
<clus scale="  257.476">  2  9  1 -1</clus>
<clus scale="  257.476">  2  5  1 -1</clus>
</clustering>
</event>
<event>
 9    1  0.6270443E-005  0.1484764E+03  0.7546771E-02  0.1205249E+00
         21   -1    0    0  501  502  0.00000000000E+00  0.00000000000E+00  0.22818853806E+03  0.22818853806E+03  0.00000000000E+00 0. -1.
          1   -1    0    0  502    0 -0.00000000000E+00 -0.00000000000E+00 -0.73154206101E+03  0.73154206101E+03  0.00000000000E+00 0. -1.
         23    2    1    2    0    0 -0.11484884750E+03 -0.34923362844E+02 -0.53456158041E+03  0.55553487867E+03  0.91940301949E+02 0.  0.
        -24    2    1    2    0    0  0.24054350553E+02  0.89376519042E+02  0.18313102891E+03  0.21902181255E+03  0.76595082675E+02 0.  0.
         11    1    4    4    0    0  0.43282454620E+01  0.96267667958E+02  0.12916251815E+03  0.16114947626E+03  0.00000000000E+00 0. -1.
        -12    1    4    4    0    0  0.19726105091E+02 -0.68911489165E+01  0.53968510751E+02  0.57872336294E+02  0.00000000000E+00 0.  1.
        -13    1    3    3    0    0 -0.30782994935E+02  0.87568420441E+01 -0.36502859226E+02  0.48546202647E+02  0.00000000000E+00 0. -1.
         13    1    3    3    0    0 -0.84065852560E+02 -0.43680204888E+02 -0.49805872118E+03  0.50698867602E+03  0.00000000000E+00 0.  1.
          2    1    1    2  501    0  0.90794496943E+02 -0.54453156198E+02 -0.15192297145E+03  0.18517390785E+03  0.00000000000E+00 0. -1.
<scales pt_clust_5="13000.00000" pt_clust_6="13000.00000" pt_clust_7="13000.00000" pt_clust_8="13000.00000" pt_clust_9="105.87161"></scales>
<clustering>
<clus scale="   76.595">  5  6 -1 -1</clus>
<clus scale="   91.940">  7  8 -1 -1</clus>
<clus scale="  105.872">  1  9  2 -1</clus>
<clus scale="  139.496">  1  5  2 -1</clus>
<clus scale="  105.872">  1  5  2 -1</clus>
</clustering>
</event>
<event>
 9    1  0.6270443E-005  0.1051969E+03  0.7546771E-02  0.1278183E+00
          1   -1    0    0  502    0 -0.00000000000E+00  0.00000000000E+00  0.69135962800E+03  0.69135962800E+03  0.00000000000E+00 0. -1.
         21   -1    0    0  501  502  0.00000000000E+00 -0.00000000000E+00 -0.18356089581E+02  0.18356089581E+02  0.00000000000E+00 0. -1.
         23    2    1    2    0    0 -0.41625288025E+02 -0.32218886181E+02  0.37490497522E+03  0.38919288739E+03  0.90258749802E+02 0.  0.
        -24    2    1    2    0    0  0.56211722953E+02  0.15778563456E+02  0.20310883239E+03  0.22302361352E+03  0.71257375246E+02 0.  0.
         11    1    4    4    0    0  0.66747424139E+02 -0.69056340551E+01  0.14909801310E+03  0.16350267252E+03  0.00000000000E+00 0. -1.
        -12    1    4    4    0    0 -0.10535701185E+02  0.22684197511E+02  0.54010819299E+02  0.59520941000E+02  0.00000000000E+00 0.  1.
        -13    1    3    3    0    0 -0.55100252902E+02 -0.54916451018E+02  0.29215310378E+03  0.30233307876E+03  0.00000000000E+00 0.  1.
         13    1    3    3    0    0  0.13474964877E+02  0.22697564837E+02  0.82751871446E+02  0.86859808633E+02  0.00000000000E+00 0. -1.
          2    1    1    2  501    0 -0.14586434928E+02  0.16440322726E+02  0.94989730803E+02  0.97499216680E+02  0.00000000000E+00 0. -1.
<scales pt_clust_5="13000.00000" pt_clust_6="13000.00000" pt_clust_7="13000.00000" pt_clust_8="13000.00000" pt_clust_9="21.97837"></scales>
<clustering>
<clus scale="   21.978">  2  9  1 -1</clus>
<clus scale="   71.257">  5  6 -1 -1</clus>
<clus scale="   89.428">  2  5  1 -1</clus>
<clus scale="   90.259">  7  8 -1 -1</clus>
<clus scale="   21.978">  2  5  1 -1</clus>
</clustering>
</event>
<event>
 9    1  0.6270443E-005  0.2010190E+03  0.7546771E-02  0.1187450E+00
          1   -1    0    0  502    0 -0.00000000000E+00  0.00000000000E+00  0.31628886955E+03  0.31628886955E+03  0.00000000000E+00 0. -1.
         21   -1    0    0  501  502  0.00000000000E+00 -0.00000000000E+00 -0.18983544679E+03  0.18983544679E+03  0.00000000000E+00 0. -1.
        -24    2    1    2    0    0 -0.21201773006E+02 -0.93032876031E+01 -0.20751173279E+02  0.85498241161E+02  0.79644659020E+02 0.  0.
         23    2    1    2    0    0 -0.16971964628E+03 -0.26931563147E+01  0.28866136126E+02  0.19568409576E+03  0.92989247194E+02 0.  0.
         11    1    3    3    0    0 -0.11542727399E+02  0.35380334333E+02 -0.86366397115E+01  0.38204635305E+02  0.00000000000E+00 0. -1.
        -12    1    3    3    0    0 -0.96590456069E+01 -0.44683621936E+02 -0.12114533568E+02  0.47293605856E+02  0.00000000000E+00 0.  1.
        -13    1    4    4    0    0 -0.52725380919E+02  0.33877365365E+02  0.37103786718E+02  0.72830849686E+02  0.00000000000E+00 0.  1.
         13    1    4    4    0    0 -0.11699426536E+03 -0.36570521680E+02 -0.82376505922E+01  0.12285324607E+03  0.00000000000E+00 0. -1.
          2    1    1    2  501    0  0.19092141929E+03  0.11996443918E+02  0.11833845991E+03  0.22494197941E+03  0.00000000000E+00 0. -1.
<scales pt_clust_5="13000.00000" pt_clust_6="13000.00000" pt_clust_7="13000.00000" pt_clust_8="13000.00000" pt_clust_9="178.21799"></scales>
<clustering>
<clus scale="   79.645">  5  6 -1 -1</clus>
<clus scale="   82.942">  1  5  2 -1</clus>
<clus scale="   92.989">  7  8 -1 -1</clus>
<clus scale="  178.218">  2  9  1 -1</clus>
<clus scale="  178.218">  2  5  1 -1</clus>
</clustering>
</event>
<event>
 9    1  0.6270443E-005  0.9794843E+02  0.7546771E-02  0.1288847E+00
          1   -1    0    0  502    0 -0.00000000000E+00  0.00000000000E+00  0.11151019478E+03  0.11151019478E+03  0.00000000000E+00 0. -1.
         21   -1    0    0  501  502  0.00000000000E+00 -0.00000000000E+00 -0.15428279982E+03  0.15428279982E+03  0.00000000000E+00 0. -1.
         23    2    1    2    0    0 -0.23060320373E+02 -0.55199153339E+02 -0.89704765644E+01  0.10768094228E+03  0.89084179152E+02 0.  0.
        -24    2    1    2    0    0 -0.28218887612E+02  0.23606174616E+02 -0.40250260503E+02  0.97537702283E+02  0.80870036466E+02 0.  0.
         11    1    4    4    0    0 -0.53168462002E+02  0.20948041596E+02 -0.44059832281E+02  0.72159369585E+02  0.00000000000E+00 0. -1.
        -12    1    4    4    0    0  0.24949574390E+02  0.26581330203E+01  0.38095717775E+01  0.25378332698E+02  0.00000000000E+00 0.  1.
        -13    1    3    3    0    0 -0.36120718615E+02 -0.13571000485E+02 -0.38885616529E+02  0.54781105687E+02  0.00000000000E+00 0.  1.
         13    1    3    3    0    0  0.13060398242E+02 -0.41628152855E+02  0.29915139965E+02  0.52899836592E+02  0.00000000000E+00 0. -1.
          2    1    1    2  501    0  0.51279207985E+02  0.31592978723E+02  0.64481320271E+01  0.60574350041E+02  0.00000000000E+00 0. -1.
<scales pt_clust_5="13000.00000" pt_clust_6="13000.00000" pt_clust_7="13000.00000" pt_clust_8="13000.00000" pt_clust_9="60.23020"></scales>
<clustering>
<clus scale="   60.230">  2  9  1 -1</clus>
<clus scale="   80.870">  5  6 -1 -1</clus>
<clus scale="   89.084">  7  8 -1 -1</clus>
<clus scale="   90.542">  2  5  1 -1</clus>
<clus scale="   60.230">  2  5  1 -1</clus>
</clustering>
</event>
<event>
 9    1  0.6270443E-005  0.1547078E+03  0.7546771E-02  0.1218572E+00
         21   -1    0    0  501  502  0.00000000000E+00  0.00000000000E+00  0.10530263861E+03  0.10530263861E+03  0.00000000000E+00 0. -1.
          1   -1    0    0  502    0 -0.00000000000E+00 -0.00000000000E+00 -0.91901745914E+03  0.91901745914E+03  0.00000000000E+00 0. -1.
         23    2    1    2    0    0 -0.10376604429E+02 -0.88957216353E+01 -0.32920146508E+02  0.98524178202E+02  0.91850257819E+02 0.  0.
        -24    2    1    2    0    0  0.85828627985E+02 -0.87436497077E+02 -0.78814128071E+03  0.80321175724E+03  0.94714065509E+02 0.  0.
         11    1    4    4    0    0  0.56179044825E+02 -0.10046767446E+03 -0.49107592270E+03  0.50438616213E+03  0.00000000000E+00 0. -1.
        -12    1    4    4    0    0  0.29649583160E+02  0.13031177379E+02 -0.29706535800E+03  0.29882559511E+03  0.00000000000E+00 0.  1.
        -11    1    3    3    0    0 -0.17467757279E+00  0.41460793468E+02 -0.13663382705E+02  0.43654506459E+02  0.00000000000E+00 0.  1.
         11    1    3    3    0    0 -0.10201926856E+02 -0.50356515104E+02 -0.19256763803E+02  0.54869671742E+02  0.00000000000E+00 0. -1.
          2    1    1    2  501    0 -0.75452023556E+02  0.96332218713E+02  0.73466066902E+01  0.12258416232E+03  0.00000000000E+00 0. -1.
<scales pt_clust_5="13000.00000" pt_clust_6="13000.00000" pt_clust_7="13000.00000" pt_clust_8="13000.00000" pt_clust_9="122.32645"></scales>
<clustering>
<clus scale="   91.850">  7  8 -1 -1</clus>
<clus scale="   92.862">  2  7  1 -1</clus>
<clus scale="   94.714">  5  6 -1 -1</clus>
<clus scale="  122.326">  1  9  2 -1</clus>
<clus scale="  122.326">  1  5  2 -1</clus>
</clustering>
</event>
<event>
 9    1  0.6270443E-005  0.9087501E+02  0.7546771E-02  0.1308069E+00
         -4   -1    0    0    0  501 -0.00000000000E+00  0.00000000000E+00  0.58233547038E+02  0.58233547038E+02  0.00000000000E+00 0.  1.
         21   -1    0    0  501  502  0.00000000000E+00 -0.00000000000E+00 -0.22925379220E+03  0.22925379220E+03  0.00000000000E+00 0. -1.
        -24    2    1    2    0    0  0.14294742802E+01  0.22639813971E+01  0.19521167386E+01  0.79464190931E+02  0.79395074608E+02 0.  0.
         23    2    1    2    0    0  0.18683752061E+02 -0.44508087870E+01 -0.15641500005E+03  0.18187988303E+03  0.90806097375E+02 0.  0.
         11    1    3    3    0    0  0.15071720398E+02  0.36988955829E+02 -0.82520879484E+01  0.40785249351E+02  0.00000000000E+00 0. -1.
        -12    1    3    3    0    0 -0.13642246118E+02 -0.34724974432E+02  0.10204204687E+02  0.38678941580E+02  0.00000000000E+00 0.  1.
        -13    1    4    4    0    0  0.23287475691E+02  0.32348772978E+02 -0.13097699971E+03  0.13690772108E+03  0.00000000000E+00 0. -1.
         13    1    4    4    0    0 -0.46037236302E+01 -0.36799581765E+02 -0.25438000334E+02  0.44972161949E+02  0.00000000000E+00 0.  1.
         -3    1    1    2    0  502 -0.20113226341E+02  0.21868273898E+01 -0.16557361849E+02  0.26143265276E+02  0.00000000000E+00 0.  1.
<scales pt_clust_5="13000.00000" pt_clust_6="13000.00000" pt_clust_7="13000.00000" pt_clust_8="13000.00000" pt_clust_9="20.23176"></scales>
<clustering>
<clus scale="   20.232">  2  9  1 -1</clus>
<clus scale="   79.395">  5  6 -1 -1</clus>
<clus scale="   79.474">  1  5  2 -1</clus>
<clus scale="   90.806">  7  8 -1 -1</clus>
<clus scale="   20.232">  2  5  1 -1</clus>
</clustering>
</event>
<event>
 9    1  0.6270443E-005  0.1444998E+03  0.7546771E-02  0.1208971E+00
         21   -1    0    0  501  502  0.00000000000E+00  0.00000000000E+00  0.53094775903E+03  0.53094775903E+03  0.00000000000E+00 0. -1.
          3   -1    0    0  502    0 -0.00000000000E+00 -0.00000000000E+00 -0.84829750149E+02  0.84829750149E+02  0.00000000000E+00 0. -1.
         23    2    1    2    0    0  0.10222797145E+03 -0.60817104682E+02  0.51722212420E+02  0.15782231346E+03  0.89907825012E+02 0.  0.
        -24    2    1    2    0    0 -0.49673370236E+02  0.10443685957E+03  0.15980698148E+03  0.21362635739E+03  0.81996633436E+02 0.  0.
         13    1    4    4    0    0 -0.21267942997E+01  0.40078851277E+02  0.11525450039E+03  0.12204276887E+03  0.00000000000E+00 0. -1.
        -14    1    4    4    0    0 -0.47546575937E+02  0.64358008295E+02  0.44552481092E+02  0.91583588521E+02  0.00000000000E+00 0.  1.
        -13    1    3    3    0    0  0.32633890005E+02  0.11230070442E+02  0.45974727845E+02  0.57487049493E+02  0.00000000000E+00 0.  1.
         13    1    3    3    0    0  0.69594081448E+02 -0.72047175125E+02  0.57474845750E+01  0.10033526397E+03  0.00000000000E+00 0. -1.
          4    1    1    2  501    0 -0.52554601216E+02 -0.43619754889E+02  0.23458881498E+03  0.24432883833E+03  0.00000000000E+00 0. -1.
<scales pt_clust_5="13000.00000" pt_clust_6="13000.00000" pt_clust_7="13000.00000" pt_clust_8="13000.00000" pt_clust_9="68.29838"></scales>
<clustering>
<clus scale="   68.298">  1  9  2 -1</clus>
<clus scale="   81.997">  5  6 -1 -1</clus>
<clus scale="   89.908">  7  8 -1 -1</clus>
<clus scale="  139.715">  1  5  2 -1</clus>
<clus scale="   68.298">  1  5  2 -1</clus>
</clustering>
</event>
<event>
 9    1  0.6270443E-005  0.1407504E+03  0.7546771E-02  0.1238473E+00
          1   -1    0    0  502    0 -0.00000000000E+00  0.00000000000E+00  0.62353746735E+03  0.62353746735E+03  0.00000000000E+00 0. -1.
         21   -1    0    0  501  502  0.00000000000E+00 -0.00000000000E+00 -0.71616718396E+02  0.71616718396E+02  0.00000000000E+00 0. -1.
        -24    2    1    2    0    0 -0.70760299612E+01 -0.19350416538E+02  0.89203852809E+02  0.12094970608E+03  0.79037935348E+02 0.  0.
         23    2    1    2    0    0  0.10931354324E+03  0.73477813950E+01  0.52651781785E+02  0.15141615156E+03  0.90283997477E+02 0.  0.
         13    1    3    3    0    0  0.11322842418E+02  0.18466506402E+02  0.72554001697E+02  0.75718569594E+02  0.00000000000E+00 0. -1.
        -14    1    3    3    0    0 -0.18398872379E+02 -0.37816922941E+02  0.16649851112E+02  0.45231136483E+02  0.00000000000E+00 0.  1.
        -11    1    4    4    0    0  0.33432099034E+02 -0.33564056945E+02 -0.51068458811E+01  0.47647990926E+02  0.00000000000E+00 0. -1.
         11    1    4    4    0    0  0.75881444206E+02  0.40911838340E+02  0.57758627666E+02  0.10376816063E+03  0.00000000000E+00 0.  1.
          2    1    1    2  501    0 -0.10223751328E+03  0.12002635143E+02  0.41006511435E+03  0.42278832811E+03  0.00000000000E+00 0. -1.
<scales pt_clust_5="13000.00000" pt_clust_6="13000.00000" pt_clust_7="13000.00000" pt_clust_8="13000.00000" pt_clust_9="107.97905"></scales>
<clustering>
<clus scale="   79.038">  5  6 -1 -1</clus>
<clus scale="   81.679">  1  5  2 -1</clus>
<clus scale="   90.284">  7  8 -1 -1</clus>
<clus scale="  107.979">  2  9  1 -1</clus>
<clus scale="  107.979">  2  5  1 -1</clus>
</clustering>
</event>
<event>
 9    1  0.6270443E-005  0.1646548E+03  0.7546771E-02  0.1205931E+00
         21   -1    0    0  501  502  0.00000000000E+00  0.00000000000E+00  0.14337705375E+03  0.14337705375E+03  0.00000000000E+00 0.  1.
          1   -1    0    0  502    0 -0.00000000000E+00 -0.00000000000E+00 -0.30758000426E+03  0.30758000426E+03  0.00000000000E+00 0. -1.
         23    2    1    2    0    0 -0.69254706721E+01 -0.42635643353E+02 -0.31201154601E+01  0.10084243577E+03  0.91069761736E+02 0.  0.
        -24    2    1    2    0    0 -0.16091800980E+01 -0.11922869082E+03 -0.10479722438E+03  0.17853090241E+03  0.81686931036E+02 0.  0.
         13    1    4    4    0    0 -0.38831251248E+02 -0.46786240413E+02 -0.60696109572E+02  0.85911792454E+02  0.00000000000E+00 0. -1.
        -14    1    4    4    0    0  0.37222071150E+02 -0.72442450408E+02 -0.44101114813E+02  0.92619109959E+02  0.00000000000E+00 0.  1.
        -11    1    3    3    0    0  0.17907537210E+02  0.18969714421E+02  0.17359251284E+02  0.31334861724E+02  0.00000000000E+00 0. -1.
         11    1    3    3    0    0 -0.24833007882E+02 -0.61605357774E+02 -0.20479366745E+02  0.69507574042E+02  0.00000000000E+00 0.  1.
          2    1    1    2  501    0  0.85346507701E+01  0.16186433417E+03 -0.56285610673E+02  0.17158371983E+03  0.00000000000E+00 0. -1.
<scales pt_clust_5="13000.00000" pt_clust_6="13000.00000" pt_clust_7="13000.00000" pt_clust_8="13000.00000" pt_clust_9="142.96307"></scales>
<clustering>
<clus scale="   81.687">  5  6 -1 -1</clus>
<clus scale="   91.070">  7  8 -1 -1</clus>
<clus scale="  100.794">  2  7  1 -1</clus>
<clus scale="  142.963">  1  9  2 -1</clus>
<clus scale="  142.963">  1  5  2 -1</clus>
</clustering>
</event>
<event>
 9    1  0.6270443E-005  0.1624251E+03  0.7546771E-02  0.1220492E+00
          1   -1    0    0  502    0 -0.00000000000E+00  0.00000000000E+00  0.83770918876E+03  0.83770918876E+03  0.00000000000E+00 0. -1.
         21   -1    0    0  501  502  0.00000000000E+00 -0.00000000000E+00 -0.43997173843E+02  0.43997173843E+02  0.00000000000E+00 0.  1.
        -24    2    1    2    0    0 -0.12904009063E+02  0.31233569417E+01  0.24346186662E+03  0.25536985105E+03  0.75919770282E+02 0.  0.
         23    2    1    2    0    0  0.10366644618E+03  0.93165174220E+02  0.27598668416E+03  0.32182091427E+03  0.89294844644E+02 0.  0.
         13    1    3    3    0    0  0.66199247195E+01 -0.31950246416E+02  0.68667254470E+02  0.76025216119E+02  0.00000000000E+00 0. -1.
        -14    1    3    3    0    0 -0.19523933783E+02  0.35073603358E+02  0.17479461215E+03  0.17934463493E+03  0.00000000000E+00 0.  1.
        -11    1    4    4    0    0  0.29938501692E+02  0.71718668844E+02  0.80967229986E+02  0.11223000346E+03  0.00000000000E+00 0.  1.
         11    1    4    4    0    0  0.73727944487E+02  0.21446505376E+02  0.19501945417E+03  0.20959091082E+03  0.00000000000E+00 0. -1.
          2    1    1    2  501    0 -0.90762437116E+02 -0.96288531161E+02  0.27426346414E+03  0.30451559728E+03  0.00000000000E+00 0. -1.
<scales pt_clust_5="13000.00000" pt_clust_6="13000.00000" pt_clust_7="13000.00000" pt_clust_8="13000.00000" pt_clust_9="135.67738"></scales>
<clustering>
<clus scale="   75.920">  5  6 -1 -1</clus>
<clus scale="   77.072">  1  5  2 -1</clus>
<clus scale="   89.295">  7  8 -1 -1</clus>
<clus scale="  135.677">  2  9  1 -1</clus>
<clus scale="  135.677">  2  5  1 -1</clus>
</clustering>
</event>
<event>
 9    1  0.6270443E-005  0.9171555E+02  0.7546771E-02  0.1306441E+00
         21   -1    0    0  501  502  0.00000000000E+00  0.00000000000E+00  0.69781699310E+02  0.69781699310E+02  0.00000000000E+00 0.  1.
         -2   -1    0    0    0  501 -0.00000000000E+00 -0.00000000000E+00 -0.32958288807E+03  0.32958288807E+03  0.00000000000E+00 0.  1.
        -24    2    1    2    0    0 -0.75526488455E+01  0.17932121145E+02 -0.20430957663E+03  0.22003230899E+03  0.79329757482E+02 0.  0.
         23    2    1    2    0    0 -0.13190650914E+02  0.25392591545E+02 -0.80526934676E+02  0.12516510577E+03  0.91449108896E+02 0.  0.
         11    1    3    3    0    0 -0.82182113103E+01 -0.23619491888E+02 -0.14772531405E+03  0.14982719314E+03  0.00000000000E+00 0. -1.
        -12    1    3    3    0    0  0.66556246476E+00  0.41551613033E+02 -0.56584262590E+02  0.70205115853E+02  0.00000000000E+00 0.  1.
        -13    1    4    4    0    0 -0.42983211984E+02 -0.10376311135E+02 -0.59381630473E+02  0.74036493589E+02  0.00000000000E+00 0. -1.
         13    1    4    4    0    0  0.29792561070E+02  0.35768902680E+02 -0.21145304203E+02  0.51128612184E+02  0.00000000000E+00 0.  1.
         -1    1    1    2    0  502  0.20743299760E+02 -0.43324712690E+02  0.25035322547E+02  0.54167172620E+02  0.00000000000E+00 0.  1.
<scales pt_clust_5="13000.00000" pt_clust_6="13000.00000" pt_clust_7="13000.00000" pt_clust_8="13000.00000" pt_clust_9="48.03452"></scales>
<clustering>
<clus scale="   48.035">  1  9  2 -1</clus>
<clus scale="   79.330">  5  6 -1 -1</clus>
<clus scale="   79.637">  2  5  1 -1</clus>
<clus scale="   91.449">  7  8 -1 -1</clus>
<clus scale="   48.035">  1  5  2 -1</clus>
</clustering>
</event>
<event>
 9    1  0.6270443E-005  0.1104521E+03  0.7546771E-02  0.1262275E+00
         21   -1    0    0  501  502  0.00000000000E+00  0.00000000000E+00  0.83263947346E+02  0.83263947346E+02  0.00000000000E+00 0.  1.
          3   -1    0    0  502    0 -0.00000000000E+00 -0.00000000000E+00 -0.51718140632E+03  0.51718140632E+03  0.00000000000E+00 0. -1.
        -24    2    1    2    0    0 -0.53694968393E+02  0.42796609241E+02 -0.43750916231E+03  0.45015040501E+03  0.80662386738E+02 0.  0.
         23    2    1    2    0    0  0.29327692758E+02 -0.46634646062E+02  0.36040760452E+02  0.10953423281E+03  0.87543748875E+02 0.  0.
         11    1    3    3    0    0 -0.57054459074E+02  0.96584786807E+01 -0.15093995332E+03  0.16165199355E+03  0.00000000000E+00 0. -1.
        -12    1    3    3    0    0  0.33594906819E+01  0.33138130560E+02 -0.28656920899E+03  0.28849841146E+03  0.00000000000E+00 0.  1.
        -13    1    4    4    0    0  0.46632764904E+02 -0.57071131188E+02  0.68321967244E+01  0.74016266386E+02  0.00000000000E+00 0.  1.
         13    1    4    4    0    0 -0.17305072146E+02  0.10436485125E+02  0.29208563727E+02  0.35517966422E+02  0.00000000000E+00 0. -1.
          4    1    1    2  501    0  0.24367275634E+02  0.38380368216E+01 -0.32449057115E+02  0.40760715845E+02  0.00000000000E+00 0. -1.
<scales pt_clust_5="13000.00000" pt_clust_6="13000.00000" pt_clust_7="13000.00000" pt_clust_8="13000.00000" pt_clust_9="24.66770"></scales>
<clustering>
<clus scale="   24.668">  1  9  2 -1</clus>
<clus scale="   80.662">  5  6 -1 -1</clus>
<clus scale="   87.544">  7  8 -1 -1</clus>
<clus scale="  105.082">  2  5  1 -1</clus>
<clus scale="   24.668">  1  5  2 -1</clus>
</clustering>
</event>
<event>
 9    1  0.6270443E-005  0.1322260E+03  0.7546771E-02  0.1247865E+00
          1   -1    0    0  502    0 -0.00000000000E+00  0.00000000000E+00  0.54290814152E+03  0.54290814152E+03  0.00000000000E+00 0. -1.
         21   -1    0    0  501  502  0.00000000000E+00 -0.00000000000E+00 -0.88488948038E+02  0.88488948038E+02  0.00000000000E+00 0.  1.
        -24    2    1    2    0    0  0.39704394989E+01 -0.24945236229E+02  0.17552861488E+03  0.19352206898E+03  0.77475591901E+02 0.  0.
         23    2    1    2    0    0 -0.65967512699E+02 -0.58793783531E+02 -0.97842935266E+01  0.13097268707E+03  0.96175312032E+02 0.  0.
         13    1    3    3    0    0 -0.86046654309E+01 -0.36525211673E+02  0.17202727602E+03  0.17607247102E+03  0.00000000000E+00 0. -1.
        -14    1    3    3    0    0  0.12575104930E+02  0.11579975444E+02  0.35013388594E+01  0.17449597963E+02  0.00000000000E+00 0.  1.
        -11    1    4    4    0    0 -0.89075978291E+02 -0.43685802829E+02  0.55947384864E+01  0.99369413684E+02  0.00000000000E+00 0.  1.
         11    1    4    4    0    0  0.23108465592E+02 -0.15107980702E+02 -0.15379032013E+02  0.31603273384E+02  0.00000000000E+00 0. -1.
          2    1    1    2  501    0  0.61997073200E+02  0.83739019760E+02  0.28867487212E+03  0.30690233350E+03  0.00000000000E+00 0. -1.
<scales pt_clust_5="13000.00000" pt_clust_6="13000.00000" pt_clust_7="13000.00000" pt_clust_8="13000.00000" pt_clust_9="90.74164"></scales>
<clustering>
<clus scale="   77.476">  5  6 -1 -1</clus>
<clus scale="   81.489">  1  5  2 -1</clus>
<clus scale="   90.742">  2  9  1 -1</clus>
<clus scale="   96.175">  7  8 -1 -1</clus>
<clus scale="   90.742">  2  5  1 -1</clus>
</clustering>
</event>
<event>
 9    1  0.6270443E-005  0.9876665E+02  0.7546771E-02  0.1291390E+00
          1   -1    0    0  502    0 -0.00000000000E+00  0.00000000000E+00  0.60275780427E+02  0.60275780427E+02  0.00000000000E+00 0. -1.
         21   -1    0    0  501  502  0.00000000000E+00 -0.00000000000E+00 -0.30377330925E+03  0.30377330925E+03  0.00000000000E+00 0. -1.
        -24    2    1    2    0    0 -0.43480163550E+01 -0.29736395590E+02  0.33683671190E+00  0.86344600639E+02  0.80945155084E+02 0.  0.
         23    2    1    2    0    0 -0.42736123469E+01 -0.57902962288E+01 -0.17245131253E+03  0.19750462265E+03  0.96004320112E+02 0.  0.
         11    1    3    3    0    0 -0.23311907226E+02 -0.31898572731E+02  0.31004849945E+02  0.50222153288E+02  0.00000000000E+00 0. -1.
        -12    1    3    3    0    0  0.18963890871E+02  0.21621771401E+01 -0.30668013233E+02  0.36122447351E+02  0.00000000000E+00 0.  1.
        -11    1    4    4    0    0  0.25933379282E+02  0.29916705439E+02 -0.36939078357E+02  0.54148360411E+02  0.00000000000E+00 0.  1.
         11    1    4    4    0    0 -0.30206991629E+02 -0.35707001668E+02 -0.13551223418E+03  0.14335626224E+03  0.00000000000E+00 0. -1.
          2    1    1    2  501    0  0.86216287019E+01  0.35526691819E+02 -0.71383053000E+02  0.80199866389E+02  0.00000000000E+00 0. -1.
<scales pt_clust_5="13000.00000" pt_clust_6="13000.00000" pt_clust_7="13000.00000" pt_clust_8="13000.00000" pt_clust_9="36.55788"></scales>
<clustering>
<clus scale="   36.558">  2  9  1 -1</clus>
<clus scale="   80.945">  5  6 -1 -1</clus>
<clus scale="   84.203">  1  5  2 -1</clus>
<clus scale="   96.004">  7  8 -1 -1</clus>
<clus scale="   36.558">  2  5  1 -1</clus>
</clustering>
</event>
<event>
 9    1  0.6270443E-005  0.1929959E+03  0.7546771E-02  0.1157376E+00
         21   -1    0    0  501  502  0.00000000000E+00  0.00000000000E+00  0.62245704622E+03  0.62245704622E+03  0.00000000000E+00 0.  1.
         -2   -1    0    0    0  501 -0.00000000000E+00 -0.00000000000E+00 -0.11072908034E+03  0.11072908034E+03  0.00000000000E+00 0.  1.
         23    2    1    2    0    0 -0.73868909146E+02  0.15555447713E+03  0.51234205929E+02  0.20314472742E+03  0.94810470567E+02 0.  0.
        -24    2    1    2    0    0  0.16466599698E+02 -0.16522043338E+03  0.24276090963E+03  0.30466160867E+03  0.79478903131E+02 0.  0.
         11    1    4    4    0    0 -0.25255351900E+01 -0.21651607882E+02 -0.21701559877E+00  0.21799485032E+02  0.00000000000E+00 0. -1.
        -12    1    4    4    0    0  0.18992134888E+02 -0.14356882549E+03  0.24297792523E+03  0.28286212364E+03  0.00000000000E+00 0.  1.
        -11    1    3    3    0    0 -0.91925689666E+02  0.99350649897E+02  0.21519006964E+02  0.13705455744E+03  0.00000000000E+00 0.  1.
         11    1    3    3    0    0  0.18056780520E+02  0.56203827232E+02  0.29715198965E+02  0.66090169978E+02  0.00000000000E+00 0. -1.
         -1    1    1    2    0  502  0.57402309448E+02  0.96659562485E+01  0.21773285033E+03  0.22537979047E+03  0.00000000000E+00 0.  1.
<scales pt_clust_5="13000.00000" pt_clust_6="13000.00000" pt_clust_7="13000.00000" pt_clust_8="13000.00000" pt_clust_9="58.21044"></scales>
<clustering>
<clus scale="   58.210">  1  9  2 -1</clus>
<clus scale="   79.479">  5  6 -1 -1</clus>
<clus scale="   94.810">  7  8 -1 -1</clus>
<clus scale="  185.944">  1  5  2 -1</clus>
<clus scale="   58.210">  1  5  2 -1</clus>
</clustering>
</event>
<event>
 9    1  0.6270443E-005  0.1386068E+03  0.7546771E-02  0.1217010E+00
         21   -1    0    0  501  502  0.00000000000E+00  0.00000000000E+00  0.23544300698E+02  0.23544300698E+02  0.00000000000E+00 0.  1.
         -2   -1    0    0    0  501 -0.00000000000E+00 -0.00000000000E+00 -0.14280317462E+04  0.14280317462E+04  0.00000000000E+00 0.  1.
         23    2    1    2    0    0  0.11382709194E+03  0.82389140538E+02 -0.89502325836E+03  0.91036149993E+03  0.89145107598E+02 0.  0.
        -24    2    1    2    0    0 -0.61554061989E+02 -0.24392221179E+02 -0.28656621712E+03  0.30503745800E+03  0.80893578150E+02 0.  0.
         11    1    4    4    0    0 -0.44748337780E+02 -0.26237789816E+02 -0.28305627077E+03  0.28777019959E+03  0.00000000000E+00 0. -1.
        -12    1    4    4    0    0 -0.16805724209E+02  0.18455686374E+01 -0.35099463559E+01  0.17267258416E+02  0.00000000000E+00 0.  1.
        -11    1    3    3    0    0  0.63953203033E+01  0.55056805296E+02 -0.31528359368E+03  0.32011856612E+03  0.00000000000E+00 0. -1.
         11    1    3    3    0    0  0.10743177164E+03  0.27332335242E+02 -0.57973966468E+03  0.59024293381E+03  0.00000000000E+00 0.  1.
         -1    1    1    2    0  502 -0.52273029956E+02 -0.57996919359E+02 -0.22289797006E+03  0.23617708901E+03  0.00000000000E+00 0.  1.
<scales pt_clust_5="13000.00000" pt_clust_6="13000.00000" pt_clust_7="13000.00000" pt_clust_8="13000.00000" pt_clust_9="78.07760"></scales>
<clustering>
<clus scale="   78.078">  1  9  2 -1</clus>
<clus scale="   80.894">  5  6 -1 -1</clus>
<clus scale="   89.145">  7  8 -1 -1</clus>
<clus scale="  133.450">  1  5  2 -1</clus>
<clus scale="   78.078">  1  5  2 -1</clus>
</clustering>
</event>
<event>
 9    1  0.6270443E-005  0.9148777E+02  0.7546771E-02  0.1305131E+00
         21   -1    0    0  501  502  0.00000000000E+00  0.00000000000E+00  0.71153142466E+02  0.71153142466E+02  0.00000000000E+00 0. -1.
         -2   -1    0    0    0  501 -0.00000000000E+00 -0.00000000000E+00 -0.19747584714E+03  0.19747584714E+03  0.00000000000E+00 0.  1.
        -24    2    1    2    0    0 -0.15271006854E+02  0.47451426841E+01 -0.12342956638E+03  0.14843249790E+03  0.80880334727E+02 0.  0.
         23    2    1    2    0    0 -0.25188054943E+01 -0.24385794592E+02 -0.39372757351E+01  0.93676256903E+02  0.90325675243E+02 0.  0.
         11    1    3    3    0    0 -0.18680708421E+02  0.10455781838E+02  0.31849697282E+01  0.21643388670E+02  0.00000000000E+00 0. -1.
        -12    1    3    3    0    0  0.34097015670E+01 -0.57106391541E+01 -0.12661453611E+03  0.12678910923E+03  0.00000000000E+00 0.  1.
        -13    1    4    4    0    0  0.24652930726E+02 -0.21173836532E+02  0.33914412338E+02  0.46971115711E+02  0.00000000000E+00 0.  1.
         13    1    4    4    0    0 -0.27171736221E+02 -0.32119580602E+01 -0.37851688073E+02  0.46705141192E+02  0.00000000000E+00 0. -1.
         -1    1    1    2    0  502  0.17789812348E+02  0.19640651908E+02  0.10441374500E+01  0.26520234799E+02  0.00000000000E+00 0.  1.
<scales pt_clust_5="13000.00000" pt_clust_6="13000.00000" pt_clust_7="13000.00000" pt_clust_8="13000.00000" pt_clust_9="26.49967"></scales>
<clustering>
<clus scale="   26.500">  1  9  2 -1</clus>
<clus scale="   80.880">  5  6 -1 -1</clus>
<clus scale="   82.176">  2  5  1 -1</clus>
<clus scale="   90.326">  7  8 -1 -1</clus>
<clus scale="   26.500">  1  5  2 -1</clus>
</clustering>
</event>
<event>
 9    1  0.6270443E-005  0.1206252E+03  0.7546771E-02  0.1244750E+00
          1   -1    0    0  502    0 -0.00000000000E+00  0.00000000000E+00  0.26221047554E+03  0.26221047554E+03  0.00000000000E+00 0. -1.
         21   -1    0    0  501  502  0.00000000000E+00 -0.00000000000E+00 -0.14733361909E+03  0.14733361909E+03  0.00000000000E+00 0.  1.
         23    2    1    2    0    0  0.64964201996E+02  0.55489944096E+02  0.39687242244E+02  0.13121444263E+03  0.91338224870E+02 0.  0.
        -24    2    1    2    0    0 -0.46529493796E+02 -0.44258609906E+02 -0.73572728456E+02  0.12800927438E+03  0.82762368323E+02 0.  0.
         13    1    4    4    0    0 -0.14714894883E+02  0.24421590504E+02 -0.14452656015E+02  0.31965942502E+02  0.00000000000E+00 0. -1.
        -14    1    4    4    0    0 -0.31814598913E+02 -0.68680200410E+02 -0.59120072440E+02  0.96043331875E+02  0.00000000000E+00 0.  1.
        -13    1    3    3    0    0  0.38180090774E+01 -0.23519016284E+02  0.15490702088E+02  0.28419767266E+02  0.00000000000E+00 0. -1.
         13    1    3    3    0    0  0.61146192918E+02  0.79008960380E+02  0.24196540156E+02  0.10279467537E+03  0.00000000000E+00 0.  1.
          2    1    1    2  501    0 -0.18434708200E+02 -0.11231334190E+02  0.14876234266E+03  0.15032037762E+03  0.00000000000E+00 0. -1.
<scales pt_clust_5="13000.00000" pt_clust_6="13000.00000" pt_clust_7="13000.00000" pt_clust_8="13000.00000" pt_clust_9="21.58661"></scales>
<clustering>
<clus scale="   21.587">  2  9  1 -1</clus>
<clus scale="   82.762">  5  6 -1 -1</clus>
<clus scale="   91.338">  7  8 -1 -1</clus>
<clus scale="  114.269">  2  5  1 -1</clus>
<clus scale="   21.587">  2  5  1 -1</clus>
</clustering>
</event>
<event>
 9    1  0.6270443E-005  0.1391387E+03  0.7546771E-02  0.1217011E+00
          1   -1    0    0  502    0 -0.00000000000E+00  0.00000000000E+00  0.51550681238E+03  0.51550681238E+03  0.00000000000E+00 0. -1.
         21   -1    0    0  501  502  0.00000000000E+00 -0.00000000000E+00 -0.57648839541E+02  0.57648839541E+02  0.00000000000E+00 0.  1.
        -24    2    1    2    0    0  0.76865795126E+02  0.58517819184E+02  0.21754963187E+03  0.25117712390E+03  0.80183661804E+02 0.  0.
         23    2    1    2    0    0 -0.11534356545E+03 -0.33105096078E+02  0.22937457330E+03  0.27458767891E+03  0.91572993061E+02 0.  0.
         11    1    3    3    0    0  0.32049533724E+02  0.88720234251E+01  0.15852183621E+03  0.16197239878E+03  0.00000000000E+00 0. -1.
        -12    1    3    3    0    0  0.44816261402E+02  0.49645795759E+02  0.59027795658E+02  0.89204725115E+02  0.00000000000E+00 0.  1.
        -13    1    4    4    0    0  0.70984562630E+01 -0.23062016439E+02  0.65302958392E+02  0.69618395976E+02  0.00000000000E+00 0. -1.
         13    1    4    4    0    0 -0.12244202171E+03 -0.10043079638E+02  0.16407161490E+03  0.20496928293E+03  0.00000000000E+00 0.  1.
          2    1    1    2  501    0  0.38477770322E+02 -0.25412723106E+02  0.10933767680E+02  0.47390849120E+02  0.00000000000E+00 0. -1.
<scales pt_clust_5="13000.00000" pt_clust_6="13000.00000" pt_clust_7="13000.00000" pt_clust_8="13000.00000" pt_clust_9="46.11231"></scales>
<clustering>
<clus scale="   46.112">  2  9  1 -1</clus>
<clus scale="   80.184">  5  6 -1 -1</clus>
<clus scale="   91.573">  7  8 -1 -1</clus>
<clus scale="  131.922">  1  5  2 -1</clus>
<clus scale="   46.112">  2  5  1 -1</clus>
</clustering>
</event>
<event>
 9    1  0.6270443E-005  0.9507292E+02  0.7546771E-02  0.1293020E+00
         21   -1    0    0  501  502  0.00000000000E+00  0.00000000000E+00  0.12747537685E+03  0.12747537685E+03  0.00000000000E+00 0. -1.
          1   -1    0    0  502    0 -0.00000000000E+00 -0.00000000000E+00 -0.23271743469E+03  0.23271743469E+03  0.00000000000E+00 0. -1.
         23    2    1    2    0    0 -0.99385595255E+01  0.67721858841E+01 -0.11145974005E+03  0.14504008700E+03  0.92025625324E+02 0.  0.
        -24    2    1    2    0    0 -0.40637704048E+02 -0.83113202194E+02 -0.61195050229E+01  0.12275080142E+03  0.80443045313E+02 0.  0.
         13    1    4    4    0    0 -0.33205322479E+01 -0.49204816401E+02  0.32651622736E+02  0.59146160981E+02  0.00000000000E+00 0. -1.
        -14    1    4    4    0    0 -0.37317171800E+02 -0.33908385793E+02 -0.38771127759E+02  0.63604640444E+02  0.00000000000E+00 0.  1.
        -11    1    3    3    0    0 -0.40154743739E+02  0.15471341333E+02 -0.10424771684E+03  0.11278010602E+03  0.00000000000E+00 0. -1.
         11    1    3    3    0    0  0.30216184213E+02 -0.86991554489E+01 -0.72120232154E+01  0.32259980980E+02  0.00000000000E+00 0.  1.
          2    1    1    2  501    0  0.50576263574E+02  0.76341016310E+02  0.12337187237E+02  0.92401923125E+02  0.00000000000E+00 0. -1.
<scales pt_clust_5="13000.00000" pt_clust_6="13000.00000" pt_clust_7="13000.00000" pt_clust_8="13000.00000" pt_clust_9="91.57461"></scales>
<clustering>
<clus scale="   80.443">  5  6 -1 -1</clus>
<clus scale="   91.575">  1  9  2 -1</clus>
<clus scale="   91.575">  1  5  2 -1</clus>
<clus scale="   92.026">  7  8 -1 -1</clus>
<clus scale="   91.575">  1  5  2 -1</clus>
</clustering>
</event>
<event>
 9    1  0.6270443E-005  0.1136813E+03  0.7546771E-02  0.1258042E+00
          3   -1    0    0  502    0 -0.00000000000E+00  0.00000000000E+00  0.87897676053E+03  0.87897676053E+03  0.00000000000E+00 0. -1.
         21   -1    0    0  501  502  0.00000000000E+00 -0.00000000000E+00 -0.40978701595E+02  0.40978701595E+02  0.00000000000E+00 0. -1.
        -24    2    1    2    0    0  0.60378815879E+02  0.29456555009E+02  0.48263465925E+03  0.49386865272E+03  0.80353853668E+02 0.  0.
         23    2    1    2    0    0  0.48222502885E+02 -0.11252148247E+02  0.88592104545E+02  0.13748228626E+03  0.92740484273E+02 0.  0.
         13    1    3    3    0    0  0.47080288580E+02 -0.21668752558E+02  0.22913881279E+03  0.23492697576E+03  0.00000000000E+00 0. -1.
        -14    1    3    3    0    0  0.13298527299E+02  0.51125307567E+02  0.25349584645E+03  0.25894167697E+03  0.00000000000E+00 0.  1.
        -11    1    4    4    0    0  0.35697375970E+02 -0.51677789873E+02  0.53387868706E+02  0.82432767407E+02  0.00000000000E+00 0. -1.
         11    1    4    4    0    0  0.12525126915E+02  0.40425641626E+02  0.35204235838E+02  0.55049518854E+02  0.00000000000E+00 0.  1.
          4    1    1    2  501    0 -0.10860131876E+03 -0.18204406761E+02  0.26677129514E+03  0.28860452314E+03  0.00000000000E+00 0. -1.
<scales pt_clust_5="13000.00000" pt_clust_6="13000.00000" pt_clust_7="13000.00000" pt_clust_8="13000.00000" pt_clust_9="65.74691"></scales>
<clustering>
<clus scale="   80.354">  5  6 -1 -1</clus>
<clus scale="   92.740">  7  8 -1 -1</clus>
<clus scale="  104.738">  1  5  2 -1</clus>
<clus scale="   65.747">  2  9  1 -1</clus>
<clus scale="   65.747">  2  5  1 -1</clus>
</clustering>
</event>
<event>
 9    1  0.6270443E-005  0.2653732E+03  0.7546771E-02  0.1131716E+00
          1   -1    0    0  502    0 -0.00000000000E+00  0.00000000000E+00  0.22265128416E+04  0.22265128416E+04  0.00000000000E+00 0. -1.
         21   -1    0    0  501  502  0.00000000000E+00 -0.00000000000E+00 -0.57625411255E+02  0.57625411255E+02  0.00000000000E+00 0. -1.
        -24    2    1    2    0    0  0.17014858535E+02 -0.97866485032E+02  0.20685301212E+03  0.24547130508E+03  0.87181641932E+02 0.  0.
         23    2    1    2    0    0  0.24355161539E+03  0.32084028595E+02  0.67703535135E+03  0.72586657423E+03  0.90325203365E+02 0.  0.
         11    1    3    3    0    0 -0.18423707818E+01 -0.10439273495E+03  0.19757296191E+03  0.22346434329E+03  0.00000000000E+00 0. -1.
        -12    1    3    3    0    0  0.18857229317E+02  0.65262499169E+01  0.92800502039E+01  0.22006961791E+02  0.00000000000E+00 0.  1.
        -11    1    4    4    0    0  0.89748624317E+02 -0.79434880292E+01  0.36161292189E+03  0.37266851201E+03  0.00000000000E+00 0.  1.
         11    1    4    4    0    0  0.15380299107E+03  0.40027516625E+02  0.31542242946E+03  0.35319806222E+03  0.00000000000E+00 0. -1.
          2    1    1    2  501    0 -0.26056647392E+03  0.65782456437E+02  0.12849990669E+04  0.13128003736E+04  0.00000000000E+00 0. -1.
<scales pt_clust_5="13000.00000" pt_clust_6="13000.00000" pt_clust_7="13000.00000" pt_clust_8="13000.00000" pt_clust_9="249.52824"></scales>
<clustering>
<clus scale="   87.182">  5  6 -1 -1</clus>
<clus scale="   90.325">  7  8 -1 -1</clus>
<clus scale="  132.167">  1  5  2 -1</clus>
<clus scale="  249.528">  2  9  1 -1</clus>
<clus scale="  249.528">  2  5  1 -1</clus>
</clustering>
</event>
<event>
 9    1  0.6270443E-005  0.1861363E+03  0.7546771E-02  0.1190929E+00
         21   -1    0    0  501  502  0.00000000000E+00  0.00000000000E+00  0.41132099745E+03  0.41132099745E+03  0.00000000000E+00 0. -1.
          1   -1    0    0  502    0 -0.00000000000E+00 -0.00000000000E+00 -0.54280741388E+03  0.54280741388E+03  0.00000000000E+00 0. -1.
        -24    2    1    2    0    0 -0.53410015277E+02  0.31310108991E+01 -0.40817008568E+03  0.41947539464E+03  0.80587560476E+02 0.  0.
         23    2    1    2    0    0 -0.92038306226E+02  0.72401109940E+02 -0.55713281142E+02  0.16404804082E+03  0.10047297880E+03 0.  0.
         11    1    3    3    0    0 -0.71700323150E+02 -0.61836167224E+01 -0.25585889524E+03  0.26578741078E+03  0.00000000000E+00 0. -1.
        -12    1    3    3    0    0  0.18290307873E+02  0.93146276215E+01 -0.15231119044E+03  0.15368798386E+03  0.00000000000E+00 0.  1.
        -11    1    4    4    0    0 -0.26962420055E+02  0.60259161288E+02 -0.70112602196E+02  0.96301171338E+02  0.00000000000E+00 0.  1.
         11    1    4    4    0    0 -0.65075886171E+02  0.12141948652E+02  0.14399321055E+02  0.67746869484E+02  0.00000000000E+00 0. -1.
          2    1    1    2  501    0  0.14544832150E+03 -0.75532120839E+02  0.33239695039E+03  0.37060497587E+03  0.00000000000E+00 0. -1.
<scales pt_clust_5="13000.00000" pt_clust_6="13000.00000" pt_clust_7="13000.00000" pt_clust_8="13000.00000" pt_clust_9="156.69042"></scales>
<clustering>
<clus scale="   80.588">  5  6 -1 -1</clus>
<clus scale="   96.730">  2  5  1 -1</clus>
<clus scale="  100.473">  7  8 -1 -1</clus>
<clus scale="  156.690">  1  9  2 -1</clus>
<clus scale="  156.690">  1  5  2 -1</clus>
</clustering>
</event>
<event>
 9    1  0.6270443E-005  0.1041278E+03  0.7546771E-02  0.1277478E+00
         21   -1    0    0  501  502  0.00000000000E+00  0.00000000000E+00  0.58667218902E+02  0.58667218902E+02  0.00000000000E+00 0.  1.
          1   -1    0    0  502    0 -0.00000000000E+00 -0.00000000000E+00 -0.61332296192E+03  0.61332296192E+03  0.00000000000E+00 0. -1.
         23    2    1    2    0    0  0.51516936677E+02 -0.18037061033E+02 -0.49106423384E+03  0.50250871514E+03  0.91605658623E+02 0.  0.
        -24    2    1    2    0    0 -0.27171993092E+02  0.24857105145E+02 -0.95045099731E+02  0.12912656959E+03  0.79271098811E+02 0.  0.
         11    1    4    4    0    0 -0.17971503466E+02  0.26193887176E+02 -0.10834132793E+03  0.11290233833E+03  0.00000000000E+00 0. -1.
        -12    1    4    4    0    0 -0.92004896258E+01 -0.13367820302E+01  0.13296228203E+02  0.16224231260E+02  0.00000000000E+00 0.  1.
        -11    1    3    3    0    0  0.36229469576E+02  0.35284278052E+02 -0.20789192986E+03  0.21395468969E+03  0.00000000000E+00 0.  1.
         11    1    3    3    0    0  0.15287467101E+02 -0.53321339085E+02 -0.28317230399E+03  0.28855402544E+03  0.00000000000E+00 0. -1.
          2    1    1    2  501    0 -0.24344943585E+02 -0.68200441127E+01  0.31453590557E+02  0.40354896094E+02  0.00000000000E+00 0. -1.
<scales pt_clust_5="13000.00000" pt_clust_6="13000.00000" pt_clust_7="13000.00000" pt_clust_8="13000.00000" pt_clust_9="25.28219"></scales>
<clustering>
<clus scale="   25.282">  1  9  2 -1</clus>
<clus scale="   79.271">  5  6 -1 -1</clus>
<clus scale="   91.606">  7  8 -1 -1</clus>
<clus scale="   93.461">  1  5  2 -1</clus>
<clus scale="   25.282">  1  5  2 -1</clus>
</clustering>
</event>
<event>
 9    1  0.6270443E-005  0.1200146E+03  0.7546771E-02  0.1245040E+00
          1   -1    0    0  502    0 -0.00000000000E+00  0.00000000000E+00  0.65863835622E+03  0.65863835622E+03  0.00000000000E+00 0. -1.
         21   -1    0    0  501  502  0.00000000000E+00 -0.00000000000E+00 -0.32914274365E+03  0.32914274365E+03  0.00000000000E+00 0. -1.
        -24    2    1    2    0    0 -0.54255128677E+02  0.59063540215E+02  0.62103384479E+03  0.63197260988E+03  0.85289052551E+02 0.  0.
         23    2    1    2    0    0  0.26141190309E+02 -0.29826183890E+02 -0.51262352001E+02  0.11213306007E+03  0.91504269576E+02 0.  0.
         13    1    3    3    0    0 -0.75160924849E+02  0.57163925826E+02  0.46133862485E+03  0.47090360566E+03  0.00000000000E+00 0. -1.
        -14    1    3    3    0    0  0.20905796171E+02  0.18996143888E+01  0.15969521994E+03  0.16106900422E+03  0.00000000000E+00 0.  1.
        -13    1    4    4    0    0 -0.14624042203E+02  0.23995551303E+02 -0.30554003412E+02  0.41511398641E+02  0.00000000000E+00 0. -1.
         13    1    4    4    0    0  0.40765232512E+02 -0.53821735194E+02 -0.20708348589E+02  0.70621661424E+02  0.00000000000E+00 0.  1.
          2    1    1    2  501    0  0.28113938369E+02 -0.29237356324E+02 -0.24027588022E+03  0.24367542993E+03  0.00000000000E+00 0. -1.
<scales pt_clust_5="13000.00000" pt_clust_6="13000.00000" pt_clust_7="13000.00000" pt_clust_8="13000.00000" pt_clust_9="40.56127"></scales>
<clustering>
<clus scale="   40.561">  2  9  1 -1</clus>
<clus scale="   85.289">  5  6 -1 -1</clus>
<clus scale="   91.504">  7  8 -1 -1</clus>
<clus scale="  115.346">  1  5  2 -1</clus>
<clus scale="   40.561">  2  5  1 -1</clus>
</clustering>
</event>
<event>
 9    1  0.6270443E-005  0.1529869E+03  0.7546771E-02  0.1218724E+00
          1   -1    0    0  502    0 -0.00000000000E+00  0.00000000000E+00  0.37228416007E+03  0.37228416007E+03  0.00000000000E+00 0. -1.
         21   -1    0    0  501  502  0.00000000000E+00 -0.00000000000E+00 -0.11312071545E+03  0.11312071545E+03  0.00000000000E+00 0.  1.
         23    2    1    2    0    0 -0.11438048392E+01  0.27467315890E+02  0.81838425860E+02  0.12594004725E+03  0.91692997676E+02 0.  0.
        -24    2    1    2    0    0  0.12612908215E+03  0.25954746060E+02  0.22046790080E+02  0.15309970392E+03  0.79820199065E+02 0.  0.
         11    1    4    4    0    0  0.11411842768E+03 -0.52703651731E+01  0.31182579522E+02  0.11841936307E+03  0.00000000000E+00 0. -1.
        -12    1    4    4    0    0  0.12010654476E+02  0.31225111233E+02 -0.91357894423E+01  0.34680340846E+02  0.00000000000E+00 0.  1.
        -11    1    3    3    0    0  0.22721862354E+02  0.13359595356E+02  0.92541540774E+02  0.96222131475E+02  0.00000000000E+00 0.  1.
         11    1    3    3    0    0 -0.23865667193E+02  0.14107720533E+02 -0.10703114914E+02  0.29717915776E+02  0.00000000000E+00 0. -1.
          2    1    1    2  501    0 -0.12498527731E+03 -0.53422061949E+02  0.15527822868E+03  0.20636512436E+03  0.00000000000E+00 0. -1.
<scales pt_clust_5="13000.00000" pt_clust_6="13000.00000" pt_clust_7="13000.00000" pt_clust_8="13000.00000" pt_clust_9="130.51340"></scales>
<clustering>
<clus scale="   79.820">  5  6 -1 -1</clus>
<clus scale="   91.693">  7  8 -1 -1</clus>
<clus scale="   95.725">  1  7  2 -1</clus>
<clus scale="  130.513">  2  9  1 -1</clus>
<clus scale="  130.513">  2  5  1 -1</clus>
</clustering>
</event>
<event>
 9    1  0.6770356E-005  0.1070728E+03  0.7546771E-02  0.1272608E+00
         21   -1    0    0  501  502  0.00000000000E+00  0.00000000000E+00  0.11925984508E+03  0.11925984508E+03  0.00000000000E+00 0. -1.
         -2   -1    0    0    0  501 -0.00000000000E+00 -0.00000000000E+00 -0.29088506208E+03  0.29088506208E+03  0.00000000000E+00 0.  1.
         23    2    1    2    0    0  0.48625863929E+02 -0.96020122492E+01 -0.24700773329E+03  0.26931685934E+03  0.95194942798E+02 0.  0.
        -24    2    1    2    0    0 -0.39047264738E+02  0.28399134384E+02  0.74098929299E+02  0.11969208420E+03  0.80649513196E+02 0.  0.
         13    1    4    4    0    0 -0.54027708877E+02  0.11323137710E+02  0.79075876414E+02  0.96437549766E+02  0.00000000000E+00 0. -1.
        -14    1    4    4    0    0  0.14980444139E+02  0.17075996674E+02 -0.49769471155E+01  0.23254534431E+02  0.00000000000E+00 0.  1.
        -11    1    3    3    0    0  0.97748300122E+01 -0.48879147428E+02 -0.90131116925E+02  0.10299677953E+03  0.00000000000E+00 0. -1.
         11    1    3    3    0    0  0.38851033916E+02  0.39277135179E+02 -0.15687661637E+03  0.16632007981E+03  0.00000000000E+00 0.  1.
         -1    1    1    2    0  502 -0.95785991902E+01 -0.18797122134E+02  0.12835869892E+01  0.21135963629E+02  0.00000000000E+00 0.  1.
<scales pt_clust_5="13000.00000" pt_clust_6="13000.00000" pt_clust_7="13000.00000" pt_clust_8="13000.00000" pt_clust_9="21.09695"></scales>
<clustering>
<clus scale="   21.097">  1  9  2 -1</clus>
<clus scale="   80.650">  5  6 -1 -1</clus>
<clus scale="   94.376">  1  5  2 -1</clus>
<clus scale="   95.195">  7  8 -1 -1</clus>
<clus scale="   21.097">  1  5  2 -1</clus>
</clustering>
</event>
<event>
 9    1  0.6270443E-005  0.4059839E+03  0.7546771E-02  0.1103164E+00
          1   -1    0    0  502    0 -0.00000000000E+00  0.00000000000E+00  0.84506071233E+03  0.84506071233E+03  0.00000000000E+00 0. -1.
         21   -1    0    0  501  502  0.00000000000E+00 -0.00000000000E+00 -0.30352984145E+03  0.30352984145E+03  0.00000000000E+00 0. -1.
         23    2    1    2    0    0 -0.85979707108E+01 -0.50030251449E+02  0.29546229856E+03  0.30499201119E+03  0.56082134896E+02 0.  0.
        -24    2    1    2    0    0 -0.30207317511E+03  0.28071736131E+03  0.13629971160E+03  0.44137682974E+03  0.78647659784E+02 0.  0.
         11    1    4    4    0    0 -0.28641817842E+03  0.25898722955E+03  0.10497111984E+03  0.40016083516E+03  0.00000000000E+00 0. -1.
        -12    1    4    4    0    0 -0.15654996694E+02  0.21730131760E+02  0.31328591755E+02  0.41215994579E+02  0.00000000000E+00 0.  1.
        -13    1    3    3    0    0  0.19075302085E+02 -0.13383812294E+02  0.48633610500E+02  0.53927930161E+02  0.00000000000E+00 0.  1.
         13    1    3    3    0    0 -0.27673272796E+02 -0.36646439154E+02  0.24682868806E+03  0.25106408103E+03  0.00000000000E+00 0. -1.
          2    1    1    2  501    0  0.31067114582E+03 -0.23068710986E+03  0.10976886072E+03  0.40222171285E+03  0.00000000000E+00 0. -1.
<scales pt_clust_5="13000.00000" pt_clust_6="13000.00000" pt_clust_7="13000.00000" pt_clust_8="13000.00000" pt_clust_9="398.29324"></scales>
<clustering>
<clus scale="   56.082">  7  8 -1 -1</clus>
<clus scale="   75.645">  1  7  2 -1</clus>
<clus scale="   78.648">  5  6 -1 -1</clus>
<clus scale="  398.293">  2  9  1 -1</clus>
<clus scale="  398.293">  2  5  1 -1</clus>
</clustering>
</event>
<event>
 9    1  0.6270443E-005  0.9361765E+02  0.7546771E-02  0.1297223E+00
          1   -1    0    0  502    0 -0.00000000000E+00  0.00000000000E+00  0.66196449567E+03  0.66196449567E+03  0.00000000000E+00 0. -1.
         21   -1    0    0  501  502  0.00000000000E+00 -0.00000000000E+00 -0.57538946172E+02  0.57538946172E+02  0.00000000000E+00 0.  1.
         23    2    1    2    0    0  0.27264084518E+02 -0.25664111189E+02  0.50456513962E+03  0.51351916074E+03  0.87829217336E+02 0.  0.
        -24    2    1    2    0    0  0.68970999186E+01 -0.20648577272E+02 -0.58780222692E+01  0.85599615687E+02  0.82576082066E+02 0.  0.
         13    1    4    4    0    0 -0.30385051988E+01  0.30686669992E+02  0.72739432956E+01  0.31683031422E+02  0.00000000000E+00 0. -1.
        -14    1    4    4    0    0  0.99356051174E+01 -0.51335247263E+02 -0.13151965565E+02  0.53916584265E+02  0.00000000000E+00 0.  1.
        -11    1    3    3    0    0 -0.15703415441E+02  0.24666593935E+02  0.14638836704E+03  0.14928024691E+03  0.00000000000E+00 0.  1.
         11    1    3    3    0    0  0.42967499959E+02 -0.50330705125E+02  0.35817677258E+03  0.36423891382E+03  0.00000000000E+00 0. -1.
          2    1    1    2  501    0 -0.34161184437E+02  0.46312688461E+02  0.10573843215E+03  0.12038466542E+03  0.00000000000E+00 0. -1.
<scales pt_clust_5="13000.00000" pt_clust_6="13000.00000" pt_clust_7="13000.00000" pt_clust_8="13000.00000" pt_clust_9="57.54872"></scales>
<clustering>
<clus scale="   57.549">  2  9  1 -1</clus>
<clus scale="   82.576">  5  6 -1 -1</clus>
<clus scale="   87.829">  7  8 -1 -1</clus>
<clus scale="   88.708">  2  5  1 -1</clus>
<clus scale="   57.549">  2  5  1 -1</clus>
</clustering>
</event>
<event>
 9    1  0.6270443E-005  0.1263230E+03  0.7546771E-02  0.1240674E+00
         -2   -1    0    0    0  501 -0.00000000000E+00  0.00000000000E+00  0.56174275643E+02  0.56174275643E+02  0.00000000000E+00 0.  1.
         21   -1    0    0  501  502  0.00000000000E+00 -0.00000000000E+00 -0.43152824166E+03  0.43152824166E+03  0.00000000000E+00 0.  1.
        -24    2    1    2    0    0 -0.52127159038E+02  0.40164334694E+02 -0.12845508759E+03  0.16536879178E+03  0.80719968268E+02 0.  0.
         23    2    1    2    0    0  0.56377604655E+02 -0.62286105924E+02 -0.26275545704E+03  0.29478612789E+03  0.10392515430E+03 0.  0.
         11    1    3    3    0    0 -0.32475549235E+02  0.39559961806E+02 -0.13521531980E+03  0.14457812623E+03  0.00000000000E+00 0. -1.
        -12    1    3    3    0    0 -0.19651609802E+02  0.60437288786E+00  0.67602322124E+01  0.20790665549E+02  0.00000000000E+00 0.  1.
        -11    1    4    4    0    0  0.57371109451E+02 -0.40691266818E+02 -0.26392518059E+03  0.27313682349E+03  0.00000000000E+00 0.  1.
         11    1    4    4    0    0 -0.99350479542E+00 -0.21594839106E+02  0.11697235567E+01  0.21649304399E+02  0.00000000000E+00 0. -1.
         -1    1    1    2    0  502 -0.42504456176E+01  0.22121771230E+02  0.15856578606E+02  0.27547597633E+02  0.00000000000E+00 0.  1.
<scales pt_clust_5="13000.00000" pt_clust_6="13000.00000" pt_clust_7="13000.00000" pt_clust_8="13000.00000" pt_clust_9="22.52642"></scales>
<clustering>
<clus scale="   22.526">  2  9  1 -1</clus>
<clus scale="   80.720">  5  6 -1 -1</clus>
<clus scale="  103.925">  7  8 -1 -1</clus>
<clus scale="  108.041">  1  5  2 -1</clus>
<clus scale="   22.526">  2  5  1 -1</clus>
</clustering>
</event>
<event>
 9    1  0.6270443E-005  0.9399088E+02  0.7546771E-02  0.1304021E+00
         21   -1    0    0  501  502  0.00000000000E+00  0.00000000000E+00  0.20964514752E+03  0.20964514752E+03  0.00000000000E+00 0.  1.
         -2   -1    0    0    0  501 -0.00000000000E+00 -0.00000000000E+00 -0.82511528569E+02  0.82511528569E+02  0.00000000000E+00 0.  1.
        -24    2    1    2    0    0  0.14576187735E+02  0.21060714728E+02  0.72270599882E+01  0.80155861318E+02  0.75608946256E+02 0.  0.
         23    2    1    2    0    0  0.46179971191E+02 -0.24001535860E+01  0.10350767547E+03  0.14636202464E+03  0.92572419756E+02 0.  0.
         11    1    3    3    0    0  0.18819793695E+02  0.21448809638E+02 -0.30744509898E+02  0.41945928986E+02  0.00000000000E+00 0. -1.
        -12    1    3    3    0    0 -0.42436059605E+01 -0.38809490974E+00  0.37971569887E+02  0.38209932333E+02  0.00000000000E+00 0.  1.
        -11    1    4    4    0    0  0.43338400099E+02  0.20651897223E+02  0.87488394630E+01  0.48798155436E+02  0.00000000000E+00 0. -1.
         11    1    4    4    0    0  0.28415710929E+01 -0.23052050809E+02  0.94758836009E+02  0.97563869207E+02  0.00000000000E+00 0.  1.
         -1    1    1    2    0  502 -0.60756158926E+02 -0.18660561142E+02  0.16398883490E+02  0.65638790127E+02  0.00000000000E+00 0.  1.
<scales pt_clust_5="13000.00000" pt_clust_6="13000.00000" pt_clust_7="13000.00000" pt_clust_8="13000.00000" pt_clust_9="63.55731"></scales>
<clustering>
<clus scale="   63.557">  1  9  2 -1</clus>
<clus scale="   75.609">  5  6 -1 -1</clus>
<clus scale="   77.339">  2  5  1 -1</clus>
<clus scale="   92.572">  7  8 -1 -1</clus>
<clus scale="   63.557">  1  5  2 -1</clus>
</clustering>
</event>
<event>
 9    1  0.6270443E-005  0.1933779E+03  0.7546771E-02  0.1174047E+00
         21   -1    0    0  501  502  0.00000000000E+00  0.00000000000E+00  0.10642350476E+03  0.10642350476E+03  0.00000000000E+00 0. -1.
          1   -1    0    0  502    0 -0.00000000000E+00 -0.00000000000E+00 -0.95340819428E+03  0.95340819428E+03  0.00000000000E+00 0. -1.
        -24    2    1    2    0    0  0.88337793800E+02 -0.38947240507E+02 -0.22292106370E+03  0.25600477988E+03  0.80772478749E+02 0.  0.
         23    2    1    2    0    0 -0.11430050971E+03 -0.13257047023E+03 -0.59629273388E+03  0.62814649863E+03  0.91451971941E+02 0.  0.
         13    1    3    3    0    0  0.30724224490E+02 -0.27996146923E+01 -0.99183373272E+01  0.32406623217E+02  0.00000000000E+00 0. -1.
        -14    1    3    3    0    0  0.57613569309E+02 -0.36147625814E+02 -0.21300272637E+03  0.22359815666E+03  0.00000000000E+00 0.  1.
        -13    1    4    4    0    0 -0.24769505273E+02 -0.23404936019E+02 -0.33027364749E+02  0.47456572188E+02  0.00000000000E+00 0.  1.
         13    1    4    4    0    0 -0.89531004437E+02 -0.10916553421E+03 -0.56326536913E+03  0.58068992645E+03  0.00000000000E+00 0. -1.
          2    1    1    2  501    0  0.25962715910E+02  0.17151771074E+03 -0.27770891941E+02  0.17568042052E+03  0.00000000000E+00 0. -1.
<scales pt_clust_5="13000.00000" pt_clust_6="13000.00000" pt_clust_7="13000.00000" pt_clust_8="13000.00000" pt_clust_9="170.38648"></scales>
<clustering>
<clus scale="   80.772">  5  6 -1 -1</clus>
<clus scale="   91.452">  7  8 -1 -1</clus>
<clus scale="  125.876">  2  5  1 -1</clus>
<clus scale="  170.386">  1  9  2 -1</clus>
<clus scale="  170.386">  1  5  2 -1</clus>
</clustering>
</event>
<event>
 9    1  0.6270443E-005  0.1033752E+03  0.7546771E-02  0.1275342E+00
         -4   -1    0    0    0  501 -0.00000000000E+00  0.00000000000E+00  0.46004590964E+03  0.46004590964E+03  0.00000000000E+00 0.  1.
         21   -1    0    0  501  502  0.00000000000E+00 -0.00000000000E+00 -0.13270831666E+03  0.13270831666E+03  0.00000000000E+00 0.  1.
        -24    2    1    2    0    0  0.47891338354E+02  0.23338233619E+02  0.23704017383E+03  0.25801772350E+03  0.86872597485E+02 0.  0.
         23    2    1    2    0    0 -0.35054813185E+01  0.18564846272E+02 -0.98918216755E+02  0.13591867342E+03  0.91280503184E+02 0.  0.
         13    1    3    3    0    0 -0.13814646245E+01  0.45101285261E+02  0.13919117072E+03  0.14632230310E+03  0.00000000000E+00 0. -1.
        -14    1    3    3    0    0  0.49272802979E+02 -0.21763051642E+02  0.97849003105E+02  0.11169542040E+03  0.00000000000E+00 0.  1.
        -13    1    4    4    0    0  0.42371192278E+02 -0.26195974435E+01 -0.49950640018E+02  0.65553387891E+02  0.00000000000E+00 0.  1.
         13    1    4    4    0    0 -0.45876673596E+02  0.21184443716E+02 -0.48967576737E+02  0.70365285527E+02  0.00000000000E+00 0. -1.
         -3    1    1    2    0  502 -0.44385857036E+02 -0.41903079891E+02  0.18921563591E+03  0.19881782938E+03  0.00000000000E+00 0.  1.
<scales pt_clust_5="13000.00000" pt_clust_6="13000.00000" pt_clust_7="13000.00000" pt_clust_8="13000.00000" pt_clust_9="61.04077"></scales>
<clustering>
<clus scale="   61.041">  2  9  1 -1</clus>
<clus scale="   86.873">  5  6 -1 -1</clus>
<clus scale="   91.281">  7  8 -1 -1</clus>
<clus scale="   99.504">  1  5  2 -1</clus>
<clus scale="   61.041">  2  5  1 -1</clus>
</clustering>
</event>
<event>
 9    1  0.6270443E-005  0.2102316E+03  0.7546771E-02  0.1141396E+00
         21   -1    0    0  501  502  0.00000000000E+00  0.00000000000E+00  0.52498419775E+02  0.52498419775E+02  0.00000000000E+00 0. -1.
          1   -1    0    0  502    0 -0.00000000000E+00 -0.00000000000E+00 -0.16296478841E+04  0.16296478841E+04  0.00000000000E+00 0. -1.
         23    2    1    2    0    0 -0.11072573014E+03 -0.16673032337E+03 -0.96180848704E+03  0.98550879255E+03  0.78056558947E+02 0.  0.
        -24    2    1    2    0    0  0.60259187217E+02  0.18247063051E+03 -0.60907839339E+03  0.64340360126E+03  0.77878136776E+02 0.  0.
         11    1    4    4    0    0  0.97839542169E+01  0.11467934166E+03 -0.26170684445E+03  0.28589779572E+03  0.00000000000E+00 0. -1.
        -12    1    4    4    0    0  0.50475233000E+02  0.67791288849E+02 -0.34737154893E+03  0.35750580555E+03  0.00000000000E+00 0.  1.
        -13    1    3    3    0    0 -0.32947534610E+02 -0.34554659979E+01 -0.18327923533E+03  0.18624918358E+03  0.00000000000E+00 0.  1.
         13    1    3    3    0    0 -0.77778195530E+02 -0.16327485737E+03 -0.77852925172E+03  0.79925960897E+03  0.00000000000E+00 0. -1.
          2    1    1    2  501    0  0.50466542923E+02 -0.15740307136E+02 -0.62625838917E+01  0.53233910060E+02  0.00000000000E+00 0. -1.
<scales pt_clust_5="13000.00000" pt_clust_6="13000.00000" pt_clust_7="13000.00000" pt_clust_8="13000.00000" pt_clust_9="52.86425"></scales>
<clustering>
<clus scale="   52.864">  1  9  2 -1</clus>
<clus scale="   77.878">  5  6 -1 -1</clus>
<clus scale="   78.057">  7  8 -1 -1</clus>
<clus scale="  210.165">  1  5  2 -1</clus>
<clus scale="   52.864">  1  5  2 -1</clus>
</clustering>
</event>
<event>
 9    1  0.6270443E-005  0.1942490E+03  0.7546771E-02  0.1191499E+00
         21   -1    0    0  501  502  0.00000000000E+00  0.00000000000E+00  0.14606690410E+04  0.14606690410E+04  0.00000000000E+00 0. -1.
         -4   -1    0    0    0  501 -0.00000000000E+00 -0.00000000000E+00 -0.59307190922E+02  0.59307190922E+02  0.00000000000E+00 0.  1.
        -24    2    1    2    0    0 -0.11627572020E+02  0.18089215750E+02  0.25154164847E+02  0.87730330314E+02  0.81249361168E+02 0.  0.
         23    2    1    2    0    0  0.11583310022E+02 -0.17437953162E+03  0.10699603365E+04  0.10884231226E+04  0.96474752648E+02 0.  0.
         11    1    3    3    0    0 -0.27194664659E+02  0.44983644125E+02  0.11608666707E+02  0.53831581506E+02  0.00000000000E+00 0. -1.
        -12    1    3    3    0    0  0.15567092639E+02 -0.26894428375E+02  0.13545498141E+02  0.33898748808E+02  0.00000000000E+00 0.  1.
        -13    1    4    4    0    0  0.35721746499E+02 -0.15944065150E+02  0.18942610912E+03  0.19342312996E+03  0.00000000000E+00 0.  1.
         13    1    4    4    0    0 -0.24138436477E+02 -0.15843546647E+03  0.88053422741E+03  0.89499999262E+03  0.00000000000E+00 0. -1.
         -3    1    1    2    0  502  0.44261998004E-01  0.15629031587E+03  0.30624734868E+03  0.34382277901E+03  0.00000000000E+00 0.  1.
<scales pt_clust_5="13000.00000" pt_clust_6="13000.00000" pt_clust_7="13000.00000" pt_clust_8="13000.00000" pt_clust_9="168.59813"></scales>
<clustering>
<clus scale="   81.249">  5  6 -1 -1</clus>
<clus scale="   84.047">  2  5  1 -1</clus>
<clus scale="   96.475">  7  8 -1 -1</clus>
<clus scale="  168.598">  1  9  2 -1</clus>
<clus scale="  168.598">  1  5  2 -1</clus>
</clustering>
</event>
<event>
 9    1  0.6270443E-005  0.9832583E+02  0.7546771E-02  0.1290365E+00
          1   -1    0    0  502    0 -0.00000000000E+00  0.00000000000E+00  0.58943429434E+02  0.58943429434E+02  0.00000000000E+00 0. -1.
         21   -1    0    0  501  502  0.00000000000E+00 -0.00000000000E+00 -0.37590836257E+03  0.37590836257E+03  0.00000000000E+00 0. -1.
        -24    2    1    2    0    0 -0.27417029363E+02  0.41084289686E+02 -0.30783314480E+02  0.98354566033E+02  0.79286794934E+02 0.  0.
         23    2    1    2    0    0  0.28293486162E+02  0.33252977737E+02 -0.18424794116E+03  0.21033355405E+03  0.91578481371E+02 0.  0.
         13    1    3    3    0    0  0.13821657872E+02  0.48843046393E+02 -0.22769811977E+02  0.55634034050E+02  0.00000000000E+00 0. -1.
        -14    1    3    3    0    0 -0.41238687235E+02 -0.77587567065E+01 -0.80135025027E+01  0.42720531982E+02  0.00000000000E+00 0.  1.
        -13    1    4    4    0    0 -0.10539027611E+02  0.47343420023E+02 -0.14669706325E+03  0.15450727779E+03  0.00000000000E+00 0. -1.
         13    1    4    4    0    0  0.38832513773E+02 -0.14090442286E+02 -0.37550877907E+02  0.55826276262E+02  0.00000000000E+00 0.  1.
          2    1    1    2  501    0 -0.87645679854E+00 -0.74337267423E+02 -0.10193367749E+03  0.12616367192E+03  0.00000000000E+00 0. -1.
<scales pt_clust_5="13000.00000" pt_clust_6="13000.00000" pt_clust_7="13000.00000" pt_clust_8="13000.00000" pt_clust_9="74.34243"></scales>
<clustering>
<clus scale="   74.342">  2  9  1 -1</clus>
<clus scale="   79.287">  5  6 -1 -1</clus>
<clus scale="   86.993">  1  5  2 -1</clus>
<clus scale="   91.578">  7  8 -1 -1</clus>
<clus scale="   74.342">  2  5  1 -1</clus>
</clustering>
</event>
<event>
 9    1  0.6270443E-005  0.9447924E+02  0.7546771E-02  0.1298823E+00
         -2   -1    0    0    0  501 -0.00000000000E+00  0.00000000000E+00  0.32569198843E+03  0.32569198843E+03  0.00000000000E+00 0.  1.
         21   -1    0    0  501  502  0.00000000000E+00 -0.00000000000E+00 -0.63244022508E+02  0.63244022508E+02  0.00000000000E+00 0. -1.
         23    2    1    2    0    0 -0.21490912516E+02  0.10781342323E+02  0.21764714001E+03  0.23742785156E+03  0.91780229255E+02 0.  0.
        -24    2    1    2    0    0 -0.18006718585E+01 -0.29319421505E+02 -0.12618305420E+02  0.86831154760E+02  0.80731387383E+02 0.  0.
         13    1    4    4    0    0 -0.38784670247E+02 -0.22173004250E+02 -0.19139699599E+02  0.48602683716E+02  0.00000000000E+00 0. -1.
        -14    1    4    4    0    0  0.36983998388E+02 -0.71464172548E+01  0.65213941796E+01  0.38228471045E+02  0.00000000000E+00 0.  1.
        -11    1    3    3    0    0 -0.17780438051E+02 -0.37006560383E+02  0.60361996332E+02  0.73001370466E+02  0.00000000000E+00 0.  1.
         11    1    3    3    0    0 -0.37104744651E+01  0.47787902705E+02  0.15728514367E+03  0.16442648110E+03  0.00000000000E+00 0. -1.
         -1    1    1    2    0  502  0.23291584375E+02  0.18538079182E+02  0.57419131334E+02  0.64677004612E+02  0.00000000000E+00 0.  1.
<scales pt_clust_5="13000.00000" pt_clust_6="13000.00000" pt_clust_7="13000.00000" pt_clust_8="13000.00000" pt_clust_9="29.76843"></scales>
<clustering>
<clus scale="   29.768">  2  9  1 -1</clus>
<clus scale="   80.731">  5  6 -1 -1</clus>
<clus scale="   83.787">  2  5  1 -1</clus>
<clus scale="   91.780">  7  8 -1 -1</clus>
<clus scale="   29.768">  2  5  1 -1</clus>
</clustering>
</event>
<event>
 9    1  0.6270443E-005  0.1198661E+03  0.7546771E-02  0.1246395E+00
         -4   -1    0    0    0  501 -0.00000000000E+00  0.00000000000E+00  0.15082939453E+04  0.15082939453E+04  0.00000000000E+00 0.  1.
         21   -1    0    0  501  502  0.00000000000E+00 -0.00000000000E+00 -0.21195170864E+02  0.21195170864E+02  0.00000000000E+00 0. -1.
        -24    2    1    2    0    0  0.39120131656E+02 -0.82141383648E+02  0.92803133967E+03  0.93605656192E+03  0.81744284769E+02 0.  0.
         23    2    1    2    0    0 -0.47665309226E+02  0.40003342940E+02  0.53028153358E+03  0.54169028290E+03  0.91419957262E+02 0.  0.
         11    1    3    3    0    0  0.59405688553E+01 -0.28391992778E+02  0.70946041063E+02  0.76646828732E+02  0.00000000000E+00 0. -1.
        -12    1    3    3    0    0  0.33179562800E+02 -0.53749390870E+02  0.85708529861E+03  0.85940973319E+03  0.00000000000E+00 0.  1.
        -13    1    4    4    0    0  0.15192352735E+02 -0.18833989370E+02  0.13344383294E+03  0.13561999590E+03  0.00000000000E+00 0.  1.
         13    1    4    4    0    0 -0.62857661961E+02  0.58837332310E+02  0.39683770063E+03  0.40607028700E+03  0.00000000000E+00 0. -1.
         -3    1    1    2    0  502  0.85451775706E+01  0.42138040708E+02  0.28785901138E+02  0.51742271295E+02  0.00000000000E+00 0.  1.
<scales pt_clust_5="13000.00000" pt_clust_6="13000.00000" pt_clust_7="13000.00000" pt_clust_8="13000.00000" pt_clust_9="42.99575"></scales>
<clustering>
<clus scale="   42.996">  2  9  1 -1</clus>
<clus scale="   81.744">  5  6 -1 -1</clus>
<clus scale="   91.420">  7  8 -1 -1</clus>
<clus scale="  112.661">  1  5  2 -1</clus>
<clus scale="   42.996">  2  5  1 -1</clus>
</clustering>
</event>
<event>
 9    1  0.6270443E-005  0.1026498E+03  0.7546771E-02  0.1279576E+00
          1   -1    0    0  502    0 -0.00000000000E+00  0.00000000000E+00  0.22450924360E+03  0.22450924360E+03  0.00000000000E+00 0. -1.
         21   -1    0    0  501  502  0.00000000000E+00 -0.00000000000E+00 -0.14869688250E+03  0.14869688250E+03  0.00000000000E+00 0.  1.
         23    2    1    2    0    0 -0.25812084262E+02  0.35284490218E+01  0.44268392610E+02  0.10485312200E+03  0.91409917194E+02 0.  0.
        -24    2    1    2    0    0  0.11277636019E+03 -0.18149618493E+02 -0.49416202117E+02  0.14864037691E+03  0.81265518801E+02 0.  0.
         13    1    4    4    0    0  0.21859054223E+02  0.23463415207E+02  0.83871115275E+01  0.33146549511E+02  0.00000000000E+00 0. -1.
        -14    1    4    4    0    0  0.90917305972E+02 -0.41613033701E+02 -0.57803313644E+02  0.11549382740E+03  0.00000000000E+00 0.  1.
        -11    1    3    3    0    0  0.20712065399E+02 -0.30570425877E+02  0.22249295469E+02  0.43111155636E+02  0.00000000000E+00 0. -1.
         11    1    3    3    0    0 -0.46524149661E+02  0.34098874898E+02  0.22019097140E+02  0.61741966359E+02  0.00000000000E+00 0.  1.
          2    1    1    2  501    0 -0.86964275933E+02  0.14621169471E+02  0.80960170608E+02  0.11971262720E+03  0.00000000000E+00 0. -1.
<scales pt_clust_5="13000.00000" pt_clust_6="13000.00000" pt_clust_7="13000.00000" pt_clust_8="13000.00000" pt_clust_9="88.18487"></scales>
<clustering>
<clus scale="   81.266">  5  6 -1 -1</clus>
<clus scale="   88.185">  2  9  1 -1</clus>
<clus scale="   91.410">  7  8 -1 -1</clus>
<clus scale="   93.730">  2  5  1 -1</clus>
<clus scale="   88.185">  2  5  1 -1</clus>
</clustering>
</event>
<event>
 9    1  0.6270443E-005  0.9764175E+02  0.7546771E-02  0.1293780E+00
         -2   -1    0    0    0  501 -0.00000000000E+00  0.00000000000E+00  0.17885047127E+03  0.17885047127E+03  0.00000000000E+00 0.  1.
         21   -1    0    0  501  502  0.00000000000E+00 -0.00000000000E+00 -0.97632394749E+02  0.97632394749E+02  0.00000000000E+00 0.  1.
        -24    2    1    2    0    0 -0.64644648321E+01  0.25868371234E+02  0.84032170097E+02  0.11919220964E+03  0.80214807190E+02 0.  0.
         23    2    1    2    0    0  0.83466321365E+01 -0.27660806480E+01 -0.47792438238E+02  0.10669115171E+03  0.94981931071E+02 0.  0.
         13    1    3    3    0    0 -0.31123247538E+02  0.43090867570E+02  0.43304686223E+02  0.68562199893E+02  0.00000000000E+00 0. -1.
        -14    1    3    3    0    0  0.24658782706E+02 -0.17222496337E+02  0.40727483874E+02  0.50630009750E+02  0.00000000000E+00 0.  1.
        -11    1    4    4    0    0 -0.14122900474E+02  0.34377738671E+02 -0.51063592887E+02  0.63156755399E+02  0.00000000000E+00 0.  1.
         11    1    4    4    0    0  0.22469532611E+02 -0.37143819319E+02  0.32711546490E+01  0.43534396310E+02  0.00000000000E+00 0. -1.
         -1    1    1    2    0  502 -0.18821673043E+01 -0.23102290585E+02  0.44978344667E+02  0.50599504672E+02  0.00000000000E+00 0.  1.
<scales pt_clust_5="13000.00000" pt_clust_6="13000.00000" pt_clust_7="13000.00000" pt_clust_8="13000.00000" pt_clust_9="23.17885"></scales>
<clustering>
<clus scale="   23.179">  2  9  1 -1</clus>
<clus scale="   80.215">  5  6 -1 -1</clus>
<clus scale="   83.347">  1  5  2 -1</clus>
<clus scale="   94.982">  7  8 -1 -1</clus>
<clus scale="   23.179">  2  5  1 -1</clus>
</clustering>
</event>
<event>
 9    1  0.6270443E-005  0.1246561E+03  0.7546771E-02  0.1238310E+00
         21   -1    0    0  501  502  0.00000000000E+00  0.00000000000E+00  0.97792542432E+03  0.97792542432E+03  0.00000000000E+00 0.  1.
         -4   -1    0    0    0  501 -0.00000000000E+00 -0.00000000000E+00 -0.24859880670E+02  0.24859880670E+02  0.00000000000E+00 0.  1.
        -24    2    1    2    0    0  0.24607913508E+02 -0.81268554642E+02  0.18598635623E+03  0.22014266040E+03  0.81619475883E+02 0.  0.
         23    2    1    2    0    0 -0.49695482172E+02  0.73646600368E+02  0.58365398586E+03  0.59735291240E+03  0.91022327188E+02 0.  0.
         11    1    3    3    0    0  0.35096452816E+02 -0.33769611703E+02  0.15499152916E+03  0.16246390918E+03  0.00000000000E+00 0. -1.
        -12    1    3    3    0    0 -0.10488539307E+02 -0.47498942939E+02  0.30994827071E+02  0.57678751219E+02  0.00000000000E+00 0.  1.
        -13    1    4    4    0    0 -0.75598428732E+02  0.64441035320E+02  0.47492686984E+03  0.48520439111E+03  0.00000000000E+00 0.  1.
         13    1    4    4    0    0  0.25902946561E+02  0.92055650477E+01  0.10872711602E+03  0.11214852129E+03  0.00000000000E+00 0. -1.
         -3    1    1    2    0  502  0.25087568663E+02  0.76219542736E+01  0.18342520155E+03  0.18528973218E+03  0.00000000000E+00 0.  1.
<scales pt_clust_5="13000.00000" pt_clust_6="13000.00000" pt_clust_7="13000.00000" pt_clust_8="13000.00000" pt_clust_9="26.21985"></scales>
<clustering>
<clus scale="   26.220">  1  9  2 -1</clus>
<clus scale="   81.619">  5  6 -1 -1</clus>
<clus scale="   91.022">  7  8 -1 -1</clus>
<clus scale="  117.965">  2  5  1 -1</clus>
<clus scale="   26.220">  1  5  2 -1</clus>
</clustering>
</event>
<event>
 9    1  0.6270443E-005  0.1337637E+03  0.7546771E-02  0.1222473E+00
          1   -1    0    0  502    0 -0.00000000000E+00  0.00000000000E+00  0.19987981029E+03  0.19987981029E+03  0.00000000000E+00 0. -1.
         21   -1    0    0  501  502  0.00000000000E+00 -0.00000000000E+00 -0.15853007159E+03  0.15853007159E+03  0.00000000000E+00 0.  1.
        -24    2    1    2    0    0 -0.47403022963E+02  0.92525279774E+02  0.11695008675E+03  0.17910459078E+03  0.87138726546E+02 0.  0.
         23    2    1    2    0    0  0.19319547856E+02 -0.83500130853E+02 -0.82885450874E+02  0.14892095944E+03  0.89229689078E+02 0.  0.
         13    1    3    3    0    0 -0.46187915400E+02  0.50828511767E+02  0.11893772321E+03  0.13734279427E+03  0.00000000000E+00 0. -1.
        -14    1    3    3    0    0 -0.12151075633E+01  0.41696768007E+02 -0.19876364570E+01  0.41761796505E+02  0.00000000000E+00 0.  1.
        -11    1    4    4    0    0 -0.69197952569E+01 -0.45010554281E+02 -0.90885446226E+02  0.10165627329E+03  0.00000000000E+00 0.  1.
         11    1    4    4    0    0  0.26239343113E+02 -0.38489576572E+02  0.79999953522E+01  0.47264686155E+02  0.00000000000E+00 0. -1.
          2    1    1    2  501    0  0.28083475107E+02 -0.90251489207E+01  0.72851028165E+01  0.30384331656E+02  0.00000000000E+00 0. -1.
<scales pt_clust_5="13000.00000" pt_clust_6="13000.00000" pt_clust_7="13000.00000" pt_clust_8="13000.00000" pt_clust_9="29.49806"></scales>
<clustering>
<clus scale="   29.498">  2  9  1 -1</clus>
<clus scale="   87.139">  5  6 -1 -1</clus>
<clus scale="   89.230">  7  8 -1 -1</clus>
<clus scale="  132.378">  1  5  2 -1</clus>
<clus scale="   29.498">  2  5  1 -1</clus>
</clustering>
</event>
<event>
 9    1  0.6270443E-005  0.1321945E+03  0.7546771E-02  0.1226199E+00
         21   -1    0    0  501  502  0.00000000000E+00  0.00000000000E+00  0.97495945822E+02  0.97495945822E+02  0.00000000000E+00 0.  1.
         -2   -1    0    0    0  501 -0.00000000000E+00 -0.00000000000E+00 -0.98138570576E+03  0.98138570576E+03  0.00000000000E+00 0.  1.
        -24    2    1    2    0    0  0.70463852585E+02  0.63581743292E+02 -0.70541567905E+03  0.71640574097E+03  0.81351784525E+02 0.  0.
         23    2    1    2    0    0 -0.61183939208E+02 -0.88837304722E+02 -0.24971347825E+03  0.28632466693E+03  0.89383737578E+02 0.  0.
         13    1    3    3    0    0  0.16125144927E+02  0.66837504912E+02 -0.33215029157E+03  0.33919181675E+03  0.00000000000E+00 0. -1.
        -14    1    3    3    0    0  0.54338707657E+02 -0.32557616204E+01 -0.37326538749E+03  0.37721392423E+03  0.00000000000E+00 0.  1.
        -13    1    4    4    0    0 -0.70220817625E+02 -0.67506661736E+02 -0.11999525590E+03  0.15455411365E+03  0.00000000000E+00 0. -1.
         13    1    4    4    0    0  0.90368784174E+01 -0.21330642986E+02 -0.12971822235E+03  0.13177055328E+03  0.00000000000E+00 0.  1.
         -1    1    1    2    0  502 -0.92799133768E+01  0.25255561430E+02  0.71239397372E+02  0.76151243676E+02  0.00000000000E+00 0.  1.
<scales pt_clust_5="13000.00000" pt_clust_6="13000.00000" pt_clust_7="13000.00000" pt_clust_8="13000.00000" pt_clust_9="26.90651"></scales>
<clustering>
<clus scale="   26.907">  1  9  2 -1</clus>
<clus scale="   81.352">  5  6 -1 -1</clus>
<clus scale="   89.384">  7  8 -1 -1</clus>
<clus scale="  126.902">  2  5  1 -1</clus>
<clus scale="   26.907">  1  5  2 -1</clus>
</clustering>
</event>
<event>
 9    1  0.6270443E-005  0.1660803E+03  0.7546771E-02  0.1190834E+00
         21   -1    0    0  501  502  0.00000000000E+00  0.00000000000E+00  0.29318922328E+02  0.29318922328E+02  0.00000000000E+00 0. -1.
          1   -1    0    0  502    0 -0.00000000000E+00 -0.00000000000E+00 -0.17785057401E+04  0.17785057401E+04  0.00000000000E+00 0. -1.
        -24    2    1    2    0    0  0.10860756915E+03  0.22111095823E+02 -0.36657811958E+03  0.39115334034E+03  0.79604731427E+02 0.  0.
         23    2    1    2    0    0 -0.98851531177E+01  0.97951564093E+02 -0.68205217910E+03  0.69907770857E+03  0.11756803324E+03 0.  0.
         11    1    3    3    0    0  0.95528797801E+02  0.40796951554E+01 -0.18533061365E+03  0.20854215755E+03  0.00000000000E+00 0. -1.
        -12    1    3    3    0    0  0.13078771346E+02  0.18031400668E+02 -0.18124750594E+03  0.18261118279E+03  0.00000000000E+00 0.  1.
        -13    1    4    4    0    0  0.36219054079E+02 -0.46592281222E+01 -0.10516220624E+03  0.11132213575E+03  0.00000000000E+00 0.  1.
         13    1    4    4    0    0 -0.46104207196E+02  0.10261079222E+03 -0.57688997286E+03  0.58775557282E+03  0.00000000000E+00 0. -1.
          2    1    1    2  501    0 -0.98722416029E+02 -0.12006265992E+03 -0.70055651911E+03  0.71759361355E+03  0.00000000000E+00 0. -1.
<scales pt_clust_5="13000.00000" pt_clust_6="13000.00000" pt_clust_7="13000.00000" pt_clust_8="13000.00000" pt_clust_9="117.30491"></scales>
<clustering>
<clus scale="   79.605">  5  6 -1 -1</clus>
<clus scale="  117.568">  7  8 -1 -1</clus>
<clus scale="  136.460">  2  5  1 -1</clus>
<clus scale="  117.305">  1  9  2 -1</clus>
<clus scale="  117.305">  1  5  2 -1</clus>
</clustering>
</event>
<event>
 9    1  0.6270443E-005  0.1697647E+03  0.7546771E-02  0.1180063E+00
         21   -1    0    0  501  502  0.00000000000E+00  0.00000000000E+00  0.20052562355E+03  0.20052562355E+03  0.00000000000E+00 0.  1.
         -2   -1    0    0    0  501 -0.00000000000E+00 -0.00000000000E+00 -0.50412901841E+03  0.50412901841E+03  0.00000000000E+00 0.  1.
        -24    2    1    2    0    0  0.20199221832E+02  0.14614643699E+03 -0.34865237653E+03  0.38670241140E+03  0.78825666584E+02 0.  0.
         23    2    1    2    0    0 -0.70235553436E+02 -0.11558338305E+03 -0.77916554701E+02  0.18172353356E+03  0.93058593105E+02 0.  0.
         13    1    3    3    0    0  0.29664975817E+02  0.51903129122E+02 -0.68228119854E+02  0.90713956709E+02  0.00000000000E+00 0. -1.
        -14    1    3    3    0    0 -0.94657539854E+01  0.94243307871E+02 -0.28042425668E+03  0.29598845469E+03  0.00000000000E+00 0.  1.
        -11    1    4    4    0    0 -0.11594145304E+02 -0.10192964916E+03 -0.37592192671E+02  0.10925772528E+03  0.00000000000E+00 0.  1.
         11    1    4    4    0    0 -0.58641408132E+02 -0.13653733884E+02 -0.40324362029E+02  0.72465808281E+02  0.00000000000E+00 0. -1.
         -1    1    1    2    0  502  0.50036331605E+02 -0.30563053947E+02  0.12296553638E+03  0.13622869699E+03  0.00000000000E+00 0.  1.
<scales pt_clust_5="13000.00000" pt_clust_6="13000.00000" pt_clust_7="13000.00000" pt_clust_8="13000.00000" pt_clust_9="58.63220"></scales>
<clustering>
<clus scale="   58.632">  1  9  2 -1</clus>
<clus scale="   78.826">  5  6 -1 -1</clus>
<clus scale="   93.059">  7  8 -1 -1</clus>
<clus scale="  162.400">  2  5  1 -1</clus>
<clus scale="   58.632">  1  5  2 -1</clus>
</clustering>
</event>
<event>
 9    1  0.6270443E-005  0.9654880E+02  0.7546771E-02  0.1294231E+00
         21   -1    0    0  501  502  0.00000000000E+00  0.00000000000E+00  0.25135103666E+03  0.25135103666E+03  0.00000000000E+00 0.  1.
          1   -1    0    0  502    0 -0.00000000000E+00 -0.00000000000E+00 -0.12922743191E+03  0.12922743191E+03  0.00000000000E+00 0. -1.
         23    2    1    2    0    0  0.86799982033E+00 -0.35371675385E+02 -0.80597909600E+02  0.12423390387E+03  0.87670582263E+02 0.  0.
        -24    2    1    2    0    0  0.27974286107E+02  0.69904174218E+02  0.10904699641E+03  0.15242495037E+03  0.75319080006E+02 0.  0.
         11    1    4    4    0    0 -0.22616741299E+02  0.20113760170E+02  0.56544098593E+02  0.64135134060E+02  0.00000000000E+00 0. -1.
        -12    1    4    4    0    0  0.50591027406E+02  0.49790414048E+02  0.52502897820E+02  0.88289816313E+02  0.00000000000E+00 0.  1.
        -13    1    3    3    0    0  0.41901025898E+02 -0.17728642391E+02 -0.21952664512E+02  0.50516534041E+02  0.00000000000E+00 0.  1.
         13    1    3    3    0    0 -0.41033026078E+02 -0.17643032995E+02 -0.58645245088E+02  0.73717369824E+02  0.00000000000E+00 0. -1.
          2    1    1    2  501    0 -0.28842285927E+02 -0.34532498833E+02  0.93674517937E+02  0.10391961434E+03  0.00000000000E+00 0. -1.
<scales pt_clust_5="13000.00000" pt_clust_6="13000.00000" pt_clust_7="13000.00000" pt_clust_8="13000.00000" pt_clust_9="44.99301"></scales>
<clustering>
<clus scale="   44.993">  1  9  2 -1</clus>
<clus scale="   75.319">  5  6 -1 -1</clus>
<clus scale="   85.490">  1  5  2 -1</clus>
<clus scale="   87.671">  7  8 -1 -1</clus>
<clus scale="   44.993">  1  5  2 -1</clus>
</clustering>
</event>
<event>
 9    1  0.6270443E-005  0.1249039E+03  0.7546771E-02  0.1238234E+00
          1   -1    0    0  502    0 -0.00000000000E+00  0.00000000000E+00  0.14730743922E+03  0.14730743922E+03  0.00000000000E+00 0. -1.
         21   -1    0    0  501  502  0.00000000000E+00 -0.00000000000E+00 -0.17059106590E+03  0.17059106590E+03  0.00000000000E+00 0.  1.
        -24    2    1    2    0    0  0.37188560176E+02 -0.62398395127E+02 -0.14467860004E+02  0.10811863422E+03  0.78764023329E+02 0.  0.
         23    2    1    2    0    0 -0.93126815338E+02  0.65044328059E+02 -0.33710585708E+02  0.14849495133E+03  0.89504070490E+02 0.  0.
         11    1    3    3    0    0  0.15454275438E+02 -0.15958696925E+02  0.31977154703E+02  0.38936526036E+02  0.00000000000E+00 0. -1.
        -12    1    3    3    0    0  0.21734284738E+02 -0.46439698203E+02 -0.46445014707E+02  0.69182108188E+02  0.00000000000E+00 0.  1.
        -11    1    4    4    0    0 -0.71177520074E+02  0.31394327104E+01  0.64021644277E+01  0.71533789995E+02  0.00000000000E+00 0. -1.
         11    1    4    4    0    0 -0.21949295264E+02  0.61904895348E+02 -0.40112750136E+02  0.76961161336E+02  0.00000000000E+00 0.  1.
          2    1    1    2  501    0  0.55938255162E+02 -0.26459329319E+01  0.24894819034E+02  0.61284919567E+02  0.00000000000E+00 0. -1.
<scales pt_clust_5="13000.00000" pt_clust_6="13000.00000" pt_clust_7="13000.00000" pt_clust_8="13000.00000" pt_clust_9="56.00083"></scales>
<clustering>
<clus scale="   56.001">  2  9  1 -1</clus>
<clus scale="   78.764">  5  6 -1 -1</clus>
<clus scale="   89.504">  7  8 -1 -1</clus>
<clus scale="  117.447">  1  5  2 -1</clus>
<clus scale="   56.001">  2  5  1 -1</clus>
</clustering>
</event>
<event>
 9    1  0.6270443E-005  0.1889397E+03  0.7546771E-02  0.1160471E+00
          1   -1    0    0  502    0 -0.00000000000E+00  0.00000000000E+00  0.11429240224E+04  0.11429240224E+04  0.00000000000E+00 0. -1.
         21   -1    0    0  501  502  0.00000000000E+00 -0.00000000000E+00 -0.14053396079E+03  0.14053396079E+03  0.00000000000E+00 0. -1.
         23    2    1    2    0    0  0.13161451372E+02  0.19841755878E+03  0.87366997116E+03  0.90053741915E+03  0.90142516949E+02 0.  0.
        -24    2    1    2    0    0 -0.81086152967E+02 -0.93847326967E+02  0.19269735961E+03  0.24277139553E+03  0.80146073547E+02 0.  0.
         11    1    4    4    0    0 -0.82663355410E+02 -0.40247663117E+02  0.10127611334E+03  0.13678434065E+03  0.00000000000E+00 0. -1.
        -12    1    4    4    0    0  0.15772024430E+01 -0.53599663850E+02  0.91421246271E+02  0.10598705488E+03  0.00000000000E+00 0.  1.
        -11    1    3    3    0    0 -0.39248668765E+01  0.88636342827E+02  0.21539515006E+03  0.23295251988E+03  0.00000000000E+00 0.  1.
         11    1    3    3    0    0  0.17086318248E+02  0.10978121595E+03  0.65827482110E+03  0.66758489927E+03  0.00000000000E+00 0. -1.
          2    1    1    2  501    0  0.67924701595E+02 -0.10457023181E+03 -0.63977269148E+02  0.14014916852E+03  0.00000000000E+00 0. -1.
<scales pt_clust_5="13000.00000" pt_clust_6="13000.00000" pt_clust_7="13000.00000" pt_clust_8="13000.00000" pt_clust_9="124.69442"></scales>
<clustering>
<clus scale="   80.146">  5  6 -1 -1</clus>
<clus scale="   90.143">  7  8 -1 -1</clus>
<clus scale="  124.694">  2  9  1 -1</clus>
<clus scale="  184.380">  2  5  1 -1</clus>
<clus scale="  124.694">  2  5  1 -1</clus>
</clustering>
</event>
<event>
 9    1  0.6270443E-005  0.9770729E+02  0.7546771E-02  0.1291367E+00
         -2   -1    0    0    0  501 -0.00000000000E+00  0.00000000000E+00  0.14398214894E+03  0.14398214894E+03  0.00000000000E+00 0.  1.
         21   -1    0    0  501  502  0.00000000000E+00 -0.00000000000E+00 -0.14276924633E+03  0.14276924633E+03  0.00000000000E+00 0.  1.
        -24    2    1    2    0    0  0.33603001221E+02 -0.28480508660E+02  0.73222537100E+02  0.11821849772E+03  0.81693158824E+02 0.  0.
         23    2    1    2    0    0  0.99586373013E+01 -0.96339860863E+01 -0.38160683474E+02  0.10148006357E+03  0.93005254654E+02 0.  0.
         11    1    3    3    0    0 -0.20157468146E+02  0.12497485120E+02  0.10262625868E+02  0.25842448532E+02  0.00000000000E+00 0. -1.
        -12    1    3    3    0    0  0.53760469367E+02 -0.40977993780E+02  0.62959911232E+02  0.92376049186E+02  0.00000000000E+00 0.  1.
        -13    1    4    4    0    0  0.49971364127E+02 -0.15612984571E+02 -0.29548170102E+02  0.60116527480E+02  0.00000000000E+00 0.  1.
         13    1    4    4    0    0 -0.40012726826E+02  0.59789984848E+01 -0.86125133727E+01  0.41363536086E+02  0.00000000000E+00 0. -1.
         -1    1    1    2    0  502 -0.43561638522E+02  0.38114494746E+02 -0.33848951013E+02  0.67052833983E+02  0.00000000000E+00 0.  1.
<scales pt_clust_5="13000.00000" pt_clust_6="13000.00000" pt_clust_7="13000.00000" pt_clust_8="13000.00000" pt_clust_9="57.88204"></scales>
<clustering>
<clus scale="   57.882">  2  9  1 -1</clus>
<clus scale="   81.693">  5  6 -1 -1</clus>
<clus scale="   87.009">  1  5  2 -1</clus>
<clus scale="   93.005">  7  8 -1 -1</clus>
<clus scale="   57.882">  2  5  1 -1</clus>
</clustering>
</event>
<event>
 9    1  0.6270443E-005  0.1780160E+03  0.7546771E-02  0.1204704E+00
         21   -1    0    0  501  502  0.00000000000E+00  0.00000000000E+00  0.22944224115E+03  0.22944224115E+03  0.00000000000E+00 0. -1.
          1   -1    0    0  502    0 -0.00000000000E+00 -0.00000000000E+00 -0.19059530266E+03  0.19059530266E+03  0.00000000000E+00 0. -1.
        -24    2    1    2    0    0  0.79435235363E+01 -0.89820193364E+01 -0.18284450343E+01  0.81915475659E+02  0.81012503379E+02 0.  0.
         23    2    1    2    0    0  0.86049162687E+02 -0.11695222771E+03 -0.12695339447E+02  0.17216275472E+03  0.91632747975E+02 0.  0.
         13    1    3    3    0    0 -0.30981160100E+02 -0.24930937489E+02  0.71746985272E+00  0.39773090000E+02  0.00000000000E+00 0. -1.
        -14    1    3    3    0    0  0.38924683636E+02  0.15948918153E+02 -0.25459148870E+01  0.42142385659E+02  0.00000000000E+00 0.  1.
        -11    1    4    4    0    0  0.84753049486E+02 -0.39803544321E+02 -0.15715594096E+02  0.94944096370E+02  0.00000000000E+00 0. -1.
         11    1    4    4    0    0  0.12961132012E+01 -0.77148683393E+02  0.30202546496E+01  0.77218658347E+02  0.00000000000E+00 0.  1.
          2    1    1    2  501    0 -0.93992686223E+02  0.12593424705E+03  0.53370722968E+02  0.16595931343E+03  0.00000000000E+00 0. -1.
<scales pt_clust_5="13000.00000" pt_clust_6="13000.00000" pt_clust_7="13000.00000" pt_clust_8="13000.00000" pt_clust_9="152.62083"></scales>
<clustering>
<clus scale="   81.013">  5  6 -1 -1</clus>
<clus scale="   81.895">  2  5  1 -1</clus>
<clus scale="   91.633">  7  8 -1 -1</clus>
<clus scale="  152.621">  1  9  2 -1</clus>
<clus scale="  152.621">  1  5  2 -1</clus>
</clustering>
</event>
<event>
 9    1  0.6270443E-005  0.9540143E+02  0.7546771E-02  0.1295290E+00
          1   -1    0    0  502    0 -0.00000000000E+00  0.00000000000E+00  0.36242478833E+03  0.36242478833E+03  0.00000000000E+00 0. -1.
         21   -1    0    0  501  502  0.00000000000E+00 -0.00000000000E+00 -0.54891431835E+02  0.54891431835E+02  0.00000000000E+00 0.  1.
         23    2    1    2    0    0  0.27181209382E+02 -0.12467310721E+02  0.27369965482E+03  0.29029124098E+03  0.91995932291E+02 0.  0.
        -24    2    1    2    0    0 -0.11442267157E+01  0.20128443563E+02  0.46178046567E+02  0.97208871570E+02  0.83130555346E+02 0.  0.
         11    1    4    4    0    0 -0.29546652988E+02 -0.20502315718E+02  0.18985115311E+02  0.40666746316E+02  0.00000000000E+00 0. -1.
        -12    1    4    4    0    0  0.28402426272E+02  0.40630759281E+02  0.27192931256E+02  0.56542125254E+02  0.00000000000E+00 0.  1.
        -13    1    3    3    0    0 -0.65480257869E+01  0.26478538974E+02  0.27405016367E+02  0.38665547843E+02  0.00000000000E+00 0.  1.
         13    1    3    3    0    0  0.33729235168E+02 -0.38945849695E+02  0.24629463846E+03  0.25162569313E+03  0.00000000000E+00 0. -1.
          2    1    1    2  501    0 -0.26036982666E+02 -0.76611328425E+01 -0.12344344893E+02  0.29816107620E+02  0.00000000000E+00 0. -1.
<scales pt_clust_5="13000.00000" pt_clust_6="13000.00000" pt_clust_7="13000.00000" pt_clust_8="13000.00000" pt_clust_9="27.14070"></scales>
<clustering>
<clus scale="   27.141">  2  9  1 -1</clus>
<clus scale="   83.131">  5  6 -1 -1</clus>
<clus scale="   86.884">  2  5  1 -1</clus>
<clus scale="   91.996">  7  8 -1 -1</clus>
<clus scale="   27.141">  2  5  1 -1</clus>
</clustering>
</event>
<event>
 9    1  0.6270443E-005  0.1993610E+03  0.7546771E-02  0.1175881E+00
          1   -1    0    0  502    0 -0.00000000000E+00  0.00000000000E+00  0.11719883858E+04  0.11719883858E+04  0.00000000000E+00 0. -1.
         21   -1    0    0  501  502  0.00000000000E+00 -0.00000000000E+00 -0.82436212566E+02  0.82436212566E+02  0.00000000000E+00 0. -1.
        -24    2    1    2    0    0  0.10385198548E+02  0.67763055796E+02  0.45121665210E+03  0.46447885318E+03  0.86281248447E+02 0.  0.
         23    2    1    2    0    0 -0.18500669383E+03 -0.47883114205E+02  0.55746466873E+03  0.59648263900E+03  0.92219370810E+02 0.  0.
         11    1    3    3    0    0  0.20621494160E+02  0.79282292558E+02  0.25902843477E+03  0.27167380800E+03  0.00000000000E+00 0. -1.
        -12    1    3    3    0    0 -0.10236295612E+02 -0.11519236762E+02  0.19218821733E+03  0.19280504517E+03  0.00000000000E+00 0.  1.
        -13    1    4    4    0    0 -0.11316889768E+02 -0.25293072002E+02  0.15645923117E+03  0.15889399770E+03  0.00000000000E+00 0.  1.
         13    1    4    4    0    0 -0.17368980406E+03 -0.22590042203E+02  0.40100543756E+03  0.43758864130E+03  0.00000000000E+00 0. -1.
          2    1    1    2  501    0  0.17462149528E+03 -0.19879941591E+02  0.80870852411E+02  0.19346310620E+03  0.00000000000E+00 0. -1.
<scales pt_clust_5="13000.00000" pt_clust_6="13000.00000" pt_clust_7="13000.00000" pt_clust_8="13000.00000" pt_clust_9="176.74956"></scales>
<clustering>
<clus scale="   86.281">  5  6 -1 -1</clus>
<clus scale="   92.219">  7  8 -1 -1</clus>
<clus scale="  110.200">  1  5  2 -1</clus>
<clus scale="  176.750">  2  9  1 -1</clus>
<clus scale="  176.750">  2  5  1 -1</clus>
</clustering>
</event>
<event>
 9    1  0.6270443E-005  0.1063940E+03  0.7546771E-02  0.1272253E+00
         21   -1    0    0  501  502  0.00000000000E+00  0.00000000000E+00  0.10285423737E+03  0.10285423737E+03  0.00000000000E+00 0. -1.
          3   -1    0    0  502    0 -0.00000000000E+00 -0.00000000000E+00 -0.32597549044E+03  0.32597549044E+03  0.00000000000E+00 0. -1.
        -24    2    1    2    0    0 -0.18144673162E+02 -0.54322179816E+02 -0.20871972466E+03  0.23069160435E+03  0.79840869668E+02 0.  0.
         23    2    1    2    0    0 -0.26664370603E+02  0.45112616797E+02  0.52146929090E+02  0.11738316295E+03  0.91177672024E+02 0.  0.
         11    1    3    3    0    0 -0.23685561051E+02 -0.58943789999E+02 -0.21302129073E+03  0.22229135495E+03  0.00000000000E+00 0. -1.
        -12    1    3    3    0    0  0.55408878889E+01  0.46216101834E+01  0.43015660679E+01  0.84002493964E+01  0.00000000000E+00 0.  1.
        -13    1    4    4    0    0 -0.45057252695E+02 -0.10173688195E+02  0.16350473834E+02  0.48999979046E+02  0.00000000000E+00 0.  1.
         13    1    4    4    0    0  0.18392882092E+02  0.55286304992E+02  0.35796455256E+02  0.68383183899E+02  0.00000000000E+00 0. -1.
          4    1    1    2  501    0  0.44809043765E+02  0.92095630190E+01 -0.66548457496E+02  0.80754960524E+02  0.00000000000E+00 0. -1.
<scales pt_clust_5="13000.00000" pt_clust_6="13000.00000" pt_clust_7="13000.00000" pt_clust_8="13000.00000" pt_clust_9="45.74569"></scales>
<clustering>
<clus scale="   45.746">  1  9  2 -1</clus>
<clus scale="   79.841">  5  6 -1 -1</clus>
<clus scale="   91.178">  7  8 -1 -1</clus>
<clus scale="   96.855">  2  5  1 -1</clus>
<clus scale="   45.746">  1  5  2 -1</clus>
</clustering>
</event>
<event>
 9    1  0.6270443E-005  0.1038979E+03  0.7546771E-02  0.1276078E+00
          1   -1    0    0  502    0 -0.00000000000E+00  0.00000000000E+00  0.94928881826E+03  0.94928881826E+03  0.00000000000E+00 0. -1.
         21   -1    0    0  501  502  0.00000000000E+00 -0.00000000000E+00 -0.14996981968E+02  0.14996981968E+02  0.00000000000E+00 0.  1.
         23    2    1    2    0    0 -0.30557527037E+01 -0.56965210643E+02  0.49740490539E+03  0.50880328719E+03  0.90635381022E+02 0.  0.
        -24    2    1    2    0    0  0.28292669413E+02  0.38001827578E+02  0.28600625583E+03  0.30133488908E+03  0.82210236377E+02 0.  0.
         11    1    4    4    0    0 -0.23714403922E+02  0.17033491234E+02  0.16997093958E+03  0.17246052615E+03  0.00000000000E+00 0. -1.
        -12    1    4    4    0    0  0.52007073335E+02  0.20968336344E+02  0.11603531625E+03  0.12887436294E+03  0.00000000000E+00 0.  1.
        -11    1    3    3    0    0  0.36813668233E+02 -0.13984370848E+01  0.22186464259E+03  0.22490247092E+03  0.00000000000E+00 0.  1.
         11    1    3    3    0    0 -0.39869420937E+02 -0.55566773558E+02  0.27554026281E+03  0.28390081627E+03  0.00000000000E+00 0. -1.
          2    1    1    2  501    0 -0.25236916709E+02  0.18963383065E+02  0.15088067507E+03  0.15414762396E+03  0.00000000000E+00 0. -1.
<scales pt_clust_5="13000.00000" pt_clust_6="13000.00000" pt_clust_7="13000.00000" pt_clust_8="13000.00000" pt_clust_9="31.56759"></scales>
<clustering>
<clus scale="   31.568">  2  9  1 -1</clus>
<clus scale="   82.210">  5  6 -1 -1</clus>
<clus scale="   90.635">  7  8 -1 -1</clus>
<clus scale="   96.636">  2  5  1 -1</clus>
<clus scale="   31.568">  2  5  1 -1</clus>
</clustering>
</event>
<event>
 9    1  0.6270443E-005  0.1405673E+03  0.7546771E-02  0.1215061E+00
          3   -1    0    0  502    0 -0.00000000000E+00  0.00000000000E+00  0.60287735486E+03  0.60287735486E+03  0.00000000000E+00 0. -1.
         21   -1    0    0  501  502  0.00000000000E+00 -0.00000000000E+00 -0.53232163253E+02  0.53232163253E+02  0.00000000000E+00 0. -1.
         23    2    1    2    0    0 -0.10604069526E+03 -0.80986741172E+02  0.35324416638E+03  0.38866893675E+03  0.92079422337E+02 0.  0.
        -24    2    1    2    0    0  0.45865984973E+02  0.65959220189E+02  0.15720869124E+03  0.19407259660E+03  0.80593379655E+02 0.  0.
         13    1    4    4    0    0  0.46282987344E+02  0.83622010531E+02  0.13912014844E+03  0.16878735517E+03  0.00000000000E+00 0. -1.
        -14    1    4    4    0    0 -0.41700237062E+00 -0.17662790342E+02  0.18088542804E+02  0.25285241435E+02  0.00000000000E+00 0.  1.
        -13    1    3    3    0    0 -0.11747381060E+03 -0.54541925046E+02  0.31650842635E+03  0.34198318922E+03  0.00000000000E+00 0. -1.
         13    1    3    3    0    0  0.11433115340E+02 -0.26444816127E+02  0.36735740032E+02  0.46685747526E+02  0.00000000000E+00 0.  1.
          4    1    1    2  501    0  0.60174710283E+02  0.15027520984E+02  0.39192333985E+02  0.73367984760E+02  0.00000000000E+00 0. -1.
<scales pt_clust_5="13000.00000" pt_clust_6="13000.00000" pt_clust_7="13000.00000" pt_clust_8="13000.00000" pt_clust_9="62.02276"></scales>
<clustering>
<clus scale="   62.023">  2  9  1 -1</clus>
<clus scale="   80.593">  5  6 -1 -1</clus>
<clus scale="   92.079">  7  8 -1 -1</clus>
<clus scale="  133.326">  2  5  1 -1</clus>
<clus scale="   62.023">  2  5  1 -1</clus>
</clustering>
</event>
<event>
 9    1  0.6270443E-005  0.1580105E+03  0.7546771E-02  0.1192827E+00
          1   -1    0    0  502    0 -0.00000000000E+00  0.00000000000E+00  0.41894240360E+03  0.41894240360E+03  0.00000000000E+00 0. -1.
         21   -1    0    0  501  502  0.00000000000E+00 -0.00000000000E+00 -0.24796928585E+03  0.24796928585E+03  0.00000000000E+00 0.  1.
         23    2    1    2    0    0 -0.44033536036E+02  0.12585293885E+03  0.33434796138E+03  0.37133555470E+03  0.91233877418E+02 0.  0.
        -24    2    1    2    0    0  0.81624672655E+02 -0.58292513549E+02 -0.17552909363E+03  0.21731228350E+03  0.79709231147E+02 0.  0.
         13    1    4    4    0    0  0.76874601430E+00 -0.44245238399E+02 -0.79558984465E+02  0.91037707026E+02  0.00000000000E+00 0. -1.
        -14    1    4    4    0    0  0.80855926640E+02 -0.14047275150E+02 -0.95970109164E+02  0.12627457648E+03  0.00000000000E+00 0.  1.
        -11    1    3    3    0    0 -0.42556295391E+02  0.67951729762E+02  0.28230185758E+03  0.29346688850E+03  0.00000000000E+00 0. -1.
         11    1    3    3    0    0 -0.14772406455E+01  0.57901209092E+02  0.52046103808E+02  0.77868666200E+02  0.00000000000E+00 0.  1.
          2    1    1    2  501    0 -0.37591136618E+02 -0.67560425305E+02  0.12154249997E+02  0.78263851251E+02  0.00000000000E+00 0. -1.
<scales pt_clust_5="13000.00000" pt_clust_6="13000.00000" pt_clust_7="13000.00000" pt_clust_8="13000.00000" pt_clust_9="77.31432"></scales>
<clustering>
<clus scale="   77.314">  2  9  1 -1</clus>
<clus scale="   79.709">  5  6 -1 -1</clus>
<clus scale="   91.234">  7  8 -1 -1</clus>
<clus scale="  151.649">  2  5  1 -1</clus>
<clus scale="   77.314">  2  5  1 -1</clus>
</clustering>
</event>
<event>
 9    1  0.6270443E-005  0.2544740E+03  0.7546771E-02  0.1110713E+00
         21   -1    0    0  501  502  0.00000000000E+00  0.00000000000E+00  0.47425771857E+02  0.47425771857E+02  0.00000000000E+00 0. -1.
          1   -1    0    0  502    0 -0.00000000000E+00 -0.00000000000E+00 -0.17525420877E+04  0.17525420877E+04  0.00000000000E+00 0. -1.
        -24    2    1    2    0    0 -0.21479931647E+03  0.15142265766E+02 -0.71362256597E+03  0.74972497465E+03  0.80388658214E+02 0.  0.
         23    2    1    2    0    0  0.27384660599E+03 -0.79477779323E+01 -0.80823579847E+03  0.85757264900E+03  0.84442948773E+02 0.  0.
         11    1    3    3    0    0 -0.16636684630E+03  0.24388927584E+01 -0.41809810079E+03  0.44998877501E+03  0.00000000000E+00 0. -1.
        -12    1    3    3    0    0 -0.48432470173E+02  0.12703373008E+02 -0.29552446518E+03  0.29973619964E+03  0.00000000000E+00 0.  1.
        -13    1    4    4    0    0  0.31906234499E+02 -0.24144371618E+02 -0.17456525977E+03  0.17909212266E+03  0.00000000000E+00 0. -1.
         13    1    4    4    0    0  0.24194037149E+03  0.16196593685E+02 -0.63367053871E+03  0.67848052634E+03  0.00000000000E+00 0.  1.
          2    1    1    2  501    0 -0.59047289515E+02 -0.71944878337E+01 -0.18325795135E+03  0.19267023586E+03  0.00000000000E+00 0. -1.
<scales pt_clust_5="13000.00000" pt_clust_6="13000.00000" pt_clust_7="13000.00000" pt_clust_8="13000.00000" pt_clust_9="59.48400"></scales>
<clustering>
<clus scale="   59.484">  1  9  2 -1</clus>
<clus scale="   80.389">  5  6 -1 -1</clus>
<clus scale="   84.443">  7  8 -1 -1</clus>
<clus scale="  253.158">  2  5  1 -1</clus>
<clus scale="   59.484">  1  5  2 -1</clus>
</clustering>
</event>
<event>
 9    1  0.6270443E-005  0.1844964E+03  0.7546771E-02  0.1195724E+00
         21   -1    0    0  501  502  0.00000000000E+00  0.00000000000E+00  0.20968330267E+03  0.20968330267E+03  0.00000000000E+00 0. -1.
          3   -1    0    0  502    0 -0.00000000000E+00 -0.00000000000E+00 -0.25131858931E+03  0.25131858931E+03  0.00000000000E+00 0. -1.
         23    2    1    2    0    0  0.11117923563E+02  0.12114018535E+02  0.44121313726E+02  0.99695346921E+02  0.87875560899E+02 0.  0.
        -24    2    1    2    0    0 -0.92999699674E+02 -0.14788391455E+03 -0.44112396973E+02  0.19737872680E+03  0.80584501656E+02 0.  0.
         13    1    4    4    0    0 -0.76405233820E+02 -0.11237671795E+03 -0.67506012233E+02  0.15173446602E+03  0.00000000000E+00 0. -1.
        -14    1    4    4    0    0 -0.16594465854E+02 -0.35507196598E+02  0.23393615260E+02  0.45644260780E+02  0.00000000000E+00 0.  1.
        -13    1    3    3    0    0  0.34079311981E+02 -0.24497384349E+02  0.36890332764E+02  0.55878600524E+02  0.00000000000E+00 0.  1.
         13    1    3    3    0    0 -0.22961388417E+02  0.36611402884E+02  0.72309809621E+01  0.43816746397E+02  0.00000000000E+00 0. -1.
          4    1    1    2  501    0  0.81881776111E+02  0.13576989601E+03 -0.41644203398E+02  0.16392781826E+03  0.00000000000E+00 0. -1.
<scales pt_clust_5="13000.00000" pt_clust_6="13000.00000" pt_clust_7="13000.00000" pt_clust_8="13000.00000" pt_clust_9="165.96699"></scales>
<clustering>
<clus scale="   80.585">  5  6 -1 -1</clus>
<clus scale="   87.876">  7  8 -1 -1</clus>
<clus scale="   89.401">  2  7  1 -1</clus>
<clus scale="  165.967">  1  9  2 -1</clus>
<clus scale="  165.967">  1  5  2 -1</clus>
</clustering>
</event>
<event>
 9    1  0.6270443E-005  0.1466852E+03  0.7546771E-02  0.1226014E+00
         21   -1    0    0  501  502  0.00000000000E+00  0.00000000000E+00  0.55138516216E+03  0.55138516216E+03  0.00000000000E+00 0.  1.
         -2   -1    0    0    0  501 -0.00000000000E+00 -0.00000000000E+00 -0.79734662028E+02  0.79734662028E+02  0.00000000000E+00 0.  1.
        -24    2    1    2    0    0 -0.24905985344E+02  0.40582078489E+02  0.25383570359E+02  0.96636814547E+02  0.80169414874E+02 0.  0.
         23    2    1    2    0    0 -0.11019224546E+03 -0.75798207476E+02  0.15961122319E+03  0.21563633516E+03  0.55996314678E+02 0.  0.
         13    1    3    3    0    0 -0.24538947764E+02 -0.20380862594E+02  0.12895401549E+02  0.34406843775E+02  0.00000000000E+00 0. -1.
        -14    1    3    3    0    0 -0.36703758092E+00  0.60962941083E+02  0.12488168809E+02  0.62229970772E+02  0.00000000000E+00 0.  1.
        -13    1    4    4    0    0 -0.76559722501E+02 -0.19582728288E+02  0.78664648257E+02  0.11150336875E+03  0.00000000000E+00 0. -1.
         13    1    4    4    0    0 -0.33632522963E+02 -0.56215479189E+02  0.80946574931E+02  0.10413296641E+03  0.00000000000E+00 0.  1.
         -1    1    1    2    0  502  0.13509823081E+03  0.35216128987E+02  0.28665570659E+03  0.31884667448E+03  0.00000000000E+00 0.  1.
<scales pt_clust_5="13000.00000" pt_clust_6="13000.00000" pt_clust_7="13000.00000" pt_clust_8="13000.00000" pt_clust_9="135.57640"></scales>
<clustering>
<clus scale="   55.996">  7  8 -1 -1</clus>
<clus scale="   80.169">  5  6 -1 -1</clus>
<clus scale="   93.243">  2  5  1 -1</clus>
<clus scale="  135.576">  1  9  2 -1</clus>
<clus scale="  135.576">  1  5  2 -1</clus>
</clustering>
</event>
<event>
 9    1  0.7237544E-005  0.1059761E+03  0.7546771E-02  0.1273485E+00
         21   -1    0    0  501  502  0.00000000000E+00  0.00000000000E+00  0.74245762002E+02  0.74245762002E+02  0.00000000000E+00 0. -1.
         -4   -1    0    0    0  501 -0.00000000000E+00 -0.00000000000E+00 -0.50410395351E+03  0.50410395351E+03  0.00000000000E+00 0.  1.
        -24    2    1    2    0    0  0.51804545234E+02  0.11406016087E+01 -0.42684364501E+03  0.43729551000E+03  0.79667144440E+02 0.  0.
         23    2    1    2    0    0 -0.67039114970E+02  0.18716224305E+02  0.34203064027E+01  0.11521251473E+03  0.91747943124E+02 0.  0.
         11    1    3    3    0    0  0.25730017621E+02 -0.28202046781E+02 -0.84679457635E+02  0.92887027053E+02  0.00000000000E+00 0. -1.
        -12    1    3    3    0    0  0.26074527614E+02  0.29342648390E+02 -0.34216418737E+03  0.34440848295E+03  0.00000000000E+00 0.  1.
        -13    1    4    4    0    0 -0.63290206575E+02 -0.26961417810E+02 -0.33946942330E+01  0.68877371085E+02  0.00000000000E+00 0. -1.
         13    1    4    4    0    0 -0.37489083950E+01  0.45677642115E+02  0.68150006357E+01  0.46335143650E+02  0.00000000000E+00 0.  1.
         -3    1    1    2    0  502  0.15234569736E+02 -0.19856825914E+02 -0.64348529048E+01  0.25841690779E+02  0.00000000000E+00 0.  1.
<scales pt_clust_5="13000.00000" pt_clust_6="13000.00000" pt_clust_7="13000.00000" pt_clust_8="13000.00000" pt_clust_9="25.02770"></scales>
<clustering>
<clus scale="   25.028">  1  9  2 -1</clus>
<clus scale="   79.667">  5  6 -1 -1</clus>
<clus scale="   91.748">  7  8 -1 -1</clus>
<clus scale="   95.708">  2  5  1 -1</clus>
<clus scale="   25.028">  1  5  2 -1</clus>
</clustering>
</event>
<event>
 9    1  0.6270443E-005  0.1183149E+03  0.7546771E-02  0.1249310E+00
          1   -1    0    0  502    0 -0.00000000000E+00  0.00000000000E+00  0.11647453669E+03  0.11647453669E+03  0.00000000000E+00 0. -1.
         21   -1    0    0  501  502  0.00000000000E+00 -0.00000000000E+00 -0.17884702519E+03  0.17884702519E+03  0.00000000000E+00 0. -1.
         23    2    1    2    0    0 -0.71261809132E+02 -0.63212381955E+02 -0.10040806954E+02  0.13158783510E+03  0.90224663307E+02 0.  0.
        -24    2    1    2    0    0  0.60148494029E+02  0.11683729283E+02 -0.46284422067E+02  0.11067454129E+03  0.79701038254E+02 0.  0.
         11    1    4    4    0    0  0.67197089577E+02 -0.18002305023E+02 -0.27254220033E+02  0.74714953948E+02  0.00000000000E+00 0. -1.
        -12    1    4    4    0    0 -0.70485955484E+01  0.29686034307E+02 -0.19030202034E+02  0.35959587338E+02  0.00000000000E+00 0.  1.
        -13    1    3    3    0    0 -0.79317539234E+02 -0.13423990662E+02 -0.10656166539E+02  0.81148194316E+02  0.00000000000E+00 0. -1.
         13    1    3    3    0    0  0.80557301022E+01 -0.49788391293E+02  0.61535958557E+00  0.50439640784E+02  0.00000000000E+00 0.  1.
          2    1    1    2  501    0  0.11113315103E+02  0.51528652671E+02 -0.60472594765E+01  0.53059185500E+02  0.00000000000E+00 0. -1.
<scales pt_clust_5="13000.00000" pt_clust_6="13000.00000" pt_clust_7="13000.00000" pt_clust_8="13000.00000" pt_clust_9="52.71348"></scales>
<clustering>
<clus scale="   52.713">  2  9  1 -1</clus>
<clus scale="   79.701">  5  6 -1 -1</clus>
<clus scale="   90.225">  7  8 -1 -1</clus>
<clus scale="  110.500">  2  5  1 -1</clus>
<clus scale="   52.713">  2  5  1 -1</clus>
</clustering>
</event>
<event>
 9    1  0.6270443E-005  0.1490545E+03  0.7546771E-02  0.1203892E+00
          1   -1    0    0  502    0 -0.00000000000E+00  0.00000000000E+00  0.24533225391E+03  0.24533225391E+03  0.00000000000E+00 0. -1.
         21   -1    0    0  501  502  0.00000000000E+00 -0.00000000000E+00 -0.21282888583E+03  0.21282888583E+03  0.00000000000E+00 0. -1.
        -24    2    1    2    0    0 -0.66806936234E+02  0.10442401311E+03  0.12240961968E+03  0.19108690706E+03  0.78501909644E+02 0.  0.
         23    2    1    2    0    0  0.17315797533E+02 -0.95190505058E+02 -0.14223247710E+03  0.19446111847E+03  0.90686161896E+02 0.  0.
         13    1    3    3    0    0 -0.69591846984E+02  0.93845013858E+02  0.67151190108E+02  0.13475605413E+03  0.00000000000E+00 0. -1.
        -14    1    3    3    0    0  0.27849107498E+01  0.10578999251E+02  0.55258429571E+02  0.56330852929E+02  0.00000000000E+00 0.  1.
        -13    1    4    4    0    0 -0.10112885347E+02 -0.86490357335E+02 -0.55945272948E+02  0.10350229914E+03  0.00000000000E+00 0. -1.
         13    1    4    4    0    0  0.27428682880E+02 -0.87001477235E+01 -0.86287204147E+02  0.90958819333E+02  0.00000000000E+00 0.  1.
          2    1    1    2  501    0  0.49491138701E+02 -0.92335080508E+01  0.52326225490E+02  0.72613114207E+02  0.00000000000E+00 0. -1.
<scales pt_clust_5="13000.00000" pt_clust_6="13000.00000" pt_clust_7="13000.00000" pt_clust_8="13000.00000" pt_clust_9="50.34514"></scales>
<clustering>
<clus scale="   50.345">  2  9  1 -1</clus>
<clus scale="   78.502">  5  6 -1 -1</clus>
<clus scale="   90.686">  7  8 -1 -1</clus>
<clus scale="  141.971">  1  5  2 -1</clus>
<clus scale="   50.345">  2  5  1 -1</clus>
</clustering>
</event>
<event>
 9    1  0.6270443E-005  0.1605241E+03  0.7546771E-02  0.1196313E+00
          3   -1    0    0  502    0 -0.00000000000E+00  0.00000000000E+00  0.99609687915E+02  0.99609687915E+02  0.00000000000E+00 0. -1.
         21   -1    0    0  501  502  0.00000000000E+00 -0.00000000000E+00 -0.51196427692E+03  0.51196427692E+03  0.00000000000E+00 0. -1.
         23    2    1    2    0    0  0.83283609955E+02  0.54693742125E+02 -0.97149888049E+02  0.16550903243E+03  0.89596729591E+02 0.  0.
        -24    2    1    2    0    0  0.48686441334E+02 -0.13225940762E+03 -0.15223298959E+03  0.22247534050E+03  0.80358406765E+02 0.  0.
         11    1    4    4    0    0  0.46995913812E+02 -0.41625866263E+02 -0.99363964768E+02  0.11753521239E+03  0.00000000000E+00 0. -1.
        -12    1    4    4    0    0  0.16905275213E+01 -0.90633541359E+02 -0.52869024824E+02  0.10494012811E+03  0.00000000000E+00 0.  1.
        -11    1    3    3    0    0  0.96236174691E+02  0.36473339989E+02 -0.52404431838E+02  0.11548995768E+03  0.00000000000E+00 0.  1.
         11    1    3    3    0    0 -0.12952564735E+02  0.18220402136E+02 -0.44745456211E+02  0.50019074749E+02  0.00000000000E+00 0. -1.
          4    1    1    2  501    0 -0.13197005129E+03  0.77565665497E+02 -0.16297171136E+03  0.22358959190E+03  0.00000000000E+00 0. -1.
<scales pt_clust_5="13000.00000" pt_clust_6="13000.00000" pt_clust_7="13000.00000" pt_clust_8="13000.00000" pt_clust_9="138.96232"></scales>
<clustering>
<clus scale="   80.358">  5  6 -1 -1</clus>
<clus scale="   89.597">  7  8 -1 -1</clus>
<clus scale="  133.997">  1  7  2 -1</clus>
<clus scale="  138.962">  2  9  1 -1</clus>
<clus scale="  138.962">  2  5  1 -1</clus>
</clustering>
</event>
<event>
 9    1  0.6270443E-005  0.1015276E+03  0.7546771E-02  0.1280445E+00
         21   -1    0    0  501  502  0.00000000000E+00  0.00000000000E+00  0.41218966211E+03  0.41218966211E+03  0.00000000000E+00 0. -1.
          3   -1    0    0  502    0 -0.00000000000E+00 -0.00000000000E+00 -0.10833355995E+03  0.10833355995E+03  0.00000000000E+00 0. -1.
         23    2    1    2    0    0  0.46838381481E+02 -0.10679178688E+02 -0.52237530220E+02  0.11384745339E+03  0.89020246250E+02 0.  0.
        -24    2    1    2    0    0 -0.63153483100E+02 -0.62846671020E+02  0.21194215591E+03  0.24403542533E+03  0.81827531288E+02 0.  0.
         11    1    4    4    0    0 -0.81997748113E+02 -0.52463895672E+02  0.18891815459E+03  0.21252331679E+03  0.00000000000E+00 0. -1.
        -12    1    4    4    0    0  0.18844265013E+02 -0.10382775348E+02  0.23024001321E+02  0.31512108540E+02  0.00000000000E+00 0.  1.
        -11    1    3    3    0    0  0.55893239617E+02 -0.40407183693E+02 -0.43592135738E+02  0.81590863625E+02  0.00000000000E+00 0. -1.
         11    1    3    3    0    0 -0.90548581366E+01  0.29728005005E+02 -0.86453944822E+01  0.32256589764E+02  0.00000000000E+00 0.  1.
          4    1    1    2  501    0  0.16315101619E+02  0.73525849708E+02  0.14415147647E+03  0.16264034335E+03  0.00000000000E+00 0. -1.
<scales pt_clust_5="13000.00000" pt_clust_6="13000.00000" pt_clust_7="13000.00000" pt_clust_8="13000.00000" pt_clust_9="75.31423"></scales>
<clustering>
<clus scale="   75.314">  1  9  2 -1</clus>
<clus scale="   81.828">  5  6 -1 -1</clus>
<clus scale="   89.020">  7  8 -1 -1</clus>
<clus scale="   95.284">  1  5  2 -1</clus>
<clus scale="   75.314">  1  5  2 -1</clus>
</clustering>
</event>
<event>
 9    1  0.6270443E-005  0.9452570E+02  0.7546771E-02  0.1294931E+00
          1   -1    0    0  502    0 -0.00000000000E+00  0.00000000000E+00  0.51347043781E+02  0.51347043781E+02  0.00000000000E+00 0. -1.
         21   -1    0    0  501  502  0.00000000000E+00 -0.00000000000E+00 -0.40340724254E+03  0.40340724254E+03  0.00000000000E+00 0. -1.
        -24    2    1    2    0    0  0.33482090235E+02 -0.18130806455E+02 -0.13526004614E+03  0.16393490573E+03  0.84436939350E+02 0.  0.
         23    2    1    2    0    0  0.16971494504E+02  0.42569897877E+02 -0.21197814669E+03  0.23455140441E+03  0.89327480687E+02 0.  0.
         13    1    3    3    0    0  0.49460499267E+02 -0.35327430782E+01 -0.13327557351E+03  0.14220126496E+03  0.00000000000E+00 0. -1.
        -14    1    3    3    0    0 -0.15978409032E+02 -0.14598063377E+02 -0.19844726260E+01  0.21733640771E+02  0.00000000000E+00 0.  1.
        -11    1    4    4    0    0  0.38737598880E+02 -0.48821767499E+01 -0.44873660320E+02  0.59481783828E+02  0.00000000000E+00 0. -1.
         11    1    4    4    0    0 -0.21766104376E+02  0.47452074627E+02 -0.16710448636E+03  0.17506962058E+03  0.00000000000E+00 0.  1.
          2    1    1    2  501    0 -0.50453584739E+02 -0.24439091421E+02 -0.48220059363E+01  0.56267976183E+02  0.00000000000E+00 0. -1.
<scales pt_clust_5="13000.00000" pt_clust_6="13000.00000" pt_clust_7="13000.00000" pt_clust_8="13000.00000" pt_clust_9="56.06101"></scales>
<clustering>
<clus scale="   56.061">  2  9  1 -1</clus>
<clus scale="   84.437">  5  6 -1 -1</clus>
<clus scale="   89.327">  7  8 -1 -1</clus>
<clus scale="   89.918">  1  5  2 -1</clus>
<clus scale="   56.061">  2  5  1 -1</clus>
</clustering>
</event>
<event>
 9    1  0.6270443E-005  0.1451425E+03  0.7546771E-02  0.1210671E+00
          3   -1    0    0  502    0 -0.00000000000E+00  0.00000000000E+00  0.21032942876E+03  0.21032942876E+03  0.00000000000E+00 0. -1.
         21   -1    0    0  501  502  0.00000000000E+00 -0.00000000000E+00 -0.17102074118E+03  0.17102074118E+03  0.00000000000E+00 0.  1.
         23    2    1    2    0    0 -0.22385176640E+02  0.97251439802E+02  0.53872891991E+02  0.14957470053E+03  0.97526221446E+02 0.  0.
        -24    2    1    2    0    0  0.28217604748E+02 -0.12366327286E+03 -0.74061118994E+02  0.16641887076E+03  0.78239075453E+02 0.  0.
         11    1    4    4    0    0 -0.57788993803E+01 -0.93576502097E+02 -0.20071640358E+02  0.95879237427E+02  0.00000000000E+00 0. -1.
        -12    1    4    4    0    0  0.33996504128E+02 -0.30086770758E+02 -0.53989478636E+02  0.70539633335E+02  0.00000000000E+00 0.  1.
        -13    1    3    3    0    0  0.19300685374E+01  0.84262506326E+02  0.76565416767E+02  0.11386903961E+03  0.00000000000E+00 0. -1.
         13    1    3    3    0    0 -0.24315245177E+02  0.12988933476E+02 -0.22692524776E+02  0.35705660918E+02  0.00000000000E+00 0.  1.
          4    1    1    2  501    0 -0.58324281080E+01  0.26411833054E+02  0.59496914577E+02  0.65356598650E+02  0.00000000000E+00 0. -1.
<scales pt_clust_5="13000.00000" pt_clust_6="13000.00000" pt_clust_7="13000.00000" pt_clust_8="13000.00000" pt_clust_9="27.04816"></scales>
<clustering>
<clus scale="   27.048">  2  9  1 -1</clus>
<clus scale="   78.239">  5  6 -1 -1</clus>
<clus scale="   97.526">  7  8 -1 -1</clus>
<clus scale="  132.952">  2  5  1 -1</clus>
<clus scale="   27.048">  2  5  1 -1</clus>
</clustering>
</event>
<event>
 9    1  0.6270443E-005  0.1083064E+03  0.7546771E-02  0.1267862E+00
         21   -1    0    0  501  502  0.00000000000E+00  0.00000000000E+00  0.22767095789E+03  0.22767095789E+03  0.00000000000E+00 0. -1.
         -2   -1    0    0    0  501 -0.00000000000E+00 -0.00000000000E+00 -0.19469275513E+03  0.19469275513E+03  0.00000000000E+00 0.  1.
         23    2    1    2    0    0  0.37387833951E+02 -0.46871528023E+02 -0.15045013543E+03  0.18603758961E+03  0.91542073538E+02 0.  0.
        -24    2    1    2    0    0  0.87705228927E+01  0.58661867226E+02  0.11454586719E+03  0.15257410363E+03  0.81485978368E+02 0.  0.
         11    1    4    4    0    0 -0.93632603595E+01  0.57360895897E+02  0.28692102733E+02  0.64816508560E+02  0.00000000000E+00 0. -1.
        -12    1    4    4    0    0  0.18133783252E+02  0.13009713292E+01  0.85853764456E+02  0.87757595072E+02  0.00000000000E+00 0.  1.
        -13    1    3    3    0    0  0.34448905889E+02  0.38312814704E+01 -0.12404301361E+03  0.12879470121E+03  0.00000000000E+00 0.  1.
         13    1    3    3    0    0  0.29389280613E+01 -0.50702809494E+02 -0.26407121822E+02  0.57242888393E+02  0.00000000000E+00 0. -1.
         -1    1    1    2    0  502 -0.46158356843E+02 -0.11790339203E+02  0.68882471002E+02  0.83752019775E+02  0.00000000000E+00 0.  1.
<scales pt_clust_5="13000.00000" pt_clust_6="13000.00000" pt_clust_7="13000.00000" pt_clust_8="13000.00000" pt_clust_9="47.64038"></scales>
<clustering>
<clus scale="   47.640">  1  9  2 -1</clus>
<clus scale="   81.486">  5  6 -1 -1</clus>
<clus scale="   91.542">  7  8 -1 -1</clus>
<clus scale="   99.951">  1  5  2 -1</clus>
<clus scale="   47.640">  1  5  2 -1</clus>
</clustering>
</event>
<event>
 9    1  0.6270443E-005  0.1610442E+03  0.7546771E-02  0.1188904E+00
         -2   -1    0    0    0  501 -0.00000000000E+00  0.00000000000E+00  0.28405928482E+03  0.28405928482E+03  0.00000000000E+00 0.  1.
         21   -1    0    0  501  502  0.00000000000E+00 -0.00000000000E+00 -0.11822324204E+03  0.11822324204E+03  0.00000000000E+00 0.  1.
         23    2    1    2    0    0 -0.57458488030E+02 -0.12962902722E+03  0.15800986824E+03  0.23066080463E+03  0.90178299975E+02 0.  0.
        -24    2    1    2    0    0  0.46440599608E+02  0.10960156984E+03  0.20412230464E+02  0.14552762868E+03  0.81193584435E+02 0.  0.
         13    1    4    4    0    0  0.59691371909E+02  0.11342875708E+03  0.10625685323E+02  0.12861589327E+03  0.00000000000E+00 0. -1.
        -14    1    4    4    0    0 -0.13250772301E+02 -0.38271872413E+01  0.97865451411E+01  0.16911735409E+02  0.00000000000E+00 0.  1.
        -11    1    3    3    0    0 -0.47306899786E+02 -0.11274551108E+02  0.55125689465E+02  0.73511223014E+02  0.00000000000E+00 0. -1.
         11    1    3    3    0    0 -0.10151588244E+02 -0.11835447611E+03  0.10288417877E+03  0.15714958161E+03  0.00000000000E+00 0.  1.
         -1    1    1    2    0  502  0.11017888422E+02  0.20027457384E+02 -0.12586055921E+02  0.26094093550E+02  0.00000000000E+00 0.  1.
<scales pt_clust_5="13000.00000" pt_clust_6="13000.00000" pt_clust_7="13000.00000" pt_clust_8="13000.00000" pt_clust_9="22.85810"></scales>
<clustering>
<clus scale="   22.858">  2  9  1 -1</clus>
<clus scale="   81.194">  5  6 -1 -1</clus>
<clus scale="   90.178">  7  8 -1 -1</clus>
<clus scale="  156.191">  2  5  1 -1</clus>
<clus scale="   22.858">  2  5  1 -1</clus>
</clustering>
</event>
<event>
 9    1  0.6270443E-005  0.1490449E+03  0.7546771E-02  0.1217494E+00
         21   -1    0    0  501  502  0.00000000000E+00  0.00000000000E+00  0.17613961270E+03  0.17613961270E+03  0.00000000000E+00 0. -1.
          1   -1    0    0  502    0 -0.00000000000E+00 -0.00000000000E+00 -0.25976072197E+03  0.25976072197E+03  0.00000000000E+00 0. -1.
         23    2    1    2    0    0  0.14559168523E+01 -0.53380980542E+02 -0.11320425946E+03  0.15524804069E+03  0.91842805920E+02 0.  0.
        -24    2    1    2    0    0  0.66196143562E+02 -0.76057337473E+02 -0.80897299754E+01  0.12982018418E+03  0.81370685653E+02 0.  0.
         11    1    4    4    0    0  0.94556698824E+01 -0.69322359315E+02  0.81012207352E+01  0.70431732701E+02  0.00000000000E+00 0. -1.
        -12    1    4    4    0    0  0.56740473680E+02 -0.67349781580E+01 -0.16190950711E+02  0.59388451479E+02  0.00000000000E+00 0.  1.
        -13    1    3    3    0    0 -0.20592384952E+02 -0.41131402431E+01  0.80762094951E+01  0.22498653303E+02  0.00000000000E+00 0.  1.
         13    1    3    3    0    0  0.22048301804E+02 -0.49267840299E+02 -0.12128046896E+03  0.13274938739E+03  0.00000000000E+00 0. -1.
          2    1    1    2  501    0 -0.67652060415E+02  0.12943831802E+03  0.37672880167E+02  0.15083210981E+03  0.00000000000E+00 0. -1.
<scales pt_clust_5="13000.00000" pt_clust_6="13000.00000" pt_clust_7="13000.00000" pt_clust_8="13000.00000" pt_clust_9="124.87266"></scales>
<clustering>
<clus scale="   81.371">  5  6 -1 -1</clus>
<clus scale="   91.843">  7  8 -1 -1</clus>
<clus scale="  106.239">  2  7  1 -1</clus>
<clus scale="  124.873">  1  9  2 -1</clus>
<clus scale="  124.873">  1  5  2 -1</clus>
</clustering>
</event>
<event>
 9    1  0.6270443E-005  0.1146761E+03  0.7546771E-02  0.1263556E+00
         -2   -1    0    0    0  501 -0.00000000000E+00  0.00000000000E+00  0.32762983774E+03  0.32762983774E+03  0.00000000000E+00 0.  1.
         21   -1    0    0  501  502  0.00000000000E+00 -0.00000000000E+00 -0.13208570545E+03  0.13208570545E+03  0.00000000000E+00 0. -1.
         23    2    1    2    0    0  0.64928429435E+02 -0.31170253495E+02  0.25481217852E+03  0.28044435220E+03  0.92371547080E+02 0.  0.
        -24    2    1    2    0    0 -0.37049829546E+02 -0.11871215901E+01 -0.98125509558E+02  0.12152936464E+03  0.61373216600E+02 0.  0.
         13    1    4    4    0    0 -0.26517474135E+02  0.26493838860E+02 -0.75380915097E+02  0.84186592121E+02  0.00000000000E+00 0. -1.
        -14    1    4    4    0    0 -0.10532355412E+02 -0.27680960450E+02 -0.22744594461E+02  0.37342772516E+02  0.00000000000E+00 0.  1.
        -11    1    3    3    0    0  0.14007598613E+02  0.23672746993E+02  0.14480580144E+03  0.14739515562E+03  0.00000000000E+00 0.  1.
         11    1    3    3    0    0  0.50920830822E+02 -0.54843000488E+02  0.11000637708E+03  0.13304919658E+03  0.00000000000E+00 0. -1.
         -1    1    1    2    0  502 -0.27878599888E+02  0.32357375085E+02  0.38857463324E+02  0.57741826349E+02  0.00000000000E+00 0.  1.
<scales pt_clust_5="13000.00000" pt_clust_6="13000.00000" pt_clust_7="13000.00000" pt_clust_8="13000.00000" pt_clust_9="42.71086"></scales>
<clustering>
<clus scale="   42.711">  2  9  1 -1</clus>
<clus scale="   61.373">  5  6 -1 -1</clus>
<clus scale="   91.568">  2  5  1 -1</clus>
<clus scale="   92.372">  7  8 -1 -1</clus>
<clus scale="   42.711">  2  5  1 -1</clus>
</clustering>
</event>
<event>
 9    1  0.6270443E-005  0.9540131E+02  0.7546771E-02  0.1296506E+00
          1   -1    0    0  502    0 -0.00000000000E+00  0.00000000000E+00  0.11640406770E+04  0.11640406770E+04  0.00000000000E+00 0. -1.
         21   -1    0    0  501  502  0.00000000000E+00 -0.00000000000E+00 -0.23176326315E+02  0.23176326315E+02  0.00000000000E+00 0.  1.
         23    2    1    2    0    0  0.12163692298E+02 -0.49605331438E+01  0.44506122611E+03  0.45457404925E+03  0.91572424689E+02 0.  0.
        -24    2    1    2    0    0 -0.73346825203E+02 -0.36028450135E+02  0.19364444769E+03  0.22511284731E+03  0.80621435817E+02 0.  0.
         13    1    4    4    0    0 -0.44242276756E+02  0.22065181762E+02  0.92802905814E+02  0.10515051415E+03  0.00000000000E+00 0. -1.
        -14    1    4    4    0    0 -0.29104548447E+02 -0.58093631897E+02  0.10084154188E+03  0.11996233316E+03  0.00000000000E+00 0.  1.
        -11    1    3    3    0    0  0.18102804885E+02 -0.46087034999E+02  0.28120725066E+03  0.28553326280E+03  0.00000000000E+00 0.  1.
         11    1    3    3    0    0 -0.59391125870E+01  0.41126501855E+02  0.16385397545E+03  0.16904078645E+03  0.00000000000E+00 0. -1.
          2    1    1    2  501    0  0.61183132905E+02  0.40988983279E+02  0.50215867684E+03  0.50753010672E+03  0.00000000000E+00 0. -1.
<scales pt_clust_5="13000.00000" pt_clust_6="13000.00000" pt_clust_7="13000.00000" pt_clust_8="13000.00000" pt_clust_9="73.64427"></scales>
<clustering>
<clus scale="   73.644">  2  9  1 -1</clus>
<clus scale="   80.621">  5  6 -1 -1</clus>
<clus scale="   84.945">  2  5  1 -1</clus>
<clus scale="   91.572">  7  8 -1 -1</clus>
<clus scale="   73.644">  2  5  1 -1</clus>
</clustering>
</event>
<event>
 9    1  0.6270443E-005  0.1012176E+03  0.7546771E-02  0.1285636E+00
          3   -1    0    0  502    0 -0.00000000000E+00  0.00000000000E+00  0.70222284049E+02  0.70222284049E+02  0.00000000000E+00 0. -1.
         21   -1    0    0  501  502  0.00000000000E+00 -0.00000000000E+00 -0.25101566589E+03  0.25101566589E+03  0.00000000000E+00 0. -1.
         23    2    1    2    0    0  0.23837513804E+02 -0.41317313849E+02 -0.27532751076E+02  0.10949018638E+03  0.94629282168E+02 0.  0.
        -24    2    1    2    0    0 -0.19974931364E+02  0.16879957118E+02 -0.34512706482E+02  0.90449892727E+02  0.79411116037E+02 0.  0.
         13    1    4    4    0    0 -0.27665851225E+02 -0.18828413072E+02  0.79921563447E+01  0.34406148082E+02  0.00000000000E+00 0. -1.
        -14    1    4    4    0    0  0.76909198610E+01  0.35708370189E+02 -0.42504862827E+02  0.56043744645E+02  0.00000000000E+00 0.  1.
        -13    1    3    3    0    0  0.12977704573E+01 -0.68020755847E+02 -0.30219178205E+02  0.74442636745E+02  0.00000000000E+00 0. -1.
         13    1    3    3    0    0  0.22539743347E+02  0.26703441998E+02  0.26864271295E+01  0.35047549635E+02  0.00000000000E+00 0.  1.
          4    1    1    2  501    0 -0.38625824401E+01  0.24437356731E+02 -0.11874792428E+03  0.12129787083E+03  0.00000000000E+00 0. -1.
<scales pt_clust_5="13000.00000" pt_clust_6="13000.00000" pt_clust_7="13000.00000" pt_clust_8="13000.00000" pt_clust_9="24.74073"></scales>
<clustering>
<clus scale="   24.741">  2  9  1 -1</clus>
<clus scale="   79.411">  5  6 -1 -1</clus>
<clus scale="   87.158">  2  5  1 -1</clus>
<clus scale="   94.629">  7  8 -1 -1</clus>
<clus scale="   24.741">  2  5  1 -1</clus>
</clustering>
</event>
<event>
 9    1  0.6270443E-005  0.1079030E+03  0.7546771E-02  0.1270275E+00
         21   -1    0    0  501  502  0.00000000000E+00  0.00000000000E+00  0.44214841567E+03  0.44214841567E+03  0.00000000000E+00 0. -1.
          1   -1    0    0  502    0 -0.00000000000E+00 -0.00000000000E+00 -0.12824072686E+03  0.12824072686E+03  0.00000000000E+00 0. -1.
         23    2    1    2    0    0  0.12029270376E+02  0.47232849837E+02 -0.27193188754E+02  0.11004360637E+03  0.94839234177E+02 0.  0.
        -24    2    1    2    0    0 -0.75195855153E+02 -0.15439222717E+02  0.32326557692E-01  0.11202297209E+03  0.81586512372E+02 0.  0.
         13    1    4    4    0    0 -0.39683931290E+02 -0.13059499539E+02 -0.40428088742E+02  0.58136006831E+02  0.00000000000E+00 0. -1.
        -14    1    4    4    0    0 -0.35511923863E+02 -0.23797231775E+01  0.40460415300E+02  0.53886965262E+02  0.00000000000E+00 0.  1.
        -13    1    3    3    0    0  0.17081870643E+02  0.70945478377E+02 -0.39366401307E+02  0.82914201188E+02  0.00000000000E+00 0. -1.
         13    1    3    3    0    0 -0.50526002677E+01 -0.23712628540E+02  0.12173212554E+02  0.27129405183E+02  0.00000000000E+00 0.  1.
          2    1    1    2  501    0  0.63166584778E+02 -0.31793627120E+02  0.34106855100E+03  0.34832256407E+03  0.00000000000E+00 0. -1.
<scales pt_clust_5="13000.00000" pt_clust_6="13000.00000" pt_clust_7="13000.00000" pt_clust_8="13000.00000" pt_clust_9="70.71670"></scales>
<clustering>
<clus scale="   70.717">  1  9  2 -1</clus>
<clus scale="   81.587">  5  6 -1 -1</clus>
<clus scale="   94.839">  7  8 -1 -1</clus>
<clus scale="   96.462">  1  5  2 -1</clus>
<clus scale="   70.717">  1  5  2 -1</clus>
</clustering>
</event>
<event>
 9    1  0.6270443E-005  0.3120116E+03  0.7546771E-02  0.1079386E+00
         21   -1    0    0  501  502  0.00000000000E+00  0.00000000000E+00  0.15726028198E+04  0.15726028198E+04  0.00000000000E+00 0. -1.
          1   -1    0    0  502    0 -0.00000000000E+00 -0.00000000000E+00 -0.56382579675E+02  0.56382579675E+02  0.00000000000E+00 0. -1.
        -24    2    1    2    0    0  0.19522921906E+02 -0.18847839216E+03  0.39979574013E+03  0.44941756553E+03  0.78957365620E+02 0.  0.
         23    2    1    2    0    0  0.13998647025E+02 -0.42536724117E+02  0.12581111165E+03  0.16182200876E+03  0.91392514392E+02 0.  0.
         11    1    3    3    0    0  0.49503932196E+02 -0.13324056297E+03  0.26599093783E+03  0.30158724431E+03  0.00000000000E+00 0. -1.
        -12    1    3    3    0    0 -0.29981010290E+02 -0.55237829182E+02  0.13380480230E+03  0.14783032121E+03  0.00000000000E+00 0.  1.
        -13    1    4    4    0    0 -0.36798862091E+02 -0.12832104559E+02  0.73010990753E+02  0.82761246542E+02  0.00000000000E+00 0.  1.
         13    1    4    4    0    0  0.50797509116E+02 -0.29704619558E+02  0.52800120901E+02  0.79060762219E+02  0.00000000000E+00 0. -1.
          2    1    1    2  501    0 -0.33521568932E+02  0.23101511627E+03  0.99061338834E+03  0.10177458252E+04  0.00000000000E+00 0. -1.
<scales pt_clust_5="13000.00000" pt_clust_6="13000.00000" pt_clust_7="13000.00000" pt_clust_8="13000.00000" pt_clust_9="233.43453"></scales>
<clustering>
<clus scale="   78.957">  5  6 -1 -1</clus>
<clus scale="   91.393">  7  8 -1 -1</clus>
<clus scale="  101.721">  5  7 -1 -1</clus>
<clus scale="  233.435">  1  9  2 -1</clus>
<clus scale="  233.435">  1  5  2 -1</clus>
</clustering>
</event>
<event>
 9    1  0.6270443E-005  0.9800246E+02  0.7546771E-02  0.1288237E+00
         21   -1    0    0  501  502  0.00000000000E+00  0.00000000000E+00  0.55909743279E+02  0.55909743279E+02  0.00000000000E+00 0.  1.
         -2   -1    0    0    0  501 -0.00000000000E+00 -0.00000000000E+00 -0.47496770104E+03  0.47496770104E+03  0.00000000000E+00 0.  1.
         23    2    1    2    0    0  0.20317541129E+02  0.26455578994E+02 -0.33100059754E+03  0.34505250449E+03  0.91581303462E+02 0.  0.
        -24    2    1    2    0    0 -0.57790686286E+02  0.42762967946E+01 -0.91310998999E+02  0.13725261270E+03  0.84513496075E+02 0.  0.
         11    1    4    4    0    0 -0.33935392921E+02 -0.36361092571E+02 -0.69151953362E+02  0.85180588160E+02  0.00000000000E+00 0. -1.
        -12    1    4    4    0    0 -0.23855293365E+02  0.40637389365E+02 -0.22159045637E+02  0.52072024538E+02  0.00000000000E+00 0.  1.
        -13    1    3    3    0    0  0.52973103380E+02  0.35221118363E+02 -0.21125735384E+03  0.22062716608E+03  0.00000000000E+00 0.  1.
         13    1    3    3    0    0 -0.32655562251E+02 -0.87655393690E+01 -0.11974324371E+03  0.12442533841E+03  0.00000000000E+00 0. -1.
         -1    1    1    2    0  502  0.37473145157E+02 -0.30731875788E+02  0.32536387822E+01  0.48572327129E+02  0.00000000000E+00 0.  1.
<scales pt_clust_5="13000.00000" pt_clust_6="13000.00000" pt_clust_7="13000.00000" pt_clust_8="13000.00000" pt_clust_9="48.46323"></scales>
<clustering>
<clus scale="   48.463">  1  9  2 -1</clus>
<clus scale="   84.513">  5  6 -1 -1</clus>
<clus scale="   91.432">  1  5  2 -1</clus>
<clus scale="   91.581">  7  8 -1 -1</clus>
<clus scale="   48.463">  1  5  2 -1</clus>
</clustering>
</event>
<event>
 9    1  0.6270443E-005  0.1170544E+03  0.7546771E-02  0.1250806E+00
         21   -1    0    0  501  502  0.00000000000E+00  0.00000000000E+00  0.11082694590E+03  0.11082694590E+03  0.00000000000E+00 0.  1.
         -2   -1    0    0    0  501 -0.00000000000E+00 -0.00000000000E+00 -0.29852942561E+03  0.29852942561E+03  0.00000000000E+00 0.  1.
        -24    2    1    2    0    0  0.88129207211E+02  0.75072374020E+01 -0.18477875390E+03  0.22096193186E+03  0.82812267584E+02 0.  0.
         23    2    1    2    0    0 -0.30178485185E+02 -0.50358274251E+02 -0.28290916946E+02  0.11198768649E+03  0.91072329448E+02 0.  0.
         13    1    3    3    0    0 -0.38348117920E+01 -0.23567150349E+02 -0.41930463287E+02  0.48252254958E+02  0.00000000000E+00 0. -1.
        -14    1    3    3    0    0  0.91964019003E+02  0.31074387751E+02 -0.14284829061E+03  0.17270967690E+03  0.00000000000E+00 0.  1.
        -13    1    4    4    0    0 -0.51468476204E+02 -0.62293677551E+02 -0.98633100876E+01  0.81405105438E+02  0.00000000000E+00 0.  1.
         13    1    4    4    0    0  0.21289991019E+02  0.11935403301E+02 -0.18427606858E+02  0.30582581056E+02  0.00000000000E+00 0. -1.
         -1    1    1    2    0  502 -0.57950722026E+02  0.42851036849E+02  0.25367191126E+02  0.76406753157E+02  0.00000000000E+00 0.  1.
<scales pt_clust_5="13000.00000" pt_clust_6="13000.00000" pt_clust_7="13000.00000" pt_clust_8="13000.00000" pt_clust_9="72.07286"></scales>
<clustering>
<clus scale="   72.073">  1  9  2 -1</clus>
<clus scale="   82.812">  5  6 -1 -1</clus>
<clus scale="   91.072">  7  8 -1 -1</clus>
<clus scale="  110.749">  2  5  1 -1</clus>
<clus scale="   72.073">  1  5  2 -1</clus>
</clustering>
</event>
<event>
 9    1  0.6270443E-005  0.1928071E+03  0.7546771E-02  0.1174024E+00
          3   -1    0    0  502    0 -0.00000000000E+00  0.00000000000E+00  0.15950757963E+03  0.15950757963E+03  0.00000000000E+00 0. -1.
         21   -1    0    0  501  502  0.00000000000E+00 -0.00000000000E+00 -0.44743866405E+03  0.44743866405E+03  0.00000000000E+00 0.  1.
         23    2    1    2    0    0 -0.14682769467E+01 -0.77142467167E+02 -0.17074296640E+03  0.21283477566E+03  0.10095724379E+03 0.  0.
        -24    2    1    2    0    0  0.16794585695E+03  0.89413882316E+02 -0.87273399083E+02  0.22452295815E+03  0.81198887513E+02 0.  0.
         11    1    4    4    0    0  0.12011610979E+03  0.69625735943E+02 -0.20975987640E+02  0.14041230357E+03  0.00000000000E+00 0. -1.
        -12    1    4    4    0    0  0.47829747156E+02  0.19788146373E+02 -0.66297411443E+02  0.84110654580E+02  0.00000000000E+00 0.  1.
        -13    1    3    3    0    0 -0.20225625806E+02  0.18858753088E+02 -0.24810606863E+02  0.37152317830E+02  0.00000000000E+00 0. -1.
         13    1    3    3    0    0  0.18757348859E+02 -0.96001220255E+02 -0.14593235954E+03  0.17568245783E+03  0.00000000000E+00 0.  1.
          4    1    1    2  501    0 -0.16647758000E+03 -0.12271415148E+02 -0.29914718928E+02  0.16958850987E+03  0.00000000000E+00 0. -1.
<scales pt_clust_5="13000.00000" pt_clust_6="13000.00000" pt_clust_7="13000.00000" pt_clust_8="13000.00000" pt_clust_9="174.87528"></scales>
<clustering>
<clus scale="   81.199">  5  6 -1 -1</clus>
<clus scale="  100.957">  7  8 -1 -1</clus>
<clus scale="  127.065">  1  7  2 -1</clus>
<clus scale="  174.875">  2  9  1 -1</clus>
<clus scale="  174.875">  2  5  1 -1</clus>
</clustering>
</event>
<event>
 9    1  0.6270443E-005  0.1605139E+03  0.7546771E-02  0.1206694E+00
          1   -1    0    0  502    0 -0.00000000000E+00  0.00000000000E+00  0.12034842796E+04  0.12034842796E+04  0.00000000000E+00 0. -1.
         21   -1    0    0  501  502  0.00000000000E+00 -0.00000000000E+00 -0.85074665834E+02  0.85074665834E+02  0.00000000000E+00 0. -1.
         23    2    1    2    0    0 -0.29381735400E+02  0.54127603905E+02  0.22832673515E+03  0.25216765780E+03  0.87534826091E+02 0.  0.
        -24    2    1    2    0    0  0.11997785937E+03  0.58382795358E+02  0.87833460845E+03  0.89146278983E+03  0.73695208165E+02 0.  0.
         13    1    4    4    0    0  0.10400098992E+03  0.31702057053E+02  0.49159270177E+03  0.50347255215E+03  0.00000000000E+00 0. -1.
        -14    1    4    4    0    0  0.15976869442E+02  0.26680738305E+02  0.38674190668E+03  0.38799023768E+03  0.00000000000E+00 0.  1.
        -11    1    3    3    0    0  0.12179662795E+02  0.28149590074E+02  0.18252990108E+03  0.18508892023E+03  0.00000000000E+00 0.  1.
         11    1    3    3    0    0 -0.41561398196E+02  0.25978013831E+02  0.45796834071E+02  0.67078737566E+02  0.00000000000E+00 0. -1.
          2    1    1    2  501    0 -0.90596123966E+02 -0.11251039926E+03  0.11748270151E+02  0.14492849779E+03  0.00000000000E+00 0. -1.
<scales pt_clust_5="13000.00000" pt_clust_6="13000.00000" pt_clust_7="13000.00000" pt_clust_8="13000.00000" pt_clust_9="142.59643"></scales>
<clustering>
<clus scale="   73.695">  5  6 -1 -1</clus>
<clus scale="   87.535">  7  8 -1 -1</clus>
<clus scale="  107.030">  1  7  2 -1</clus>
<clus scale="  142.596">  2  9  1 -1</clus>
<clus scale="  142.596">  2  5  1 -1</clus>
</clustering>
</event>
<event>
 9    1  0.6270443E-005  0.9273207E+02  0.7546771E-02  0.1302756E+00
         21   -1    0    0  501  502  0.00000000000E+00  0.00000000000E+00  0.64765412684E+02  0.64765412684E+02  0.00000000000E+00 0. -1.
         -4   -1    0    0    0  501 -0.00000000000E+00 -0.00000000000E+00 -0.22534624280E+03  0.22534624280E+03  0.00000000000E+00 0.  1.
         23    2    1    2    0    0  0.11806157776E+02 -0.26929581023E+02 -0.10518127346E+03  0.14241423301E+03  0.91400906885E+02 0.  0.
        -24    2    1    2    0    0  0.26662614209E+02 -0.45451744947E+01 -0.23007623975E+02  0.88369992437E+02  0.80921883287E+02 0.  0.
         11    1    4    4    0    0  0.34843053094E+02  0.31482394827E+02 -0.48639447020E+01  0.47210565459E+02  0.00000000000E+00 0. -1.
        -12    1    4    4    0    0 -0.81804388844E+01 -0.36027569321E+02 -0.18143679273E+02  0.41159426978E+02  0.00000000000E+00 0.  1.
        -11    1    3    3    0    0  0.25437533593E+02  0.25637827318E+02 -0.66720247611E+02  0.75868028485E+02  0.00000000000E+00 0.  1.
         11    1    3    3    0    0 -0.13631375817E+02 -0.52567408342E+02 -0.38461025853E+02  0.66546204521E+02  0.00000000000E+00 0. -1.
         -3    1    1    2    0  502 -0.38468771986E+02  0.31474755518E+02 -0.32391932681E+02  0.59327430046E+02  0.00000000000E+00 0.  1.
<scales pt_clust_5="13000.00000" pt_clust_6="13000.00000" pt_clust_7="13000.00000" pt_clust_8="13000.00000" pt_clust_9="49.70419"></scales>
<clustering>
<clus scale="   49.704">  1  9  2 -1</clus>
<clus scale="   80.922">  5  6 -1 -1</clus>
<clus scale="   82.422">  1  5  2 -1</clus>
<clus scale="   91.401">  7  8 -1 -1</clus>
<clus scale="   49.704">  1  5  2 -1</clus>
</clustering>
</event>
<event>
 9    1  0.6270443E-005  0.1127141E+03  0.7546771E-02  0.1262520E+00
          1   -1    0    0  502    0 -0.00000000000E+00  0.00000000000E+00  0.83016070440E+03  0.83016070440E+03  0.00000000000E+00 0. -1.
         21   -1    0    0  501  502  0.00000000000E+00 -0.00000000000E+00 -0.48205407332E+02  0.48205407332E+02  0.00000000000E+00 0. -1.
         23    2    1    2    0    0 -0.85056946869E+02  0.98269836609E+01  0.52126290361E+03  0.53683110746E+03  0.95610509050E+02 0.  0.
        -24    2    1    2    0    0  0.29564837433E+02 -0.29779697557E+02  0.26780496156E+03  0.28213741487E+03  0.78237544931E+02 0.  0.
         11    1    4    4    0    0  0.39293425940E+02 -0.47465801155E+02  0.14300761809E+03  0.15571818916E+03  0.00000000000E+00 0. -1.
        -12    1    4    4    0    0 -0.97285885069E+01  0.17686103598E+02  0.12479734347E+03  0.12641922572E+03  0.00000000000E+00 0.  1.
        -13    1    3    3    0    0 -0.52800662954E+01  0.27154838447E+02  0.39640190623E+02  0.48338484293E+02  0.00000000000E+00 0.  1.
         13    1    3    3    0    0 -0.79776880573E+02 -0.17327854786E+02  0.48162271299E+03  0.48849262317E+03  0.00000000000E+00 0. -1.
          2    1    1    2  501    0  0.55492109436E+02  0.19952713896E+02 -0.71125680976E+01  0.59397589399E+02  0.00000000000E+00 0. -1.
<scales pt_clust_5="13000.00000" pt_clust_6="13000.00000" pt_clust_7="13000.00000" pt_clust_8="13000.00000" pt_clust_9="58.97020"></scales>
<clustering>
<clus scale="   58.970">  2  9  1 -1</clus>
<clus scale="   78.238">  5  6 -1 -1</clus>
<clus scale="   95.611">  7  8 -1 -1</clus>
<clus scale="   98.408">  2  5  1 -1</clus>
<clus scale="   58.970">  2  5  1 -1</clus>
</clustering>
</event>
<event>
 9    1  0.6270443E-005  0.1171070E+03  0.7546771E-02  0.1252795E+00
         21   -1    0    0  501  502  0.00000000000E+00  0.00000000000E+00  0.40500569380E+03  0.40500569380E+03  0.00000000000E+00 0. -1.
          1   -1    0    0  502    0 -0.00000000000E+00 -0.00000000000E+00 -0.61747446369E+02  0.61747446369E+02  0.00000000000E+00 0. -1.
        -24    2    1    2    0    0 -0.12284101020E+02 -0.64265931345E+02  0.36582662411E+02  0.10761964360E+03  0.77218439706E+02 0.  0.
         23    2    1    2    0    0 -0.19957924226E+02  0.99305108741E+02  0.19816933783E+03  0.24063920209E+03  0.91522214593E+02 0.  0.
         13    1    3    3    0    0  0.52175269141E+01 -0.73410065518E+02  0.44880630522E+02  0.86200529595E+02  0.00000000000E+00 0. -1.
        -14    1    3    3    0    0 -0.17501627934E+02  0.91441341731E+01 -0.82979681105E+01  0.21419114008E+02  0.00000000000E+00 0.  1.
        -11    1    4    4    0    0 -0.31513984540E+02 -0.87741601257E+00  0.24959820204E+02  0.40210616821E+02  0.00000000000E+00 0.  1.
         11    1    4    4    0    0  0.11556060314E+02  0.10018252475E+03  0.17320951763E+03  0.20042858527E+03  0.00000000000E+00 0. -1.
          2    1    1    2  501    0  0.32242025246E+02 -0.35039177396E+02  0.10850624719E+03  0.11849429447E+03  0.00000000000E+00 0. -1.
<scales pt_clust_5="13000.00000" pt_clust_6="13000.00000" pt_clust_7="13000.00000" pt_clust_8="13000.00000" pt_clust_9="47.61609"></scales>
<clustering>
<clus scale="   47.616">  1  9  2 -1</clus>
<clus scale="   77.218">  5  6 -1 -1</clus>
<clus scale="   91.522">  7  8 -1 -1</clus>
<clus scale="  106.303">  2  5  1 -1</clus>
<clus scale="   47.616">  1  5  2 -1</clus>
</clustering>
</event>
<event>
 9    1  0.6270443E-005  0.9034448E+02  0.7546771E-02  0.1308258E+00
         21   -1    0    0  501  502  0.00000000000E+00  0.00000000000E+00  0.49678294517E+03  0.49678294517E+03  0.00000000000E+00 0.  1.
         -2   -1    0    0    0  501 -0.00000000000E+00 -0.00000000000E+00 -0.38115887463E+02  0.38115887463E+02  0.00000000000E+00 0.  1.
         23    2    1    2    0    0 -0.12753525706E+02  0.17792377621E+02  0.11968966336E+03  0.14993218468E+03  0.87606069235E+02 0.  0.
        -24    2    1    2    0    0 -0.65345576189E+02  0.18125708412E+01  0.17415838849E+03  0.20152966038E+03  0.77522448297E+02 0.  0.
         11    1    4    4    0    0 -0.48719772514E+02 -0.30775626063E+02  0.14033425246E+03  0.15170516737E+03  0.00000000000E+00 0. -1.
        -12    1    4    4    0    0 -0.16625803675E+02  0.32588196904E+02  0.33824136032E+02  0.49824493009E+02  0.00000000000E+00 0.  1.
        -13    1    3    3    0    0 -0.29829905259E+02  0.33288018473E+01  0.12361954925E+03  0.12721123034E+03  0.00000000000E+00 0.  1.
         13    1    3    3    0    0  0.17076379553E+02  0.14463575774E+02 -0.39298858836E+01  0.22720954334E+02  0.00000000000E+00 0. -1.
         -1    1    1    2    0  502  0.78099101895E+02 -0.19604948462E+02  0.16481900585E+03  0.18343698758E+03  0.00000000000E+00 0.  1.
<scales pt_clust_5="13000.00000" pt_clust_6="13000.00000" pt_clust_7="13000.00000" pt_clust_8="13000.00000" pt_clust_9="80.52219"></scales>
<clustering>
<clus scale="   77.522">  5  6 -1 -1</clus>
<clus scale="   80.522">  1  9  2 -1</clus>
<clus scale="   80.604">  1  5  2 -1</clus>
<clus scale="   87.606">  7  8 -1 -1</clus>
<clus scale="   80.522">  1  5  2 -1</clus>
</clustering>
</event>
<event>
 9    1  0.6270443E-005  0.1262250E+03  0.7546771E-02  0.1234334E+00
         21   -1    0    0  501  502  0.00000000000E+00  0.00000000000E+00  0.10868600157E+03  0.10868600157E+03  0.00000000000E+00 0.  1.
         -4   -1    0    0    0  501 -0.00000000000E+00 -0.00000000000E+00 -0.24859075011E+03  0.24859075011E+03  0.00000000000E+00 0.  1.
        -24    2    1    2    0    0 -0.55144500928E+01 -0.87612674401E+02 -0.13743783259E+03  0.18318898544E+03  0.83442535219E+02 0.  0.
         23    2    1    2    0    0  0.34916438833E+02  0.94325191794E+02 -0.25774020923E+02  0.13597273019E+03  0.87794553893E+02 0.  0.
         13    1    3    3    0    0  0.27267791400E+02 -0.19835622943E+02 -0.99965950431E+01  0.35169820839E+02  0.00000000000E+00 0. -1.
        -14    1    3    3    0    0 -0.32782241493E+02 -0.67777051458E+02 -0.12744123754E+03  0.14801916460E+03  0.00000000000E+00 0.  1.
        -11    1    4    4    0    0  0.20376407657E+02  0.48679672552E+02 -0.57862568179E+02  0.78313378838E+02  0.00000000000E+00 0. -1.
         11    1    4    4    0    0  0.14540031176E+02  0.45645519243E+02  0.32088547255E+02  0.57659351353E+02  0.00000000000E+00 0.  1.
         -3    1    1    2    0  502 -0.29401988740E+02 -0.67125173935E+01  0.23307104965E+02  0.38115036055E+02  0.00000000000E+00 0.  1.
<scales pt_clust_5="13000.00000" pt_clust_6="13000.00000" pt_clust_7="13000.00000" pt_clust_8="13000.00000" pt_clust_9="30.15850"></scales>
<clustering>
<clus scale="   30.158">  1  9  2 -1</clus>
<clus scale="   83.443">  5  6 -1 -1</clus>
<clus scale="   87.795">  7  8 -1 -1</clus>
<clus scale="  123.238">  2  5  1 -1</clus>
<clus scale="   30.158">  1  5  2 -1</clus>
</clustering>
</event>
<event>
 9    1  0.6270443E-005  0.1085272E+03  0.7546771E-02  0.1265897E+00
          1   -1    0    0  502    0 -0.00000000000E+00  0.00000000000E+00  0.14250891964E+03  0.14250891964E+03  0.00000000000E+00 0. -1.
         21   -1    0    0  501  502  0.00000000000E+00 -0.00000000000E+00 -0.16586199395E+03  0.16586199395E+03  0.00000000000E+00 0. -1.
        -24    2    1    2    0    0  0.42660935723E+02 -0.45459454385E+02  0.84376268122E+02  0.13582312351E+03  0.86267310316E+02 0.  0.
         23    2    1    2    0    0 -0.13530811882E+02  0.29396327386E+02 -0.96129450406E+02  0.13731789285E+03  0.92564061754E+02 0.  0.
         13    1    3    3    0    0 -0.68873262251E+01 -0.29811425330E+02  0.77610649865E+02  0.83424033200E+02  0.00000000000E+00 0. -1.
        -14    1    3    3    0    0  0.49548261948E+02 -0.15648029055E+02  0.67656182564E+01  0.52399090314E+02  0.00000000000E+00 0.  1.
        -11    1    4    4    0    0 -0.92550058010E+01 -0.32913701178E+02 -0.23295586950E+02  0.41372106895E+02  0.00000000000E+00 0. -1.
         11    1    4    4    0    0 -0.42758060808E+01  0.62310028564E+02 -0.72833863456E+02  0.95945785958E+02  0.00000000000E+00 0.  1.
          2    1    1    2  501    0 -0.29130123841E+02  0.16063126999E+02 -0.11599892026E+02  0.35229897232E+02  0.00000000000E+00 0. -1.
<scales pt_clust_5="13000.00000" pt_clust_6="13000.00000" pt_clust_7="13000.00000" pt_clust_8="13000.00000" pt_clust_9="33.26542"></scales>
<clustering>
<clus scale="   33.265">  2  9  1 -1</clus>
<clus scale="   86.267">  5  6 -1 -1</clus>
<clus scale="   92.564">  7  8 -1 -1</clus>
<clus scale="  103.209">  1  5  2 -1</clus>
<clus scale="   33.265">  2  5  1 -1</clus>
</clustering>
</event>
<event>
 9    1  0.6270443E-005  0.1112557E+03  0.7546771E-02  0.1263386E+00
          3   -1    0    0  502    0 -0.00000000000E+00  0.00000000000E+00  0.51979417328E+02  0.51979417328E+02  0.00000000000E+00 0. -1.
         21   -1    0    0  501  502  0.00000000000E+00 -0.00000000000E+00 -0.41608484180E+03  0.41608484180E+03  0.00000000000E+00 0.  1.
        -24    2    1    2    0    0  0.19286720659E+02 -0.70762046256E+02 -0.72692152134E+02  0.13041382812E+03  0.79651571231E+02 0.  0.
         23    2    1    2    0    0  0.36023875022E+02  0.43928633481E+02 -0.17613231276E+03  0.20700207213E+03  0.92735224464E+02 0.  0.
         11    1    3    3    0    0 -0.21517095886E+02 -0.60334334215E+02 -0.31041031256E+02  0.71181197812E+02  0.00000000000E+00 0. -1.
        -12    1    3    3    0    0  0.40803816545E+02 -0.10427712041E+02 -0.41651120878E+02  0.59232630310E+02  0.00000000000E+00 0.  1.
        -11    1    4    4    0    0  0.45514397749E+02  0.63596578332E+02 -0.95347297545E+02  0.12331744535E+03  0.00000000000E+00 0. -1.
         11    1    4    4    0    0 -0.94905227271E+01 -0.19667944850E+02 -0.80785015212E+02  0.83684626779E+02  0.00000000000E+00 0.  1.
          4    1    1    2  501    0 -0.55310595681E+02  0.26833412775E+02 -0.11528095958E+03  0.13064835888E+03  0.00000000000E+00 0. -1.
<scales pt_clust_5="13000.00000" pt_clust_6="13000.00000" pt_clust_7="13000.00000" pt_clust_8="13000.00000" pt_clust_9="61.47596"></scales>
<clustering>
<clus scale="   61.476">  2  9  1 -1</clus>
<clus scale="   79.652">  5  6 -1 -1</clus>
<clus scale="   92.735">  7  8 -1 -1</clus>
<clus scale="  100.610">  1  5  2 -1</clus>
<clus scale="   61.476">  2  5  1 -1</clus>
</clustering>
</event>
<event>
 9    1  0.6270443E-005  0.1021000E+03  0.7546771E-02  0.1292775E+00
         -2   -1    0    0    0  501 -0.00000000000E+00  0.00000000000E+00  0.23020919310E+03  0.23020919310E+03  0.00000000000E+00 0.  1.
         21   -1    0    0  501  502  0.00000000000E+00 -0.00000000000E+00 -0.69870169942E+02  0.69870169942E+02  0.00000000000E+00 0.  1.
         23    2    1    2    0    0 -0.17659022693E+02 -0.43152987582E+02  0.12822773866E+03  0.16729759008E+03  0.96809654812E+02 0.  0.
        -24    2    1    2    0    0  0.32742177317E+02 -0.55694364617E+01  0.33422459646E+02  0.81761234557E+02  0.66818933466E+02 0.  0.
         11    1    4    4    0    0  0.17102785382E+02 -0.18182999597E+02 -0.15147958557E+02  0.29199099141E+02  0.00000000000E+00 0. -1.
        -12    1    4    4    0    0  0.15639391935E+02  0.12613563136E+02  0.48570418203E+02  0.52562135416E+02  0.00000000000E+00 0.  1.
        -13    1    3    3    0    0 -0.21883543810E+02 -0.18906654132E+02 -0.70766825026E+01  0.29772982642E+02  0.00000000000E+00 0.  1.
         13    1    3    3    0    0  0.42245211174E+01 -0.24246333450E+02  0.13530442117E+03  0.13752460744E+03  0.00000000000E+00 0. -1.
         -1    1    1    2    0  502 -0.15083154624E+02  0.48722424044E+02 -0.13111751559E+01  0.51020538398E+02  0.00000000000E+00 0.  1.
<scales pt_clust_5="13000.00000" pt_clust_6="13000.00000" pt_clust_7="13000.00000" pt_clust_8="13000.00000" pt_clust_9="51.00369"></scales>
<clustering>
<clus scale="   51.004">  2  9  1 -1</clus>
<clus scale="   66.819">  5  6 -1 -1</clus>
<clus scale="   74.277">  2  5  1 -1</clus>
<clus scale="   96.810">  7  8 -1 -1</clus>
<clus scale="   51.004">  2  5  1 -1</clus>
</clustering>
</event>
<event>
 9    1  0.6270443E-005  0.1724963E+03  0.7546771E-02  0.1202712E+00
          1   -1    0    0  502    0 -0.00000000000E+00  0.00000000000E+00  0.43579349005E+03  0.43579349005E+03  0.00000000000E+00 0. -1.
         21   -1    0    0  501  502  0.00000000000E+00 -0.00000000000E+00 -0.15753038013E+03  0.15753038013E+03  0.00000000000E+00 0.  1.
         23    2    1    2    0    0 -0.10203320863E+02 -0.41527939802E+01  0.74543936499E+02  0.11994285631E+03  0.93317398468E+02 0.  0.
        -24    2    1    2    0    0 -0.14407222657E+03  0.38312484870E+02 -0.46703500968E+02  0.17727403175E+03  0.83786707559E+02 0.  0.
         11    1    4    4    0    0 -0.68641101040E+02  0.27386401671E+02  0.19374491429E+02  0.76400174519E+02  0.00000000000E+00 0. -1.
        -12    1    4    4    0    0 -0.75431125530E+02  0.10926083199E+02 -0.66077992398E+02  0.10087385723E+03  0.00000000000E+00 0.  1.
        -13    1    3    3    0    0 -0.51163214567E+02  0.56421375271E+01  0.35627564112E+02  0.62600571605E+02  0.00000000000E+00 0. -1.
         13    1    3    3    0    0  0.40959893705E+02 -0.97949315072E+01  0.38916372387E+02  0.57342284706E+02  0.00000000000E+00 0.  1.
          2    1    1    2  501    0  0.15427554743E+03 -0.34159690890E+02  0.25042267439E+03  0.29610698213E+03  0.00000000000E+00 0. -1.
<scales pt_clust_5="13000.00000" pt_clust_6="13000.00000" pt_clust_7="13000.00000" pt_clust_8="13000.00000" pt_clust_9="150.78055"></scales>
<clustering>
<clus scale="   83.787">  5  6 -1 -1</clus>
<clus scale="   93.317">  7  8 -1 -1</clus>
<clus scale="   93.965">  1  7  2 -1</clus>
<clus scale="  150.781">  2  9  1 -1</clus>
<clus scale="  150.781">  2  5  1 -1</clus>
</clustering>
</event>
<event>
 9    1  0.6270443E-005  0.1250017E+03  0.7546771E-02  0.1238335E+00
          1   -1    0    0  502    0 -0.00000000000E+00  0.00000000000E+00  0.10923325174E+04  0.10923325174E+04  0.00000000000E+00 0. -1.
         21   -1    0    0  501  502  0.00000000000E+00 -0.00000000000E+00 -0.43601477233E+02  0.43601477233E+02  0.00000000000E+00 0. -1.
         23    2    1    2    0    0  0.58072719236E+02  0.69542384549E+02  0.43966903460E+03  0.45803469186E+03  0.90985355965E+02 0.  0.
        -24    2    1    2    0    0  0.34942460024E+02 -0.10432735914E+03  0.12763999166E+03  0.18634160167E+03  0.79536480093E+02 0.  0.
         11    1    4    4    0    0  0.55495681116E+02 -0.71259598288E+02  0.60439234881E+02  0.10867659400E+03  0.00000000000E+00 0. -1.
        -12    1    4    4    0    0 -0.20553221092E+02 -0.33067760851E+02  0.67200756780E+02  0.77665007673E+02  0.00000000000E+00 0.  1.
        -11    1    3    3    0    0 -0.21310554858E+02  0.43092779521E+01  0.12889784710E+03  0.13071864676E+03  0.00000000000E+00 0.  1.
         11    1    3    3    0    0  0.79383274094E+02  0.65233106597E+02  0.31077118750E+03  0.32731604510E+03  0.00000000000E+00 0. -1.
          2    1    1    2  501    0 -0.93015179260E+02  0.34784974591E+02  0.48142201395E+03  0.49155770114E+03  0.00000000000E+00 0. -1.
<scales pt_clust_5="13000.00000" pt_clust_6="13000.00000" pt_clust_7="13000.00000" pt_clust_8="13000.00000" pt_clust_9="99.30674"></scales>
<clustering>
<clus scale="   79.536">  5  6 -1 -1</clus>
<clus scale="   90.985">  7  8 -1 -1</clus>
<clus scale="   99.307">  2  9  1 -1</clus>
<clus scale="  116.932">  2  5  1 -1</clus>
<clus scale="   99.307">  2  5  1 -1</clus>
</clustering>
</event>
<event>
 9    1  0.6270443E-005  0.1165825E+03  0.7546771E-02  0.1249676E+00
         21   -1    0    0  501  502  0.00000000000E+00  0.00000000000E+00  0.12760824026E+03  0.12760824026E+03  0.00000000000E+00 0. -1.
          1   -1    0    0  502    0 -0.00000000000E+00 -0.00000000000E+00 -0.23604544180E+03  0.23604544180E+03  0.00000000000E+00 0. -1.
        -24    2    1    2    0    0 -0.58659735256E+02 -0.63139088218E+02 -0.13474552352E+03  0.17972655410E+03  0.81961998128E+02 0.  0.
         23    2    1    2    0    0  0.81104532906E+02  0.23658042120E+01  0.16307478575E+02  0.11837426487E+03  0.84634451844E+02 0.  0.
         13    1    3    3    0    0 -0.21651786887E+02 -0.51084578215E+02 -0.12894449671E+03  0.14037491670E+03  0.00000000000E+00 0. -1.
        -14    1    3    3    0    0 -0.37007948369E+02 -0.12054510003E+02 -0.58010268141E+01  0.39351637399E+02  0.00000000000E+00 0.  1.
        -11    1    4    4    0    0  0.63703825535E+02  0.20462677260E+02 -0.23834548958E+02  0.71028052715E+02  0.00000000000E+00 0.  1.
         11    1    4    4    0    0  0.17400707371E+02 -0.18096873048E+02  0.40142027533E+02  0.47346212157E+02  0.00000000000E+00 0. -1.
          2    1    1    2  501    0 -0.22444797649E+02  0.60773284006E+02  0.10000843404E+02  0.65552863090E+02  0.00000000000E+00 0. -1.
<scales pt_clust_5="13000.00000" pt_clust_6="13000.00000" pt_clust_7="13000.00000" pt_clust_8="13000.00000" pt_clust_9="64.78550"></scales>
<clustering>
<clus scale="   64.785">  1  9  2 -1</clus>
<clus scale="   81.962">  5  6 -1 -1</clus>
<clus scale="   84.634">  7  8 -1 -1</clus>
<clus scale="  114.657">  2  5  1 -1</clus>
<clus scale="   64.785">  1  5  2 -1</clus>
</clustering>
</event>
<event>
 9    1  0.6270443E-005  0.1311659E+03  0.7546771E-02  0.1243102E+00
         21   -1    0    0  501  502  0.00000000000E+00  0.00000000000E+00  0.19208674104E+03  0.19208674104E+03  0.00000000000E+00 0.  1.
         -2   -1    0    0    0  501 -0.00000000000E+00 -0.00000000000E+00 -0.22401960115E+03  0.22401960115E+03  0.00000000000E+00 0.  1.
         23    2    1    2    0    0 -0.28115464229E+02  0.22346528184E+02 -0.14141402778E+03  0.19265111275E+03  0.12580412290E+03 0.  0.
        -24    2    1    2    0    0  0.53503836527E+02  0.24852930905E+02  0.12630178906E+01  0.10269295748E+03  0.84047127284E+02 0.  0.
         11    1    4    4    0    0  0.31300095486E+02 -0.14270883071E+02 -0.31813984803E+02  0.46855989053E+02  0.00000000000E+00 0. -1.
        -12    1    4    4    0    0  0.22203741041E+02  0.39123813977E+02  0.33077002694E+02  0.55836968430E+02  0.00000000000E+00 0.  1.
        -13    1    3    3    0    0 -0.66681070920E+02 -0.11300439290E+02 -0.11878955155E+03  0.13669316993E+03  0.00000000000E+00 0.  1.
         13    1    3    3    0    0  0.38565606692E+02  0.33646967475E+02 -0.22624476230E+02  0.55957942818E+02  0.00000000000E+00 0. -1.
         -1    1    1    2    0  502 -0.25388372299E+02 -0.47199459090E+02  0.10821814978E+03  0.12076227196E+03  0.00000000000E+00 0.  1.
<scales pt_clust_5="13000.00000" pt_clust_6="13000.00000" pt_clust_7="13000.00000" pt_clust_8="13000.00000" pt_clust_9="53.59439"></scales>
<clustering>
<clus scale="   53.594">  1  9  2 -1</clus>
<clus scale="   84.047">  5  6 -1 -1</clus>
<clus scale="   91.879">  1  5  2 -1</clus>
<clus scale="  125.804">  7  8 -1 -1</clus>
<clus scale="   53.594">  1  5  2 -1</clus>
</clustering>
</event>
<event>
 9    1  0.6270443E-005  0.1089962E+03  0.7546771E-02  0.1267876E+00
         21   -1    0    0  501  502  0.00000000000E+00  0.00000000000E+00  0.62511006011E+02  0.62511006011E+02  0.00000000000E+00 0. -1.
          1   -1    0    0  502    0 -0.00000000000E+00 -0.00000000000E+00 -0.55971195260E+03  0.55971195260E+03  0.00000000000E+00 0. -1.
        -24    2    1    2    0    0 -0.65363954747E+02 -0.32382598227E+01 -0.39740427457E+03  0.41057954549E+03  0.79765110299E+02 0.  0.
         23    2    1    2    0    0  0.12503696803E+02  0.56208845713E+02 -0.75961977636E+02  0.13310563561E+03  0.92903775031E+02 0.  0.
         13    1    3    3    0    0 -0.54772405220E+02  0.33879787302E+02 -0.23680467325E+03  0.24540641726E+03  0.00000000000E+00 0. -1.
        -14    1    3    3    0    0 -0.10591549527E+02 -0.37118047124E+02 -0.16059960132E+03  0.16517312823E+03  0.00000000000E+00 0.  1.
        -13    1    4    4    0    0 -0.72931367531E+01  0.52680284781E+02  0.13715850305E+01  0.53200408775E+02  0.00000000000E+00 0. -1.
         13    1    4    4    0    0  0.19796833557E+02  0.35285609316E+01 -0.77333562667E+02  0.79905226837E+02  0.00000000000E+00 0.  1.
          2    1    1    2  501    0  0.52860257943E+02 -0.52970585890E+02 -0.23834694377E+02  0.78537777505E+02  0.00000000000E+00 0. -1.
<scales pt_clust_5="13000.00000" pt_clust_6="13000.00000" pt_clust_7="13000.00000" pt_clust_8="13000.00000" pt_clust_9="74.83375"></scales>
<clustering>
<clus scale="   74.834">  1  9  2 -1</clus>
<clus scale="   79.765">  5  6 -1 -1</clus>
<clus scale="   92.904">  7  8 -1 -1</clus>
<clus scale="   98.038">  2  5  1 -1</clus>
<clus scale="   74.834">  1  5  2 -1</clus>
</clustering>
</event>
<event>
 9    1  0.6270443E-005  0.1136447E+03  0.7546771E-02  0.1258702E+00
         -2   -1    0    0    0  501 -0.00000000000E+00  0.00000000000E+00  0.61829045800E+02  0.61829045800E+02  0.00000000000E+00 0.  1.
         21   -1    0    0  501  502  0.00000000000E+00 -0.00000000000E+00 -0.41782000669E+03  0.41782000669E+03  0.00000000000E+00 0. -1.
        -24    2    1    2    0    0 -0.45726525463E+02  0.51896931764E+02 -0.14399681967E+02  0.10610084373E+03  0.79157005640E+02 0.  0.
         23    2    1    2    0    0  0.13102019849E+02 -0.62499794005E+02 -0.21556084391E+03  0.24293255271E+03  0.92042710557E+02 0.  0.
         13    1    3    3    0    0 -0.29187728851E+02 -0.12351915820E+02 -0.23059264827E+02  0.39194681199E+02  0.00000000000E+00 0. -1.
        -14    1    3    3    0    0 -0.16538796612E+02  0.64248847584E+02  0.86595828602E+01  0.66906162531E+02  0.00000000000E+00 0.  1.
        -11    1    4    4    0    0 -0.45724036919E+01 -0.80456072360E+02 -0.12334459084E+03  0.14733626351E+03  0.00000000000E+00 0. -1.
         11    1    4    4    0    0  0.17674423540E+02  0.17956278355E+02 -0.92216253066E+02  0.95596289203E+02  0.00000000000E+00 0.  1.
         -1    1    1    2    0  502  0.32624505615E+02  0.10602862241E+02 -0.12603043501E+03  0.13061565604E+03  0.00000000000E+00 0.  1.
<scales pt_clust_5="13000.00000" pt_clust_6="13000.00000" pt_clust_7="13000.00000" pt_clust_8="13000.00000" pt_clust_9="34.30421"></scales>
<clustering>
<clus scale="   34.304">  2  9  1 -1</clus>
<clus scale="   79.157">  5  6 -1 -1</clus>
<clus scale="   92.043">  7  8 -1 -1</clus>
<clus scale="  103.485">  1  5  2 -1</clus>
<clus scale="   34.304">  2  5  1 -1</clus>
</clustering>
</event>
<event>
 9    1  0.6270443E-005  0.2299799E+03  0.7546771E-02  0.1126808E+00
         21   -1    0    0  501  502  0.00000000000E+00  0.00000000000E+00  0.44430634126E+03  0.44430634126E+03  0.00000000000E+00 0.  1.
          1   -1    0    0  502    0 -0.00000000000E+00 -0.00000000000E+00 -0.41721171115E+03  0.41721171115E+03  0.00000000000E+00 0. -1.
         23    2    1    2    0    0 -0.20188690482E+03  0.72880939152E+02 -0.32205440067E+03  0.39497962567E+03  0.78866431876E+02 0.  0.
        -24    2    1    2    0    0  0.19186352470E+03 -0.11000684849E+03  0.18971143927E+03  0.30252883286E+03  0.81364277771E+02 0.  0.
         11    1    4    4    0    0  0.46760975074E+02 -0.71161431872E+02  0.61456299724E+02  0.10501149914E+03  0.00000000000E+00 0. -1.
        -12    1    4    4    0    0  0.14510254963E+03 -0.38845416622E+02  0.12825513954E+03  0.19751733372E+03  0.00000000000E+00 0.  1.
        -13    1    3    3    0    0 -0.37703460393E+02  0.49564733180E+01 -0.16356398043E+02  0.41396247539E+02  0.00000000000E+00 0.  1.
         13    1    3    3    0    0 -0.16418344442E+03  0.67924465834E+02 -0.30569800263E+03  0.35358337813E+03  0.00000000000E+00 0. -1.
          2    1    1    2  501    0  0.10023380117E+02  0.37125909342E+02  0.15943759152E+03  0.16400959387E+03  0.00000000000E+00 0. -1.
<scales pt_clust_5="13000.00000" pt_clust_6="13000.00000" pt_clust_7="13000.00000" pt_clust_8="13000.00000" pt_clust_9="38.45519"></scales>
<clustering>
<clus scale="   38.455">  1  9  2 -1</clus>
<clus scale="   78.866">  7  8 -1 -1</clus>
<clus scale="   81.364">  5  6 -1 -1</clus>
<clus scale="  229.108">  2  7  1 -1</clus>
<clus scale="   38.455">  1  5  2 -1</clus>
</clustering>
</event>
<event>
 9    1  0.6270443E-005  0.1100332E+03  0.7546771E-02  0.1264326E+00
         21   -1    0    0  501  502  0.00000000000E+00  0.00000000000E+00  0.10980939819E+03  0.10980939819E+03  0.00000000000E+00 0. -1.
          1   -1    0    0  502    0 -0.00000000000E+00 -0.00000000000E+00 -0.38952337027E+03  0.38952337027E+03  0.00000000000E+00 0. -1.
         23    2    1    2    0    0 -0.43264270813E+02 -0.31861831188E+02 -0.19529801242E+03  0.22234009537E+03  0.91688772129E+02 0.  0.
        -24    2    1    2    0    0  0.62677111077E+02  0.92921715265E+02  0.33433908057E+02  0.14285185481E+03  0.82011955190E+02 0.  0.
         13    1    4    4    0    0  0.61856357694E+02  0.92129425167E+02  0.15824011853E+01  0.11097992594E+03  0.00000000000E+00 0. -1.
        -14    1    4    4    0    0  0.82075338297E+00  0.79229009746E+00  0.31851506872E+02  0.31871928868E+02  0.00000000000E+00 0.  1.
        -13    1    3    3    0    0  0.21533541997E+02 -0.32898770633E+02 -0.53120500701E+02  0.66089410157E+02  0.00000000000E+00 0. -1.
         13    1    3    3    0    0 -0.64797812810E+02  0.10369394451E+01 -0.14217751172E+03  0.15625068521E+03  0.00000000000E+00 0.  1.
          2    1    1    2  501    0 -0.19412840264E+02 -0.61059884077E+02 -0.11784986771E+03  0.13414081828E+03  0.00000000000E+00 0. -1.
<scales pt_clust_5="13000.00000" pt_clust_6="13000.00000" pt_clust_7="13000.00000" pt_clust_8="13000.00000" pt_clust_9="64.07162"></scales>
<clustering>
<clus scale="   64.072">  1  9  2 -1</clus>
<clus scale="   82.012">  5  6 -1 -1</clus>
<clus scale="   91.689">  7  8 -1 -1</clus>
<clus scale="  102.110">  1  5  2 -1</clus>
<clus scale="   64.072">  1  5  2 -1</clus>
</clustering>
</event>
<event>
 9    1  0.6270443E-005  0.1975975E+03  0.7546771E-02  0.1160963E+00
         21   -1    0    0  501  502  0.00000000000E+00  0.00000000000E+00  0.21431986845E+04  0.21431986845E+04  0.00000000000E+00 0. -1.
          1   -1    0    0  502    0 -0.00000000000E+00 -0.00000000000E+00 -0.50641102489E+02  0.50641102489E+02  0.00000000000E+00 0. -1.
         23    2    1    2    0    0  0.35976106592E+01 -0.12961154065E+03  0.41764298983E+03  0.44701157738E+03  0.92636866758E+02 0.  0.
        -24    2    1    2    0    0 -0.13730812020E+03 -0.13565054763E+02  0.18737249386E+03  0.24644174869E+03  0.81163744739E+02 0.  0.
         11    1    4    4    0    0 -0.12905829592E+03  0.10795842906E+01  0.11737262795E+03  0.17445212248E+03  0.00000000000E+00 0. -1.
        -12    1    4    4    0    0 -0.82498242761E+01 -0.14644639053E+02  0.69999865912E+02  0.71989626206E+02  0.00000000000E+00 0.  1.
        -11    1    3    3    0    0  0.38406241590E+02 -0.21894122538E+02  0.88143682566E+02  0.98608827044E+02  0.00000000000E+00 0.  1.
         11    1    3    3    0    0 -0.34808630930E+02 -0.10771741812E+03  0.32949930726E+03  0.34840275033E+03  0.00000000000E+00 0. -1.
          2    1    1    2  501    0  0.13371050954E+03  0.14317659542E+03  0.14875420983E+04  0.15003864609E+04  0.00000000000E+00 0. -1.
<scales pt_clust_5="13000.00000" pt_clust_6="13000.00000" pt_clust_7="13000.00000" pt_clust_8="13000.00000" pt_clust_9="180.15884"></scales>
<clustering>
<clus scale="   81.164">  5  6 -1 -1</clus>
<clus scale="   92.637">  7  8 -1 -1</clus>
<clus scale="  159.354">  2  7  1 -1</clus>
<clus scale="  180.159">  1  9  2 -1</clus>
<clus scale="  180.159">  1  5  2 -1</clus>
</clustering>
</event>
<event>
 9    1  0.6270443E-005  0.1977291E+03  0.7546771E-02  0.1152631E+00
         21   -1    0    0  501  502  0.00000000000E+00  0.00000000000E+00  0.20260992419E+03  0.20260992419E+03  0.00000000000E+00 0.  1.
         -2   -1    0    0    0  501 -0.00000000000E+00 -0.00000000000E+00 -0.33036078538E+03  0.33036078538E+03  0.00000000000E+00 0.  1.
        -24    2    1    2    0    0 -0.64314653017E+02 -0.17260717308E+03 -0.18738647491E+03  0.27503987080E+03  0.81262714431E+02 0.  0.
         23    2    1    2    0    0  0.99569264983E+02  0.11974556540E+03  0.69850519670E+02  0.19357571828E+03  0.91320450326E+02 0.  0.
         13    1    3    3    0    0  0.28229793193E-01 -0.35699554840E+02 -0.19850606895E+01  0.35754712678E+02  0.00000000000E+00 0. -1.
        -14    1    3    3    0    0 -0.64342882811E+02 -0.13690761824E+03 -0.18540141422E+03  0.23928515812E+03  0.00000000000E+00 0.  1.
        -11    1    4    4    0    0  0.27674826495E+02  0.82319622498E+02  0.41509782915E+00  0.86848077561E+02  0.00000000000E+00 0. -1.
         11    1    4    4    0    0  0.71894438488E+02  0.37425942903E+02  0.69435421841E+02  0.10672764072E+03  0.00000000000E+00 0.  1.
         -1    1    1    2    0  502 -0.35254611966E+02  0.52861607676E+02 -0.10214905945E+02  0.64355120499E+02  0.00000000000E+00 0.  1.
<scales pt_clust_5="13000.00000" pt_clust_6="13000.00000" pt_clust_7="13000.00000" pt_clust_8="13000.00000" pt_clust_9="63.53926"></scales>
<clustering>
<clus scale="   63.539">  1  9  2 -1</clus>
<clus scale="   81.263">  5  6 -1 -1</clus>
<clus scale="   91.320">  7  8 -1 -1</clus>
<clus scale="  193.290">  2  5  1 -1</clus>
<clus scale="   63.539">  1  5  2 -1</clus>
</clustering>
</event>
<event>
 9    1  0.6270443E-005  0.2167658E+03  0.7546771E-02  0.1155037E+00
         21   -1    0    0  501  502  0.00000000000E+00  0.00000000000E+00  0.11770826284E+03  0.11770826284E+03  0.00000000000E+00 0. -1.
         -2   -1    0    0    0  501 -0.00000000000E+00 -0.00000000000E+00 -0.80700121211E+03  0.80700121211E+03  0.00000000000E+00 0.  1.
         23    2    1    2    0    0 -0.94603698535E+02  0.45690907785E+02 -0.31569206914E+03  0.34478935770E+03  0.90447221265E+02 0.  0.
        -24    2    1    2    0    0 -0.55657804742E+02 -0.19590584235E+03 -0.26026517042E+03  0.33911308034E+03  0.76044934275E+02 0.  0.
         13    1    4    4    0    0  0.17345505474E+02 -0.62317166906E+02 -0.67616347419E+02  0.93574923402E+02  0.00000000000E+00 0. -1.
        -14    1    4    4    0    0 -0.73003310216E+02 -0.13358867544E+03 -0.19264882300E+03  0.24553815694E+03  0.00000000000E+00 0.  1.
        -13    1    3    3    0    0 -0.40254171280E+02  0.64792609865E+02 -0.13407941201E+03  0.15425877389E+03  0.00000000000E+00 0.  1.
         13    1    3    3    0    0 -0.54349527255E+02 -0.19101702080E+02 -0.18161265713E+03  0.19053058381E+03  0.00000000000E+00 0. -1.
         -1    1    1    2    0  502  0.15026150328E+03  0.15021493456E+03 -0.11333570972E+03  0.24080703692E+03  0.00000000000E+00 0.  1.
<scales pt_clust_5="13000.00000" pt_clust_6="13000.00000" pt_clust_7="13000.00000" pt_clust_8="13000.00000" pt_clust_9="202.98906"></scales>
<clustering>
<clus scale="   76.045">  5  6 -1 -1</clus>
<clus scale="   90.447">  7  8 -1 -1</clus>
<clus scale="  138.630">  2  7  1 -1</clus>
<clus scale="  202.989">  1  9  2 -1</clus>
<clus scale="  202.989">  1  5  2 -1</clus>
</clustering>
</event>
<event>
 9    1  0.6270443E-005  0.1218695E+03  0.7546771E-02  0.1242565E+00
          3   -1    0    0  502    0 -0.00000000000E+00  0.00000000000E+00  0.41249544493E+03  0.41249544493E+03  0.00000000000E+00 0. -1.
         21   -1    0    0  501  502  0.00000000000E+00 -0.00000000000E+00 -0.61788179633E+02  0.61788179633E+02  0.00000000000E+00 0. -1.
         23    2    1    2    0    0 -0.47176869546E+02 -0.60262410651E+02  0.27164410789E+03  0.29603883859E+03  0.89393833369E+02 0.  0.
        -24    2    1    2    0    0  0.70148029451E+02  0.76349732175E+02  0.68337841459E+02  0.14821965478E+03  0.80925755155E+02 0.  0.
         11    1    4    4    0    0  0.58440784322E+02  0.44963491341E+02  0.83545134687E+02  0.11143083216E+03  0.00000000000E+00 0. -1.
        -12    1    4    4    0    0  0.11707245128E+02  0.31386240834E+02 -0.15207293228E+02  0.36788822616E+02  0.00000000000E+00 0.  1.
        -13    1    3    3    0    0  0.94896807358E+01 -0.56041905798E+02  0.17418090902E+03  0.18322046369E+03  0.00000000000E+00 0. -1.
         13    1    3    3    0    0 -0.56666550282E+02 -0.42205048534E+01  0.97463198867E+02  0.11281837490E+03  0.00000000000E+00 0.  1.
          4    1    1    2  501    0 -0.22971159904E+02 -0.16087321523E+02  0.10725315946E+02  0.30025131195E+02  0.00000000000E+00 0. -1.
<scales pt_clust_5="13000.00000" pt_clust_6="13000.00000" pt_clust_7="13000.00000" pt_clust_8="13000.00000" pt_clust_9="28.04418"></scales>
<clustering>
<clus scale="   28.044">  2  9  1 -1</clus>
<clus scale="   80.926">  5  6 -1 -1</clus>
<clus scale="   89.394">  7  8 -1 -1</clus>
<clus scale="  115.801">  2  5  1 -1</clus>
<clus scale="   28.044">  2  5  1 -1</clus>
</clustering>
</event>
<event>
 9    1  0.6270443E-005  0.1257154E+03  0.7546771E-02  0.1234334E+00
         21   -1    0    0  501  502  0.00000000000E+00  0.00000000000E+00  0.46527414276E+02  0.46527414276E+02  0.00000000000E+00 0.  1.
          1   -1    0    0  502    0 -0.00000000000E+00 -0.00000000000E+00 -0.11198364689E+04  0.11198364689E+04  0.00000000000E+00 0. -1.
         23    2    1    2    0    0 -0.34618774899E+01  0.65614414929E+02 -0.17395058419E+03  0.20215407651E+03  0.79310963107E+02 0.  0.
        -24    2    1    2    0    0  0.17780783963E+02 -0.15844630186E+03 -0.24576205591E+03  0.30389846843E+03  0.80832568562E+02 0.  0.
         11    1    4    4    0    0  0.25998210445E+02 -0.68087694931E+01 -0.35146792785E+02  0.44244359317E+02  0.00000000000E+00 0. -1.
        -12    1    4    4    0    0 -0.82174264816E+01 -0.15163753236E+03 -0.21061526312E+03  0.25965410911E+03  0.00000000000E+00 0.  1.
        -11    1    3    3    0    0  0.30041774541E+02  0.58610532152E+02 -0.13561477128E+03  0.15076162936E+03  0.00000000000E+00 0. -1.
         11    1    3    3    0    0 -0.33503652031E+02  0.70038827761E+01 -0.38335812905E+02  0.51392447153E+02  0.00000000000E+00 0.  1.
          2    1    1    2  501    0 -0.14318906473E+02  0.92831886929E+02 -0.65359641456E+03  0.66031133826E+03  0.00000000000E+00 0. -1.
<scales pt_clust_5="13000.00000" pt_clust_6="13000.00000" pt_clust_7="13000.00000" pt_clust_8="13000.00000" pt_clust_9="93.92976"></scales>
<clustering>
<clus scale="   79.311">  7  8 -1 -1</clus>
<clus scale="   80.833">  5  6 -1 -1</clus>
<clus scale="   93.930">  1  9  2 -1</clus>
<clus scale="  124.742">  2  7  1 -1</clus>
<clus scale="   93.930">  1  5  2 -1</clus>
</clustering>
</event>
<event>
 9    1  0.6270443E-005  0.1089387E+03  0.7546771E-02  0.1266603E+00
         21   -1    0    0  501  502  0.00000000000E+00  0.00000000000E+00  0.54199479179E+02  0.54199479179E+02  0.00000000000E+00 0.  1.
          1   -1    0    0  502    0 -0.00000000000E+00 -0.00000000000E+00 -0.81374351982E+03  0.81374351982E+03  0.00000000000E+00 0. -1.
         23    2    1    2    0    0 -0.48340043616E+02  0.25509784954E+02 -0.58406508825E+03  0.59360731787E+03  0.90830124829E+02 0.  0.
        -24    2    1    2    0    0  0.51952803430E+02 -0.64511621424E+02 -0.19789331033E+03  0.22920699044E+03  0.80704641192E+02 0.  0.
         13    1    4    4    0    0  0.57214465859E+02 -0.78977566121E+01 -0.11498139513E+03  0.12867241697E+03  0.00000000000E+00 0. -1.
        -14    1    4    4    0    0 -0.52616624285E+01 -0.56613864812E+02 -0.82911915199E+02  0.10053457347E+03  0.00000000000E+00 0.  1.
        -13    1    3    3    0    0 -0.59885863947E+02 -0.16526088152E+02 -0.32131749139E+03  0.32726802252E+03  0.00000000000E+00 0.  1.
         13    1    3    3    0    0  0.11545820331E+02  0.42035873106E+02 -0.26274759686E+03  0.26633929536E+03  0.00000000000E+00 0. -1.
          2    1    1    2  501    0 -0.36127598144E+01  0.39001836470E+02  0.22414357936E+02  0.45128690688E+02  0.00000000000E+00 0. -1.
<scales pt_clust_5="13000.00000" pt_clust_6="13000.00000" pt_clust_7="13000.00000" pt_clust_8="13000.00000" pt_clust_9="39.16880"></scales>
<clustering>
<clus scale="   39.169">  1  9  2 -1</clus>
<clus scale="   80.705">  5  6 -1 -1</clus>
<clus scale="   90.830">  7  8 -1 -1</clus>
<clus scale="  100.652">  1  5  2 -1</clus>
<clus scale="   39.169">  1  5  2 -1</clus>
</clustering>
</event>
<event>
 9    1  0.6270443E-005  0.1499283E+03  0.7546771E-02  0.1202882E+00
          1   -1    0    0  502    0 -0.00000000000E+00  0.00000000000E+00  0.56375682743E+03  0.56375682743E+03  0.00000000000E+00 0. -1.
         21   -1    0    0  501  502  0.00000000000E+00 -0.00000000000E+00 -0.79435594800E+02  0.79435594800E+02  0.00000000000E+00 0. -1.
        -24    2    1    2    0    0  0.11843693373E+03 -0.21908827872E+02  0.42201733353E+03  0.44611205828E+03  0.80062692499E+02 0.  0.
         23    2    1    2    0    0 -0.99127277352E+02  0.53731857378E+02  0.65163728142E+02  0.15974744739E+03  0.92518138057E+02 0.  0.
         13    1    3    3    0    0  0.10340275493E+03 -0.47872985279E+02  0.31533442216E+03  0.33529054601E+03  0.00000000000E+00 0. -1.
        -14    1    3    3    0    0  0.15034178798E+02  0.25964157407E+02  0.10668291138E+03  0.11082151227E+03  0.00000000000E+00 0.  1.
        -11    1    4    4    0    0 -0.38063366871E+02  0.71250712766E+02  0.47907867473E+02  0.93918303503E+02  0.00000000000E+00 0. -1.
         11    1    4    4    0    0 -0.61063910481E+02 -0.17518855388E+02  0.17255860669E+02  0.65829143886E+02  0.00000000000E+00 0.  1.
          2    1    1    2  501    0 -0.19309656378E+02 -0.31823029506E+02 -0.28598290503E+01  0.37332916556E+02  0.00000000000E+00 0. -1.
<scales pt_clust_5="13000.00000" pt_clust_6="13000.00000" pt_clust_7="13000.00000" pt_clust_8="13000.00000" pt_clust_9="37.22322"></scales>
<clustering>
<clus scale="   37.223">  2  9  1 -1</clus>
<clus scale="   80.063">  5  6 -1 -1</clus>
<clus scale="   92.518">  7  8 -1 -1</clus>
<clus scale="  142.580">  1  5  2 -1</clus>
<clus scale="   37.223">  2  5  1 -1</clus>
</clustering>
</event>
<event>
 9    1  0.6270443E-005  0.1530768E+03  0.7546771E-02  0.1216057E+00
         -4   -1    0    0    0  501 -0.00000000000E+00  0.00000000000E+00  0.21717667996E+03  0.21717667996E+03  0.00000000000E+00 0.  1.
         21   -1    0    0  501  502  0.00000000000E+00 -0.00000000000E+00 -0.22138078800E+03  0.22138078800E+03  0.00000000000E+00 0.  1.
        -24    2    1    2    0    0 -0.48142738295E+02  0.38762521139E+02  0.89778688004E+02  0.13519782365E+03  0.79987389035E+02 0.  0.
         23    2    1    2    0    0  0.66562988188E+02 -0.14361408415E+03 -0.56466166812E+02  0.19048514169E+03  0.89668972603E+02 0.  0.
         13    1    3    3    0    0  0.83350823243E+01  0.32016187962E+02  0.55245779393E+01  0.33541479550E+02  0.00000000000E+00 0. -1.
        -14    1    3    3    0    0 -0.56477820619E+02  0.67463331767E+01  0.84254110065E+02  0.10165634410E+03  0.00000000000E+00 0.  1.
        -11    1    4    4    0    0  0.69200657906E+02 -0.72292997282E+02 -0.97309555685E+00  0.10007974533E+03  0.00000000000E+00 0.  1.
         11    1    4    4    0    0 -0.26376697178E+01 -0.71321086873E+02 -0.55493071255E+02  0.90405396363E+02  0.00000000000E+00 0. -1.
         -3    1    1    2    0  502 -0.18420249894E+02  0.10485156302E+03 -0.37516629228E+02  0.11287450262E+03  0.00000000000E+00 0.  1.
<scales pt_clust_5="13000.00000" pt_clust_6="13000.00000" pt_clust_7="13000.00000" pt_clust_8="13000.00000" pt_clust_9="124.06445"></scales>
<clustering>
<clus scale="   79.987">  5  6 -1 -1</clus>
<clus scale="   89.669">  7  8 -1 -1</clus>
<clus scale="  101.085">  1  5  2 -1</clus>
<clus scale="  124.064">  2  9  1 -1</clus>
<clus scale="  124.064">  2  5  1 -1</clus>
</clustering>
</event>
<event>
 9    1  0.6270443E-005  0.1105932E+03  0.7546771E-02  0.1274527E+00
         -4   -1    0    0    0  501 -0.00000000000E+00  0.00000000000E+00  0.21861820090E+03  0.21861820090E+03  0.00000000000E+00 0.  1.
         21   -1    0    0  501  502  0.00000000000E+00 -0.00000000000E+00 -0.19548551663E+03  0.19548551663E+03  0.00000000000E+00 0. -1.
         23    2    1    2    0    0 -0.10596542792E+02  0.70909249310E+01  0.16147727120E+03  0.19538109304E+03  0.10925334993E+03 0.  0.
        -24    2    1    2    0    0  0.58796520171E+02  0.34495788296E+02 -0.83032643998E+02  0.13438933589E+03  0.80740841200E+02 0.  0.
         13    1    4    4    0    0  0.22745574061E+02  0.37539741474E+02 -0.83017088479E-01  0.43893054361E+02  0.00000000000E+00 0. -1.
        -14    1    4    4    0    0  0.36050946110E+02 -0.30439531779E+01 -0.82949626910E+02  0.90496281530E+02  0.00000000000E+00 0.  1.
        -13    1    3    3    0    0 -0.30218860574E+02  0.19426029214E+01  0.17050753008E+03  0.17317554981E+03  0.00000000000E+00 0.  1.
         13    1    3    3    0    0  0.19622317782E+02  0.51483220096E+01 -0.90302588803E+01  0.22205543229E+02  0.00000000000E+00 0. -1.
         -3    1    1    2    0  502 -0.48199977379E+02 -0.41586713227E+02 -0.55311942926E+02  0.84333288603E+02  0.00000000000E+00 0.  1.
<scales pt_clust_5="13000.00000" pt_clust_6="13000.00000" pt_clust_7="13000.00000" pt_clust_8="13000.00000" pt_clust_9="63.66076"></scales>
<clustering>
<clus scale="   63.661">  2  9  1 -1</clus>
<clus scale="   80.741">  5  6 -1 -1</clus>
<clus scale="   82.545">  2  5  1 -1</clus>
<clus scale="  109.253">  7  8 -1 -1</clus>
<clus scale="   63.661">  2  5  1 -1</clus>
</clustering>
</event>
<event>
 9    1  0.6270443E-005  0.1403529E+03  0.7546771E-02  0.1231784E+00
         21   -1    0    0  501  502  0.00000000000E+00  0.00000000000E+00  0.20815057389E+03  0.20815057389E+03  0.00000000000E+00 0. -1.
          1   -1    0    0  502    0 -0.00000000000E+00 -0.00000000000E+00 -0.21637768375E+03  0.21637768375E+03  0.00000000000E+00 0. -1.
        -24    2    1    2    0    0  0.47178527266E+02  0.84970830525E+01 -0.11330185276E+03  0.14751557000E+03  0.81397295401E+02 0.  0.
         23    2    1    2    0    0 -0.25589610932E+02  0.10216942460E+03  0.30381470346E+02  0.14176387180E+03  0.89891835541E+02 0.  0.
         13    1    3    3    0    0  0.32626086556E+02  0.26274974559E+02 -0.11697464856E+03  0.12424936304E+03  0.00000000000E+00 0. -1.
        -14    1    3    3    0    0  0.14552440710E+02 -0.17777891506E+02  0.36727958001E+01  0.23266206954E+02  0.00000000000E+00 0.  1.
        -13    1    4    4    0    0  0.65847790232E+00  0.50184028495E+02  0.58513474495E+02  0.77088890293E+02  0.00000000000E+00 0.  1.
         13    1    4    4    0    0 -0.26248088834E+02  0.51985396104E+02 -0.28132004149E+02  0.64674981507E+02  0.00000000000E+00 0. -1.
          2    1    1    2  501    0 -0.21588916334E+02 -0.11066650765E+03  0.74693272551E+02  0.13524881585E+03  0.00000000000E+00 0. -1.
<scales pt_clust_5="13000.00000" pt_clust_6="13000.00000" pt_clust_7="13000.00000" pt_clust_8="13000.00000" pt_clust_9="107.78866"></scales>
<clustering>
<clus scale="   81.397">  5  6 -1 -1</clus>
<clus scale="   89.892">  7  8 -1 -1</clus>
<clus scale="   94.464">  2  5  1 -1</clus>
<clus scale="  107.789">  1  9  2 -1</clus>
<clus scale="  107.789">  1  5  2 -1</clus>
</clustering>
</event>
<event>
 9    1  0.6270443E-005  0.1774388E+03  0.7546771E-02  0.1198372E+00
         21   -1    0    0  501  502  0.00000000000E+00  0.00000000000E+00  0.35240814567E+03  0.35240814567E+03  0.00000000000E+00 0.  1.
          1   -1    0    0  502    0 -0.00000000000E+00 -0.00000000000E+00 -0.13165011457E+03  0.13165011457E+03  0.00000000000E+00 0. -1.
        -24    2    1    2    0    0 -0.50143976530E+02 -0.26550759679E+02  0.40811672922E+02  0.10326135867E+03  0.76012856317E+02 0.  0.
         23    2    1    2    0    0  0.17236447183E+03  0.54768255396E+02  0.15021459745E+03  0.25188586972E+03  0.90404607895E+02 0.  0.
         11    1    3    3    0    0 -0.60037319804E+02 -0.28553554438E+02  0.54700066323E+02  0.86092290573E+02  0.00000000000E+00 0. -1.
        -12    1    3    3    0    0  0.98933432741E+01  0.20027947585E+01 -0.13888393402E+02  0.17169068095E+02  0.00000000000E+00 0.  1.
        -13    1    4    4    0    0  0.58867350578E+02  0.40877688448E+02  0.12268404566E+02  0.72710825380E+02  0.00000000000E+00 0. -1.
         13    1    4    4    0    0  0.11349712126E+03  0.13890566949E+02  0.13794619288E+03  0.17917504434E+03  0.00000000000E+00 0.  1.
          2    1    1    2  501    0 -0.12222049530E+03 -0.28217495717E+02  0.29731760726E+02  0.12891103185E+03  0.00000000000E+00 0. -1.
<scales pt_clust_5="13000.00000" pt_clust_6="13000.00000" pt_clust_7="13000.00000" pt_clust_8="13000.00000" pt_clust_9="152.68129"></scales>
<clustering>
<clus scale="   76.013">  5  6 -1 -1</clus>
<clus scale="   90.405">  7  8 -1 -1</clus>
<clus scale="   94.854">  2  5  1 -1</clus>
<clus scale="  152.681">  1  9  2 -1</clus>
<clus scale="  152.681">  1  5  2 -1</clus>
</clustering>
</event>
<event>
 9    1  0.6270443E-005  0.9364592E+02  0.7546771E-02  0.1299156E+00
         21   -1    0    0  501  502  0.00000000000E+00  0.00000000000E+00  0.33324002519E+03  0.33324002519E+03  0.00000000000E+00 0.  1.
         -4   -1    0    0    0  501 -0.00000000000E+00 -0.00000000000E+00 -0.70147584093E+02  0.70147584093E+02  0.00000000000E+00 0.  1.
        -24    2    1    2    0    0  0.30967447070E+01 -0.20936374551E+02 -0.18776601989E+02  0.88166721957E+02  0.83503823094E+02 0.  0.
         23    2    1    2    0    0 -0.27669550518E+02 -0.17248208130E+01  0.14158861792E+03  0.17101287699E+03  0.91812245035E+02 0.  0.
         13    1    3    3    0    0  0.35855060179E+02 -0.16653858528E+01 -0.31837336615E+02  0.47978900084E+02  0.00000000000E+00 0. -1.
        -14    1    3    3    0    0 -0.32758315472E+02 -0.19270988698E+02  0.13060734626E+02  0.40187821874E+02  0.00000000000E+00 0.  1.
        -11    1    4    4    0    0 -0.21472459507E+02 -0.33611164196E+02  0.18972527935E+02  0.44167110978E+02  0.00000000000E+00 0.  1.
         11    1    4    4    0    0 -0.61970910113E+01  0.31886343383E+02  0.12261608999E+03  0.12684576601E+03  0.00000000000E+00 0. -1.
         -3    1    1    2    0  502  0.24572805811E+02  0.22661195364E+02  0.14028042517E+03  0.14420801034E+03  0.00000000000E+00 0.  1.
<scales pt_clust_5="13000.00000" pt_clust_6="13000.00000" pt_clust_7="13000.00000" pt_clust_8="13000.00000" pt_clust_9="33.42682"></scales>
<clustering>
<clus scale="   33.427">  1  9  2 -1</clus>
<clus scale="   83.504">  5  6 -1 -1</clus>
<clus scale="   85.516">  2  5  1 -1</clus>
<clus scale="   91.812">  7  8 -1 -1</clus>
<clus scale="   33.427">  1  5  2 -1</clus>
</clustering>
</event>
<event>
 9    1  0.6270443E-005  0.1215312E+03  0.7546771E-02  0.1244344E+00
          1   -1    0    0  502    0 -0.00000000000E+00  0.00000000000E+00  0.16901220750E+03  0.16901220750E+03  0.00000000000E+00 0. -1.
         21   -1    0    0  501  502  0.00000000000E+00 -0.00000000000E+00 -0.15306382310E+03  0.15306382310E+03  0.00000000000E+00 0. -1.
         23    2    1    2    0    0  0.83870916649E+02 -0.74903670815E+01  0.10372172737E+03  0.16226862345E+03  0.92100342932E+02 0.  0.
        -24    2    1    2    0    0 -0.59308231982E+02  0.19952611853E+02 -0.84384223315E+02  0.13205638637E+03  0.80016366670E+02 0.  0.
         13    1    4    4    0    0 -0.63190610093E+02  0.38703589730E+02 -0.41124612918E+02  0.84748184934E+02  0.00000000000E+00 0. -1.
        -14    1    4    4    0    0  0.38823781105E+01 -0.18750977877E+02 -0.43259610397E+02  0.47308201433E+02  0.00000000000E+00 0.  1.
        -11    1    3    3    0    0 -0.18682511271E+02  0.92668486342E+01  0.18524226082E+02  0.27893685001E+02  0.00000000000E+00 0.  1.
         11    1    3    3    0    0  0.10255342792E+03 -0.16757215716E+02  0.85197501288E+02  0.13437493845E+03  0.00000000000E+00 0. -1.
          2    1    1    2  501    0 -0.24562684667E+02 -0.12462244772E+02 -0.33891196584E+01  0.27751020789E+02  0.00000000000E+00 0. -1.
<scales pt_clust_5="13000.00000" pt_clust_6="13000.00000" pt_clust_7="13000.00000" pt_clust_8="13000.00000" pt_clust_9="27.54329"></scales>
<clustering>
<clus scale="   27.543">  2  9  1 -1</clus>
<clus scale="   80.016">  5  6 -1 -1</clus>
<clus scale="   92.100">  7  8 -1 -1</clus>
<clus scale="  112.650">  2  5  1 -1</clus>
<clus scale="   27.543">  2  5  1 -1</clus>
</clustering>
</event>
<event>
 9    1  0.7467267E-005  0.1132807E+03  0.7546771E-02  0.1258582E+00
         21   -1    0    0  501  502  0.00000000000E+00  0.00000000000E+00  0.43744803374E+02  0.43744803374E+02  0.00000000000E+00 0.  1.
         -2   -1    0    0    0  501 -0.00000000000E+00 -0.00000000000E+00 -0.55388081292E+03  0.55388081292E+03  0.00000000000E+00 0.  1.
        -24    2    1    2    0    0  0.61688906664E+02  0.31090814950E+01 -0.19548930878E+03  0.22028247066E+03  0.80579832701E+02 0.  0.
         23    2    1    2    0    0 -0.75296579687E+02  0.45793217194E+02 -0.11489546626E+03  0.17124326871E+03  0.91414961896E+02 0.  0.
         11    1    3    3    0    0  0.32995891035E+02 -0.32629810379E+02 -0.52213645324E+02  0.69854835971E+02  0.00000000000E+00 0. -1.
        -12    1    3    3    0    0  0.28693015629E+02  0.35738891874E+02 -0.14327566346E+03  0.15042763469E+03  0.00000000000E+00 0.  1.
        -11    1    4    4    0    0 -0.54849352377E+02  0.55512098695E+02 -0.30372574010E+02  0.83740896877E+02  0.00000000000E+00 0.  1.
         11    1    4    4    0    0 -0.20447227310E+02 -0.97188815016E+01 -0.84522892252E+02  0.87502371836E+02  0.00000000000E+00 0. -1.
         -1    1    1    2    0  502  0.13607673022E+02 -0.48902298689E+02 -0.19975123451E+03  0.20609987693E+03  0.00000000000E+00 0.  1.
<scales pt_clust_5="13000.00000" pt_clust_6="13000.00000" pt_clust_7="13000.00000" pt_clust_8="13000.00000" pt_clust_9="50.76028"></scales>
<clustering>
<clus scale="   50.760">  1  9  2 -1</clus>
<clus scale="   80.580">  5  6 -1 -1</clus>
<clus scale="   91.415">  7  8 -1 -1</clus>
<clus scale="  104.733">  2  5  1 -1</clus>
<clus scale="   50.760">  1  5  2 -1</clus>
</clustering>
</event>
<event>
 9    1  0.6270443E-005  0.1262533E+03  0.7546771E-02  0.1235625E+00
         21   -1    0    0  501  502  0.00000000000E+00  0.00000000000E+00  0.61496516618E+03  0.61496516618E+03  0.00000000000E+00 0. -1.
         -2   -1    0    0    0  501 -0.00000000000E+00 -0.00000000000E+00 -0.85681624573E+02  0.85681624573E+02  0.00000000000E+00 0.  1.
         23    2    1    2    0    0 -0.54967240320E+02  0.73894112940E+02  0.15730056297E+03  0.20355508649E+03  0.90606118388E+02 0.  0.
        -24    2    1    2    0    0  0.75360396343E+02 -0.38220515013E+02  0.41870704567E+03  0.43486932211E+03  0.81582719451E+02 0.  0.
         13    1    4    4    0    0  0.76740592642E+02 -0.38665520204E+02  0.42232131363E+03  0.43097497950E+03  0.00000000000E+00 0. -1.
        -14    1    4    4    0    0 -0.13801962985E+01  0.44500519097E+00 -0.36142679602E+01  0.38943426057E+01  0.00000000000E+00 0.  1.
        -11    1    3    3    0    0 -0.31374083356E+02  0.62903511358E+02  0.16246520197E+03  0.17702013077E+03  0.00000000000E+00 0. -1.
         11    1    3    3    0    0 -0.23593156964E+02  0.10990601581E+02 -0.51646390043E+01  0.26534955713E+02  0.00000000000E+00 0.  1.
         -1    1    1    2    0  502 -0.20393156023E+02 -0.35673597927E+02 -0.46724067029E+02  0.62222382158E+02  0.00000000000E+00 0.  1.
<scales pt_clust_5="13000.00000" pt_clust_6="13000.00000" pt_clust_7="13000.00000" pt_clust_8="13000.00000" pt_clust_9="41.09122"></scales>
<clustering>
<clus scale="   41.091">  1  9  2 -1</clus>
<clus scale="   81.583">  5  6 -1 -1</clus>
<clus scale="   90.606">  7  8 -1 -1</clus>
<clus scale="  119.942">  1  5  2 -1</clus>
<clus scale="   41.091">  1  5  2 -1</clus>
</clustering>
</event>
<event>
 9    1  0.6270443E-005  0.8526965E+02  0.7546771E-02  0.1318306E+00
          1   -1    0    0  502    0 -0.00000000000E+00  0.00000000000E+00  0.65206978244E+03  0.65206978244E+03  0.00000000000E+00 0. -1.
         21   -1    0    0  501  502  0.00000000000E+00 -0.00000000000E+00 -0.65768083532E+02  0.65768083532E+02  0.00000000000E+00 0. -1.
        -24    2    1    2    0    0 -0.18571464157E+02 -0.15111333020E+02  0.53098221853E+03  0.53717379075E+03  0.77719453217E+02 0.  0.
         23    2    1    2    0    0 -0.49765558764E+02  0.10022796055E+02  0.55501589477E+02  0.11213761994E+03  0.83170620358E+02 0.  0.
         13    1    3    3    0    0 -0.42835293133E+02 -0.30035063226E+02  0.31374392961E+03  0.31807580972E+03  0.00000000000E+00 0. -1.
        -14    1    3    3    0    0  0.24263828976E+02  0.14923730205E+02  0.21723828892E+03  0.21909798103E+03  0.00000000000E+00 0.  1.
        -13    1    4    4    0    0 -0.56291111493E+02  0.37841983887E+02  0.31346210917E+02  0.74721415380E+02  0.00000000000E+00 0. -1.
         13    1    4    4    0    0  0.65255527287E+01 -0.27819187832E+02  0.24155378561E+02  0.37416204557E+02  0.00000000000E+00 0.  1.
          2    1    1    2  501    0  0.68337022921E+02  0.50885369657E+01 -0.18210909773E+00  0.68526455285E+02  0.00000000000E+00 0. -1.
<scales pt_clust_5="13000.00000" pt_clust_6="13000.00000" pt_clust_7="13000.00000" pt_clust_8="13000.00000" pt_clust_9="68.52621"></scales>
<clustering>
<clus scale="   68.526">  2  9  1 -1</clus>
<clus scale="   77.719">  5  6 -1 -1</clus>
<clus scale="   79.962">  1  5  2 -1</clus>
<clus scale="   83.171">  7  8 -1 -1</clus>
<clus scale="   68.526">  2  5  1 -1</clus>
</clustering>
</event>
<event>
 9    1  0.6270443E-005  0.1022561E+03  0.7546771E-02  0.1279336E+00
         21   -1    0    0  501  502  0.00000000000E+00  0.00000000000E+00  0.61507057579E+02  0.61507057579E+02  0.00000000000E+00 0. -1.
          1   -1    0    0  502    0 -0.00000000000E+00 -0.00000000000E+00 -0.27383827862E+03  0.27383827862E+03  0.00000000000E+00 0. -1.
        -24    2    1    2    0    0 -0.20653529323E+02 -0.30582888208E+02 -0.13924048737E+03  0.16639462576E+03  0.83290916863E+02 0.  0.
         23    2    1    2    0    0  0.41845347565E+02  0.59038954532E+02 -0.50704454994E+02  0.12699851927E+03  0.91219794321E+02 0.  0.
         11    1    3    3    0    0 -0.41833695849E+02 -0.15327473326E+02 -0.29126424738E+02  0.53229110127E+02  0.00000000000E+00 0. -1.
        -12    1    3    3    0    0  0.21180166526E+02 -0.15255414882E+02 -0.11011406264E+03  0.11316551563E+03  0.00000000000E+00 0.  1.
        -13    1    4    4    0    0 -0.36648379145E+01  0.69156360499E+02 -0.36373175226E+02  0.78224300000E+02  0.00000000000E+00 0. -1.
         13    1    4    4    0    0  0.45510185479E+02 -0.10117405967E+02 -0.14331279768E+02  0.48774219273E+02  0.00000000000E+00 0.  1.
          2    1    1    2  501    0 -0.21191818241E+02 -0.28456066324E+02 -0.22386278671E+02  0.41952191167E+02  0.00000000000E+00 0. -1.
<scales pt_clust_5="13000.00000" pt_clust_6="13000.00000" pt_clust_7="13000.00000" pt_clust_8="13000.00000" pt_clust_9="35.48015"></scales>
<clustering>
<clus scale="   35.480">  1  9  2 -1</clus>
<clus scale="   83.291">  5  6 -1 -1</clus>
<clus scale="   91.220">  7  8 -1 -1</clus>
<clus scale="   95.250">  2  5  1 -1</clus>
<clus scale="   35.480">  1  5  2 -1</clus>
</clustering>
</event>
<event>
 9    1  0.6270443E-005  0.1385305E+03  0.7546771E-02  0.1217060E+00
         21   -1    0    0  501  502  0.00000000000E+00  0.00000000000E+00  0.17996256076E+03  0.17996256076E+03  0.00000000000E+00 0. -1.
          1   -1    0    0  502    0 -0.00000000000E+00 -0.00000000000E+00 -0.36370390936E+03  0.36370390936E+03  0.00000000000E+00 0. -1.
         23    2    1    2    0    0  0.26028454372E+02  0.10420366598E+03 -0.20136538515E+03  0.24600025856E+03  0.91827144341E+02 0.  0.
        -24    2    1    2    0    0  0.66241140418E+00 -0.10050354998E+03 -0.10760958270E+03  0.16956643573E+03  0.84092517447E+02 0.  0.
         13    1    4    4    0    0 -0.23251099998E+02 -0.23750569552E+02 -0.76422058163E+02  0.83336871666E+02  0.00000000000E+00 0. -1.
        -14    1    4    4    0    0  0.23913511402E+02 -0.76752980431E+02 -0.31187524537E+02  0.86229564068E+02  0.00000000000E+00 0.  1.
        -11    1    3    3    0    0  0.60115630966E+02  0.62133913785E+02 -0.11162306934E+03  0.14118860413E+03  0.00000000000E+00 0. -1.
         11    1    3    3    0    0 -0.34087176594E+02  0.42069752196E+02 -0.89742315807E+02  0.10481165443E+03  0.00000000000E+00 0.  1.
          2    1    1    2  501    0 -0.26690865777E+02 -0.37001159973E+01  0.12523361925E+03  0.12809977582E+03  0.00000000000E+00 0. -1.
<scales pt_clust_5="13000.00000" pt_clust_6="13000.00000" pt_clust_7="13000.00000" pt_clust_8="13000.00000" pt_clust_9="26.94612"></scales>
<clustering>
<clus scale="   26.946">  1  9  2 -1</clus>
<clus scale="   84.093">  5  6 -1 -1</clus>
<clus scale="   91.827">  7  8 -1 -1</clus>
<clus scale="  133.529">  1  5  2 -1</clus>
<clus scale="   26.946">  1  5  2 -1</clus>
</clustering>
</event>
<event>
 9    1  0.6270443E-005  0.9385531E+02  0.7546771E-02  0.1300386E+00
          1   -1    0    0  502    0 -0.00000000000E+00  0.00000000000E+00  0.36570754370E+02  0.36570754370E+02  0.00000000000E+00 0. -1.
         21   -1    0    0  501  502  0.00000000000E+00 -0.00000000000E+00 -0.55510693872E+03  0.55510693872E+03  0.00000000000E+00 0. -1.
        -24    2    1    2    0    0 -0.26963037821E+02  0.93913958518E+01 -0.37662496928E+02  0.92338018567E+02  0.79326176470E+02 0.  0.
         23    2    1    2    0    0 -0.90768036660E+01 -0.25270444430E+02 -0.36116988974E+03  0.37332374879E+03  0.90586690149E+02 0.  0.
         13    1    3    3    0    0 -0.25830902810E+02  0.31049884047E+02  0.85541038043E+01  0.41285633472E+02  0.00000000000E+00 0. -1.
        -14    1    3    3    0    0 -0.11321350104E+01 -0.21658488195E+02 -0.46216600733E+02  0.51052385095E+02  0.00000000000E+00 0.  1.
        -13    1    4    4    0    0 -0.49983151423E+02 -0.12248230302E+02 -0.18870429857E+03  0.19559562079E+03  0.00000000000E+00 0. -1.
         13    1    4    4    0    0  0.40906347757E+02 -0.13022214127E+02 -0.17246559116E+03  0.17772812800E+03  0.00000000000E+00 0.  1.
          2    1    1    2  501    0  0.36039841487E+02  0.15879048578E+02 -0.11970379769E+03  0.12601592573E+03  0.00000000000E+00 0. -1.
<scales pt_clust_5="13000.00000" pt_clust_6="13000.00000" pt_clust_7="13000.00000" pt_clust_8="13000.00000" pt_clust_9="39.38292"></scales>
<clustering>
<clus scale="   39.383">  2  9  1 -1</clus>
<clus scale="   79.326">  5  6 -1 -1</clus>
<clus scale="   83.039">  1  5  2 -1</clus>
<clus scale="   90.587">  7  8 -1 -1</clus>
<clus scale="   39.383">  2  5  1 -1</clus>
</clustering>
</event>
<event>
 9    1  0.6270443E-005  0.1401126E+03  0.7546771E-02  0.1231862E+00
         21   -1    0    0  501  502  0.00000000000E+00  0.00000000000E+00  0.23795768101E+03  0.23795768101E+03  0.00000000000E+00 0.  1.
         -2   -1    0    0    0  501 -0.00000000000E+00 -0.00000000000E+00 -0.16497846027E+03  0.16497846027E+03  0.00000000000E+00 0.  1.
        -24    2    1    2    0    0  0.60841214322E+02 -0.26132685942E+02 -0.59145454056E+02  0.11173610683E+03  0.67839532713E+02 0.  0.
         23    2    1    2    0    0 -0.80768381150E+02 -0.82228726955E+02  0.52823874317E+02  0.15545061553E+03  0.89941298851E+02 0.  0.
         13    1    3    3    0    0  0.55641370646E+02  0.88275033277E+01 -0.22051392547E+02  0.60499180619E+02  0.00000000000E+00 0. -1.
        -14    1    3    3    0    0  0.51998436762E+01 -0.34960189270E+02 -0.37094061509E+02  0.51236926208E+02  0.00000000000E+00 0.  1.
        -13    1    4    4    0    0 -0.32052891800E+02  0.15028627591E+01  0.48913978698E+02  0.58499775908E+02  0.00000000000E+00 0. -1.
         13    1    4    4    0    0 -0.48715489351E+02 -0.83731589714E+02  0.39098956193E+01  0.96950839618E+02  0.00000000000E+00 0.  1.
         -1    1    1    2    0  502  0.19927166828E+02  0.10836141290E+03  0.79300800476E+02  0.13574941893E+03  0.00000000000E+00 0.  1.
<scales pt_clust_5="13000.00000" pt_clust_6="13000.00000" pt_clust_7="13000.00000" pt_clust_8="13000.00000" pt_clust_9="107.43422"></scales>
<clustering>
<clus scale="   67.840">  5  6 -1 -1</clus>
<clus scale="   89.941">  7  8 -1 -1</clus>
<clus scale="   94.799">  2  5  1 -1</clus>
<clus scale="  107.434">  1  9  2 -1</clus>
<clus scale="  107.434">  1  5  2 -1</clus>
</clustering>
</event>
<event>
 9    1  0.6270443E-005  0.1169283E+03  0.7546771E-02  0.1252796E+00
          1   -1    0    0  502    0 -0.00000000000E+00  0.00000000000E+00  0.42130662248E+02  0.42130662248E+02  0.00000000000E+00 0. -1.
         21   -1    0    0  501  502  0.00000000000E+00 -0.00000000000E+00 -0.75160830789E+03  0.75160830789E+03  0.00000000000E+00 0.  1.
         23    2    1    2    0    0  0.47742847603E+02  0.78819927205E+02 -0.21090820634E+03  0.24898216221E+03  0.94962546160E+02 0.  0.
        -24    2    1    2    0    0 -0.51371509895E+02  0.86980078988E+01 -0.40526826721E+03  0.41678155693E+03  0.82157229873E+02 0.  0.
         13    1    4    4    0    0 -0.35939466170E+01  0.23704783532E+02 -0.31059831242E+02  0.39237053041E+02  0.00000000000E+00 0. -1.
        -14    1    4    4    0    0 -0.47777563278E+02 -0.15006775633E+02 -0.37420843597E+03  0.37754450389E+03  0.00000000000E+00 0.  1.
        -11    1    3    3    0    0  0.13061160351E+01 -0.21524352388E+02 -0.29658870907E+02  0.36669501064E+02  0.00000000000E+00 0. -1.
         11    1    3    3    0    0  0.46436731568E+02  0.10034427959E+03 -0.18124933543E+03  0.21231266114E+03  0.00000000000E+00 0.  1.
          2    1    1    2  501    0  0.36286622919E+01 -0.87517935104E+02 -0.93301172093E+02  0.12797525100E+03  0.00000000000E+00 0. -1.
<scales pt_clust_5="13000.00000" pt_clust_6="13000.00000" pt_clust_7="13000.00000" pt_clust_8="13000.00000" pt_clust_9="87.59317"></scales>
<clustering>
<clus scale="   82.157">  5  6 -1 -1</clus>
<clus scale="   87.593">  2  9  1 -1</clus>
<clus scale="   94.963">  7  8 -1 -1</clus>
<clus scale="  106.790">  2  5  1 -1</clus>
<clus scale="   87.593">  2  5  1 -1</clus>
</clustering>
</event>
<event>
 9    1  0.6270443E-005  0.1856165E+03  0.7546771E-02  0.1163556E+00
         21   -1    0    0  501  502  0.00000000000E+00  0.00000000000E+00  0.25356815337E+02  0.25356815337E+02  0.00000000000E+00 0. -1.
          1   -1    0    0  502    0 -0.00000000000E+00 -0.00000000000E+00 -0.18995515840E+04  0.18995515840E+04  0.00000000000E+00 0. -1.
        -24    2    1    2    0    0 -0.13694101127E+03 -0.81953270614E+02 -0.10132372685E+04  0.10290141960E+04  0.82166137452E+02 0.  0.
         23    2    1    2    0    0  0.11097888213E+03  0.12863116043E+03 -0.63547715120E+03  0.66417401580E+03  0.91834774759E+02 0.  0.
         11    1    3    3    0    0 -0.13042945736E+03 -0.95963352672E+02 -0.96074921043E+03  0.97429967348E+03  0.00000000000E+00 0. -1.
        -12    1    3    3    0    0 -0.65115539115E+01  0.14010082058E+02 -0.52488058045E+02  0.54714522487E+02  0.00000000000E+00 0.  1.
        -11    1    4    4    0    0  0.20965855396E+02 -0.13367448826E+02 -0.90427770125E+02  0.93783993253E+02  0.00000000000E+00 0.  1.
         11    1    4    4    0    0  0.90013026738E+02  0.14199860926E+03 -0.54504938107E+03  0.57039002255E+03  0.00000000000E+00 0. -1.
          2    1    1    2  501    0  0.25962129139E+02 -0.46677889816E+02 -0.22548034900E+03  0.23172018758E+03  0.00000000000E+00 0. -1.
<scales pt_clust_5="13000.00000" pt_clust_6="13000.00000" pt_clust_7="13000.00000" pt_clust_8="13000.00000" pt_clust_9="53.41215"></scales>
<clustering>
<clus scale="   53.412">  1  9  2 -1</clus>
<clus scale="   82.166">  5  6 -1 -1</clus>
<clus scale="   91.835">  7  8 -1 -1</clus>
<clus scale="  181.028">  2  5  1 -1</clus>
<clus scale="   53.412">  1  5  2 -1</clus>
</clustering>
</event>
<event>
 9    1  0.6270443E-005  0.3087665E+03  0.7546771E-02  0.1080939E+00
         21   -1    0    0  501  502  0.00000000000E+00  0.00000000000E+00  0.96548191129E+02  0.96548191129E+02  0.00000000000E+00 0. -1.
          1   -1    0    0  502    0 -0.00000000000E+00 -0.00000000000E+00 -0.83907092161E+03  0.83907092161E+03  0.00000000000E+00 0. -1.
        -24    2    1    2    0    0 -0.61403603130E+02  0.85337817498E+02 -0.10133119309E+03  0.16543277390E+03  0.77762757250E+02 0.  0.
         23    2    1    2    0    0 -0.44452198360E+02  0.13905423161E+03 -0.21217437982E+03  0.27459279177E+03  0.95242619506E+02 0.  0.
         13    1    3    3    0    0 -0.22700832444E+02  0.45049388475E+02 -0.83562716765E+00  0.50452685443E+02  0.00000000000E+00 0. -1.
        -14    1    3    3    0    0 -0.38702770686E+02  0.40288429023E+02 -0.10049556592E+03  0.11498008846E+03  0.00000000000E+00 0.  1.
        -13    1    4    4    0    0 -0.22856485320E+02  0.92993906177E+02 -0.57341562533E+02  0.11161693555E+03  0.00000000000E+00 0.  1.
         13    1    4    4    0    0 -0.21595713040E+02  0.46060325430E+02 -0.15483281729E+03  0.16297585622E+03  0.00000000000E+00 0. -1.
          2    1    1    2  501    0  0.10585580149E+03 -0.22439204911E+03 -0.42901715756E+03  0.49559354706E+03  0.00000000000E+00 0. -1.
<scales pt_clust_5="13000.00000" pt_clust_6="13000.00000" pt_clust_7="13000.00000" pt_clust_8="13000.00000" pt_clust_9="248.10744"></scales>
<clustering>
<clus scale="   77.763">  5  6 -1 -1</clus>
<clus scale="   95.243">  7  8 -1 -1</clus>
<clus scale="  108.811">  5  7 -1 -1</clus>
<clus scale="  248.107">  1  9  2 -1</clus>
<clus scale="  248.107">  1  5  2 -1</clus>
</clustering>
</event>
<event>
 9    1  0.6270443E-005  0.1253061E+03  0.7546771E-02  0.1237416E+00
         21   -1    0    0  501  502  0.00000000000E+00  0.00000000000E+00  0.98475011917E+02  0.98475011917E+02  0.00000000000E+00 0. -1.
          1   -1    0    0  502    0 -0.00000000000E+00 -0.00000000000E+00 -0.48017814903E+03  0.48017814903E+03  0.00000000000E+00 0. -1.
        -24    2    1    2    0    0 -0.90990610677E+02 -0.20827069579E+02 -0.16703924751E+03  0.20525955165E+03  0.74271900981E+02 0.  0.
         23    2    1    2    0    0  0.95416602788E+02 -0.85545955590E+02 -0.24884173638E+02  0.15579041428E+03  0.85023481927E+02 0.  0.
         13    1    3    3    0    0 -0.39977079900E+02 -0.36324668804E+02 -0.12874345712E+03  0.13961563749E+03  0.00000000000E+00 0. -1.
        -14    1    3    3    0    0 -0.51013530777E+02  0.15497599226E+02 -0.38295790389E+02  0.65643914155E+02  0.00000000000E+00 0.  1.
        -11    1    4    4    0    0  0.19543977179E+02  0.16612135769E+02 -0.10546780278E+02  0.27733818219E+02  0.00000000000E+00 0.  1.
         11    1    4    4    0    0  0.75872625609E+02 -0.10215809136E+03 -0.14337393360E+02  0.12805659606E+03  0.00000000000E+00 0. -1.
          2    1    1    2  501    0 -0.44259921114E+01  0.10637302517E+03 -0.18977971597E+03  0.21760319502E+03  0.00000000000E+00 0. -1.
<scales pt_clust_5="13000.00000" pt_clust_6="13000.00000" pt_clust_7="13000.00000" pt_clust_8="13000.00000" pt_clust_9="106.46512"></scales>
<clustering>
<clus scale="   74.272">  5  6 -1 -1</clus>
<clus scale="   85.023">  7  8 -1 -1</clus>
<clus scale="  106.465">  1  9  2 -1</clus>
<clus scale="  118.275">  2  5  1 -1</clus>
<clus scale="  106.465">  1  5  2 -1</clus>
</clustering>
</event>
<event>
 9    1  0.6270443E-005  0.1403064E+03  0.7546771E-02  0.1214674E+00
         21   -1    0    0  501  502  0.00000000000E+00  0.00000000000E+00  0.37330955338E+02  0.37330955338E+02  0.00000000000E+00 0. -1.
          1   -1    0    0  502    0 -0.00000000000E+00 -0.00000000000E+00 -0.12941530771E+04  0.12941530771E+04  0.00000000000E+00 0. -1.
         23    2    1    2    0    0 -0.21574680747E+02 -0.83218132295E+02 -0.28899037958E+03  0.31386819193E+03  0.87218564682E+02 0.  0.
        -24    2    1    2    0    0 -0.44039458536E+02  0.15491281230E+03 -0.36101425025E+03  0.40306493868E+03  0.78693091115E+02 0.  0.
         13    1    4    4    0    0 -0.16915494288E+02  0.12565519134E+03 -0.32670644076E+03  0.35044608642E+03  0.00000000000E+00 0. -1.
        -14    1    4    4    0    0 -0.27123964248E+02  0.29257620960E+02 -0.34307809488E+02  0.52618852255E+02  0.00000000000E+00 0.  1.
        -11    1    3    3    0    0 -0.51860137026E+02 -0.74627613211E+02 -0.20876456378E+03  0.22768706058E+03  0.00000000000E+00 0. -1.
         11    1    3    3    0    0  0.30285456279E+02 -0.85905190834E+01 -0.80225815794E+02  0.86181131345E+02  0.00000000000E+00 0.  1.
          2    1    1    2  501    0  0.65614139284E+02 -0.71694680005E+02 -0.60681749191E+03  0.61455090180E+03  0.00000000000E+00 0. -1.
<scales pt_clust_5="13000.00000" pt_clust_6="13000.00000" pt_clust_7="13000.00000" pt_clust_8="13000.00000" pt_clust_9="97.18720"></scales>
<clustering>
<clus scale="   78.693">  5  6 -1 -1</clus>
<clus scale="   87.219">  7  8 -1 -1</clus>
<clus scale="   97.187">  1  9  2 -1</clus>
<clus scale="  135.172">  1  5  2 -1</clus>
<clus scale="   97.187">  1  5  2 -1</clus>
</clustering>
</event>
<event>
 9    1  0.6270443E-005  0.1007642E+03  0.7546771E-02  0.1287027E+00
         21   -1    0    0  501  502  0.00000000000E+00  0.00000000000E+00  0.51460622316E+02  0.51460622316E+02  0.00000000000E+00 0.  1.
          1   -1    0    0  502    0 -0.00000000000E+00 -0.00000000000E+00 -0.31780636290E+03  0.31780636290E+03  0.00000000000E+00 0. -1.
         23    2    1    2    0    0 -0.17365732502E+02 -0.16577107279E+02 -0.17039025790E+03  0.19698812546E+03  0.95891148896E+02 0.  0.
        -24    2    1    2    0    0  0.10610364607E+02  0.40660777916E+02 -0.11083931221E+03  0.14317239024E+03  0.80293844707E+02 0.  0.
         13    1    4    4    0    0  0.56150813125E+01 -0.24421687284E+02 -0.25754670519E+02  0.35933981153E+02  0.00000000000E+00 0. -1.
        -14    1    4    4    0    0  0.49952832947E+01  0.65082465200E+02 -0.85084641686E+02  0.10723840908E+03  0.00000000000E+00 0.  1.
        -11    1    3    3    0    0 -0.25481930043E+02 -0.51192249485E+02 -0.69410816893E+02  0.89932400545E+02  0.00000000000E+00 0. -1.
         11    1    3    3    0    0  0.81161975409E+01  0.34615142206E+02 -0.10097944100E+03  0.10705572492E+03  0.00000000000E+00 0.  1.
          2    1    1    2  501    0  0.67553678947E+01 -0.24083670637E+02  0.14883829517E+02  0.29106469518E+02  0.00000000000E+00 0. -1.
<scales pt_clust_5="13000.00000" pt_clust_6="13000.00000" pt_clust_7="13000.00000" pt_clust_8="13000.00000" pt_clust_9="25.01316"></scales>
<clustering>
<clus scale="   25.013">  1  9  2 -1</clus>
<clus scale="   80.294">  5  6 -1 -1</clus>
<clus scale="   86.055">  1  5  2 -1</clus>
<clus scale="   95.891">  7  8 -1 -1</clus>
<clus scale="   25.013">  1  5  2 -1</clus>
</clustering>
</event>
<event>
 9    1  0.6270443E-005  0.1022130E+03  0.7546771E-02  0.1278352E+00
         21   -1    0    0  501  502  0.00000000000E+00  0.00000000000E+00  0.37566803546E+02  0.37566803546E+02  0.00000000000E+00 0. -1.
          3   -1    0    0  502    0 -0.00000000000E+00 -0.00000000000E+00 -0.54028981153E+03  0.54028981153E+03  0.00000000000E+00 0. -1.
         23    2    1    2    0    0  0.15834087839E+02  0.50628830215E+02 -0.37876807751E+03  0.39325334865E+03  0.91481926612E+02 0.  0.
        -24    2    1    2    0    0 -0.27274344631E+02 -0.11580949144E+02 -0.60077948513E+02  0.10886763864E+03  0.85818381407E+02 0.  0.
         13    1    4    4    0    0 -0.58225413288E+02 -0.13345397465E+02 -0.41309871321E+02  0.72627844899E+02  0.00000000000E+00 0. -1.
        -14    1    4    4    0    0  0.30951068657E+02  0.17644483213E+01 -0.18768077191E+02  0.36239793741E+02  0.00000000000E+00 0.  1.
        -11    1    3    3    0    0  0.26953704572E+02 -0.16784877636E+02 -0.18701230085E+03  0.18968878453E+03  0.00000000000E+00 0.  1.
         11    1    3    3    0    0 -0.11119616732E+02  0.67413707851E+02 -0.19175577667E+03  0.20356456413E+03  0.00000000000E+00 0. -1.
          4    1    1    2  501    0  0.11440256792E+02 -0.39047881071E+02 -0.63876981954E+02  0.75735627779E+02  0.00000000000E+00 0. -1.
<scales pt_clust_5="13000.00000" pt_clust_6="13000.00000" pt_clust_7="13000.00000" pt_clust_8="13000.00000" pt_clust_9="40.68927"></scales>
<clustering>
<clus scale="   40.689">  1  9  2 -1</clus>
<clus scale="   85.818">  5  6 -1 -1</clus>
<clus scale="   91.482">  7  8 -1 -1</clus>
<clus scale="   97.177">  1  5  2 -1</clus>
<clus scale="   40.689">  1  5  2 -1</clus>
</clustering>
</event>
<event>
 9    1  0.6270443E-005  0.3592841E+03  0.7546771E-02  0.1058868E+00
         -4   -1    0    0    0  501 -0.00000000000E+00  0.00000000000E+00  0.33882593301E+03  0.33882593301E+03  0.00000000000E+00 0.  1.
         21   -1    0    0  501  502  0.00000000000E+00 -0.00000000000E+00 -0.40128987550E+03  0.40128987550E+03  0.00000000000E+00 0.  1.
        -24    2    1    2    0    0  0.18499804263E+03  0.56706343917E+02 -0.98987744045E+02  0.23206662607E+03  0.81341626781E+02 0.  0.
         23    2    1    2    0    0  0.10246130779E+03 -0.42220567693E+02 -0.11155973971E+03  0.18436499831E+03  0.96249577397E+02 0.  0.
         13    1    3    3    0    0  0.42861820830E+02  0.44118376355E+02 -0.55622027743E+02  0.82929951087E+02  0.00000000000E+00 0. -1.
        -14    1    3    3    0    0  0.14213622180E+03  0.12587967563E+02 -0.43365716302E+02  0.14913667498E+03  0.00000000000E+00 0.  1.
        -13    1    4    4    0    0  0.22069377546E+02 -0.28877949157E+01 -0.89448196083E+02  0.92175791655E+02  0.00000000000E+00 0.  1.
         13    1    4    4    0    0  0.80391930245E+02 -0.39332772778E+02 -0.22111543624E+02  0.92189206658E+02  0.00000000000E+00 0. -1.
         -3    1    1    2    0  502 -0.28745935042E+03 -0.14485776224E+02  0.14808354127E+03  0.32368418412E+03  0.00000000000E+00 0.  1.
<scales pt_clust_5="13000.00000" pt_clust_6="13000.00000" pt_clust_7="13000.00000" pt_clust_8="13000.00000" pt_clust_9="287.82425"></scales>
<clustering>
<clus scale="   81.342">  5  6 -1 -1</clus>
<clus scale="   96.250">  7  8 -1 -1</clus>
<clus scale="  129.222">  5  7 -1 -1</clus>
<clus scale="  287.824">  2  9  1 -1</clus>
<clus scale="  287.824">  2  5  1 -1</clus>
</clustering>
</event>
<event>
 9    1  0.6270443E-005  0.2816768E+03  0.7546771E-02  0.1132651E+00
         21   -1    0    0  501  502  0.00000000000E+00  0.00000000000E+00  0.12077106904E+03  0.12077106904E+03  0.00000000000E+00 0.  1.
         -2   -1    0    0    0  501 -0.00000000000E+00 -0.00000000000E+00 -0.11077757673E+04  0.11077757673E+04  0.00000000000E+00 0.  1.
        -24    2    1    2    0    0 -0.70847069571E+02 -0.14158642657E+02 -0.15705757227E+03  0.19061846892E+03  0.80302834681E+02 0.  0.
         23    2    1    2    0    0 -0.19138750501E+03  0.11795081725E+03 -0.67260556928E+03  0.71497921805E+03  0.90859551237E+02 0.  0.
         11    1    3    3    0    0 -0.60678604885E+02 -0.13929948937E+02 -0.41970930888E+02  0.75083257839E+02  0.00000000000E+00 0. -1.
        -12    1    3    3    0    0 -0.10168464686E+02 -0.22869371935E+00 -0.11508664139E+03  0.11553521109E+03  0.00000000000E+00 0.  1.
        -13    1    4    4    0    0 -0.49185099819E+02  0.68288745707E+02 -0.16110308253E+03  0.18176008923E+03  0.00000000000E+00 0.  1.
         13    1    4    4    0    0 -0.14220240519E+03  0.49662071544E+02 -0.51150248675E+03  0.53321912882E+03  0.00000000000E+00 0. -1.
         -1    1    1    2    0  502  0.26223457458E+03 -0.10379217459E+03 -0.15734155671E+03  0.32294914937E+03  0.00000000000E+00 0.  1.
<scales pt_clust_5="13000.00000" pt_clust_6="13000.00000" pt_clust_7="13000.00000" pt_clust_8="13000.00000" pt_clust_9="266.62025"></scales>
<clustering>
<clus scale="   80.303">  5  6 -1 -1</clus>
<clus scale="   90.860">  7  8 -1 -1</clus>
<clus scale="  108.020">  2  5  1 -1</clus>
<clus scale="  266.620">  1  9  2 -1</clus>
<clus scale="  266.620">  1  5  2 -1</clus>
</clustering>
</event>
<event>
 9    1  0.6270443E-005  0.9115158E+02  0.7546771E-02  0.1306096E+00
          1   -1    0    0  502    0 -0.00000000000E+00  0.00000000000E+00  0.20972891245E+03  0.20972891245E+03  0.00000000000E+00 0. -1.
         21   -1    0    0  501  502  0.00000000000E+00 -0.00000000000E+00 -0.11388396199E+03  0.11388396199E+03  0.00000000000E+00 0.  1.
         23    2    1    2    0    0 -0.50502898495E+01  0.49210426597E+01  0.59075512762E+02  0.10878482856E+03  0.91074149064E+02 0.  0.
        -24    2    1    2    0    0 -0.18226905863E+02  0.35740736678E+00 -0.67775544359E+02  0.10759305558E+03  0.81549943946E+02 0.  0.
         13    1    4    4    0    0 -0.42152133875E+02  0.62265485645E+01 -0.85643460306E+01  0.43461710967E+02  0.00000000000E+00 0. -1.
        -14    1    4    4    0    0  0.23925228012E+02 -0.58691411977E+01 -0.59211198328E+02  0.64131344608E+02  0.00000000000E+00 0.  1.
        -13    1    3    3    0    0  0.21208350418E+01 -0.35199396204E+02  0.58163559161E+02  0.68018343472E+02  0.00000000000E+00 0. -1.
         13    1    3    3    0    0 -0.71711248913E+01  0.40120438864E+02  0.91195360081E+00  0.40766485085E+02  0.00000000000E+00 0.  1.
          2    1    1    2  501    0  0.23277195712E+02 -0.52784500265E+01  0.10454498205E+03  0.10723499031E+03  0.00000000000E+00 0. -1.
<scales pt_clust_5="13000.00000" pt_clust_6="13000.00000" pt_clust_7="13000.00000" pt_clust_8="13000.00000" pt_clust_9="23.86819"></scales>
<clustering>
<clus scale="   23.868">  2  9  1 -1</clus>
<clus scale="   81.550">  5  6 -1 -1</clus>
<clus scale="   81.636">  2  5  1 -1</clus>
<clus scale="   91.074">  7  8 -1 -1</clus>
<clus scale="   23.868">  2  5  1 -1</clus>
</clustering>
</event>
<event>
 9    1  0.6270443E-005  0.3118876E+03  0.7546771E-02  0.1106632E+00
          1   -1    0    0  502    0 -0.00000000000E+00  0.00000000000E+00  0.27353532148E+04  0.27353532148E+04  0.00000000000E+00 0. -1.
         21   -1    0    0  501  502  0.00000000000E+00 -0.00000000000E+00 -0.57638743750E+02  0.57638743750E+02  0.00000000000E+00 0. -1.
        -24    2    1    2    0    0 -0.95132266973E+02 -0.88892476921E+02  0.77330675398E+03  0.78822162016E+03  0.79611343764E+02 0.  0.
         23    2    1    2    0    0  0.21458057332E+03 -0.20100606844E+03  0.10684470098E+04  0.11119437210E+04  0.91605480694E+02 0.  0.
         11    1    3    3    0    0 -0.96624810391E+02 -0.93679373526E+02  0.77107767441E+03  0.78273428376E+03  0.00000000000E+00 0. -1.
        -12    1    3    3    0    0  0.14925434186E+01  0.47868966053E+01  0.22290795761E+01  0.54873363960E+01  0.00000000000E+00 0.  1.
        -11    1    4    4    0    0  0.17779901187E+03 -0.13995804792E+03  0.91788715563E+03  0.94536637039E+03  0.00000000000E+00 0. -1.
         11    1    4    4    0    0  0.36781561454E+02 -0.61048020519E+02  0.15055985413E+03  0.16657735065E+03  0.00000000000E+00 0.  1.
          2    1    1    2  501    0 -0.11944830635E+03  0.28989854536E+03  0.83596070729E+03  0.89282661734E+03  0.00000000000E+00 0. -1.
<scales pt_clust_5="13000.00000" pt_clust_6="13000.00000" pt_clust_7="13000.00000" pt_clust_8="13000.00000" pt_clust_9="298.13138"></scales>
<clustering>
<clus scale="   79.611">  5  6 -1 -1</clus>
<clus scale="   91.605">  7  8 -1 -1</clus>
<clus scale="  152.611">  1  5  2 -1</clus>
<clus scale="  298.131">  2  9  1 -1</clus>
<clus scale="  298.131">  2  5  1 -1</clus>
</clustering>
</event>
<event>
 9    1  0.6270443E-005  0.2634428E+03  0.7546771E-02  0.1106094E+00
         21   -1    0    0  501  502  0.00000000000E+00  0.00000000000E+00  0.35070110647E+02  0.35070110647E+02  0.00000000000E+00 0. -1.
          1   -1    0    0  502    0 -0.00000000000E+00 -0.00000000000E+00 -0.21585129220E+04  0.21585129220E+04  0.00000000000E+00 0. -1.
        -24    2    1    2    0    0 -0.25202521033E+03 -0.44081107463E+02 -0.11404852263E+04  0.11712625357E+04  0.75428941736E+02 0.  0.
         23    2    1    2    0    0  0.22905053556E+03  0.40720653814E+02 -0.82024213646E+03  0.85795673722E+03  0.95761584305E+02 0.  0.
         13    1    3    3    0    0 -0.15213668118E+03 -0.30806707676E+02 -0.52087873893E+03  0.54351567012E+03  0.00000000000E+00 0. -1.
        -14    1    3    3    0    0 -0.99888529143E+02 -0.13274399788E+02 -0.61960648742E+03  0.62774686554E+03  0.00000000000E+00 0.  1.
        -11    1    4    4    0    0  0.59012704323E+02  0.52652122793E+02 -0.31314228902E+03  0.32297498120E+03  0.00000000000E+00 0.  1.
         11    1    4    4    0    0  0.17003783124E+03 -0.11931468979E+02 -0.50709984744E+03  0.53498175603E+03  0.00000000000E+00 0. -1.
          2    1    1    2  501    0  0.22974674761E+02  0.33604536490E+01 -0.16271544851E+03  0.16436375973E+03  0.00000000000E+00 0. -1.
<scales pt_clust_5="13000.00000" pt_clust_6="13000.00000" pt_clust_7="13000.00000" pt_clust_8="13000.00000" pt_clust_9="23.21915"></scales>
<clustering>
<clus scale="   23.219">  1  9  2 -1</clus>
<clus scale="   75.429">  5  6 -1 -1</clus>
<clus scale="   95.762">  7  8 -1 -1</clus>
<clus scale="  256.752">  2  5  1 -1</clus>
<clus scale="   23.219">  1  5  2 -1</clus>
</clustering>
</event>
<event>
 9    1  0.6270443E-005  0.1265562E+03  0.7546771E-02  0.1239042E+00
          1   -1    0    0  502    0 -0.00000000000E+00  0.00000000000E+00  0.52260345334E+03  0.52260345334E+03  0.00000000000E+00 0. -1.
         21   -1    0    0  501  502  0.00000000000E+00 -0.00000000000E+00 -0.12664520067E+03  0.12664520067E+03  0.00000000000E+00 0. -1.
        -24    2    1    2    0    0  0.49828109489E+02 -0.57621962866E+02  0.42084819212E+03  0.43520470439E+03  0.80540690429E+02 0.  0.
         23    2    1    2    0    0  0.31420918357E+00  0.10302324554E+03 -0.25506658060E+02  0.14639848464E+03  0.10083669397E+03 0.  0.
         11    1    3    3    0    0  0.69210954613E+02 -0.49138881144E+02  0.27417820080E+03  0.28701650070E+03  0.00000000000E+00 0. -1.
        -12    1    3    3    0    0 -0.19382845124E+02 -0.84830817218E+01  0.14666999132E+03  0.14818820369E+03  0.00000000000E+00 0.  1.
        -13    1    4    4    0    0 -0.45211423871E+02  0.82152610909E+02 -0.12066714953E+02  0.94544856747E+02  0.00000000000E+00 0. -1.
         13    1    4    4    0    0  0.45525633054E+02  0.20870634629E+02 -0.13439943107E+02  0.51853627892E+02  0.00000000000E+00 0.  1.
          2    1    1    2  501    0 -0.50142318673E+02 -0.45401282673E+02  0.61671861849E+00  0.67645464978E+02  0.00000000000E+00 0. -1.
<scales pt_clust_5="13000.00000" pt_clust_6="13000.00000" pt_clust_7="13000.00000" pt_clust_8="13000.00000" pt_clust_9="67.64265"></scales>
<clustering>
<clus scale="   67.643">  2  9  1 -1</clus>
<clus scale="   80.541">  5  6 -1 -1</clus>
<clus scale="  100.837">  7  8 -1 -1</clus>
<clus scale="  111.064">  1  5  2 -1</clus>
<clus scale="   67.643">  2  5  1 -1</clus>
</clustering>
</event>
<event>
 9    1  0.6270443E-005  0.3374894E+03  0.7546771E-02  0.1068244E+00
          1   -1    0    0  502    0 -0.00000000000E+00  0.00000000000E+00  0.18765063023E+04  0.18765063023E+04  0.00000000000E+00 0. -1.
         21   -1    0    0  501  502  0.00000000000E+00 -0.00000000000E+00 -0.92264627782E+02  0.92264627782E+02  0.00000000000E+00 0. -1.
         23    2    1    2    0    0 -0.19785942551E+03  0.25666331739E+03  0.11986306837E+04  0.12450009828E+04  0.91035820685E+02 0.  0.
        -24    2    1    2    0    0  0.16282662610E+03 -0.28702331902E+03  0.36394563377E+03  0.49730900744E+03  0.77232950956E+02 0.  0.
         11    1    4    4    0    0  0.13740474377E+03 -0.27647748465E+03  0.31447393590E+03  0.44069685668E+03  0.00000000000E+00 0. -1.
        -12    1    4    4    0    0  0.25421882324E+02 -0.10545834372E+02  0.49471697864E+02  0.56612150754E+02  0.00000000000E+00 0.  1.
        -11    1    3    3    0    0 -0.65112799510E+02  0.75427920759E+02  0.53985895359E+03  0.54897790271E+03  0.00000000000E+00 0.  1.
         11    1    3    3    0    0 -0.13274662600E+03  0.18123539663E+03  0.65877173010E+03  0.69602308013E+03  0.00000000000E+00 0. -1.
          2    1    1    2  501    0  0.35032799412E+02  0.30360001631E+02  0.22166535705E+03  0.22646093979E+03  0.00000000000E+00 0. -1.
<scales pt_clust_5="13000.00000" pt_clust_6="13000.00000" pt_clust_7="13000.00000" pt_clust_8="13000.00000" pt_clust_9="46.35762"></scales>
<clustering>
<clus scale="   46.358">  2  9  1 -1</clus>
<clus scale="   77.233">  5  6 -1 -1</clus>
<clus scale="   91.036">  7  8 -1 -1</clus>
<clus scale="  334.031">  2  5  1 -1</clus>
<clus scale="   46.358">  2  5  1 -1</clus>
</clustering>
</event>
<event>
 9    1  0.6270443E-005  0.1637332E+03  0.7546771E-02  0.1206155E+00
          1   -1    0    0  502    0 -0.00000000000E+00  0.00000000000E+00  0.14512271807E+03  0.14512271807E+03  0.00000000000E+00 0. -1.
         21   -1    0    0  501  502  0.00000000000E+00 -0.00000000000E+00 -0.33278980247E+03  0.33278980247E+03  0.00000000000E+00 0.  1.
         23    2    1    2    0    0 -0.22673432571E+02 -0.43619265530E+02 -0.99419031010E+02  0.14244600104E+03  0.89386769804E+02 0.  0.
        -24    2    1    2    0    0 -0.12120639529E+03 -0.53767898108E+02 -0.55045576477E+02  0.15858218164E+03  0.67352176784E+02 0.  0.
         13    1    4    4    0    0 -0.64322656672E+02 -0.36849472482E+00 -0.47969738436E+02  0.80241110132E+02  0.00000000000E+00 0. -1.
        -14    1    4    4    0    0 -0.56883738622E+02 -0.53399403383E+02 -0.70758380417E+01  0.78341071510E+02  0.00000000000E+00 0.  1.
        -13    1    3    3    0    0  0.25547958154E+02 -0.12031660179E+02 -0.74447793041E+02  0.79623695601E+02  0.00000000000E+00 0.  1.
         13    1    3    3    0    0 -0.48221390725E+02 -0.31587605352E+02 -0.24971237969E+02  0.62822305441E+02  0.00000000000E+00 0. -1.
          2    1    1    2  501    0  0.14387982786E+03  0.97387163638E+02 -0.33202476909E+02  0.17688433786E+03  0.00000000000E+00 0. -1.
<scales pt_clust_5="13000.00000" pt_clust_6="13000.00000" pt_clust_7="13000.00000" pt_clust_8="13000.00000" pt_clust_9="149.23891"></scales>
<clustering>
<clus scale="   67.352">  5  6 -1 -1</clus>
<clus scale="   89.387">  7  8 -1 -1</clus>
<clus scale="  102.013">  1  7  2 -1</clus>
<clus scale="  149.239">  2  9  1 -1</clus>
<clus scale="  149.239">  2  5  1 -1</clus>
</clustering>
</event>
<event>
 9    1  0.6270443E-005  0.1144648E+03  0.7546771E-02  0.1258759E+00
         21   -1    0    0  501  502  0.00000000000E+00  0.00000000000E+00  0.12123560707E+03  0.12123560707E+03  0.00000000000E+00 0. -1.
          1   -1    0    0  502    0 -0.00000000000E+00 -0.00000000000E+00 -0.37778517199E+03  0.37778517199E+03  0.00000000000E+00 0. -1.
        -24    2    1    2    0    0  0.74460833769E+02  0.26839853160E+02 -0.13013839363E+03  0.17250444772E+03  0.80975240067E+02 0.  0.
         23    2    1    2    0    0  0.26148920550E+02 -0.22521752469E+02  0.56651976715E+02  0.11758312475E+03  0.97084238580E+02 0.  0.
         11    1    3    3    0    0  0.70587536975E+02  0.29739805349E+02 -0.14108468614E+03  0.16053642908E+03  0.00000000000E+00 0. -1.
        -12    1    3    3    0    0  0.38732967935E+01 -0.28999521882E+01  0.10946292504E+02  0.11968018647E+02  0.00000000000E+00 0.  1.
        -11    1    4    4    0    0  0.13777848748E+02 -0.58502201119E+02  0.16628240511E+02  0.62360524648E+02  0.00000000000E+00 0.  1.
         11    1    4    4    0    0  0.12371071802E+02  0.35980448650E+02  0.40023736204E+02  0.55222600104E+02  0.00000000000E+00 0. -1.
          2    1    1    2  501    0 -0.10060975432E+03 -0.43181006912E+01 -0.18306314800E+03  0.20893320658E+03  0.00000000000E+00 0. -1.
<scales pt_clust_5="13000.00000" pt_clust_6="13000.00000" pt_clust_7="13000.00000" pt_clust_8="13000.00000" pt_clust_9="100.70243"></scales>
<clustering>
<clus scale="   80.975">  5  6 -1 -1</clus>
<clus scale="   97.084">  7  8 -1 -1</clus>
<clus scale="  100.702">  1  9  2 -1</clus>
<clus scale="  101.162">  2  5  1 -1</clus>
<clus scale="  100.702">  1  5  2 -1</clus>
</clustering>
</event>
<event>
 9    1  0.6270443E-005  0.1187564E+03  0.7546771E-02  0.1260196E+00
         21   -1    0    0  501  502  0.00000000000E+00  0.00000000000E+00  0.13935827601E+03  0.13935827601E+03  0.00000000000E+00 0. -1.
          1   -1    0    0  502    0 -0.00000000000E+00 -0.00000000000E+00 -0.19177006661E+03  0.19177006661E+03  0.00000000000E+00 0. -1.
        -24    2    1    2    0    0 -0.11457069596E+02 -0.34634398093E+02 -0.85695166089E+02  0.12287585732E+03  0.80149914830E+02 0.  0.
         23    2    1    2    0    0 -0.51209366769E+02 -0.35874772750E+02  0.30261134268E+02  0.11387155839E+03  0.90230798505E+02 0.  0.
         13    1    3    3    0    0 -0.30298456623E+02  0.98772589076E+01 -0.60472424881E+02  0.68355474457E+02  0.00000000000E+00 0. -1.
        -14    1    3    3    0    0  0.18841387027E+02 -0.44511657000E+02 -0.25222741209E+02  0.54520382868E+02  0.00000000000E+00 0.  1.
        -11    1    4    4    0    0 -0.24067345297E+02  0.14621733159E+02  0.46433255947E+02  0.54305427427E+02  0.00000000000E+00 0. -1.
         11    1    4    4    0    0 -0.27142021473E+02 -0.50496505909E+02 -0.16172121679E+02  0.59566130966E+02  0.00000000000E+00 0.  1.
          2    1    1    2  501    0  0.62666436366E+02  0.70509170843E+02  0.30222412216E+01  0.94380926896E+02  0.00000000000E+00 0. -1.
<scales pt_clust_5="13000.00000" pt_clust_6="13000.00000" pt_clust_7="13000.00000" pt_clust_8="13000.00000" pt_clust_9="77.21074"></scales>
<clustering>
<clus scale="   80.150">  5  6 -1 -1</clus>
<clus scale="   88.061">  2  5  1 -1</clus>
<clus scale="   77.211">  1  9  2 -1</clus>
<clus scale="   90.231">  7  8 -1 -1</clus>
<clus scale="   77.211">  1  5  2 -1</clus>
</clustering>
</event>
<event>
 9    1  0.1301129E-004  0.9853029E+02  0.7546771E-02  0.1289943E+00
          3   -1    0    0  502    0 -0.00000000000E+00  0.00000000000E+00  0.42447012650E+03  0.42447012650E+03  0.00000000000E+00 0. -1.
         21   -1    0    0  501  502  0.00000000000E+00 -0.00000000000E+00 -0.21596716684E+03  0.21596716684E+03  0.00000000000E+00 0. -1.
         23    2    1    2    0    0  0.27342961422E+02  0.26199860673E+02  0.39983468708E+03  0.41179503360E+03  0.90957696025E+02 0.  0.
        -24    2    1    2    0    0 -0.63790996071E+01 -0.47733570224E+02 -0.12011251653E+03  0.15134180600E+03  0.78473810767E+02 0.  0.
         11    1    4    4    0    0  0.15480973068E+01 -0.61153133084E+02 -0.48538030851E+02  0.78089965617E+02  0.00000000000E+00 0. -1.
        -12    1    4    4    0    0 -0.79271969138E+01  0.13419562860E+02 -0.71574485682E+02  0.73251840379E+02  0.00000000000E+00 0.  1.
        -13    1    3    3    0    0  0.43380970345E+02  0.52011940787E+02  0.25803221727E+03  0.26677289165E+03  0.00000000000E+00 0. -1.
         13    1    3    3    0    0 -0.16038008923E+02 -0.25812080114E+02  0.14180246981E+03  0.14502214195E+03  0.00000000000E+00 0.  1.
          4    1    1    2  501    0 -0.20963861815E+02  0.21533709550E+02 -0.71219210887E+02  0.77300453741E+02  0.00000000000E+00 0. -1.
<scales pt_clust_5="13000.00000" pt_clust_6="13000.00000" pt_clust_7="13000.00000" pt_clust_8="13000.00000" pt_clust_9="30.05302"></scales>
<clustering>
<clus scale="   30.053">  2  9  1 -1</clus>
<clus scale="   78.474">  5  6 -1 -1</clus>
<clus scale="   87.138">  2  5  1 -1</clus>
<clus scale="   90.958">  7  8 -1 -1</clus>
<clus scale="   30.053">  2  5  1 -1</clus>
</clustering>
</event>
<event>
 9    1  0.6270443E-005  0.2253337E+03  0.7546771E-02  0.1166834E+00
         -2   -1    0    0    0  501 -0.00000000000E+00  0.00000000000E+00  0.66496149040E+03  0.66496149040E+03  0.00000000000E+00 0.  1.
         21   -1    0    0  501  502  0.00000000000E+00 -0.00000000000E+00 -0.10524145141E+03  0.10524145141E+03  0.00000000000E+00 0. -1.
         23    2    1    2    0    0  0.51664052939E+01 -0.71692173232E+01  0.11383674893E+03  0.14751396072E+03  0.93399538427E+02 0.  0.
        -24    2    1    2    0    0  0.17446543180E+03 -0.10677413593E+03  0.21572567846E+03  0.30928315661E+03  0.85320569731E+02 0.  0.
         11    1    4    4    0    0  0.13100451068E+03 -0.11251560982E+03  0.19596233155E+03  0.26119567312E+03  0.00000000000E+00 0. -1.
        -12    1    4    4    0    0  0.43460921119E+02  0.57414738897E+01  0.19763346907E+02  0.48087483484E+02  0.00000000000E+00 0.  1.
        -13    1    3    3    0    0  0.50607146105E+01 -0.30693446043E+02  0.11936225111E+03  0.12334928233E+03  0.00000000000E+00 0. -1.
         13    1    3    3    0    0  0.10569068342E+00  0.23524228720E+02 -0.55255021716E+01  0.24164678389E+02  0.00000000000E+00 0.  1.
         -1    1    1    2    0  502 -0.17963183709E+03  0.11394335326E+03  0.23015761159E+03  0.31340582448E+03  0.00000000000E+00 0.  1.
<scales pt_clust_5="13000.00000" pt_clust_6="13000.00000" pt_clust_7="13000.00000" pt_clust_8="13000.00000" pt_clust_9="208.55623"></scales>
<clustering>
<clus scale="   85.321">  5  6 -1 -1</clus>
<clus scale="   93.400">  7  8 -1 -1</clus>
<clus scale="   93.817">  1  7  2 -1</clus>
<clus scale="  208.556">  2  9  1 -1</clus>
<clus scale="  208.556">  2  5  1 -1</clus>
</clustering>
</event>
<event>
 9    1  0.6270443E-005  0.1077755E+03  0.7546771E-02  0.1271752E+00
          3   -1    0    0  502    0 -0.00000000000E+00  0.00000000000E+00  0.27476838276E+03  0.27476838276E+03  0.00000000000E+00 0. -1.
         21   -1    0    0  501  502  0.00000000000E+00 -0.00000000000E+00 -0.96963398154E+02  0.96963398154E+02  0.00000000000E+00 0. -1.
         23    2    1    2    0    0 -0.43784070523E+02  0.29520990120E+02  0.14518568495E+03  0.18119926909E+03  0.94687688303E+02 0.  0.
        -24    2    1    2    0    0  0.56864107483E+02  0.68607951528E+01 -0.42344855546E+02  0.10618592783E+03  0.78751299970E+02 0.  0.
         13    1    4    4    0    0  0.61281431699E+02  0.32062413099E+02 -0.19432163893E+02  0.71840247761E+02  0.00000000000E+00 0. -1.
        -14    1    4    4    0    0 -0.44173242159E+01 -0.25201617946E+02 -0.22912691653E+02  0.34345680065E+02  0.00000000000E+00 0.  1.
        -11    1    3    3    0    0 -0.82512358817E+01 -0.18624823572E+02  0.10981609650E+03  0.11168948920E+03  0.00000000000E+00 0.  1.
         11    1    3    3    0    0 -0.35532834641E+02  0.48145813692E+02  0.35369588444E+02  0.69509779890E+02  0.00000000000E+00 0. -1.
          4    1    1    2  501    0 -0.13080036960E+02 -0.36381785272E+02  0.74964155208E+02  0.84346584001E+02  0.00000000000E+00 0. -1.
<scales pt_clust_5="13000.00000" pt_clust_6="13000.00000" pt_clust_7="13000.00000" pt_clust_8="13000.00000" pt_clust_9="38.66165"></scales>
<clustering>
<clus scale="   38.662">  2  9  1 -1</clus>
<clus scale="   78.751">  5  6 -1 -1</clus>
<clus scale="   94.083">  2  5  1 -1</clus>
<clus scale="   94.688">  7  8 -1 -1</clus>
<clus scale="   38.662">  2  5  1 -1</clus>
</clustering>
</event>
<event>
 9    1  0.6270443E-005  0.9409143E+02  0.7546771E-02  0.1295966E+00
         21   -1    0    0  501  502  0.00000000000E+00  0.00000000000E+00  0.13272113655E+03  0.13272113655E+03  0.00000000000E+00 0.  1.
         -2   -1    0    0    0  501 -0.00000000000E+00 -0.00000000000E+00 -0.16478389832E+03  0.16478389832E+03  0.00000000000E+00 0.  1.
         23    2    1    2    0    0  0.56637067408E+01  0.13111700061E+02 -0.13921911640E+02  0.82818369448E+02  0.80380771592E+02 0.  0.
        -24    2    1    2    0    0 -0.60864654043E+02 -0.70157307550E+02  0.17866621002E+02  0.12752082409E+03  0.85532394548E+02 0.  0.
         13    1    4    4    0    0  0.13456726321E+02 -0.21939806186E+02 -0.18560152320E+02  0.31731968627E+02  0.00000000000E+00 0. -1.
        -14    1    4    4    0    0 -0.74321380365E+02 -0.48217501363E+02  0.36426773322E+02  0.95788855467E+02  0.00000000000E+00 0.  1.
        -13    1    3    3    0    0  0.42871779883E+02  0.26201384488E+01 -0.84313208621E+01  0.43771472528E+02  0.00000000000E+00 0.  1.
         13    1    3    3    0    0 -0.37208073142E+02  0.10491561612E+02 -0.54905907782E+01  0.39046896920E+02  0.00000000000E+00 0. -1.
         -1    1    1    2    0  502  0.55200947303E+02  0.57045607489E+02 -0.36007471135E+02  0.87165841328E+02  0.00000000000E+00 0.  1.
<scales pt_clust_5="13000.00000" pt_clust_6="13000.00000" pt_clust_7="13000.00000" pt_clust_8="13000.00000" pt_clust_9="79.38106"></scales>
<clustering>
<clus scale="   79.381">  1  9  2 -1</clus>
<clus scale="   80.381">  7  8 -1 -1</clus>
<clus scale="   85.532">  5  6 -1 -1</clus>
<clus scale="   89.434">  2  7  1 -1</clus>
<clus scale="   79.381">  1  5  2 -1</clus>
</clustering>
</event>
<event>
 9    1  0.6270443E-005  0.1166723E+03  0.7546771E-02  0.1253189E+00
          1   -1    0    0  502    0 -0.00000000000E+00  0.00000000000E+00  0.41039785444E+03  0.41039785444E+03  0.00000000000E+00 0. -1.
         21   -1    0    0  501  502  0.00000000000E+00 -0.00000000000E+00 -0.41134917662E+02  0.41134917662E+02  0.00000000000E+00 0.  1.
         23    2    1    2    0    0 -0.57466902182E+02  0.48775652117E+02  0.25687446624E+03  0.28376974723E+03  0.94123689659E+02 0.  0.
        -24    2    1    2    0    0  0.53467032066E+02 -0.25507216108E+02  0.86422579467E+02  0.13266820225E+03  0.81379653816E+02 0.  0.
         13    1    4    4    0    0  0.20100329151E+02 -0.47084707037E+02  0.75918607378E+02  0.91567613352E+02  0.00000000000E+00 0. -1.
        -14    1    4    4    0    0  0.33366702915E+02  0.21577490929E+02  0.10503972089E+02  0.41100588899E+02  0.00000000000E+00 0.  1.
        -11    1    3    3    0    0 -0.79350024505E+02  0.52148791602E+02  0.17672504118E+03  0.20061820215E+03  0.00000000000E+00 0. -1.
         11    1    3    3    0    0  0.21883122324E+02 -0.33731394856E+01  0.80149425056E+02  0.83151545081E+02  0.00000000000E+00 0.  1.
          2    1    1    2  501    0  0.39998701157E+01 -0.23268436009E+02  0.25965891076E+02  0.35094822618E+02  0.00000000000E+00 0. -1.
<scales pt_clust_5="13000.00000" pt_clust_6="13000.00000" pt_clust_7="13000.00000" pt_clust_8="13000.00000" pt_clust_9="23.60972"></scales>
<clustering>
<clus scale="   23.610">  2  9  1 -1</clus>
<clus scale="   81.380">  5  6 -1 -1</clus>
<clus scale="   94.124">  7  8 -1 -1</clus>
<clus scale="  106.657">  2  5  1 -1</clus>
<clus scale="   23.610">  2  5  1 -1</clus>
</clustering>
</event>
<event>
 9    1  0.6270443E-005  0.9334058E+02  0.7546771E-02  0.1302785E+00
         -2   -1    0    0    0  501 -0.00000000000E+00  0.00000000000E+00  0.97523160609E+02  0.97523160609E+02  0.00000000000E+00 0.  1.
         21   -1    0    0  501  502  0.00000000000E+00 -0.00000000000E+00 -0.13696960707E+03  0.13696960707E+03  0.00000000000E+00 0.  1.
         23    2    1    2    0    0 -0.10088534060E+01 -0.58602818921E+01  0.32142972936E+02  0.98764942946E+02  0.93198618857E+02 0.  0.
        -24    2    1    2    0    0 -0.20819917352E+02 -0.10869650718E+02 -0.67889457416E+02  0.10797758876E+03  0.80613664977E+02 0.  0.
         13    1    4    4    0    0  0.31033455101E+02 -0.25879213283E+01 -0.20829564777E+02  0.37465229761E+02  0.00000000000E+00 0. -1.
        -14    1    4    4    0    0 -0.51853372452E+02 -0.82817293897E+01 -0.47059892639E+02  0.70512358999E+02  0.00000000000E+00 0.  1.
        -11    1    3    3    0    0  0.44335302945E+02 -0.99633683658E+01  0.48928742859E+01  0.45703698047E+02  0.00000000000E+00 0. -1.
         11    1    3    3    0    0 -0.45344156351E+02  0.41030864737E+01  0.27250098650E+02  0.53061244899E+02  0.00000000000E+00 0.  1.
         -1    1    1    2    0  502  0.21828770758E+02  0.16729932610E+02 -0.36999619819E+01  0.27750235974E+02  0.00000000000E+00 0.  1.
<scales pt_clust_5="13000.00000" pt_clust_6="13000.00000" pt_clust_7="13000.00000" pt_clust_8="13000.00000" pt_clust_9="27.50248"></scales>
<clustering>
<clus scale="   27.502">  2  9  1 -1</clus>
<clus scale="   80.614">  5  6 -1 -1</clus>
<clus scale="   80.778">  2  5  1 -1</clus>
<clus scale="   93.199">  7  8 -1 -1</clus>
<clus scale="   27.502">  2  5  1 -1</clus>
</clustering>
</event>
<event>
 9    1  0.6270443E-005  0.1297100E+03  0.7546771E-02  0.1249512E+00
         -2   -1    0    0    0  501 -0.00000000000E+00  0.00000000000E+00  0.13718553969E+03  0.13718553969E+03  0.00000000000E+00 0.  1.
         21   -1    0    0  501  502  0.00000000000E+00 -0.00000000000E+00 -0.67230928507E+03  0.67230928507E+03  0.00000000000E+00 0.  1.
        -24    2    1    2    0    0  0.16853671004E+02 -0.17807991294E+02  0.10174003199E+03  0.13163249007E+03  0.79843018183E+02 0.  0.
         23    2    1    2    0    0 -0.64119212624E+01 -0.74472071626E+02 -0.22352190870E+03  0.25421609011E+03  0.95271058634E+02 0.  0.
         13    1    3    3    0    0 -0.28222578847E+02 -0.24629540699E+02  0.52922417739E+02  0.64837570368E+02  0.00000000000E+00 0. -1.
        -14    1    3    3    0    0  0.45076249851E+02  0.68215494059E+01  0.48817614252E+02  0.66794919704E+02  0.00000000000E+00 0.  1.
        -11    1    4    4    0    0  0.31815438290E+01 -0.40208420504E+02 -0.15558649026E+02  0.43230901680E+02  0.00000000000E+00 0.  1.
         11    1    4    4    0    0 -0.95934650914E+01 -0.34263651122E+02 -0.20796325968E+03  0.21098518843E+03  0.00000000000E+00 0. -1.
         -1    1    1    2    0  502 -0.10441749741E+02  0.92280062920E+02 -0.41334186867E+03  0.42364624458E+03  0.00000000000E+00 0.  1.
<scales pt_clust_5="13000.00000" pt_clust_6="13000.00000" pt_clust_7="13000.00000" pt_clust_8="13000.00000" pt_clust_9="88.02332"></scales>
<clustering>
<clus scale="   79.843">  5  6 -1 -1</clus>
<clus scale="   83.523">  1  5  2 -1</clus>
<clus scale="   88.023">  2  9  1 -1</clus>
<clus scale="   95.271">  7  8 -1 -1</clus>
<clus scale="   88.023">  2  5  1 -1</clus>
</clustering>
</event>
<event>
 9    1  0.6270443E-005  0.1267340E+03  0.7546771E-02  0.1248452E+00
         -2   -1    0    0    0  501 -0.00000000000E+00  0.00000000000E+00  0.63303440401E+02  0.63303440401E+02  0.00000000000E+00 0.  1.
         21   -1    0    0  501  502  0.00000000000E+00 -0.00000000000E+00 -0.11375672467E+04  0.11375672467E+04  0.00000000000E+00 0. -1.
         23    2    1    2    0    0 -0.47807763638E+01  0.35196576969E+01  0.10795347845E+02  0.92101787573E+02  0.91274070393E+02 0.  0.
        -24    2    1    2    0    0 -0.45879892087E+02  0.82057326547E+02 -0.48983361558E+03  0.50529283097E+03  0.80904293716E+02 0.  0.
         13    1    4    4    0    0 -0.25919719161E+02  0.89625679021E+02 -0.45477490714E+03  0.46424649740E+03  0.00000000000E+00 0. -1.
        -14    1    4    4    0    0 -0.19960172926E+02 -0.75683524739E+01 -0.35058708436E+02  0.41046333571E+02  0.00000000000E+00 0.  1.
        -13    1    3    3    0    0  0.21452936306E+02 -0.37111717674E+02  0.83765073760E+01  0.43676926869E+02  0.00000000000E+00 0.  1.
         13    1    3    3    0    0 -0.26233712670E+02  0.40631375371E+02  0.24188404693E+01  0.48424860704E+02  0.00000000000E+00 0. -1.
         -1    1    1    2    0  502  0.50660668451E+02 -0.85576984244E+02 -0.59522553853E+03  0.60347606852E+03  0.00000000000E+00 0.  1.
<scales pt_clust_5="13000.00000" pt_clust_6="13000.00000" pt_clust_7="13000.00000" pt_clust_8="13000.00000" pt_clust_9="97.55002"></scales>
<clustering>
<clus scale="   80.904">  5  6 -1 -1</clus>
<clus scale="   91.274">  7  8 -1 -1</clus>
<clus scale="   91.467">  1  7  2 -1</clus>
<clus scale="   97.550">  2  9  1 -1</clus>
<clus scale="   97.550">  2  5  1 -1</clus>
</clustering>
</event>
<event>
 9    1  0.6270443E-005  0.1065548E+03  0.7546771E-02  0.1275076E+00
         -4   -1    0    0    0  501 -0.00000000000E+00  0.00000000000E+00  0.22418547906E+03  0.22418547906E+03  0.00000000000E+00 0.  1.
         21   -1    0    0  501  502  0.00000000000E+00 -0.00000000000E+00 -0.23139270232E+03  0.23139270232E+03  0.00000000000E+00 0. -1.
        -24    2    1    2    0    0 -0.15361188481E+02  0.48615567048E+02 -0.29531630910E+02  0.10100650368E+03  0.82041191428E+02 0.  0.
         23    2    1    2    0    0 -0.33930265341E+02 -0.19047972847E+02 -0.14384242750E+03  0.17874418511E+03  0.98715508334E+02 0.  0.
         13    1    3    3    0    0 -0.14833821064E+02 -0.13990174099E+02  0.14015830920E+02  0.24742892617E+02  0.00000000000E+00 0. -1.
        -14    1    3    3    0    0 -0.52736741731E+00  0.62605741147E+02 -0.43547461829E+02  0.76263611066E+02  0.00000000000E+00 0.  1.
        -13    1    4    4    0    0 -0.65199345188E+02 -0.19808836043E+02 -0.12461403880E+03  0.14202817771E+03  0.00000000000E+00 0. -1.
         13    1    4    4    0    0  0.31269079848E+02  0.76086319637E+00 -0.19228388707E+02  0.36716007402E+02  0.00000000000E+00 0.  1.
         -3    1    1    2    0  502  0.49291453822E+02 -0.29567594202E+02  0.16616683515E+03  0.17582749259E+03  0.00000000000E+00 0.  1.
<scales pt_clust_5="13000.00000" pt_clust_6="13000.00000" pt_clust_7="13000.00000" pt_clust_8="13000.00000" pt_clust_9="57.47950"></scales>
<clustering>
<clus scale="   57.480">  2  9  1 -1</clus>
<clus scale="   82.041">  5  6 -1 -1</clus>
<clus scale="   91.323">  1  5  2 -1</clus>
<clus scale="   98.716">  7  8 -1 -1</clus>
<clus scale="   57.480">  2  5  1 -1</clus>
</clustering>
</event>
<event>
 9    1  0.7254582E-005  0.1162594E+03  0.7546771E-02  0.1254075E+00
         -2   -1    0    0    0  501 -0.00000000000E+00  0.00000000000E+00  0.12071616140E+03  0.12071616140E+03  0.00000000000E+00 0.  1.
         21   -1    0    0  501  502  0.00000000000E+00 -0.00000000000E+00 -0.63689150282E+03  0.63689150282E+03  0.00000000000E+00 0.  1.
         23    2    1    2    0    0 -0.71461069258E+02 -0.17715147211E+02  0.84795952442E+02  0.14463729179E+03  0.91154164825E+02 0.  0.
        -24    2    1    2    0    0  0.44224612057E+02  0.17183930560E+02 -0.50886209218E+03  0.51691720056E+03  0.77534892762E+02 0.  0.
         13    1    4    4    0    0  0.49614054319E+02 -0.12418092809E+02 -0.19427060411E+03  0.20089009691E+03  0.00000000000E+00 0. -1.
        -14    1    4    4    0    0 -0.53894422616E+01  0.29602023370E+02 -0.31459148807E+03  0.31602710365E+03  0.00000000000E+00 0.  1.
        -13    1    3    3    0    0 -0.84222728151E+02 -0.15713321474E+01  0.90142007520E+02  0.12337551840E+03  0.00000000000E+00 0.  1.
         13    1    3    3    0    0  0.12761658893E+02 -0.16143815063E+02 -0.53460550781E+01  0.21261773383E+02  0.00000000000E+00 0. -1.
         -1    1    1    2    0  502  0.27236457200E+02  0.53121665042E+00 -0.92109201680E+02  0.96053171869E+02  0.00000000000E+00 0.  1.
<scales pt_clust_5="13000.00000" pt_clust_6="13000.00000" pt_clust_7="13000.00000" pt_clust_8="13000.00000" pt_clust_9="27.24164"></scales>
<clustering>
<clus scale="   27.242">  2  9  1 -1</clus>
<clus scale="   77.535">  5  6 -1 -1</clus>
<clus scale="   91.154">  7  8 -1 -1</clus>
<clus scale="  105.919">  2  5  1 -1</clus>
<clus scale="   27.242">  2  5  1 -1</clus>
</clustering>
</event>
<event>
 9    1  0.6270443E-005  0.1357769E+03  0.7546771E-02  0.1224968E+00
         21   -1    0    0  501  502  0.00000000000E+00  0.00000000000E+00  0.26420794770E+03  0.26420794770E+03  0.00000000000E+00 0.  1.
          1   -1    0    0  502    0 -0.00000000000E+00 -0.00000000000E+00 -0.29804364197E+03  0.29804364197E+03  0.00000000000E+00 0. -1.
         23    2    1    2    0    0  0.10326218542E+02  0.10896569012E+03 -0.85765214250E+02  0.16668266104E+03  0.91909113266E+02 0.  0.
        -24    2    1    2    0    0 -0.40091115406E+02 -0.44558441419E+02  0.20669682073E+03  0.22531276824E+03  0.66704689469E+02 0.  0.
         11    1    4    4    0    0 -0.76642408995E+01 -0.26986597545E+02  0.18659696824E+02  0.33692748792E+02  0.00000000000E+00 0. -1.
        -12    1    4    4    0    0 -0.32426874507E+02 -0.17571843875E+02  0.18803712390E+03  0.19162001945E+03  0.00000000000E+00 0.  1.
        -11    1    3    3    0    0  0.35117160742E+02  0.11132373732E+03 -0.78748376104E+02  0.14081014242E+03  0.00000000000E+00 0. -1.
         11    1    3    3    0    0 -0.24790942200E+02 -0.23580472018E+01 -0.70168381459E+01  0.25872518612E+02  0.00000000000E+00 0.  1.
          2    1    1    2  501    0  0.29764896864E+02 -0.64407248704E+02 -0.15476730075E+03  0.17025616039E+03  0.00000000000E+00 0. -1.
<scales pt_clust_5="13000.00000" pt_clust_6="13000.00000" pt_clust_7="13000.00000" pt_clust_8="13000.00000" pt_clust_9="70.95243"></scales>
<clustering>
<clus scale="   66.705">  5  6 -1 -1</clus>
<clus scale="   70.952">  1  9  2 -1</clus>
<clus scale="   91.909">  7  8 -1 -1</clus>
<clus scale="  120.157">  1  5  2 -1</clus>
<clus scale="   70.952">  1  5  2 -1</clus>
</clustering>
</event>
<event>
 9    1  0.6270443E-005  0.1332960E+03  0.7546771E-02  0.1237807E+00
          1   -1    0    0  502    0 -0.00000000000E+00  0.00000000000E+00  0.43145020796E+03  0.43145020796E+03  0.00000000000E+00 0. -1.
         21   -1    0    0  501  502  0.00000000000E+00 -0.00000000000E+00 -0.10388925565E+03  0.10388925565E+03  0.00000000000E+00 0. -1.
         23    2    1    2    0    0 -0.20776832599E+02  0.28965842049E+02  0.25695134997E+03  0.27481935560E+03  0.90724777110E+02 0.  0.
        -24    2    1    2    0    0 -0.28412345529E+02  0.77131957900E+02  0.84201177929E+02  0.14278715033E+03  0.80880971973E+02 0.  0.
         11    1    4    4    0    0 -0.56763825630E+02  0.57481391426E+02  0.60663375034E+02  0.10102617152E+03  0.00000000000E+00 0. -1.
        -12    1    4    4    0    0  0.28351480101E+02  0.19650566474E+02  0.23537802894E+02  0.41760978817E+02  0.00000000000E+00 0.  1.
        -13    1    3    3    0    0  0.61503878002E+01  0.48545275019E+02  0.21870442818E+03  0.22411179778E+03  0.00000000000E+00 0.  1.
         13    1    3    3    0    0 -0.26927220399E+02 -0.19579432971E+02  0.38246921789E+02  0.50707557821E+02  0.00000000000E+00 0. -1.
          2    1    1    2  501    0  0.49189178128E+02 -0.10609779995E+03 -0.13591575589E+02  0.11773295769E+03  0.00000000000E+00 0. -1.
<scales pt_clust_5="13000.00000" pt_clust_6="13000.00000" pt_clust_7="13000.00000" pt_clust_8="13000.00000" pt_clust_9="105.95326"></scales>
<clustering>
<clus scale="   80.881">  5  6 -1 -1</clus>
<clus scale="   90.725">  7  8 -1 -1</clus>
<clus scale="   97.477">  1  7  2 -1</clus>
<clus scale="  105.953">  2  9  1 -1</clus>
<clus scale="  105.953">  2  5  1 -1</clus>
</clustering>
</event>
<event>
 9    1  0.6270443E-005  0.3987802E+03  0.7546771E-02  0.1044410E+00
          1   -1    0    0  502    0 -0.00000000000E+00  0.00000000000E+00  0.27642593492E+04  0.27642593492E+04  0.00000000000E+00 0. -1.
         21   -1    0    0  501  502  0.00000000000E+00 -0.00000000000E+00 -0.84090998606E+02  0.84090998606E+02  0.00000000000E+00 0.  1.
        -24    2    1    2    0    0 -0.17034695675E+03 -0.31451897199E+03  0.11590423591E+04  0.12157378066E+04  0.81847142021E+02 0.  0.
         23    2    1    2    0    0  0.14254775488E+03  0.39905933372E+03  0.14638858394E+04  0.15267999551E+04  0.92672205899E+02 0.  0.
         11    1    3    3    0    0 -0.11226696122E+03 -0.12409282908E+03  0.56121592538E+03  0.58563317504E+03  0.00000000000E+00 0. -1.
        -12    1    3    3    0    0 -0.58079995521E+02 -0.19042614291E+03  0.59782643375E+03  0.63010463152E+03  0.00000000000E+00 0.  1.
        -13    1    4    4    0    0  0.63472901819E+02  0.21134863002E+03  0.60196380810E+03  0.64113764430E+03  0.00000000000E+00 0.  1.
         13    1    4    4    0    0  0.79074853062E+02  0.18771070369E+03  0.86192203133E+03  0.88566231079E+03  0.00000000000E+00 0. -1.
          2    1    1    2  501    0  0.27799201865E+02 -0.84540361728E+02  0.57240152085E+02  0.10581258619E+03  0.00000000000E+00 0. -1.
<scales pt_clust_5="13000.00000" pt_clust_6="13000.00000" pt_clust_7="13000.00000" pt_clust_8="13000.00000" pt_clust_9="88.99364"></scales>
<clustering>
<clus scale="   81.847">  5  6 -1 -1</clus>
<clus scale="   88.994">  2  9  1 -1</clus>
<clus scale="   92.672">  7  8 -1 -1</clus>
<clus scale="  396.404">  1  5  2 -1</clus>
<clus scale="   88.994">  2  5  1 -1</clus>
</clustering>
</event>
<event>
 9    1  0.6270443E-005  0.9636019E+02  0.7546771E-02  0.1294181E+00
         21   -1    0    0  501  502  0.00000000000E+00  0.00000000000E+00  0.23749847509E+03  0.23749847509E+03  0.00000000000E+00 0. -1.
          1   -1    0    0  502    0 -0.00000000000E+00 -0.00000000000E+00 -0.45695325084E+03  0.45695325084E+03  0.00000000000E+00 0. -1.
        -24    2    1    2    0    0 -0.27392527476E+02  0.74449334227E+01 -0.39140169627E+03  0.40080037929E+03  0.81485450267E+02 0.  0.
         23    2    1    2    0    0  0.29465752200E+02  0.46051513975E+02 -0.63865357022E+01  0.10745524100E+03  0.92286881452E+02 0.  0.
         13    1    3    3    0    0 -0.40946134598E+02  0.32692019344E+02 -0.31237597250E+03  0.31673980215E+03  0.00000000000E+00 0. -1.
        -14    1    3    3    0    0  0.13553607122E+02 -0.25247085921E+02 -0.79025723765E+02  0.84060577146E+02  0.00000000000E+00 0.  1.
        -11    1    4    4    0    0 -0.13618727526E+02  0.48491531067E+02 -0.29633568469E+02  0.58438400944E+02  0.00000000000E+00 0. -1.
         11    1    4    4    0    0  0.43084479726E+02 -0.24400170920E+01  0.23247032767E+02  0.49016840056E+02  0.00000000000E+00 0.  1.
          2    1    1    2  501    0 -0.20732247234E+01 -0.53496447398E+02  0.17833345623E+03  0.18619610564E+03  0.00000000000E+00 0. -1.
<scales pt_clust_5="13000.00000" pt_clust_6="13000.00000" pt_clust_7="13000.00000" pt_clust_8="13000.00000" pt_clust_9="53.53661"></scales>
<clustering>
<clus scale="   53.537">  1  9  2 -1</clus>
<clus scale="   81.485">  5  6 -1 -1</clus>
<clus scale="   86.071">  2  5  1 -1</clus>
<clus scale="   92.287">  7  8 -1 -1</clus>
<clus scale="   53.537">  1  5  2 -1</clus>
</clustering>
</event>
<event>
 9    1  0.6270443E-005  0.2359798E+03  0.7546771E-02  0.1153313E+00
         21   -1    0    0  501  502  0.00000000000E+00  0.00000000000E+00  0.32756326940E+03  0.32756326940E+03  0.00000000000E+00 0. -1.
          3   -1    0    0  502    0 -0.00000000000E+00 -0.00000000000E+00 -0.30724898481E+03  0.30724898481E+03  0.00000000000E+00 0. -1.
         23    2    1    2    0    0  0.29424995488E+01  0.66088241848E+02 -0.25861734470E+02  0.11484631694E+03  0.90247067488E+02 0.  0.
        -24    2    1    2    0    0 -0.29954732052E+02 -0.26927995841E+03 -0.60768476388E+02  0.28876546259E+03  0.79269809458E+02 0.  0.
         13    1    4    4    0    0 -0.17313277288E+02 -0.23235288354E+03 -0.22461992390E+02  0.23407723759E+03  0.00000000000E+00 0. -1.
        -14    1    4    4    0    0 -0.12641454764E+02 -0.36927074871E+02 -0.38306483997E+02  0.54688224997E+02  0.00000000000E+00 0.  1.
        -11    1    3    3    0    0 -0.35080646441E+02  0.65776966273E+01 -0.26114345871E+02  0.44225297149E+02  0.00000000000E+00 0. -1.
         11    1    3    3    0    0  0.38023145990E+02  0.59510545221E+02  0.25261140098E+00  0.70621019789E+02  0.00000000000E+00 0.  1.
          4    1    1    2  501    0  0.27012232503E+02  0.20319171656E+03  0.10694449545E+03  0.23120047467E+03  0.00000000000E+00 0. -1.
<scales pt_clust_5="13000.00000" pt_clust_6="13000.00000" pt_clust_7="13000.00000" pt_clust_8="13000.00000" pt_clust_9="222.26736"></scales>
<clustering>
<clus scale="   79.270">  5  6 -1 -1</clus>
<clus scale="   90.247">  7  8 -1 -1</clus>
<clus scale="  111.897">  2  7  1 -1</clus>
<clus scale="  222.267">  1  9  2 -1</clus>
<clus scale="  222.267">  1  5  2 -1</clus>
</clustering>
</event>
<event>
 9    1  0.6270443E-005  0.1319509E+03  0.7546771E-02  0.1226879E+00
          1   -1    0    0  502    0 -0.00000000000E+00  0.00000000000E+00  0.18298181012E+03  0.18298181012E+03  0.00000000000E+00 0. -1.
         21   -1    0    0  501  502  0.00000000000E+00 -0.00000000000E+00 -0.23652482091E+03  0.23652482091E+03  0.00000000000E+00 0.  1.
        -24    2    1    2    0    0  0.73632507771E+02 -0.85601302342E+02  0.66362611276E+02  0.15355613867E+03  0.80163348133E+02 0.  0.
         23    2    1    2    0    0  0.26168065238E+02  0.75270647987E+02 -0.11408331461E+03  0.16544787520E+03  0.89484963249E+02 0.  0.
         13    1    3    3    0    0  0.19754590944E+02 -0.77640077842E+02  0.21377096119E+02  0.82916860705E+02  0.00000000000E+00 0. -1.
        -14    1    3    3    0    0  0.53877916827E+02 -0.79612245001E+01  0.44985515157E+02  0.70639277963E+02  0.00000000000E+00 0.  1.
        -13    1    4    4    0    0  0.55052882706E+02  0.71817124636E+02 -0.90741132145E+02  0.12815019449E+03  0.00000000000E+00 0.  1.
         13    1    4    4    0    0 -0.28884817468E+02  0.34535233510E+01 -0.23342182469E+02  0.37297680707E+02  0.00000000000E+00 0. -1.
          2    1    1    2  501    0 -0.99800573009E+02  0.10330654355E+02 -0.58223074551E+01  0.10050261716E+03  0.00000000000E+00 0. -1.
<scales pt_clust_5="13000.00000" pt_clust_6="13000.00000" pt_clust_7="13000.00000" pt_clust_8="13000.00000" pt_clust_9="100.33388"></scales>
<clustering>
<clus scale="   80.163">  5  6 -1 -1</clus>
<clus scale="   89.485">  7  8 -1 -1</clus>
<clus scale="  100.334">  2  9  1 -1</clus>
<clus scale="  125.816">  1  5  2 -1</clus>
<clus scale="  100.334">  2  5  1 -1</clus>
</clustering>
</event>
<event>
 9    1  0.6270443E-005  0.1274862E+03  0.7546771E-02  0.1233294E+00
          1   -1    0    0  502    0 -0.00000000000E+00  0.00000000000E+00  0.36726756839E+03  0.36726756839E+03  0.00000000000E+00 0. -1.
         21   -1    0    0  501  502  0.00000000000E+00 -0.00000000000E+00 -0.64278104536E+02  0.64278104536E+02  0.00000000000E+00 0.  1.
         23    2    1    2    0    0 -0.40357926465E+01 -0.90332252258E+02  0.20527073245E+03  0.24087571161E+03  0.87799951164E+02 0.  0.
        -24    2    1    2    0    0  0.30026476103E+02  0.94983608184E+02  0.52046225897E+02  0.13791459668E+03  0.79925911041E+02 0.  0.
         13    1    4    4    0    0  0.19855886238E+02 -0.67310584070E+01  0.24096282434E+02  0.31940478906E+02  0.00000000000E+00 0. -1.
        -14    1    4    4    0    0  0.10170589865E+02  0.10171466659E+03  0.27949943463E+02  0.10597411777E+03  0.00000000000E+00 0.  1.
        -13    1    3    3    0    0 -0.41104692822E+02 -0.34201430345E+02  0.12621509629E+03  0.13707510402E+03  0.00000000000E+00 0. -1.
         13    1    3    3    0    0  0.37068900176E+02 -0.56130821913E+02  0.79055636159E+02  0.10380060760E+03  0.00000000000E+00 0.  1.
          2    1    1    2  501    0 -0.25990683457E+02 -0.46513559265E+01  0.45672505511E+02  0.52755364639E+02  0.00000000000E+00 0. -1.
<scales pt_clust_5="13000.00000" pt_clust_6="13000.00000" pt_clust_7="13000.00000" pt_clust_8="13000.00000" pt_clust_9="26.40363"></scales>
<clustering>
<clus scale="   26.404">  2  9  1 -1</clus>
<clus scale="   79.926">  5  6 -1 -1</clus>
<clus scale="   87.800">  7  8 -1 -1</clus>
<clus scale="  122.197">  2  5  1 -1</clus>
<clus scale="   26.404">  2  5  1 -1</clus>
</clustering>
</event>
<event>
 9    1  0.6270443E-005  0.1196409E+03  0.7546771E-02  0.1246903E+00
          3   -1    0    0  502    0 -0.00000000000E+00  0.00000000000E+00  0.42479444268E+03  0.42479444268E+03  0.00000000000E+00 0. -1.
         21   -1    0    0  501  502  0.00000000000E+00 -0.00000000000E+00 -0.83479663007E+02  0.83479663007E+02  0.00000000000E+00 0.  1.
         23    2    1    2    0    0  0.65725383182E+02  0.18692217787E+02  0.27281777555E+03  0.29599674225E+03  0.92278425265E+02 0.  0.
        -24    2    1    2    0    0 -0.93770592693E+02 -0.21253303694E+02  0.10619030877E+03  0.16522549681E+03  0.82331380092E+02 0.  0.
         13    1    4    4    0    0 -0.35174278863E+02  0.92729593079E+01  0.90183128900E+02  0.97243068678E+02  0.00000000000E+00 0. -1.
        -14    1    4    4    0    0 -0.58596313830E+02 -0.30526263002E+02  0.16007179869E+02  0.67982428132E+02  0.00000000000E+00 0.  1.
        -13    1    3    3    0    0  0.56599426402E+02  0.49451071647E+02  0.23322417643E+03  0.24503554850E+03  0.00000000000E+00 0. -1.
         13    1    3    3    0    0  0.91259567795E+01 -0.30758853859E+02  0.39593599116E+02  0.50961193754E+02  0.00000000000E+00 0.  1.
          4    1    1    2  501    0  0.28045209511E+02  0.25610859066E+01 -0.37693304645E+02  0.47051866622E+02  0.00000000000E+00 0. -1.
<scales pt_clust_5="13000.00000" pt_clust_6="13000.00000" pt_clust_7="13000.00000" pt_clust_8="13000.00000" pt_clust_9="28.16191"></scales>
<clustering>
<clus scale="   28.162">  2  9  1 -1</clus>
<clus scale="   82.331">  5  6 -1 -1</clus>
<clus scale="   92.278">  7  8 -1 -1</clus>
<clus scale="  112.148">  2  5  1 -1</clus>
<clus scale="   28.162">  2  5  1 -1</clus>
</clustering>
</event>
<event>
 9    1  0.6270443E-005  0.1345326E+03  0.7546771E-02  0.1223579E+00
          1   -1    0    0  502    0 -0.00000000000E+00  0.00000000000E+00  0.84852929230E+02  0.84852929230E+02  0.00000000000E+00 0. -1.
         21   -1    0    0  501  502  0.00000000000E+00 -0.00000000000E+00 -0.35508305890E+03  0.35508305890E+03  0.00000000000E+00 0. -1.
        -24    2    1    2    0    0 -0.35053707647E+02 -0.92769348811E+02 -0.19404657852E+02  0.14319496412E+03  0.10145611123E+03 0.  0.
         23    2    1    2    0    0  0.23062246801E+02  0.52755227376E+02 -0.21906231020E+03  0.24426413877E+03  0.91442290541E+02 0.  0.
         13    1    3    3    0    0 -0.47711737695E+02 -0.10237843241E+03 -0.37592842356E+02  0.11904190494E+03  0.00000000000E+00 0. -1.
        -14    1    3    3    0    0  0.12658030048E+02  0.96090835947E+01  0.18188184505E+02  0.24153059181E+02  0.00000000000E+00 0.  1.
        -11    1    4    4    0    0  0.26699981364E+02 -0.15789171506E+02 -0.30106534661E+02  0.43227194808E+02  0.00000000000E+00 0.  1.
         11    1    4    4    0    0 -0.36377345638E+01  0.68544398882E+02 -0.18895577554E+03  0.20103694397E+03  0.00000000000E+00 0. -1.
          2    1    1    2  501    0  0.11991460847E+02  0.40014121435E+02 -0.31763161619E+02  0.52476885231E+02  0.00000000000E+00 0. -1.
<scales pt_clust_5="13000.00000" pt_clust_6="13000.00000" pt_clust_7="13000.00000" pt_clust_8="13000.00000" pt_clust_9="41.77232"></scales>
<clustering>
<clus scale="   41.772">  2  9  1 -1</clus>
<clus scale="   91.442">  7  8 -1 -1</clus>
<clus scale="  101.456">  5  6 -1 -1</clus>
<clus scale="  127.151">  2  7  1 -1</clus>
<clus scale="   41.772">  2  5  1 -1</clus>
</clustering>
</event>
<event>
 9    1  0.6270443E-005  0.1334462E+03  0.7546771E-02  0.1225581E+00
         -2   -1    0    0    0  501 -0.00000000000E+00  0.00000000000E+00  0.47472059582E+03  0.47472059582E+03  0.00000000000E+00 0.  1.
         21   -1    0    0  501  502  0.00000000000E+00 -0.00000000000E+00 -0.58348256908E+02  0.58348256908E+02  0.00000000000E+00 0. -1.
         23    2    1    2    0    0  0.68313237940E+02 -0.61055509681E+02  0.31176627658E+03  0.33791013177E+03  0.92685339732E+02 0.  0.
        -24    2    1    2    0    0 -0.92536495175E+02  0.60828253269E+02  0.71635017823E+02  0.15424530491E+03  0.79980991325E+02 0.  0.
         13    1    4    4    0    0 -0.41772096525E+02  0.20882170675E+02 -0.12335963247E+02  0.48302682011E+02  0.00000000000E+00 0. -1.
        -14    1    4    4    0    0 -0.50764398650E+02  0.39946082593E+02  0.83970981071E+02  0.10594262290E+03  0.00000000000E+00 0.  1.
        -13    1    3    3    0    0  0.55732754619E+01 -0.55907185021E+02  0.21689147186E+03  0.22405040795E+03  0.00000000000E+00 0.  1.
         13    1    3    3    0    0  0.62739962478E+02 -0.51483246591E+01  0.94874804727E+02  0.11385972383E+03  0.00000000000E+00 0. -1.
         -1    1    1    2    0  502  0.24223257235E+02  0.22725641196E+00  0.32971044504E+02  0.40913416042E+02  0.00000000000E+00 0.  1.
<scales pt_clust_5="13000.00000" pt_clust_6="13000.00000" pt_clust_7="13000.00000" pt_clust_8="13000.00000" pt_clust_9="24.22434"></scales>
<clustering>
<clus scale="   24.224">  2  9  1 -1</clus>
<clus scale="   79.981">  5  6 -1 -1</clus>
<clus scale="   92.685">  7  8 -1 -1</clus>
<clus scale="  124.957">  2  5  1 -1</clus>
<clus scale="   24.224">  2  5  1 -1</clus>
</clustering>
</event>
<event>
 9    1  0.6270443E-005  0.1952231E+03  0.7546771E-02  0.1188267E+00
          3   -1    0    0  502    0 -0.00000000000E+00  0.00000000000E+00  0.51172823226E+03  0.51172823226E+03  0.00000000000E+00 0. -1.
         21   -1    0    0  501  502  0.00000000000E+00 -0.00000000000E+00 -0.11885302374E+03  0.11885302374E+03  0.00000000000E+00 0.  1.
        -24    2    1    2    0    0 -0.35822138976E+02 -0.13180021335E+02  0.95295247583E+01  0.89434339702E+02  0.80316565369E+02 0.  0.
         23    2    1    2    0    0 -0.11272513189E+03  0.12652905501E+03  0.24916453888E+03  0.31110588787E+03  0.77377961415E+02 0.  0.
         13    1    3    3    0    0 -0.31568384387E+02 -0.17092708595E+02  0.42687827392E+02  0.55776107674E+02  0.00000000000E+00 0. -1.
        -14    1    3    3    0    0 -0.42537545894E+01  0.39126872594E+01 -0.33158302634E+02  0.33658232028E+02  0.00000000000E+00 0.  1.
        -13    1    4    4    0    0  0.33141906249E+01  0.43449377898E+02  0.58298599052E+02  0.72784331766E+02  0.00000000000E+00 0. -1.
         13    1    4    4    0    0 -0.11603932252E+03  0.83079677116E+02  0.19086593982E+03  0.23832155611E+03  0.00000000000E+00 0.  1.
          4    1    1    2  501    0  0.14854727087E+03 -0.11334903368E+03  0.13418114488E+03  0.23004102843E+03  0.00000000000E+00 0. -1.
<scales pt_clust_5="13000.00000" pt_clust_6="13000.00000" pt_clust_7="13000.00000" pt_clust_8="13000.00000" pt_clust_9="179.23370"></scales>
<clustering>
<clus scale="   77.378">  7  8 -1 -1</clus>
<clus scale="   80.317">  5  6 -1 -1</clus>
<clus scale="   88.925">  1  5  2 -1</clus>
<clus scale="  179.234">  2  9  1 -1</clus>
<clus scale="  179.234">  2  5  1 -1</clus>
</clustering>
</event>
<event>
 9    1  0.6270443E-005  0.1160762E+03  0.7546771E-02  0.1252955E+00
         21   -1    0    0  501  502  0.00000000000E+00  0.00000000000E+00  0.96917617466E+02  0.96917617466E+02  0.00000000000E+00 0.  1.
          1   -1    0    0  502    0 -0.00000000000E+00 -0.00000000000E+00 -0.31534175649E+03  0.31534175649E+03  0.00000000000E+00 0. -1.
        -24    2    1    2    0    0 -0.34354218299E+02 -0.47713665049E+02 -0.11356083409E+03  0.15123655828E+03  0.80744209544E+02 0.  0.
         23    2    1    2    0    0  0.54624324523E+02  0.11115309986E+03 -0.22201102959E+02  0.15486972466E+03  0.90293489282E+02 0.  0.
         13    1    3    3    0    0  0.25551049677E+02 -0.64075640218E+01 -0.38914944693E+02  0.46992402969E+02  0.00000000000E+00 0. -1.
        -14    1    3    3    0    0 -0.59905267976E+02 -0.41306101028E+02 -0.74645889397E+02  0.10424415531E+03  0.00000000000E+00 0.  1.
        -13    1    4    4    0    0 -0.10245087698E+02  0.26194831378E+02 -0.37512735836E+02  0.46886419812E+02  0.00000000000E+00 0. -1.
         13    1    4    4    0    0  0.64869412221E+02  0.84958268482E+02  0.15311632877E+02  0.10798330485E+03  0.00000000000E+00 0.  1.
          2    1    1    2  501    0 -0.20270106224E+02 -0.63439434810E+02 -0.82662201973E+02  0.10615309101E+03  0.00000000000E+00 0. -1.
<scales pt_clust_5="13000.00000" pt_clust_6="13000.00000" pt_clust_7="13000.00000" pt_clust_8="13000.00000" pt_clust_9="66.59913"></scales>
<clustering>
<clus scale="   66.599">  1  9  2 -1</clus>
<clus scale="   80.744">  5  6 -1 -1</clus>
<clus scale="   90.293">  7  8 -1 -1</clus>
<clus scale="  108.814">  2  5  1 -1</clus>
<clus scale="   66.599">  1  5  2 -1</clus>
</clustering>
</event>
<event>
 9    1  0.6270443E-005  0.1538790E+03  0.7546771E-02  0.1221706E+00
         -4   -1    0    0    0  501 -0.00000000000E+00  0.00000000000E+00  0.54487322934E+03  0.54487322934E+03  0.00000000000E+00 0.  1.
         21   -1    0    0  501  502  0.00000000000E+00 -0.00000000000E+00 -0.12320899103E+03  0.12320899103E+03  0.00000000000E+00 0.  1.
        -24    2    1    2    0    0 -0.26075523379E+02 -0.22929176758E+02  0.14226129691E+03  0.16746939566E+03  0.81252949601E+02 0.  0.
         23    2    1    2    0    0 -0.96758791448E+02  0.89113873409E+02  0.32224395019E+03  0.35465380647E+03  0.68077990930E+02 0.  0.
         13    1    3    3    0    0  0.17971412516E+02 -0.29322007952E+02  0.10130906332E+03  0.10698728022E+03  0.00000000000E+00 0. -1.
        -14    1    3    3    0    0 -0.44046935895E+02  0.63928311932E+01  0.40952233591E+02  0.60482115444E+02  0.00000000000E+00 0.  1.
        -11    1    4    4    0    0 -0.48743161372E+02  0.22650170076E+02  0.63313533393E+02  0.83051366610E+02  0.00000000000E+00 0. -1.
         11    1    4    4    0    0 -0.48015630076E+02  0.66463703333E+02  0.25893041680E+03  0.27160243986E+03  0.00000000000E+00 0.  1.
         -3    1    1    2    0  502  0.12283431483E+03 -0.66184696651E+02 -0.42841008800E+02  0.14595901824E+03  0.00000000000E+00 0.  1.
<scales pt_clust_5="13000.00000" pt_clust_6="13000.00000" pt_clust_7="13000.00000" pt_clust_8="13000.00000" pt_clust_9="138.00048"></scales>
<clustering>
<clus scale="   68.078">  7  8 -1 -1</clus>
<clus scale="   81.253">  5  6 -1 -1</clus>
<clus scale="   88.361">  1  5  2 -1</clus>
<clus scale="  138.000">  2  9  1 -1</clus>
<clus scale="  138.000">  2  5  1 -1</clus>
</clustering>
</event>
<event>
 9    1  0.6270443E-005  0.1430983E+03  0.7546771E-02  0.1210893E+00
          1   -1    0    0  502    0 -0.00000000000E+00  0.00000000000E+00  0.38734433922E+03  0.38734433922E+03  0.00000000000E+00 0. -1.
         21   -1    0    0  501  502  0.00000000000E+00 -0.00000000000E+00 -0.87176491256E+02  0.87176491256E+02  0.00000000000E+00 0. -1.
         23    2    1    2    0    0  0.76906479731E+02 -0.52703086338E+02  0.15195563952E+03  0.19897730357E+03  0.88369842258E+02 0.  0.
        -24    2    1    2    0    0 -0.13688682707E+03  0.56964231117E+02  0.12975756896E+03  0.21264381991E+03  0.79984000863E+02 0.  0.
         11    1    4    4    0    0 -0.32305180665E+02  0.55083185148E+02  0.48143335720E+02  0.79972262429E+02  0.00000000000E+00 0. -1.
        -12    1    4    4    0    0 -0.10458164640E+03  0.18810459693E+01  0.81614233239E+02  0.13267155748E+03  0.00000000000E+00 0.  1.
        -13    1    3    3    0    0  0.99973407269E+01 -0.60076910894E+02  0.78272732191E+02  0.99175615193E+02  0.00000000000E+00 0. -1.
         13    1    3    3    0    0  0.66909139004E+02  0.73738245566E+01  0.73682907328E+02  0.99801688378E+02  0.00000000000E+00 0.  1.
          2    1    1    2  501    0  0.59980347337E+02 -0.42611447791E+01  0.18454639491E+02  0.62899706996E+02  0.00000000000E+00 0. -1.
<scales pt_clust_5="13000.00000" pt_clust_6="13000.00000" pt_clust_7="13000.00000" pt_clust_8="13000.00000" pt_clust_9="60.13152"></scales>
<clustering>
<clus scale="   60.132">  2  9  1 -1</clus>
<clus scale="   79.984">  5  6 -1 -1</clus>
<clus scale="   88.370">  7  8 -1 -1</clus>
<clus scale="  138.077">  2  5  1 -1</clus>
<clus scale="   60.132">  2  5  1 -1</clus>
</clustering>
</event>
<event>
 9    1  0.6270443E-005  0.3464330E+03  0.7546771E-02  0.1064089E+00
          1   -1    0    0  502    0 -0.00000000000E+00  0.00000000000E+00  0.27302606800E+03  0.27302606800E+03  0.00000000000E+00 0. -1.
         21   -1    0    0  501  502  0.00000000000E+00 -0.00000000000E+00 -0.32401207776E+03  0.32401207776E+03  0.00000000000E+00 0. -1.
        -24    2    1    2    0    0 -0.10080415415E+03  0.14393668654E+03 -0.19961010420E+02  0.19400129125E+03  0.79742158503E+02 0.  0.
         23    2    1    2    0    0  0.28402670529E+02  0.93607004199E+02 -0.14906158477E+02  0.15418188295E+03  0.11824075668E+03 0.  0.
         11    1    3    3    0    0 -0.71184089543E+02  0.12511243432E+03  0.14676190081E+02  0.14469169424E+03  0.00000000000E+00 0. -1.
        -12    1    3    3    0    0 -0.29620064609E+02  0.18824252222E+02 -0.34637200501E+02  0.49309597014E+02  0.00000000000E+00 0.  1.
        -13    1    4    4    0    0  0.40420969124E+02  0.28775774244E+02  0.43584515428E+02  0.66041728576E+02  0.00000000000E+00 0.  1.
         13    1    4    4    0    0 -0.12018298595E+02  0.64831229955E+02 -0.58490673906E+02  0.88140154371E+02  0.00000000000E+00 0. -1.
          2    1    1    2  501    0  0.72401483623E+02 -0.23754369074E+03 -0.16118840859E+02  0.24885497156E+03  0.00000000000E+00 0. -1.
<scales pt_clust_5="13000.00000" pt_clust_6="13000.00000" pt_clust_7="13000.00000" pt_clust_8="13000.00000" pt_clust_9="248.33252"></scales>
<clustering>
<clus scale="   79.742">  5  6 -1 -1</clus>
<clus scale="  118.241">  7  8 -1 -1</clus>
<clus scale="  145.965">  5  7 -1 -1</clus>
<clus scale="  248.333">  2  9  1 -1</clus>
<clus scale="  248.333">  2  5  1 -1</clus>
</clustering>
</event>
<event>
 9    1  0.6270443E-005  0.1023231E+03  0.7546771E-02  0.1279332E+00
         21   -1    0    0  501  502  0.00000000000E+00  0.00000000000E+00  0.41086217250E+03  0.41086217250E+03  0.00000000000E+00 0.  1.
         -2   -1    0    0    0  501 -0.00000000000E+00 -0.00000000000E+00 -0.68448463738E+02  0.68448463738E+02  0.00000000000E+00 0.  1.
        -24    2    1    2    0    0 -0.18114921000E+02  0.42392051265E+02 -0.12063161937E+02  0.95406496699E+02  0.82653755893E+02 0.  0.
         23    2    1    2    0    0 -0.12811358413E+02 -0.61376931889E+02  0.28198434000E+03  0.30283609739E+03  0.90902558844E+02 0.  0.
         13    1    3    3    0    0 -0.22747006263E+02 -0.20023102110E+02  0.45705451006E+01  0.30647035657E+02  0.00000000000E+00 0. -1.
        -14    1    3    3    0    0  0.46320852629E+01  0.62415153375E+02 -0.16633707038E+02  0.64759461042E+02  0.00000000000E+00 0.  1.
        -13    1    4    4    0    0 -0.65448407844E+01 -0.85072177509E+02  0.23132575665E+03  0.24655976155E+03  0.00000000000E+00 0.  1.
         13    1    4    4    0    0 -0.62665176287E+01  0.23695245621E+02  0.50658583349E+02  0.56276335836E+02  0.00000000000E+00 0. -1.
         -1    1    1    2    0  502  0.30926279413E+02  0.18984880624E+02  0.72492530700E+02  0.81068042150E+02  0.00000000000E+00 0.  1.
<scales pt_clust_5="13000.00000" pt_clust_6="13000.00000" pt_clust_7="13000.00000" pt_clust_8="13000.00000" pt_clust_9="36.28857"></scales>
<clustering>
<clus scale="   36.289">  1  9  2 -1</clus>
<clus scale="   82.654">  5  6 -1 -1</clus>
<clus scale="   90.903">  7  8 -1 -1</clus>
<clus scale="   95.070">  2  5  1 -1</clus>
<clus scale="   36.289">  1  5  2 -1</clus>
</clustering>
</event>
<event>
 9    1  0.6270443E-005  0.9378318E+02  0.7546771E-02  0.1302267E+00
         21   -1    0    0  501  502  0.00000000000E+00  0.00000000000E+00  0.92709238137E+02  0.92709238137E+02  0.00000000000E+00 0.  1.
         -4   -1    0    0    0  501 -0.00000000000E+00 -0.00000000000E+00 -0.11660758914E+03  0.11660758914E+03  0.00000000000E+00 0.  1.
        -24    2    1    2    0    0  0.83750781669E+01  0.15540191335E+02 -0.25355932802E+01  0.78451865086E+02  0.76397816861E+02 0.  0.
         23    2    1    2    0    0  0.74516442097E+01 -0.36978847419E+02 -0.20480802647E+01  0.97953598179E+02  0.90375608466E+02 0.  0.
         13    1    3    3    0    0  0.36808901481E+02 -0.77017923310E+01  0.11207146774E+02  0.39240450713E+02  0.00000000000E+00 0. -1.
        -14    1    3    3    0    0 -0.28433823314E+02  0.23241983666E+02 -0.13742740054E+02  0.39211414373E+02  0.00000000000E+00 0.  1.
        -13    1    4    4    0    0  0.39115355720E+02 -0.38958894156E+02  0.20651988809E+02  0.58943287393E+02  0.00000000000E+00 0.  1.
         13    1    4    4    0    0 -0.31663711510E+02  0.19800467370E+01 -0.22700069074E+02  0.39010310786E+02  0.00000000000E+00 0. -1.
         -3    1    1    2    0  502 -0.15826722377E+02  0.21438656084E+02 -0.19314677460E+02  0.32911364014E+02  0.00000000000E+00 0.  1.
<scales pt_clust_5="13000.00000" pt_clust_6="13000.00000" pt_clust_7="13000.00000" pt_clust_8="13000.00000" pt_clust_9="26.64774"></scales>
<clustering>
<clus scale="   26.648">  1  9  2 -1</clus>
<clus scale="   76.398">  5  6 -1 -1</clus>
<clus scale="   80.400">  2  5  1 -1</clus>
<clus scale="   90.376">  7  8 -1 -1</clus>
<clus scale="   26.648">  1  5  2 -1</clus>
</clustering>
</event>
<event>
 9    1  0.6270443E-005  0.1268547E+03  0.7546771E-02  0.1235538E+00
         21   -1    0    0  501  502  0.00000000000E+00  0.00000000000E+00  0.25021264279E+02  0.25021264279E+02  0.00000000000E+00 0. -1.
          3   -1    0    0  502    0 -0.00000000000E+00 -0.00000000000E+00 -0.83837062201E+03  0.83837062201E+03  0.00000000000E+00 0. -1.
         23    2    1    2    0    0  0.92358814386E+02  0.57787050370E+01 -0.44897666353E+03  0.46760640711E+03  0.92261387082E+02 0.  0.
        -24    2    1    2    0    0 -0.78607978100E+02  0.15502350403E+02 -0.20400832934E+03  0.23343185792E+03  0.80321209924E+02 0.  0.
         13    1    4    4    0    0 -0.65668947028E+02 -0.70877194519E+01 -0.67412567165E+02  0.94377436830E+02  0.00000000000E+00 0. -1.
        -14    1    4    4    0    0 -0.12939031072E+02  0.22590069854E+02 -0.13659576217E+03  0.13905442109E+03  0.00000000000E+00 0.  1.
        -13    1    3    3    0    0  0.12752880431E+02 -0.15423060907E+02 -0.12885279955E+02  0.23802042067E+02  0.00000000000E+00 0.  1.
         13    1    3    3    0    0  0.79605933955E+02  0.21201765944E+02 -0.43609138357E+03  0.44380436504E+03  0.00000000000E+00 0. -1.
          4    1    1    2  501    0 -0.13750836286E+02 -0.21281055440E+02 -0.16036436487E+03  0.16235362127E+03  0.00000000000E+00 0. -1.
<scales pt_clust_5="13000.00000" pt_clust_6="13000.00000" pt_clust_7="13000.00000" pt_clust_8="13000.00000" pt_clust_9="25.33712"></scales>
<clustering>
<clus scale="   25.337">  1  9  2 -1</clus>
<clus scale="   80.321">  5  6 -1 -1</clus>
<clus scale="   92.261">  7  8 -1 -1</clus>
<clus scale="  118.454">  1  5  2 -1</clus>
<clus scale="   25.337">  1  5  2 -1</clus>
</clustering>
</event>
<event>
 9    1  0.6270443E-005  0.1038396E+03  0.7546771E-02  0.1276736E+00
          1   -1    0    0  502    0 -0.00000000000E+00  0.00000000000E+00  0.35357553279E+02  0.35357553279E+02  0.00000000000E+00 0. -1.
         21   -1    0    0  501  502  0.00000000000E+00 -0.00000000000E+00 -0.77010999865E+03  0.77010999865E+03  0.00000000000E+00 0. -1.
         23    2    1    2    0    0 -0.11487578391E+02  0.42812376799E+02 -0.19347796416E+03  0.21809010454E+03  0.90358768341E+02 0.  0.
        -24    2    1    2    0    0  0.60234097141E+02  0.45009858541E+02 -0.34817690041E+03  0.36971797983E+03  0.99046437620E+02 0.  0.
         11    1    4    4    0    0  0.49064143448E+02  0.41389383402E+02 -0.86182910391E+02  0.10746099420E+03  0.00000000000E+00 0. -1.
        -12    1    4    4    0    0  0.11169953693E+02  0.36204751385E+01 -0.26199399002E+03  0.26225698563E+03  0.00000000000E+00 0.  1.
        -11    1    3    3    0    0 -0.35274816494E+02  0.61061548393E+02 -0.13026391718E+03  0.14812668055E+03  0.00000000000E+00 0.  1.
         11    1    3    3    0    0  0.23787238104E+02 -0.18249171594E+02 -0.63214046985E+02  0.69963423992E+02  0.00000000000E+00 0. -1.
          2    1    1    2  501    0 -0.48746518750E+02 -0.87822235339E+02 -0.19309758080E+03  0.21765946756E+03  0.00000000000E+00 0. -1.
<scales pt_clust_5="13000.00000" pt_clust_6="13000.00000" pt_clust_7="13000.00000" pt_clust_8="13000.00000" pt_clust_9="100.44391"></scales>
<clustering>
<clus scale="   90.359">  7  8 -1 -1</clus>
<clus scale="   99.046">  5  6 -1 -1</clus>
<clus scale="  100.444">  2  9  1 -1</clus>
<clus scale="   95.589">  1  7  2 -1</clus>
<clus scale="  100.444">  2  5  1 -1</clus>
</clustering>
</event>
<event>
 9    1  0.6270443E-005  0.3761659E+03  0.7546771E-02  0.1065736E+00
         21   -1    0    0  501  502  0.00000000000E+00  0.00000000000E+00  0.27342105047E+03  0.27342105047E+03  0.00000000000E+00 0. -1.
          1   -1    0    0  502    0 -0.00000000000E+00 -0.00000000000E+00 -0.12392813702E+04  0.12392813702E+04  0.00000000000E+00 0. -1.
        -24    2    1    2    0    0  0.23984992851E+03 -0.56550745513E+02 -0.14413671338E+03  0.29599530039E+03  0.78178326185E+02 0.  0.
         23    2    1    2    0    0 -0.54561421724E+03  0.10041087436E+02 -0.67870957437E+03  0.87596093629E+03  0.94155074540E+02 0.  0.
         11    1    3    3    0    0  0.60304150283E+02 -0.27198859434E+02 -0.38620506123E+01  0.66266763395E+02  0.00000000000E+00 0. -1.
        -12    1    3    3    0    0  0.17954577822E+03 -0.29351886079E+02 -0.14027466277E+03  0.22972853700E+03  0.00000000000E+00 0.  1.
        -13    1    4    4    0    0 -0.49376734168E+03 -0.15698414092E+02 -0.62787020418E+03  0.79892028464E+03  0.00000000000E+00 0. -1.
         13    1    4    4    0    0 -0.51846875554E+02  0.25739501528E+02 -0.50839370197E+02  0.77040651644E+02  0.00000000000E+00 0.  1.
          2    1    1    2  501    0  0.30576428873E+03  0.46509658077E+02 -0.14301403195E+03  0.34074618397E+03  0.00000000000E+00 0. -1.
<scales pt_clust_5="13000.00000" pt_clust_6="13000.00000" pt_clust_7="13000.00000" pt_clust_8="13000.00000" pt_clust_9="364.19174"></scales>
<clustering>
<clus scale="   78.178">  5  6 -1 -1</clus>
<clus scale="   94.155">  7  8 -1 -1</clus>
<clus scale="  258.530">  2  5  1 -1</clus>
<clus scale="  364.192">  1  9  2 -1</clus>
<clus scale="  364.192">  1  5  2 -1</clus>
</clustering>
</event>
<event>
 9    1  0.6270443E-005  0.1130510E+03  0.7546771E-02  0.1259832E+00
          1   -1    0    0  502    0 -0.00000000000E+00  0.00000000000E+00  0.32042543312E+03  0.32042543312E+03  0.00000000000E+00 0. -1.
         21   -1    0    0  501  502  0.00000000000E+00 -0.00000000000E+00 -0.11726385181E+03  0.11726385181E+03  0.00000000000E+00 0. -1.
         23    2    1    2    0    0  0.16002335831E+02 -0.67961005798E+02  0.10424825386E+03  0.15623998352E+03  0.93104570015E+02 0.  0.
        -24    2    1    2    0    0  0.54802194446E+02  0.51897754413E+02 -0.45924721975E+02  0.11943272783E+03  0.80364413519E+02 0.  0.
         13    1    4    4    0    0  0.56304472211E+02  0.69125311233E+02 -0.49205039167E+02  0.10183142012E+03  0.00000000000E+00 0. -1.
        -14    1    4    4    0    0 -0.15022777646E+01 -0.17227556820E+02  0.32803171912E+01  0.17601307716E+02  0.00000000000E+00 0.  1.
        -13    1    3    3    0    0  0.16467030763E+02 -0.11950900920E+02  0.97758258579E+02  0.99853213546E+02  0.00000000000E+00 0.  1.
         13    1    3    3    0    0 -0.46469493228E+00 -0.56010104878E+02  0.64899952808E+01  0.56386769978E+02  0.00000000000E+00 0. -1.
          2    1    1    2  501    0 -0.70804530277E+02  0.16063251385E+02  0.14483804942E+03  0.16201657358E+03  0.00000000000E+00 0. -1.
<scales pt_clust_5="13000.00000" pt_clust_6="13000.00000" pt_clust_7="13000.00000" pt_clust_8="13000.00000" pt_clust_9="72.60382"></scales>
<clustering>
<clus scale="   72.604">  2  9  1 -1</clus>
<clus scale="   80.364">  5  6 -1 -1</clus>
<clus scale="   93.105">  7  8 -1 -1</clus>
<clus scale="  102.813">  2  5  1 -1</clus>
<clus scale="   72.604">  2  5  1 -1</clus>
</clustering>
</event>
<event>
 9    1  0.6270443E-005  0.1014683E+03  0.7546771E-02  0.1281842E+00
         21   -1    0    0  501  502  0.00000000000E+00  0.00000000000E+00  0.34796629057E+02  0.34796629057E+02  0.00000000000E+00 0. -1.
          1   -1    0    0  502    0 -0.00000000000E+00 -0.00000000000E+00 -0.96849883799E+03  0.96849883799E+03  0.00000000000E+00 0. -1.
        -24    2    1    2    0    0  0.49803154695E+02 -0.12553463228E+02 -0.37490514865E+03  0.38700184733E+03  0.81108665953E+02 0.  0.
         23    2    1    2    0    0 -0.26502802990E+02 -0.56104744387E+02 -0.90422709745E+02  0.14234068102E+03  0.90743937133E+02 0.  0.
         13    1    3    3    0    0  0.56834456903E+02  0.21413325471E+02 -0.21753772536E+03  0.22585691920E+03  0.00000000000E+00 0. -1.
        -14    1    3    3    0    0 -0.70313022078E+01 -0.33966788699E+02 -0.15736742330E+03  0.16114492813E+03  0.00000000000E+00 0.  1.
        -11    1    4    4    0    0  0.28727749886E+02 -0.30703630332E+02 -0.62778192969E+02  0.75558573581E+02  0.00000000000E+00 0.  1.
         11    1    4    4    0    0 -0.55230552876E+02 -0.25401114055E+02 -0.27644516776E+02  0.66782107439E+02  0.00000000000E+00 0. -1.
          2    1    1    2  501    0 -0.23300351705E+02  0.68658207615E+02 -0.46837435053E+03  0.47395293870E+03  0.00000000000E+00 0. -1.
<scales pt_clust_5="13000.00000" pt_clust_6="13000.00000" pt_clust_7="13000.00000" pt_clust_8="13000.00000" pt_clust_9="72.50421"></scales>
<clustering>
<clus scale="   72.504">  1  9  2 -1</clus>
<clus scale="   81.109">  5  6 -1 -1</clus>
<clus scale="   90.744">  7  8 -1 -1</clus>
<clus scale="   92.951">  2  5  1 -1</clus>
<clus scale="   72.504">  1  5  2 -1</clus>
</clustering>
</event>
<event>
 9    1  0.6270443E-005  0.1029020E+03  0.7546771E-02  0.1279473E+00
          1   -1    0    0  502    0 -0.00000000000E+00  0.00000000000E+00  0.13011503293E+03  0.13011503293E+03  0.00000000000E+00 0. -1.
         21   -1    0    0  501  502  0.00000000000E+00 -0.00000000000E+00 -0.22664297845E+03  0.22664297845E+03  0.00000000000E+00 0. -1.
        -24    2    1    2    0    0 -0.46608109988E+02 -0.65190930311E+01  0.74994626415E+02  0.11962635233E+03  0.80445358405E+02 0.  0.
         23    2    1    2    0    0  0.38214941009E+02  0.51076560046E+02 -0.15006112082E+03  0.18696785700E+03  0.91484659197E+02 0.  0.
         11    1    3    3    0    0 -0.59191802732E+02 -0.35398162036E+01  0.19163588771E+02  0.62317276449E+02  0.00000000000E+00 0. -1.
        -12    1    3    3    0    0  0.12583692743E+02 -0.29792768275E+01  0.55831037644E+02  0.57309075877E+02  0.00000000000E+00 0.  1.
        -11    1    4    4    0    0  0.24727219936E+02  0.28971307342E+02 -0.36265196924E+01  0.38261255859E+02  0.00000000000E+00 0.  1.
         11    1    4    4    0    0  0.13487721073E+02  0.22105252705E+02 -0.14643460112E+03  0.14870660114E+03  0.00000000000E+00 0. -1.
          2    1    1    2  501    0  0.83931689797E+01 -0.44557467015E+02 -0.21461451122E+02  0.50163802055E+02  0.00000000000E+00 0. -1.
<scales pt_clust_5="13000.00000" pt_clust_6="13000.00000" pt_clust_7="13000.00000" pt_clust_8="13000.00000" pt_clust_9="45.34108"></scales>
<clustering>
<clus scale="   45.341">  2  9  1 -1</clus>
<clus scale="   80.445">  5  6 -1 -1</clus>
<clus scale="   91.485">  7  8 -1 -1</clus>
<clus scale="   93.225">  1  5  2 -1</clus>
<clus scale="   45.341">  2  5  1 -1</clus>
</clustering>
</event>
<event>
 9    1  0.6270443E-005  0.1299470E+03  0.7546771E-02  0.1242141E+00
          1   -1    0    0  502    0 -0.00000000000E+00  0.00000000000E+00  0.20637742759E+03  0.20637742759E+03  0.00000000000E+00 0. -1.
         21   -1    0    0  501  502  0.00000000000E+00 -0.00000000000E+00 -0.15149646278E+03  0.15149646278E+03  0.00000000000E+00 0.  1.
         23    2    1    2    0    0 -0.24133712400E+02 -0.18247209467E+02  0.95234967097E+02  0.13546835374E+03  0.91469006665E+02 0.  0.
        -24    2    1    2    0    0 -0.48888885555E+02 -0.48754126710E+02 -0.14007237712E+02  0.11985978651E+03  0.96969467941E+02 0.  0.
         11    1    4    4    0    0 -0.92224401001E+01  0.20510062542E+02  0.22746342500E+02  0.31986124554E+02  0.00000000000E+00 0. -1.
        -12    1    4    4    0    0 -0.39666445455E+02 -0.69264189253E+02 -0.36753580212E+02  0.87873661960E+02  0.00000000000E+00 0.  1.
        -13    1    3    3    0    0  0.47197021282E+01 -0.50490132388E+02  0.66075792575E+02  0.83291892890E+02  0.00000000000E+00 0.  1.
         13    1    3    3    0    0 -0.28853414528E+02  0.32242922920E+02  0.29159174522E+02  0.52176460854E+02  0.00000000000E+00 0. -1.
          2    1    1    2  501    0  0.73022597955E+02  0.67001336178E+02 -0.26346764579E+02  0.10254575011E+03  0.00000000000E+00 0. -1.
<scales pt_clust_5="13000.00000" pt_clust_6="13000.00000" pt_clust_7="13000.00000" pt_clust_8="13000.00000" pt_clust_9="86.50524"></scales>
<clustering>
<clus scale="   91.469">  7  8 -1 -1</clus>
<clus scale="   96.343">  1  7  2 -1</clus>
<clus scale="   86.505">  2  9  1 -1</clus>
<clus scale="   96.969">  5  6 -1 -1</clus>
<clus scale="   86.505">  2  5  1 -1</clus>
</clustering>
</event>
<event>
 9    1  0.6270443E-005  0.2091183E+03  0.7546771E-02  0.1143094E+00
         21   -1    0    0  501  502  0.00000000000E+00  0.00000000000E+00  0.55215847689E+02  0.55215847689E+02  0.00000000000E+00 0.  1.
          1   -1    0    0  502    0 -0.00000000000E+00 -0.00000000000E+00 -0.14433309032E+04  0.14433309032E+04  0.00000000000E+00 0. -1.
        -24    2    1    2    0    0  0.17418890919E+03 -0.27756750146E+02 -0.85769396509E+03  0.87921451514E+03  0.79164465713E+02 0.  0.
         23    2    1    2    0    0 -0.22886746473E+03 -0.12716226446E+02 -0.45858528556E+03  0.52039695827E+03  0.89277719613E+02 0.  0.
         11    1    3    3    0    0  0.84196427602E+02  0.26201662766E+02 -0.37044521967E+03  0.38079551774E+03  0.00000000000E+00 0. -1.
        -12    1    3    3    0    0  0.89992481592E+02 -0.53958412912E+02 -0.48724874541E+03  0.49841899741E+03  0.00000000000E+00 0.  1.
        -11    1    4    4    0    0 -0.78194435545E+02 -0.43199377889E+02 -0.13132244600E+03  0.15882739318E+03  0.00000000000E+00 0. -1.
         11    1    4    4    0    0 -0.15067302919E+03  0.30483151443E+02 -0.32726283956E+03  0.36156956509E+03  0.00000000000E+00 0.  1.
          2    1    1    2  501    0  0.54678555541E+02  0.40472976592E+02 -0.71835804914E+02  0.98935277519E+02  0.00000000000E+00 0. -1.
<scales pt_clust_5="13000.00000" pt_clust_6="13000.00000" pt_clust_7="13000.00000" pt_clust_8="13000.00000" pt_clust_9="68.02798"></scales>
<clustering>
<clus scale="   68.028">  1  9  2 -1</clus>
<clus scale="   79.164">  5  6 -1 -1</clus>
<clus scale="   89.278">  7  8 -1 -1</clus>
<clus scale="  205.005">  2  5  1 -1</clus>
<clus scale="   68.028">  1  5  2 -1</clus>
</clustering>
</event>
<event>
 9    1  0.6270443E-005  0.1338216E+03  0.7546771E-02  0.1222447E+00
          1   -1    0    0  502    0 -0.00000000000E+00  0.00000000000E+00  0.43381668765E+03  0.43381668765E+03  0.00000000000E+00 0. -1.
         21   -1    0    0  501  502  0.00000000000E+00 -0.00000000000E+00 -0.99659286754E+02  0.99659286754E+02  0.00000000000E+00 0. -1.
         23    2    1    2    0    0 -0.99685979320E+02  0.12812361593E+02  0.35491019569E+03  0.38001759924E+03  0.91382042281E+02 0.  0.
        -24    2    1    2    0    0  0.72429636627E+02  0.28948859848E+01 -0.55454764338E+01  0.11851716203E+03  0.93600922864E+02 0.  0.
         13    1    4    4    0    0  0.19920448761E+02  0.27856594930E+02  0.33956375527E+02  0.48227062930E+02  0.00000000000E+00 0. -1.
        -14    1    4    4    0    0  0.52509187866E+02 -0.24961708945E+02 -0.39501851961E+02  0.70290099104E+02  0.00000000000E+00 0.  1.
        -13    1    3    3    0    0 -0.95151737364E+02 -0.24235932842E+02  0.24505030058E+03  0.26399030925E+03  0.00000000000E+00 0. -1.
         13    1    3    3    0    0 -0.45342419565E+01  0.37048294435E+02  0.10985989511E+03  0.11602728999E+03  0.00000000000E+00 0.  1.
          2    1    1    2  501    0  0.27256342694E+02 -0.15707247578E+02 -0.15207318352E+02  0.34941213129E+02  0.00000000000E+00 0. -1.
<scales pt_clust_5="13000.00000" pt_clust_6="13000.00000" pt_clust_7="13000.00000" pt_clust_8="13000.00000" pt_clust_9="31.45832"></scales>
<clustering>
<clus scale="   31.458">  2  9  1 -1</clus>
<clus scale="   91.382">  7  8 -1 -1</clus>
<clus scale="   93.601">  5  6 -1 -1</clus>
<clus scale="  132.279">  1  7  2 -1</clus>
<clus scale="   31.458">  2  5  1 -1</clus>
</clustering>
</event>
<event>
 9    1  0.6270443E-005  0.1613410E+03  0.7546771E-02  0.1188394E+00
          3   -1    0    0  502    0 -0.00000000000E+00  0.00000000000E+00  0.39334336195E+03  0.39334336195E+03  0.00000000000E+00 0. -1.
         21   -1    0    0  501  502  0.00000000000E+00 -0.00000000000E+00 -0.12177448862E+03  0.12177448862E+03  0.00000000000E+00 0. -1.
         23    2    1    2    0    0 -0.12528454548E+03  0.15325649059E+02  0.22901325902E+03  0.27569545206E+03  0.87348821572E+02 0.  0.
        -24    2    1    2    0    0  0.16434663887E+03  0.89697143645E+01  0.56750271557E+02  0.19128093905E+03  0.79230870498E+02 0.  0.
         13    1    4    4    0    0  0.11146727342E+03 -0.31675294765E+02  0.33073339897E+02  0.12050777217E+03  0.00000000000E+00 0. -1.
        -14    1    4    4    0    0  0.52879365448E+02  0.40645009129E+02  0.23676931659E+02  0.70773166879E+02  0.00000000000E+00 0.  1.
        -11    1    3    3    0    0 -0.58065197116E+02  0.50823714474E+02  0.12415611075E+03  0.14618261492E+03  0.00000000000E+00 0. -1.
         11    1    3    3    0    0 -0.67219348359E+02 -0.35498065416E+02  0.10485714827E+03  0.12951283714E+03  0.00000000000E+00 0.  1.
          4    1    1    2  501    0 -0.39062093393E+02 -0.24295363423E+02 -0.14194657240E+02  0.48141459453E+02  0.00000000000E+00 0. -1.
<scales pt_clust_5="13000.00000" pt_clust_6="13000.00000" pt_clust_7="13000.00000" pt_clust_8="13000.00000" pt_clust_9="46.00122"></scales>
<clustering>
<clus scale="   46.001">  2  9  1 -1</clus>
<clus scale="   79.231">  5  6 -1 -1</clus>
<clus scale="   87.349">  7  8 -1 -1</clus>
<clus scale="  157.094">  2  5  1 -1</clus>
<clus scale="   46.001">  2  5  1 -1</clus>
</clustering>
</event>
<event>
 9    1  0.6270443E-005  0.1202273E+03  0.7546771E-02  0.1247268E+00
          3   -1    0    0  502    0 -0.00000000000E+00  0.00000000000E+00  0.22900929347E+03  0.22900929347E+03  0.00000000000E+00 0. -1.
         21   -1    0    0  501  502  0.00000000000E+00 -0.00000000000E+00 -0.10740214696E+03  0.10740214696E+03  0.00000000000E+00 0.  1.
        -24    2    1    2    0    0  0.49589510010E+02 -0.36528368382E+02  0.19471382982E+02  0.10056339873E+03  0.77074128015E+02 0.  0.
         23    2    1    2    0    0 -0.10609756564E+03  0.11735207029E+02  0.35361778054E+02  0.14492705216E+03  0.91427493580E+02 0.  0.
         13    1    3    3    0    0  0.72061061144E+01  0.22496549591E+02  0.14522350326E+02  0.27729431437E+02  0.00000000000E+00 0. -1.
        -14    1    3    3    0    0  0.42383403895E+02 -0.59024917973E+02  0.49490326564E+01  0.72833967293E+02  0.00000000000E+00 0.  1.
        -13    1    4    4    0    0 -0.11459269951E+03 -0.67331761613E+01  0.43872823333E+02  0.12288875893E+03  0.00000000000E+00 0.  1.
         13    1    4    4    0    0  0.84951338705E+01  0.18468383190E+02 -0.85110452785E+01  0.22038293238E+02  0.00000000000E+00 0. -1.
          4    1    1    2  501    0  0.56508055635E+02  0.24793161354E+02  0.66773985478E+02  0.90920989535E+02  0.00000000000E+00 0. -1.
<scales pt_clust_5="13000.00000" pt_clust_6="13000.00000" pt_clust_7="13000.00000" pt_clust_8="13000.00000" pt_clust_9="61.70790"></scales>
<clustering>
<clus scale="   61.708">  2  9  1 -1</clus>
<clus scale="   77.074">  5  6 -1 -1</clus>
<clus scale="   91.427">  7  8 -1 -1</clus>
<clus scale="  109.709">  1  5  2 -1</clus>
<clus scale="   61.708">  2  5  1 -1</clus>
</clustering>
</event>
<event>
 9    1  0.6270443E-005  0.1921380E+03  0.7546771E-02  0.1158241E+00
         21   -1    0    0  501  502  0.00000000000E+00  0.00000000000E+00  0.17340979282E+03  0.17340979282E+03  0.00000000000E+00 0. -1.
          1   -1    0    0  502    0 -0.00000000000E+00 -0.00000000000E+00 -0.30148013850E+03  0.30148013850E+03  0.00000000000E+00 0. -1.
        -24    2    1    2    0    0 -0.15505899211E+03  0.21374531147E+02 -0.13342159108E+03  0.22067806535E+03  0.79983285413E+02 0.  0.
         23    2    1    2    0    0  0.18890542800E+03 -0.38165078431E+02  0.12908874574E+02  0.21568108011E+03  0.95967991208E+02 0.  0.
         11    1    3    3    0    0 -0.11606307887E+03 -0.11343796675E+02 -0.59480913342E+02  0.13090950711E+03  0.00000000000E+00 0. -1.
        -12    1    3    3    0    0 -0.38995913245E+02  0.32718327821E+02 -0.73940677738E+02  0.89768558246E+02  0.00000000000E+00 0.  1.
        -13    1    4    4    0    0  0.38103940801E+02  0.13686755358E+02  0.36459831695E+02  0.54484464795E+02  0.00000000000E+00 0.  1.
         13    1    4    4    0    0  0.15080148720E+03 -0.51851833789E+02 -0.23550957121E+02  0.16119661532E+03  0.00000000000E+00 0. -1.
          2    1    1    2  501    0 -0.33846435885E+02  0.16790547284E+02 -0.75576291690E+01  0.38530785859E+02  0.00000000000E+00 0. -1.
<scales pt_clust_5="13000.00000" pt_clust_6="13000.00000" pt_clust_7="13000.00000" pt_clust_8="13000.00000" pt_clust_9="37.78232"></scales>
<clustering>
<clus scale="   37.782">  1  9  2 -1</clus>
<clus scale="   79.983">  5  6 -1 -1</clus>
<clus scale="   95.968">  7  8 -1 -1</clus>
<clus scale="  184.674">  2  5  1 -1</clus>
<clus scale="   37.782">  1  5  2 -1</clus>
</clustering>
</event>
<event>
 9    1  0.6270443E-005  0.1403816E+03  0.7546771E-02  0.1238914E+00
          1   -1    0    0  502    0 -0.00000000000E+00  0.00000000000E+00  0.24188349344E+03  0.24188349344E+03  0.00000000000E+00 0. -1.
         21   -1    0    0  501  502  0.00000000000E+00 -0.00000000000E+00 -0.18548155891E+03  0.18548155891E+03  0.00000000000E+00 0. -1.
        -24    2    1    2    0    0 -0.13891824262E+02 -0.14241448620E+02  0.14059760246E+03  0.16255607606E+03  0.79126420406E+02 0.  0.
         23    2    1    2    0    0 -0.46059115994E+02 -0.84005338697E+02 -0.62711047068E+02  0.14772722967E+03  0.93339808575E+02 0.  0.
         13    1    3    3    0    0 -0.45907933711E+02 -0.10194158389E+02  0.10146968801E+03  0.11183718893E+03  0.00000000000E+00 0. -1.
        -14    1    3    3    0    0  0.32016109449E+02 -0.40472902308E+01  0.39127914450E+02  0.50718887130E+02  0.00000000000E+00 0.  1.
        -13    1    4    4    0    0 -0.24887023834E+02 -0.72501078431E+01  0.20134681510E+02  0.32822757632E+02  0.00000000000E+00 0.  1.
         13    1    4    4    0    0 -0.21172092160E+02 -0.76755230854E+02 -0.82845728579E+02  0.11490447203E+03  0.00000000000E+00 0. -1.
          2    1    1    2  501    0  0.59950940256E+02  0.98246787317E+02 -0.21484620866E+02  0.11708174661E+03  0.00000000000E+00 0. -1.
<scales pt_clust_5="13000.00000" pt_clust_6="13000.00000" pt_clust_7="13000.00000" pt_clust_8="13000.00000" pt_clust_9="104.85551"></scales>
<clustering>
<clus scale="   79.126">  5  6 -1 -1</clus>
<clus scale="   81.589">  1  5  2 -1</clus>
<clus scale="   93.340">  7  8 -1 -1</clus>
<clus scale="  104.856">  2  9  1 -1</clus>
<clus scale="  104.856">  2  5  1 -1</clus>
</clustering>
</event>
<event>
 9    1  0.6270443E-005  0.1272464E+03  0.7546771E-02  0.1234172E+00
         21   -1    0    0  501  502  0.00000000000E+00  0.00000000000E+00  0.28860688428E+03  0.28860688428E+03  0.00000000000E+00 0. -1.
          1   -1    0    0  502    0 -0.00000000000E+00 -0.00000000000E+00 -0.15995115212E+03  0.15995115212E+03  0.00000000000E+00 0. -1.
        -24    2    1    2    0    0  0.66466887340E+02 -0.61126689419E+02 -0.84600901025E+02  0.14772290654E+03  0.80687207098E+02 0.  0.
         23    2    1    2    0    0 -0.17004846034E+02  0.10408892595E+03  0.10392094491E+03  0.17337321388E+03  0.90194452194E+02 0.  0.
         13    1    3    3    0    0  0.83872034309E+01 -0.40607919264E+02 -0.74557033832E+02  0.85311778684E+02  0.00000000000E+00 0. -1.
        -14    1    3    3    0    0  0.58079683909E+02 -0.20518770155E+02 -0.10043867193E+02  0.62411127853E+02  0.00000000000E+00 0.  1.
        -11    1    4    4    0    0 -0.36758627016E+02  0.74079278696E+02  0.24574607808E+02  0.86271939478E+02  0.00000000000E+00 0.  1.
         11    1    4    4    0    0  0.19753780982E+02  0.30009647250E+02  0.79346337098E+02  0.87101274399E+02  0.00000000000E+00 0. -1.
          2    1    1    2  501    0 -0.49462041306E+02 -0.42962236527E+02  0.10933568827E+03  0.12746191599E+03  0.00000000000E+00 0. -1.
<scales pt_clust_5="13000.00000" pt_clust_6="13000.00000" pt_clust_7="13000.00000" pt_clust_8="13000.00000" pt_clust_9="65.51524"></scales>
<clustering>
<clus scale="   65.515">  1  9  2 -1</clus>
<clus scale="   80.687">  5  6 -1 -1</clus>
<clus scale="   90.194">  7  8 -1 -1</clus>
<clus scale="  120.694">  2  5  1 -1</clus>
<clus scale="   65.515">  1  5  2 -1</clus>
</clustering>
</event>
<event>
 9    1  0.6270443E-005  0.9283975E+02  0.7546771E-02  0.1302041E+00
         21   -1    0    0  501  502  0.00000000000E+00  0.00000000000E+00  0.48344320087E+02  0.48344320087E+02  0.00000000000E+00 0. -1.
          1   -1    0    0  502    0 -0.00000000000E+00 -0.00000000000E+00 -0.59894893041E+03  0.59894893041E+03  0.00000000000E+00 0. -1.
        -24    2    1    2    0    0 -0.14896440316E+02  0.46114011402E+01 -0.20484358531E+03  0.22058448893E+03  0.80333388824E+02 0.  0.
         23    2    1    2    0    0  0.37679338869E+02 -0.42685235770E+02 -0.34287747388E+02  0.11209108879E+03  0.90260736946E+02 0.  0.
         13    1    3    3    0    0  0.21364183167E+02  0.29546134016E+02 -0.11311343798E+03  0.11884465579E+03  0.00000000000E+00 0. -1.
        -14    1    3    3    0    0 -0.36260623482E+02 -0.24934732876E+02 -0.91730147329E+02  0.10173983314E+03  0.00000000000E+00 0.  1.
        -11    1    4    4    0    0  0.64636998514E+02 -0.29747326665E+02 -0.40033195597E+02  0.81642524277E+02  0.00000000000E+00 0. -1.
         11    1    4    4    0    0 -0.26957659645E+02 -0.12937909105E+02  0.57454482092E+01  0.30448564509E+02  0.00000000000E+00 0.  1.
          2    1    1    2  501    0 -0.22782898553E+02  0.38073834630E+02 -0.31147327763E+03  0.31461767278E+03  0.00000000000E+00 0. -1.
<scales pt_clust_5="13000.00000" pt_clust_6="13000.00000" pt_clust_7="13000.00000" pt_clust_8="13000.00000" pt_clust_9="44.36980"></scales>
<clustering>
<clus scale="   44.370">  1  9  2 -1</clus>
<clus scale="   80.333">  5  6 -1 -1</clus>
<clus scale="   83.221">  2  5  1 -1</clus>
<clus scale="   90.261">  7  8 -1 -1</clus>
<clus scale="   44.370">  1  5  2 -1</clus>
</clustering>
</event>
<event>
 9    1  0.6270443E-005  0.1550127E+03  0.7546771E-02  0.1218527E+00
          1   -1    0    0  502    0 -0.00000000000E+00  0.00000000000E+00  0.33809453256E+03  0.33809453256E+03  0.00000000000E+00 0. -1.
         21   -1    0    0  501  502  0.00000000000E+00 -0.00000000000E+00 -0.17026962405E+03  0.17026962405E+03  0.00000000000E+00 0. -1.
         23    2    1    2    0    0 -0.75293951804E+01  0.15659625746E+02  0.85704175855E+01  0.92799442862E+02  0.90754442688E+02 0.  0.
        -24    2    1    2    0    0  0.17605100212E+02  0.11863324190E+03  0.22368337616E+03  0.26627581468E+03  0.80528076309E+02 0.  0.
         13    1    4    4    0    0  0.14556194080E+02  0.12684408143E+03  0.17395206118E+03  0.21577910782E+03  0.00000000000E+00 0. -1.
        -14    1    4    4    0    0  0.30489061328E+01 -0.82108395310E+01  0.49731314977E+02  0.50496706860E+02  0.00000000000E+00 0.  1.
        -13    1    3    3    0    0 -0.39252712554E+02 -0.20401443092E+02  0.66246836227E+01  0.44731205620E+02  0.00000000000E+00 0.  1.
         13    1    3    3    0    0  0.31723317374E+02  0.36061068838E+02  0.19457339629E+01  0.48068237242E+02  0.00000000000E+00 0. -1.
          2    1    1    2  501    0 -0.10075705032E+02 -0.13429286764E+03 -0.64428885240E+02  0.14928889907E+03  0.00000000000E+00 0. -1.
<scales pt_clust_5="13000.00000" pt_clust_6="13000.00000" pt_clust_7="13000.00000" pt_clust_8="13000.00000" pt_clust_9="132.45434"></scales>
<clustering>
<clus scale="   80.528">  5  6 -1 -1</clus>
<clus scale="   90.754">  7  8 -1 -1</clus>
<clus scale="   92.403">  1  7  2 -1</clus>
<clus scale="  132.454">  2  9  1 -1</clus>
<clus scale="  132.454">  2  5  1 -1</clus>
</clustering>
</event>
<event>
 9    1  0.6270443E-005  0.1274066E+03  0.7546771E-02  0.1235038E+00
         21   -1    0    0  501  502  0.00000000000E+00  0.00000000000E+00  0.56171784814E+03  0.56171784814E+03  0.00000000000E+00 0. -1.
         -4   -1    0    0    0  501 -0.00000000000E+00 -0.00000000000E+00 -0.83113704341E+02  0.83113704341E+02  0.00000000000E+00 0.  1.
         23    2    1    2    0    0 -0.76745046247E+02 -0.25249126092E+02  0.57362469180E+02  0.13485675681E+03  0.91479896666E+02 0.  0.
        -24    2    1    2    0    0  0.12489916578E+03  0.20328339097E+02  0.43495783936E+03  0.45966409554E+03  0.78036630643E+02 0.  0.
         11    1    4    4    0    0  0.58024459053E+02  0.48840150430E+02  0.21255325671E+03  0.22567916404E+03  0.00000000000E+00 0. -1.
        -12    1    4    4    0    0  0.66874706729E+02 -0.28511811333E+02  0.22240458265E+03  0.23398493150E+03  0.00000000000E+00 0.  1.
        -13    1    3    3    0    0  0.40888547166E+01  0.26006368869E+02  0.11721852606E+02  0.28817560327E+02  0.00000000000E+00 0.  1.
         13    1    3    3    0    0 -0.80833900964E+02 -0.51255494961E+02  0.45640616574E+02  0.10603919648E+03  0.00000000000E+00 0. -1.
         -3    1    1    2    0  502 -0.48154119534E+02  0.49207869947E+01 -0.13716164744E+02  0.50310700135E+02  0.00000000000E+00 0.  1.
<scales pt_clust_5="13000.00000" pt_clust_6="13000.00000" pt_clust_7="13000.00000" pt_clust_8="13000.00000" pt_clust_9="48.40491"></scales>
<clustering>
<clus scale="   48.405">  1  9  2 -1</clus>
<clus scale="   78.037">  5  6 -1 -1</clus>
<clus scale="   91.480">  7  8 -1 -1</clus>
<clus scale="  118.125">  1  5  2 -1</clus>
<clus scale="   48.405">  1  5  2 -1</clus>
</clustering>
</event>
<event>
 9    1  0.6270443E-005  0.1054758E+03  0.7546771E-02  0.1273651E+00
         -4   -1    0    0    0  501 -0.00000000000E+00  0.00000000000E+00  0.18613430668E+03  0.18613430668E+03  0.00000000000E+00 0.  1.
         21   -1    0    0  501  502  0.00000000000E+00 -0.00000000000E+00 -0.16805829617E+03  0.16805829617E+03  0.00000000000E+00 0.  1.
        -24    2    1    2    0    0  0.47482559516E+02 -0.37846771889E+02  0.87659059212E+02  0.13389082317E+03  0.80967093730E+02 0.  0.
         23    2    1    2    0    0 -0.48404979562E+02 -0.13654929999E+01  0.34664429071E+02  0.10891960338E+03  0.91197317617E+02 0.  0.
         13    1    3    3    0    0  0.55851071760E+02 -0.24140296097E+02  0.19541653842E+02  0.63905964880E+02  0.00000000000E+00 0. -1.
        -14    1    3    3    0    0 -0.83685122439E+01 -0.13706475792E+02  0.68117405369E+02  0.69984858291E+02  0.00000000000E+00 0.  1.
        -11    1    4    4    0    0 -0.98393663999E+01  0.39386533371E+02  0.33767823358E+02  0.52805094797E+02  0.00000000000E+00 0. -1.
         11    1    4    4    0    0 -0.38565613162E+02 -0.40752026371E+02  0.89660571292E+00  0.56114508585E+02  0.00000000000E+00 0.  1.
         -3    1    1    2    0  502  0.92242004584E+00  0.39212264889E+02 -0.10424747777E+03  0.11138217630E+03  0.00000000000E+00 0.  1.
<scales pt_clust_5="13000.00000" pt_clust_6="13000.00000" pt_clust_7="13000.00000" pt_clust_8="13000.00000" pt_clust_9="39.22311"></scales>
<clustering>
<clus scale="   39.223">  2  9  1 -1</clus>
<clus scale="   80.967">  5  6 -1 -1</clus>
<clus scale="   91.197">  7  8 -1 -1</clus>
<clus scale="   96.767">  1  5  2 -1</clus>
<clus scale="   39.223">  2  5  1 -1</clus>
</clustering>
</event>
<event>
 9    1  0.6270443E-005  0.1540595E+03  0.7546771E-02  0.1197740E+00
          3   -1    0    0  502    0 -0.00000000000E+00  0.00000000000E+00  0.45042934381E+03  0.45042934381E+03  0.00000000000E+00 0. -1.
         21   -1    0    0  501  502  0.00000000000E+00 -0.00000000000E+00 -0.76183718118E+02  0.76183718118E+02  0.00000000000E+00 0.  1.
        -24    2    1    2    0    0  0.11658900454E+03  0.44484829356E+02  0.25262634308E+03  0.29239155099E+03  0.78107962770E+02 0.  0.
         23    2    1    2    0    0 -0.12682945078E+03 -0.10278637338E+02  0.69579420987E+02  0.17110988357E+03  0.90807138807E+02 0.  0.
         11    1    3    3    0    0  0.63021351160E+02  0.11147991746E+02  0.20076396885E+03  0.21071815206E+03  0.00000000000E+00 0. -1.
        -12    1    3    3    0    0  0.53567653384E+02  0.33336837610E+02  0.51862374235E+02  0.81673398927E+02  0.00000000000E+00 0.  1.
        -11    1    4    4    0    0 -0.84608998583E+02  0.53858765796E+01 -0.39655767406E+01  0.84872940956E+02  0.00000000000E+00 0.  1.
         11    1    4    4    0    0 -0.42220452201E+02 -0.15664513917E+02  0.73544997728E+02  0.86236942612E+02  0.00000000000E+00 0. -1.
          4    1    1    2  501    0  0.10240446240E+02 -0.34206192018E+02  0.52039861624E+02  0.63111627371E+02  0.00000000000E+00 0. -1.
<scales pt_clust_5="13000.00000" pt_clust_6="13000.00000" pt_clust_7="13000.00000" pt_clust_8="13000.00000" pt_clust_9="35.70618"></scales>
<clustering>
<clus scale="   35.706">  2  9  1 -1</clus>
<clus scale="   78.108">  5  6 -1 -1</clus>
<clus scale="   90.807">  7  8 -1 -1</clus>
<clus scale="  146.933">  1  5  2 -1</clus>
<clus scale="   35.706">  2  5  1 -1</clus>
</clustering>
</event>
<event>
 9    1  0.6270443E-005  0.2041626E+03  0.7546771E-02  0.1168886E+00
          1   -1    0    0  502    0 -0.00000000000E+00  0.00000000000E+00  0.62867872774E+03  0.62867872774E+03  0.00000000000E+00 0. -1.
         21   -1    0    0  501  502  0.00000000000E+00 -0.00000000000E+00 -0.11071643047E+03  0.11071643047E+03  0.00000000000E+00 0. -1.
         23    2    1    2    0    0  0.62481618332E+02  0.44542276719E+02  0.73639489604E+02  0.14107394651E+03  0.92688278168E+02 0.  0.
        -24    2    1    2    0    0 -0.10685823901E+03  0.15062260617E+03  0.21866155457E+03  0.29668961998E+03  0.78140913871E+02 0.  0.
         11    1    4    4    0    0 -0.86225759893E+02  0.15575112181E+03  0.18399000201E+03  0.25601877754E+03  0.00000000000E+00 0. -1.
        -12    1    4    4    0    0 -0.20632479116E+02 -0.51285156419E+01  0.34671552567E+02  0.40670842437E+02  0.00000000000E+00 0.  1.
        -11    1    3    3    0    0  0.62478565891E+02  0.14981019266E+02  0.27961228782E+01  0.64310344714E+02  0.00000000000E+00 0. -1.
         11    1    3    3    0    0  0.30524411341E-02  0.29561257453E+02  0.70843366725E+02  0.76763601795E+02  0.00000000000E+00 0.  1.
          2    1    1    2  501    0  0.44376620676E+02 -0.19516488289E+03  0.22566125309E+03  0.30163159172E+03  0.00000000000E+00 0. -1.
<scales pt_clust_5="13000.00000" pt_clust_6="13000.00000" pt_clust_7="13000.00000" pt_clust_8="13000.00000" pt_clust_9="188.61702"></scales>
<clustering>
<clus scale="   78.141">  5  6 -1 -1</clus>
<clus scale="   92.688">  7  8 -1 -1</clus>
<clus scale="  120.329">  1  7  2 -1</clus>
<clus scale="  188.617">  2  9  1 -1</clus>
<clus scale="  188.617">  2  5  1 -1</clus>
</clustering>
</event>
<event>
 9    1  0.6270443E-005  0.1062400E+03  0.7546771E-02  0.1272325E+00
          1   -1    0    0  502    0 -0.00000000000E+00  0.00000000000E+00  0.79615918495E+02  0.79615918495E+02  0.00000000000E+00 0. -1.
         21   -1    0    0  501  502  0.00000000000E+00 -0.00000000000E+00 -0.60353324686E+03  0.60353324686E+03  0.00000000000E+00 0.  1.
         23    2    1    2    0    0  0.12547795396E+02 -0.61881276861E+02 -0.16231943166E+03  0.19971789501E+03  0.97738938492E+02 0.  0.
        -24    2    1    2    0    0 -0.15004836427E+02 -0.10019228252E+02 -0.39433816947E+03  0.40438922365E+03  0.87764014584E+02 0.  0.
         11    1    4    4    0    0  0.28979636944E+02 -0.29043044741E+02 -0.15788967924E+03  0.16313328482E+03  0.00000000000E+00 0. -1.
        -12    1    4    4    0    0 -0.43984473370E+02  0.19023816489E+02 -0.23644849022E+03  0.24125593883E+03  0.00000000000E+00 0.  1.
        -11    1    3    3    0    0 -0.21308629408E+02 -0.75987555805E+02 -0.99786489202E+02  0.12722228481E+03  0.00000000000E+00 0.  1.
         11    1    3    3    0    0  0.33856424803E+02  0.14106278944E+02 -0.62532942457E+02  0.72495610201E+02  0.00000000000E+00 0. -1.
          2    1    1    2  501    0  0.24570410312E+01  0.71900505113E+02  0.32740272757E+02  0.79042046699E+02  0.00000000000E+00 0. -1.
<scales pt_clust_5="13000.00000" pt_clust_6="13000.00000" pt_clust_7="13000.00000" pt_clust_8="13000.00000" pt_clust_9="71.94251"></scales>
<clustering>
<clus scale="   71.943">  2  9  1 -1</clus>
<clus scale="   87.764">  5  6 -1 -1</clus>
<clus scale="   97.142">  2  5  1 -1</clus>
<clus scale="   97.739">  7  8 -1 -1</clus>
<clus scale="   71.943">  2  5  1 -1</clus>
</clustering>
</event>
<event>
 9    1  0.7603734E-005  0.2209019E+03  0.7546771E-02  0.1148740E+00
         -2   -1    0    0    0  501 -0.00000000000E+00  0.00000000000E+00  0.10866939810E+04  0.10866939810E+04  0.00000000000E+00 0.  1.
         21   -1    0    0  501  502  0.00000000000E+00 -0.00000000000E+00 -0.99249408776E+02  0.99249408776E+02  0.00000000000E+00 0. -1.
         23    2    1    2    0    0 -0.51937625259E+02 -0.11007582009E+03  0.22596671828E+03  0.27232614550E+03  0.91029493399E+02 0.  0.
        -24    2    1    2    0    0  0.20593855120E+03 -0.42714254709E+02  0.16693306966E+03  0.28073132037E+03  0.81903785427E+02 0.  0.
         13    1    4    4    0    0  0.17744785149E+03 -0.50701311184E+02  0.10557990541E+03  0.21261580228E+03  0.00000000000E+00 0. -1.
        -14    1    4    4    0    0  0.28490699708E+02  0.79870564754E+01  0.61353164250E+02  0.68115518088E+02  0.00000000000E+00 0.  1.
        -11    1    3    3    0    0 -0.59269557159E+02 -0.77012980351E+02  0.90858382910E+02  0.13303805957E+03  0.00000000000E+00 0. -1.
         11    1    3    3    0    0  0.73319319007E+01 -0.33062839736E+02  0.13510833537E+03  0.13928808594E+03  0.00000000000E+00 0.  1.
         -1    1    1    2    0  502 -0.15400092594E+03  0.15279007480E+03  0.59454478426E+03  0.63288592387E+03  0.00000000000E+00 0.  1.
<scales pt_clust_5="13000.00000" pt_clust_6="13000.00000" pt_clust_7="13000.00000" pt_clust_8="13000.00000" pt_clust_9="205.15712"></scales>
<clustering>
<clus scale="   81.904">  5  6 -1 -1</clus>
<clus scale="   91.029">  7  8 -1 -1</clus>
<clus scale="  151.989">  1  7  2 -1</clus>
<clus scale="  205.157">  2  9  1 -1</clus>
<clus scale="  205.157">  2  5  1 -1</clus>
</clustering>
</event>
<event>
 9    1  0.6270443E-005  0.1099084E+03  0.7546771E-02  0.1264222E+00
         21   -1    0    0  501  502  0.00000000000E+00  0.00000000000E+00  0.72466902301E+03  0.72466902301E+03  0.00000000000E+00 0.  1.
          3   -1    0    0  502    0 -0.00000000000E+00 -0.00000000000E+00 -0.35700908063E+02  0.35700908063E+02  0.00000000000E+00 0. -1.
        -24    2    1    2    0    0 -0.10657679891E+02 -0.47347128936E+02  0.18034040291E+03  0.20369014218E+03  0.81312215182E+02 0.  0.
         23    2    1    2    0    0  0.95835237429E+02  0.37270384161E+02  0.26233173334E+03  0.29587628775E+03  0.90284910494E+02 0.  0.
         11    1    3    3    0    0  0.24695691567E+02  0.45293184669E+01  0.22087263262E+02  0.33440082329E+02  0.00000000000E+00 0. -1.
        -12    1    3    3    0    0 -0.35353371458E+02 -0.51876447403E+02  0.15825313965E+03  0.17025005985E+03  0.00000000000E+00 0.  1.
        -11    1    4    4    0    0 -0.16229750303E+02  0.15823070968E+02  0.39969169278E+02  0.45948981082E+02  0.00000000000E+00 0. -1.
         11    1    4    4    0    0  0.11206498773E+03  0.21447313192E+02  0.22236256407E+03  0.24992730666E+03  0.00000000000E+00 0.  1.
          4    1    1    2  501    0 -0.85177557537E+02  0.10076744775E+02  0.24629597869E+03  0.26080350115E+03  0.00000000000E+00 0. -1.
<scales pt_clust_5="13000.00000" pt_clust_6="13000.00000" pt_clust_7="13000.00000" pt_clust_8="13000.00000" pt_clust_9="85.77154"></scales>
<clustering>
<clus scale="   81.312">  5  6 -1 -1</clus>
<clus scale="   85.772">  1  9  2 -1</clus>
<clus scale="   90.285">  7  8 -1 -1</clus>
<clus scale="  102.665">  2  5  1 -1</clus>
<clus scale="   85.772">  1  5  2 -1</clus>
</clustering>
</event>
<event>
 9    1  0.6270443E-005  0.1328384E+03  0.7546771E-02  0.1236446E+00
         21   -1    0    0  501  502  0.00000000000E+00  0.00000000000E+00  0.84902960786E+03  0.84902960786E+03  0.00000000000E+00 0. -1.
          1   -1    0    0  502    0 -0.00000000000E+00 -0.00000000000E+00 -0.35333724519E+02  0.35333724519E+02  0.00000000000E+00 0. -1.
         23    2    1    2    0    0 -0.41199247735E+02  0.11414039214E+02  0.19483343496E+03  0.21957635354E+03  0.91793514767E+02 0.  0.
        -24    2    1    2    0    0  0.96232530886E+01  0.98936667150E+02  0.33009886175E+03  0.35404797131E+03  0.80645126027E+02 0.  0.
         13    1    4    4    0    0 -0.24627972176E+01  0.92555296741E+02  0.17180629464E+03  0.19516647049E+03  0.00000000000E+00 0. -1.
        -14    1    4    4    0    0  0.12086050306E+02  0.63813704087E+01  0.15829256711E+03  0.15888150082E+03  0.00000000000E+00 0.  1.
        -13    1    3    3    0    0 -0.28562924832E+02 -0.21051168191E+02  0.17684327477E+03  0.18036778035E+03  0.00000000000E+00 0.  1.
         13    1    3    3    0    0 -0.12636322903E+02  0.32465207405E+02  0.17990160189E+02  0.39208573195E+02  0.00000000000E+00 0. -1.
          2    1    1    2  501    0  0.31575994647E+02 -0.11035070636E+03  0.28876358664E+03  0.31073900753E+03  0.00000000000E+00 0. -1.
<scales pt_clust_5="13000.00000" pt_clust_6="13000.00000" pt_clust_7="13000.00000" pt_clust_8="13000.00000" pt_clust_9="105.55758"></scales>
<clustering>
<clus scale="   80.645">  5  6 -1 -1</clus>
<clus scale="   91.794">  7  8 -1 -1</clus>
<clus scale="  101.261">  2  7  1 -1</clus>
<clus scale="  105.558">  1  9  2 -1</clus>
<clus scale="  105.558">  1  5  2 -1</clus>
</clustering>
</event>
<event>
 9    1  0.6270443E-005  0.9197019E+02  0.7546771E-02  0.1302686E+00
          1   -1    0    0  502    0 -0.00000000000E+00  0.00000000000E+00  0.57145601065E+02  0.57145601065E+02  0.00000000000E+00 0. -1.
         21   -1    0    0  501  502  0.00000000000E+00 -0.00000000000E+00 -0.26534713152E+03  0.26534713152E+03  0.00000000000E+00 0. -1.
        -24    2    1    2    0    0  0.11681452645E+02  0.26135591831E+02 -0.14957379031E+02  0.85737258205E+02  0.79420581468E+02 0.  0.
         23    2    1    2    0    0  0.12911034276E+02 -0.37071015786E+02 -0.18556034120E+03  0.20876592545E+03  0.87233115180E+02 0.  0.
         13    1    3    3    0    0  0.41913435893E+02  0.33077997929E+02 -0.88280031037E+01  0.54118607652E+02  0.00000000000E+00 0. -1.
        -14    1    3    3    0    0 -0.30231983248E+02 -0.69424060974E+01 -0.61293759276E+01  0.31618650553E+02  0.00000000000E+00 0.  1.
        -13    1    4    4    0    0 -0.34684260645E+02 -0.26825394345E+02 -0.61809858742E+02  0.75782968772E+02  0.00000000000E+00 0.  1.
         13    1    4    4    0    0  0.47595294921E+02 -0.10245621441E+02 -0.12375048246E+03  0.13298295668E+03  0.00000000000E+00 0. -1.
          2    1    1    2  501    0 -0.24592486921E+02  0.10935423955E+02 -0.76838102259E+01  0.27989548935E+02  0.00000000000E+00 0. -1.
<scales pt_clust_5="13000.00000" pt_clust_6="13000.00000" pt_clust_7="13000.00000" pt_clust_8="13000.00000" pt_clust_9="26.91421"></scales>
<clustering>
<clus scale="   26.914">  2  9  1 -1</clus>
<clus scale="   79.421">  5  6 -1 -1</clus>
<clus scale="   84.596">  1  5  2 -1</clus>
<clus scale="   87.233">  7  8 -1 -1</clus>
<clus scale="   26.914">  2  5  1 -1</clus>
</clustering>
</event>
<event>
 9    1  0.6270443E-005  0.1080568E+03  0.7546771E-02  0.1266892E+00
          3   -1    0    0  502    0 -0.00000000000E+00  0.00000000000E+00  0.15213255558E+03  0.15213255558E+03  0.00000000000E+00 0. -1.
         21   -1    0    0  501  502  0.00000000000E+00 -0.00000000000E+00 -0.53817912559E+03  0.53817912559E+03  0.00000000000E+00 0. -1.
        -24    2    1    2    0    0  0.51033311089E+02  0.28028258769E+02  0.11850011608E+03  0.15611318148E+03  0.83301055158E+02 0.  0.
         23    2    1    2    0    0 -0.62495593119E+02 -0.63877466902E+02 -0.29207832976E+03  0.31842233772E+03  0.89983356832E+02 0.  0.
         11    1    3    3    0    0  0.57681721931E+02  0.30792519838E+02  0.12827153438E+03  0.14397550783E+03  0.00000000000E+00 0. -1.
        -12    1    3    3    0    0 -0.66484108415E+01 -0.27642610688E+01 -0.97714183012E+01  0.12137673648E+02  0.00000000000E+00 0.  1.
        -11    1    4    4    0    0 -0.37671686135E+02 -0.16001401533E+02 -0.23995662201E+03  0.24342222831E+03  0.00000000000E+00 0.  1.
         11    1    4    4    0    0 -0.24823906985E+02 -0.47876065369E+02 -0.52121707747E+02  0.75000109411E+02  0.00000000000E+00 0. -1.
          4    1    1    2  501    0  0.11462282030E+02  0.35849208133E+02 -0.21246835633E+03  0.21577616197E+03  0.00000000000E+00 0. -1.
<scales pt_clust_5="13000.00000" pt_clust_6="13000.00000" pt_clust_7="13000.00000" pt_clust_8="13000.00000" pt_clust_9="37.63708"></scales>
<clustering>
<clus scale="   37.637">  2  9  1 -1</clus>
<clus scale="   83.301">  5  6 -1 -1</clus>
<clus scale="   89.983">  7  8 -1 -1</clus>
<clus scale="  102.559">  1  5  2 -1</clus>
<clus scale="   37.637">  2  5  1 -1</clus>
</clustering>
</event>
<event>
 9    1  0.6270443E-005  0.1023261E+03  0.7546771E-02  0.1280343E+00
         -2   -1    0    0    0  501 -0.00000000000E+00  0.00000000000E+00  0.56360161082E+02  0.56360161082E+02  0.00000000000E+00 0.  1.
         21   -1    0    0  501  502  0.00000000000E+00 -0.00000000000E+00 -0.33605656739E+03  0.33605656739E+03  0.00000000000E+00 0.  1.
        -24    2    1    2    0    0  0.13936371914E+02  0.35111527749E+02 -0.82260862232E+02  0.12203387941E+03  0.81843609558E+02 0.  0.
         23    2    1    2    0    0 -0.67703514876E+02 -0.22258083944E+02 -0.17615319621E+03  0.21114557186E+03  0.92050615170E+02 0.  0.
         11    1    3    3    0    0 -0.31896955195E+02 -0.63740337855E+00 -0.32080863722E+02  0.45243826661E+02  0.00000000000E+00 0. -1.
        -12    1    3    3    0    0  0.45833327109E+02  0.35748931127E+02 -0.50179998510E+02  0.76790052748E+02  0.00000000000E+00 0.  1.
        -13    1    4    4    0    0 -0.18318370660E+02 -0.15091705257E+02  0.41231945768E+01  0.24089894244E+02  0.00000000000E+00 0.  1.
         13    1    4    4    0    0 -0.49385144216E+02 -0.71663786870E+01 -0.18027639079E+03  0.18705567762E+03  0.00000000000E+00 0. -1.
         -1    1    1    2    0  502  0.53767142962E+02 -0.12853443805E+02 -0.21282347866E+02  0.59237277205E+02  0.00000000000E+00 0.  1.
<scales pt_clust_5="13000.00000" pt_clust_6="13000.00000" pt_clust_7="13000.00000" pt_clust_8="13000.00000" pt_clust_9="55.28218"></scales>
<clustering>
<clus scale="   55.282">  2  9  1 -1</clus>
<clus scale="   81.844">  5  6 -1 -1</clus>
<clus scale="   92.051">  7  8 -1 -1</clus>
<clus scale="   93.251">  1  5  2 -1</clus>
<clus scale="   55.282">  2  5  1 -1</clus>
</clustering>
</event>
<event>
 9    1  0.6270443E-005  0.1854177E+03  0.7546771E-02  0.1163562E+00
         21   -1    0    0  501  502  0.00000000000E+00  0.00000000000E+00  0.11477558537E+03  0.11477558537E+03  0.00000000000E+00 0. -1.
          1   -1    0    0  502    0 -0.00000000000E+00 -0.00000000000E+00 -0.10227513957E+04  0.10227513957E+04  0.00000000000E+00 0. -1.
        -24    2    1    2    0    0  0.16722778760E+03  0.70501593495E+02 -0.84587434069E+03  0.86898505512E+03  0.81829201087E+02 0.  0.
         23    2    1    2    0    0 -0.98448536963E+02 -0.39609421261E+02 -0.11157651796E+03  0.17836048638E+03  0.90011793994E+02 0.  0.
         11    1    3    3    0    0  0.81079150798E+02  0.42988840806E+02 -0.25049096829E+03  0.26677255167E+03  0.00000000000E+00 0. -1.
        -12    1    3    3    0    0  0.86148636807E+02  0.27512752688E+02 -0.59538337240E+03  0.60221250345E+03  0.00000000000E+00 0.  1.
        -13    1    4    4    0    0 -0.36683029607E+02 -0.55807968118E+02 -0.87597717083E+02  0.11015232183E+03  0.00000000000E+00 0. -1.
         13    1    4    4    0    0 -0.61765507355E+02  0.16198546858E+02 -0.23978800874E+02  0.68208164545E+02  0.00000000000E+00 0.  1.
          2    1    1    2  501    0 -0.68779250642E+02 -0.30892172234E+02  0.49475048369E+02  0.90181439528E+02  0.00000000000E+00 0. -1.
<scales pt_clust_5="13000.00000" pt_clust_6="13000.00000" pt_clust_7="13000.00000" pt_clust_8="13000.00000" pt_clust_9="75.39835"></scales>
<clustering>
<clus scale="   75.398">  1  9  2 -1</clus>
<clus scale="   81.829">  5  6 -1 -1</clus>
<clus scale="   90.012">  7  8 -1 -1</clus>
<clus scale="  181.586">  2  5  1 -1</clus>
<clus scale="   75.398">  1  5  2 -1</clus>
</clustering>
</event>
<event>
 9    1  0.6270443E-005  0.2207563E+03  0.7546771E-02  0.1134473E+00
         21   -1    0    0  501  502  0.00000000000E+00  0.00000000000E+00  0.55739138595E+02  0.55739138595E+02  0.00000000000E+00 0.  1.
          1   -1    0    0  502    0 -0.00000000000E+00 -0.00000000000E+00 -0.16996432880E+04  0.16996432880E+04  0.00000000000E+00 0. -1.
        -24    2    1    2    0    0  0.19028217305E+03 -0.76848744266E+02 -0.10604253342E+04  0.10827345894E+04  0.75493488445E+02 0.  0.
         23    2    1    2    0    0 -0.16737558343E+03  0.10047171089E+03 -0.59874679168E+03  0.63637294906E+03  0.91453043267E+02 0.  0.
         11    1    3    3    0    0  0.15824441436E+03 -0.92138633627E+02 -0.87981980495E+03  0.89867330641E+03  0.00000000000E+00 0. -1.
        -12    1    3    3    0    0  0.32037758688E+02  0.15289889361E+02 -0.18060552929E+03  0.18406128302E+03  0.00000000000E+00 0.  1.
        -13    1    4    4    0    0 -0.63076886643E+02  0.90680095072E+02 -0.28897034307E+03  0.30936294614E+03  0.00000000000E+00 0.  1.
         13    1    4    4    0    0 -0.10429869679E+03  0.97916158176E+01 -0.30977644861E+03  0.32701000291E+03  0.00000000000E+00 0. -1.
          2    1    1    2  501    0 -0.22906589615E+02 -0.23622966623E+02  0.15267976514E+02  0.36274888100E+02  0.00000000000E+00 0. -1.
<scales pt_clust_5="13000.00000" pt_clust_6="13000.00000" pt_clust_7="13000.00000" pt_clust_8="13000.00000" pt_clust_9="32.90526"></scales>
<clustering>
<clus scale="   32.905">  1  9  2 -1</clus>
<clus scale="   75.493">  5  6 -1 -1</clus>
<clus scale="   91.453">  7  8 -1 -1</clus>
<clus scale="  214.637">  2  5  1 -1</clus>
<clus scale="   32.905">  1  5  2 -1</clus>
</clustering>
</event>
<event>
 9    1  0.6270443E-005  0.1459185E+03  0.7546771E-02  0.1207570E+00
          1   -1    0    0  502    0 -0.00000000000E+00  0.00000000000E+00  0.50662144110E+03  0.50662144110E+03  0.00000000000E+00 0. -1.
         21   -1    0    0  501  502  0.00000000000E+00 -0.00000000000E+00 -0.72711828524E+02  0.72711828524E+02  0.00000000000E+00 0. -1.
        -24    2    1    2    0    0 -0.93366287877E+01  0.10277405232E+03  0.15855122391E+03  0.20590621433E+03  0.81296986600E+02 0.  0.
         23    2    1    2    0    0 -0.68762220950E+02 -0.12496712235E+03  0.16559154780E+03  0.23689602570E+03  0.91400993387E+02 0.  0.
         13    1    3    3    0    0 -0.35458441705E+02  0.27305278399E+02  0.90589061630E+02  0.10104086997E+03  0.00000000000E+00 0. -1.
        -14    1    3    3    0    0  0.26121812917E+02  0.75468773923E+02  0.67962162279E+02  0.10486534437E+03  0.00000000000E+00 0.  1.
        -13    1    4    4    0    0  0.38990664916E+00 -0.34605622320E+02  0.99413021511E+02  0.10526466629E+03  0.00000000000E+00 0.  1.
         13    1    4    4    0    0 -0.69152127599E+02 -0.90361500025E+02  0.66178526293E+02  0.13163135941E+03  0.00000000000E+00 0. -1.
          2    1    1    2  501    0  0.78098849737E+02  0.22193070023E+02  0.10976684086E+03  0.13653102959E+03  0.00000000000E+00 0. -1.
<scales pt_clust_5="13000.00000" pt_clust_6="13000.00000" pt_clust_7="13000.00000" pt_clust_8="13000.00000" pt_clust_9="81.19094"></scales>
<clustering>
<clus scale="   81.191">  2  9  1 -1</clus>
<clus scale="   81.297">  5  6 -1 -1</clus>
<clus scale="   91.401">  7  8 -1 -1</clus>
<clus scale="  139.812">  1  5  2 -1</clus>
<clus scale="   81.191">  2  5  1 -1</clus>
</clustering>
</event>
<event>
 9    1  0.6270443E-005  0.1007657E+03  0.7546771E-02  0.1283445E+00
         -2   -1    0    0    0  501 -0.00000000000E+00  0.00000000000E+00  0.58501465888E+03  0.58501465888E+03  0.00000000000E+00 0.  1.
         21   -1    0    0  501  502  0.00000000000E+00 -0.00000000000E+00 -0.27301466178E+02  0.27301466178E+02  0.00000000000E+00 0.  1.
         23    2    1    2    0    0  0.22795124792E+02 -0.20013196221E+02  0.24487966632E+03  0.26288179806E+03  0.90667761826E+02 0.  0.
        -24    2    1    2    0    0 -0.46488386829E+02  0.50011156916E+02  0.15967739784E+03  0.19157981164E+03  0.80892934915E+02 0.  0.
         13    1    4    4    0    0  0.17430701598E+02  0.12644287031E+02  0.83232255689E+01  0.23086434038E+02  0.00000000000E+00 0. -1.
        -14    1    4    4    0    0 -0.63919088426E+02  0.37366869885E+02  0.15135417228E+03  0.16849337760E+03  0.00000000000E+00 0.  1.
        -11    1    3    3    0    0  0.27910100028E+02  0.24458096813E+02  0.18170015999E+03  0.18545112651E+03  0.00000000000E+00 0.  1.
         11    1    3    3    0    0 -0.51149752352E+01 -0.44471293034E+02  0.63179506325E+02  0.77430671541E+02  0.00000000000E+00 0. -1.
         -1    1    1    2    0  502  0.23693262036E+02 -0.29997960695E+02  0.15315612854E+03  0.15785451536E+03  0.00000000000E+00 0.  1.
<scales pt_clust_5="13000.00000" pt_clust_6="13000.00000" pt_clust_7="13000.00000" pt_clust_8="13000.00000" pt_clust_9="38.22630"></scales>
<clustering>
<clus scale="   38.226">  2  9  1 -1</clus>
<clus scale="   80.893">  5  6 -1 -1</clus>
<clus scale="   90.668">  7  8 -1 -1</clus>
<clus scale="   92.069">  2  5  1 -1</clus>
<clus scale="   38.226">  2  5  1 -1</clus>
</clustering>
</event>
<event>
 9    1  0.6270443E-005  0.1427176E+03  0.7546771E-02  0.1211816E+00
         21   -1    0    0  501  502  0.00000000000E+00  0.00000000000E+00  0.37164029903E+03  0.37164029903E+03  0.00000000000E+00 0. -1.
          3   -1    0    0  502    0 -0.00000000000E+00 -0.00000000000E+00 -0.97792704232E+02  0.97792704232E+02  0.00000000000E+00 0. -1.
         23    2    1    2    0    0 -0.95663830968E+02  0.95017413730E+02  0.48615245614E+02  0.16960906985E+03  0.90685814777E+02 0.  0.
        -24    2    1    2    0    0  0.75131883876E+02 -0.44462380095E+02  0.76155335857E+02  0.14107467143E+03  0.80502947283E+02 0.  0.
         11    1    4    4    0    0  0.56388047617E+02 -0.55670322778E+02  0.21329738222E+02  0.82059457011E+02  0.00000000000E+00 0. -1.
        -12    1    4    4    0    0  0.18743836259E+02  0.11207942684E+02  0.54825597635E+02  0.59015214419E+02  0.00000000000E+00 0.  1.
        -13    1    3    3    0    0 -0.70155270530E+02  0.16216665278E+02  0.48439898307E+02  0.86782290612E+02  0.00000000000E+00 0.  1.
         13    1    3    3    0    0 -0.25508560438E+02  0.78800748452E+02  0.17534730680E+00  0.82826779238E+02  0.00000000000E+00 0. -1.
          4    1    1    2  501    0  0.20531947093E+02 -0.50555033636E+02  0.14907701332E+03  0.15874926198E+03  0.00000000000E+00 0. -1.
<scales pt_clust_5="13000.00000" pt_clust_6="13000.00000" pt_clust_7="13000.00000" pt_clust_8="13000.00000" pt_clust_9="54.56530"></scales>
<clustering>
<clus scale="   54.565">  1  9  2 -1</clus>
<clus scale="   80.503">  5  6 -1 -1</clus>
<clus scale="   90.686">  7  8 -1 -1</clus>
<clus scale="  136.474">  1  5  2 -1</clus>
<clus scale="   54.565">  1  5  2 -1</clus>
</clustering>
</event>
<event>
 9    1  0.6270443E-005  0.1739934E+03  0.7546771E-02  0.1174847E+00
          1   -1    0    0  502    0 -0.00000000000E+00  0.00000000000E+00  0.37679951197E+03  0.37679951197E+03  0.00000000000E+00 0. -1.
         21   -1    0    0  501  502  0.00000000000E+00 -0.00000000000E+00 -0.24360378129E+03  0.24360378129E+03  0.00000000000E+00 0. -1.
        -24    2    1    2    0    0 -0.96424592748E+02 -0.13857041673E+03  0.13028549554E+02  0.18850204690E+03  0.82848150865E+02 0.  0.
         23    2    1    2    0    0 -0.66454464500E+02  0.15479612979E+03 -0.47672760050E+02  0.19745912791E+03  0.91320192156E+02 0.  0.
         11    1    3    3    0    0 -0.59080735535E+02 -0.74539965156E+02  0.48002342928E+02  0.10654090596E+03  0.00000000000E+00 0. -1.
        -12    1    3    3    0    0 -0.37343857213E+02 -0.64030451574E+02 -0.34973793374E+02  0.81961140935E+02  0.00000000000E+00 0.  1.
        -13    1    4    4    0    0 -0.53547724915E+01  0.70248634514E+02  0.19853454436E+02  0.73196337972E+02  0.00000000000E+00 0.  1.
         13    1    4    4    0    0 -0.61099692008E+02  0.84547495274E+02 -0.67526214486E+02  0.12426278994E+03  0.00000000000E+00 0. -1.
          2    1    1    2  501    0  0.16287905725E+03 -0.16225713057E+02  0.16783994118E+03  0.23444211846E+03  0.00000000000E+00 0. -1.
<scales pt_clust_5="13000.00000" pt_clust_6="13000.00000" pt_clust_7="13000.00000" pt_clust_8="13000.00000" pt_clust_9="163.68533"></scales>
<clustering>
<clus scale="   82.848">  5  6 -1 -1</clus>
<clus scale="   91.320">  7  8 -1 -1</clus>
<clus scale="  163.685">  2  9  1 -1</clus>
<clus scale="  169.700">  1  5  2 -1</clus>
<clus scale="  163.685">  2  5  1 -1</clus>
</clustering>
</event>
<event>
 9    1  0.6270443E-005  0.1150503E+03  0.7546771E-02  0.1254326E+00
          3   -1    0    0  502    0 -0.00000000000E+00  0.00000000000E+00  0.35903651828E+02  0.35903651828E+02  0.00000000000E+00 0. -1.
         21   -1    0    0  501  502  0.00000000000E+00 -0.00000000000E+00 -0.70067880225E+03  0.70067880225E+03  0.00000000000E+00 0. -1.
         23    2    1    2    0    0  0.23101159029E+02  0.74863767178E+02 -0.30108587411E+03  0.32385709940E+03  0.89958157251E+02 0.  0.
        -24    2    1    2    0    0 -0.61750422768E+02 -0.40463471322E+02 -0.33692191412E+03  0.35447041823E+03  0.81746522619E+02 0.  0.
         13    1    4    4    0    0 -0.54342752922E+02 -0.20562510023E+02 -0.93219177342E+02  0.10984428359E+03  0.00000000000E+00 0. -1.
        -14    1    4    4    0    0 -0.74076698456E+01 -0.19900961299E+02 -0.24370273678E+03  0.24462613464E+03  0.00000000000E+00 0.  1.
        -13    1    3    3    0    0 -0.21774742039E+02  0.50998632412E+02 -0.82256305312E+02  0.99202316820E+02  0.00000000000E+00 0.  1.
         13    1    3    3    0    0  0.44875901068E+02  0.23865134766E+02 -0.21882956880E+03  0.22465478258E+03  0.00000000000E+00 0. -1.
          4    1    1    2  501    0  0.38649263738E+02 -0.34400295856E+02 -0.26767362190E+02  0.58254936453E+02  0.00000000000E+00 0. -1.
<scales pt_clust_5="13000.00000" pt_clust_6="13000.00000" pt_clust_7="13000.00000" pt_clust_8="13000.00000" pt_clust_9="51.74117"></scales>
<clustering>
<clus scale="   51.741">  2  9  1 -1</clus>
<clus scale="   81.747">  5  6 -1 -1</clus>
<clus scale="   89.958">  7  8 -1 -1</clus>
<clus scale="  108.750">  2  5  1 -1</clus>
<clus scale="   51.741">  2  5  1 -1</clus>
</clustering>
</event>
<event>
 9    1  0.6270443E-005  0.1451726E+03  0.7546771E-02  0.1208234E+00
         21   -1    0    0  501  502  0.00000000000E+00  0.00000000000E+00  0.14837230944E+03  0.14837230944E+03  0.00000000000E+00 0.  1.
          3   -1    0    0  502    0 -0.00000000000E+00 -0.00000000000E+00 -0.26978602915E+03  0.26978602915E+03  0.00000000000E+00 0. -1.
        -24    2    1    2    0    0  0.39218871629E+02  0.10947319815E+03 -0.18504033215E+03  0.23363582567E+03  0.82603108345E+02 0.  0.
         23    2    1    2    0    0 -0.50572379813E+01 -0.10247491835E+03  0.58877438122E+02  0.14932950524E+03  0.91137609517E+02 0.  0.
         13    1    3    3    0    0  0.43394035915E+02  0.12107363931E+03 -0.15665464722E+03  0.20268830006E+03  0.00000000000E+00 0. -1.
        -14    1    3    3    0    0 -0.41751642857E+01 -0.11600441157E+02 -0.28385684938E+02  0.30947525608E+02  0.00000000000E+00 0.  1.
        -11    1    4    4    0    0 -0.15215915601E+02 -0.78529996918E+02  0.81980896782E+02  0.11453973957E+03  0.00000000000E+00 0.  1.
         11    1    4    4    0    0  0.10158677620E+02 -0.23944921429E+02 -0.23103458659E+02  0.34789765668E+02  0.00000000000E+00 0. -1.
          4    1    1    2  501    0 -0.34161633648E+02 -0.69982798024E+01  0.47491743219E+01  0.35193007692E+02  0.00000000000E+00 0. -1.
<scales pt_clust_5="13000.00000" pt_clust_6="13000.00000" pt_clust_7="13000.00000" pt_clust_8="13000.00000" pt_clust_9="34.87109"></scales>
<clustering>
<clus scale="   34.871">  1  9  2 -1</clus>
<clus scale="   82.603">  5  6 -1 -1</clus>
<clus scale="   91.138">  7  8 -1 -1</clus>
<clus scale="  139.973">  2  5  1 -1</clus>
<clus scale="   34.871">  1  5  2 -1</clus>
</clustering>
</event>
<event>
 9    1  0.6270443E-005  0.1356125E+03  0.7546771E-02  0.1222609E+00
         21   -1    0    0  501  502  0.00000000000E+00  0.00000000000E+00  0.20558762056E+03  0.20558762056E+03  0.00000000000E+00 0. -1.
          1   -1    0    0  502    0 -0.00000000000E+00 -0.00000000000E+00 -0.15627623746E+03  0.15627623746E+03  0.00000000000E+00 0. -1.
        -24    2    1    2    0    0 -0.83091852871E+02  0.27097165260E+02  0.25390332878E+02  0.12163308694E+03  0.80693410237E+02 0.  0.
         23    2    1    2    0    0  0.65356767688E+02 -0.10657167241E+03  0.26789651359E+02  0.15875096128E+03  0.94101827009E+02 0.  0.
         11    1    3    3    0    0 -0.73811281959E+02  0.44986982526E+02  0.41448592783E+02  0.95864069311E+02  0.00000000000E+00 0. -1.
        -12    1    3    3    0    0 -0.92805709121E+01 -0.17889817265E+02 -0.16058259905E+02  0.25769017626E+02  0.00000000000E+00 0.  1.
        -11    1    4    4    0    0  0.20656405251E+02 -0.57058781045E+02 -0.33084124416E+02  0.69115489296E+02  0.00000000000E+00 0.  1.
         11    1    4    4    0    0  0.44700362437E+02 -0.49512891360E+02  0.59873775775E+02  0.89635471988E+02  0.00000000000E+00 0. -1.
          2    1    1    2  501    0  0.17735085183E+02  0.79474507145E+02 -0.28686011357E+01  0.81479809799E+02  0.00000000000E+00 0. -1.
<scales pt_clust_5="13000.00000" pt_clust_6="13000.00000" pt_clust_7="13000.00000" pt_clust_8="13000.00000" pt_clust_9="81.42934"></scales>
<clustering>
<clus scale="   80.693">  5  6 -1 -1</clus>
<clus scale="   81.429">  1  9  2 -1</clus>
<clus scale="   94.102">  7  8 -1 -1</clus>
<clus scale="  126.677">  2  5  1 -1</clus>
<clus scale="   81.429">  1  5  2 -1</clus>
</clustering>
</event>
<event>
 9    1  0.6270443E-005  0.9944847E+02  0.7546771E-02  0.1285392E+00
          1   -1    0    0  502    0 -0.00000000000E+00  0.00000000000E+00  0.14050310211E+03  0.14050310211E+03  0.00000000000E+00 0. -1.
         21   -1    0    0  501  502  0.00000000000E+00 -0.00000000000E+00 -0.36859671940E+03  0.36859671940E+03  0.00000000000E+00 0.  1.
         23    2    1    2    0    0  0.30623643935E+02 -0.35380645257E+02  0.10911077986E+03  0.14783223646E+03  0.88088649825E+02 0.  0.
        -24    2    1    2    0    0 -0.45650555917E+02  0.77775032641E+01 -0.29156650966E+03  0.30585496640E+03  0.79948534065E+02 0.  0.
         11    1    4    4    0    0 -0.50762592928E+02  0.20318444560E+02 -0.10136392822E+03  0.11517085557E+03  0.00000000000E+00 0. -1.
        -12    1    4    4    0    0  0.51120370105E+01 -0.12540941296E+02 -0.19020258145E+03  0.19068411082E+03  0.00000000000E+00 0.  1.
        -13    1    3    3    0    0  0.55627925969E+02 -0.13128527022E+02  0.36334434460E+02  0.67727509160E+02  0.00000000000E+00 0. -1.
         13    1    3    3    0    0 -0.25004282034E+02 -0.22252118234E+02  0.72776345398E+02  0.80104727298E+02  0.00000000000E+00 0.  1.
          2    1    1    2  501    0  0.15026911982E+02  0.27603141993E+02 -0.45637887494E+02  0.55412618657E+02  0.00000000000E+00 0. -1.
<scales pt_clust_5="13000.00000" pt_clust_6="13000.00000" pt_clust_7="13000.00000" pt_clust_8="13000.00000" pt_clust_9="31.42836"></scales>
<clustering>
<clus scale="   31.428">  2  9  1 -1</clus>
<clus scale="   79.949">  5  6 -1 -1</clus>
<clus scale="   88.089">  7  8 -1 -1</clus>
<clus scale="   92.316">  2  5  1 -1</clus>
<clus scale="   31.428">  2  5  1 -1</clus>
</clustering>
</event>
<event>
 9    1  0.6270443E-005  0.1037392E+03  0.7546771E-02  0.1280636E+00
          1   -1    0    0  502    0 -0.00000000000E+00  0.00000000000E+00  0.87781634022E+02  0.87781634022E+02  0.00000000000E+00 0. -1.
         21   -1    0    0  501  502  0.00000000000E+00 -0.00000000000E+00 -0.37278869237E+03  0.37278869237E+03  0.00000000000E+00 0. -1.
         23    2    1    2    0    0 -0.40152579293E+02  0.25416610636E+02  0.36363997963E+02  0.11324106318E+03  0.96140336608E+02 0.  0.
        -24    2    1    2    0    0  0.60377292505E-01 -0.70306366894E+01 -0.14748219301E+03  0.16793370730E+03  0.80008120181E+02 0.  0.
         11    1    4    4    0    0  0.86720864062E+01 -0.40879694419E+02 -0.54993850627E+02  0.69070095593E+02  0.00000000000E+00 0. -1.
        -12    1    4    4    0    0 -0.86117091137E+01  0.33849057730E+02 -0.92488342379E+02  0.98863611704E+02  0.00000000000E+00 0.  1.
        -11    1    3    3    0    0 -0.15950001300E+02 -0.22157191526E+02 -0.21328253171E+02  0.34644452097E+02  0.00000000000E+00 0.  1.
         11    1    3    3    0    0 -0.24202577993E+02  0.47573802161E+02  0.57692251133E+02  0.78596611087E+02  0.00000000000E+00 0. -1.
          2    1    1    2  501    0  0.40092202001E+02 -0.18385973946E+02 -0.17388886330E+03  0.17939555591E+03  0.00000000000E+00 0. -1.
<scales pt_clust_5="13000.00000" pt_clust_6="13000.00000" pt_clust_7="13000.00000" pt_clust_8="13000.00000" pt_clust_9="44.10701"></scales>
<clustering>
<clus scale="   44.107">  2  9  1 -1</clus>
<clus scale="   80.008">  5  6 -1 -1</clus>
<clus scale="   88.995">  2  5  1 -1</clus>
<clus scale="   96.140">  7  8 -1 -1</clus>
<clus scale="   44.107">  2  5  1 -1</clus>
</clustering>
</event>
<event>
 9    1  0.6270443E-005  0.1398998E+03  0.7546771E-02  0.1216697E+00
         -2   -1    0    0    0  501 -0.00000000000E+00  0.00000000000E+00  0.54636075059E+03  0.54636075059E+03  0.00000000000E+00 0.  1.
         21   -1    0    0  501  502  0.00000000000E+00 -0.00000000000E+00 -0.72640468022E+02  0.72640468022E+02  0.00000000000E+00 0. -1.
        -24    2    1    2    0    0  0.14072307170E+02  0.10882931093E+03  0.30481970520E+03  0.33342859368E+03  0.78852556437E+02 0.  0.
         23    2    1    2    0    0 -0.63066755373E+02 -0.82573162583E+02  0.18103904370E+03  0.22867637158E+03  0.93391673947E+02 0.  0.
         11    1    3    3    0    0 -0.20573396294E+02  0.82931331608E+02  0.14946648346E+03  0.17216590858E+03  0.00000000000E+00 0. -1.
        -12    1    3    3    0    0  0.34645703464E+02  0.25897979320E+02  0.15535322174E+03  0.16126268510E+03  0.00000000000E+00 0.  1.
        -11    1    4    4    0    0  0.15325470855E+02 -0.46643998788E+02  0.94579835179E+02  0.10656396155E+03  0.00000000000E+00 0.  1.
         11    1    4    4    0    0 -0.78392226227E+02 -0.35929163796E+02  0.86459208522E+02  0.12211241003E+03  0.00000000000E+00 0. -1.
         -1    1    1    2    0  502  0.48994448203E+02 -0.26256148345E+02 -0.12138466335E+02  0.56896253353E+02  0.00000000000E+00 0.  1.
<scales pt_clust_5="13000.00000" pt_clust_6="13000.00000" pt_clust_7="13000.00000" pt_clust_8="13000.00000" pt_clust_9="55.58634"></scales>
<clustering>
<clus scale="   55.586">  2  9  1 -1</clus>
<clus scale="   78.853">  5  6 -1 -1</clus>
<clus scale="   93.392">  7  8 -1 -1</clus>
<clus scale="  130.643">  1  5  2 -1</clus>
<clus scale="   55.586">  2  5  1 -1</clus>
</clustering>
</event>
<event>
 9    1  0.6270443E-005  0.1582063E+03  0.7546771E-02  0.1193624E+00
          1   -1    0    0  502    0 -0.00000000000E+00  0.00000000000E+00  0.10921810883E+04  0.10921810883E+04  0.00000000000E+00 0. -1.
         21   -1    0    0  501  502  0.00000000000E+00 -0.00000000000E+00 -0.40326096097E+02  0.40326096097E+02  0.00000000000E+00 0.  1.
        -24    2    1    2    0    0  0.70533249125E+02 -0.79044074782E+02  0.35524094992E+03  0.37954985581E+03  0.81480399833E+02 0.  0.
         23    2    1    2    0    0 -0.12283937380E+03  0.10769337570E+03  0.32628517370E+03  0.37785709661E+03  0.98115217763E+02 0.  0.
         13    1    3    3    0    0 -0.96519475193E+01 -0.43870402997E+02  0.14517657613E+03  0.15196713660E+03  0.00000000000E+00 0. -1.
        -14    1    3    3    0    0  0.80185196644E+02 -0.35173671786E+02  0.21006437379E+03  0.22758271921E+03  0.00000000000E+00 0.  1.
        -11    1    4    4    0    0 -0.94952437012E+02  0.56375865711E+02  0.11831485396E+03  0.16184130560E+03  0.00000000000E+00 0.  1.
         11    1    4    4    0    0 -0.27886936790E+02  0.51317509985E+02  0.20797031974E+03  0.21601579102E+03  0.00000000000E+00 0. -1.
          2    1    1    2  501    0  0.52306124677E+02 -0.28649300913E+02  0.37032886857E+03  0.37510023197E+03  0.00000000000E+00 0. -1.
<scales pt_clust_5="13000.00000" pt_clust_6="13000.00000" pt_clust_7="13000.00000" pt_clust_8="13000.00000" pt_clust_9="59.63821"></scales>
<clustering>
<clus scale="   59.638">  2  9  1 -1</clus>
<clus scale="   81.480">  5  6 -1 -1</clus>
<clus scale="   98.115">  7  8 -1 -1</clus>
<clus scale="  148.464">  1  5  2 -1</clus>
<clus scale="   59.638">  2  5  1 -1</clus>
</clustering>
</event>
<event>
 9    1  0.6270443E-005  0.1434929E+03  0.7546771E-02  0.1211100E+00
          1   -1    0    0  502    0 -0.00000000000E+00  0.00000000000E+00  0.95318941161E+03  0.95318941161E+03  0.00000000000E+00 0. -1.
         21   -1    0    0  501  502  0.00000000000E+00 -0.00000000000E+00 -0.55944223344E+02  0.55944223344E+02  0.00000000000E+00 0. -1.
        -24    2    1    2    0    0 -0.11114183248E+03  0.28990820077E+01  0.82167003867E+03  0.83307845426E+03  0.80728848004E+02 0.  0.
         23    2    1    2    0    0  0.99282416987E+02 -0.21135230095E+02  0.66831656402E+02  0.15261053298E+03  0.92302807141E+02 0.  0.
         13    1    3    3    0    0 -0.12346038153E+03  0.86591650313E+01  0.74577994196E+03  0.75597960871E+03  0.00000000000E+00 0. -1.
        -14    1    3    3    0    0  0.12318549054E+02 -0.57600830235E+01  0.75890096711E+02  0.77098845556E+02  0.00000000000E+00 0.  1.
        -13    1    4    4    0    0  0.25102174189E+02  0.10699407437E+02  0.66506929675E+02  0.71887190537E+02  0.00000000000E+00 0.  1.
         13    1    4    4    0    0  0.74180242798E+02 -0.31834637531E+02  0.32472672751E+00  0.80723342446E+02  0.00000000000E+00 0. -1.
          2    1    1    2  501    0  0.11859415492E+02  0.18236148087E+02  0.87434931875E+01  0.23444647704E+02  0.00000000000E+00 0. -1.
<scales pt_clust_5="13000.00000" pt_clust_6="13000.00000" pt_clust_7="13000.00000" pt_clust_8="13000.00000" pt_clust_9="21.75323"></scales>
<clustering>
<clus scale="   21.753">  2  9  1 -1</clus>
<clus scale="   80.729">  5  6 -1 -1</clus>
<clus scale="   92.303">  7  8 -1 -1</clus>
<clus scale="  136.336">  1  5  2 -1</clus>
<clus scale="   21.753">  2  5  1 -1</clus>
</clustering>
</event>
<event>
 9    1  0.6270443E-005  0.9221778E+02  0.7546771E-02  0.1305104E+00
          1   -1    0    0  502    0 -0.00000000000E+00  0.00000000000E+00  0.53295042670E+03  0.53295042670E+03  0.00000000000E+00 0. -1.
         21   -1    0    0  501  502  0.00000000000E+00 -0.00000000000E+00 -0.29634200867E+02  0.29634200867E+02  0.00000000000E+00 0. -1.
         23    2    1    2    0    0  0.10578800560E+02  0.10071149485E+02  0.30646245938E+03  0.32022268657E+03  0.91706002597E+02 0.  0.
        -24    2    1    2    0    0  0.24672504861E+00  0.40564379536E+02  0.13045023450E+03  0.15815637194E+03  0.79690931380E+02 0.  0.
         11    1    4    4    0    0 -0.26571017858E+02  0.19386928769E+02  0.11682807344E+03  0.12136997463E+03  0.00000000000E+00 0. -1.
        -12    1    4    4    0    0  0.26817742907E+02  0.21177450767E+02  0.13622161063E+02  0.36786397318E+02  0.00000000000E+00 0.  1.
        -11    1    3    3    0    0  0.39725026499E+02  0.35994563766E+02  0.18881519882E+03  0.19627752203E+03  0.00000000000E+00 0. -1.
         11    1    3    3    0    0 -0.29146225939E+02 -0.25923414281E+02  0.11764726057E+03  0.12394516454E+03  0.00000000000E+00 0.  1.
          2    1    1    2  501    0 -0.10825525609E+02 -0.50635529022E+02  0.66403531947E+02  0.84205569050E+02  0.00000000000E+00 0. -1.
<scales pt_clust_5="13000.00000" pt_clust_6="13000.00000" pt_clust_7="13000.00000" pt_clust_8="13000.00000" pt_clust_9="51.77981"></scales>
<clustering>
<clus scale="   51.780">  2  9  1 -1</clus>
<clus scale="   79.691">  5  6 -1 -1</clus>
<clus scale="   80.279">  2  5  1 -1</clus>
<clus scale="   91.706">  7  8 -1 -1</clus>
<clus scale="   51.780">  2  5  1 -1</clus>
</clustering>
</event>
<event>
 9    1  0.6270443E-005  0.3735400E+03  0.7546771E-02  0.1053348E+00
          1   -1    0    0  502    0 -0.00000000000E+00  0.00000000000E+00  0.20916491859E+04  0.20916491859E+04  0.00000000000E+00 0. -1.
         21   -1    0    0  501  502  0.00000000000E+00 -0.00000000000E+00 -0.57737944477E+02  0.57737944477E+02  0.00000000000E+00 0. -1.
        -24    2    1    2    0    0 -0.15286352199E+03 -0.12971318648E+03  0.57405351195E+03  0.61395713251E+03  0.84930317761E+02 0.  0.
         23    2    1    2    0    0 -0.55766421670E+02 -0.11345415734E+03  0.46050321905E+03  0.48597001863E+03  0.90121610372E+02 0.  0.
         13    1    3    3    0    0 -0.11093980833E+03 -0.12412579527E+03  0.51557846466E+03  0.54178963384E+03  0.00000000000E+00 0. -1.
        -14    1    3    3    0    0 -0.41923713662E+02 -0.55873912136E+01  0.58475047297E+02  0.72167498669E+02  0.00000000000E+00 0.  1.
        -11    1    4    4    0    0 -0.34164767344E+02 -0.41124783434E+02  0.69176481003E+02  0.87429198007E+02  0.00000000000E+00 0. -1.
         11    1    4    4    0    0 -0.21601654325E+02 -0.72329373910E+02  0.39132673804E+03  0.39854082063E+03  0.00000000000E+00 0.  1.
          2    1    1    2  501    0  0.20862994366E+03  0.24316734383E+03  0.99935451038E+03  0.10494599792E+04  0.00000000000E+00 0. -1.
<scales pt_clust_5="13000.00000" pt_clust_6="13000.00000" pt_clust_7="13000.00000" pt_clust_8="13000.00000" pt_clust_9="320.40118"></scales>
<clustering>
<clus scale="   84.930">  5  6 -1 -1</clus>
<clus scale="   90.122">  7  8 -1 -1</clus>
<clus scale="  104.946">  5  7 -1 -1</clus>
<clus scale="  320.401">  2  9  1 -1</clus>
<clus scale="  320.401">  2  5  1 -1</clus>
</clustering>
</event>
<event>
 9    1  0.6270443E-005  0.3672232E+03  0.7546771E-02  0.1055982E+00
          1   -1    0    0  502    0 -0.00000000000E+00  0.00000000000E+00  0.14531735672E+04  0.14531735672E+04  0.00000000000E+00 0. -1.
         21   -1    0    0  501  502  0.00000000000E+00 -0.00000000000E+00 -0.26882253218E+03  0.26882253218E+03  0.00000000000E+00 0.  1.
         23    2    1    2    0    0 -0.35659264210E+03 -0.41695639424E+02  0.12579237538E+04  0.13113035233E+04  0.90818065761E+02 0.  0.
        -24    2    1    2    0    0  0.33163147713E+03  0.43204211260E+02 -0.12095068609E+02  0.34432362992E+03  0.81033517411E+02 0.  0.
         13    1    4    4    0    0  0.36652766858E+02  0.27667511779E+02  0.13399481939E+02  0.47837878743E+02  0.00000000000E+00 0. -1.
        -14    1    4    4    0    0  0.29497871027E+03  0.15536699481E+02 -0.25494550548E+02  0.29648575118E+03  0.00000000000E+00 0.  1.
        -11    1    3    3    0    0 -0.30797894857E+03 -0.67364544191E+02  0.10815293399E+04  0.11265410457E+04  0.00000000000E+00 0. -1.
         11    1    3    3    0    0 -0.48613693527E+02  0.25668904768E+02  0.17639441390E+03  0.18476247759E+03  0.00000000000E+00 0.  1.
          2    1    1    2  501    0  0.24961164972E+02 -0.15085718360E+01 -0.61477650167E+02  0.66368946170E+02  0.00000000000E+00 0. -1.
<scales pt_clust_5="13000.00000" pt_clust_6="13000.00000" pt_clust_7="13000.00000" pt_clust_8="13000.00000" pt_clust_9="25.00671"></scales>
<clustering>
<clus scale="   25.007">  2  9  1 -1</clus>
<clus scale="   81.034">  5  6 -1 -1</clus>
<clus scale="   90.818">  7  8 -1 -1</clus>
<clus scale="  364.927">  2  5  1 -1</clus>
<clus scale="   25.007">  2  5  1 -1</clus>
</clustering>
</event>
<event>
 9    1  0.6270443E-005  0.1069446E+03  0.7546771E-02  0.1274788E+00
         -2   -1    0    0    0  501 -0.00000000000E+00  0.00000000000E+00  0.10088167833E+03  0.10088167833E+03  0.00000000000E+00 0.  1.
         21   -1    0    0  501  502  0.00000000000E+00 -0.00000000000E+00 -0.35881491396E+03  0.35881491396E+03  0.00000000000E+00 0.  1.
         23    2    1    2    0    0 -0.17730754805E+02  0.46755716098E+02  0.46593854581E+02  0.11390248657E+03  0.91117026448E+02 0.  0.
        -24    2    1    2    0    0  0.23686821679E+02 -0.83699105855E+02 -0.15459577407E+03  0.19126356395E+03  0.71521267424E+02 0.  0.
         13    1    4    4    0    0 -0.91467852280E+00 -0.41006966563E+02 -0.12975325305E+03  0.13608201432E+03  0.00000000000E+00 0. -1.
        -14    1    4    4    0    0  0.24601500202E+02 -0.42692139292E+02 -0.24842521016E+02  0.55181549633E+02  0.00000000000E+00 0.  1.
        -11    1    3    3    0    0 -0.76521409078E+01 -0.27730838206E+02  0.12456021698E+02  0.31348159828E+02  0.00000000000E+00 0. -1.
         11    1    3    3    0    0 -0.10078613897E+02  0.74486554304E+02  0.34137832883E+02  0.82554326744E+02  0.00000000000E+00 0.  1.
         -1    1    1    2    0  502 -0.59560668743E+01  0.36943389757E+02 -0.14993131613E+03  0.15453054176E+03  0.00000000000E+00 0.  1.
<scales pt_clust_5="13000.00000" pt_clust_6="13000.00000" pt_clust_7="13000.00000" pt_clust_8="13000.00000" pt_clust_9="37.42043"></scales>
<clustering>
<clus scale="   37.420">  2  9  1 -1</clus>
<clus scale="   71.521">  5  6 -1 -1</clus>
<clus scale="   90.830">  2  5  1 -1</clus>
<clus scale="   91.117">  7  8 -1 -1</clus>
<clus scale="   37.420">  2  5  1 -1</clus>
</clustering>
</event>
<event>
 9    1  0.6270443E-005  0.9448063E+02  0.7546771E-02  0.1298715E+00
          3   -1    0    0  502    0 -0.00000000000E+00  0.00000000000E+00  0.10516193739E+03  0.10516193739E+03  0.00000000000E+00 0. -1.
         21   -1    0    0  501  502  0.00000000000E+00 -0.00000000000E+00 -0.28765594698E+03  0.28765594698E+03  0.00000000000E+00 0. -1.
        -24    2    1    2    0    0 -0.21769197404E+02 -0.20340493413E+02  0.64852687543E+02  0.10744533652E+03  0.80318090303E+02 0.  0.
         23    2    1    2    0    0 -0.80629734380E+01 -0.28214939540E+01 -0.11134666160E+03  0.14422565366E+03  0.91268766589E+02 0.  0.
         11    1    3    3    0    0 -0.30612920001E+02 -0.23324159921E+02  0.80499437658E+02  0.89226267266E+02  0.00000000000E+00 0. -1.
        -12    1    3    3    0    0  0.88437225977E+01  0.29836665080E+01 -0.15646750115E+02  0.18219069251E+02  0.00000000000E+00 0.  1.
        -11    1    4    4    0    0  0.36522957230E+02  0.25117455516E+01 -0.18339370479E+02  0.40945912862E+02  0.00000000000E+00 0.  1.
         11    1    4    4    0    0 -0.44585930668E+02 -0.53332395057E+01 -0.93007291118E+02  0.10327974079E+03  0.00000000000E+00 0. -1.
          4    1    1    2  501    0  0.29832170842E+02  0.23161987367E+02 -0.13600003554E+03  0.14114689420E+03  0.00000000000E+00 0. -1.
<scales pt_clust_5="13000.00000" pt_clust_6="13000.00000" pt_clust_7="13000.00000" pt_clust_8="13000.00000" pt_clust_9="37.76819"></scales>
<clustering>
<clus scale="   37.768">  2  9  1 -1</clus>
<clus scale="   80.318">  5  6 -1 -1</clus>
<clus scale="   83.950">  1  5  2 -1</clus>
<clus scale="   91.269">  7  8 -1 -1</clus>
<clus scale="   37.768">  2  5  1 -1</clus>
</clustering>
</event>
<event>
 9    1  0.6270443E-005  0.1132855E+03  0.7546771E-02  0.1255858E+00
         21   -1    0    0  501  502  0.00000000000E+00  0.00000000000E+00  0.24323268903E+02  0.24323268903E+02  0.00000000000E+00 0.  1.
          1   -1    0    0  502    0 -0.00000000000E+00 -0.00000000000E+00 -0.68061979670E+03  0.68061979670E+03  0.00000000000E+00 0. -1.
         23    2    1    2    0    0 -0.71113578792E+02  0.98709432655E+00 -0.36774737616E+03  0.38369912748E+03  0.83239247431E+02 0.  0.
        -24    2    1    2    0    0  0.85587561165E+02  0.15784876274E+02 -0.25671246392E+03  0.28245773119E+03  0.79414657530E+02 0.  0.
         11    1    4    4    0    0  0.28511056815E+02  0.26240683132E+02 -0.19057138288E+03  0.19447083530E+03  0.00000000000E+00 0. -1.
        -12    1    4    4    0    0  0.57076504350E+02 -0.10455806858E+02 -0.66141081046E+02  0.87986895887E+02  0.00000000000E+00 0.  1.
        -11    1    3    3    0    0 -0.55459695711E+02  0.35087810162E+02 -0.16618398524E+03  0.17867302320E+03  0.00000000000E+00 0.  1.
         11    1    3    3    0    0 -0.15653883081E+02 -0.34100715835E+02 -0.20156339092E+03  0.20502610427E+03  0.00000000000E+00 0. -1.
          2    1    1    2  501    0 -0.14473982372E+02 -0.16771970601E+02 -0.31836687712E+02  0.38786206931E+02  0.00000000000E+00 0. -1.
<scales pt_clust_5="13000.00000" pt_clust_6="13000.00000" pt_clust_7="13000.00000" pt_clust_8="13000.00000" pt_clust_9="22.15390"></scales>
<clustering>
<clus scale="   22.154">  1  9  2 -1</clus>
<clus scale="   79.415">  5  6 -1 -1</clus>
<clus scale="   83.239">  7  8 -1 -1</clus>
<clus scale="  110.506">  1  5  2 -1</clus>
<clus scale="   22.154">  1  5  2 -1</clus>
</clustering>
</event>
<event>
 9    1  0.6334578E-005  0.1006709E+03  0.7546771E-02  0.1283791E+00
         21   -1    0    0  501  502  0.00000000000E+00  0.00000000000E+00  0.27396203809E+03  0.27396203809E+03  0.00000000000E+00 0. -1.
         -4   -1    0    0    0  501 -0.00000000000E+00 -0.00000000000E+00 -0.18741026226E+03  0.18741026226E+03  0.00000000000E+00 0.  1.
        -24    2    1    2    0    0  0.94530640331E+00 -0.43894030653E+02 -0.15566767330E+03  0.18083204953E+03  0.80871664357E+02 0.  0.
         23    2    1    2    0    0 -0.22896658698E+02  0.35466714957E+02  0.12124097043E+03  0.15729791302E+03  0.90890679824E+02 0.  0.
         11    1    3    3    0    0 -0.30568733642E+02 -0.18656838413E+02 -0.23993029644E+02  0.43106734596E+02  0.00000000000E+00 0. -1.
        -12    1    3    3    0    0  0.31514040045E+02 -0.25237192240E+02 -0.13167464365E+03  0.13772531493E+03  0.00000000000E+00 0.  1.
        -11    1    4    4    0    0 -0.17770233782E+02  0.66144374032E+02  0.91220139647E+02  0.11407003683E+03  0.00000000000E+00 0.  1.
         11    1    4    4    0    0 -0.51264249164E+01 -0.30677659075E+02  0.30020830783E+02  0.43227876187E+02  0.00000000000E+00 0. -1.
         -3    1    1    2    0  502  0.21951352295E+02  0.84273156960E+01  0.12097847871E+03  0.12324233780E+03  0.00000000000E+00 0.  1.
<scales pt_clust_5="13000.00000" pt_clust_6="13000.00000" pt_clust_7="13000.00000" pt_clust_8="13000.00000" pt_clust_9="23.51343"></scales>
<clustering>
<clus scale="   23.513">  1  9  2 -1</clus>
<clus scale="   80.872">  5  6 -1 -1</clus>
<clus scale="   90.891">  7  8 -1 -1</clus>
<clus scale="   91.726">  2  5  1 -1</clus>
<clus scale="   23.513">  1  5  2 -1</clus>
</clustering>
</event>
<event>
 9    1  0.6270443E-005  0.9302760E+02  0.7546771E-02  0.1297919E+00
         21   -1    0    0  501  502  0.00000000000E+00  0.00000000000E+00  0.26665430327E+03  0.26665430327E+03  0.00000000000E+00 0.  1.
          1   -1    0    0  502    0 -0.00000000000E+00 -0.00000000000E+00 -0.12377079825E+03  0.12377079825E+03  0.00000000000E+00 0. -1.
         23    2    1    2    0    0  0.46503039557E+02  0.66838086719E+01 -0.33047367519E+02  0.10077693496E+03  0.82804928194E+02 0.  0.
        -24    2    1    2    0    0  0.28476228825E+02 -0.64981192155E+02  0.16120539388E+03  0.19353721333E+03  0.80224827742E+02 0.  0.
         13    1    4    4    0    0  0.25686104351E+02 -0.40313354171E+02  0.22867124385E+02  0.52989129630E+02  0.00000000000E+00 0. -1.
        -14    1    4    4    0    0  0.27901244739E+01 -0.24667837984E+02  0.13833826950E+03  0.14054808370E+03  0.00000000000E+00 0.  1.
        -13    1    3    3    0    0  0.10142135490E+02 -0.36675462440E+02 -0.18701740162E+02  0.42399381394E+02  0.00000000000E+00 0.  1.
         13    1    3    3    0    0  0.36360904067E+02  0.43359271112E+02 -0.14345627358E+02  0.58377553565E+02  0.00000000000E+00 0. -1.
          2    1    1    2  501    0 -0.74979268383E+02  0.58297383484E+02  0.14725478658E+02  0.96110953226E+02  0.00000000000E+00 0. -1.
<scales pt_clust_5="13000.00000" pt_clust_6="13000.00000" pt_clust_7="13000.00000" pt_clust_8="13000.00000" pt_clust_9="94.97623"></scales>
<clustering>
<clus scale="   80.225">  5  6 -1 -1</clus>
<clus scale="   82.805">  7  8 -1 -1</clus>
<clus scale="   94.976">  1  9  2 -1</clus>
<clus scale="   94.976">  1  5  2 -1</clus>
<clus scale="   93.028">  1  5  2 -1</clus>
</clustering>
</event>
<event>
 9    1  0.6270443E-005  0.1579137E+03  0.7546771E-02  0.1201390E+00
         21   -1    0    0  501  502  0.00000000000E+00  0.00000000000E+00  0.20406197732E+03  0.20406197732E+03  0.00000000000E+00 0. -1.
          1   -1    0    0  502    0 -0.00000000000E+00 -0.00000000000E+00 -0.16241027182E+03  0.16241027182E+03  0.00000000000E+00 0. -1.
         23    2    1    2    0    0  0.73304511006E+02 -0.79398441481E+02 -0.33155394698E+02  0.16976580262E+03  0.12666287419E+03 0.  0.
        -24    2    1    2    0    0 -0.11788979748E+02  0.83969266865E+02  0.59661225290E+02  0.13318912166E+03  0.83606593660E+02 0.  0.
         13    1    4    4    0    0  0.11871875561E+02  0.73351592343E+02  0.71829679092E+01  0.74652478570E+02  0.00000000000E+00 0. -1.
        -14    1    4    4    0    0 -0.23660855310E+02  0.10617674522E+02  0.52478257380E+02  0.58536643087E+02  0.00000000000E+00 0.  1.
        -11    1    3    3    0    0  0.52366042086E+02 -0.88162421107E+02  0.26523054450E+02  0.10591641646E+03  0.00000000000E+00 0. -1.
         11    1    3    3    0    0  0.20938468920E+02  0.87639796255E+01 -0.59678449148E+02  0.63849386155E+02  0.00000000000E+00 0.  1.
          2    1    1    2  501    0 -0.61515531258E+02 -0.45708253840E+01  0.15145874905E+02  0.63517324859E+02  0.00000000000E+00 0. -1.
<scales pt_clust_5="13000.00000" pt_clust_6="13000.00000" pt_clust_7="13000.00000" pt_clust_8="13000.00000" pt_clust_9="61.68511"></scales>
<clustering>
<clus scale="   61.685">  1  9  2 -1</clus>
<clus scale="   83.607">  5  6 -1 -1</clus>
<clus scale="  126.029">  1  5  2 -1</clus>
<clus scale="  126.663">  7  8 -1 -1</clus>
<clus scale="   61.685">  1  5  2 -1</clus>
</clustering>
</event>
<event>
 9    1  0.6270443E-005  0.8925765E+02  0.7546771E-02  0.1309520E+00
         -2   -1    0    0    0  501 -0.00000000000E+00  0.00000000000E+00  0.73772061397E+02  0.73772061397E+02  0.00000000000E+00 0.  1.
         21   -1    0    0  501  502  0.00000000000E+00 -0.00000000000E+00 -0.22725350137E+03  0.22725350137E+03  0.00000000000E+00 0.  1.
         23    2    1    2    0    0 -0.52941535825E+01  0.48679583213E+01  0.11835796173E+02  0.89857323808E+02  0.88783599220E+02 0.  0.
        -24    2    1    2    0    0  0.25816072339E+02  0.14172398469E+02 -0.16120390196E+03  0.18287329499E+03  0.81170299634E+02 0.  0.
         11    1    4    4    0    0 -0.29393825179E+02  0.60406965392E+00 -0.50937662545E+02  0.58813326078E+02  0.00000000000E+00 0. -1.
        -12    1    4    4    0    0  0.55209897518E+02  0.13568328815E+02 -0.11026623942E+03  0.12405996891E+03  0.00000000000E+00 0.  1.
        -13    1    3    3    0    0  0.31221883567E+02  0.30414929049E+02  0.12299285430E+02  0.45289583180E+02  0.00000000000E+00 0.  1.
         13    1    3    3    0    0 -0.36516037149E+02 -0.25546970727E+02 -0.46348925723E+00  0.44567740628E+02  0.00000000000E+00 0. -1.
         -1    1    1    2    0  502 -0.20521918757E+02 -0.19040356790E+02 -0.41133341810E+01  0.28294943969E+02  0.00000000000E+00 0.  1.
<scales pt_clust_5="13000.00000" pt_clust_6="13000.00000" pt_clust_7="13000.00000" pt_clust_8="13000.00000" pt_clust_9="27.99438"></scales>
<clustering>
<clus scale="   27.994">  2  9  1 -1</clus>
<clus scale="   81.170">  5  6 -1 -1</clus>
<clus scale="   81.689">  2  5  1 -1</clus>
<clus scale="   88.784">  7  8 -1 -1</clus>
<clus scale="   27.994">  2  5  1 -1</clus>
</clustering>
</event>
<event>
 9    1  0.6270443E-005  0.1007760E+03  0.7546771E-02  0.1286061E+00
         21   -1    0    0  501  502  0.00000000000E+00  0.00000000000E+00  0.41517251292E+02  0.41517251292E+02  0.00000000000E+00 0.  1.
          1   -1    0    0  502    0 -0.00000000000E+00 -0.00000000000E+00 -0.65853052344E+03  0.65853052344E+03  0.00000000000E+00 0. -1.
         23    2    1    2    0    0  0.48859430552E+02  0.87739958079E+01 -0.50898962097E+03  0.51942444992E+03  0.90923583127E+02 0.  0.
        -24    2    1    2    0    0 -0.39022555123E+01 -0.15071381894E+02 -0.17848941603E+02  0.79666487960E+02  0.76064383500E+02 0.  0.
         13    1    4    4    0    0  0.28317324762E+02 -0.19891965549E+02 -0.29085013535E+02  0.45205079221E+02  0.00000000000E+00 0. -1.
        -14    1    4    4    0    0 -0.32219580274E+02  0.48205836553E+01  0.11236071932E+02  0.34461408739E+02  0.00000000000E+00 0.  1.
        -13    1    3    3    0    0  0.58352858700E+02  0.40113409141E+02 -0.35432226374E+03  0.36132867073E+03  0.00000000000E+00 0. -1.
         13    1    3    3    0    0 -0.94934281477E+01 -0.31339413333E+02 -0.15466735723E+03  0.15809577919E+03  0.00000000000E+00 0.  1.
          2    1    1    2  501    0 -0.44957175040E+02  0.62973860862E+01 -0.90174709579E+02  0.10095683685E+03  0.00000000000E+00 0. -1.
<scales pt_clust_5="13000.00000" pt_clust_6="13000.00000" pt_clust_7="13000.00000" pt_clust_8="13000.00000" pt_clust_9="45.39611"></scales>
<clustering>
<clus scale="   45.396">  1  9  2 -1</clus>
<clus scale="   76.064">  5  6 -1 -1</clus>
<clus scale="   87.604">  1  5  2 -1</clus>
<clus scale="   90.924">  7  8 -1 -1</clus>
<clus scale="   45.396">  1  5  2 -1</clus>
</clustering>
</event>
<event>
 9    1  0.6270443E-005  0.2607030E+03  0.7546771E-02  0.1107191E+00
         21   -1    0    0  501  502  0.00000000000E+00  0.00000000000E+00  0.66668375796E+03  0.66668375796E+03  0.00000000000E+00 0. -1.
          1   -1    0    0  502    0 -0.00000000000E+00 -0.00000000000E+00 -0.22698045601E+03  0.22698045601E+03  0.00000000000E+00 0. -1.
        -24    2    1    2    0    0 -0.10537137954E+03 -0.15160655948E+03  0.83639572369E+02  0.21806245472E+03  0.80423750145E+02 0.  0.
         23    2    1    2    0    0  0.22014736901E+03  0.30052902046E+03  0.20632518825E+03  0.43524149236E+03  0.89902820568E+02 0.  0.
         13    1    3    3    0    0 -0.10955103719E+03 -0.96274299936E+02  0.58374551658E+02  0.15709156202E+03  0.00000000000E+00 0. -1.
        -14    1    3    3    0    0  0.41796576508E+01 -0.55332259546E+02  0.25265020711E+02  0.60970892696E+02  0.00000000000E+00 0.  1.
        -13    1    4    4    0    0  0.46059600092E+02  0.39927344355E+02  0.17506266801E+01  0.60981507702E+02  0.00000000000E+00 0.  1.
         13    1    4    4    0    0  0.17408776892E+03  0.26060167610E+03  0.20457456157E+03  0.37425998466E+03  0.00000000000E+00 0. -1.
          2    1    1    2  501    0 -0.11477598947E+03 -0.14892246097E+03  0.14973854133E+03  0.24036026690E+03  0.00000000000E+00 0. -1.
<scales pt_clust_5="13000.00000" pt_clust_6="13000.00000" pt_clust_7="13000.00000" pt_clust_8="13000.00000" pt_clust_9="188.01975"></scales>
<clustering>
<clus scale="   80.424">  5  6 -1 -1</clus>
<clus scale="   89.903">  7  8 -1 -1</clus>
<clus scale="  188.020">  1  9  2 -1</clus>
<clus scale="  257.588">  2  5  1 -1</clus>
<clus scale="  188.020">  1  5  2 -1</clus>
</clustering>
</event>
<event>
 9    1  0.6270443E-005  0.2183079E+03  0.7546771E-02  0.1158216E+00
         21   -1    0    0  501  502  0.00000000000E+00  0.00000000000E+00  0.48479497009E+02  0.48479497009E+02  0.00000000000E+00 0. -1.
          1   -1    0    0  502    0 -0.00000000000E+00 -0.00000000000E+00 -0.16888709746E+04  0.16888709746E+04  0.00000000000E+00 0. -1.
         23    2    1    2    0    0  0.75259825206E+02 -0.39247269826E+02 -0.45505593084E+03  0.47217221091E+03  0.93093002333E+02 0.  0.
        -24    2    1    2    0    0 -0.22193469522E+03  0.83995792565E+02 -0.45715003442E+03  0.52102096002E+03  0.78526331277E+02 0.  0.
         11    1    4    4    0    0 -0.16036742567E+03  0.72487061454E+02 -0.25842228877E+03  0.31265662415E+03  0.00000000000E+00 0. -1.
        -12    1    4    4    0    0 -0.61567269548E+02  0.11508731111E+02 -0.19872774565E+03  0.20836433587E+03  0.00000000000E+00 0.  1.
        -11    1    3    3    0    0  0.77892746964E+02 -0.61393634760E+02 -0.41094600249E+03  0.42274469291E+03  0.00000000000E+00 0. -1.
         11    1    3    3    0    0 -0.26329217584E+01  0.22146364934E+02 -0.44109928349E+02  0.49427518001E+02  0.00000000000E+00 0.  1.
          2    1    1    2  501    0  0.14667487001E+03 -0.44748522739E+02 -0.72818551229E+03  0.74415730064E+03  0.00000000000E+00 0. -1.
<scales pt_clust_5="13000.00000" pt_clust_6="13000.00000" pt_clust_7="13000.00000" pt_clust_8="13000.00000" pt_clust_9="203.69580"></scales>
<clustering>
<clus scale="   78.526">  5  6 -1 -1</clus>
<clus scale="   93.093">  7  8 -1 -1</clus>
<clus scale="  125.979">  2  7  1 -1</clus>
<clus scale="  203.696">  1  9  2 -1</clus>
<clus scale="  203.696">  1  5  2 -1</clus>
</clustering>
</event>
<event>
 9    1  0.6270443E-005  0.1187598E+03  0.7546771E-02  0.1249535E+00
          1   -1    0    0  502    0 -0.00000000000E+00  0.00000000000E+00  0.48497804309E+02  0.48497804309E+02  0.00000000000E+00 0. -1.
         21   -1    0    0  501  502  0.00000000000E+00 -0.00000000000E+00 -0.71629011521E+03  0.71629011521E+03  0.00000000000E+00 0. -1.
         23    2    1    2    0    0 -0.12382701484E+02 -0.10418610624E+03 -0.15390457074E+03  0.20863471341E+03  0.93988034960E+02 0.  0.
        -24    2    1    2    0    0  0.60024738156E+02  0.21802383883E+02 -0.16559648617E+03  0.19509415419E+03  0.81001355736E+02 0.  0.
         11    1    4    4    0    0  0.38709728642E+02 -0.13960657673E+02 -0.14067909012E+03  0.14657404085E+03  0.00000000000E+00 0. -1.
        -12    1    4    4    0    0  0.21315009513E+02  0.35763041557E+02 -0.24917396050E+02  0.48520113333E+02  0.00000000000E+00 0.  1.
        -13    1    3    3    0    0 -0.36211545984E+02 -0.10868262589E+03 -0.11194152629E+03  0.16016895623E+03  0.00000000000E+00 0.  1.
         13    1    3    3    0    0  0.23828844499E+02  0.44965196488E+01 -0.41963044455E+02  0.48465757180E+02  0.00000000000E+00 0. -1.
          2    1    1    2  501    0 -0.47642036671E+02  0.82383722361E+02 -0.34829125399E+03  0.36105905192E+03  0.00000000000E+00 0. -1.
<scales pt_clust_5="13000.00000" pt_clust_6="13000.00000" pt_clust_7="13000.00000" pt_clust_8="13000.00000" pt_clust_9="95.16744"></scales>
<clustering>
<clus scale="   81.001">  5  6 -1 -1</clus>
<clus scale="   93.988">  7  8 -1 -1</clus>
<clus scale="   95.167">  2  9  1 -1</clus>
<clus scale="  108.772">  2  5  1 -1</clus>
<clus scale="   95.167">  2  5  1 -1</clus>
</clustering>
</event>
<event>
 9    1  0.6270443E-005  0.9218141E+02  0.7546771E-02  0.1304660E+00
         21   -1    0    0  501  502  0.00000000000E+00  0.00000000000E+00  0.33763441757E+03  0.33763441757E+03  0.00000000000E+00 0.  1.
          3   -1    0    0  502    0 -0.00000000000E+00 -0.00000000000E+00 -0.38771246286E+02  0.38771246286E+02  0.00000000000E+00 0. -1.
        -24    2    1    2    0    0 -0.13610748763E+02 -0.66052425883E+01  0.10448902930E+03  0.13266350376E+03  0.80329112257E+02 0.  0.
         23    2    1    2    0    0 -0.11546731829E+02  0.15003638657E+02  0.19600990579E+03  0.21716947469E+03  0.91565612428E+02 0.  0.
         11    1    3    3    0    0 -0.40368187458E+02  0.18162238536E+02  0.67543176831E+02  0.80756041284E+02  0.00000000000E+00 0. -1.
        -12    1    3    3    0    0  0.26757438695E+02 -0.24767481124E+02  0.36945852464E+02  0.51907462479E+02  0.00000000000E+00 0.  1.
        -11    1    4    4    0    0 -0.64632263050E+01 -0.28238976400E+02  0.15388040043E+03  0.15658349440E+03  0.00000000000E+00 0. -1.
         11    1    4    4    0    0 -0.50835055239E+01  0.43242615057E+02  0.42129505360E+02  0.60585980286E+02  0.00000000000E+00 0.  1.
          4    1    1    2  501    0  0.25157480592E+02 -0.83983960686E+01 -0.16357638051E+01  0.26572685403E+02  0.00000000000E+00 0. -1.
<scales pt_clust_5="13000.00000" pt_clust_6="13000.00000" pt_clust_7="13000.00000" pt_clust_8="13000.00000" pt_clust_9="26.52230"></scales>
<clustering>
<clus scale="   26.522">  1  9  2 -1</clus>
<clus scale="   80.329">  5  6 -1 -1</clus>
<clus scale="   81.030">  2  5  1 -1</clus>
<clus scale="   91.566">  7  8 -1 -1</clus>
<clus scale="   26.522">  1  5  2 -1</clus>
</clustering>
</event>
<event>
 9    1  0.6270443E-005  0.1510716E+03  0.7546771E-02  0.1201314E+00
          1   -1    0    0  502    0 -0.00000000000E+00  0.00000000000E+00  0.29455574408E+03  0.29455574408E+03  0.00000000000E+00 0. -1.
         21   -1    0    0  501  502  0.00000000000E+00 -0.00000000000E+00 -0.97846861038E+02  0.97846861038E+02  0.00000000000E+00 0. -1.
         23    2    1    2    0    0  0.12763520142E+03 -0.26998696603E+02  0.12521005446E+03  0.20310442551E+03  0.92488786691E+02 0.  0.
        -24    2    1    2    0    0 -0.10336628487E+03  0.12669786664E+02  0.23812829246E+02  0.13390637062E+03  0.80738794353E+02 0.  0.
         13    1    4    4    0    0 -0.64445770182E+02  0.45654233323E+02  0.25105620446E+02  0.82872543660E+02  0.00000000000E+00 0. -1.
        -14    1    4    4    0    0 -0.38920514688E+02 -0.32984446659E+02 -0.12927912000E+01  0.51033826958E+02  0.00000000000E+00 0.  1.
        -13    1    3    3    0    0  0.12593563844E+03 -0.41239640654E+01  0.71911167423E+02  0.14507931661E+03  0.00000000000E+00 0. -1.
         13    1    3    3    0    0  0.16995629822E+01 -0.22874732537E+02  0.53298887040E+02  0.58025108899E+02  0.00000000000E+00 0.  1.
          2    1    1    2  501    0 -0.24268916552E+02  0.14328909938E+02  0.47685999332E+02  0.55391808988E+02  0.00000000000E+00 0. -1.
<scales pt_clust_5="13000.00000" pt_clust_6="13000.00000" pt_clust_7="13000.00000" pt_clust_8="13000.00000" pt_clust_9="28.18331"></scales>
<clustering>
<clus scale="   28.183">  2  9  1 -1</clus>
<clus scale="   80.739">  5  6 -1 -1</clus>
<clus scale="   92.489">  7  8 -1 -1</clus>
<clus scale="  144.178">  2  5  1 -1</clus>
<clus scale="   28.183">  2  5  1 -1</clus>
</clustering>
</event>
<event>
 9    1  0.6270443E-005  0.1131922E+03  0.7546771E-02  0.1261587E+00
         21   -1    0    0  501  502  0.00000000000E+00  0.00000000000E+00  0.36242196518E+03  0.36242196518E+03  0.00000000000E+00 0.  1.
          1   -1    0    0  502    0 -0.00000000000E+00 -0.00000000000E+00 -0.26789984117E+03  0.26789984117E+03  0.00000000000E+00 0. -1.
        -24    2    1    2    0    0  0.65589372851E+02 -0.23227063478E+02 -0.23058406809E+03  0.25149491160E+03  0.72382427398E+02 0.  0.
         23    2    1    2    0    0 -0.53230987649E+02 -0.21523113501E+02  0.93058787545E+02  0.14218094404E+03  0.90877392391E+02 0.  0.
         13    1    3    3    0    0  0.24191167208E+02  0.22417381482E+02 -0.43934188328E+02  0.54936003380E+02  0.00000000000E+00 0. -1.
        -14    1    3    3    0    0  0.41398205643E+02 -0.45644444960E+02 -0.18664987976E+03  0.19655890822E+03  0.00000000000E+00 0.  1.
        -11    1    4    4    0    0 -0.52902998453E+02 -0.53659820995E+02  0.65852758036E+02  0.10007341992E+03  0.00000000000E+00 0.  1.
         11    1    4    4    0    0 -0.32798919653E+00  0.32136707494E+02  0.27206029509E+02  0.42107524115E+02  0.00000000000E+00 0. -1.
          2    1    1    2  501    0 -0.12358385202E+02  0.44750176980E+02  0.23204740456E+03  0.23664595071E+03  0.00000000000E+00 0. -1.
<scales pt_clust_5="13000.00000" pt_clust_6="13000.00000" pt_clust_7="13000.00000" pt_clust_8="13000.00000" pt_clust_9="46.42530"></scales>
<clustering>
<clus scale="   46.425">  1  9  2 -1</clus>
<clus scale="   72.382">  5  6 -1 -1</clus>
<clus scale="   90.877">  7  8 -1 -1</clus>
<clus scale="   98.960">  2  5  1 -1</clus>
<clus scale="   46.425">  1  5  2 -1</clus>
</clustering>
</event>
<event>
 9    1  0.6270443E-005  0.1107616E+03  0.7546771E-02  0.1260019E+00
         -2   -1    0    0    0  501 -0.00000000000E+00  0.00000000000E+00  0.14255429373E+03  0.14255429373E+03  0.00000000000E+00 0.  1.
         21   -1    0    0  501  502  0.00000000000E+00 -0.00000000000E+00 -0.18629346747E+03  0.18629346747E+03  0.00000000000E+00 0.  1.
         23    2    1    2    0    0 -0.62229161798E+02  0.56866213153E+02  0.49538136334E+02  0.12942795984E+03  0.84801739720E+02 0.  0.
        -24    2    1    2    0    0  0.38086383387E+02 -0.40391457754E+02  0.24072343698E+01  0.99370696627E+02  0.82381418486E+02 0.  0.
         13    1    4    4    0    0  0.22959457344E+02  0.18325844993E+02 -0.19094391774E+02  0.35036681827E+02  0.00000000000E+00 0. -1.
        -14    1    4    4    0    0  0.15126926043E+02 -0.58717302747E+02  0.21501626144E+02  0.64334014799E+02  0.00000000000E+00 0.  1.
        -11    1    3    3    0    0  0.60062949569E+01  0.36546829437E+02 -0.79959563150E+01  0.37890389790E+02  0.00000000000E+00 0.  1.
         11    1    3    3    0    0 -0.68235456755E+02  0.20319383716E+02  0.57534092649E+02  0.91537570047E+02  0.00000000000E+00 0. -1.
         -1    1    1    2    0  502  0.24142778411E+02 -0.16474755399E+02 -0.95684544443E+02  0.10004910474E+03  0.00000000000E+00 0.  1.
<scales pt_clust_5="13000.00000" pt_clust_6="13000.00000" pt_clust_7="13000.00000" pt_clust_8="13000.00000" pt_clust_9="29.22826"></scales>
<clustering>
<clus scale="   29.228">  2  9  1 -1</clus>
<clus scale="   82.381">  5  6 -1 -1</clus>
<clus scale="   84.802">  7  8 -1 -1</clus>
<clus scale="  108.920">  2  5  1 -1</clus>
<clus scale="   29.228">  2  5  1 -1</clus>
</clustering>
</event>
<event>
 9    1  0.6270443E-005  0.4762396E+03  0.7546771E-02  0.1020279E+00
          3   -1    0    0  502    0 -0.00000000000E+00  0.00000000000E+00  0.16676877011E+03  0.16676877011E+03  0.00000000000E+00 0. -1.
         21   -1    0    0  501  502  0.00000000000E+00 -0.00000000000E+00 -0.16684872708E+04  0.16684872708E+04  0.00000000000E+00 0.  1.
         23    2    1    2    0    0 -0.47973087800E+01  0.48123846478E+03 -0.43071715227E+03  0.65221188786E+03  0.90827348607E+02 0.  0.
        -24    2    1    2    0    0 -0.26345188909E+02 -0.44098159904E+03 -0.99218712764E+03  0.10892243694E+04  0.82556592807E+02 0.  0.
         13    1    4    4    0    0 -0.19859001622E+01 -0.29420352039E+03 -0.74111801579E+03  0.79738044153E+03  0.00000000000E+00 0. -1.
        -14    1    4    4    0    0 -0.24359288747E+02 -0.14677807865E+03 -0.25106911185E+03  0.29184392789E+03  0.00000000000E+00 0.  1.
        -11    1    3    3    0    0 -0.22866771470E+02  0.14590125338E+03 -0.85729014858E+02  0.17076161443E+03  0.00000000000E+00 0. -1.
         11    1    3    3    0    0  0.18069462690E+02  0.33533721140E+03 -0.34498813741E+03  0.48145027343E+03  0.00000000000E+00 0.  1.
          4    1    1    2  501    0  0.31142497689E+02 -0.40256865738E+02 -0.78814220739E+02  0.93819783585E+02  0.00000000000E+00 0. -1.
<scales pt_clust_5="13000.00000" pt_clust_6="13000.00000" pt_clust_7="13000.00000" pt_clust_8="13000.00000" pt_clust_9="50.89666"></scales>
<clustering>
<clus scale="   50.897">  2  9  1 -1</clus>
<clus scale="   82.557">  5  6 -1 -1</clus>
<clus scale="   90.827">  7  8 -1 -1</clus>
<clus scale="  474.732">  2  5  1 -1</clus>
<clus scale="   50.897">  2  5  1 -1</clus>
</clustering>
</event>
<event>
 9    1  0.6270443E-005  0.1045187E+03  0.7546771E-02  0.1276863E+00
          1   -1    0    0  502    0 -0.00000000000E+00  0.00000000000E+00  0.61746577432E+03  0.61746577432E+03  0.00000000000E+00 0. -1.
         21   -1    0    0  501  502  0.00000000000E+00 -0.00000000000E+00 -0.21145877714E+02  0.21145877714E+02  0.00000000000E+00 0.  1.
        -24    2    1    2    0    0 -0.44701905786E+02  0.30229646713E+02  0.33026685301E+03  0.34427260053E+03  0.80841433423E+02 0.  0.
         23    2    1    2    0    0  0.20402459765E+02 -0.30878076355E+02  0.19677367361E+03  0.22091892727E+03  0.93357259131E+02 0.  0.
         11    1    3    3    0    0  0.18477909132E+01  0.42979439008E+02  0.21580891736E+03  0.22005484617E+03  0.00000000000E+00 0. -1.
        -12    1    3    3    0    0 -0.46549696699E+02 -0.12749792295E+02  0.11445793565E+03  0.12421775436E+03  0.00000000000E+00 0.  1.
        -13    1    4    4    0    0 -0.31133744916E+02 -0.17633071774E+02  0.13366574741E+03  0.13837184440E+03  0.00000000000E+00 0.  1.
         13    1    4    4    0    0  0.51536204681E+02 -0.13245004580E+02  0.63107926203E+02  0.82547082861E+02  0.00000000000E+00 0. -1.
          2    1    1    2  501    0  0.24299446021E+02  0.64842964166E+00  0.69279369979E+02  0.73420124235E+02  0.00000000000E+00 0. -1.
<scales pt_clust_5="13000.00000" pt_clust_6="13000.00000" pt_clust_7="13000.00000" pt_clust_8="13000.00000" pt_clust_9="24.30811"></scales>
<clustering>
<clus scale="   24.308">  2  9  1 -1</clus>
<clus scale="   80.841">  5  6 -1 -1</clus>
<clus scale="   93.357">  7  8 -1 -1</clus>
<clus scale="   93.509">  1  5  2 -1</clus>
<clus scale="   24.308">  2  5  1 -1</clus>
</clustering>
</event>
<event>
 9    1  0.6270443E-005  0.9398796E+02  0.7546771E-02  0.1300086E+00
          3   -1    0    0  502    0 -0.00000000000E+00  0.00000000000E+00  0.38364313944E+03  0.38364313944E+03  0.00000000000E+00 0. -1.
         21   -1    0    0  501  502  0.00000000000E+00 -0.00000000000E+00 -0.50268926216E+02  0.50268926216E+02  0.00000000000E+00 0. -1.
        -24    2    1    2    0    0  0.97210364776E+01  0.16987217599E+02  0.28235090694E+03  0.29408442988E+03  0.79878364618E+02 0.  0.
         23    2    1    2    0    0 -0.16688612288E+02 -0.36064913824E+02  0.61589362883E+02  0.11693337540E+03  0.91109696918E+02 0.  0.
         13    1    3    3    0    0  0.18307330275E+02 -0.27552297753E+02  0.77376659045E+02  0.84151261537E+02  0.00000000000E+00 0. -1.
        -14    1    3    3    0    0 -0.85862937979E+01  0.44539515352E+02  0.20497424790E+03  0.20993316834E+03  0.00000000000E+00 0.  1.
        -13    1    4    4    0    0 -0.36689313914E+02 -0.57320612554E+02  0.53722342386E+02  0.86705527220E+02  0.00000000000E+00 0. -1.
         13    1    4    4    0    0  0.20000701625E+02  0.21255698730E+02  0.78670204972E+01  0.30227848179E+02  0.00000000000E+00 0.  1.
          4    1    1    2  501    0  0.69675758108E+01  0.19077696225E+02 -0.10566056606E+02  0.22894260375E+02  0.00000000000E+00 0. -1.
<scales pt_clust_5="13000.00000" pt_clust_6="13000.00000" pt_clust_7="13000.00000" pt_clust_8="13000.00000" pt_clust_9="20.31023"></scales>
<clustering>
<clus scale="   20.310">  2  9  1 -1</clus>
<clus scale="   79.878">  5  6 -1 -1</clus>
<clus scale="   83.146">  1  5  2 -1</clus>
<clus scale="   91.110">  7  8 -1 -1</clus>
<clus scale="   20.310">  2  5  1 -1</clus>
</clustering>
</event>
<event>
 9    1  0.6270443E-005  0.1744785E+03  0.7546771E-02  0.1185793E+00
         21   -1    0    0  501  502  0.00000000000E+00  0.00000000000E+00  0.99523025716E+02  0.99523025716E+02  0.00000000000E+00 0.  1.
          1   -1    0    0  502    0 -0.00000000000E+00 -0.00000000000E+00 -0.10284167938E+04  0.10284167938E+04  0.00000000000E+00 0. -1.
        -24    2    1    2    0    0  0.83889425176E+02 -0.61784814847E+02 -0.57656514091E+03  0.59139278327E+03  0.80394423844E+02 0.  0.
         23    2    1    2    0    0 -0.18635936917E+03 -0.42506700530E+02 -0.32585301520E+03  0.38796114312E+03  0.88300775717E+02 0.  0.
         11    1    3    3    0    0  0.72785641010E+02 -0.49394342114E+02 -0.26168764877E+03  0.27607603317E+03  0.00000000000E+00 0. -1.
        -12    1    3    3    0    0  0.11103784166E+02 -0.12390472732E+02 -0.31487749214E+03  0.31531675010E+03  0.00000000000E+00 0.  1.
        -11    1    4    4    0    0 -0.66284549196E+02  0.26671772659E+02 -0.98089249322E+02  0.12135289758E+03  0.00000000000E+00 0. -1.
         11    1    4    4    0    0 -0.12007481998E+03 -0.69178473189E+02 -0.22776376588E+03  0.26660824554E+03  0.00000000000E+00 0.  1.
          2    1    1    2  501    0  0.10246994400E+03  0.10429151538E+03 -0.26475611958E+02  0.14858589311E+03  0.00000000000E+00 0. -1.
<scales pt_clust_5="13000.00000" pt_clust_6="13000.00000" pt_clust_7="13000.00000" pt_clust_8="13000.00000" pt_clust_9="150.48492"></scales>
<clustering>
<clus scale="   80.394">  5  6 -1 -1</clus>
<clus scale="   88.301">  7  8 -1 -1</clus>
<clus scale="  131.598">  2  5  1 -1</clus>
<clus scale="  150.485">  1  9  2 -1</clus>
<clus scale="  150.485">  1  5  2 -1</clus>
</clustering>
</event>
<event>
 9    1  0.6270443E-005  0.1539167E+03  0.7546771E-02  0.1197670E+00
          1   -1    0    0  502    0 -0.00000000000E+00  0.00000000000E+00  0.43918547942E+03  0.43918547942E+03  0.00000000000E+00 0. -1.
         21   -1    0    0  501  502  0.00000000000E+00 -0.00000000000E+00 -0.68764851253E+02  0.68764851253E+02  0.00000000000E+00 0. -1.
         23    2    1    2    0    0  0.12382643299E+03 -0.58681492596E+02  0.20794689067E+03  0.26550749129E+03  0.92064192347E+02 0.  0.
        -24    2    1    2    0    0 -0.85581508522E+02  0.71874039128E+02  0.13789285384E+03  0.19510429935E+03  0.81001088776E+02 0.  0.
         13    1    4    4    0    0  0.12696298367E+02  0.26201105147E+02  0.36560898007E+02  0.46737492083E+02  0.00000000000E+00 0. -1.
        -14    1    4    4    0    0 -0.98277806889E+02  0.45672933982E+02  0.10133195583E+03  0.14836680727E+03  0.00000000000E+00 0.  1.
        -13    1    3    3    0    0  0.17874811810E+02  0.21345273502E+02  0.15998760962E+02  0.32110589382E+02  0.00000000000E+00 0.  1.
         13    1    3    3    0    0  0.10595162118E+03 -0.80026766098E+02  0.19194812970E+03  0.23339690191E+03  0.00000000000E+00 0. -1.
          2    1    1    2  501    0 -0.38244924465E+02 -0.13192546532E+02  0.24580883663E+02  0.47338540038E+02  0.00000000000E+00 0. -1.
<scales pt_clust_5="13000.00000" pt_clust_6="13000.00000" pt_clust_7="13000.00000" pt_clust_8="13000.00000" pt_clust_9="40.45637"></scales>
<clustering>
<clus scale="   40.456">  2  9  1 -1</clus>
<clus scale="   81.001">  5  6 -1 -1</clus>
<clus scale="   92.064">  7  8 -1 -1</clus>
<clus scale="  147.566">  2  5  1 -1</clus>
<clus scale="   40.456">  2  5  1 -1</clus>
</clustering>
</event>
<event>
 9    1  0.6270443E-005  0.9217669E+02  0.7546771E-02  0.1304691E+00
          1   -1    0    0  502    0 -0.00000000000E+00  0.00000000000E+00  0.30759435087E+03  0.30759435087E+03  0.00000000000E+00 0. -1.
         21   -1    0    0  501  502  0.00000000000E+00 -0.00000000000E+00 -0.58586416988E+02  0.58586416988E+02  0.00000000000E+00 0. -1.
         23    2    1    2    0    0  0.13814160903E+02 -0.12150511157E+02  0.23858152608E+03  0.25609126149E+03  0.91231155111E+02 0.  0.
        -24    2    1    2    0    0  0.35812871174E+00 -0.79629534784E+01  0.21445939162E+02  0.83129622769E+02  0.79919140329E+02 0.  0.
         13    1    4    4    0    0  0.23169899667E+02 -0.20956365732E+02 -0.17767041788E+02  0.35939967852E+02  0.00000000000E+00 0. -1.
        -14    1    4    4    0    0 -0.22811770956E+02  0.12993412254E+02  0.39212980951E+02  0.47189654917E+02  0.00000000000E+00 0.  1.
        -13    1    3    3    0    0 -0.34259975364E+02 -0.17824069300E+02  0.62430721245E+02  0.73410069565E+02  0.00000000000E+00 0.  1.
         13    1    3    3    0    0  0.48074136267E+02  0.56735581426E+01  0.17615080483E+03  0.18268119192E+03  0.00000000000E+00 0. -1.
          2    1    1    2  501    0 -0.14172289615E+02  0.20113464636E+02 -0.11019531354E+02  0.26959883602E+02  0.00000000000E+00 0. -1.
<scales pt_clust_5="13000.00000" pt_clust_6="13000.00000" pt_clust_7="13000.00000" pt_clust_8="13000.00000" pt_clust_9="24.60498"></scales>
<clustering>
<clus scale="   24.605">  2  9  1 -1</clus>
<clus scale="   79.919">  5  6 -1 -1</clus>
<clus scale="   80.997">  2  5  1 -1</clus>
<clus scale="   91.231">  7  8 -1 -1</clus>
<clus scale="   24.605">  2  5  1 -1</clus>
</clustering>
</event>
<event>
 9    1  0.6270443E-005  0.1038188E+03  0.7546771E-02  0.1286048E+00
         21   -1    0    0  501  502  0.00000000000E+00  0.00000000000E+00  0.36973376109E+02  0.36973376109E+02  0.00000000000E+00 0.  1.
          1   -1    0    0  502    0 -0.00000000000E+00 -0.00000000000E+00 -0.41130365290E+03  0.41130365290E+03  0.00000000000E+00 0. -1.
        -24    2    1    2    0    0  0.18153584780E+02  0.55041395582E+01 -0.12818949594E+03  0.15064517718E+03  0.76821704907E+02 0.  0.
         23    2    1    2    0    0 -0.32376448686E+02  0.20939774620E+02 -0.96811444888E+02  0.14531369456E+03  0.10127638113E+03 0.  0.
         13    1    3    3    0    0  0.17049055472E+02 -0.32132059880E+02 -0.36521948575E+02  0.51546021111E+02  0.00000000000E+00 0. -1.
        -14    1    3    3    0    0  0.11045293079E+01  0.37636199439E+02 -0.91667547367E+02  0.99099156068E+02  0.00000000000E+00 0.  1.
        -13    1    4    4    0    0 -0.38701081603E+02 -0.17113224628E+01  0.65691216919E+01  0.39291929217E+02  0.00000000000E+00 0.  1.
         13    1    4    4    0    0  0.63246329170E+01  0.22651097083E+02 -0.10338056658E+03  0.10602176535E+03  0.00000000000E+00 0. -1.
          2    1    1    2  501    0  0.14222863906E+02 -0.26443914178E+02 -0.14932933596E+03  0.15231815726E+03  0.00000000000E+00 0. -1.
<scales pt_clust_5="13000.00000" pt_clust_6="13000.00000" pt_clust_7="13000.00000" pt_clust_8="13000.00000" pt_clust_9="30.02618"></scales>
<clustering>
<clus scale="   30.026">  1  9  2 -1</clus>
<clus scale="   76.822">  5  6 -1 -1</clus>
<clus scale="   80.144">  2  5  1 -1</clus>
<clus scale="  101.276">  7  8 -1 -1</clus>
<clus scale="   30.026">  1  5  2 -1</clus>
</clustering>
</event>
<event>
 9    1  0.6270443E-005  0.2102100E+03  0.7546771E-02  0.1141653E+00
          1   -1    0    0  502    0 -0.00000000000E+00  0.00000000000E+00  0.93021259335E+03  0.93021259335E+03  0.00000000000E+00 0. -1.
         21   -1    0    0  501  502  0.00000000000E+00 -0.00000000000E+00 -0.13662386595E+03  0.13662386595E+03  0.00000000000E+00 0. -1.
         23    2    1    2    0    0 -0.20611586322E+03  0.36300513739E+02  0.77475776745E+03  0.80621748774E+03  0.77042604726E+02 0.  0.
        -24    2    1    2    0    0  0.10200315110E+03 -0.51950428971E+02 -0.32278994631E+02  0.14358647979E+03  0.80446589617E+02 0.  0.
         13    1    4    4    0    0  0.27790462957E+02 -0.57197197940E+02 -0.26734180835E+02  0.68982212986E+02  0.00000000000E+00 0. -1.
        -14    1    4    4    0    0  0.74212688143E+02  0.52467689695E+01 -0.55448137964E+01  0.74604266809E+02  0.00000000000E+00 0.  1.
        -13    1    3    3    0    0 -0.11498650529E+03  0.15970206987E+02  0.56213409855E+03  0.57399624447E+03  0.00000000000E+00 0.  1.
         13    1    3    3    0    0 -0.91129357937E+02  0.20330306753E+02  0.21262366890E+03  0.23222124327E+03  0.00000000000E+00 0. -1.
          2    1    1    2  501    0  0.10411271213E+03  0.15649915232E+02  0.51109954577E+02  0.11703249177E+03  0.00000000000E+00 0. -1.
<scales pt_clust_5="13000.00000" pt_clust_6="13000.00000" pt_clust_7="13000.00000" pt_clust_8="13000.00000" pt_clust_9="105.28237"></scales>
<clustering>
<clus scale="   77.043">  7  8 -1 -1</clus>
<clus scale="   80.447">  5  6 -1 -1</clus>
<clus scale="  105.282">  2  9  1 -1</clus>
<clus scale="  208.931">  1  7  2 -1</clus>
<clus scale="  105.282">  2  5  1 -1</clus>
</clustering>
</event>
<event>
 9    1  0.6270443E-005  0.9266328E+02  0.7546771E-02  0.1303068E+00
         21   -1    0    0  501  502  0.00000000000E+00  0.00000000000E+00  0.44465644088E+03  0.44465644088E+03  0.00000000000E+00 0.  1.
          3   -1    0    0  502    0 -0.00000000000E+00 -0.00000000000E+00 -0.62582828352E+02  0.62582828352E+02  0.00000000000E+00 0. -1.
         23    2    1    2    0    0 -0.15018993172E+02  0.10719814052E+02  0.87978908260E+02  0.12805268189E+03  0.91196033196E+02 0.  0.
        -24    2    1    2    0    0 -0.10989242371E+02 -0.23974554929E+02  0.32548465571E+03  0.33632115228E+03  0.80474304201E+02 0.  0.
         13    1    4    4    0    0 -0.31447796755E+02 -0.26894777246E+02  0.80934167982E+02  0.90899023707E+02  0.00000000000E+00 0. -1.
        -14    1    4    4    0    0  0.20458554383E+02  0.29202223173E+01  0.24455048773E+03  0.24542212857E+03  0.00000000000E+00 0.  1.
        -11    1    3    3    0    0 -0.39278870399E+02 -0.26574465862E+02  0.55301113380E+02  0.72850841016E+02  0.00000000000E+00 0. -1.
         11    1    3    3    0    0  0.24259877227E+02  0.37294279914E+02  0.32677794880E+02  0.55201840871E+02  0.00000000000E+00 0.  1.
          4    1    1    2  501    0  0.26008235543E+02  0.13254740877E+02 -0.31389951442E+02  0.42865435065E+02  0.00000000000E+00 0. -1.
<scales pt_clust_5="13000.00000" pt_clust_6="13000.00000" pt_clust_7="13000.00000" pt_clust_8="13000.00000" pt_clust_9="29.19105"></scales>
<clustering>
<clus scale="   29.191">  1  9  2 -1</clus>
<clus scale="   80.474">  5  6 -1 -1</clus>
<clus scale="   82.133">  1  5  2 -1</clus>
<clus scale="   91.196">  7  8 -1 -1</clus>
<clus scale="   29.191">  1  5  2 -1</clus>
</clustering>
</event>
<event>
 9    1  0.6270443E-005  0.8607688E+02  0.7546771E-02  0.1312969E+00
         21   -1    0    0  501  502  0.00000000000E+00  0.00000000000E+00  0.93735290353E+02  0.93735290353E+02  0.00000000000E+00 0. -1.
          3   -1    0    0  502    0 -0.00000000000E+00 -0.00000000000E+00 -0.44132731632E+03  0.44132731632E+03  0.00000000000E+00 0. -1.
        -24    2    1    2    0    0 -0.16415214747E+02 -0.20994844421E+02 -0.39919581756E+03  0.40830730296E+03  0.81531037843E+02 0.  0.
         23    2    1    2    0    0  0.26373859352E+02 -0.29276890173E+01  0.52236137153E+02  0.10083500144E+03  0.82066629461E+02 0.  0.
         11    1    3    3    0    0 -0.45931549958E+02 -0.11986397043E+02 -0.15326876498E+03  0.16045153572E+03  0.00000000000E+00 0. -1.
        -12    1    3    3    0    0  0.29516335211E+02 -0.90084473779E+01 -0.24592705258E+03  0.24785576725E+03  0.00000000000E+00 0.  1.
        -11    1    4    4    0    0  0.27017221924E+02 -0.39349508537E+02  0.18519239615E+02  0.51198401719E+02  0.00000000000E+00 0. -1.
         11    1    4    4    0    0 -0.64336257167E+00  0.36421819520E+02  0.33716897538E+02  0.49636599724E+02  0.00000000000E+00 0.  1.
          4    1    1    2  501    0 -0.99586446056E+01  0.23922533438E+02 -0.63234555900E+00  0.25920302263E+02  0.00000000000E+00 0. -1.
<scales pt_clust_5="13000.00000" pt_clust_6="13000.00000" pt_clust_7="13000.00000" pt_clust_8="13000.00000" pt_clust_9="25.91259"></scales>
<clustering>
<clus scale="   25.913">  1  9  2 -1</clus>
<clus scale="   81.531">  5  6 -1 -1</clus>
<clus scale="   82.067">  7  8 -1 -1</clus>
<clus scale="   85.566">  2  5  1 -1</clus>
<clus scale="   25.913">  1  5  2 -1</clus>
</clustering>
</event>
<event>
 9    1  0.6270443E-005  0.1009405E+03  0.7546771E-02  0.1285247E+00
          1   -1    0    0  502    0 -0.00000000000E+00  0.00000000000E+00  0.49212946527E+03  0.49212946527E+03  0.00000000000E+00 0. -1.
         21   -1    0    0  501  502  0.00000000000E+00 -0.00000000000E+00 -0.97800688002E+02  0.97800688002E+02  0.00000000000E+00 0. -1.
        -24    2    1    2    0    0  0.12843965355E+00 -0.44019406726E+02  0.41274551444E+03  0.42251438676E+03  0.78878531069E+02 0.  0.
         23    2    1    2    0    0 -0.19153970574E+02  0.13635800768E+02  0.36133960068E+02  0.10214009794E+03  0.92596581395E+02 0.  0.
         13    1    3    3    0    0 -0.21688600244E+01 -0.66998796120E+02  0.31888398279E+03  0.32585355164E+03  0.00000000000E+00 0. -1.
        -14    1    3    3    0    0  0.22972996779E+01  0.22979389394E+02  0.93861531651E+02  0.96660835122E+02  0.00000000000E+00 0.  1.
        -13    1    4    4    0    0  0.19812044307E+02  0.40301875679E+02  0.41274638452E+01  0.45097607926E+02  0.00000000000E+00 0.  1.
         13    1    4    4    0    0 -0.38966014881E+02 -0.26666074910E+02  0.32006496223E+02  0.57042490017E+02  0.00000000000E+00 0. -1.
          2    1    1    2  501    0  0.19025530921E+02  0.30383605958E+02 -0.54550697240E+02  0.65275668569E+02  0.00000000000E+00 0. -1.
<scales pt_clust_5="13000.00000" pt_clust_6="13000.00000" pt_clust_7="13000.00000" pt_clust_8="13000.00000" pt_clust_9="35.84877"></scales>
<clustering>
<clus scale="   35.849">  2  9  1 -1</clus>
<clus scale="   78.879">  5  6 -1 -1</clus>
<clus scale="   88.525">  1  5  2 -1</clus>
<clus scale="   92.597">  7  8 -1 -1</clus>
<clus scale="   35.849">  2  5  1 -1</clus>
</clustering>
</event>
<event>
 9    1  0.6270443E-005  0.2037513E+03  0.7546771E-02  0.1178762E+00
         21   -1    0    0  501  502  0.00000000000E+00  0.00000000000E+00  0.89136619992E+02  0.89136619992E+02  0.00000000000E+00 0. -1.
          1   -1    0    0  502    0 -0.00000000000E+00 -0.00000000000E+00 -0.12781940964E+04  0.12781940964E+04  0.00000000000E+00 0. -1.
         23    2    1    2    0    0 -0.29512938523E+02 -0.52701487255E+01  0.17149220188E+02  0.98235411927E+02  0.91963647141E+02 0.  0.
        -24    2    1    2    0    0  0.18986833731E+03  0.75760348608E+02 -0.68798853591E+03  0.72207356425E+03  0.79198426189E+02 0.  0.
         11    1    4    4    0    0  0.15949616570E+03  0.92029008691E+02 -0.59822652567E+03  0.62592598710E+03  0.00000000000E+00 0. -1.
        -12    1    4    4    0    0  0.30372171613E+02 -0.16268660083E+02 -0.89762010242E+02  0.96147577151E+02  0.00000000000E+00 0.  1.
        -13    1    3    3    0    0  0.32773265277E+02 -0.88378895368E+01  0.10299754908E+02  0.35472244918E+02  0.00000000000E+00 0.  1.
         13    1    3    3    0    0 -0.62286203800E+02  0.35677408113E+01  0.68494652801E+01  0.62763167008E+02  0.00000000000E+00 0. -1.
          2    1    1    2  501    0 -0.16035539879E+03 -0.70490199883E+02 -0.51821816065E+03  0.54702174018E+03  0.00000000000E+00 0. -1.
<scales pt_clust_5="13000.00000" pt_clust_6="13000.00000" pt_clust_7="13000.00000" pt_clust_8="13000.00000" pt_clust_9="187.72908"></scales>
<clustering>
<clus scale="   79.198">  5  6 -1 -1</clus>
<clus scale="   91.964">  7  8 -1 -1</clus>
<clus scale="   96.727">  2  7  1 -1</clus>
<clus scale="  187.729">  1  9  2 -1</clus>
<clus scale="  187.729">  1  5  2 -1</clus>
</clustering>
</event>
<event>
 9    1  0.6270443E-005  0.3920832E+03  0.7546771E-02  0.1075738E+00
         21   -1    0    0  501  502  0.00000000000E+00  0.00000000000E+00  0.20961567713E+03  0.20961567713E+03  0.00000000000E+00 0. -1.
          1   -1    0    0  502    0 -0.00000000000E+00 -0.00000000000E+00 -0.18527084287E+04  0.18527084287E+04  0.00000000000E+00 0. -1.
        -24    2    1    2    0    0  0.12984803108E+03  0.82357904889E+02 -0.16642276036E+03  0.24044784807E+03  0.80469228900E+02 0.  0.
         23    2    1    2    0    0  0.23892722143E+03 -0.22381864919E+03 -0.13716636354E+04  0.14131799600E+04  0.91844791758E+02 0.  0.
         13    1    3    3    0    0  0.13689694168E+03  0.79344753829E+02 -0.16977821325E+03  0.23207973693E+03  0.00000000000E+00 0. -1.
        -14    1    3    3    0    0 -0.70489105940E+01  0.30131510596E+01  0.33554528873E+01  0.83681111339E+01  0.00000000000E+00 0.  1.
        -13    1    4    4    0    0  0.21384917753E+03 -0.20433713038E+03 -0.13183744383E+04  0.13511462886E+04  0.00000000000E+00 0. -1.
         13    1    4    4    0    0  0.25078043898E+02 -0.19481518812E+02 -0.53289197102E+02  0.62033671411E+02  0.00000000000E+00 0.  1.
          2    1    1    2  501    0 -0.36877525251E+03  0.14146074430E+03 -0.10500635580E+03  0.40869629776E+03  0.00000000000E+00 0. -1.
<scales pt_clust_5="13000.00000" pt_clust_6="13000.00000" pt_clust_7="13000.00000" pt_clust_8="13000.00000" pt_clust_9="381.17422"></scales>
<clustering>
<clus scale="   80.469">  5  6 -1 -1</clus>
<clus scale="   91.845">  7  8 -1 -1</clus>
<clus scale="  173.547">  2  5  1 -1</clus>
<clus scale="  381.174">  1  9  2 -1</clus>
<clus scale="  381.174">  1  5  2 -1</clus>
</clustering>
</event>
<event>
 9    1  0.6270443E-005  0.1346552E+03  0.7546771E-02  0.1223159E+00
          3   -1    0    0  502    0 -0.00000000000E+00  0.00000000000E+00  0.63345821161E+03  0.63345821161E+03  0.00000000000E+00 0. -1.
         21   -1    0    0  501  502  0.00000000000E+00 -0.00000000000E+00 -0.38054416404E+02  0.38054416404E+02  0.00000000000E+00 0. -1.
         23    2    1    2    0    0 -0.47280097314E+02 -0.99714234823E+02  0.40084435313E+03  0.42554827270E+03  0.90756821996E+02 0.  0.
        -24    2    1    2    0    0  0.40277419253E+02  0.68970609169E+02  0.12029657095E+03  0.16528485329E+03  0.80427621582E+02 0.  0.
         11    1    4    4    0    0  0.29819334054E+02  0.85690299202E+02  0.82396985225E+02  0.12256134478E+03  0.00000000000E+00 0. -1.
        -12    1    4    4    0    0  0.10458085200E+02 -0.16719690033E+02  0.37899585729E+02  0.42723508508E+02  0.00000000000E+00 0.  1.
        -11    1    3    3    0    0 -0.16506066538E+02 -0.10485784721E+03  0.35140016614E+03  0.36708268158E+03  0.00000000000E+00 0. -1.
         11    1    3    3    0    0 -0.30774030776E+02  0.51436123833E+01  0.49444186987E+02  0.58465591123E+02  0.00000000000E+00 0.  1.
          4    1    1    2  501    0  0.70026780607E+01  0.30743625654E+02  0.74262871122E+02  0.80679502017E+02  0.00000000000E+00 0. -1.
<scales pt_clust_5="13000.00000" pt_clust_6="13000.00000" pt_clust_7="13000.00000" pt_clust_8="13000.00000" pt_clust_9="31.53108"></scales>
<clustering>
<clus scale="   31.531">  2  9  1 -1</clus>
<clus scale="   80.428">  5  6 -1 -1</clus>
<clus scale="   90.757">  7  8 -1 -1</clus>
<clus scale="  127.921">  2  5  1 -1</clus>
<clus scale="   31.531">  2  5  1 -1</clus>
</clustering>
</event>
<event>
 9    1  0.6270443E-005  0.1308890E+03  0.7546771E-02  0.1237437E+00
         21   -1    0    0  501  502  0.00000000000E+00  0.00000000000E+00  0.19253568809E+03  0.19253568809E+03  0.00000000000E+00 0. -1.
          1   -1    0    0  502    0 -0.00000000000E+00 -0.00000000000E+00 -0.23826857177E+03  0.23826857177E+03  0.00000000000E+00 0. -1.
         23    2    1    2    0    0  0.18798178465E+01  0.44825759624E+02 -0.12883937100E+03  0.16540857003E+03  0.93528226110E+02 0.  0.
        -24    2    1    2    0    0  0.48823226515E+02  0.60653135806E+02 -0.16656658600E+02  0.11161246131E+03  0.78213725863E+02 0.  0.
         13    1    4    4    0    0  0.45848016460E+02  0.74755869349E+02  0.23888790827E+01  0.87727916644E+02  0.00000000000E+00 0. -1.
        -14    1    4    4    0    0  0.29752100545E+01 -0.14102733543E+02 -0.19045537683E+02  0.23884544665E+02  0.00000000000E+00 0.  1.
        -11    1    3    3    0    0 -0.23000876763E+02  0.26444273117E+02 -0.22780974514E+01  0.35121640630E+02  0.00000000000E+00 0.  1.
         11    1    3    3    0    0  0.24880694610E+02  0.18381486507E+02 -0.12656127355E+03  0.13028692940E+03  0.00000000000E+00 0. -1.
          2    1    1    2  501    0 -0.50703044361E+02 -0.10547889543E+03  0.99763145921E+02  0.15378322852E+03  0.00000000000E+00 0. -1.
<scales pt_clust_5="13000.00000" pt_clust_6="13000.00000" pt_clust_7="13000.00000" pt_clust_8="13000.00000" pt_clust_9="104.95026"></scales>
<clustering>
<clus scale="   78.214">  5  6 -1 -1</clus>
<clus scale="   93.528">  7  8 -1 -1</clus>
<clus scale="  103.732">  2  7  1 -1</clus>
<clus scale="  104.950">  1  9  2 -1</clus>
<clus scale="  104.950">  1  5  2 -1</clus>
</clustering>
</event>
<event>
 9    1  0.6270443E-005  0.1111023E+03  0.7546771E-02  0.1263818E+00
          3   -1    0    0  502    0 -0.00000000000E+00  0.00000000000E+00  0.79432315096E+02  0.79432315096E+02  0.00000000000E+00 0. -1.
         21   -1    0    0  501  502  0.00000000000E+00 -0.00000000000E+00 -0.26251260534E+03  0.26251260534E+03  0.00000000000E+00 0.  1.
         23    2    1    2    0    0  0.32715243309E+02  0.38294111196E+02 -0.64545214797E+02  0.12391860347E+03  0.93021553602E+02 0.  0.
        -24    2    1    2    0    0 -0.58794354253E+02 -0.52560697591E+02 -0.14146059145E+03  0.18048654074E+03  0.79654814241E+02 0.  0.
         11    1    4    4    0    0 -0.20730366628E+02  0.19381353742E+02 -0.54065433430E+02  0.61061084706E+02  0.00000000000E+00 0. -1.
        -12    1    4    4    0    0 -0.38063987624E+02 -0.71942051333E+02 -0.87395158025E+02  0.11942545604E+03  0.00000000000E+00 0.  1.
        -11    1    3    3    0    0 -0.30173349272E+02  0.27826905532E+00 -0.80608275824E+01  0.31232761345E+02  0.00000000000E+00 0. -1.
         11    1    3    3    0    0  0.62888592581E+02  0.38015842141E+02 -0.56484387214E+02  0.92685842120E+02  0.00000000000E+00 0.  1.
          4    1    1    2  501    0  0.26079110943E+02  0.14266586395E+02  0.22925516007E+02  0.37539776227E+02  0.00000000000E+00 0. -1.
<scales pt_clust_5="13000.00000" pt_clust_6="13000.00000" pt_clust_7="13000.00000" pt_clust_8="13000.00000" pt_clust_9="29.72636"></scales>
<clustering>
<clus scale="   29.726">  2  9  1 -1</clus>
<clus scale="   79.655">  5  6 -1 -1</clus>
<clus scale="   93.022">  7  8 -1 -1</clus>
<clus scale="  100.178">  2  5  1 -1</clus>
<clus scale="   29.726">  2  5  1 -1</clus>
</clustering>
</event>
<event>
 9    1  0.6270443E-005  0.9115392E+02  0.7546771E-02  0.1307289E+00
          1   -1    0    0  502    0 -0.00000000000E+00  0.00000000000E+00  0.15579752743E+03  0.15579752743E+03  0.00000000000E+00 0. -1.
         21   -1    0    0  501  502  0.00000000000E+00 -0.00000000000E+00 -0.12106433404E+03  0.12106433404E+03  0.00000000000E+00 0. -1.
         23    2    1    2    0    0 -0.27315521240E+01 -0.46467056410E+01  0.86659235747E+02  0.12587010983E+03  0.91128525489E+02 0.  0.
        -24    2    1    2    0    0 -0.10535991213E+02 -0.32419576774E+02 -0.66134982343E+02  0.10913687170E+03  0.79843501970E+02 0.  0.
         11    1    4    4    0    0 -0.23639232278E+02 -0.45615169427E+02 -0.73040517183E+02  0.89299911169E+02  0.00000000000E+00 0. -1.
        -12    1    4    4    0    0  0.13103241064E+02  0.13195592653E+02  0.69055348393E+01  0.19836960535E+02  0.00000000000E+00 0.  1.
        -13    1    3    3    0    0  0.28019410957E+02  0.34795475292E+01 -0.51561545064E+01  0.28701577843E+02  0.00000000000E+00 0.  1.
         13    1    3    3    0    0 -0.30750963081E+02 -0.81262531702E+01  0.91815390253E+02  0.97168531986E+02  0.00000000000E+00 0. -1.
          2    1    1    2  501    0  0.13267543337E+02  0.37066282415E+02  0.14208939986E+02  0.41854879928E+02  0.00000000000E+00 0. -1.
<scales pt_clust_5="13000.00000" pt_clust_6="13000.00000" pt_clust_7="13000.00000" pt_clust_8="13000.00000" pt_clust_9="39.36926"></scales>
<clustering>
<clus scale="   39.369">  2  9  1 -1</clus>
<clus scale="   79.844">  5  6 -1 -1</clus>
<clus scale="   79.872">  2  5  1 -1</clus>
<clus scale="   91.129">  7  8 -1 -1</clus>
<clus scale="   39.369">  2  5  1 -1</clus>
</clustering>
</event>
<event>
 9    1  0.6270443E-005  0.1203822E+03  0.7546771E-02  0.1248199E+00
          1   -1    0    0  502    0 -0.00000000000E+00  0.00000000000E+00  0.13975051027E+04  0.13975051027E+04  0.00000000000E+00 0. -1.
         21   -1    0    0  501  502  0.00000000000E+00 -0.00000000000E+00 -0.24987777931E+02  0.24987777931E+02  0.00000000000E+00 0. -1.
         23    2    1    2    0    0  0.45058861187E+02 -0.32213013002E+02  0.50338422802E+03  0.51537539831E+03  0.95645914654E+02 0.  0.
        -24    2    1    2    0    0 -0.12989330612E+03 -0.32718187988E+00  0.37234236771E+03  0.40208602212E+03  0.78498104234E+02 0.  0.
         13    1    4    4    0    0 -0.10286883681E+03 -0.22401396730E+01  0.35571732608E+03  0.37029965148E+03  0.00000000000E+00 0. -1.
        -14    1    4    4    0    0 -0.27024469315E+02  0.19129577932E+01  0.16625041630E+02  0.31786370640E+02  0.00000000000E+00 0.  1.
        -11    1    3    3    0    0  0.22598348851E+01 -0.57819530124E+02  0.21205852655E+03  0.21981133638E+03  0.00000000000E+00 0.  1.
         11    1    3    3    0    0  0.42799026302E+02  0.25606517122E+02  0.29132570147E+03  0.29556406194E+03  0.00000000000E+00 0. -1.
          2    1    1    2  501    0  0.84834444938E+02  0.32540194882E+02  0.49679072907E+03  0.50503146023E+03  0.00000000000E+00 0. -1.
<scales pt_clust_5="13000.00000" pt_clust_6="13000.00000" pt_clust_7="13000.00000" pt_clust_8="13000.00000" pt_clust_9="90.86119"></scales>
<clustering>
<clus scale="   78.498">  5  6 -1 -1</clus>
<clus scale="   90.861">  2  9  1 -1</clus>
<clus scale="   95.646">  7  8 -1 -1</clus>
<clus scale="  107.265">  2  5  1 -1</clus>
<clus scale="   90.861">  2  5  1 -1</clus>
</clustering>
</event>
<event>
 9    1  0.6270443E-005  0.1891665E+03  0.7546771E-02  0.1180471E+00
         -4   -1    0    0    0  501 -0.00000000000E+00  0.00000000000E+00  0.34076902453E+03  0.34076902453E+03  0.00000000000E+00 0.  1.
         21   -1    0    0  501  502  0.00000000000E+00 -0.00000000000E+00 -0.20195424945E+03  0.20195424945E+03  0.00000000000E+00 0. -1.
        -24    2    1    2    0    0  0.65377361484E+02 -0.52926840052E+02 -0.43458227049E+02  0.12416479091E+03  0.80329496520E+02 0.  0.
         23    2    1    2    0    0  0.17211219868E+02 -0.12124401337E+03  0.16660951919E+03  0.22516327979E+03  0.89125943540E+02 0.  0.
         11    1    3    3    0    0  0.64436973040E+02 -0.72157641629E+02 -0.32754228032E+02  0.10213563626E+03  0.00000000000E+00 0. -1.
        -12    1    3    3    0    0  0.94038844442E+00  0.19230801577E+02 -0.10703999017E+02  0.22029154652E+02  0.00000000000E+00 0.  1.
        -13    1    4    4    0    0 -0.19491171844E+02  0.46845195254E+01  0.26629941813E+02  0.33331731189E+02  0.00000000000E+00 0.  1.
         13    1    4    4    0    0  0.36702391712E+02 -0.12592853290E+03  0.13997957738E+03  0.19183154860E+03  0.00000000000E+00 0. -1.
         -3    1    1    2    0  502 -0.82588581352E+02  0.17417085343E+03  0.15663482945E+02  0.19339520328E+03  0.00000000000E+00 0.  1.
<scales pt_clust_5="13000.00000" pt_clust_6="13000.00000" pt_clust_7="13000.00000" pt_clust_8="13000.00000" pt_clust_9="166.85479"></scales>
<clustering>
<clus scale="   80.329">  5  6 -1 -1</clus>
<clus scale="   89.126">  7  8 -1 -1</clus>
<clus scale="  116.311">  1  5  2 -1</clus>
<clus scale="  166.855">  2  9  1 -1</clus>
<clus scale="  166.855">  2  5  1 -1</clus>
</clustering>
</event>
<event>
 9    1  0.6270443E-005  0.1444860E+03  0.7546771E-02  0.1230288E+00
         21   -1    0    0  501  502  0.00000000000E+00  0.00000000000E+00  0.81649857430E+02  0.81649857430E+02  0.00000000000E+00 0. -1.
          1   -1    0    0  502    0 -0.00000000000E+00 -0.00000000000E+00 -0.56003775972E+03  0.56003775972E+03  0.00000000000E+00 0. -1.
         23    2    1    2    0    0 -0.15728234830E+02 -0.98664885356E+01  0.66908830643E+01  0.89549498265E+02  0.87347694626E+02 0.  0.
        -24    2    1    2    0    0 -0.10533214423E+03 -0.27890182847E+02 -0.25927144799E+03  0.29315909421E+03  0.82751724269E+02 0.  0.
         11    1    4    4    0    0 -0.11440996252E+03 -0.80607146413E+01 -0.21006707722E+03  0.23933823676E+03  0.00000000000E+00 0. -1.
        -12    1    4    4    0    0  0.90778182850E+01 -0.19829468205E+02 -0.49204370775E+02  0.53820857458E+02  0.00000000000E+00 0.  1.
        -11    1    3    3    0    0 -0.47889363912E+02 -0.79821612329E+01 -0.14879228963E+02  0.50778908302E+02  0.00000000000E+00 0.  1.
         11    1    3    3    0    0  0.32161129082E+02 -0.18843273027E+01  0.21570112027E+02  0.38770589963E+02  0.00000000000E+00 0. -1.
          2    1    1    2  501    0  0.12106037906E+03  0.37756671382E+02 -0.22580733737E+03  0.25897902467E+03  0.00000000000E+00 0. -1.
<scales pt_clust_5="13000.00000" pt_clust_6="13000.00000" pt_clust_7="13000.00000" pt_clust_8="13000.00000" pt_clust_9="118.44148"></scales>
<clustering>
<clus scale="   82.752">  5  6 -1 -1</clus>
<clus scale="   87.348">  7  8 -1 -1</clus>
<clus scale="   89.299">  2  7  1 -1</clus>
<clus scale="  118.441">  1  9  2 -1</clus>
<clus scale="  118.441">  1  5  2 -1</clus>
</clustering>
</event>
<event>
 9    1  0.6270443E-005  0.9259895E+02  0.7546771E-02  0.1302546E+00
         21   -1    0    0  501  502  0.00000000000E+00  0.00000000000E+00  0.21081381380E+03  0.21081381380E+03  0.00000000000E+00 0.  1.
         -4   -1    0    0    0  501 -0.00000000000E+00 -0.00000000000E+00 -0.20733455143E+03  0.20733455143E+03  0.00000000000E+00 0.  1.
         23    2    1    2    0    0  0.91847778535E+01 -0.12836398187E+02 -0.14950341983E+03  0.17535089862E+03  0.90263679550E+02 0.  0.
        -24    2    1    2    0    0 -0.21269732099E+02  0.30935979757E+02  0.54455531905E+00  0.88813624929E+02  0.80486813115E+02 0.  0.
         11    1    4    4    0    0 -0.47917444186E+02  0.36719823580E+02  0.70523744754E+01  0.60779625589E+02  0.00000000000E+00 0. -1.
        -12    1    4    4    0    0  0.26647712086E+02 -0.57838438229E+01 -0.65078191564E+01  0.28033999340E+02  0.00000000000E+00 0.  1.
        -11    1    3    3    0    0  0.26520116624E+01  0.38682895492E+02 -0.76442276863E+02  0.85713600213E+02  0.00000000000E+00 0. -1.
         11    1    3    3    0    0  0.65327661911E+01 -0.51519293679E+02 -0.73061142963E+02  0.89637298411E+02  0.00000000000E+00 0.  1.
         -3    1    1    2    0  502  0.12084954246E+02 -0.18099581570E+02  0.15243812687E+03  0.15398384167E+03  0.00000000000E+00 0.  1.
<scales pt_clust_5="13000.00000" pt_clust_6="13000.00000" pt_clust_7="13000.00000" pt_clust_8="13000.00000" pt_clust_9="21.76329"></scales>
<clustering>
<clus scale="   21.763">  1  9  2 -1</clus>
<clus scale="   80.487">  5  6 -1 -1</clus>
<clus scale="   83.097">  1  5  2 -1</clus>
<clus scale="   90.264">  7  8 -1 -1</clus>
<clus scale="   21.763">  1  5  2 -1</clus>
</clustering>
</event>
<event>
 9    1  0.6270443E-005  0.2747330E+03  0.7546771E-02  0.1117700E+00
         21   -1    0    0  501  502  0.00000000000E+00  0.00000000000E+00  0.25097499647E+03  0.25097499647E+03  0.00000000000E+00 0. -1.
          1   -1    0    0  502    0 -0.00000000000E+00 -0.00000000000E+00 -0.55439874096E+03  0.55439874096E+03  0.00000000000E+00 0. -1.
        -24    2    1    2    0    0  0.70058791723E+02  0.13078200882E+03  0.71083522412E+01  0.16876440821E+03  0.80116968728E+02 0.  0.
         23    2    1    2    0    0  0.21919729060E+03 -0.12280694424E+03 -0.15569149816E+03  0.30841991168E+03  0.88056808719E+02 0.  0.
         11    1    3    3    0    0  0.92134394556E+01  0.34428386364E+02 -0.32387126768E+02  0.48157317560E+02  0.00000000000E+00 0. -1.
        -12    1    3    3    0    0  0.60845352267E+02  0.96353622454E+02  0.39495479009E+02  0.12060709065E+03  0.00000000000E+00 0.  1.
        -11    1    4    4    0    0  0.70247891805E+02 -0.26351872560E+02 -0.94610255631E+02  0.12074886319E+03  0.00000000000E+00 0.  1.
         11    1    4    4    0    0  0.14894939879E+03 -0.96455071676E+02 -0.61081242534E+02  0.18767104849E+03  0.00000000000E+00 0. -1.
          2    1    1    2  501    0 -0.28925608232E+03 -0.79750645822E+01 -0.15484059857E+03  0.32818941753E+03  0.00000000000E+00 0. -1.
<scales pt_clust_5="13000.00000" pt_clust_6="13000.00000" pt_clust_7="13000.00000" pt_clust_8="13000.00000" pt_clust_9="260.23891"></scales>
<clustering>
<clus scale="   80.117">  5  6 -1 -1</clus>
<clus scale="   88.057">  7  8 -1 -1</clus>
<clus scale="  168.615">  2  5  1 -1</clus>
<clus scale="  260.239">  1  9  2 -1</clus>
<clus scale="  260.239">  1  5  2 -1</clus>
</clustering>
</event>
<event>
 9    1  0.6270443E-005  0.8963584E+02  0.7546771E-02  0.1307650E+00
         21   -1    0    0  501  502  0.00000000000E+00  0.00000000000E+00  0.75946347630E+02  0.75946347630E+02  0.00000000000E+00 0. -1.
          1   -1    0    0  502    0 -0.00000000000E+00 -0.00000000000E+00 -0.29804300102E+03  0.29804300102E+03  0.00000000000E+00 0. -1.
         23    2    1    2    0    0  0.13234255572E+02 -0.55872418988E+01 -0.17060825237E+03  0.19322625791E+03  0.89570353226E+02 0.  0.
        -24    2    1    2    0    0  0.40380671230E+02 -0.30842021885E+02  0.54350950440E+00  0.97642868477E+02  0.83378686958E+02 0.  0.
         11    1    4    4    0    0  0.60333963143E+02 -0.42853681486E+02 -0.31035018426E+01  0.74069270612E+02  0.00000000000E+00 0. -1.
        -12    1    4    4    0    0 -0.19953291912E+02  0.12011659601E+02  0.36470113470E+01  0.23573597864E+02  0.00000000000E+00 0.  1.
        -11    1    3    3    0    0 -0.36611852737E+02  0.86870057115E+01 -0.56409591077E+02  0.67808065851E+02  0.00000000000E+00 0.  1.
         11    1    3    3    0    0  0.49846108309E+02 -0.14274247610E+02 -0.11419866129E+03  0.12541819206E+03  0.00000000000E+00 0. -1.
          2    1    1    2  501    0 -0.53614926802E+02  0.36429263784E+02 -0.52031910520E+02  0.83120222258E+02  0.00000000000E+00 0. -1.
<scales pt_clust_5="13000.00000" pt_clust_6="13000.00000" pt_clust_7="13000.00000" pt_clust_8="13000.00000" pt_clust_9="64.82018"></scales>
<clustering>
<clus scale="   64.820">  1  9  2 -1</clus>
<clus scale="   83.379">  5  6 -1 -1</clus>
<clus scale="   83.449">  1  5  2 -1</clus>
<clus scale="   89.570">  7  8 -1 -1</clus>
<clus scale="   64.820">  1  5  2 -1</clus>
</clustering>
</event>
<event>
 9    1  0.6270443E-005  0.2455191E+03  0.7546771E-02  0.1116992E+00
         21   -1    0    0  501  502  0.00000000000E+00  0.00000000000E+00  0.36094947442E+03  0.36094947442E+03  0.00000000000E+00 0. -1.
          1   -1    0    0  502    0 -0.00000000000E+00 -0.00000000000E+00 -0.22069691090E+03  0.22069691090E+03  0.00000000000E+00 0. -1.
        -24    2    1    2    0    0 -0.20715575585E+03  0.13786269270E+03  0.39237572484E+02  0.26409765123E+03  0.79299136627E+02 0.  0.
         23    2    1    2    0    0  0.18220804967E+03 -0.85202751214E+02  0.12493705180E+03  0.25455887401E+03  0.93443412010E+02 0.  0.
         11    1    3    3    0    0 -0.16701330226E+03  0.12728344730E+03  0.59003504823E+02  0.21811907911E+03  0.00000000000E+00 0. -1.
        -12    1    3    3    0    0 -0.40142453585E+02  0.10579245405E+02 -0.19765932339E+02  0.45978572122E+02  0.00000000000E+00 0.  1.
        -13    1    4    4    0    0  0.25200287953E+02 -0.45824600415E+02  0.61430602558E+02  0.80676312799E+02  0.00000000000E+00 0.  1.
         13    1    4    4    0    0  0.15700776171E+03 -0.39378150799E+02  0.63506449238E+02  0.17388256121E+03  0.00000000000E+00 0. -1.
          2    1    1    2  501    0  0.24947706183E+02 -0.52659941491E+02 -0.23922060766E+02  0.62989860080E+02  0.00000000000E+00 0. -1.
<scales pt_clust_5="13000.00000" pt_clust_6="13000.00000" pt_clust_7="13000.00000" pt_clust_8="13000.00000" pt_clust_9="58.27058"></scales>
<clustering>
<clus scale="   58.271">  1  9  2 -1</clus>
<clus scale="   79.299">  5  6 -1 -1</clus>
<clus scale="   93.443">  7  8 -1 -1</clus>
<clus scale="  240.492">  2  5  1 -1</clus>
<clus scale="   58.271">  1  5  2 -1</clus>
</clustering>
</event>
<event>
 9    1  0.6270443E-005  0.2020711E+03  0.7546771E-02  0.1168113E+00
          1   -1    0    0  502    0 -0.00000000000E+00  0.00000000000E+00  0.10184364996E+03  0.10184364996E+03  0.00000000000E+00 0. -1.
         21   -1    0    0  501  502  0.00000000000E+00 -0.00000000000E+00 -0.10575667884E+04  0.10575667884E+04  0.00000000000E+00 0. -1.
        -24    2    1    2    0    0  0.99002755270E+01 -0.99965202608E+02 -0.36549807203E+03  0.38671280513E+03  0.76595664447E+02 0.  0.
         23    2    1    2    0    0 -0.47505656094E+01  0.26264037297E+03 -0.18045299533E+03  0.33178621262E+03  0.92283660389E+02 0.  0.
         11    1    3    3    0    0  0.35919427477E+02 -0.24377493901E+02 -0.17107160925E+03  0.17649352104E+03  0.00000000000E+00 0. -1.
        -12    1    3    3    0    0 -0.26019151950E+02 -0.75587708707E+02 -0.19442646278E+03  0.21021928409E+03  0.00000000000E+00 0.  1.
        -13    1    4    4    0    0  0.28995281419E+02  0.79433000771E+02 -0.22384804991E+02  0.87472323912E+02  0.00000000000E+00 0.  1.
         13    1    4    4    0    0 -0.33745847028E+02  0.18320737220E+03 -0.15806819034E+03  0.24431388871E+03  0.00000000000E+00 0. -1.
          2    1    1    2  501    0 -0.51497099176E+01 -0.16267517036E+03 -0.40977207105E+03  0.44091142056E+03  0.00000000000E+00 0. -1.
<scales pt_clust_5="13000.00000" pt_clust_6="13000.00000" pt_clust_7="13000.00000" pt_clust_8="13000.00000" pt_clust_9="179.76776"></scales>
<clustering>
<clus scale="   76.596">  5  6 -1 -1</clus>
<clus scale="   92.284">  7  8 -1 -1</clus>
<clus scale="  126.325">  1  5  2 -1</clus>
<clus scale="  179.768">  2  9  1 -1</clus>
<clus scale="  179.768">  2  5  1 -1</clus>
</clustering>
</event>
<event>
 9    1  0.6270443E-005  0.1736089E+03  0.7546771E-02  0.1175624E+00
          1   -1    0    0  502    0 -0.00000000000E+00  0.00000000000E+00  0.76210586797E+03  0.76210586797E+03  0.00000000000E+00 0. -1.
         21   -1    0    0  501  502  0.00000000000E+00 -0.00000000000E+00 -0.14046825369E+03  0.14046825369E+03  0.00000000000E+00 0. -1.
        -24    2    1    2    0    0  0.14949417826E+03  0.28030129310E+01  0.64547339431E+03  0.66727161092E+03  0.79114687418E+02 0.  0.
         23    2    1    2    0    0 -0.13899601625E+03  0.18412145399E+02  0.36113324449E+02  0.17084950867E+03  0.90699960180E+02 0.  0.
         13    1    3    3    0    0  0.13469346108E+03 -0.14711990674E+02  0.43655473834E+03  0.45709825059E+03  0.00000000000E+00 0. -1.
        -14    1    3    3    0    0  0.14800717182E+02  0.17515003605E+02  0.20891865597E+03  0.21017336033E+03  0.00000000000E+00 0.  1.
        -11    1    4    4    0    0 -0.10883340406E+03 -0.24836904083E+02  0.10196253995E+02  0.11209614284E+03  0.00000000000E+00 0.  1.
         11    1    4    4    0    0 -0.30162612197E+02  0.43249049483E+02  0.25917070454E+02  0.58753365833E+02  0.00000000000E+00 0. -1.
          2    1    1    2  501    0 -0.10498162003E+02 -0.21215158330E+02 -0.59949104476E+02  0.64453002071E+02  0.00000000000E+00 0. -1.
<scales pt_clust_5="13000.00000" pt_clust_6="13000.00000" pt_clust_7="13000.00000" pt_clust_8="13000.00000" pt_clust_9="23.67054"></scales>
<clustering>
<clus scale="   23.671">  2  9  1 -1</clus>
<clus scale="   79.115">  5  6 -1 -1</clus>
<clus scale="   90.700">  7  8 -1 -1</clus>
<clus scale="  167.847">  1  5  2 -1</clus>
<clus scale="   23.671">  2  5  1 -1</clus>
</clustering>
</event>
<event>
 9    1  0.6270443E-005  0.9984092E+02  0.7546771E-02  0.1286376E+00
         21   -1    0    0  501  502  0.00000000000E+00  0.00000000000E+00  0.55040369511E+03  0.55040369511E+03  0.00000000000E+00 0.  1.
          1   -1    0    0  502    0 -0.00000000000E+00 -0.00000000000E+00 -0.67547568616E+02  0.67547568616E+02  0.00000000000E+00 0. -1.
        -24    2    1    2    0    0  0.30244646528E+02  0.30546823642E+02 -0.26746829299E+02  0.94248790838E+02  0.79495877998E+02 0.  0.
         23    2    1    2    0    0 -0.49111753571E+01 -0.22531881960E+02  0.41232492825E+03  0.42286082130E+03  0.90926466929E+02 0.  0.
         13    1    3    3    0    0  0.38671591790E+02  0.47757988828E+02 -0.37779861630E+02  0.72136228438E+02  0.00000000000E+00 0. -1.
        -14    1    3    3    0    0 -0.84269452623E+01 -0.17211165186E+02  0.11033032331E+02  0.22112562401E+02  0.00000000000E+00 0.  1.
        -13    1    4    4    0    0 -0.35213005622E+02  0.20644776694E+02  0.19493617839E+03  0.19916394306E+03  0.00000000000E+00 0. -1.
         13    1    4    4    0    0  0.30301830265E+02 -0.43176658655E+02  0.21738874986E+03  0.22369687824E+03  0.00000000000E+00 0.  1.
          2    1    1    2  501    0 -0.25333471171E+02 -0.80149416815E+01  0.97278027544E+02  0.10084165159E+03  0.00000000000E+00 0. -1.
<scales pt_clust_5="13000.00000" pt_clust_6="13000.00000" pt_clust_7="13000.00000" pt_clust_8="13000.00000" pt_clust_9="26.57111"></scales>
<clustering>
<clus scale="   26.571">  1  9  2 -1</clus>
<clus scale="   79.496">  5  6 -1 -1</clus>
<clus scale="   89.555">  2  5  1 -1</clus>
<clus scale="   90.926">  7  8 -1 -1</clus>
<clus scale="   26.571">  1  5  2 -1</clus>
</clustering>
</event>
<event>
 9    1  0.6270443E-005  0.2189483E+03  0.7546771E-02  0.1145638E+00
         21   -1    0    0  501  502  0.00000000000E+00  0.00000000000E+00  0.85399692053E+02  0.85399692053E+02  0.00000000000E+00 0. -1.
          1   -1    0    0  502    0 -0.00000000000E+00 -0.00000000000E+00 -0.11492939030E+04  0.11492939030E+04  0.00000000000E+00 0. -1.
        -24    2    1    2    0    0 -0.12527071595E+03 -0.77914437121E+02 -0.27106590743E+03  0.31893848338E+03  0.80508497841E+02 0.  0.
         23    2    1    2    0    0 -0.94390959546E+01  0.22769652728E+03 -0.53413083929E+03  0.58787436208E+03  0.91464239089E+02 0.  0.
         13    1    3    3    0    0 -0.10325703364E+03 -0.88346768072E+02 -0.25723767999E+03  0.29092677847E+03  0.00000000000E+00 0. -1.
        -14    1    3    3    0    0 -0.22013682307E+02  0.10432330952E+02 -0.13828227440E+02  0.28011704910E+02  0.00000000000E+00 0.  1.
        -11    1    4    4    0    0  0.27310744217E+02  0.77822809458E+02 -0.26618423631E+03  0.27866882509E+03  0.00000000000E+00 0.  1.
         11    1    4    4    0    0 -0.36749840172E+02  0.14987371782E+03 -0.26794660299E+03  0.30920553698E+03  0.00000000000E+00 0. -1.
          2    1    1    2  501    0  0.13470981190E+03 -0.14978209016E+03 -0.25869746417E+03  0.32788074955E+03  0.00000000000E+00 0. -1.
<scales pt_clust_5="13000.00000" pt_clust_6="13000.00000" pt_clust_7="13000.00000" pt_clust_8="13000.00000" pt_clust_9="198.92871"></scales>
<clustering>
<clus scale="   80.508">  5  6 -1 -1</clus>
<clus scale="   91.464">  7  8 -1 -1</clus>
<clus scale="  168.063">  2  5  1 -1</clus>
<clus scale="  198.929">  1  9  2 -1</clus>
<clus scale="  198.929">  1  5  2 -1</clus>
</clustering>
</event>
<event>
 9    1  0.6270443E-005  0.1492128E+03  0.7546771E-02  0.1203632E+00
         21   -1    0    0  501  502  0.00000000000E+00  0.00000000000E+00  0.66160509849E+02  0.66160509849E+02  0.00000000000E+00 0.  1.
          1   -1    0    0  502    0 -0.00000000000E+00 -0.00000000000E+00 -0.55661935017E+03  0.55661935017E+03  0.00000000000E+00 0. -1.
         23    2    1    2    0    0 -0.11759252677E+03 -0.38372300345E+02 -0.39989333196E+03  0.42861214018E+03  0.92158851897E+02 0.  0.
        -24    2    1    2    0    0  0.95351475534E+02  0.40675032192E+02 -0.10453785158E+03  0.16780120114E+03  0.80515331220E+02 0.  0.
         13    1    4    4    0    0  0.69511619679E+02  0.75027956176E+01 -0.10452524624E+03  0.12575247240E+03  0.00000000000E+00 0. -1.
        -14    1    4    4    0    0  0.25839855855E+02  0.33172236574E+02 -0.12605335942E-01  0.42048728743E+02  0.00000000000E+00 0.  1.
        -11    1    3    3    0    0 -0.13132398601E+02  0.23768036486E+02 -0.12706187063E+03  0.12993112953E+03  0.00000000000E+00 0.  1.
         11    1    3    3    0    0 -0.10446012817E+03 -0.62140336831E+02 -0.27283146132E+03  0.29868101065E+03  0.00000000000E+00 0. -1.
          2    1    1    2  501    0  0.22241051232E+02 -0.23027318469E+01  0.13972343206E+02  0.26366518703E+02  0.00000000000E+00 0. -1.
<scales pt_clust_5="13000.00000" pt_clust_6="13000.00000" pt_clust_7="13000.00000" pt_clust_8="13000.00000" pt_clust_9="22.35994"></scales>
<clustering>
<clus scale="   22.360">  1  9  2 -1</clus>
<clus scale="   80.515">  5  6 -1 -1</clus>
<clus scale="   92.159">  7  8 -1 -1</clus>
<clus scale="  142.316">  1  5  2 -1</clus>
<clus scale="   22.360">  1  5  2 -1</clus>
</clustering>
</event>
<event>
 9    1  0.6270443E-005  0.1908797E+03  0.7546771E-02  0.1158990E+00
          3   -1    0    0  502    0 -0.00000000000E+00  0.00000000000E+00  0.34512302839E+03  0.34512302839E+03  0.00000000000E+00 0. -1.
         21   -1    0    0  501  502  0.00000000000E+00 -0.00000000000E+00 -0.19058403097E+03  0.19058403097E+03  0.00000000000E+00 0. -1.
        -24    2    1    2    0    0 -0.56054144757E+02 -0.12843385674E+03  0.96311778523E+02  0.18769561281E+03  0.79475541417E+02 0.  0.
         23    2    1    2    0    0  0.84853230919E+02  0.18964122786E+03  0.11946240981E+03  0.25676738785E+03  0.92164841465E+02 0.  0.
         11    1    3    3    0    0 -0.47084713984E+02 -0.18474030087E+02  0.26007851189E+02  0.56874145287E+02  0.00000000000E+00 0. -1.
        -12    1    3    3    0    0 -0.89694307728E+01 -0.10995982665E+03  0.70303927334E+02  0.13082146752E+03  0.00000000000E+00 0.  1.
        -13    1    4    4    0    0  0.20615040384E+02 -0.59052879081E+01  0.12071688604E+02  0.24608494084E+02  0.00000000000E+00 0.  1.
         13    1    4    4    0    0  0.64238190536E+02  0.19554651576E+03  0.10739072121E+03  0.23215889376E+03  0.00000000000E+00 0. -1.
          4    1    1    2  501    0 -0.28799086163E+02 -0.61207371119E+02 -0.61235190912E+02  0.91244058706E+02  0.00000000000E+00 0. -1.
<scales pt_clust_5="13000.00000" pt_clust_6="13000.00000" pt_clust_7="13000.00000" pt_clust_8="13000.00000" pt_clust_9="67.64414"></scales>
<clustering>
<clus scale="   67.644">  2  9  1 -1</clus>
<clus scale="   79.476">  5  6 -1 -1</clus>
<clus scale="   92.165">  7  8 -1 -1</clus>
<clus scale="  185.087">  1  5  2 -1</clus>
<clus scale="   67.644">  2  5  1 -1</clus>
</clustering>
</event>
<event>
 9    1  0.6270443E-005  0.1876923E+03  0.7546771E-02  0.1161574E+00
          1   -1    0    0  502    0 -0.00000000000E+00  0.00000000000E+00  0.99459777234E+03  0.99459777234E+03  0.00000000000E+00 0. -1.
         21   -1    0    0  501  502  0.00000000000E+00 -0.00000000000E+00 -0.89704300770E+02  0.89704300770E+02  0.00000000000E+00 0. -1.
         23    2    1    2    0    0  0.15678503426E+03 -0.53015629424E+02  0.85222963118E+03  0.87296796561E+03  0.91572489289E+02 0.  0.
        -24    2    1    2    0    0 -0.14935987673E+03  0.31563913458E+02  0.24440887913E+02  0.17511471865E+03  0.82238399023E+02 0.  0.
         11    1    4    4    0    0 -0.11997368564E+03  0.55751231823E+02  0.32460543929E+02  0.13621883867E+03  0.00000000000E+00 0. -1.
        -12    1    4    4    0    0 -0.29386191093E+02 -0.24187318365E+02 -0.80196560162E+01  0.38895879978E+02  0.00000000000E+00 0.  1.
        -13    1    3    3    0    0  0.78440101445E+02  0.18179125656E+02  0.29611125412E+03  0.30686349561E+03  0.00000000000E+00 0. -1.
         13    1    3    3    0    0  0.78344932817E+02 -0.71194755080E+02  0.55611837706E+03  0.56610447000E+03  0.00000000000E+00 0.  1.
          2    1    1    2  501    0 -0.74251575296E+01  0.21451715966E+02  0.28222952479E+02  0.36219388852E+02  0.00000000000E+00 0. -1.
<scales pt_clust_5="13000.00000" pt_clust_6="13000.00000" pt_clust_7="13000.00000" pt_clust_8="13000.00000" pt_clust_9="22.70042"></scales>
<clustering>
<clus scale="   22.700">  2  9  1 -1</clus>
<clus scale="   82.238">  5  6 -1 -1</clus>
<clus scale="   91.572">  7  8 -1 -1</clus>
<clus scale="  183.319">  2  5  1 -1</clus>
<clus scale="   22.700">  2  5  1 -1</clus>
</clustering>
</event>
<event>
 9    1  0.6270443E-005  0.1669187E+03  0.7546771E-02  0.1183452E+00
         21   -1    0    0  501  502  0.00000000000E+00  0.00000000000E+00  0.30911967951E+03  0.30911967951E+03  0.00000000000E+00 0. -1.
          1   -1    0    0  502    0 -0.00000000000E+00 -0.00000000000E+00 -0.30961583339E+03  0.30961583339E+03  0.00000000000E+00 0. -1.
         23    2    1    2    0    0 -0.85601042563E+00 -0.12782417085E+03 -0.17697568804E+03  0.23879743026E+03  0.96768110119E+02 0.  0.
        -24    2    1    2    0    0  0.67968445323E+01  0.15634545129E+03 -0.23522778736E+02  0.17782503973E+03  0.81106882570E+02 0.  0.
         13    1    4    4    0    0  0.26516066906E+02  0.62062126023E+02 -0.42353480916E+02  0.79678269536E+02  0.00000000000E+00 0. -1.
        -14    1    4    4    0    0 -0.19719222374E+02  0.94283325272E+02  0.18830702179E+02  0.98146770196E+02  0.00000000000E+00 0.  1.
        -11    1    3    3    0    0 -0.45712776299E+02 -0.91851646069E+02 -0.11943642914E+03  0.15745298793E+03  0.00000000000E+00 0. -1.
         11    1    3    3    0    0  0.44856765873E+02 -0.35972524779E+02 -0.57539258899E+02  0.81344442331E+02  0.00000000000E+00 0.  1.
          2    1    1    2  501    0 -0.59408341067E+01 -0.28521280447E+02  0.20000231290E+03  0.20211304291E+03  0.00000000000E+00 0. -1.
<scales pt_clust_5="13000.00000" pt_clust_6="13000.00000" pt_clust_7="13000.00000" pt_clust_8="13000.00000" pt_clust_9="29.13343"></scales>
<clustering>
<clus scale="   29.133">  1  9  2 -1</clus>
<clus scale="   81.107">  5  6 -1 -1</clus>
<clus scale="   96.768">  7  8 -1 -1</clus>
<clus scale="  158.354">  1  5  2 -1</clus>
<clus scale="   29.133">  1  5  2 -1</clus>
</clustering>
</event>
<event>
 9    1  0.6270443E-005  0.1005868E+03  0.7546771E-02  0.1285349E+00
          1   -1    0    0  502    0 -0.00000000000E+00  0.00000000000E+00  0.13202047660E+03  0.13202047660E+03  0.00000000000E+00 0. -1.
         21   -1    0    0  501  502  0.00000000000E+00 -0.00000000000E+00 -0.38775338945E+03  0.38775338945E+03  0.00000000000E+00 0. -1.
         23    2    1    2    0    0  0.91538036515E+01  0.49112031872E+02  0.91474565589E+02  0.13853795914E+03  0.91265470887E+02 0.  0.
        -24    2    1    2    0    0  0.29318736167E+02 -0.18422414801E+01 -0.12318052096E+03  0.14906647077E+03  0.78640891524E+02 0.  0.
         11    1    4    4    0    0  0.13469318884E+02  0.35505924622E+02 -0.86098873249E+02  0.94101589833E+02  0.00000000000E+00 0. -1.
        -12    1    4    4    0    0  0.15849417284E+02 -0.37348166102E+02 -0.37081647711E+02  0.54964880936E+02  0.00000000000E+00 0.  1.
        -13    1    3    3    0    0  0.25403644092E+02 -0.24498557098E+00 -0.77243351767E+01  0.26553163748E+02  0.00000000000E+00 0.  1.
         13    1    3    3    0    0 -0.16249840441E+02  0.49357017443E+02  0.99198900766E+02  0.11198479539E+03  0.00000000000E+00 0. -1.
          2    1    1    2  501    0 -0.38472539819E+02 -0.47269790392E+02 -0.22402695748E+03  0.23216943615E+03  0.00000000000E+00 0. -1.
<scales pt_clust_5="13000.00000" pt_clust_6="13000.00000" pt_clust_7="13000.00000" pt_clust_8="13000.00000" pt_clust_9="60.94727"></scales>
<clustering>
<clus scale="   60.947">  2  9  1 -1</clus>
<clus scale="   78.641">  5  6 -1 -1</clus>
<clus scale="   89.290">  2  5  1 -1</clus>
<clus scale="   91.265">  7  8 -1 -1</clus>
<clus scale="   60.947">  2  5  1 -1</clus>
</clustering>
</event>
<event>
 9    1  0.6270443E-005  0.9664109E+02  0.7546771E-02  0.1289170E+00
         21   -1    0    0  501  502  0.00000000000E+00  0.00000000000E+00  0.15702859357E+03  0.15702859357E+03  0.00000000000E+00 0. -1.
          1   -1    0    0  502    0 -0.00000000000E+00 -0.00000000000E+00 -0.29484104289E+03  0.29484104289E+03  0.00000000000E+00 0. -1.
        -24    2    1    2    0    0  0.28236148703E+02 -0.24296474525E+01 -0.25255625704E+03  0.26921764419E+03  0.88827325152E+02 0.  0.
         23    2    1    2    0    0 -0.49411100832E+02  0.26093227406E+02  0.10258235835E+03  0.14864839739E+03  0.91928735438E+02 0.  0.
         11    1    3    3    0    0 -0.12760126148E+00  0.32500924289E+02 -0.18638266252E+03  0.18919519881E+03  0.00000000000E+00 0. -1.
        -12    1    3    3    0    0  0.28363749964E+02 -0.34930571742E+02 -0.66173594513E+02  0.80022445383E+02  0.00000000000E+00 0.  1.
        -13    1    4    4    0    0 -0.57268588363E+02 -0.49088144883E+01  0.10150344216E+03  0.11664791658E+03  0.00000000000E+00 0.  1.
         13    1    4    4    0    0  0.78574875315E+01  0.31002041894E+02  0.10789161968E+01  0.32000480810E+02  0.00000000000E+00 0. -1.
          2    1    1    2  501    0  0.21174952129E+02 -0.23663579953E+02  0.12161449365E+02  0.34003594876E+02  0.00000000000E+00 0. -1.
<scales pt_clust_5="13000.00000" pt_clust_6="13000.00000" pt_clust_7="13000.00000" pt_clust_8="13000.00000" pt_clust_9="31.75443"></scales>
<clustering>
<clus scale="   31.754">  1  9  2 -1</clus>
<clus scale="   88.827">  5  6 -1 -1</clus>
<clus scale="   91.929">  7  8 -1 -1</clus>
<clus scale="   93.696">  2  5  1 -1</clus>
<clus scale="   31.754">  1  5  2 -1</clus>
</clustering>
</event>
<event>
 9    1  0.6270443E-005  0.1568561E+03  0.7546771E-02  0.1216674E+00
          1   -1    0    0  502    0 -0.00000000000E+00  0.00000000000E+00  0.12975082995E+04  0.12975082995E+04  0.00000000000E+00 0. -1.
         21   -1    0    0  501  502  0.00000000000E+00 -0.00000000000E+00 -0.31423405772E+02  0.31423405772E+02  0.00000000000E+00 0. -1.
        -24    2    1    2    0    0  0.45998317318E+02  0.35900689853E+01  0.50531624822E+03  0.51375525362E+03  0.80443869360E+02 0.  0.
         23    2    1    2    0    0  0.57413595316E+02 -0.90199273279E+02  0.51781107823E+03  0.53728518255E+03  0.95471591738E+02 0.  0.
         13    1    3    3    0    0  0.61404279549E+02 -0.19978005903E+02  0.35471803666E+03  0.36054748896E+03  0.00000000000E+00 0. -1.
        -14    1    3    3    0    0 -0.15405962231E+02  0.23568074889E+02  0.15059821156E+03  0.15320776465E+03  0.00000000000E+00 0.  1.
        -11    1    4    4    0    0  0.51778047289E+02 -0.10097495312E+02  0.11464144236E+03  0.12619661603E+03  0.00000000000E+00 0.  1.
         11    1    4    4    0    0  0.56355480261E+01 -0.80101777967E+02  0.40316963587E+03  0.41108856652E+03  0.00000000000E+00 0. -1.
          2    1    1    2  501    0 -0.10341191263E+03  0.86609204294E+02  0.24295756730E+03  0.27789126912E+03  0.00000000000E+00 0. -1.
<scales pt_clust_5="13000.00000" pt_clust_6="13000.00000" pt_clust_7="13000.00000" pt_clust_8="13000.00000" pt_clust_9="124.45483"></scales>
<clustering>
<clus scale="   80.444">  5  6 -1 -1</clus>
<clus scale="   92.736">  1  5  2 -1</clus>
<clus scale="   95.472">  7  8 -1 -1</clus>
<clus scale="  124.455">  2  9  1 -1</clus>
<clus scale="  124.455">  2  5  1 -1</clus>
</clustering>
</event>
<event>
 9    1  0.6270443E-005  0.1029626E+03  0.7546771E-02  0.1279726E+00
         21   -1    0    0  501  502  0.00000000000E+00  0.00000000000E+00  0.10365408360E+03  0.10365408360E+03  0.00000000000E+00 0. -1.
          3   -1    0    0  502    0 -0.00000000000E+00 -0.00000000000E+00 -0.23444875549E+03  0.23444875549E+03  0.00000000000E+00 0. -1.
        -24    2    1    2    0    0 -0.14246455263E+02  0.62099258068E+02 -0.97250434335E+02  0.14135262689E+03  0.80396758703E+02 0.  0.
         23    2    1    2    0    0  0.48452440459E+02 -0.40779257760E+00 -0.61463633089E+02  0.12088599808E+03  0.92129479852E+02 0.  0.
         13    1    3    3    0    0  0.88747268084E+01  0.73653155587E+02 -0.84777170178E+02  0.11265308113E+03  0.00000000000E+00 0. -1.
        -14    1    3    3    0    0 -0.23121182071E+02 -0.11553897519E+02 -0.12473264157E+02  0.28699545763E+02  0.00000000000E+00 0.  1.
        -13    1    4    4    0    0  0.19087489598E+02  0.44719963974E+02 -0.18572326170E+02  0.52049387473E+02  0.00000000000E+00 0. -1.
         13    1    4    4    0    0  0.29364950861E+02 -0.45127756552E+02 -0.42891306919E+02  0.68836610605E+02  0.00000000000E+00 0.  1.
          4    1    1    2  501    0 -0.34205985196E+02 -0.61691465490E+02  0.27919395531E+02  0.75864214123E+02  0.00000000000E+00 0. -1.
<scales pt_clust_5="13000.00000" pt_clust_6="13000.00000" pt_clust_7="13000.00000" pt_clust_8="13000.00000" pt_clust_9="70.53996"></scales>
<clustering>
<clus scale="   70.540">  1  9  2 -1</clus>
<clus scale="   80.397">  5  6 -1 -1</clus>
<clus scale="   92.129">  7  8 -1 -1</clus>
<clus scale="   92.613">  2  5  1 -1</clus>
<clus scale="   70.540">  1  5  2 -1</clus>
</clustering>
</event>
<event>
 9    1  0.6270443E-005  0.1087512E+03  0.7546771E-02  0.1267546E+00
          1   -1    0    0  502    0 -0.00000000000E+00  0.00000000000E+00  0.70337833819E+03  0.70337833819E+03  0.00000000000E+00 0. -1.
         21   -1    0    0  501  502  0.00000000000E+00 -0.00000000000E+00 -0.34068695968E+02  0.34068695968E+02  0.00000000000E+00 0.  1.
        -24    2    1    2    0    0  0.86648275823E+01  0.61684012159E+02  0.28705283663E+03  0.30420476388E+03  0.79127812818E+02 0.  0.
         23    2    1    2    0    0 -0.80293270486E+02 -0.27608116644E+02  0.22038072042E+03  0.25297672326E+03  0.90666108274E+02 0.  0.
         11    1    3    3    0    0 -0.24022451587E+02  0.48813696704E+02  0.99615117151E+02  0.11350342167E+03  0.00000000000E+00 0. -1.
        -12    1    3    3    0    0  0.32687279169E+02  0.12870315455E+02  0.18743771948E+03  0.19070134221E+03  0.00000000000E+00 0.  1.
        -11    1    4    4    0    0 -0.22533839332E+02 -0.40572608002E+02  0.34307309259E+02  0.57713966279E+02  0.00000000000E+00 0. -1.
         11    1    4    4    0    0 -0.57759431155E+02  0.12964491358E+02  0.18607341116E+03  0.19526275698E+03  0.00000000000E+00 0.  1.
          2    1    1    2  501    0  0.71628442904E+02 -0.34075895515E+02  0.16187608518E+03  0.18026554702E+03  0.00000000000E+00 0. -1.
<scales pt_clust_5="13000.00000" pt_clust_6="13000.00000" pt_clust_7="13000.00000" pt_clust_8="13000.00000" pt_clust_9="79.32087"></scales>
<clustering>
<clus scale="   79.128">  5  6 -1 -1</clus>
<clus scale="   79.321">  2  9  1 -1</clus>
<clus scale="   90.666">  7  8 -1 -1</clus>
<clus scale="   99.336">  1  5  2 -1</clus>
<clus scale="   79.321">  2  5  1 -1</clus>
</clustering>
</event>
<event>
 9    1  0.6270443E-005  0.1440266E+03  0.7546771E-02  0.1212069E+00
         21   -1    0    0  501  502  0.00000000000E+00  0.00000000000E+00  0.14733878195E+03  0.14733878195E+03  0.00000000000E+00 0.  1.
          1   -1    0    0  502    0 -0.00000000000E+00 -0.00000000000E+00 -0.25115365962E+03  0.25115365962E+03  0.00000000000E+00 0. -1.
        -24    2    1    2    0    0 -0.38901931804E+02  0.11942949429E+03 -0.14026377179E+03  0.20487629789E+03  0.80768851396E+02 0.  0.
         23    2    1    2    0    0  0.41007903898E+02 -0.53153801614E+02  0.39628983381E+01  0.11977684195E+03  0.99115147658E+02 0.  0.
         13    1    3    3    0    0 -0.21927605417E+02  0.12504433879E+03 -0.10276221567E+03  0.16333088964E+03  0.00000000000E+00 0. -1.
        -14    1    3    3    0    0 -0.16974326387E+02 -0.56148444964E+01 -0.37501556122E+02  0.41545408249E+02  0.00000000000E+00 0.  1.
        -13    1    4    4    0    0  0.12707530987E+02 -0.17098920070E+02 -0.46777059308E+02  0.51399880242E+02  0.00000000000E+00 0. -1.
         13    1    4    4    0    0  0.28300372912E+02 -0.36054881544E+02  0.50739957646E+02  0.68376961705E+02  0.00000000000E+00 0.  1.
          2    1    1    2  501    0 -0.21059720947E+01 -0.66275692677E+02  0.32485995784E+02  0.73839301732E+02  0.00000000000E+00 0. -1.
<scales pt_clust_5="13000.00000" pt_clust_6="13000.00000" pt_clust_7="13000.00000" pt_clust_8="13000.00000" pt_clust_9="66.30914"></scales>
<clustering>
<clus scale="   66.309">  1  9  2 -1</clus>
<clus scale="   80.769">  5  6 -1 -1</clus>
<clus scale="   99.115">  7  8 -1 -1</clus>
<clus scale="  132.074">  2  5  1 -1</clus>
<clus scale="   66.309">  1  5  2 -1</clus>
</clustering>
</event>
<event>
 9    1  0.6270443E-005  0.1583676E+03  0.7546771E-02  0.1192170E+00
         21   -1    0    0  501  502  0.00000000000E+00  0.00000000000E+00  0.35592647372E+03  0.35592647372E+03  0.00000000000E+00 0. -1.
          1   -1    0    0  502    0 -0.00000000000E+00 -0.00000000000E+00 -0.15583843553E+03  0.15583843553E+03  0.00000000000E+00 0. -1.
         23    2    1    2    0    0 -0.99499155510E+02  0.83112850118E+02 -0.73747070086E+02  0.17558719015E+03  0.92652054456E+02 0.  0.
        -24    2    1    2    0    0  0.11972813257E+03 -0.46615998857E+02  0.20563242514E+03  0.25622249632E+03  0.82809397256E+02 0.  0.
         13    1    4    4    0    0  0.23892376316E+02  0.23238712325E+02  0.34076217621E+02  0.47666256449E+02  0.00000000000E+00 0. -1.
        -14    1    4    4    0    0  0.95835756252E+02 -0.69854711182E+02  0.17155620752E+03  0.20855623987E+03  0.00000000000E+00 0.  1.
        -11    1    3    3    0    0 -0.49032090422E+02 -0.12297659813E+02 -0.32179401557E+02  0.59924053707E+02  0.00000000000E+00 0.  1.
         11    1    3    3    0    0 -0.50467065088E+02  0.95410509931E+02 -0.41567668529E+02  0.11566313644E+03  0.00000000000E+00 0. -1.
          2    1    1    2  501    0 -0.20228977058E+02 -0.36496851260E+02  0.68202683130E+02  0.79955222786E+02  0.00000000000E+00 0. -1.
<scales pt_clust_5="13000.00000" pt_clust_6="13000.00000" pt_clust_7="13000.00000" pt_clust_8="13000.00000" pt_clust_9="41.72807"></scales>
<clustering>
<clus scale="   41.728">  1  9  2 -1</clus>
<clus scale="   82.809">  5  6 -1 -1</clus>
<clus scale="   92.652">  7  8 -1 -1</clus>
<clus scale="  152.818">  1  5  2 -1</clus>
<clus scale="   41.728">  1  5  2 -1</clus>
</clustering>
</event>
<event>
 9    1  0.6270443E-005  0.1241114E+03  0.7546771E-02  0.1241479E+00
         21   -1    0    0  501  502  0.00000000000E+00  0.00000000000E+00  0.27427457544E+03  0.27427457544E+03  0.00000000000E+00 0. -1.
          1   -1    0    0  502    0 -0.00000000000E+00 -0.00000000000E+00 -0.27642958668E+03  0.27642958668E+03  0.00000000000E+00 0. -1.
        -24    2    1    2    0    0  0.63576585089E+02  0.52812066723E+02 -0.19123550044E+03  0.22370901475E+03  0.81508343667E+02 0.  0.
         23    2    1    2    0    0 -0.27571736407E+02 -0.57628183549E+02 -0.17020805110E+02  0.11771713222E+03  0.97398189012E+02 0.  0.
         11    1    3    3    0    0  0.67099437586E+02  0.13482246440E+02 -0.15766988781E+03  0.17188338784E+03  0.00000000000E+00 0. -1.
        -12    1    3    3    0    0 -0.35228524970E+01  0.39329820282E+02 -0.33565612636E+02  0.51825626912E+02  0.00000000000E+00 0.  1.
        -11    1    4    4    0    0  0.25037352759E+02 -0.28217738205E+02  0.24089915554E+02  0.44759734293E+02  0.00000000000E+00 0. -1.
         11    1    4    4    0    0 -0.52609089165E+02 -0.29410445344E+02 -0.41110720664E+02  0.72957397923E+02  0.00000000000E+00 0.  1.
          2    1    1    2  501    0 -0.36004848683E+02  0.48161168266E+01  0.20610129432E+03  0.20927801516E+03  0.00000000000E+00 0. -1.
<scales pt_clust_5="13000.00000" pt_clust_6="13000.00000" pt_clust_7="13000.00000" pt_clust_8="13000.00000" pt_clust_9="36.32553"></scales>
<clustering>
<clus scale="   36.326">  1  9  2 -1</clus>
<clus scale="   81.508">  5  6 -1 -1</clus>
<clus scale="   97.398">  7  8 -1 -1</clus>
<clus scale="  112.075">  2  5  1 -1</clus>
<clus scale="   36.326">  1  5  2 -1</clus>
</clustering>
</event>
<event>
 9    1  0.6270443E-005  0.2021238E+03  0.7546771E-02  0.1187484E+00
          1   -1    0    0  502    0 -0.00000000000E+00  0.00000000000E+00  0.12986105792E+04  0.12986105792E+04  0.00000000000E+00 0. -1.
         21   -1    0    0  501  502  0.00000000000E+00 -0.00000000000E+00 -0.48903405407E+02  0.48903405407E+02  0.00000000000E+00 0. -1.
        -24    2    1    2    0    0  0.13389790129E+02 -0.67142054010E+01  0.15559351530E+03  0.17565849320E+03  0.80138612386E+02 0.  0.
         23    2    1    2    0    0  0.97827436761E+02  0.15041711990E+03  0.81074334522E+03  0.83522730835E+03  0.90024260328E+02 0.  0.
         13    1    3    3    0    0  0.16045766279E+02  0.25218137079E+02  0.19139631089E+02  0.35492908185E+02  0.00000000000E+00 0. -1.
        -14    1    3    3    0    0 -0.26559761507E+01 -0.31932342480E+02  0.13645388422E+03  0.14016558502E+03  0.00000000000E+00 0.  1.
        -11    1    4    4    0    0  0.75406319376E+02  0.14619010272E+03  0.77874226809E+03  0.79592536035E+03  0.00000000000E+00 0. -1.
         11    1    4    4    0    0  0.22421117385E+02  0.42270171825E+01  0.32001077130E+02  0.39301947999E+02  0.00000000000E+00 0.  1.
          2    1    1    2  501    0 -0.11121722689E+03 -0.14370291450E+03  0.28337031331E+03  0.33662818310E+03  0.00000000000E+00 0. -1.
<scales pt_clust_5="13000.00000" pt_clust_6="13000.00000" pt_clust_7="13000.00000" pt_clust_8="13000.00000" pt_clust_9="180.96871"></scales>
<clustering>
<clus scale="   80.139">  5  6 -1 -1</clus>
<clus scale="   81.527">  1  5  2 -1</clus>
<clus scale="   90.024">  7  8 -1 -1</clus>
<clus scale="  180.969">  2  9  1 -1</clus>
<clus scale="  180.969">  2  5  1 -1</clus>
</clustering>
</event>
<event>
 9    1  0.7734648E-005  0.4206022E+03  0.7546771E-02  0.1094812E+00
         -4   -1    0    0    0  501 -0.00000000000E+00  0.00000000000E+00  0.94158320710E+03  0.94158320710E+03  0.00000000000E+00 0.  1.
         21   -1    0    0  501  502  0.00000000000E+00 -0.00000000000E+00 -0.24268060983E+03  0.24268060983E+03  0.00000000000E+00 0.  1.
        -24    2    1    2    0    0 -0.46204283608E+01 -0.22624157555E+02  0.12183370358E+03  0.14828341661E+03  0.81310020597E+02 0.  0.
         23    2    1    2    0    0  0.28120851226E+03 -0.29229033888E+03  0.16218870992E+03  0.44623666352E+03  0.91159819411E+02 0.  0.
         13    1    3    3    0    0  0.37258863006E+02 -0.13147184615E+02  0.74827438726E+02  0.84618064986E+02  0.00000000000E+00 0. -1.
        -14    1    3    3    0    0 -0.41879291366E+02 -0.94769729403E+01  0.47006264853E+02  0.63665351620E+02  0.00000000000E+00 0.  1.
        -11    1    4    4    0    0  0.50084624915E+02 -0.45100302593E+02 -0.72346336598E+01  0.67785299815E+02  0.00000000000E+00 0. -1.
         11    1    4    4    0    0  0.23112388734E+03 -0.24719003629E+03  0.16942334358E+03  0.37845136370E+03  0.00000000000E+00 0.  1.
         -3    1    1    2    0  502 -0.27658808390E+03  0.31491449643E+03  0.41488018377E+03  0.58974373681E+03  0.00000000000E+00 0.  1.
<scales pt_clust_5="13000.00000" pt_clust_6="13000.00000" pt_clust_7="13000.00000" pt_clust_8="13000.00000" pt_clust_9="410.60480"></scales>
<clustering>
<clus scale="   81.310">  5  6 -1 -1</clus>
<clus scale="   84.525">  1  5  2 -1</clus>
<clus scale="   91.160">  7  8 -1 -1</clus>
<clus scale="  410.605">  2  9  1 -1</clus>
<clus scale="  410.605">  2  5  1 -1</clus>
</clustering>
</event>
<event>
 9    1  0.6270443E-005  0.9326650E+02  0.7546771E-02  0.1300269E+00
          3   -1    0    0  502    0 -0.00000000000E+00  0.00000000000E+00  0.88669136750E+03  0.88669136750E+03  0.00000000000E+00 0. -1.
         21   -1    0    0  501  502  0.00000000000E+00 -0.00000000000E+00 -0.21770720908E+02  0.21770720908E+02  0.00000000000E+00 0.  1.
         23    2    1    2    0    0 -0.43191636505E+02 -0.23661915607E+02  0.38222096490E+03  0.39568347689E+03  0.89705875854E+02 0.  0.
        -24    2    1    2    0    0 -0.30748005301E+02  0.16620010290E+02  0.17111677372E+03  0.19246537794E+03  0.80872163854E+02 0.  0.
         11    1    4    4    0    0  0.22312166299E+02 -0.10559496063E+02  0.78768432100E+02  0.82545754692E+02  0.00000000000E+00 0. -1.
        -12    1    4    4    0    0 -0.53060171600E+02  0.27179506353E+02  0.92348341620E+02  0.10991962325E+03  0.00000000000E+00 0.  1.
        -13    1    3    3    0    0 -0.67992985327E+02 -0.15778298960E+02  0.33042984993E+03  0.33772161094E+03  0.00000000000E+00 0.  1.
         13    1    3    3    0    0  0.24801348822E+02 -0.78836166465E+01  0.51791114973E+02  0.57961865955E+02  0.00000000000E+00 0. -1.
          4    1    1    2  501    0  0.73939641806E+02  0.70419053168E+01  0.31158290797E+03  0.32031323357E+03  0.00000000000E+00 0. -1.
<scales pt_clust_5="13000.00000" pt_clust_6="13000.00000" pt_clust_7="13000.00000" pt_clust_8="13000.00000" pt_clust_9="74.27425"></scales>
<clustering>
<clus scale="   74.274">  2  9  1 -1</clus>
<clus scale="   80.872">  5  6 -1 -1</clus>
<clus scale="   84.804">  2  5  1 -1</clus>
<clus scale="   89.706">  7  8 -1 -1</clus>
<clus scale="   74.274">  2  5  1 -1</clus>
</clustering>
</event>
<event>
 9    1  0.6270443E-005  0.1288125E+03  0.7546771E-02  0.1231126E+00
         21   -1    0    0  501  502  0.00000000000E+00  0.00000000000E+00  0.10890615153E+03  0.10890615153E+03  0.00000000000E+00 0. -1.
          1   -1    0    0  502    0 -0.00000000000E+00 -0.00000000000E+00 -0.25378744757E+03  0.25378744757E+03  0.00000000000E+00 0. -1.
         23    2    1    2    0    0 -0.78141949351E+02  0.21129492243E+02 -0.96624554425E+02  0.15373988879E+03  0.88017209662E+02 0.  0.
        -24    2    1    2    0    0  0.11329698971E+03 -0.86576063437E+01 -0.79408492633E+02  0.16035477626E+03  0.80602627391E+02 0.  0.
         11    1    4    4    0    0  0.48682941303E+02 -0.32318455809E+02 -0.44512390439E+01  0.58603113303E+02  0.00000000000E+00 0. -1.
        -12    1    4    4    0    0  0.64614048403E+02  0.23660849465E+02 -0.74957253589E+02  0.10175166295E+03  0.00000000000E+00 0.  1.
        -13    1    3    3    0    0 -0.99688236447E+01  0.43808561469E+02 -0.21561888164E+02  0.49834551508E+02  0.00000000000E+00 0.  1.
         13    1    3    3    0    0 -0.68173125706E+02 -0.22679069226E+02 -0.75062666262E+02  0.10390533728E+03  0.00000000000E+00 0. -1.
          2    1    1    2  501    0 -0.35155040355E+02 -0.12471885900E+02  0.31151751015E+02  0.48598934058E+02  0.00000000000E+00 0. -1.
<scales pt_clust_5="13000.00000" pt_clust_6="13000.00000" pt_clust_7="13000.00000" pt_clust_8="13000.00000" pt_clust_9="37.30181"></scales>
<clustering>
<clus scale="   37.302">  1  9  2 -1</clus>
<clus scale="   80.603">  5  6 -1 -1</clus>
<clus scale="   88.017">  7  8 -1 -1</clus>
<clus scale="  123.864">  1  5  2 -1</clus>
<clus scale="   37.302">  1  5  2 -1</clus>
</clustering>
</event>
<event>
 9    1  0.6270443E-005  0.9333882E+02  0.7546771E-02  0.1295579E+00
         21   -1    0    0  501  502  0.00000000000E+00  0.00000000000E+00  0.49831632753E+03  0.49831632753E+03  0.00000000000E+00 0.  1.
         -4   -1    0    0    0  501 -0.00000000000E+00 -0.00000000000E+00 -0.63395073500E+02  0.63395073500E+02  0.00000000000E+00 0.  1.
         23    2    1    2    0    0  0.12241343082E+02  0.54538216874E+02 -0.67400398824E+01  0.98753572301E+02  0.81133053218E+02 0.  0.
        -24    2    1    2    0    0  0.92052080079E+00 -0.90432948411E+00  0.20713277840E+03  0.22201498670E+03  0.79906202891E+02 0.  0.
         11    1    4    4    0    0 -0.18157376156E+02 -0.25549237554E+02  0.17290783812E+03  0.17572584992E+03  0.00000000000E+00 0. -1.
        -12    1    4    4    0    0  0.19077896957E+02  0.24644908070E+02  0.34224940283E+02  0.46289136776E+02  0.00000000000E+00 0.  1.
        -11    1    3    3    0    0  0.41775158681E+02  0.50261087145E+02 -0.16409711337E+02  0.67384118233E+02  0.00000000000E+00 0.  1.
         11    1    3    3    0    0 -0.29533815599E+02  0.42771297289E+01  0.96696714542E+01  0.31369454069E+02  0.00000000000E+00 0. -1.
         -3    1    1    2    0  502 -0.13161863883E+02 -0.53633887390E+02  0.23452851551E+03  0.24094284203E+03  0.00000000000E+00 0.  1.
<scales pt_clust_5="13000.00000" pt_clust_6="13000.00000" pt_clust_7="13000.00000" pt_clust_8="13000.00000" pt_clust_9="55.22525"></scales>
<clustering>
<clus scale="   55.225">  1  9  2 -1</clus>
<clus scale="   79.906">  5  6 -1 -1</clus>
<clus scale="   81.133">  7  8 -1 -1</clus>
<clus scale="   92.274">  1  5  2 -1</clus>
<clus scale="   55.225">  1  5  2 -1</clus>
</clustering>
</event>
<event>
 9    1  0.6270443E-005  0.3902568E+03  0.7546771E-02  0.1106684E+00
         -2   -1    0    0    0  501 -0.00000000000E+00  0.00000000000E+00  0.22725600281E+03  0.22725600281E+03  0.00000000000E+00 0.  1.
         21   -1    0    0  501  502  0.00000000000E+00 -0.00000000000E+00 -0.92597912471E+03  0.92597912471E+03  0.00000000000E+00 0.  1.
         23    2    1    2    0    0  0.13235572620E+02 -0.16778305471E+02  0.37260872019E+02  0.86257036895E+02  0.74801149144E+02 0.  0.
        -24    2    1    2    0    0 -0.38676122465E+03 -0.27855045526E+02 -0.37009432230E+03  0.54220309070E+03  0.81573498892E+02 0.  0.
         11    1    4    4    0    0 -0.30999337988E+03  0.10427512282E+02 -0.29841823181E+03  0.43041615869E+03  0.00000000000E+00 0. -1.
        -12    1    4    4    0    0 -0.76767844763E+02 -0.38282557808E+02 -0.71676090486E+02  0.11178693201E+03  0.00000000000E+00 0.  1.
        -13    1    3    3    0    0 -0.19788100914E+02 -0.25342755565E+02  0.40812429255E+02  0.51956506610E+02  0.00000000000E+00 0.  1.
         13    1    3    3    0    0  0.33023673534E+02  0.85644500938E+01 -0.35515572355E+01  0.34300530286E+02  0.00000000000E+00 0. -1.
         -1    1    1    2    0  502  0.37352565203E+03  0.44633350997E+02 -0.36588967162E+03  0.52477499992E+03  0.00000000000E+00 0.  1.
<scales pt_clust_5="13000.00000" pt_clust_6="13000.00000" pt_clust_7="13000.00000" pt_clust_8="13000.00000" pt_clust_9="381.63614"></scales>
<clustering>
<clus scale="   74.801">  7  8 -1 -1</clus>
<clus scale="   77.794">  1  7  2 -1</clus>
<clus scale="   81.573">  5  6 -1 -1</clus>
<clus scale="  381.636">  2  9  1 -1</clus>
<clus scale="  381.636">  2  5  1 -1</clus>
</clustering>
</event>
<event>
 9    1  0.6270443E-005  0.1038868E+03  0.7546771E-02  0.1279009E+00
          1   -1    0    0  502    0 -0.00000000000E+00  0.00000000000E+00  0.60455388117E+03  0.60455388117E+03  0.00000000000E+00 0. -1.
         21   -1    0    0  501  502  0.00000000000E+00 -0.00000000000E+00 -0.38006276228E+02  0.38006276228E+02  0.00000000000E+00 0. -1.
        -24    2    1    2    0    0 -0.62010330319E+02  0.34720122897E+02  0.25088520458E+03  0.27283847277E+03  0.80291209638E+02 0.  0.
         23    2    1    2    0    0  0.15970046218E+02  0.39787693862E+02  0.14904256121E+03  0.18148435221E+03  0.94259122026E+02 0.  0.
         13    1    3    3    0    0 -0.33801888798E+02  0.44385230911E+02  0.22939792844E+03  0.23608478558E+03  0.00000000000E+00 0. -1.
        -14    1    3    3    0    0 -0.28208441520E+02 -0.96651080133E+01  0.21487276134E+02  0.36753687183E+02  0.00000000000E+00 0.  1.
        -13    1    4    4    0    0 -0.55493614276E+01 -0.20751435199E+02  0.95389496059E+02  0.97778184855E+02  0.00000000000E+00 0.  1.
         13    1    4    4    0    0  0.21519407645E+02  0.60539129061E+02  0.53653065150E+02  0.83706167352E+02  0.00000000000E+00 0. -1.
          2    1    1    2  501    0  0.46040284101E+02 -0.74507816759E+02  0.16661983915E+03  0.18823733242E+03  0.00000000000E+00 0. -1.
<scales pt_clust_5="13000.00000" pt_clust_6="13000.00000" pt_clust_7="13000.00000" pt_clust_8="13000.00000" pt_clust_9="87.58499"></scales>
<clustering>
<clus scale="   80.291">  5  6 -1 -1</clus>
<clus scale="   87.585">  2  9  1 -1</clus>
<clus scale="   91.402">  1  5  2 -1</clus>
<clus scale="   94.259">  7  8 -1 -1</clus>
<clus scale="   87.585">  2  5  1 -1</clus>
</clustering>
</event>
<event>
 9    1  0.6270443E-005  0.1592459E+03  0.7546771E-02  0.1199541E+00
         21   -1    0    0  501  502  0.00000000000E+00  0.00000000000E+00  0.15883031573E+03  0.15883031573E+03  0.00000000000E+00 0. -1.
          1   -1    0    0  502    0 -0.00000000000E+00 -0.00000000000E+00 -0.32923099193E+03  0.32923099193E+03  0.00000000000E+00 0. -1.
         23    2    1    2    0    0  0.83164305894E+02 -0.19497068859E+02 -0.11744527120E+03  0.17366009336E+03  0.95226040721E+02 0.  0.
        -24    2    1    2    0    0  0.13755006967E+02  0.13581372812E+03 -0.39651957166E+02  0.16241470123E+03  0.78560094878E+02 0.  0.
         13    1    4    4    0    0  0.20390461958E+02  0.14464747759E+03 -0.33903271088E+02  0.14996031309E+03  0.00000000000E+00 0. -1.
        -14    1    4    4    0    0 -0.66354549903E+01 -0.88337494638E+01 -0.57486860776E+01  0.12454388148E+02  0.00000000000E+00 0.  1.
        -13    1    3    3    0    0  0.35547258089E+02 -0.25885731017E+02  0.29102179111E+01  0.44069808217E+02  0.00000000000E+00 0.  1.
         13    1    3    3    0    0  0.47617047805E+02  0.63886621589E+01 -0.12035548911E+03  0.12959028515E+03  0.00000000000E+00 0. -1.
          2    1    1    2  501    0 -0.96919312862E+02 -0.11631665926E+03 -0.13303447831E+02  0.15198651306E+03  0.00000000000E+00 0. -1.
<scales pt_clust_5="13000.00000" pt_clust_6="13000.00000" pt_clust_7="13000.00000" pt_clust_8="13000.00000" pt_clust_9="138.51922"></scales>
<clustering>
<clus scale="   78.560">  5  6 -1 -1</clus>
<clus scale="   95.226">  7  8 -1 -1</clus>
<clus scale="  127.924">  2  7  1 -1</clus>
<clus scale="  138.519">  1  9  2 -1</clus>
<clus scale="  138.519">  1  5  2 -1</clus>
</clustering>
</event>
<event>
 9    1  0.6270443E-005  0.1308926E+03  0.7546771E-02  0.1229413E+00
         21   -1    0    0  501  502  0.00000000000E+00  0.00000000000E+00  0.18442673728E+03  0.18442673728E+03  0.00000000000E+00 0.  1.
         -2   -1    0    0    0  501 -0.00000000000E+00 -0.00000000000E+00 -0.12699387800E+03  0.12699387800E+03  0.00000000000E+00 0.  1.
        -24    2    1    2    0    0 -0.89927557991E+02  0.46817335339E+02 -0.13590352617E+02  0.13021323258E+03  0.80572698099E+02 0.  0.
         23    2    1    2    0    0  0.79634705493E+02 -0.17412829544E+02  0.25982232117E+02  0.12644190423E+03  0.93099870078E+02 0.  0.
         13    1    3    3    0    0 -0.68129670094E+02  0.58040908460E+02  0.16905848499E+02  0.91083515059E+02  0.00000000000E+00 0. -1.
        -14    1    3    3    0    0 -0.21797887897E+02 -0.11223573121E+02 -0.30496201116E+02  0.39129717516E+02  0.00000000000E+00 0.  1.
        -11    1    4    4    0    0  0.39511050515E+02 -0.42757836091E+02 -0.18812341389E+02  0.61182185712E+02  0.00000000000E+00 0. -1.
         11    1    4    4    0    0  0.40123654978E+02  0.25345006547E+02  0.44794573507E+02  0.65259718520E+02  0.00000000000E+00 0.  1.
         -1    1    1    2    0  502  0.10292852498E+02 -0.29404505796E+02  0.45040979775E+02  0.54765478476E+02  0.00000000000E+00 0.  1.
<scales pt_clust_5="13000.00000" pt_clust_6="13000.00000" pt_clust_7="13000.00000" pt_clust_8="13000.00000" pt_clust_9="31.15394"></scales>
<clustering>
<clus scale="   31.154">  1  9  2 -1</clus>
<clus scale="   80.573">  5  6 -1 -1</clus>
<clus scale="   93.100">  7  8 -1 -1</clus>
<clus scale="  122.300">  2  5  1 -1</clus>
<clus scale="   31.154">  1  5  2 -1</clus>
</clustering>
</event>
<event>
 9    1  0.6270443E-005  0.1040063E+03  0.7546771E-02  0.1276156E+00
         21   -1    0    0  501  502  0.00000000000E+00  0.00000000000E+00  0.25758932685E+03  0.25758932685E+03  0.00000000000E+00 0. -1.
          3   -1    0    0  502    0 -0.00000000000E+00 -0.00000000000E+00 -0.62529082395E+02  0.62529082395E+02  0.00000000000E+00 0. -1.
         23    2    1    2    0    0 -0.57556058585E+02  0.15188339987E+02  0.35891562728E+02  0.11422924761E+03  0.90646186808E+02 0.  0.
        -24    2    1    2    0    0  0.25726232950E+02 -0.35530876783E+02  0.10759664233E+03  0.14196239220E+03  0.81559800706E+02 0.  0.
         13    1    4    4    0    0  0.60610487519E+01 -0.60511937290E+02  0.70369782282E+02  0.93007188566E+02  0.00000000000E+00 0. -1.
        -14    1    4    4    0    0  0.19665184198E+02  0.24981060508E+02  0.37226860050E+02  0.48955203634E+02  0.00000000000E+00 0.  1.
        -13    1    3    3    0    0 -0.15709282414E+02 -0.33517080562E+02  0.33574112229E+02  0.49973965776E+02  0.00000000000E+00 0.  1.
         13    1    3    3    0    0 -0.41846776170E+02  0.48705420548E+02  0.23174504992E+01  0.64255281833E+02  0.00000000000E+00 0. -1.
          4    1    1    2  501    0  0.31829825635E+02  0.20342536796E+02  0.51572039396E+02  0.63926769438E+02  0.00000000000E+00 0. -1.
<scales pt_clust_5="13000.00000" pt_clust_6="13000.00000" pt_clust_7="13000.00000" pt_clust_8="13000.00000" pt_clust_9="37.77508"></scales>
<clustering>
<clus scale="   37.775">  1  9  2 -1</clus>
<clus scale="   81.560">  5  6 -1 -1</clus>
<clus scale="   90.646">  7  8 -1 -1</clus>
<clus scale="   96.190">  1  5  2 -1</clus>
<clus scale="   37.775">  1  5  2 -1</clus>
</clustering>
</event>
<event>
 9    1  0.6270443E-005  0.1115699E+03  0.7546771E-02  0.1261928E+00
          1   -1    0    0  502    0 -0.00000000000E+00  0.00000000000E+00  0.30106394713E+03  0.30106394713E+03  0.00000000000E+00 0. -1.
         21   -1    0    0  501  502  0.00000000000E+00 -0.00000000000E+00 -0.11129701525E+03  0.11129701525E+03  0.00000000000E+00 0.  1.
        -24    2    1    2    0    0 -0.46951695442E+02 -0.49735510980E+02  0.24453765411E+03  0.26629175502E+03  0.80215657808E+02 0.  0.
         23    2    1    2    0    0  0.13794516496E+02  0.33403416179E+02 -0.43368222537E+02  0.10738907247E+03  0.91353890238E+02 0.  0.
         11    1    3    3    0    0 -0.56166130072E+02 -0.59392832948E+02  0.23755835793E+03  0.25122921047E+03  0.00000000000E+00 0. -1.
        -12    1    3    3    0    0  0.92144346302E+01  0.96573219688E+01  0.69792961857E+01  0.15062544553E+02  0.00000000000E+00 0.  1.
        -13    1    4    4    0    0 -0.17782537904E+02  0.35785823070E+02  0.13599756760E+02  0.42211339365E+02  0.00000000000E+00 0. -1.
         13    1    4    4    0    0  0.31577054400E+02 -0.23824068911E+01 -0.56967979297E+02  0.65177733102E+02  0.00000000000E+00 0.  1.
          2    1    1    2  501    0  0.33157178946E+02  0.16332094801E+02 -0.11402499696E+02  0.38680134896E+02  0.00000000000E+00 0. -1.
<scales pt_clust_5="13000.00000" pt_clust_6="13000.00000" pt_clust_7="13000.00000" pt_clust_8="13000.00000" pt_clust_9="36.96127"></scales>
<clustering>
<clus scale="   36.961">  2  9  1 -1</clus>
<clus scale="   80.216">  5  6 -1 -1</clus>
<clus scale="   91.354">  7  8 -1 -1</clus>
<clus scale="  102.649">  1  5  2 -1</clus>
<clus scale="   36.961">  2  5  1 -1</clus>
</clustering>
</event>
<event>
 9    1  0.6270443E-005  0.1132651E+03  0.7546771E-02  0.1258097E+00
         21   -1    0    0  501  502  0.00000000000E+00  0.00000000000E+00  0.75100192812E+02  0.75100192812E+02  0.00000000000E+00 0.  1.
         -2   -1    0    0    0  501 -0.00000000000E+00 -0.00000000000E+00 -0.61945461800E+03  0.61945461800E+03  0.00000000000E+00 0.  1.
         23    2    1    2    0    0  0.19553702973E+02  0.79615887799E+02 -0.48073011163E+03  0.49598371803E+03  0.90428819738E+02 0.  0.
        -24    2    1    2    0    0 -0.47433757128E+02 -0.14663441029E+02 -0.82142564777E+02  0.12550233482E+03  0.80860727676E+02 0.  0.
         13    1    4    4    0    0  0.11919823734E+02 -0.31036179554E+02 -0.31113487546E+02  0.45534335907E+02  0.00000000000E+00 0. -1.
        -14    1    4    4    0    0 -0.59353580862E+02  0.16372738525E+02 -0.51029077231E+02  0.79967998918E+02  0.00000000000E+00 0.  1.
        -11    1    3    3    0    0 -0.77600211984E+01  0.82046676915E+02 -0.43438556817E+03  0.44213425218E+03  0.00000000000E+00 0.  1.
         11    1    3    3    0    0  0.27313724171E+02 -0.24307891161E+01 -0.46344543461E+02  0.53849465851E+02  0.00000000000E+00 0. -1.
         -1    1    1    2    0  502  0.27880054155E+02 -0.64952446770E+02  0.18518251214E+02  0.73068757955E+02  0.00000000000E+00 0.  1.
<scales pt_clust_5="13000.00000" pt_clust_6="13000.00000" pt_clust_7="13000.00000" pt_clust_8="13000.00000" pt_clust_9="70.68322"></scales>
<clustering>
<clus scale="   70.683">  1  9  2 -1</clus>
<clus scale="   80.861">  5  6 -1 -1</clus>
<clus scale="   90.429">  7  8 -1 -1</clus>
<clus scale="  105.783">  1  5  2 -1</clus>
<clus scale="   70.683">  1  5  2 -1</clus>
</clustering>
</event>
<event>
 9    1  0.6270443E-005  0.9577002E+02  0.7546771E-02  0.1293244E+00
          3   -1    0    0  502    0 -0.00000000000E+00  0.00000000000E+00  0.47347927390E+03  0.47347927390E+03  0.00000000000E+00 0. -1.
         21   -1    0    0  501  502  0.00000000000E+00 -0.00000000000E+00 -0.54202701314E+02  0.54202701314E+02  0.00000000000E+00 0. -1.
         23    2    1    2    0    0 -0.34471907262E+02 -0.35407019264E+02  0.36656365820E+03  0.38005179174E+03  0.87341167198E+02 0.  0.
        -24    2    1    2    0    0  0.14494912596E+02 -0.71255682113E+00  0.65429432583E+02  0.10443974555E+03  0.80100184609E+02 0.  0.
         13    1    4    4    0    0 -0.18607848857E+02  0.29142546809E+02  0.40908469648E+02  0.53563448008E+02  0.00000000000E+00 0. -1.
        -14    1    4    4    0    0  0.33102761453E+02 -0.29855103630E+02  0.24520962935E+02  0.50876297544E+02  0.00000000000E+00 0.  1.
        -13    1    3    3    0    0  0.25953812263E+02  0.11226215586E+01  0.58647510537E+02  0.64143519878E+02  0.00000000000E+00 0.  1.
         13    1    3    3    0    0 -0.60425719525E+02 -0.36529640822E+02  0.30791614766E+03  0.31590827186E+03  0.00000000000E+00 0. -1.
          4    1    1    2  501    0  0.19976994666E+02  0.36119576085E+02 -0.12716518201E+02  0.43190437918E+02  0.00000000000E+00 0. -1.
<scales pt_clust_5="13000.00000" pt_clust_6="13000.00000" pt_clust_7="13000.00000" pt_clust_8="13000.00000" pt_clust_9="41.27595"></scales>
<clustering>
<clus scale="   41.276">  2  9  1 -1</clus>
<clus scale="   80.100">  5  6 -1 -1</clus>
<clus scale="   87.341">  7  8 -1 -1</clus>
<clus scale="   89.216">  2  5  1 -1</clus>
<clus scale="   41.276">  2  5  1 -1</clus>
</clustering>
</event>
<event>
 9    1  0.6270443E-005  0.2165274E+03  0.7546771E-02  0.1162587E+00
          1   -1    0    0  502    0 -0.00000000000E+00  0.00000000000E+00  0.92400670458E+03  0.92400670458E+03  0.00000000000E+00 0. -1.
         21   -1    0    0  501  502  0.00000000000E+00 -0.00000000000E+00 -0.17708545555E+03  0.17708545555E+03  0.00000000000E+00 0. -1.
        -24    2    1    2    0    0 -0.44509364056E+02 -0.74870052535E+02  0.14153236486E+03  0.18339498402E+03  0.77560954138E+02 0.  0.
         23    2    1    2    0    0 -0.15551931881E+03  0.43673209677E+02  0.67798098082E+03  0.70262897885E+03  0.89082342852E+02 0.  0.
         13    1    3    3    0    0 -0.36553704381E+02 -0.91241172964E+02  0.11608527525E+03  0.15210823803E+03  0.00000000000E+00 0. -1.
        -14    1    3    3    0    0 -0.79556596751E+01  0.16371120430E+02  0.25447089610E+02  0.31286745989E+02  0.00000000000E+00 0.  1.
        -13    1    4    4    0    0 -0.71580019915E+02 -0.23089300031E+02  0.33163840852E+03  0.34006006680E+03  0.00000000000E+00 0.  1.
         13    1    4    4    0    0 -0.83939298898E+02  0.66762509708E+02  0.34634257230E+03  0.36256891205E+03  0.00000000000E+00 0. -1.
          2    1    1    2  501    0  0.20002868287E+03  0.31196842858E+02 -0.72592096647E+02  0.21506819725E+03  0.00000000000E+00 0. -1.
<scales pt_clust_5="13000.00000" pt_clust_6="13000.00000" pt_clust_7="13000.00000" pt_clust_8="13000.00000" pt_clust_9="197.35359"></scales>
<clustering>
<clus scale="   77.561">  5  6 -1 -1</clus>
<clus scale="   89.082">  7  8 -1 -1</clus>
<clus scale="  116.629">  1  5  2 -1</clus>
<clus scale="  197.354">  2  9  1 -1</clus>
<clus scale="  197.354">  2  5  1 -1</clus>
</clustering>
</event>
<event>
 9    1  0.6270443E-005  0.9351555E+02  0.7546771E-02  0.1299584E+00
         21   -1    0    0  501  502  0.00000000000E+00  0.00000000000E+00  0.69705454388E+02  0.69705454388E+02  0.00000000000E+00 0.  1.
          1   -1    0    0  502    0 -0.00000000000E+00 -0.00000000000E+00 -0.26361086787E+03  0.26361086787E+03  0.00000000000E+00 0. -1.
         23    2    1    2    0    0  0.92488171183E+01  0.23605202045E+02 -0.17573611458E+03  0.19946556261E+03  0.90887746808E+02 0.  0.
        -24    2    1    2    0    0  0.31119665176E+02 -0.16048326578E+02 -0.13061812133E+01  0.89453851330E+02  0.82306154459E+02 0.  0.
         13    1    4    4    0    0 -0.18573466257E+02 -0.32206550975E+02  0.17131593799E+00  0.37178823591E+02  0.00000000000E+00 0. -1.
        -14    1    4    4    0    0  0.49693131433E+02  0.16158224396E+02 -0.14774971513E+01  0.52275027739E+02  0.00000000000E+00 0.  1.
        -11    1    3    3    0    0  0.22147284294E+02  0.55441795537E+02 -0.11912359932E+03  0.13324686416E+03  0.00000000000E+00 0.  1.
         11    1    3    3    0    0 -0.12898467176E+02 -0.31836593492E+02 -0.56612515263E+02  0.66218698455E+02  0.00000000000E+00 0. -1.
          2    1    1    2  501    0 -0.40368482294E+02 -0.75568754664E+01 -0.16863117686E+02  0.44396908312E+02  0.00000000000E+00 0. -1.
<scales pt_clust_5="13000.00000" pt_clust_6="13000.00000" pt_clust_7="13000.00000" pt_clust_8="13000.00000" pt_clust_9="41.06971"></scales>
<clustering>
<clus scale="   41.070">  1  9  2 -1</clus>
<clus scale="   82.306">  5  6 -1 -1</clus>
<clus scale="   85.199">  1  5  2 -1</clus>
<clus scale="   90.888">  7  8 -1 -1</clus>
<clus scale="   41.070">  1  5  2 -1</clus>
</clustering>
</event>
<event>
 9    1  0.6270443E-005  0.1168862E+03  0.7546771E-02  0.1254178E+00
         -4   -1    0    0    0  501 -0.00000000000E+00  0.00000000000E+00  0.35742429098E+02  0.35742429098E+02  0.00000000000E+00 0.  1.
         21   -1    0    0  501  502  0.00000000000E+00 -0.00000000000E+00 -0.51919886938E+03  0.51919886938E+03  0.00000000000E+00 0. -1.
         23    2    1    2    0    0  0.75125966861E+02 -0.38048952329E+02 -0.16826595495E+03  0.21142081747E+03  0.96403821463E+02 0.  0.
        -24    2    1    2    0    0 -0.43830422815E+02  0.74911100966E+01 -0.23267359232E+03  0.25012759889E+03  0.80309354793E+02 0.  0.
         11    1    4    4    0    0  0.14693905304E+02 -0.16541177606E+02 -0.10886847293E+03  0.11109395037E+03  0.00000000000E+00 0. -1.
        -12    1    4    4    0    0 -0.58524328119E+02  0.24032287702E+02 -0.12380511939E+03  0.13903364852E+03  0.00000000000E+00 0.  1.
        -11    1    3    3    0    0  0.93418349531E+02 -0.93502066888E+01 -0.12689564806E+03  0.15785094200E+03  0.00000000000E+00 0.  1.
         11    1    3    3    0    0 -0.18292382671E+02 -0.28698745641E+02 -0.41370306890E+02  0.53569875465E+02  0.00000000000E+00 0. -1.
         -3    1    1    2    0  502 -0.31295544046E+02  0.30557842233E+02 -0.82516893008E+02  0.93392882121E+02  0.00000000000E+00 0.  1.
<scales pt_clust_5="13000.00000" pt_clust_6="13000.00000" pt_clust_7="13000.00000" pt_clust_8="13000.00000" pt_clust_9="43.74006"></scales>
<clustering>
<clus scale="   43.740">  2  9  1 -1</clus>
<clus scale="   80.309">  5  6 -1 -1</clus>
<clus scale="   96.404">  7  8 -1 -1</clus>
<clus scale="  104.011">  2  5  1 -1</clus>
<clus scale="   43.740">  2  5  1 -1</clus>
</clustering>
</event>
<event>
 9    1  0.6270443E-005  0.1374022E+03  0.7546771E-02  0.1222531E+00
         21   -1    0    0  501  502  0.00000000000E+00  0.00000000000E+00  0.60308414725E+03  0.60308414725E+03  0.00000000000E+00 0.  1.
          1   -1    0    0  502    0 -0.00000000000E+00 -0.00000000000E+00 -0.51222338166E+02  0.51222338166E+02  0.00000000000E+00 0. -1.
         23    2    1    2    0    0  0.74633847267E+02  0.43236044678E+02  0.79539372091E+02  0.15618013037E+03  0.10308324157E+03 0.  0.
        -24    2    1    2    0    0 -0.92726568787E+02 -0.55182810063E+02  0.42699872985E+03  0.44788384113E+03  0.81416587821E+02 0.  0.
         13    1    4    4    0    0 -0.75986726677E+01 -0.35878001801E+02  0.57387047306E+02  0.68104655040E+02  0.00000000000E+00 0. -1.
        -14    1    4    4    0    0 -0.85127896119E+02 -0.19304808262E+02  0.36961168254E+03  0.37977918609E+03  0.00000000000E+00 0.  1.
        -13    1    3    3    0    0 -0.15264002905E+02  0.38736680993E+02  0.40446766064E+02  0.58047059565E+02  0.00000000000E+00 0.  1.
         13    1    3    3    0    0  0.89897850172E+02  0.44993636850E+01  0.39092606027E+02  0.98133070802E+02  0.00000000000E+00 0. -1.
          2    1    1    2  501    0  0.18092721520E+02  0.11946765385E+02  0.45323707144E+02  0.50242513915E+02  0.00000000000E+00 0. -1.
<scales pt_clust_5="13000.00000" pt_clust_6="13000.00000" pt_clust_7="13000.00000" pt_clust_8="13000.00000" pt_clust_9="21.68114"></scales>
<clustering>
<clus scale="   21.681">  1  9  2 -1</clus>
<clus scale="   81.417">  5  6 -1 -1</clus>
<clus scale="  103.083">  7  8 -1 -1</clus>
<clus scale="  121.991">  1  5  2 -1</clus>
<clus scale="   21.681">  1  5  2 -1</clus>
</clustering>
</event>
<event>
 9    1  0.6270443E-005  0.9832590E+02  0.7546771E-02  0.1290659E+00
         -2   -1    0    0    0  501 -0.00000000000E+00  0.00000000000E+00  0.47697917474E+03  0.47697917474E+03  0.00000000000E+00 0.  1.
         21   -1    0    0  501  502  0.00000000000E+00 -0.00000000000E+00 -0.51606786433E+02  0.51606786433E+02  0.00000000000E+00 0.  1.
        -24    2    1    2    0    0  0.33582384452E+02 -0.19232658834E+02  0.38342782196E+03  0.39340030960E+03  0.79052117139E+02 0.  0.
         23    2    1    2    0    0 -0.35302795685E+01  0.21140844357E+02  0.45793632365E+02  0.10482802504E+03  0.91828426392E+02 0.  0.
         13    1    3    3    0    0  0.23034371788E+02  0.28678262396E+02  0.12260751928E+03  0.12800636235E+03  0.00000000000E+00 0. -1.
        -14    1    3    3    0    0  0.10548012663E+02 -0.47910921230E+02  0.26082030268E+03  0.26539394725E+03  0.00000000000E+00 0.  1.
        -11    1    4    4    0    0 -0.45053878716E+02 -0.45201365137E+01  0.18599687648E+02  0.48951322782E+02  0.00000000000E+00 0. -1.
         11    1    4    4    0    0  0.41523599148E+02  0.25660980871E+02  0.27193944717E+02  0.55876702254E+02  0.00000000000E+00 0.  1.
         -1    1    1    2    0  502 -0.30052104883E+02 -0.19081855231E+01 -0.38490660226E+01  0.30357626540E+02  0.00000000000E+00 0.  1.
<scales pt_clust_5="13000.00000" pt_clust_6="13000.00000" pt_clust_7="13000.00000" pt_clust_8="13000.00000" pt_clust_9="30.11262"></scales>
<clustering>
<clus scale="   30.113">  2  9  1 -1</clus>
<clus scale="   79.052">  5  6 -1 -1</clus>
<clus scale="   86.515">  1  5  2 -1</clus>
<clus scale="   91.828">  7  8 -1 -1</clus>
<clus scale="   30.113">  2  5  1 -1</clus>
</clustering>
</event>
<event>
 9    1  0.6270443E-005  0.1199419E+03  0.7546771E-02  0.1246902E+00
          1   -1    0    0  502    0 -0.00000000000E+00  0.00000000000E+00  0.34447370471E+03  0.34447370471E+03  0.00000000000E+00 0. -1.
         21   -1    0    0  501  502  0.00000000000E+00 -0.00000000000E+00 -0.59903225609E+02  0.59903225609E+02  0.00000000000E+00 0.  1.
        -24    2    1    2    0    0  0.57782874136E+02  0.51372503353E+02  0.21338491273E+03  0.24041658550E+03  0.79303335105E+02 0.  0.
         23    2    1    2    0    0 -0.73947388991E+02 -0.36188972133E+02  0.70985347790E+02  0.14178217429E+03  0.91024212727E+02 0.  0.
         11    1    3    3    0    0  0.60012011469E+02  0.12760645769E+01  0.12844836047E+03  0.14178170252E+03  0.00000000000E+00 0. -1.
        -12    1    3    3    0    0 -0.22291373326E+01  0.50096438776E+02  0.84936552259E+02  0.98634882982E+02  0.00000000000E+00 0.  1.
        -11    1    4    4    0    0  0.38152822561E+01  0.22537330473E+02  0.25492192691E+02  0.34239444092E+02  0.00000000000E+00 0. -1.
         11    1    4    4    0    0 -0.77762671247E+02 -0.58726302607E+02  0.45493155100E+02  0.10754273020E+03  0.00000000000E+00 0.  1.
          2    1    1    2  501    0  0.16164514855E+02 -0.15183531219E+02  0.20021858546E+00  0.22178170534E+02  0.00000000000E+00 0. -1.
<scales pt_clust_5="13000.00000" pt_clust_6="13000.00000" pt_clust_7="13000.00000" pt_clust_8="13000.00000" pt_clust_9="22.17727"></scales>
<clustering>
<clus scale="   22.177">  2  9  1 -1</clus>
<clus scale="   79.303">  5  6 -1 -1</clus>
<clus scale="   91.024">  7  8 -1 -1</clus>
<clus scale="  111.309">  1  5  2 -1</clus>
<clus scale="   22.177">  2  5  1 -1</clus>
</clustering>
</event>
<event>
 9    1  0.6270443E-005  0.1680715E+03  0.7546771E-02  0.1181722E+00
         21   -1    0    0  501  502  0.00000000000E+00  0.00000000000E+00  0.20132912397E+03  0.20132912397E+03  0.00000000000E+00 0. -1.
          1   -1    0    0  502    0 -0.00000000000E+00 -0.00000000000E+00 -0.28509364047E+03  0.28509364047E+03  0.00000000000E+00 0. -1.
         23    2    1    2    0    0  0.58541199892E+02  0.13625647891E+03 -0.20410375690E+03  0.26833207243E+03  0.91383025687E+02 0.  0.
        -24    2    1    2    0    0 -0.26405402336E+02 -0.10744379252E+03  0.10792450319E+03  0.17317960115E+03  0.78115696516E+02 0.  0.
         13    1    4    4    0    0 -0.27821140889E+02 -0.33614427323E+02  0.85527019417E+02  0.96014668958E+02  0.00000000000E+00 0. -1.
        -14    1    4    4    0    0  0.14157385526E+01 -0.73829365194E+02  0.22397483772E+02  0.77164932191E+02  0.00000000000E+00 0.  1.
        -13    1    3    3    0    0  0.43674043250E+02  0.16962257820E+02 -0.26382228845E+02  0.53769528946E+02  0.00000000000E+00 0.  1.
         13    1    3    3    0    0  0.14867156642E+02  0.11929422109E+03 -0.17772152806E+03  0.21456254348E+03  0.00000000000E+00 0. -1.
          2    1    1    2  501    0 -0.32135797556E+02 -0.28812686394E+02  0.12414737214E+02  0.44911090856E+02  0.00000000000E+00 0. -1.
<scales pt_clust_5="13000.00000" pt_clust_6="13000.00000" pt_clust_7="13000.00000" pt_clust_8="13000.00000" pt_clust_9="43.16110"></scales>
<clustering>
<clus scale="   43.161">  1  9  2 -1</clus>
<clus scale="   78.116">  5  6 -1 -1</clus>
<clus scale="   91.383">  7  8 -1 -1</clus>
<clus scale="  161.243">  1  5  2 -1</clus>
<clus scale="   43.161">  1  5  2 -1</clus>
</clustering>
</event>
<event>
 9    1  0.6270443E-005  0.1873028E+03  0.7546771E-02  0.1188470E+00
         21   -1    0    0  501  502  0.00000000000E+00  0.00000000000E+00  0.24709797746E+03  0.24709797746E+03  0.00000000000E+00 0. -1.
          1   -1    0    0  502    0 -0.00000000000E+00 -0.00000000000E+00 -0.53735466692E+03  0.53735466692E+03  0.00000000000E+00 0. -1.
         23    2    1    2    0    0 -0.26665552972E+01  0.33016909524E+02 -0.25809539636E+03  0.27687703452E+03  0.94606721703E+02 0.  0.
        -24    2    1    2    0    0  0.52465028983E+02  0.13310390940E+03 -0.20515235912E+03  0.26262270951E+03  0.80087246996E+02 0.  0.
         11    1    4    4    0    0  0.65707863767E+01  0.10116755940E+03 -0.94252736770E+02  0.13842553485E+03  0.00000000000E+00 0. -1.
        -12    1    4    4    0    0  0.45894242607E+02  0.31936349997E+02 -0.11089962235E+03  0.12419717466E+03  0.00000000000E+00 0.  1.
        -11    1    3    3    0    0  0.40106110547E+02  0.38172050489E+02 -0.17041652726E+03  0.17918537414E+03  0.00000000000E+00 0.  1.
         11    1    3    3    0    0 -0.42772665844E+02 -0.51551409652E+01 -0.87678869101E+02  0.97691660384E+02  0.00000000000E+00 0. -1.
          2    1    1    2  501    0 -0.49798473686E+02 -0.16612081892E+03  0.17299106603E+03  0.24495290035E+03  0.00000000000E+00 0. -1.
<scales pt_clust_5="13000.00000" pt_clust_6="13000.00000" pt_clust_7="13000.00000" pt_clust_8="13000.00000" pt_clust_9="169.31739"></scales>
<clustering>
<clus scale="   80.087">  5  6 -1 -1</clus>
<clus scale="   94.607">  7  8 -1 -1</clus>
<clus scale="  100.238">  2  7  1 -1</clus>
<clus scale="  169.317">  1  9  2 -1</clus>
<clus scale="  169.317">  1  5  2 -1</clus>
</clustering>
</event>
<event>
 9    1  0.6270443E-005  0.9647844E+02  0.7546771E-02  0.1293553E+00
         21   -1    0    0  501  502  0.00000000000E+00  0.00000000000E+00  0.17417816159E+03  0.17417816159E+03  0.00000000000E+00 0.  1.
         -2   -1    0    0    0  501 -0.00000000000E+00 -0.00000000000E+00 -0.46688594706E+03  0.46688594706E+03  0.00000000000E+00 0.  1.
         23    2    1    2    0    0  0.26229498441E+02 -0.13602738478E+02 -0.39944836344E+03  0.41105608586E+03  0.92385548580E+02 0.  0.
        -24    2    1    2    0    0 -0.24086584385E+02 -0.79929437252E+01 -0.30346218212E+02  0.91214091881E+02  0.82189214020E+02 0.  0.
         13    1    4    4    0    0 -0.54444246856E+02 -0.46583539025E+00 -0.22880299640E+02  0.59058455195E+02  0.00000000000E+00 0. -1.
        -14    1    4    4    0    0  0.30357662471E+02 -0.75271083350E+01 -0.74659185714E+01  0.32155636687E+02  0.00000000000E+00 0.  1.
        -11    1    3    3    0    0 -0.13709991319E+02 -0.44455934503E+02 -0.18955216142E+03  0.19517765208E+03  0.00000000000E+00 0. -1.
         11    1    3    3    0    0  0.39939489760E+02  0.30853196025E+02 -0.20989620202E+03  0.21587843378E+03  0.00000000000E+00 0.  1.
         -1    1    1    2    0  502 -0.21429140563E+01  0.21595682203E+02  0.13708679618E+03  0.13879393091E+03  0.00000000000E+00 0.  1.
<scales pt_clust_5="13000.00000" pt_clust_6="13000.00000" pt_clust_7="13000.00000" pt_clust_8="13000.00000" pt_clust_9="21.70174"></scales>
<clustering>
<clus scale="   21.702">  1  9  2 -1</clus>
<clus scale="   82.189">  5  6 -1 -1</clus>
<clus scale="   86.764">  1  5  2 -1</clus>
<clus scale="   92.386">  7  8 -1 -1</clus>
<clus scale="   21.702">  1  5  2 -1</clus>
</clustering>
</event>
<event>
 9    1  0.6270443E-005  0.9264482E+02  0.7546771E-02  0.1304503E+00
         21   -1    0    0  501  502  0.00000000000E+00  0.00000000000E+00  0.52785898947E+03  0.52785898947E+03  0.00000000000E+00 0. -1.
         -2   -1    0    0    0  501 -0.00000000000E+00 -0.00000000000E+00 -0.39808263095E+02  0.39808263095E+02  0.00000000000E+00 0.  1.
        -24    2    1    2    0    0  0.39069230369E+01 -0.36807005511E+01  0.20388594494E+02  0.82385495338E+02  0.79642095983E+02 0.  0.
         23    2    1    2    0    0 -0.12112503955E+02  0.29376602837E+02  0.41231723235E+03  0.42371334928E+03  0.92291953723E+02 0.  0.
         13    1    3    3    0    0  0.45320313206E+01  0.27891845728E+02  0.37117142562E+02  0.46649508443E+02  0.00000000000E+00 0. -1.
        -14    1    3    3    0    0 -0.62510828364E+00 -0.31572546279E+02 -0.16728548068E+02  0.35735986895E+02  0.00000000000E+00 0.  1.
        -11    1    4    4    0    0 -0.30135498735E+02  0.55739211222E+02  0.31434957570E+03  0.32067220599E+03  0.00000000000E+00 0. -1.
         11    1    4    4    0    0  0.18022994780E+02 -0.26362608385E+02  0.97967656646E+02  0.10304114329E+03  0.00000000000E+00 0.  1.
         -1    1    1    2    0  502  0.82055809179E+01 -0.25695902286E+02  0.55344899528E+02  0.61568407940E+02  0.00000000000E+00 0.  1.
<scales pt_clust_5="13000.00000" pt_clust_6="13000.00000" pt_clust_7="13000.00000" pt_clust_8="13000.00000" pt_clust_9="26.97426"></scales>
<clustering>
<clus scale="   26.974">  1  9  2 -1</clus>
<clus scale="   79.642">  5  6 -1 -1</clus>
<clus scale="   80.051">  2  5  1 -1</clus>
<clus scale="   92.292">  7  8 -1 -1</clus>
<clus scale="   26.974">  1  5  2 -1</clus>
</clustering>
</event>
<event>
 9    1  0.6270443E-005  0.1010968E+03  0.7546771E-02  0.1285461E+00
          3   -1    0    0  502    0 -0.00000000000E+00  0.00000000000E+00  0.20592147037E+03  0.20592147037E+03  0.00000000000E+00 0. -1.
         21   -1    0    0  501  502  0.00000000000E+00 -0.00000000000E+00 -0.73805460696E+02  0.73805460696E+02  0.00000000000E+00 0. -1.
        -24    2    1    2    0    0 -0.47437830014E+01 -0.33492910238E+02  0.36903783516E+02  0.92574821030E+02  0.77871238192E+02 0.  0.
         23    2    1    2    0    0  0.54382610049E+02  0.25348720757E+02  0.58855552241E+02  0.12508642941E+03  0.92642392420E+02 0.  0.
         13    1    3    3    0    0 -0.38469977443E+02 -0.33365692474E+02  0.25662462760E+02  0.57024298274E+02  0.00000000000E+00 0. -1.
        -14    1    3    3    0    0  0.33726194442E+02 -0.12721776377E+00  0.11241320756E+02  0.35550522756E+02  0.00000000000E+00 0.  1.
        -11    1    4    4    0    0 -0.83692293107E+01  0.23990835520E+02  0.56870514257E+02  0.62288518847E+02  0.00000000000E+00 0.  1.
         11    1    4    4    0    0  0.62751839360E+02  0.13578852364E+01  0.19850379833E+01  0.62797910564E+02  0.00000000000E+00 0. -1.
          4    1    1    2  501    0 -0.49638827048E+02  0.81441894815E+01  0.36356673916E+02  0.62065680623E+02  0.00000000000E+00 0. -1.
<scales pt_clust_5="13000.00000" pt_clust_6="13000.00000" pt_clust_7="13000.00000" pt_clust_8="13000.00000" pt_clust_9="50.30252"></scales>
<clustering>
<clus scale="   50.303">  2  9  1 -1</clus>
<clus scale="   77.871">  5  6 -1 -1</clus>
<clus scale="   87.760">  1  5  2 -1</clus>
<clus scale="   92.642">  7  8 -1 -1</clus>
<clus scale="   50.303">  2  5  1 -1</clus>
</clustering>
</event>
<event>
 9    1  0.6270443E-005  0.9519840E+02  0.7546771E-02  0.1292270E+00
          3   -1    0    0  502    0 -0.00000000000E+00  0.00000000000E+00  0.16445194269E+03  0.16445194269E+03  0.00000000000E+00 0. -1.
         21   -1    0    0  501  502  0.00000000000E+00 -0.00000000000E+00 -0.21872317963E+03  0.21872317963E+03  0.00000000000E+00 0. -1.
         23    2    1    2    0    0 -0.39895013888E+02  0.29602949584E+02  0.12444771630E+03  0.15618182098E+03  0.80234533441E+02 0.  0.
        -24    2    1    2    0    0 -0.37399517488E+01 -0.37124452158E+02 -0.91962324066E+02  0.12959055017E+03  0.83333243421E+02 0.  0.
         13    1    4    4    0    0 -0.32485806461E+02 -0.23059577424E+02 -0.92426477502E+01  0.40896188941E+02  0.00000000000E+00 0. -1.
        -14    1    4    4    0    0  0.28745854713E+02 -0.14064874733E+02 -0.82719676316E+02  0.88694361231E+02  0.00000000000E+00 0.  1.
        -13    1    3    3    0    0 -0.57954862824E+02  0.17529023713E+02  0.11940664914E+03  0.13388047153E+03  0.00000000000E+00 0. -1.
         13    1    3    3    0    0  0.18059848936E+02  0.12073925872E+02  0.50410671595E+01  0.22301349458E+02  0.00000000000E+00 0.  1.
          4    1    1    2  501    0  0.43634965637E+02  0.75215025733E+01 -0.86756629177E+02  0.97402751159E+02  0.00000000000E+00 0. -1.
<scales pt_clust_5="13000.00000" pt_clust_6="13000.00000" pt_clust_7="13000.00000" pt_clust_8="13000.00000" pt_clust_9="44.27847"></scales>
<clustering>
<clus scale="   44.278">  2  9  1 -1</clus>
<clus scale="   80.235">  7  8 -1 -1</clus>
<clus scale="   83.333">  5  6 -1 -1</clus>
<clus scale="   92.498">  1  7  2 -1</clus>
<clus scale="   44.278">  2  5  1 -1</clus>
</clustering>
</event>
<event>
 9    1  0.6270443E-005  0.9670510E+02  0.7546771E-02  0.1289987E+00
         21   -1    0    0  501  502  0.00000000000E+00  0.00000000000E+00  0.63897420802E+02  0.63897420802E+02  0.00000000000E+00 0. -1.
         -4   -1    0    0    0  501 -0.00000000000E+00 -0.00000000000E+00 -0.35730783265E+03  0.35730783265E+03  0.00000000000E+00 0.  1.
         23    2    1    2    0    0 -0.42677829990E+02 -0.28690569497E+02 -0.16717320704E+03  0.19753573511E+03  0.91809256317E+02 0.  0.
        -24    2    1    2    0    0 -0.16182640670E+02 -0.15107116937E+02 -0.15810064367E+02  0.91091444396E+02  0.86934402084E+02 0.  0.
         11    1    4    4    0    0 -0.34876596067E+02  0.25755452812E+02  0.29545232084E+00  0.43356747973E+02  0.00000000000E+00 0. -1.
        -12    1    4    4    0    0  0.18693955397E+02 -0.40862569749E+02 -0.16105516687E+02  0.47734696423E+02  0.00000000000E+00 0.  1.
        -13    1    3    3    0    0 -0.67859512770E+02 -0.33921279726E+02 -0.14469739863E+03  0.16337963111E+03  0.00000000000E+00 0.  1.
         13    1    3    3    0    0  0.25181682780E+02  0.52307102284E+01 -0.22475808403E+02  0.34156104000E+02  0.00000000000E+00 0. -1.
         -3    1    1    2    0  502  0.58860470660E+02  0.43797686435E+02 -0.11042714045E+03  0.13257807394E+03  0.00000000000E+00 0.  1.
<scales pt_clust_5="13000.00000" pt_clust_6="13000.00000" pt_clust_7="13000.00000" pt_clust_8="13000.00000" pt_clust_9="73.36755"></scales>
<clustering>
<clus scale="   73.368">  1  9  2 -1</clus>
<clus scale="   86.934">  5  6 -1 -1</clus>
<clus scale="   91.809">  7  8 -1 -1</clus>
<clus scale="   92.090">  1  5  2 -1</clus>
<clus scale="   73.368">  1  5  2 -1</clus>
</clustering>
</event>
<event>
 9    1  0.6270443E-005  0.3977324E+03  0.7546771E-02  0.1072661E+00
          1   -1    0    0  502    0 -0.00000000000E+00  0.00000000000E+00  0.60275387998E+03  0.60275387998E+03  0.00000000000E+00 0. -1.
         21   -1    0    0  501  502  0.00000000000E+00 -0.00000000000E+00 -0.47768575521E+03  0.47768575521E+03  0.00000000000E+00 0.  1.
         23    2    1    2    0    0 -0.92607351549E+02 -0.13067549844E+03  0.38109039009E+02  0.18476528608E+03  0.83867184480E+02 0.  0.
        -24    2    1    2    0    0  0.35184141467E+03 -0.17689866314E+03 -0.14984592643E+03  0.42889733794E+03  0.80084996882E+02 0.  0.
         13    1    4    4    0    0  0.61885355177E+02 -0.41943324099E+00 -0.31305362500E+02  0.69354155109E+02  0.00000000000E+00 0. -1.
        -14    1    4    4    0    0  0.28995605949E+03 -0.17647922990E+03 -0.11854056393E+03  0.35954318283E+03  0.00000000000E+00 0.  1.
        -13    1    3    3    0    0 -0.84763759160E+02 -0.80148383043E+02 -0.66006926624E+01  0.11684274609E+03  0.00000000000E+00 0.  1.
         13    1    3    3    0    0 -0.78435923890E+01 -0.50527115399E+02  0.44709731671E+02  0.67922539987E+02  0.00000000000E+00 0. -1.
          2    1    1    2  501    0 -0.25923406312E+03  0.30757416158E+03  0.23680501219E+03  0.46677701117E+03  0.00000000000E+00 0. -1.
<scales pt_clust_5="13000.00000" pt_clust_6="13000.00000" pt_clust_7="13000.00000" pt_clust_8="13000.00000" pt_clust_9="389.58647"></scales>
<clustering>
<clus scale="   80.085">  5  6 -1 -1</clus>
<clus scale="   83.867">  7  8 -1 -1</clus>
<clus scale="  180.792">  1  7  2 -1</clus>
<clus scale="  389.586">  2  9  1 -1</clus>
<clus scale="  389.586">  2  5  1 -1</clus>
</clustering>
</event>
<event>
 9    1  0.6270443E-005  0.2126571E+03  0.7546771E-02  0.1168871E+00
          1   -1    0    0  502    0 -0.00000000000E+00  0.00000000000E+00  0.75820562622E+03  0.75820562622E+03  0.00000000000E+00 0. -1.
         21   -1    0    0  501  502  0.00000000000E+00 -0.00000000000E+00 -0.11618479760E+03  0.11618479760E+03  0.00000000000E+00 0. -1.
         23    2    1    2    0    0 -0.59572083498E+02  0.37971237804E+02  0.34918047196E+03  0.36506483462E+03  0.79716268355E+02 0.  0.
        -24    2    1    2    0    0  0.10792737386E+03  0.16135592207E+03  0.17145659812E+03  0.27099059889E+03  0.79715042689E+02 0.  0.
         13    1    4    4    0    0  0.72298907515E+02  0.13423144885E+03  0.87367970328E+02  0.17572244059E+03  0.00000000000E+00 0. -1.
        -14    1    4    4    0    0  0.35628466341E+02  0.27124473228E+02  0.84088627794E+02  0.95268158300E+02  0.00000000000E+00 0.  1.
        -13    1    3    3    0    0 -0.36406197652E+01 -0.20280726198E+02  0.34476702554E+02  0.40164723158E+02  0.00000000000E+00 0.  1.
         13    1    3    3    0    0 -0.55931463733E+02  0.58251964001E+02  0.31470376941E+03  0.32490011146E+03  0.00000000000E+00 0. -1.
          2    1    1    2  501    0 -0.48355290357E+02 -0.19932715988E+03  0.12138375854E+03  0.23833499031E+03  0.00000000000E+00 0. -1.
<scales pt_clust_5="13000.00000" pt_clust_6="13000.00000" pt_clust_7="13000.00000" pt_clust_8="13000.00000" pt_clust_9="197.15109"></scales>
<clustering>
<clus scale="   79.715">  5  6 -1 -1</clus>
<clus scale="   79.716">  7  8 -1 -1</clus>
<clus scale="  106.514">  1  7  2 -1</clus>
<clus scale="  197.151">  2  9  1 -1</clus>
<clus scale="  197.151">  2  5  1 -1</clus>
</clustering>
</event>
<event>
 9    1  0.6270443E-005  0.1977849E+03  0.7546771E-02  0.1182002E+00
         21   -1    0    0  501  502  0.00000000000E+00  0.00000000000E+00  0.83224750154E+02  0.83224750154E+02  0.00000000000E+00 0. -1.
          1   -1    0    0  502    0 -0.00000000000E+00 -0.00000000000E+00 -0.76004475177E+03  0.76004475177E+03  0.00000000000E+00 0. -1.
         23    2    1    2    0    0 -0.13166779003E+02  0.32266205897E+02 -0.16299954448E+03  0.19035866589E+03  0.91940731268E+02 0.  0.
        -24    2    1    2    0    0  0.23667576465E+01 -0.19610844507E+03 -0.16058236688E+03  0.26337512752E+03  0.71523684720E+02 0.  0.
         13    1    4    4    0    0 -0.34561293624E+02 -0.92422821460E+02 -0.74146977112E+02  0.12342704387E+03  0.00000000000E+00 0. -1.
        -14    1    4    4    0    0  0.36928051271E+02 -0.10368562361E+03 -0.86435389771E+02  0.13994808366E+03  0.00000000000E+00 0.  1.
        -13    1    3    3    0    0 -0.11642755336E+02 -0.21210294969E+02 -0.11798916397E+03  0.12044448173E+03  0.00000000000E+00 0. -1.
         13    1    3    3    0    0 -0.15240236668E+01  0.53476500866E+02 -0.45010380505E+02  0.69914184156E+02  0.00000000000E+00 0.  1.
          2    1    1    2  501    0  0.10800021356E+02  0.16384223917E+03 -0.35323809025E+03  0.38953570851E+03  0.00000000000E+00 0. -1.
<scales pt_clust_5="13000.00000" pt_clust_6="13000.00000" pt_clust_7="13000.00000" pt_clust_8="13000.00000" pt_clust_9="184.39975"></scales>
<clustering>
<clus scale="   71.524">  5  6 -1 -1</clus>
<clus scale="   91.941">  7  8 -1 -1</clus>
<clus scale="   98.324">  2  7  1 -1</clus>
<clus scale="  184.400">  1  9  2 -1</clus>
<clus scale="  184.400">  1  5  2 -1</clus>
</clustering>
</event>
<event>
 9    1  0.6270443E-005  0.1321301E+03  0.7546771E-02  0.1227216E+00
         21   -1    0    0  501  502  0.00000000000E+00  0.00000000000E+00  0.56167448485E+02  0.56167448485E+02  0.00000000000E+00 0.  1.
          1   -1    0    0  502    0 -0.00000000000E+00 -0.00000000000E+00 -0.70105711104E+03  0.70105711104E+03  0.00000000000E+00 0. -1.
         23    2    1    2    0    0 -0.89203352511E+02 -0.37636258850E+02 -0.46709686162E+03  0.48561680316E+03  0.90942153588E+02 0.  0.
        -24    2    1    2    0    0  0.73688583230E+02  0.63112972599E+02 -0.19888016502E+03  0.23507766009E+03  0.79340605155E+02 0.  0.
         13    1    4    4    0    0 -0.13049767379E+01  0.41692227982E+02 -0.10527940646E+03  0.11324176908E+03  0.00000000000E+00 0. -1.
        -14    1    4    4    0    0  0.74993559968E+02  0.21420744617E+02 -0.93600758556E+02  0.12183589101E+03  0.00000000000E+00 0.  1.
        -11    1    3    3    0    0 -0.35777839249E+02 -0.61155060517E+02 -0.19894661086E+03  0.21118652699E+03  0.00000000000E+00 0.  1.
         11    1    3    3    0    0 -0.53425513262E+02  0.23518801667E+02 -0.26815025076E+03  0.27443027617E+03  0.00000000000E+00 0. -1.
          2    1    1    2  501    0  0.15514769280E+02 -0.25476713750E+02  0.21087364088E+02  0.36530096270E+02  0.00000000000E+00 0. -1.
<scales pt_clust_5="13000.00000" pt_clust_6="13000.00000" pt_clust_7="13000.00000" pt_clust_8="13000.00000" pt_clust_9="29.82903"></scales>
<clustering>
<clus scale="   29.829">  1  9  2 -1</clus>
<clus scale="   79.341">  5  6 -1 -1</clus>
<clus scale="   90.942">  7  8 -1 -1</clus>
<clus scale="  124.430">  1  5  2 -1</clus>
<clus scale="   29.829">  1  5  2 -1</clus>
</clustering>
</event>
<event>
 9    1  0.6270443E-005  0.1469209E+03  0.7546771E-02  0.1228877E+00
          1   -1    0    0  502    0 -0.00000000000E+00  0.00000000000E+00  0.75712564335E+03  0.75712564335E+03  0.00000000000E+00 0. -1.
         21   -1    0    0  501  502  0.00000000000E+00 -0.00000000000E+00 -0.43473295048E+02  0.43473295048E+02  0.00000000000E+00 0.  1.
        -24    2    1    2    0    0 -0.14661752393E+02 -0.30599916153E+02  0.17437900271E+03  0.19507656080E+03  0.80594702907E+02 0.  0.
         23    2    1    2    0    0  0.12155912410E+03  0.39117738013E+02  0.22178970570E+03  0.27041722549E+03  0.87338331841E+02 0.  0.
         11    1    3    3    0    0  0.30564793512E+02 -0.12229184742E+02  0.10646820381E+03  0.11144163488E+03  0.00000000000E+00 0. -1.
        -12    1    3    3    0    0 -0.45226545905E+02 -0.18370731411E+02  0.67910798896E+02  0.83634925921E+02  0.00000000000E+00 0.  1.
        -11    1    4    4    0    0  0.41777246726E+02  0.50830349811E+02  0.57396619523E+02  0.87312282862E+02  0.00000000000E+00 0. -1.
         11    1    4    4    0    0  0.79781877374E+02 -0.11712611798E+02  0.16439308617E+03  0.18310494263E+03  0.00000000000E+00 0.  1.
          2    1    1    2  501    0 -0.10689737171E+03 -0.85178218603E+01  0.31748363989E+03  0.33510515211E+03  0.00000000000E+00 0. -1.
<scales pt_clust_5="13000.00000" pt_clust_6="13000.00000" pt_clust_7="13000.00000" pt_clust_8="13000.00000" pt_clust_9="118.14305"></scales>
<clustering>
<clus scale="   80.595">  5  6 -1 -1</clus>
<clus scale="   87.338">  7  8 -1 -1</clus>
<clus scale="   87.446">  1  5  2 -1</clus>
<clus scale="  118.143">  2  9  1 -1</clus>
<clus scale="  118.143">  2  5  1 -1</clus>
</clustering>
</event>
<event>
 9    1  0.6270443E-005  0.1421546E+03  0.7546771E-02  0.1215119E+00
          1   -1    0    0  502    0 -0.00000000000E+00  0.00000000000E+00  0.30453084139E+03  0.30453084139E+03  0.00000000000E+00 0. -1.
         21   -1    0    0  501  502  0.00000000000E+00 -0.00000000000E+00 -0.16007947625E+03  0.16007947625E+03  0.00000000000E+00 0. -1.
         23    2    1    2    0    0  0.10608598335E+03  0.40200392544E+02  0.23726560975E+03  0.27794954307E+03  0.89948160049E+02 0.  0.
        -24    2    1    2    0    0 -0.83585134003E+02 -0.27946354476E+02 -0.10987238429E+03  0.15588042696E+03  0.66777940403E+02 0.  0.
         13    1    4    4    0    0 -0.29346838435E+02 -0.20381241378E+02 -0.91318057878E+02  0.98059265859E+02  0.00000000000E+00 0. -1.
        -14    1    4    4    0    0 -0.54238295568E+02 -0.75651130980E+01 -0.18554326413E+02  0.57821161100E+02  0.00000000000E+00 0.  1.
        -11    1    3    3    0    0  0.10914927403E+03  0.20258512667E+02  0.14030410442E+03  0.17891118768E+03  0.00000000000E+00 0. -1.
         11    1    3    3    0    0 -0.30632906856E+01  0.19941879877E+02  0.96961505329E+02  0.99038355391E+02  0.00000000000E+00 0.  1.
          2    1    1    2  501    0 -0.22500849345E+02 -0.12254038068E+02  0.17058139675E+02  0.30780347617E+02  0.00000000000E+00 0. -1.
<scales pt_clust_5="13000.00000" pt_clust_6="13000.00000" pt_clust_7="13000.00000" pt_clust_8="13000.00000" pt_clust_9="25.62129"></scales>
<clustering>
<clus scale="   25.621">  2  9  1 -1</clus>
<clus scale="   66.778">  5  6 -1 -1</clus>
<clus scale="   89.948">  7  8 -1 -1</clus>
<clus scale="  128.750">  2  5  1 -1</clus>
<clus scale="   25.621">  2  5  1 -1</clus>
</clustering>
</event>
<event>
 9    1  0.6270443E-005  0.9517361E+02  0.7546771E-02  0.1296710E+00
         -2   -1    0    0    0  501 -0.00000000000E+00  0.00000000000E+00  0.32436926531E+03  0.32436926531E+03  0.00000000000E+00 0.  1.
         21   -1    0    0  501  502  0.00000000000E+00 -0.00000000000E+00 -0.48258025436E+02  0.48258025436E+02  0.00000000000E+00 0.  1.
         23    2    1    2    0    0  0.32413763980E+02 -0.84878004414E+01  0.21800422358E+03  0.23895361191E+03  0.91925471426E+02 0.  0.
        -24    2    1    2    0    0 -0.19786593092E+01 -0.10575294662E+02  0.28374697904E+02  0.87050637874E+02  0.81590061425E+02 0.  0.
         13    1    4    4    0    0  0.31498182574E+02  0.19486858764E+02  0.93540707930E+01  0.38201725228E+02  0.00000000000E+00 0. -1.
        -14    1    4    4    0    0 -0.33476841883E+02 -0.30062153426E+02  0.19020627111E+02  0.48848912647E+02  0.00000000000E+00 0.  1.
        -13    1    3    3    0    0  0.50045965140E+02  0.12791683827E+02  0.19854544925E+03  0.20515487130E+03  0.00000000000E+00 0.  1.
         13    1    3    3    0    0 -0.17632201161E+02 -0.21279484269E+02  0.19458774331E+02  0.33798740612E+02  0.00000000000E+00 0. -1.
         -1    1    1    2    0  502 -0.30435104671E+02  0.19063095104E+02  0.29732318394E+02  0.46623040960E+02  0.00000000000E+00 0.  1.
<scales pt_clust_5="13000.00000" pt_clust_6="13000.00000" pt_clust_7="13000.00000" pt_clust_8="13000.00000" pt_clust_9="35.91235"></scales>
<clustering>
<clus scale="   35.912">  2  9  1 -1</clus>
<clus scale="   81.590">  5  6 -1 -1</clus>
<clus scale="   85.233">  2  5  1 -1</clus>
<clus scale="   91.925">  7  8 -1 -1</clus>
<clus scale="   35.912">  2  5  1 -1</clus>
</clustering>
</event>
<event>
 9    1  0.6270443E-005  0.1144671E+03  0.7546771E-02  0.1257383E+00
         21   -1    0    0  501  502  0.00000000000E+00  0.00000000000E+00  0.43283859315E+02  0.43283859315E+02  0.00000000000E+00 0.  1.
         -2   -1    0    0    0  501 -0.00000000000E+00 -0.00000000000E+00 -0.65711448224E+03  0.65711448224E+03  0.00000000000E+00 0.  1.
        -24    2    1    2    0    0  0.17703935457E+02  0.31208170618E+02 -0.87326969655E+02  0.12444642042E+03  0.81077325331E+02 0.  0.
         23    2    1    2    0    0 -0.32357903986E+02 -0.94073035294E+02 -0.19557659582E+03  0.23878809247E+03  0.94195426397E+02 0.  0.
         13    1    3    3    0    0 -0.26983134487E+02  0.24291001433E+02 -0.63961179686E+02  0.73547092425E+02  0.00000000000E+00 0. -1.
        -14    1    3    3    0    0  0.44687069944E+02  0.69171691855E+01 -0.23365789969E+02  0.50899327997E+02  0.00000000000E+00 0.  1.
        -13    1    4    4    0    0 -0.62693817870E+02 -0.81738633186E+02 -0.13372214175E+03  0.16879967461E+03  0.00000000000E+00 0.  1.
         13    1    4    4    0    0  0.30335913884E+02 -0.12334402108E+02 -0.61854454070E+02  0.69988417862E+02  0.00000000000E+00 0. -1.
         -1    1    1    2    0  502  0.14653968529E+02  0.62864864676E+02 -0.33092705745E+03  0.33716382866E+03  0.00000000000E+00 0.  1.
<scales pt_clust_5="13000.00000" pt_clust_6="13000.00000" pt_clust_7="13000.00000" pt_clust_8="13000.00000" pt_clust_9="64.55025"></scales>
<clustering>
<clus scale="   64.550">  1  9  2 -1</clus>
<clus scale="   81.077">  5  6 -1 -1</clus>
<clus scale="   94.195">  7  8 -1 -1</clus>
<clus scale="  103.940">  2  5  1 -1</clus>
<clus scale="   64.550">  1  5  2 -1</clus>
</clustering>
</event>
<event>
 9    1  0.6270443E-005  0.1452441E+03  0.7546771E-02  0.1221776E+00
         21   -1    0    0  501  502  0.00000000000E+00  0.00000000000E+00  0.59305342261E+02  0.59305342261E+02  0.00000000000E+00 0. -1.
          1   -1    0    0  502    0 -0.00000000000E+00 -0.00000000000E+00 -0.67102505184E+03  0.67102505184E+03  0.00000000000E+00 0. -1.
         23    2    1    2    0    0  0.51909584472E+01  0.51388612344E+02 -0.29328232348E+03  0.31148595448E+03  0.91330405917E+02 0.  0.
        -24    2    1    2    0    0  0.11626632363E+03 -0.38723103407E+01 -0.15808806233E+03  0.21215245633E+03  0.80523142487E+02 0.  0.
         13    1    4    4    0    0  0.11011147788E+03 -0.29528028886E+02 -0.13795976544E+03  0.17896742422E+03  0.00000000000E+00 0. -1.
        -14    1    4    4    0    0  0.61548457461E+01  0.25655718545E+02 -0.20128296893E+02  0.33185032108E+02  0.00000000000E+00 0.  1.
        -13    1    3    3    0    0 -0.86282749185E+01 -0.23605845491E+02 -0.11259418052E+03  0.11536521380E+03  0.00000000000E+00 0.  1.
         13    1    3    3    0    0  0.13819233366E+02  0.74994457835E+02 -0.18068814296E+03  0.19612074067E+03  0.00000000000E+00 0. -1.
          2    1    1    2  501    0 -0.12145728208E+03 -0.47516302003E+02 -0.16034932377E+03  0.20669198330E+03  0.00000000000E+00 0. -1.
<scales pt_clust_5="13000.00000" pt_clust_6="13000.00000" pt_clust_7="13000.00000" pt_clust_8="13000.00000" pt_clust_9="120.87968"></scales>
<clustering>
<clus scale="   80.523">  5  6 -1 -1</clus>
<clus scale="   91.330">  7  8 -1 -1</clus>
<clus scale="  104.924">  2  7  1 -1</clus>
<clus scale="  120.880">  1  9  2 -1</clus>
<clus scale="  120.880">  1  5  2 -1</clus>
</clustering>
</event>
<event>
 9    1  0.6270443E-005  0.9548358E+02  0.7546771E-02  0.1290896E+00
         21   -1    0    0  501  502  0.00000000000E+00  0.00000000000E+00  0.43207630409E+03  0.43207630409E+03  0.00000000000E+00 0.  1.
         -4   -1    0    0    0  501 -0.00000000000E+00 -0.00000000000E+00 -0.14953391115E+03  0.14953391115E+03  0.00000000000E+00 0.  1.
        -24    2    1    2    0    0 -0.23706129471E+02 -0.50580696873E+02 -0.81586987275E+02  0.13054045913E+03  0.85229029714E+02 0.  0.
         23    2    1    2    0    0 -0.14236270617E+02  0.14239658876E+02  0.62202395248E+01  0.89325026009E+02  0.86803396280E+02 0.  0.
         13    1    3    3    0    0  0.14153597397E+02 -0.23463194618E+02  0.88685401282E+01  0.28800986528E+02  0.00000000000E+00 0. -1.
        -14    1    3    3    0    0 -0.37859726868E+02 -0.27117502255E+02 -0.90455527403E+02  0.10173947260E+03  0.00000000000E+00 0.  1.
        -11    1    4    4    0    0  0.21368367191E+02  0.39784822093E+02  0.76938482571E+00  0.45166703869E+02  0.00000000000E+00 0. -1.
         11    1    4    4    0    0 -0.35604637808E+02 -0.25545163218E+02  0.54508546991E+01  0.44158322140E+02  0.00000000000E+00 0.  1.
         -3    1    1    2    0  502  0.37942400088E+02  0.36341037997E+02  0.35790914069E+03  0.36174473011E+03  0.00000000000E+00 0.  1.
<scales pt_clust_5="13000.00000" pt_clust_6="13000.00000" pt_clust_7="13000.00000" pt_clust_8="13000.00000" pt_clust_9="52.53853"></scales>
<clustering>
<clus scale="   52.539">  1  9  2 -1</clus>
<clus scale="   85.229">  5  6 -1 -1</clus>
<clus scale="   86.803">  7  8 -1 -1</clus>
<clus scale="   94.055">  2  5  1 -1</clus>
<clus scale="   52.539">  1  5  2 -1</clus>
</clustering>
</event>
<event>
 9    1  0.6270443E-005  0.9835992E+02  0.7546771E-02  0.1290033E+00
         21   -1    0    0  501  502  0.00000000000E+00  0.00000000000E+00  0.43834321306E+02  0.43834321306E+02  0.00000000000E+00 0. -1.
          1   -1    0    0  502    0 -0.00000000000E+00 -0.00000000000E+00 -0.49819459770E+03  0.49819459770E+03  0.00000000000E+00 0. -1.
         23    2    1    2    0    0 -0.11401958654E+02 -0.39715479470E+02 -0.19644772825E+03  0.22084357802E+03  0.92048096376E+02 0.  0.
        -24    2    1    2    0    0 -0.63719210442E+02  0.15633096220E+02 -0.97017146906E+02  0.14199136406E+03  0.80278821590E+02 0.  0.
         13    1    4    4    0    0 -0.60124372554E+02 -0.20131345000E+02 -0.80395351543E+02  0.10238956869E+03  0.00000000000E+00 0. -1.
        -14    1    4    4    0    0 -0.35948378871E+01  0.35764441219E+02 -0.16621795363E+02  0.39601795366E+02  0.00000000000E+00 0.  1.
        -11    1    3    3    0    0  0.11975840011E+02 -0.48731459258E+02 -0.45207283944E+02  0.67541649277E+02  0.00000000000E+00 0. -1.
         11    1    3    3    0    0 -0.23377798665E+02  0.90159797879E+01 -0.15124044430E+03  0.15330192874E+03  0.00000000000E+00 0.  1.
          2    1    1    2  501    0  0.75121169095E+02  0.24082383250E+02 -0.16089540124E+03  0.17919397694E+03  0.00000000000E+00 0. -1.
<scales pt_clust_5="13000.00000" pt_clust_6="13000.00000" pt_clust_7="13000.00000" pt_clust_8="13000.00000" pt_clust_9="78.88699"></scales>
<clustering>
<clus scale="   78.887">  1  9  2 -1</clus>
<clus scale="   80.279">  5  6 -1 -1</clus>
<clus scale="   87.444">  1  5  2 -1</clus>
<clus scale="   92.048">  7  8 -1 -1</clus>
<clus scale="   78.887">  1  5  2 -1</clus>
</clustering>
</event>
<event>
 9    1  0.6270443E-005  0.9459378E+02  0.7546771E-02  0.1299646E+00
          3   -1    0    0  502    0 -0.00000000000E+00  0.00000000000E+00  0.79389636922E+02  0.79389636922E+02  0.00000000000E+00 0. -1.
         21   -1    0    0  501  502  0.00000000000E+00 -0.00000000000E+00 -0.42687159248E+03  0.42687159248E+03  0.00000000000E+00 0.  1.
         23    2    1    2    0    0  0.19723141346E+02  0.40538571902E+01  0.32791918444E+02  0.10023826080E+03  0.92557889725E+02 0.  0.
        -24    2    1    2    0    0  0.90693805081E+00 -0.46690119718E+02 -0.28468634803E+03  0.29934388828E+03  0.79872754275E+02 0.  0.
         13    1    4    4    0    0  0.32206599294E+02 -0.97680282908E+01 -0.53962542905E+02  0.63597448468E+02  0.00000000000E+00 0. -1.
        -14    1    4    4    0    0 -0.31299661243E+02 -0.36922091427E+02 -0.23072380513E+03  0.23574643981E+03  0.00000000000E+00 0.  1.
        -11    1    3    3    0    0 -0.12168228376E+02 -0.32167471776E+02 -0.99174925974E+01  0.35793416737E+02  0.00000000000E+00 0.  1.
         11    1    3    3    0    0  0.31891369722E+02  0.36221328967E+02  0.42709411042E+02  0.64444844064E+02  0.00000000000E+00 0. -1.
          4    1    1    2  501    0 -0.20630079397E+02  0.42636262527E+02 -0.95587525969E+02  0.10667908033E+03  0.00000000000E+00 0. -1.
<scales pt_clust_5="13000.00000" pt_clust_6="13000.00000" pt_clust_7="13000.00000" pt_clust_8="13000.00000" pt_clust_9="47.36508"></scales>
<clustering>
<clus scale="   47.365">  2  9  1 -1</clus>
<clus scale="   79.873">  5  6 -1 -1</clus>
<clus scale="   82.223">  2  5  1 -1</clus>
<clus scale="   92.558">  7  8 -1 -1</clus>
<clus scale="   47.365">  2  5  1 -1</clus>
</clustering>
</event>
<event>
 9    1  0.6270443E-005  0.2259373E+03  0.7546771E-02  0.1160265E+00
          3   -1    0    0  502    0 -0.00000000000E+00  0.00000000000E+00  0.11150719403E+03  0.11150719403E+03  0.00000000000E+00 0. -1.
         21   -1    0    0  501  502  0.00000000000E+00 -0.00000000000E+00 -0.68208887858E+03  0.68208887858E+03  0.00000000000E+00 0. -1.
        -24    2    1    2    0    0 -0.56421649961E+02 -0.16447536765E+02 -0.70390025335E+02  0.12919954641E+03  0.91015619959E+02 0.  0.
         23    2    1    2    0    0  0.13375617544E+03  0.17855051170E+03 -0.36600571097E+03  0.44020046910E+03  0.10022610859E+03 0.  0.
         13    1    3    3    0    0 -0.57080776482E+02  0.21757786909E+02 -0.16751184002E+02  0.63342075277E+02  0.00000000000E+00 0. -1.
        -14    1    3    3    0    0  0.65912652032E+00 -0.38205323674E+02 -0.53638841333E+02  0.65857471135E+02  0.00000000000E+00 0.  1.
        -11    1    4    4    0    0  0.14665014074E+03  0.15833587664E+03 -0.35060316574E+03  0.41170267601E+03  0.00000000000E+00 0. -1.
         11    1    4    4    0    0 -0.12893965299E+02  0.20214635054E+02 -0.15402545233E+02  0.28497793093E+02  0.00000000000E+00 0.  1.
          4    1    1    2  501    0 -0.77334525475E+02 -0.16210297493E+03 -0.13418594825E+03  0.22419605710E+03  0.00000000000E+00 0. -1.
<scales pt_clust_5="13000.00000" pt_clust_6="13000.00000" pt_clust_7="13000.00000" pt_clust_8="13000.00000" pt_clust_9="202.49062"></scales>
<clustering>
<clus scale="   91.016">  5  6 -1 -1</clus>
<clus scale="  100.226">  7  8 -1 -1</clus>
<clus scale="  108.341">  1  5  2 -1</clus>
<clus scale="  202.491">  2  9  1 -1</clus>
<clus scale="  202.491">  2  5  1 -1</clus>
</clustering>
</event>
<event>
 9    1  0.6270443E-005  0.1538844E+03  0.7546771E-02  0.1197417E+00
          1   -1    0    0  502    0 -0.00000000000E+00  0.00000000000E+00  0.67768369291E+03  0.67768369291E+03  0.00000000000E+00 0. -1.
         21   -1    0    0  501  502  0.00000000000E+00 -0.00000000000E+00 -0.17744075855E+03  0.17744075855E+03  0.00000000000E+00 0.  1.
        -24    2    1    2    0    0  0.12216416510E+03  0.42244501153E+01  0.59297080525E+03  0.61084600967E+03  0.81095884292E+02 0.  0.
         23    2    1    2    0    0 -0.15338844698E+03  0.20888541538E+02 -0.51133487629E+02  0.18652282866E+03  0.90618900994E+02 0.  0.
         11    1    3    3    0    0  0.12108972170E+03  0.25355566869E+02  0.53546924469E+03  0.54957523369E+03  0.00000000000E+00 0. -1.
        -12    1    3    3    0    0  0.10744433974E+01 -0.21131116754E+02  0.57501560556E+02  0.61270775988E+02  0.00000000000E+00 0.  1.
        -11    1    4    4    0    0 -0.92061782149E+02 -0.32681175144E+02 -0.32857206554E+02  0.10306806956E+03  0.00000000000E+00 0.  1.
         11    1    4    4    0    0 -0.61326664833E+02  0.53569716682E+02 -0.18276281075E+02  0.83454759091E+02  0.00000000000E+00 0. -1.
          2    1    1    2  501    0  0.31224281887E+02 -0.25112991653E+02 -0.41594383258E+02  0.57755613127E+02  0.00000000000E+00 0. -1.
<scales pt_clust_5="13000.00000" pt_clust_6="13000.00000" pt_clust_7="13000.00000" pt_clust_8="13000.00000" pt_clust_9="40.07017"></scales>
<clustering>
<clus scale="   40.070">  2  9  1 -1</clus>
<clus scale="   81.096">  5  6 -1 -1</clus>
<clus scale="   90.619">  7  8 -1 -1</clus>
<clus scale="  148.476">  1  5  2 -1</clus>
<clus scale="   40.070">  2  5  1 -1</clus>
</clustering>
</event>
<event>
 9    1  0.6270443E-005  0.1109913E+03  0.7546771E-02  0.1266041E+00
         -2   -1    0    0    0  501 -0.00000000000E+00  0.00000000000E+00  0.39714574003E+03  0.39714574003E+03  0.00000000000E+00 0.  1.
         21   -1    0    0  501  502  0.00000000000E+00 -0.00000000000E+00 -0.18003025606E+03  0.18003025606E+03  0.00000000000E+00 0.  1.
        -24    2    1    2    0    0 -0.14208139333E+02 -0.52767521597E+02  0.31840358323E+03  0.33222057631E+03  0.77481526540E+02 0.  0.
         23    2    1    2    0    0 -0.53605738548E+01  0.79897230805E+02  0.13739360573E+02  0.12516279825E+03  0.95208470182E+02 0.  0.
         11    1    3    3    0    0  0.31678468044E+02 -0.18050484842E+02  0.10293870932E+03  0.10920495967E+03  0.00000000000E+00 0. -1.
        -12    1    3    3    0    0 -0.45886607376E+02 -0.34717036755E+02  0.21546487391E+03  0.22301561664E+03  0.00000000000E+00 0.  1.
        -11    1    4    4    0    0  0.20624210205E+02  0.23907007017E+02 -0.34541235217E+02  0.46797435415E+02  0.00000000000E+00 0. -1.
         11    1    4    4    0    0 -0.25984784060E+02  0.55990223787E+02  0.48280595790E+02  0.78365362835E+02  0.00000000000E+00 0.  1.
         -1    1    1    2    0  502  0.19568713188E+02 -0.27129709207E+02 -0.11502745983E+03  0.11979262153E+03  0.00000000000E+00 0.  1.
<scales pt_clust_5="13000.00000" pt_clust_6="13000.00000" pt_clust_7="13000.00000" pt_clust_8="13000.00000" pt_clust_9="33.45079"></scales>
<clustering>
<clus scale="   33.451">  2  9  1 -1</clus>
<clus scale="   77.482">  5  6 -1 -1</clus>
<clus scale="   95.208">  7  8 -1 -1</clus>
<clus scale="   96.218">  1  5  2 -1</clus>
<clus scale="   33.451">  2  5  1 -1</clus>
</clustering>
</event>
<event>
 9    1  0.6618080E-005  0.1019442E+03  0.7546771E-02  0.1280624E+00
         -4   -1    0    0    0  501 -0.00000000000E+00  0.00000000000E+00  0.26890608532E+03  0.26890608532E+03  0.00000000000E+00 0.  1.
         21   -1    0    0  501  502  0.00000000000E+00 -0.00000000000E+00 -0.90939225251E+02  0.90939225251E+02  0.00000000000E+00 0. -1.
         23    2    1    2    0    0  0.79262693635E+02 -0.21705604955E+02  0.53502669952E+02  0.13341284531E+03  0.90458519291E+02 0.  0.
        -24    2    1    2    0    0 -0.12592405855E+02 -0.72192794333E+01  0.17865038237E+00  0.82458607925E+02  0.81170828654E+02 0.  0.
         13    1    4    4    0    0 -0.18973696770E+02 -0.17651789231E+02 -0.35949633974E+02  0.44316622333E+02  0.00000000000E+00 0. -1.
        -14    1    4    4    0    0  0.63812909159E+01  0.10432509797E+02  0.36128284356E+02  0.38141985592E+02  0.00000000000E+00 0.  1.
        -13    1    3    3    0    0  0.78892693506E+02  0.18431819064E+02  0.27365991501E+02  0.85514247547E+02  0.00000000000E+00 0.  1.
         13    1    3    3    0    0  0.37000012908E+00 -0.40137424019E+02  0.26136678451E+02  0.47898597760E+02  0.00000000000E+00 0. -1.
         -3    1    1    2    0  502 -0.66670287781E+02  0.28924884388E+02  0.12428553974E+03  0.14397385734E+03  0.00000000000E+00 0.  1.
<scales pt_clust_5="13000.00000" pt_clust_6="13000.00000" pt_clust_7="13000.00000" pt_clust_8="13000.00000" pt_clust_9="72.67449"></scales>
<clustering>
<clus scale="   72.674">  2  9  1 -1</clus>
<clus scale="   81.171">  5  6 -1 -1</clus>
<clus scale="   90.459">  7  8 -1 -1</clus>
<clus scale="   93.801">  2  5  1 -1</clus>
<clus scale="   72.674">  2  5  1 -1</clus>
</clustering>
</event>
<event>
 9    1  0.6270443E-005  0.1115039E+03  0.7546771E-02  0.1260182E+00
         21   -1    0    0  501  502  0.00000000000E+00  0.00000000000E+00  0.36644232946E+03  0.36644232946E+03  0.00000000000E+00 0. -1.
          3   -1    0    0  502    0 -0.00000000000E+00 -0.00000000000E+00 -0.10426122357E+03  0.10426122357E+03  0.00000000000E+00 0. -1.
         23    2    1    2    0    0 -0.70846901199E+02 -0.14515606102E+02 -0.32008444294E+01  0.11538029449E+03  0.89846428543E+02 0.  0.
        -24    2    1    2    0    0  0.46579924437E+02 -0.89097433300E+02  0.18013706634E+03  0.21897356716E+03  0.73430364739E+02 0.  0.
         11    1    4    4    0    0  0.72970614622E+01 -0.82453721930E+02  0.10285600372E+03  0.13202734893E+03  0.00000000000E+00 0. -1.
        -12    1    4    4    0    0  0.39282862975E+02 -0.66437113696E+01  0.77281062618E+02  0.86946218225E+02  0.00000000000E+00 0.  1.
        -13    1    3    3    0    0 -0.53980633059E+02 -0.39795828687E+02 -0.31283272952E+02  0.74001756012E+02  0.00000000000E+00 0. -1.
         13    1    3    3    0    0 -0.16866268140E+02  0.25280222585E+02  0.28082428523E+02  0.41378538479E+02  0.00000000000E+00 0.  1.
          4    1    1    2  501    0  0.24266976762E+02  0.10361303940E+03  0.85244883980E+02  0.13634969138E+03  0.00000000000E+00 0. -1.
<scales pt_clust_5="13000.00000" pt_clust_6="13000.00000" pt_clust_7="13000.00000" pt_clust_8="13000.00000" pt_clust_9="106.41686"></scales>
<clustering>
<clus scale="   73.430">  5  6 -1 -1</clus>
<clus scale="   89.846">  7  8 -1 -1</clus>
<clus scale="  106.417">  1  9  2 -1</clus>
<clus scale="  106.417">  1  5  2 -1</clus>
<clus scale="  106.417">  1  5  2 -1</clus>
</clustering>
</event>
<event>
 9    1  0.6270443E-005  0.1273583E+03  0.7546771E-02  0.1235797E+00
          1   -1    0    0  502    0 -0.00000000000E+00  0.00000000000E+00  0.46308895715E+03  0.46308895715E+03  0.00000000000E+00 0. -1.
         21   -1    0    0  501  502  0.00000000000E+00 -0.00000000000E+00 -0.93058886538E+02  0.93058886538E+02  0.00000000000E+00 0. -1.
         23    2    1    2    0    0  0.66058470867E+02  0.39418252259E+02  0.27815348279E+03  0.30252190043E+03  0.90733786805E+02 0.  0.
        -24    2    1    2    0    0 -0.10103502603E+03 -0.67099434614E+02  0.13159461274E+03  0.19390049833E+03  0.74631431315E+02 0.  0.
         11    1    4    4    0    0 -0.78929055438E+02 -0.17406531846E+02  0.10729316262E+03  0.13433021212E+03  0.00000000000E+00 0. -1.
        -12    1    4    4    0    0 -0.22105970597E+02 -0.49692902767E+02  0.24301450119E+02  0.59570286212E+02  0.00000000000E+00 0.  1.
        -11    1    3    3    0    0  0.84489353040E+02  0.11389142070E+02  0.19250239216E+03  0.21053582670E+03  0.00000000000E+00 0.  1.
         11    1    3    3    0    0 -0.18430882173E+02  0.28029110189E+02  0.85651090627E+02  0.91986073735E+02  0.00000000000E+00 0. -1.
          2    1    1    2  501    0  0.34976555167E+02  0.27681182355E+02 -0.39718024918E+02  0.59725444924E+02  0.00000000000E+00 0. -1.
<scales pt_clust_5="13000.00000" pt_clust_6="13000.00000" pt_clust_7="13000.00000" pt_clust_8="13000.00000" pt_clust_9="44.60501"></scales>
<clustering>
<clus scale="   44.605">  2  9  1 -1</clus>
<clus scale="   74.631">  5  6 -1 -1</clus>
<clus scale="   90.734">  7  8 -1 -1</clus>
<clus scale="  116.436">  2  5  1 -1</clus>
<clus scale="   44.605">  2  5  1 -1</clus>
</clustering>
</event>
<event>
 9    1  0.6270443E-005  0.1222344E+03  0.7546771E-02  0.1244090E+00
         21   -1    0    0  501  502  0.00000000000E+00  0.00000000000E+00  0.25579870084E+03  0.25579870084E+03  0.00000000000E+00 0. -1.
         -4   -1    0    0    0  501 -0.00000000000E+00 -0.00000000000E+00 -0.10947097528E+03  0.10947097528E+03  0.00000000000E+00 0.  1.
         23    2    1    2    0    0 -0.31159356841E+01 -0.63145823163E+02 -0.25227166581E+02  0.11943411197E+03  0.98137623418E+02 0.  0.
        -24    2    1    2    0    0  0.93148668797E+01  0.98519652613E+02  0.93854570094E+02  0.16023723121E+03  0.84109459878E+02 0.  0.
         11    1    4    4    0    0 -0.11917803444E+02  0.68736694823E+02  0.10121456705E+03  0.12292744135E+03  0.00000000000E+00 0. -1.
        -12    1    4    4    0    0  0.21232670324E+02  0.29782957790E+02 -0.73599969554E+01  0.37309789855E+02  0.00000000000E+00 0.  1.
        -11    1    3    3    0    0  0.37284146218E+02 -0.54975229962E+02  0.74393827646E+01  0.66841064358E+02  0.00000000000E+00 0.  1.
         11    1    3    3    0    0 -0.40400081902E+02 -0.81705932012E+01 -0.32666549346E+02  0.52593047612E+02  0.00000000000E+00 0. -1.
         -3    1    1    2    0  502 -0.61989311955E+01 -0.35373829450E+02  0.77700322044E+02  0.85598332949E+02  0.00000000000E+00 0.  1.
<scales pt_clust_5="13000.00000" pt_clust_6="13000.00000" pt_clust_7="13000.00000" pt_clust_8="13000.00000" pt_clust_9="35.91287"></scales>
<clustering>
<clus scale="   35.913">  1  9  2 -1</clus>
<clus scale="   84.109">  5  6 -1 -1</clus>
<clus scale="   98.138">  7  8 -1 -1</clus>
<clus scale="  111.286">  1  5  2 -1</clus>
<clus scale="   35.913">  1  5  2 -1</clus>
</clustering>
</event>
<event>
 9    1  0.6270443E-005  0.1120026E+03  0.7546771E-02  0.1260675E+00
         21   -1    0    0  501  502  0.00000000000E+00  0.00000000000E+00  0.60895692937E+02  0.60895692937E+02  0.00000000000E+00 0.  1.
          1   -1    0    0  502    0 -0.00000000000E+00 -0.00000000000E+00 -0.27618896506E+03  0.27618896506E+03  0.00000000000E+00 0. -1.
         23    2    1    2    0    0  0.34444310953E+02 -0.64054428017E+02 -0.16178728865E+03  0.20004463377E+03  0.92484314471E+02 0.  0.
        -24    2    1    2    0    0 -0.32200270645E+02  0.34522663164E+02 -0.31770295576E+02  0.10030310846E+03  0.82599577384E+02 0.  0.
         13    1    4    4    0    0  0.17199694388E+02  0.28930221140E+02 -0.37347820455E+02  0.50275708598E+02  0.00000000000E+00 0. -1.
        -14    1    4    4    0    0 -0.49399965034E+02  0.55924420244E+01  0.55775248790E+01  0.50027399862E+02  0.00000000000E+00 0.  1.
        -13    1    3    3    0    0  0.12176745187E+02 -0.18382464937E+02  0.75047192199E+01  0.23291821549E+02  0.00000000000E+00 0.  1.
         13    1    3    3    0    0  0.22267565765E+02 -0.45671963080E+02 -0.16929200787E+03  0.17675281222E+03  0.00000000000E+00 0. -1.
          2    1    1    2  501    0 -0.22440403073E+01  0.29531764852E+02 -0.21735687892E+02  0.36736915770E+02  0.00000000000E+00 0. -1.
<scales pt_clust_5="13000.00000" pt_clust_6="13000.00000" pt_clust_7="13000.00000" pt_clust_8="13000.00000" pt_clust_9="29.61690"></scales>
<clustering>
<clus scale="   29.617">  1  9  2 -1</clus>
<clus scale="   82.600">  5  6 -1 -1</clus>
<clus scale="   92.484">  7  8 -1 -1</clus>
<clus scale="  103.990">  1  5  2 -1</clus>
<clus scale="   29.617">  1  5  2 -1</clus>
</clustering>
</event>
<event>
 9    1  0.6270443E-005  0.1067063E+03  0.7546771E-02  0.1272629E+00
         -4   -1    0    0    0  501 -0.00000000000E+00  0.00000000000E+00  0.11333328649E+03  0.11333328649E+03  0.00000000000E+00 0.  1.
         21   -1    0    0  501  502  0.00000000000E+00 -0.00000000000E+00 -0.16597131472E+03  0.16597131472E+03  0.00000000000E+00 0.  1.
        -24    2    1    2    0    0 -0.27454194363E+02  0.35419638010E+02  0.22296218169E+02  0.93879361374E+02  0.79422475424E+02 0.  0.
         23    2    1    2    0    0  0.12611185034E+02 -0.79422973361E+02 -0.59863472903E+02  0.13660171414E+03  0.92786541229E+02 0.  0.
         13    1    3    3    0    0 -0.19911637094E+02  0.58261294289E+02  0.73262159659E+00  0.61574251424E+02  0.00000000000E+00 0. -1.
        -14    1    3    3    0    0 -0.75425572688E+01 -0.22841656279E+02  0.21563596573E+02  0.32305109950E+02  0.00000000000E+00 0.  1.
        -11    1    4    4    0    0 -0.61515519114E+01 -0.26996345469E+02 -0.74119886487E+02  0.79122701119E+02  0.00000000000E+00 0.  1.
         11    1    4    4    0    0  0.18762736946E+02 -0.52426627892E+02  0.14256413584E+02  0.57479013023E+02  0.00000000000E+00 0. -1.
         -3    1    1    2    0  502  0.14843009329E+02  0.44003335352E+02 -0.15070773498E+02  0.48823525701E+02  0.00000000000E+00 0.  1.
<scales pt_clust_5="13000.00000" pt_clust_6="13000.00000" pt_clust_7="13000.00000" pt_clust_8="13000.00000" pt_clust_9="46.43930"></scales>
<clustering>
<clus scale="   46.439">  2  9  1 -1</clus>
<clus scale="   79.422">  5  6 -1 -1</clus>
<clus scale="   92.787">  7  8 -1 -1</clus>
<clus scale="   95.314">  1  5  2 -1</clus>
<clus scale="   46.439">  2  5  1 -1</clus>
</clustering>
</event>
<event>
 9    1  0.6270443E-005  0.9428190E+02  0.7546771E-02  0.1299590E+00
         21   -1    0    0  501  502  0.00000000000E+00  0.00000000000E+00  0.25577741280E+03  0.25577741280E+03  0.00000000000E+00 0.  1.
          3   -1    0    0  502    0 -0.00000000000E+00 -0.00000000000E+00 -0.70012806983E+02  0.70012806983E+02  0.00000000000E+00 0. -1.
         23    2    1    2    0    0 -0.16750138399E+02 -0.12560492314E+02  0.39738925568E+02  0.10284476113E+03  0.92517725781E+02 0.  0.
        -24    2    1    2    0    0 -0.66060994694E+01  0.21426577275E+02  0.16913206747E+03  0.18891567111E+03  0.81121734327E+02 0.  0.
         13    1    4    4    0    0  0.20958606632E+01 -0.30444395216E+02  0.48297629066E+02  0.57130681821E+02  0.00000000000E+00 0. -1.
        -14    1    4    4    0    0 -0.87019601326E+01  0.51870972491E+02  0.12083443840E+03  0.13178498929E+03  0.00000000000E+00 0.  1.
        -11    1    3    3    0    0 -0.43858079451E+02 -0.33802116244E+02  0.78815849663E+01  0.55930613954E+02  0.00000000000E+00 0.  1.
         11    1    3    3    0    0  0.27107941053E+02  0.21241623930E+02  0.31857340601E+02  0.46914147178E+02  0.00000000000E+00 0. -1.
          4    1    1    2  501    0  0.23356237868E+02 -0.88660849611E+01 -0.23106387219E+02  0.34029787543E+02  0.00000000000E+00 0. -1.
<scales pt_clust_5="13000.00000" pt_clust_6="13000.00000" pt_clust_7="13000.00000" pt_clust_8="13000.00000" pt_clust_9="24.98243"></scales>
<clustering>
<clus scale="   24.982">  1  9  2 -1</clus>
<clus scale="   81.122">  5  6 -1 -1</clus>
<clus scale="   83.128">  1  5  2 -1</clus>
<clus scale="   92.518">  7  8 -1 -1</clus>
<clus scale="   24.982">  1  5  2 -1</clus>
</clustering>
</event>
<event>
 9    1  0.6270443E-005  0.1246353E+03  0.7546771E-02  0.1252289E+00
         -4   -1    0    0    0  501 -0.00000000000E+00  0.00000000000E+00  0.22947891117E+03  0.22947891117E+03  0.00000000000E+00 0.  1.
         21   -1    0    0  501  502  0.00000000000E+00 -0.00000000000E+00 -0.16633226772E+03  0.16633226772E+03  0.00000000000E+00 0.  1.
        -24    2    1    2    0    0 -0.72041900370E+00 -0.33851443589E+02  0.81360661329E+02  0.12063762803E+03  0.82385926283E+02 0.  0.
         23    2    1    2    0    0 -0.25525381261E+02 -0.73858757414E+02 -0.84258278737E+02  0.14613024873E+03  0.90265890145E+02 0.  0.
         11    1    3    3    0    0  0.32449363948E+02  0.75714157995E+01  0.17602506721E+02  0.37684689208E+02  0.00000000000E+00 0. -1.
        -12    1    3    3    0    0 -0.33169782952E+02 -0.41422859388E+02  0.63758154608E+02  0.82952938827E+02  0.00000000000E+00 0.  1.
        -13    1    4    4    0    0 -0.10522419579E+01 -0.63477524500E+02 -0.97564916579E+02  0.11640195994E+03  0.00000000000E+00 0.  1.
         13    1    4    4    0    0 -0.24473139303E+02 -0.10381232914E+02  0.13306637842E+02  0.29728288798E+02  0.00000000000E+00 0. -1.
         -3    1    1    2    0  502  0.26245800265E+02  0.10771020100E+03  0.66044260860E+02  0.12904330213E+03  0.00000000000E+00 0.  1.
<scales pt_clust_5="13000.00000" pt_clust_6="13000.00000" pt_clust_7="13000.00000" pt_clust_8="13000.00000" pt_clust_9="85.94198"></scales>
<clustering>
<clus scale="   82.386">  5  6 -1 -1</clus>
<clus scale="   89.072">  1  5  2 -1</clus>
<clus scale="   85.942">  2  9  1 -1</clus>
<clus scale="   90.266">  7  8 -1 -1</clus>
<clus scale="   85.942">  2  5  1 -1</clus>
</clustering>
</event>
<event>
 9    1  0.6270443E-005  0.1285138E+03  0.7546771E-02  0.1232774E+00
         21   -1    0    0  501  502  0.00000000000E+00  0.00000000000E+00  0.24904724239E+03  0.24904724239E+03  0.00000000000E+00 0. -1.
          1   -1    0    0  502    0 -0.00000000000E+00 -0.00000000000E+00 -0.42009338841E+03  0.42009338841E+03  0.00000000000E+00 0. -1.
         23    2    1    2    0    0  0.55844488094E+02 -0.75908606788E+02 -0.36651010942E+03  0.38875504655E+03  0.88994957594E+02 0.  0.
        -24    2    1    2    0    0 -0.31308459866E+02  0.78313706688E+02  0.37123616971E+02  0.12013744388E+03  0.77081685048E+02 0.  0.
         11    1    4    4    0    0 -0.11429058482E+01  0.81973069397E+02  0.17096807393E+02  0.83744797827E+02  0.00000000000E+00 0. -1.
        -12    1    4    4    0    0 -0.30165554017E+02 -0.36593627085E+01  0.20026809577E+02  0.36392646049E+02  0.00000000000E+00 0.  1.
        -13    1    3    3    0    0 -0.60394063519E+01 -0.56730459296E+02 -0.23918202719E+03  0.24589197135E+03  0.00000000000E+00 0.  1.
         13    1    3    3    0    0  0.61883894446E+02 -0.19178147492E+02 -0.12732808222E+03  0.14286307520E+03  0.00000000000E+00 0. -1.
          2    1    1    2  501    0 -0.24536028229E+02 -0.24050998997E+01  0.15834034642E+03  0.16024814037E+03  0.00000000000E+00 0. -1.
<scales pt_clust_5="13000.00000" pt_clust_6="13000.00000" pt_clust_7="13000.00000" pt_clust_8="13000.00000" pt_clust_9="24.65362"></scales>
<clustering>
<clus scale="   24.654">  1  9  2 -1</clus>
<clus scale="   77.082">  5  6 -1 -1</clus>
<clus scale="   88.995">  7  8 -1 -1</clus>
<clus scale="  120.571">  1  5  2 -1</clus>
<clus scale="   24.654">  1  5  2 -1</clus>
</clustering>
</event>
<event>
 9    1  0.6270443E-005  0.1047434E+03  0.7546771E-02  0.1275391E+00
          3   -1    0    0  502    0 -0.00000000000E+00  0.00000000000E+00  0.10530695424E+03  0.10530695424E+03  0.00000000000E+00 0. -1.
         21   -1    0    0  501  502  0.00000000000E+00 -0.00000000000E+00 -0.34054271686E+03  0.34054271686E+03  0.00000000000E+00 0. -1.
         23    2    1    2    0    0  0.14963299110E+02 -0.54533983657E+02  0.59135928993E+02  0.12238857259E+03  0.91016750700E+02 0.  0.
        -24    2    1    2    0    0  0.19534407017E+02  0.31516787737E+02 -0.15972518922E+03  0.18257261907E+03  0.80285267604E+02 0.  0.
         13    1    4    4    0    0  0.38239688368E+02 -0.76805825526E+01 -0.43127037678E+02  0.58148142650E+02  0.00000000000E+00 0. -1.
        -14    1    4    4    0    0 -0.18705281351E+02  0.39197370289E+02 -0.11659815155E+03  0.12442447642E+03  0.00000000000E+00 0.  1.
        -13    1    3    3    0    0  0.52601083424E+02 -0.24054507579E+02  0.39948010416E+02  0.70294643099E+02  0.00000000000E+00 0.  1.
         13    1    3    3    0    0 -0.37637784314E+02 -0.30479476078E+02  0.19187918577E+02  0.52093929487E+02  0.00000000000E+00 0. -1.
          4    1    1    2  501    0 -0.34497706127E+02  0.23017195920E+02 -0.13464650239E+03  0.14088847945E+03  0.00000000000E+00 0. -1.
<scales pt_clust_5="13000.00000" pt_clust_6="13000.00000" pt_clust_7="13000.00000" pt_clust_8="13000.00000" pt_clust_9="41.47147"></scales>
<clustering>
<clus scale="   41.471">  2  9  1 -1</clus>
<clus scale="   80.285">  5  6 -1 -1</clus>
<clus scale="   91.017">  7  8 -1 -1</clus>
<clus scale="   95.566">  2  5  1 -1</clus>
<clus scale="   41.471">  2  5  1 -1</clus>
</clustering>
</event>
<event>
 9    1  0.6270443E-005  0.1358958E+03  0.7546771E-02  0.1222698E+00
         21   -1    0    0  501  502  0.00000000000E+00  0.00000000000E+00  0.81706886992E+02  0.81706886992E+02  0.00000000000E+00 0. -1.
          1   -1    0    0  502    0 -0.00000000000E+00 -0.00000000000E+00 -0.45842627423E+03  0.45842627423E+03  0.00000000000E+00 0. -1.
        -24    2    1    2    0    0  0.69497726675E+02  0.73384748460E+02 -0.28268189860E+03  0.31069429766E+03  0.80041461002E+02 0.  0.
         23    2    1    2    0    0 -0.64364013710E+02 -0.44938263414E+02  0.76532389585E+01  0.12371960515E+03  0.95319435865E+02 0.  0.
         13    1    3    3    0    0  0.84788170937E+02  0.43399059221E+02 -0.21107055469E+03  0.23156703420E+03  0.00000000000E+00 0. -1.
        -14    1    3    3    0    0 -0.15290444262E+02  0.29985689239E+02 -0.71611343915E+02  0.79127263457E+02  0.00000000000E+00 0.  1.
        -11    1    4    4    0    0 -0.63603220226E+02 -0.20022051220E+02  0.43823142222E+02  0.79791728597E+02  0.00000000000E+00 0. -1.
         11    1    4    4    0    0 -0.76079348378E+00 -0.24916212193E+02 -0.36169903264E+02  0.43927876558E+02  0.00000000000E+00 0.  1.
          2    1    1    2  501    0 -0.51337129651E+01 -0.28446485047E+02 -0.10169072760E+03  0.10571925842E+03  0.00000000000E+00 0. -1.
<scales pt_clust_5="13000.00000" pt_clust_6="13000.00000" pt_clust_7="13000.00000" pt_clust_8="13000.00000" pt_clust_9="28.90603"></scales>
<clustering>
<clus scale="   28.906">  1  9  2 -1</clus>
<clus scale="   80.041">  5  6 -1 -1</clus>
<clus scale="   95.319">  7  8 -1 -1</clus>
<clus scale="  125.652">  2  5  1 -1</clus>
<clus scale="   28.906">  1  5  2 -1</clus>
</clustering>
</event>
<event>
 9    1  0.6270443E-005  0.1208573E+03  0.7546771E-02  0.1245559E+00
          1   -1    0    0  502    0 -0.00000000000E+00  0.00000000000E+00  0.71405759087E+03  0.71405759087E+03  0.00000000000E+00 0. -1.
         21   -1    0    0  501  502  0.00000000000E+00 -0.00000000000E+00 -0.50144485303E+02  0.50144485303E+02  0.00000000000E+00 0. -1.
         23    2    1    2    0    0 -0.71711263840E+02 -0.50261724300E+02  0.39551780643E+03  0.41579776243E+03  0.93726718436E+02 0.  0.
        -24    2    1    2    0    0  0.40421782145E+02  0.54389356911E+02  0.29089046867E+03  0.30964735736E+03  0.81682914623E+02 0.  0.
         11    1    4    4    0    0  0.56616442097E+02  0.16187864254E+02  0.21759959707E+03  0.22542638068E+03  0.00000000000E+00 0. -1.
        -12    1    4    4    0    0 -0.16194659951E+02  0.38201492657E+02  0.73290871599E+02  0.84220976674E+02  0.00000000000E+00 0.  1.
        -11    1    3    3    0    0 -0.65365836080E+02 -0.16183876343E+02  0.35971576736E+03  0.36596453881E+03  0.00000000000E+00 0. -1.
         11    1    3    3    0    0 -0.63454277599E+01 -0.34077847957E+02  0.35802039071E+02  0.49833223622E+02  0.00000000000E+00 0.  1.
          2    1    1    2  501    0  0.31289481695E+02 -0.41276326106E+01 -0.22495169531E+02  0.38756956381E+02  0.00000000000E+00 0. -1.
<scales pt_clust_5="13000.00000" pt_clust_6="13000.00000" pt_clust_7="13000.00000" pt_clust_8="13000.00000" pt_clust_9="31.56056"></scales>
<clustering>
<clus scale="   31.561">  2  9  1 -1</clus>
<clus scale="   81.683">  5  6 -1 -1</clus>
<clus scale="   93.727">  7  8 -1 -1</clus>
<clus scale="  111.776">  2  5  1 -1</clus>
<clus scale="   31.561">  2  5  1 -1</clus>
</clustering>
</event>
<event>
 9    1  0.6270443E-005  0.9351050E+02  0.7546771E-02  0.1301816E+00
         21   -1    0    0  501  502  0.00000000000E+00  0.00000000000E+00  0.13875745646E+03  0.13875745646E+03  0.00000000000E+00 0. -1.
          1   -1    0    0  502    0 -0.00000000000E+00 -0.00000000000E+00 -0.89363072342E+02  0.89363072342E+02  0.00000000000E+00 0. -1.
        -24    2    1    2    0    0 -0.10517301640E+02 -0.13925121206E+02  0.71059310112E+01  0.82263245645E+02  0.80076367888E+02 0.  0.
         23    2    1    2    0    0 -0.10770703204E+02  0.20900730655E+02  0.64103479917E+02  0.11458855002E+03  0.92024078748E+02 0.  0.
         11    1    3    3    0    0  0.22721299859E+02  0.31746430220E+01  0.30501234287E+02  0.38166230081E+02  0.00000000000E+00 0. -1.
        -12    1    3    3    0    0 -0.33238601499E+02 -0.17099764228E+02 -0.23395303276E+02  0.44097015564E+02  0.00000000000E+00 0.  1.
        -13    1    4    4    0    0  0.10690061555E+01  0.47146340663E+02  0.70761773791E+02  0.85036161967E+02  0.00000000000E+00 0. -1.
         13    1    4    4    0    0 -0.11839709360E+02 -0.26245610008E+02 -0.66582938745E+01  0.29552388055E+02  0.00000000000E+00 0.  1.
          2    1    1    2  501    0  0.21288004844E+02 -0.69756094483E+01 -0.21815026808E+02  0.31268733138E+02  0.00000000000E+00 0. -1.
<scales pt_clust_5="13000.00000" pt_clust_6="13000.00000" pt_clust_7="13000.00000" pt_clust_8="13000.00000" pt_clust_9="22.40176"></scales>
<clustering>
<clus scale="   22.402">  1  9  2 -1</clus>
<clus scale="   80.076">  5  6 -1 -1</clus>
<clus scale="   81.780">  2  5  1 -1</clus>
<clus scale="   92.024">  7  8 -1 -1</clus>
<clus scale="   22.402">  1  5  2 -1</clus>
</clustering>
</event>
<event>
 9    1  0.6270443E-005  0.9558308E+02  0.7546771E-02  0.1302596E+00
         21   -1    0    0  501  502  0.00000000000E+00  0.00000000000E+00  0.17276582463E+03  0.17276582463E+03  0.00000000000E+00 0. -1.
          1   -1    0    0  502    0 -0.00000000000E+00 -0.00000000000E+00 -0.70327663294E+02  0.70327663294E+02  0.00000000000E+00 0. -1.
         23    2    1    2    0    0  0.97968059334E+01 -0.18844934595E+02  0.58702899894E+02  0.11103139294E+03  0.91819555632E+02 0.  0.
        -24    2    1    2    0    0  0.62576738967E+01  0.34005710226E+02  0.64517566632E+02  0.10173884236E+03  0.70659244472E+02 0.  0.
         11    1    4    4    0    0  0.26921841898E+02  0.47059810025E+02  0.45101404772E+02  0.70523386215E+02  0.00000000000E+00 0. -1.
        -12    1    4    4    0    0 -0.20664168001E+02 -0.13054099799E+02  0.19416161859E+02  0.31215456141E+02  0.00000000000E+00 0.  1.
        -13    1    3    3    0    0  0.44983205846E+02  0.69989172814E+01  0.11955600613E+02  0.47068142489E+02  0.00000000000E+00 0.  1.
         13    1    3    3    0    0 -0.35186399913E+02 -0.25843851877E+02  0.46747299281E+02  0.63963250454E+02  0.00000000000E+00 0. -1.
          2    1    1    2  501    0 -0.16054479830E+02 -0.15160775630E+02 -0.20782305194E+02  0.30323252620E+02  0.00000000000E+00 0. -1.
<scales pt_clust_5="13000.00000" pt_clust_6="13000.00000" pt_clust_7="13000.00000" pt_clust_8="13000.00000" pt_clust_9="22.08157"></scales>
<clustering>
<clus scale="   22.082">  1  9  2 -1</clus>
<clus scale="   70.659">  5  6 -1 -1</clus>
<clus scale="   75.485">  1  5  2 -1</clus>
<clus scale="   91.820">  7  8 -1 -1</clus>
<clus scale="   22.082">  1  5  2 -1</clus>
</clustering>
</event>
<event>
 9    1  0.6270443E-005  0.1210995E+03  0.7546771E-02  0.1243536E+00
          1   -1    0    0  502    0 -0.00000000000E+00  0.00000000000E+00  0.34828536713E+03  0.34828536713E+03  0.00000000000E+00 0. -1.
         21   -1    0    0  501  502  0.00000000000E+00 -0.00000000000E+00 -0.62387361598E+02  0.62387361598E+02  0.00000000000E+00 0.  1.
         23    2    1    2    0    0 -0.67438687014E+02  0.34450216436E+01  0.17166907891E+03  0.20588746496E+03  0.91430470268E+02 0.  0.
        -24    2    1    2    0    0  0.10046837401E+03 -0.11447857123E+02  0.10801852691E+03  0.17023711384E+03  0.84188628477E+02 0.  0.
         13    1    4    4    0    0  0.24584071114E+02  0.32673619701E+02  0.18556019251E+02  0.44902871037E+02  0.00000000000E+00 0. -1.
        -14    1    4    4    0    0  0.75884302894E+02 -0.44121476825E+02  0.89462507654E+02  0.12533424280E+03  0.00000000000E+00 0.  1.
        -13    1    3    3    0    0 -0.17879699700E+02  0.27516437243E+02  0.88332056887E+01  0.33983282694E+02  0.00000000000E+00 0.  1.
         13    1    3    3    0    0 -0.49558987314E+02 -0.24071415600E+02  0.16283587322E+03  0.17190418227E+03  0.00000000000E+00 0. -1.
          2    1    1    2  501    0 -0.33029686994E+02  0.80028354797E+01  0.62103997117E+01  0.34548149924E+02  0.00000000000E+00 0. -1.
<scales pt_clust_5="13000.00000" pt_clust_6="13000.00000" pt_clust_7="13000.00000" pt_clust_8="13000.00000" pt_clust_9="33.98537"></scales>
<clustering>
<clus scale="   33.985">  2  9  1 -1</clus>
<clus scale="   84.189">  5  6 -1 -1</clus>
<clus scale="   91.430">  7  8 -1 -1</clus>
<clus scale="  115.729">  2  5  1 -1</clus>
<clus scale="   33.985">  2  5  1 -1</clus>
</clustering>
</event>
<event>
 9    1  0.6270443E-005  0.9151060E+02  0.7546771E-02  0.1304616E+00
         21   -1    0    0  501  502  0.00000000000E+00  0.00000000000E+00  0.55697156283E+02  0.55697156283E+02  0.00000000000E+00 0. -1.
          1   -1    0    0  502    0 -0.00000000000E+00 -0.00000000000E+00 -0.57485527196E+03  0.57485527196E+03  0.00000000000E+00 0. -1.
         23    2    1    2    0    0  0.14309342679E+02  0.15324720122E+02 -0.45349682789E+03  0.46275735951E+03  0.89696134481E+02 0.  0.
        -24    2    1    2    0    0  0.24243368814E+02 -0.23223804770E+02 -0.86647174057E+02  0.12319557856E+03  0.80884681899E+02 0.  0.
         13    1    4    4    0    0  0.48940389379E+02 -0.27078841168E+02 -0.35444496455E+02  0.66217351809E+02  0.00000000000E+00 0. -1.
        -14    1    4    4    0    0 -0.24697020565E+02  0.38550363988E+01 -0.51202677602E+02  0.56978226754E+02  0.00000000000E+00 0.  1.
        -11    1    3    3    0    0 -0.24957105374E+02 -0.25042127681E+02 -0.15329271533E+03  0.15731694709E+03  0.00000000000E+00 0.  1.
         11    1    3    3    0    0  0.39266448053E+02  0.40366847802E+02 -0.30020411255E+03  0.30544041242E+03  0.00000000000E+00 0. -1.
          2    1    1    2  501    0 -0.38552711494E+02  0.78990846478E+01  0.20985886262E+02  0.44599490176E+02  0.00000000000E+00 0. -1.
<scales pt_clust_5="13000.00000" pt_clust_6="13000.00000" pt_clust_7="13000.00000" pt_clust_8="13000.00000" pt_clust_9="39.35362"></scales>
<clustering>
<clus scale="   39.354">  1  9  2 -1</clus>
<clus scale="   80.885">  5  6 -1 -1</clus>
<clus scale="   82.892">  1  5  2 -1</clus>
<clus scale="   89.696">  7  8 -1 -1</clus>
<clus scale="   39.354">  1  5  2 -1</clus>
</clustering>
</event>
<event>
 9    1  0.6270443E-005  0.1083407E+03  0.7546771E-02  0.1268319E+00
          3   -1    0    0  502    0 -0.00000000000E+00  0.00000000000E+00  0.30092872345E+03  0.30092872345E+03  0.00000000000E+00 0. -1.
         21   -1    0    0  501  502  0.00000000000E+00 -0.00000000000E+00 -0.18206007698E+03  0.18206007698E+03  0.00000000000E+00 0. -1.
        -24    2    1    2    0    0 -0.63454354488E+02  0.20989355483E+02  0.92481498493E+02  0.13901822122E+03  0.79411775705E+02 0.  0.
         23    2    1    2    0    0  0.21082700084E+02  0.43134077803E+02 -0.13238910391E+03  0.16757026755E+03  0.90817899226E+02 0.  0.
         13    1    3    3    0    0 -0.66505048996E+02 -0.12352271616E+02  0.75862296832E+02  0.10163950136E+03  0.00000000000E+00 0. -1.
        -14    1    3    3    0    0  0.30506945074E+01  0.33341627099E+02  0.16619201661E+02  0.37378719861E+02  0.00000000000E+00 0.  1.
        -11    1    4    4    0    0 -0.25202156328E+02  0.19947245207E+02 -0.84186364558E+01  0.33225212034E+02  0.00000000000E+00 0.  1.
         11    1    4    4    0    0  0.46284856412E+02  0.23186832595E+02 -0.12397046746E+03  0.13434505551E+03  0.00000000000E+00 0. -1.
          4    1    1    2  501    0  0.42371654405E+02 -0.64123433286E+02  0.15877625188E+03  0.17640031166E+03  0.00000000000E+00 0. -1.
<scales pt_clust_5="13000.00000" pt_clust_6="13000.00000" pt_clust_7="13000.00000" pt_clust_8="13000.00000" pt_clust_9="76.85817"></scales>
<clustering>
<clus scale="   76.858">  2  9  1 -1</clus>
<clus scale="   79.412">  5  6 -1 -1</clus>
<clus scale="   90.818">  7  8 -1 -1</clus>
<clus scale="   98.975">  1  5  2 -1</clus>
<clus scale="   76.858">  2  5  1 -1</clus>
</clustering>
</event>
<event>
 9    1  0.6270443E-005  0.1115718E+03  0.7546771E-02  0.1263213E+00
         21   -1    0    0  501  502  0.00000000000E+00  0.00000000000E+00  0.16705798478E+03  0.16705798478E+03  0.00000000000E+00 0. -1.
          1   -1    0    0  502    0 -0.00000000000E+00 -0.00000000000E+00 -0.18875704393E+03  0.18875704393E+03  0.00000000000E+00 0. -1.
         23    2    1    2    0    0 -0.67978359085E+02 -0.83717334036E+01 -0.13821293117E+03  0.17942562863E+03  0.91649324276E+02 0.  0.
        -24    2    1    2    0    0  0.40140750287E+02 -0.22345681390E+02  0.89852979785E+02  0.12710151911E+03  0.77269844530E+02 0.  0.
         13    1    4    4    0    0 -0.46248206667E+01 -0.20293068734E+02  0.78026292062E+02  0.80754565554E+02  0.00000000000E+00 0. -1.
        -14    1    4    4    0    0  0.44765570954E+02 -0.20526126556E+01  0.11826687723E+02  0.46346953557E+02  0.00000000000E+00 0.  1.
        -11    1    3    3    0    0 -0.50034022550E+02 -0.36321619523E+02 -0.13182311598E+03  0.14560218874E+03  0.00000000000E+00 0. -1.
         11    1    3    3    0    0 -0.17944336534E+02  0.27949886119E+02 -0.63898151891E+01  0.33823439889E+02  0.00000000000E+00 0.  1.
          2    1    1    2  501    0  0.27837608798E+02  0.30717414793E+02  0.26660892244E+02  0.49287880969E+02  0.00000000000E+00 0. -1.
<scales pt_clust_5="13000.00000" pt_clust_6="13000.00000" pt_clust_7="13000.00000" pt_clust_8="13000.00000" pt_clust_9="41.45470"></scales>
<clustering>
<clus scale="   41.455">  1  9  2 -1</clus>
<clus scale="   77.270">  5  6 -1 -1</clus>
<clus scale="   91.649">  7  8 -1 -1</clus>
<clus scale="  100.096">  1  5  2 -1</clus>
<clus scale="   41.455">  1  5  2 -1</clus>
</clustering>
</event>
<event>
 9    1  0.6270443E-005  0.9594728E+02  0.7546771E-02  0.1300749E+00
         21   -1    0    0  501  502  0.00000000000E+00  0.00000000000E+00  0.36961238866E+02  0.36961238866E+02  0.00000000000E+00 0. -1.
          1   -1    0    0  502    0 -0.00000000000E+00 -0.00000000000E+00 -0.43151025555E+03  0.43151025555E+03  0.00000000000E+00 0. -1.
         23    2    1    2    0    0 -0.23476679963E+02  0.17666449240E+02 -0.30748649070E+03  0.32221113093E+03  0.91699580155E+02 0.  0.
        -24    2    1    2    0    0  0.35314716965E+02  0.13850103423E+02 -0.74757430737E+02  0.11041559287E+03  0.71860803631E+02 0.  0.
         11    1    4    4    0    0  0.35795703230E+02  0.31349537766E+02 -0.79163726978E+02  0.92363529365E+02  0.00000000000E+00 0. -1.
        -12    1    4    4    0    0 -0.48098626466E+00 -0.17499434342E+02  0.44062962406E+01  0.18052063501E+02  0.00000000000E+00 0.  1.
        -11    1    3    3    0    0 -0.42991315764E+02  0.42591233277E+02 -0.24232814427E+03  0.24977028624E+03  0.00000000000E+00 0. -1.
         11    1    3    3    0    0  0.19514635801E+02 -0.24924784037E+02 -0.65158346436E+02  0.72440844694E+02  0.00000000000E+00 0.  1.
          2    1    1    2  501    0 -0.11838037002E+02 -0.31516552664E+02 -0.12305095246E+02  0.35844770621E+02  0.00000000000E+00 0. -1.
<scales pt_clust_5="13000.00000" pt_clust_6="13000.00000" pt_clust_7="13000.00000" pt_clust_8="13000.00000" pt_clust_9="33.66648"></scales>
<clustering>
<clus scale="   33.666">  1  9  2 -1</clus>
<clus scale="   71.861">  5  6 -1 -1</clus>
<clus scale="   77.208">  1  5  2 -1</clus>
<clus scale="   91.700">  7  8 -1 -1</clus>
<clus scale="   33.666">  1  5  2 -1</clus>
</clustering>
</event>
<event>
 9    1  0.6270443E-005  0.9671841E+02  0.7546771E-02  0.1292964E+00
          3   -1    0    0  502    0 -0.00000000000E+00  0.00000000000E+00  0.70848302258E+02  0.70848302258E+02  0.00000000000E+00 0. -1.
         21   -1    0    0  501  502  0.00000000000E+00 -0.00000000000E+00 -0.28210230339E+03  0.28210230339E+03  0.00000000000E+00 0.  1.
        -24    2    1    2    0    0  0.37136607587E+02  0.85139465875E+01 -0.20746202533E+02  0.91898539262E+02  0.81014330148E+02 0.  0.
         23    2    1    2    0    0  0.26707677602E+01 -0.35866480440E+02 -0.18873222730E+03  0.21272049396E+03  0.91305079319E+02 0.  0.
         13    1    3    3    0    0 -0.84108299727E+01  0.25735993632E+02 -0.32002838037E+02  0.41919745604E+02  0.00000000000E+00 0. -1.
        -14    1    3    3    0    0  0.45547437560E+02 -0.17222047044E+02  0.11256635504E+02  0.49978793658E+02  0.00000000000E+00 0.  1.
        -13    1    4    4    0    0  0.45061801509E+02 -0.17319378385E+02 -0.67735991799E+02  0.83178671593E+02  0.00000000000E+00 0. -1.
         13    1    4    4    0    0 -0.42391033749E+02 -0.18547102055E+02 -0.12099623550E+03  0.12954182237E+03  0.00000000000E+00 0.  1.
          4    1    1    2  501    0 -0.39807375348E+02  0.27352533853E+02 -0.17755713052E+01  0.48331572431E+02  0.00000000000E+00 0. -1.
<scales pt_clust_5="13000.00000" pt_clust_6="13000.00000" pt_clust_7="13000.00000" pt_clust_8="13000.00000" pt_clust_9="48.29897"></scales>
<clustering>
<clus scale="   48.299">  2  9  1 -1</clus>
<clus scale="   81.014">  5  6 -1 -1</clus>
<clus scale="   87.070">  1  5  2 -1</clus>
<clus scale="   91.305">  7  8 -1 -1</clus>
<clus scale="   48.299">  2  5  1 -1</clus>
</clustering>
</event>
<event>
 9    1  0.6270443E-005  0.1099594E+03  0.7546771E-02  0.1265226E+00
          1   -1    0    0  502    0 -0.00000000000E+00  0.00000000000E+00  0.11140044587E+03  0.11140044587E+03  0.00000000000E+00 0. -1.
         21   -1    0    0  501  502  0.00000000000E+00 -0.00000000000E+00 -0.18361016580E+03  0.18361016580E+03  0.00000000000E+00 0. -1.
         23    2    1    2    0    0  0.63300191096E+02  0.76219261176E+01  0.51641658746E+02  0.12306157900E+03  0.91718500629E+02 0.  0.
        -24    2    1    2    0    0 -0.47195413700E+02 -0.24204945414E+02 -0.98364803372E+02  0.13754080829E+03  0.80178257310E+02 0.  0.
         11    1    4    4    0    0 -0.51635179760E+02 -0.43908607376E+02 -0.95547987801E+02  0.11714766563E+03  0.00000000000E+00 0. -1.
        -12    1    4    4    0    0  0.44397660597E+01  0.19703661962E+02 -0.28168155713E+01  0.20393142655E+02  0.00000000000E+00 0.  1.
        -13    1    3    3    0    0  0.84548054835E+02 -0.39371930696E+01  0.27774430564E+02  0.89080267505E+02  0.00000000000E+00 0. -1.
         13    1    3    3    0    0 -0.21247863739E+02  0.11559119187E+02  0.23867228182E+02  0.33981311495E+02  0.00000000000E+00 0.  1.
          2    1    1    2  501    0 -0.16104777395E+02  0.16583019297E+02 -0.25486575307E+02  0.34408224378E+02  0.00000000000E+00 0. -1.
<scales pt_clust_5="13000.00000" pt_clust_6="13000.00000" pt_clust_7="13000.00000" pt_clust_8="13000.00000" pt_clust_9="23.11624"></scales>
<clustering>
<clus scale="   23.116">  2  9  1 -1</clus>
<clus scale="   80.178">  5  6 -1 -1</clus>
<clus scale="   91.719">  7  8 -1 -1</clus>
<clus scale="  100.535">  2  5  1 -1</clus>
<clus scale="   23.116">  2  5  1 -1</clus>
</clustering>
</event>
<event>
 9    1  0.6270443E-005  0.2237443E+03  0.7546771E-02  0.1142474E+00
         21   -1    0    0  501  502  0.00000000000E+00  0.00000000000E+00  0.12195651926E+03  0.12195651926E+03  0.00000000000E+00 0. -1.
          3   -1    0    0  502    0 -0.00000000000E+00 -0.00000000000E+00 -0.90209588157E+03  0.90209588157E+03  0.00000000000E+00 0. -1.
        -24    2    1    2    0    0  0.46222480294E+02  0.14285001297E+03 -0.39593962162E+03  0.43084505009E+03  0.79477225207E+02 0.  0.
         23    2    1    2    0    0  0.15924184896E+03  0.76216078223E+01 -0.22949546635E+03  0.29522964728E+03  0.95269723371E+02 0.  0.
         13    1    3    3    0    0  0.14248136856E+02  0.12391971683E+03 -0.23930028496E+03  0.26985872601E+03  0.00000000000E+00 0. -1.
        -14    1    3    3    0    0  0.31974343437E+02  0.18930296143E+02 -0.15663933666E+03  0.16098632408E+03  0.00000000000E+00 0.  1.
        -11    1    4    4    0    0  0.11829963693E+03  0.14928880535E+02 -0.89230068407E+02  0.14892844147E+03  0.00000000000E+00 0. -1.
         11    1    4    4    0    0  0.40942212032E+02 -0.73072727127E+01 -0.14026539794E+03  0.14630120581E+03  0.00000000000E+00 0.  1.
          4    1    1    2  501    0 -0.20546432925E+03 -0.15047162079E+03 -0.15470427434E+03  0.29797770346E+03  0.00000000000E+00 0. -1.
<scales pt_clust_5="13000.00000" pt_clust_6="13000.00000" pt_clust_7="13000.00000" pt_clust_8="13000.00000" pt_clust_9="202.44804"></scales>
<clustering>
<clus scale="   79.477">  5  6 -1 -1</clus>
<clus scale="   95.270">  7  8 -1 -1</clus>
<clus scale="  169.880">  2  5  1 -1</clus>
<clus scale="  202.448">  1  9  2 -1</clus>
<clus scale="  202.448">  1  5  2 -1</clus>
</clustering>
</event>
<event>
 9    1  0.6270443E-005  0.1249491E+03  0.7546771E-02  0.1243630E+00
          1   -1    0    0  502    0 -0.00000000000E+00  0.00000000000E+00  0.30224671570E+03  0.30224671570E+03  0.00000000000E+00 0. -1.
         21   -1    0    0  501  502  0.00000000000E+00 -0.00000000000E+00 -0.20706914729E+03  0.20706914729E+03  0.00000000000E+00 0. -1.
         23    2    1    2    0    0  0.47733246917E+02 -0.19095340420E+02  0.17148222081E+03  0.20115844633E+03  0.91735890403E+02 0.  0.
        -24    2    1    2    0    0  0.37639052975E+02 -0.78968286687E+02 -0.12203290012E+03  0.17033152218E+03  0.80424561716E+02 0.  0.
         11    1    4    4    0    0  0.53215613655E+02 -0.63846001980E+02 -0.12317201419E+03  0.14859191965E+03  0.00000000000E+00 0. -1.
        -12    1    4    4    0    0 -0.15576560680E+02 -0.15122284707E+02  0.11391140756E+01  0.21739602532E+02  0.00000000000E+00 0.  1.
        -13    1    3    3    0    0  0.30991510719E+02  0.28490492080E+02  0.12737020730E+03  0.13414675390E+03  0.00000000000E+00 0.  1.
         13    1    3    3    0    0  0.16741736197E+02 -0.47585832500E+02  0.44112013516E+02  0.67011692428E+02  0.00000000000E+00 0. -1.
          2    1    1    2  501    0 -0.85372299892E+02  0.98063627107E+02  0.45728247711E+02  0.13782589448E+03  0.00000000000E+00 0. -1.
<scales pt_clust_5="13000.00000" pt_clust_6="13000.00000" pt_clust_7="13000.00000" pt_clust_8="13000.00000" pt_clust_9="95.62521"></scales>
<clustering>
<clus scale="   80.425">  5  6 -1 -1</clus>
<clus scale="   91.736">  7  8 -1 -1</clus>
<clus scale="  105.160">  1  7  2 -1</clus>
<clus scale="   95.625">  2  9  1 -1</clus>
<clus scale="   95.625">  2  5  1 -1</clus>
</clustering>
</event>
<event>
 9    1  0.6270443E-005  0.2288355E+03  0.7546771E-02  0.1163070E+00
         21   -1    0    0  501  502  0.00000000000E+00  0.00000000000E+00  0.16932812789E+03  0.16932812789E+03  0.00000000000E+00 0. -1.
          1   -1    0    0  502    0 -0.00000000000E+00 -0.00000000000E+00 -0.47319315998E+03  0.47319315998E+03  0.00000000000E+00 0. -1.
        -24    2    1    2    0    0 -0.50735980590E+02  0.18423995455E+02 -0.14491363521E+03  0.17477392630E+03  0.81439427256E+02 0.  0.
         23    2    1    2    0    0  0.10751598697E+03  0.18008564367E+03 -0.64216148580E+02  0.24058043347E+03  0.98816520481E+02 0.  0.
         11    1    3    3    0    0 -0.49241343047E+02  0.55103438646E+01 -0.15206710143E+03  0.15993585305E+03  0.00000000000E+00 0. -1.
        -12    1    3    3    0    0 -0.14946375421E+01  0.12913651590E+02  0.71534662229E+01  0.14838073250E+02  0.00000000000E+00 0.  1.
        -11    1    4    4    0    0 -0.16698043813E+02  0.27069564839E+02  0.39252764621E+01  0.32046744032E+02  0.00000000000E+00 0.  1.
         11    1    4    4    0    0  0.12421403078E+03  0.15301607883E+03 -0.68141425042E+02  0.20853368944E+03  0.00000000000E+00 0. -1.
          2    1    1    2  501    0 -0.56780006376E+02 -0.19850963913E+03 -0.94735248299E+02  0.22716692810E+03  0.00000000000E+00 0. -1.
<scales pt_clust_5="13000.00000" pt_clust_6="13000.00000" pt_clust_7="13000.00000" pt_clust_8="13000.00000" pt_clust_9="206.40020"></scales>
<clustering>
<clus scale="   81.439">  5  6 -1 -1</clus>
<clus scale="   97.703">  2  5  1 -1</clus>
<clus scale="   98.817">  7  8 -1 -1</clus>
<clus scale="  206.400">  1  9  2 -1</clus>
<clus scale="  206.400">  1  5  2 -1</clus>
</clustering>
</event>
<event>
 9    1  0.6270443E-005  0.1236536E+03  0.7546771E-02  0.1239983E+00
          1   -1    0    0  502    0 -0.00000000000E+00  0.00000000000E+00  0.53553377522E+02  0.53553377522E+02  0.00000000000E+00 0. -1.
         21   -1    0    0  501  502  0.00000000000E+00 -0.00000000000E+00 -0.84973000385E+03  0.84973000385E+03  0.00000000000E+00 0. -1.
         23    2    1    2    0    0  0.81093316486E+02  0.44056180410E+02 -0.51619527934E+02  0.13873247962E+03  0.89805635824E+02 0.  0.
        -24    2    1    2    0    0 -0.68389698958E+02  0.18904284547E+02 -0.40077286643E+03  0.41481814636E+03  0.80129153167E+02 0.  0.
         13    1    4    4    0    0 -0.18578777341E+02  0.45202217173E+02 -0.22477251588E+03  0.23002411895E+03  0.00000000000E+00 0. -1.
        -14    1    4    4    0    0 -0.49810921616E+02 -0.26297932626E+02 -0.17600035056E+03  0.18479402741E+03  0.00000000000E+00 0.  1.
        -13    1    3    3    0    0  0.49018250594E+02  0.59886995035E+02 -0.64469636578E+02  0.10072524562E+03  0.00000000000E+00 0.  1.
         13    1    3    3    0    0  0.32075065893E+02 -0.15830814625E+02  0.12850108644E+02  0.38007233994E+02  0.00000000000E+00 0. -1.
          2    1    1    2  501    0 -0.12703617529E+02 -0.62960464957E+02 -0.34378423196E+03  0.34973275539E+03  0.00000000000E+00 0. -1.
<scales pt_clust_5="13000.00000" pt_clust_6="13000.00000" pt_clust_7="13000.00000" pt_clust_8="13000.00000" pt_clust_9="64.22929"></scales>
<clustering>
<clus scale="   64.229">  2  9  1 -1</clus>
<clus scale="   80.129">  5  6 -1 -1</clus>
<clus scale="   89.806">  7  8 -1 -1</clus>
<clus scale="  116.815">  2  5  1 -1</clus>
<clus scale="   64.229">  2  5  1 -1</clus>
</clustering>
</event>
<event>
 9    1  0.6270443E-005  0.1348194E+03  0.7546771E-02  0.1244892E+00
         21   -1    0    0  501  502  0.00000000000E+00  0.00000000000E+00  0.78511471972E+03  0.78511471972E+03  0.00000000000E+00 0.  1.
         -2   -1    0    0    0  501 -0.00000000000E+00 -0.00000000000E+00 -0.32582582379E+03  0.32582582379E+03  0.00000000000E+00 0.  1.
        -24    2    1    2    0    0 -0.12198205375E+02  0.62892056412E+01 -0.22961189602E+03  0.24368350403E+03  0.80446734038E+02 0.  0.
         23    2    1    2    0    0 -0.81031986354E+02  0.29229405949E+02 -0.39886371535E+02  0.13167280224E+03  0.91248360156E+02 0.  0.
         13    1    3    3    0    0  0.21353569843E+02  0.26764243691E+02 -0.16109105502E+03  0.16468948872E+03  0.00000000000E+00 0. -1.
        -14    1    3    3    0    0 -0.33551775218E+02 -0.20475038050E+02 -0.68520841003E+02  0.78994015313E+02  0.00000000000E+00 0.  1.
        -13    1    4    4    0    0 -0.82004522794E+02  0.55590515014E+02 -0.32783430029E+02  0.10435420644E+03  0.00000000000E+00 0.  1.
         13    1    4    4    0    0  0.97253644015E+00 -0.26361109065E+02 -0.71029415063E+01  0.27318595796E+02  0.00000000000E+00 0. -1.
         -1    1    1    2    0  502  0.93230191730E+02 -0.35518611590E+02  0.72878716349E+03  0.73558423725E+03  0.00000000000E+00 0.  1.
<scales pt_clust_5="13000.00000" pt_clust_6="13000.00000" pt_clust_7="13000.00000" pt_clust_8="13000.00000" pt_clust_9="99.24721"></scales>
<clustering>
<clus scale="   80.447">  5  6 -1 -1</clus>
<clus scale="   81.609">  2  5  1 -1</clus>
<clus scale="   91.248">  7  8 -1 -1</clus>
<clus scale="   99.247">  1  9  2 -1</clus>
<clus scale="   99.247">  1  5  2 -1</clus>
</clustering>
</event>
<event>
 9    1  0.6270443E-005  0.1012210E+03  0.7546771E-02  0.1280850E+00
         -2   -1    0    0    0  501 -0.00000000000E+00  0.00000000000E+00  0.28780809281E+03  0.28780809281E+03  0.00000000000E+00 0.  1.
         21   -1    0    0  501  502  0.00000000000E+00 -0.00000000000E+00 -0.13348167277E+03  0.13348167277E+03  0.00000000000E+00 0.  1.
        -24    2    1    2    0    0  0.10648667689E+01 -0.24085047380E+02  0.14996424664E+03  0.17487844744E+03  0.86671636992E+02 0.  0.
         23    2    1    2    0    0  0.16691815961E+02  0.11179086149E+03  0.37283633220E+02  0.15106231644E+03  0.93026559158E+02 0.  0.
         13    1    3    3    0    0  0.34464762539E+02  0.98387618530E+01  0.33499751590E+02  0.49059702897E+02  0.00000000000E+00 0. -1.
        -14    1    3    3    0    0 -0.33399895770E+02 -0.33923809233E+02  0.11646449505E+03  0.12581874454E+03  0.00000000000E+00 0.  1.
        -13    1    4    4    0    0  0.48446538589E+02  0.77607792433E+02  0.47818560491E+02  0.10323105771E+03  0.00000000000E+00 0.  1.
         13    1    4    4    0    0 -0.31754722628E+02  0.34183069053E+02 -0.10534927270E+02  0.47831258730E+02  0.00000000000E+00 0. -1.
         -1    1    1    2    0  502 -0.17756682730E+02 -0.87705814106E+02 -0.32921459828E+02  0.95349001708E+02  0.00000000000E+00 0.  1.
<scales pt_clust_5="13000.00000" pt_clust_6="13000.00000" pt_clust_7="13000.00000" pt_clust_8="13000.00000" pt_clust_9="89.48525"></scales>
<clustering>
<clus scale="   86.672">  5  6 -1 -1</clus>
<clus scale="   89.485">  2  9  1 -1</clus>
<clus scale="   93.027">  7  8 -1 -1</clus>
<clus scale="   95.413">  1  5  2 -1</clus>
<clus scale="   89.485">  2  5  1 -1</clus>
</clustering>
</event>
<event>
 9    1  0.6270443E-005  0.9167567E+02  0.7546771E-02  0.1307738E+00
         21   -1    0    0  501  502  0.00000000000E+00  0.00000000000E+00  0.23161054060E+03  0.23161054060E+03  0.00000000000E+00 0. -1.
          1   -1    0    0  502    0 -0.00000000000E+00 -0.00000000000E+00 -0.14679015570E+03  0.14679015570E+03  0.00000000000E+00 0. -1.
         23    2    1    2    0    0  0.48473322849E+01  0.18935083730E+02 -0.89767431898E+02  0.12959872283E+03  0.91408988087E+02 0.  0.
        -24    2    1    2    0    0  0.26150803856E+02  0.32708336309E+02  0.31588583212E+02  0.93635262847E+02  0.77563032771E+02 0.  0.
         13    1    4    4    0    0  0.40839366322E+02 -0.91703706905E+01  0.56630332118E+01  0.42237654828E+02  0.00000000000E+00 0. -1.
        -14    1    4    4    0    0 -0.14688562466E+02  0.41878707000E+02  0.25925550001E+02  0.51397608019E+02  0.00000000000E+00 0.  1.
        -11    1    3    3    0    0 -0.35467072476E+02  0.12379052120E+02 -0.83078948772E+01  0.38473046132E+02  0.00000000000E+00 0.  1.
         11    1    3    3    0    0  0.40314404761E+02  0.65560316096E+01 -0.81459537021E+02  0.91125676696E+02  0.00000000000E+00 0. -1.
          2    1    1    2  501    0 -0.30998136141E+02 -0.51643420039E+02  0.14299923359E+03  0.15516671062E+03  0.00000000000E+00 0. -1.
<scales pt_clust_5="13000.00000" pt_clust_6="13000.00000" pt_clust_7="13000.00000" pt_clust_8="13000.00000" pt_clust_9="60.23228"></scales>
<clustering>
<clus scale="   60.232">  1  9  2 -1</clus>
<clus scale="   77.563">  5  6 -1 -1</clus>
<clus scale="   77.877">  1  5  2 -1</clus>
<clus scale="   91.409">  7  8 -1 -1</clus>
<clus scale="   60.232">  1  5  2 -1</clus>
</clustering>
</event>
<event>
 9    1  0.6270443E-005  0.9118961E+02  0.7546771E-02  0.1306018E+00
          1   -1    0    0  502    0 -0.00000000000E+00  0.00000000000E+00  0.19686481778E+03  0.19686481778E+03  0.00000000000E+00 0. -1.
         21   -1    0    0  501  502  0.00000000000E+00 -0.00000000000E+00 -0.76050442531E+02  0.76050442531E+02  0.00000000000E+00 0.  1.
         23    2    1    2    0    0  0.11751284755E+01  0.12531755834E+01  0.13684819829E+03  0.16436677836E+03  0.91027781901E+02 0.  0.
        -24    2    1    2    0    0  0.11488950570E+02 -0.19836079234E+02 -0.15588077700E+02  0.86056218948E+02  0.81469126844E+02 0.  0.
         11    1    4    4    0    0  0.16728698536E+01  0.23080058146E+02  0.19102349681E+02  0.30006454987E+02  0.00000000000E+00 0. -1.
        -12    1    4    4    0    0  0.98160807161E+01 -0.42916137380E+02 -0.34690427381E+02  0.56049763961E+02  0.00000000000E+00 0.  1.
        -13    1    3    3    0    0 -0.32480634120E+02  0.28220351330E+02  0.94923161647E+02  0.10421989464E+03  0.00000000000E+00 0. -1.
         13    1    3    3    0    0  0.33655762596E+02 -0.26967175747E+02  0.41925036641E+02  0.60146883718E+02  0.00000000000E+00 0.  1.
          2    1    1    2  501    0 -0.12664079045E+02  0.18582903651E+02 -0.44574533791E+00  0.22492263005E+02  0.00000000000E+00 0. -1.
<scales pt_clust_5="13000.00000" pt_clust_6="13000.00000" pt_clust_7="13000.00000" pt_clust_8="13000.00000" pt_clust_9="22.48785"></scales>
<clustering>
<clus scale="   22.488">  2  9  1 -1</clus>
<clus scale="   81.469">  5  6 -1 -1</clus>
<clus scale="   81.650">  2  5  1 -1</clus>
<clus scale="   91.028">  7  8 -1 -1</clus>
<clus scale="   22.488">  2  5  1 -1</clus>
</clustering>
</event>
<event>
 9    1  0.6270443E-005  0.9708056E+02  0.7546771E-02  0.1292607E+00
          1   -1    0    0  502    0 -0.00000000000E+00  0.00000000000E+00  0.27796500132E+03  0.27796500132E+03  0.00000000000E+00 0. -1.
         21   -1    0    0  501  502  0.00000000000E+00 -0.00000000000E+00 -0.53320668853E+02  0.53320668853E+02  0.00000000000E+00 0.  1.
         23    2    1    2    0    0 -0.44198206547E+02 -0.20962566231E+02  0.14820119179E+03  0.18034351048E+03  0.90372993094E+02 0.  0.
        -24    2    1    2    0    0  0.18122577147E+02 -0.15278081124E+02  0.33840442155E+02  0.89230630048E+02  0.79089077933E+02 0.  0.
         11    1    4    4    0    0  0.11270729574E+02  0.26700644747E+02  0.36507592084E+02  0.46612852893E+02  0.00000000000E+00 0. -1.
        -12    1    4    4    0    0  0.68518475735E+01 -0.41978725871E+02 -0.26671499293E+01  0.42617777155E+02  0.00000000000E+00 0.  1.
        -13    1    3    3    0    0  0.10821816661E+02  0.21167441794E+02  0.78642253491E+02  0.82157022476E+02  0.00000000000E+00 0. -1.
         13    1    3    3    0    0 -0.55020023208E+02 -0.42130008025E+02  0.69558938296E+02  0.98186488005E+02  0.00000000000E+00 0.  1.
          2    1    1    2  501    0  0.26075629400E+02  0.36240647355E+02  0.42602698526E+02  0.61711529644E+02  0.00000000000E+00 0. -1.
<scales pt_clust_5="13000.00000" pt_clust_6="13000.00000" pt_clust_7="13000.00000" pt_clust_8="13000.00000" pt_clust_9="44.64667"></scales>
<clustering>
<clus scale="   44.647">  2  9  1 -1</clus>
<clus scale="   79.089">  5  6 -1 -1</clus>
<clus scale="   86.674">  2  5  1 -1</clus>
<clus scale="   90.373">  7  8 -1 -1</clus>
<clus scale="   44.647">  2  5  1 -1</clus>
</clustering>
</event>
<event>
 9    1  0.6270443E-005  0.1577755E+03  0.7546771E-02  0.1199475E+00
          1   -1    0    0  502    0 -0.00000000000E+00  0.00000000000E+00  0.61620392863E+03  0.61620392863E+03  0.00000000000E+00 0. -1.
         21   -1    0    0  501  502  0.00000000000E+00 -0.00000000000E+00 -0.49234031943E+02  0.49234031943E+02  0.00000000000E+00 0.  1.
         23    2    1    2    0    0  0.86664314479E+01 -0.11649073537E+03  0.38463817390E+03  0.41884961745E+03  0.11765746366E+03 0.  0.
        -24    2    1    2    0    0 -0.65240466732E+01  0.84638353723E+02  0.84533715112E+02  0.14371164832E+03  0.79378049650E+02 0.  0.
         11    1    4    4    0    0 -0.25822261594E+02  0.44432206395E+02  0.84749395389E+02  0.99113420775E+02  0.00000000000E+00 0. -1.
        -12    1    4    4    0    0  0.19298214921E+02  0.40206147328E+02 -0.21568027767E+00  0.44598227544E+02  0.00000000000E+00 0.  1.
        -11    1    3    3    0    0  0.41559602038E+02  0.19140441391E+01  0.12162046195E+03  0.12853949141E+03  0.00000000000E+00 0. -1.
         11    1    3    3    0    0 -0.32893170590E+02 -0.11840477951E+03  0.26301771195E+03  0.29031012604E+03  0.00000000000E+00 0.  1.
          2    1    1    2  501    0 -0.21423847747E+01  0.31852381646E+02  0.97798007677E+02  0.10287669481E+03  0.00000000000E+00 0. -1.
<scales pt_clust_5="13000.00000" pt_clust_6="13000.00000" pt_clust_7="13000.00000" pt_clust_8="13000.00000" pt_clust_9="31.92436"></scales>
<clustering>
<clus scale="   31.924">  2  9  1 -1</clus>
<clus scale="   79.378">  5  6 -1 -1</clus>
<clus scale="  117.657">  7  8 -1 -1</clus>
<clus scale="  131.722">  2  5  1 -1</clus>
<clus scale="   31.924">  2  5  1 -1</clus>
</clustering>
</event>
<event>
 9    1  0.6270443E-005  0.1153958E+03  0.7546771E-02  0.1256277E+00
          1   -1    0    0  502    0 -0.00000000000E+00  0.00000000000E+00  0.78466513895E+03  0.78466513895E+03  0.00000000000E+00 0. -1.
         21   -1    0    0  501  502  0.00000000000E+00 -0.00000000000E+00 -0.49039363047E+02  0.49039363047E+02  0.00000000000E+00 0. -1.
        -24    2    1    2    0    0 -0.20586953057E+02  0.39915563248E+02  0.10912894172E+03  0.14426757180E+03  0.82987538375E+02 0.  0.
         23    2    1    2    0    0 -0.30079028265E+02 -0.98080616794E+02  0.14756197184E+03  0.20432991367E+03  0.97219456676E+02 0.  0.
         11    1    3    3    0    0 -0.40836046691E+02  0.53480298623E+02  0.93928136428E+02  0.11554315152E+03  0.00000000000E+00 0. -1.
        -12    1    3    3    0    0  0.20249093634E+02 -0.13564735375E+02  0.15200805297E+02  0.28724420281E+02  0.00000000000E+00 0.  1.
        -13    1    4    4    0    0  0.67619561958E+01 -0.45949534156E+02  0.32832989955E+01  0.46560324237E+02  0.00000000000E+00 0.  1.
         13    1    4    4    0    0 -0.36840984461E+02 -0.52131082637E+02  0.14427867284E+03  0.15776958944E+03  0.00000000000E+00 0. -1.
          2    1    1    2  501    0  0.50665981322E+02  0.58165053546E+02  0.47893486234E+03  0.48510701652E+03  0.00000000000E+00 0. -1.
<scales pt_clust_5="13000.00000" pt_clust_6="13000.00000" pt_clust_7="13000.00000" pt_clust_8="13000.00000" pt_clust_9="77.13768"></scales>
<clustering>
<clus scale="   77.138">  2  9  1 -1</clus>
<clus scale="   82.988">  5  6 -1 -1</clus>
<clus scale="   97.219">  7  8 -1 -1</clus>
<clus scale="  103.689">  1  5  2 -1</clus>
<clus scale="   77.138">  2  5  1 -1</clus>
</clustering>
</event>
<event>
 9    1  0.6270443E-005  0.1128987E+03  0.7546771E-02  0.1260796E+00
          1   -1    0    0  502    0 -0.00000000000E+00  0.00000000000E+00  0.13669789424E+03  0.13669789424E+03  0.00000000000E+00 0. -1.
         21   -1    0    0  501  502  0.00000000000E+00 -0.00000000000E+00 -0.14606890459E+03  0.14606890459E+03  0.00000000000E+00 0. -1.
         23    2    1    2    0    0 -0.27342061449E+02 -0.54858564928E+02  0.12335849264E+02  0.11194727481E+03  0.92859941254E+02 0.  0.
        -24    2    1    2    0    0  0.71354799942E+02  0.33112596945E+02 -0.40611819959E+02  0.11821338561E+03  0.78339856173E+02 0.  0.
         11    1    4    4    0    0  0.76162911938E+02  0.10622330078E+01 -0.16810280157E+02  0.78003224374E+02  0.00000000000E+00 0. -1.
        -12    1    4    4    0    0 -0.48081119960E+01  0.32050363937E+02 -0.23801539802E+02  0.40210161233E+02  0.00000000000E+00 0.  1.
        -13    1    3    3    0    0 -0.66412783068E+01 -0.66511485839E+02  0.38071305062E+02  0.76924044324E+02  0.00000000000E+00 0. -1.
         13    1    3    3    0    0 -0.20700783143E+02  0.11652920911E+02 -0.25735455798E+02  0.35023230485E+02  0.00000000000E+00 0.  1.
          2    1    1    2  501    0 -0.44012738493E+02  0.21745967983E+02  0.18904960338E+02  0.52606138411E+02  0.00000000000E+00 0. -1.
<scales pt_clust_5="13000.00000" pt_clust_6="13000.00000" pt_clust_7="13000.00000" pt_clust_8="13000.00000" pt_clust_9="49.09186"></scales>
<clustering>
<clus scale="   49.092">  2  9  1 -1</clus>
<clus scale="   78.340">  5  6 -1 -1</clus>
<clus scale="   92.860">  7  8 -1 -1</clus>
<clus scale="  101.293">  2  5  1 -1</clus>
<clus scale="   49.092">  2  5  1 -1</clus>
</clustering>
</event>
<event>
 9    1  0.6270443E-005  0.3883877E+03  0.7546771E-02  0.1095906E+00
         -2   -1    0    0    0  501 -0.00000000000E+00  0.00000000000E+00  0.43942921642E+03  0.43942921642E+03  0.00000000000E+00 0.  1.
         21   -1    0    0  501  502  0.00000000000E+00 -0.00000000000E+00 -0.43764576511E+03  0.43764576511E+03  0.00000000000E+00 0.  1.
         23    2    1    2    0    0 -0.42186607000E+02 -0.25874432722E+02 -0.18023350360E+01  0.10433585311E+03  0.91834229754E+02 0.  0.
        -24    2    1    2    0    0  0.34417673492E+03  0.21133304629E+03 -0.50563115270E+02  0.41423523966E+03  0.76908542051E+02 0.  0.
         13    1    4    4    0    0  0.28050060044E+03  0.20383654576E+03 -0.37099014008E+02  0.34872089280E+03  0.00000000000E+00 0. -1.
        -14    1    4    4    0    0  0.63676134480E+02  0.74965005317E+01 -0.13464101262E+02  0.65514346866E+02  0.00000000000E+00 0.  1.
        -13    1    3    3    0    0 -0.25031478928E+02 -0.48859544975E+02  0.29133775699E+02  0.62149874971E+02  0.00000000000E+00 0. -1.
         13    1    3    3    0    0 -0.17155128071E+02  0.22985112253E+02 -0.30936110735E+02  0.42185978142E+02  0.00000000000E+00 0.  1.
         -1    1    1    2    0  502 -0.30199012792E+03 -0.18545861357E+03  0.54148901612E+02  0.35850388876E+03  0.00000000000E+00 0.  1.
<scales pt_clust_5="13000.00000" pt_clust_6="13000.00000" pt_clust_7="13000.00000" pt_clust_8="13000.00000" pt_clust_9="380.69701"></scales>
<clustering>
<clus scale="   76.909">  5  6 -1 -1</clus>
<clus scale="   91.834">  7  8 -1 -1</clus>
<clus scale="  104.320">  1  7  2 -1</clus>
<clus scale="  380.697">  2  9  1 -1</clus>
<clus scale="  380.697">  2  5  1 -1</clus>
</clustering>
</event>
<event>
 9    1  0.6270443E-005  0.1266229E+03  0.7546771E-02  0.1234486E+00
         21   -1    0    0  501  502  0.00000000000E+00  0.00000000000E+00  0.95333519729E+03  0.95333519729E+03  0.00000000000E+00 0. -1.
          3   -1    0    0  502    0 -0.00000000000E+00 -0.00000000000E+00 -0.40783379002E+02  0.40783379002E+02  0.00000000000E+00 0. -1.
        -24    2    1    2    0    0  0.28832571163E+02 -0.10468649650E+03  0.31663930843E+03  0.34497238142E+03  0.83396118547E+02 0.  0.
         23    2    1    2    0    0  0.85834184471E+02  0.77503957305E+02  0.35480426162E+03  0.38077976133E+03  0.75715202922E+02 0.  0.
         13    1    3    3    0    0  0.50213672410E+02 -0.10273326778E+03  0.28086019838E+03  0.30324575552E+03  0.00000000000E+00 0. -1.
        -14    1    3    3    0    0 -0.21381101248E+02 -0.19532287194E+01  0.35779110051E+02  0.41726625900E+02  0.00000000000E+00 0.  1.
        -13    1    4    4    0    0  0.35828951032E+02  0.60715807874E+02  0.11222218517E+03  0.13252902286E+03  0.00000000000E+00 0.  1.
         13    1    4    4    0    0  0.50005233439E+02  0.16788149432E+02  0.24258207645E+03  0.24825073847E+03  0.00000000000E+00 0. -1.
          4    1    1    2  501    0 -0.11466675563E+03  0.27182539194E+02  0.24110824824E+03  0.26836643355E+03  0.00000000000E+00 0. -1.
<scales pt_clust_5="13000.00000" pt_clust_6="13000.00000" pt_clust_7="13000.00000" pt_clust_8="13000.00000" pt_clust_9="117.84468"></scales>
<clustering>
<clus scale="   75.715">  7  8 -1 -1</clus>
<clus scale="   83.396">  5  6 -1 -1</clus>
<clus scale="  117.845">  1  9  2 -1</clus>
<clus scale="  121.701">  1  7  2 -1</clus>
<clus scale="  117.845">  1  5  2 -1</clus>
</clustering>
</event>
<event>
 9    1  0.6270443E-005  0.1299206E+03  0.7546771E-02  0.1245763E+00
         21   -1    0    0  501  502  0.00000000000E+00  0.00000000000E+00  0.73893279417E+02  0.73893279417E+02  0.00000000000E+00 0.  1.
          1   -1    0    0  502    0 -0.00000000000E+00 -0.00000000000E+00 -0.44039831642E+03  0.44039831642E+03  0.00000000000E+00 0. -1.
        -24    2    1    2    0    0 -0.34743665880E+02  0.19286437513E+02 -0.11556775329E+02  0.90349812086E+02  0.80314634390E+02 0.  0.
         23    2    1    2    0    0 -0.58085682324E+02 -0.47248191145E+02 -0.26786991342E+03  0.29362760076E+03  0.94109188477E+02 0.  0.
         11    1    3    3    0    0 -0.80938877616E+00  0.30847426841E+02 -0.35654681084E+02  0.47153739365E+02  0.00000000000E+00 0. -1.
        -12    1    3    3    0    0 -0.33934277104E+02 -0.11560989328E+02  0.24097905754E+02  0.43196072721E+02  0.00000000000E+00 0.  1.
        -11    1    4    4    0    0 -0.56422335401E+02  0.82968567052E+01 -0.18702033076E+03  0.19552217747E+03  0.00000000000E+00 0.  1.
         11    1    4    4    0    0 -0.16633469232E+01 -0.55545047850E+02 -0.80849582652E+02  0.98105423288E+02  0.00000000000E+00 0. -1.
          2    1    1    2  501    0  0.92829348204E+02  0.27961753631E+02 -0.87078348261E+02  0.13031418300E+03  0.00000000000E+00 0. -1.
<scales pt_clust_5="13000.00000" pt_clust_6="13000.00000" pt_clust_7="13000.00000" pt_clust_8="13000.00000" pt_clust_9="89.57026"></scales>
<clustering>
<clus scale="   80.315">  5  6 -1 -1</clus>
<clus scale="   89.608">  2  5  1 -1</clus>
<clus scale="   89.570">  1  9  2 -1</clus>
<clus scale="   94.109">  7  8 -1 -1</clus>
<clus scale="   89.570">  1  5  2 -1</clus>
</clustering>
</event>
<event>
 9    1  0.6270443E-005  0.9957038E+02  0.7546771E-02  0.1284003E+00
          3   -1    0    0  502    0 -0.00000000000E+00  0.00000000000E+00  0.21409619910E+03  0.21409619910E+03  0.00000000000E+00 0. -1.
         21   -1    0    0  501  502  0.00000000000E+00 -0.00000000000E+00 -0.10787707084E+03  0.10787707084E+03  0.00000000000E+00 0. -1.
         23    2    1    2    0    0  0.44581283685E+02  0.19564852610E+02  0.12271399900E+03  0.15669911425E+03  0.84413343396E+02 0.  0.
        -24    2    1    2    0    0 -0.54191658339E+02 -0.54401981090E+02 -0.45716386437E+02  0.11879962717E+03  0.78275488164E+02 0.  0.
         11    1    4    4    0    0 -0.68868890037E+02 -0.20741593345E+02 -0.37730113732E+02  0.81220066434E+02  0.00000000000E+00 0. -1.
        -12    1    4    4    0    0  0.14677231698E+02 -0.33660387745E+02 -0.79862727044E+01  0.37579560737E+02  0.00000000000E+00 0.  1.
        -13    1    3    3    0    0 -0.15882465413E+02  0.26622562222E+02  0.18765137337E+02  0.36237327525E+02  0.00000000000E+00 0.  1.
         13    1    3    3    0    0  0.60463749098E+02 -0.70577096118E+01  0.10394886166E+03  0.12046178672E+03  0.00000000000E+00 0. -1.
          4    1    1    2  501    0  0.96103746533E+01  0.34837128480E+02  0.29221515698E+02  0.46474528523E+02  0.00000000000E+00 0. -1.
<scales pt_clust_5="13000.00000" pt_clust_6="13000.00000" pt_clust_7="13000.00000" pt_clust_8="13000.00000" pt_clust_9="36.13843"></scales>
<clustering>
<clus scale="   36.138">  2  9  1 -1</clus>
<clus scale="   78.275">  5  6 -1 -1</clus>
<clus scale="   84.413">  7  8 -1 -1</clus>
<clus scale="   94.423">  2  5  1 -1</clus>
<clus scale="   36.138">  2  5  1 -1</clus>
</clustering>
</event>
<event>
 9    1  0.6270443E-005  0.1381731E+03  0.7546771E-02  0.1241814E+00
         21   -1    0    0  501  502  0.00000000000E+00  0.00000000000E+00  0.28995244580E+03  0.28995244580E+03  0.00000000000E+00 0.  1.
         -2   -1    0    0    0  501 -0.00000000000E+00 -0.00000000000E+00 -0.17956638982E+03  0.17956638982E+03  0.00000000000E+00 0.  1.
        -24    2    1    2    0    0  0.48232327050E+01  0.32229075710E+00  0.14705636758E+03  0.16773046360E+03  0.80526801315E+02 0.  0.
         23    2    1    2    0    0 -0.59481595173E+02  0.95111208058E+02  0.63983393163E+02  0.15270363918E+03  0.81488187832E+02 0.  0.
         13    1    3    3    0    0  0.22031856681E+02 -0.75697398299E+01  0.42572182430E+01  0.23681798434E+02  0.00000000000E+00 0. -1.
        -14    1    3    3    0    0 -0.17208623976E+02  0.78920305870E+01  0.14279914934E+03  0.14404866517E+03  0.00000000000E+00 0.  1.
        -11    1    4    4    0    0 -0.25256531322E+02  0.79048018083E+02  0.56332590549E+01  0.83175808652E+02  0.00000000000E+00 0.  1.
         11    1    4    4    0    0 -0.34225063851E+02  0.16063189975E+02  0.58350134109E+02  0.69527830530E+02  0.00000000000E+00 0. -1.
         -1    1    1    2    0  502  0.54658362468E+02 -0.95433498815E+02 -0.10065370476E+03  0.14908473284E+03  0.00000000000E+00 0.  1.
<scales pt_clust_5="13000.00000" pt_clust_6="13000.00000" pt_clust_7="13000.00000" pt_clust_8="13000.00000" pt_clust_9="111.58622"></scales>
<clustering>
<clus scale="   80.527">  5  6 -1 -1</clus>
<clus scale="   80.672">  2  5  1 -1</clus>
<clus scale="   81.488">  7  8 -1 -1</clus>
<clus scale="  111.586">  1  9  2 -1</clus>
<clus scale="  111.586">  1  5  2 -1</clus>
</clustering>
</event>
<event>
 9    1  0.6270443E-005  0.1488636E+03  0.7546771E-02  0.1205115E+00
         21   -1    0    0  501  502  0.00000000000E+00  0.00000000000E+00  0.28849917418E+03  0.28849917418E+03  0.00000000000E+00 0. -1.
          3   -1    0    0  502    0 -0.00000000000E+00 -0.00000000000E+00 -0.11890405172E+03  0.11890405172E+03  0.00000000000E+00 0. -1.
         23    2    1    2    0    0  0.37055251176E+02  0.13640324369E+03  0.57246030503E+02  0.17801050748E+03  0.91824268236E+02 0.  0.
        -24    2    1    2    0    0  0.40419261333E+01 -0.90450308726E+02  0.11943472412E+03  0.16733744952E+03  0.74428308937E+02 0.  0.
         11    1    4    4    0    0 -0.33482722910E+02 -0.57814365361E+02  0.77169860818E+02  0.10207243014E+03  0.00000000000E+00 0. -1.
        -12    1    4    4    0    0  0.37524649044E+02 -0.32635943364E+02  0.42264863301E+02  0.65265019383E+02  0.00000000000E+00 0.  1.
        -11    1    3    3    0    0 -0.23797862664E+02  0.86190763588E+02  0.25629947956E+02  0.93016558889E+02  0.00000000000E+00 0. -1.
         11    1    3    3    0    0  0.60853113840E+02  0.50212480102E+02  0.31616082547E+02  0.84993948594E+02  0.00000000000E+00 0.  1.
          4    1    1    2  501    0 -0.41097177309E+02 -0.45952934965E+02 -0.70856321681E+01  0.62055268897E+02  0.00000000000E+00 0. -1.
<scales pt_clust_5="13000.00000" pt_clust_6="13000.00000" pt_clust_7="13000.00000" pt_clust_8="13000.00000" pt_clust_9="61.64944"></scales>
<clustering>
<clus scale="   61.649">  1  9  2 -1</clus>
<clus scale="   74.428">  5  6 -1 -1</clus>
<clus scale="   91.824">  7  8 -1 -1</clus>
<clus scale="  138.810">  1  5  2 -1</clus>
<clus scale="   61.649">  1  5  2 -1</clus>
</clustering>
</event>
<event>
 9    1  0.6270443E-005  0.1005578E+03  0.7546771E-02  0.1284570E+00
          3   -1    0    0  502    0 -0.00000000000E+00  0.00000000000E+00  0.97638875004E+02  0.97638875004E+02  0.00000000000E+00 0. -1.
         21   -1    0    0  501  502  0.00000000000E+00 -0.00000000000E+00 -0.17909389447E+03  0.17909389447E+03  0.00000000000E+00 0. -1.
         23    2    1    2    0    0 -0.21271300198E+02  0.28730197123E+02  0.34934498333E+01  0.98346586581E+02  0.91553014486E+02 0.  0.
        -24    2    1    2    0    0  0.32436807505E+02 -0.47256663965E+02 -0.10822909696E+03  0.14660747696E+03  0.80590794138E+02 0.  0.
         11    1    4    4    0    0  0.25076165488E+02 -0.70129585429E+02 -0.76026151184E+02  0.10642813769E+03  0.00000000000E+00 0. -1.
        -12    1    4    4    0    0  0.73606420171E+01  0.22872921463E+02 -0.32202945778E+02  0.40179339267E+02  0.00000000000E+00 0.  1.
        -11    1    3    3    0    0  0.28412849722E+02  0.38267062283E+02  0.45165364282E+00  0.47664054339E+02  0.00000000000E+00 0.  1.
         11    1    3    3    0    0 -0.49684149920E+02 -0.95368651598E+01  0.30417961905E+01  0.50682532241E+02  0.00000000000E+00 0. -1.
          4    1    1    2  501    0 -0.11165507307E+02  0.18526466842E+02  0.23280627659E+02  0.31778705941E+02  0.00000000000E+00 0. -1.
<scales pt_clust_5="13000.00000" pt_clust_6="13000.00000" pt_clust_7="13000.00000" pt_clust_8="13000.00000" pt_clust_9="21.63097"></scales>
<clustering>
<clus scale="   21.631">  2  9  1 -1</clus>
<clus scale="   80.591">  5  6 -1 -1</clus>
<clus scale="   90.691">  2  5  1 -1</clus>
<clus scale="   91.553">  7  8 -1 -1</clus>
<clus scale="   21.631">  2  5  1 -1</clus>
</clustering>
</event>
<event>
 9    1  0.6270443E-005  0.1096358E+03  0.7546771E-02  0.1265783E+00
         21   -1    0    0  501  502  0.00000000000E+00  0.00000000000E+00  0.94962554657E+02  0.94962554657E+02  0.00000000000E+00 0. -1.
          3   -1    0    0  502    0 -0.00000000000E+00 -0.00000000000E+00 -0.20569374554E+03  0.20569374554E+03  0.00000000000E+00 0. -1.
         23    2    1    2    0    0  0.70381019036E+02 -0.36561957188E+02 -0.88144235977E+02  0.14955311281E+03  0.91139797348E+02 0.  0.
        -24    2    1    2    0    0 -0.45300152182E+02 -0.14094003418E+02 -0.17007549643E+02  0.94303486769E+02  0.79706625520E+02 0.  0.
         11    1    4    4    0    0 -0.55880491009E+02 -0.22559812232E+02  0.12758450225E+02  0.61598315363E+02  0.00000000000E+00 0. -1.
        -12    1    4    4    0    0  0.10580338826E+02  0.84658088146E+01 -0.29765999868E+02  0.32705171406E+02  0.00000000000E+00 0.  1.
        -11    1    3    3    0    0  0.18212339034E+02  0.30500790137E+02 -0.21063055856E+02  0.41299392418E+02  0.00000000000E+00 0. -1.
         11    1    3    3    0    0  0.52168680001E+02 -0.67062747325E+02 -0.67081180121E+02  0.10825372039E+03  0.00000000000E+00 0.  1.
          4    1    1    2  501    0 -0.25080866853E+02  0.50655960606E+02 -0.55794052604E+01  0.56799700616E+02  0.00000000000E+00 0. -1.
<scales pt_clust_5="13000.00000" pt_clust_6="13000.00000" pt_clust_7="13000.00000" pt_clust_8="13000.00000" pt_clust_9="56.52501"></scales>
<clustering>
<clus scale="   56.525">  1  9  2 -1</clus>
<clus scale="   79.707">  5  6 -1 -1</clus>
<clus scale="   91.140">  7  8 -1 -1</clus>
<clus scale="  100.333">  1  5  2 -1</clus>
<clus scale="   56.525">  1  5  2 -1</clus>
</clustering>
</event>
<event>
 9    1  0.6270443E-005  0.1128281E+03  0.7546771E-02  0.1259896E+00
         21   -1    0    0  501  502  0.00000000000E+00  0.00000000000E+00  0.30895663624E+03  0.30895663624E+03  0.00000000000E+00 0.  1.
          1   -1    0    0  502    0 -0.00000000000E+00 -0.00000000000E+00 -0.86192964231E+02  0.86192964231E+02  0.00000000000E+00 0. -1.
         23    2    1    2    0    0  0.75693602911E+02  0.79468415142E+01 -0.15519111545E+02  0.12046581322E+03  0.92078746293E+02 0.  0.
        -24    2    1    2    0    0 -0.38022586072E+02  0.83090058930E+01  0.11967132277E+03  0.14917666908E+03  0.80110526600E+02 0.  0.
         11    1    4    4    0    0 -0.29269700607E+02 -0.34274265861E+02  0.52861564954E+02  0.69467875478E+02  0.00000000000E+00 0. -1.
        -12    1    4    4    0    0 -0.87528854648E+01  0.42583271754E+02  0.66809757817E+02  0.79708793598E+02  0.00000000000E+00 0.  1.
        -13    1    3    3    0    0  0.37995893772E+02  0.12820072492E+02 -0.53414304369E+02  0.66791691949E+02  0.00000000000E+00 0. -1.
         13    1    3    3    0    0  0.37697709140E+02 -0.48732309775E+01  0.37895192824E+02  0.53674121267E+02  0.00000000000E+00 0.  1.
          2    1    1    2  501    0 -0.37671016839E+02 -0.16255847407E+02  0.11861146078E+03  0.12550711818E+03  0.00000000000E+00 0. -1.
<scales pt_clust_5="13000.00000" pt_clust_6="13000.00000" pt_clust_7="13000.00000" pt_clust_8="13000.00000" pt_clust_9="41.02875"></scales>
<clustering>
<clus scale="   41.029">  1  9  2 -1</clus>
<clus scale="   80.111">  5  6 -1 -1</clus>
<clus scale="   92.079">  7  8 -1 -1</clus>
<clus scale="  103.293">  1  5  2 -1</clus>
<clus scale="   41.029">  1  5  2 -1</clus>
</clustering>
</event>
<event>
 9    1  0.6270443E-005  0.1679716E+03  0.7546771E-02  0.1185691E+00
         21   -1    0    0  501  502  0.00000000000E+00  0.00000000000E+00  0.10927053219E+03  0.10927053219E+03  0.00000000000E+00 0. -1.
         -2   -1    0    0    0  501 -0.00000000000E+00 -0.00000000000E+00 -0.38251816974E+03  0.38251816974E+03  0.00000000000E+00 0.  1.
         23    2    1    2    0    0  0.98240159642E+02 -0.61000237288E+02 -0.19903289263E+03  0.25703932065E+03  0.11438077678E+03 0.  0.
        -24    2    1    2    0    0 -0.12683063302E+03  0.65830441557E+02 -0.10891969908E+02  0.16510370749E+03  0.81981355857E+02 0.  0.
         13    1    4    4    0    0 -0.88014154817E+02  0.17088619760E+02  0.25153405490E+02  0.93119311537E+02  0.00000000000E+00 0. -1.
        -14    1    4    4    0    0 -0.38816478208E+02  0.48741821797E+02 -0.36045375398E+02  0.71984395949E+02  0.00000000000E+00 0.  1.
        -11    1    3    3    0    0  0.10706723172E+03 -0.79423541575E+02 -0.13458996637E+03  0.18943587335E+03  0.00000000000E+00 0. -1.
         11    1    3    3    0    0 -0.88270720785E+01  0.18423304286E+02 -0.64442926255E+02  0.67603447298E+02  0.00000000000E+00 0.  1.
         -1    1    1    2    0  502  0.28590473383E+02 -0.48302042691E+01 -0.63322775015E+02  0.69645673787E+02  0.00000000000E+00 0.  1.
<scales pt_clust_5="13000.00000" pt_clust_6="13000.00000" pt_clust_7="13000.00000" pt_clust_8="13000.00000" pt_clust_9="28.99564"></scales>
<clustering>
<clus scale="   28.996">  1  9  2 -1</clus>
<clus scale="   81.981">  5  6 -1 -1</clus>
<clus scale="  114.381">  7  8 -1 -1</clus>
<clus scale="  147.826">  1  5  2 -1</clus>
<clus scale="   28.996">  1  5  2 -1</clus>
</clustering>
</event>
<event>
 9    1  0.6971434E-005  0.2460949E+03  0.7546771E-02  0.1116455E+00
         21   -1    0    0  501  502  0.00000000000E+00  0.00000000000E+00  0.18344803996E+03  0.18344803996E+03  0.00000000000E+00 0. -1.
          1   -1    0    0  502    0 -0.00000000000E+00 -0.00000000000E+00 -0.71169755203E+03  0.71169755203E+03  0.00000000000E+00 0. -1.
         23    2    1    2    0    0 -0.50303348562E+02 -0.16034215248E+03 -0.63455298252E+02  0.20158744785E+03  0.91492576299E+02 0.  0.
        -24    2    1    2    0    0  0.17942813833E+03  0.25860757137E+03 -0.19523569761E+03  0.37892963694E+03  0.79989745200E+02 0.  0.
         13    1    4    4    0    0  0.18683576696E+03  0.23768462199E+03 -0.18544273134E+03  0.35466969133E+03  0.00000000000E+00 0. -1.
        -14    1    4    4    0    0 -0.74076286232E+01  0.20922949382E+02 -0.97929662769E+01  0.24259945614E+02  0.00000000000E+00 0.  1.
        -11    1    3    3    0    0 -0.41147038700E+02 -0.13176259463E+02 -0.73627745644E+01  0.43828108064E+02  0.00000000000E+00 0.  1.
         11    1    3    3    0    0 -0.91563098627E+01 -0.14716589301E+03 -0.56092523688E+02  0.15775933979E+03  0.00000000000E+00 0. -1.
          2    1    1    2  501    0 -0.12912478977E+03 -0.98265418894E+02 -0.26955851620E+03  0.31462850720E+03  0.00000000000E+00 0. -1.
<scales pt_clust_5="13000.00000" pt_clust_6="13000.00000" pt_clust_7="13000.00000" pt_clust_8="13000.00000" pt_clust_9="162.26315"></scales>
<clustering>
<clus scale="   79.990">  5  6 -1 -1</clus>
<clus scale="   91.493">  7  8 -1 -1</clus>
<clus scale="  162.263">  1  9  2 -1</clus>
<clus scale="  242.054">  1  5  2 -1</clus>
<clus scale="  162.263">  1  5  2 -1</clus>
</clustering>
</event>
<event>
 9    1  0.6270443E-005  0.1141350E+03  0.7546771E-02  0.1258056E+00
         21   -1    0    0  501  502  0.00000000000E+00  0.00000000000E+00  0.12132842212E+03  0.12132842212E+03  0.00000000000E+00 0. -1.
          1   -1    0    0  502    0 -0.00000000000E+00 -0.00000000000E+00 -0.61189602299E+03  0.61189602299E+03  0.00000000000E+00 0. -1.
        -24    2    1    2    0    0 -0.41414310244E+02  0.36509426453E+02 -0.29360251091E+02  0.10172631436E+03  0.80237992100E+02 0.  0.
         23    2    1    2    0    0 -0.35796571524E+01 -0.11025092781E+03  0.16900516596E+02  0.14564897926E+03  0.93594426488E+02 0.  0.
         11    1    3    3    0    0 -0.52975033202E+02  0.33705566911E+02 -0.48398611004E+02  0.79277013886E+02  0.00000000000E+00 0. -1.
        -12    1    3    3    0    0  0.11560722958E+02  0.28038595416E+01  0.19038359912E+02  0.22449300474E+02  0.00000000000E+00 0.  1.
        -13    1    4    4    0    0  0.31313228074E+02 -0.30853850562E+02  0.36029449914E+02  0.56838363875E+02  0.00000000000E+00 0.  1.
         13    1    4    4    0    0 -0.34892885227E+02 -0.79397077246E+02 -0.19128933318E+02  0.88810615382E+02  0.00000000000E+00 0. -1.
          2    1    1    2  501    0  0.44993967396E+02  0.73741501355E+02 -0.47810786638E+03  0.48584915150E+03  0.00000000000E+00 0. -1.
<scales pt_clust_5="13000.00000" pt_clust_6="13000.00000" pt_clust_7="13000.00000" pt_clust_8="13000.00000" pt_clust_9="86.38445"></scales>
<clustering>
<clus scale="   80.238">  5  6 -1 -1</clus>
<clus scale="   86.384">  1  9  2 -1</clus>
<clus scale="   93.594">  7  8 -1 -1</clus>
<clus scale="  103.465">  2  5  1 -1</clus>
<clus scale="   86.384">  1  5  2 -1</clus>
</clustering>
</event>
<event>
 9    1  0.6270443E-005  0.1034291E+03  0.7546771E-02  0.1278440E+00
         -2   -1    0    0    0  501 -0.00000000000E+00  0.00000000000E+00  0.84101056632E+03  0.84101056632E+03  0.00000000000E+00 0.  1.
         21   -1    0    0  501  502  0.00000000000E+00 -0.00000000000E+00 -0.31799623833E+02  0.31799623833E+02  0.00000000000E+00 0. -1.
        -24    2    1    2    0    0  0.11486118050E+02 -0.64978960705E+02  0.26040852386E+03  0.28026549705E+03  0.79887128472E+02 0.  0.
         23    2    1    2    0    0 -0.39297616516E+02  0.35694965196E+01  0.10850180304E+03  0.14711317892E+03  0.91173473008E+02 0.  0.
         13    1    3    3    0    0 -0.31673645472E+02 -0.42078742000E+02  0.16287357620E+03  0.17117722445E+03  0.00000000000E+00 0. -1.
        -14    1    3    3    0    0  0.43159763522E+02 -0.22900218706E+02  0.97534947661E+02  0.10908827260E+03  0.00000000000E+00 0.  1.
        -11    1    4    4    0    0  0.15453671974E+02 -0.14290211376E+02  0.80253418236E+02  0.82967688031E+02  0.00000000000E+00 0.  1.
         11    1    4    4    0    0 -0.54751288490E+02  0.17859707896E+02  0.28248384801E+02  0.64145490889E+02  0.00000000000E+00 0. -1.
         -1    1    1    2    0  502  0.27811498467E+02  0.61409464186E+02  0.44030061559E+03  0.44543151418E+03  0.00000000000E+00 0.  1.
<scales pt_clust_5="13000.00000" pt_clust_6="13000.00000" pt_clust_7="13000.00000" pt_clust_8="13000.00000" pt_clust_9="67.41370"></scales>
<clustering>
<clus scale="   67.414">  2  9  1 -1</clus>
<clus scale="   79.887">  5  6 -1 -1</clus>
<clus scale="   91.173">  7  8 -1 -1</clus>
<clus scale="   93.632">  1  5  2 -1</clus>
<clus scale="   67.414">  2  5  1 -1</clus>
</clustering>
</event>
<event>
 9    1  0.6270443E-005  0.9888217E+02  0.7546771E-02  0.1288019E+00
         21   -1    0    0  501  502  0.00000000000E+00  0.00000000000E+00  0.34311533659E+03  0.34311533659E+03  0.00000000000E+00 0. -1.
          3   -1    0    0  502    0 -0.00000000000E+00 -0.00000000000E+00 -0.23643747136E+03  0.23643747136E+03  0.00000000000E+00 0. -1.
        -24    2    1    2    0    0 -0.41174944588E+02 -0.77233641596E+01 -0.21556649852E+03  0.23347049463E+03  0.79275028624E+02 0.  0.
         23    2    1    2    0    0  0.29524401493E+02 -0.13857771652E+02  0.20350683868E+03  0.22483842507E+03  0.89852968125E+02 0.  0.
         13    1    3    3    0    0 -0.32851783432E+02  0.27788971619E+02 -0.16859996109E+03  0.17400406173E+03  0.00000000000E+00 0. -1.
        -14    1    3    3    0    0 -0.83231611568E+01 -0.35512335778E+02 -0.46966537429E+02  0.59466432903E+02  0.00000000000E+00 0.  1.
        -13    1    4    4    0    0  0.17175819440E+02  0.32857208466E+02  0.14122558030E+03  0.14601119633E+03  0.00000000000E+00 0.  1.
         13    1    4    4    0    0  0.12348582053E+02 -0.46714980118E+02  0.62281258371E+02  0.78827228738E+02  0.00000000000E+00 0. -1.
          4    1    1    2  501    0  0.11650543096E+02  0.21581135812E+02  0.11873752507E+03  0.12124388825E+03  0.00000000000E+00 0. -1.
<scales pt_clust_5="13000.00000" pt_clust_6="13000.00000" pt_clust_7="13000.00000" pt_clust_8="13000.00000" pt_clust_9="24.52510"></scales>
<clustering>
<clus scale="   24.525">  1  9  2 -1</clus>
<clus scale="   79.275">  5  6 -1 -1</clus>
<clus scale="   89.379">  2  5  1 -1</clus>
<clus scale="   89.853">  7  8 -1 -1</clus>
<clus scale="   24.525">  1  5  2 -1</clus>
</clustering>
</event>
<event>
 9    1  0.6270443E-005  0.9269582E+02  0.7546771E-02  0.1301719E+00
         21   -1    0    0  501  502  0.00000000000E+00  0.00000000000E+00  0.11371048470E+03  0.11371048470E+03  0.00000000000E+00 0.  1.
          1   -1    0    0  502    0 -0.00000000000E+00 -0.00000000000E+00 -0.21139053594E+03  0.21139053594E+03  0.00000000000E+00 0. -1.
         23    2    1    2    0    0  0.28047867329E+02 -0.39162804155E+01 -0.78386010775E+02  0.12153691975E+03  0.88458103440E+02 0.  0.
        -24    2    1    2    0    0  0.79736442477E+01  0.71182048645E+02  0.31994326009E+02  0.11162537452E+03  0.79411109349E+02 0.  0.
         11    1    4    4    0    0  0.18517634011E+02  0.80543558522E+01 -0.20554573889E+02  0.28814335413E+02  0.00000000000E+00 0. -1.
        -12    1    4    4    0    0 -0.10543989763E+02  0.63127692793E+02  0.52548899898E+02  0.82811039107E+02  0.00000000000E+00 0.  1.
        -13    1    3    3    0    0 -0.16087597205E+02  0.21902313452E+02  0.90246173820E+00  0.27190743932E+02  0.00000000000E+00 0.  1.
         13    1    3    3    0    0  0.44135464534E+02 -0.25818593868E+02 -0.79288472513E+02  0.94346175823E+02  0.00000000000E+00 0. -1.
          2    1    1    2  501    0 -0.36021511577E+02 -0.67265768229E+02 -0.51288366473E+02  0.91938726374E+02  0.00000000000E+00 0. -1.
<scales pt_clust_5="13000.00000" pt_clust_6="13000.00000" pt_clust_7="13000.00000" pt_clust_8="13000.00000" pt_clust_9="76.30360"></scales>
<clustering>
<clus scale="   76.304">  1  9  2 -1</clus>
<clus scale="   79.411">  5  6 -1 -1</clus>
<clus scale="   84.106">  1  5  2 -1</clus>
<clus scale="   88.458">  7  8 -1 -1</clus>
<clus scale="   76.304">  1  5  2 -1</clus>
</clustering>
</event>
<event>
 9    1  0.1142368E-004  0.9568608E+02  0.7546771E-02  0.1294827E+00
          1   -1    0    0  502    0 -0.00000000000E+00  0.00000000000E+00  0.26010200638E+03  0.26010200638E+03  0.00000000000E+00 0. -1.
         21   -1    0    0  501  502  0.00000000000E+00 -0.00000000000E+00 -0.22995106773E+03  0.22995106773E+03  0.00000000000E+00 0. -1.
         23    2    1    2    0    0  0.52363468565E+00  0.32590218271E+02  0.23123609900E+03  0.25046650506E+03  0.90559042373E+02 0.  0.
        -24    2    1    2    0    0 -0.29671463728E+02 -0.13774979230E+01 -0.14873459991E+03  0.17202614404E+03  0.81170929291E+02 0.  0.
         13    1    4    4    0    0 -0.57875629238E+02  0.46277968216E+00 -0.10641215345E+03  0.12113359991E+03  0.00000000000E+00 0. -1.
        -14    1    4    4    0    0  0.28204165509E+02 -0.18402776052E+01 -0.42322446463E+02  0.50892544133E+02  0.00000000000E+00 0.  1.
        -11    1    3    3    0    0  0.22698796721E+02 -0.25457246370E+02  0.82024546400E+02  0.88833174982E+02  0.00000000000E+00 0.  1.
         11    1    3    3    0    0 -0.22175162035E+02  0.58047464641E+02  0.14921155260E+03  0.16163333008E+03  0.00000000000E+00 0. -1.
          2    1    1    2  501    0  0.29147829043E+02 -0.31212720348E+02 -0.52350560433E+02  0.67560425007E+02  0.00000000000E+00 0. -1.
<scales pt_clust_5="13000.00000" pt_clust_6="13000.00000" pt_clust_7="13000.00000" pt_clust_8="13000.00000" pt_clust_9="42.70632"></scales>
<clustering>
<clus scale="   42.706">  2  9  1 -1</clus>
<clus scale="   81.171">  5  6 -1 -1</clus>
<clus scale="   86.854">  2  5  1 -1</clus>
<clus scale="   90.559">  7  8 -1 -1</clus>
<clus scale="   42.706">  2  5  1 -1</clus>
</clustering>
</event>
<event>
 9    1  0.6270443E-005  0.1153592E+03  0.7546771E-02  0.1254553E+00
         21   -1    0    0  501  502  0.00000000000E+00  0.00000000000E+00  0.12144230414E+03  0.12144230414E+03  0.00000000000E+00 0. -1.
          1   -1    0    0  502    0 -0.00000000000E+00 -0.00000000000E+00 -0.20393233531E+03  0.20393233531E+03  0.00000000000E+00 0. -1.
        -24    2    1    2    0    0 -0.36478507723E+01  0.79926285567E+02 -0.10551599772E+03  0.15474907825E+03  0.80075798503E+02 0.  0.
         23    2    1    2    0    0 -0.39407946910E+02 -0.44895259573E+02  0.34828900074E+02  0.11387801732E+03  0.90479721134E+02 0.  0.
         13    1    3    3    0    0  0.17601441811E+02  0.80615674677E+02 -0.52940781449E+02  0.98037870733E+02  0.00000000000E+00 0. -1.
        -14    1    3    3    0    0 -0.21249292583E+02 -0.68938911028E+00 -0.52575216268E+02  0.56711207519E+02  0.00000000000E+00 0.  1.
        -13    1    4    4    0    0 -0.35716198966E+02 -0.15922964031E+02  0.62447473203E+02  0.73680896856E+02  0.00000000000E+00 0. -1.
         13    1    4    4    0    0 -0.36917479442E+01 -0.28972295542E+02 -0.27618573129E+02  0.40197120463E+02  0.00000000000E+00 0.  1.
          2    1    1    2  501    0  0.43055797682E+02 -0.35031025994E+02 -0.11802933521E+02  0.56747543876E+02  0.00000000000E+00 0. -1.
<scales pt_clust_5="13000.00000" pt_clust_6="13000.00000" pt_clust_7="13000.00000" pt_clust_8="13000.00000" pt_clust_9="55.50653"></scales>
<clustering>
<clus scale="   55.507">  1  9  2 -1</clus>
<clus scale="   80.076">  5  6 -1 -1</clus>
<clus scale="   90.480">  7  8 -1 -1</clus>
<clus scale="  107.393">  2  5  1 -1</clus>
<clus scale="   55.507">  1  5  2 -1</clus>
</clustering>
</event>
<event>
 9    1  0.6270443E-005  0.9100642E+02  0.7546771E-02  0.1306304E+00
          3   -1    0    0  502    0 -0.00000000000E+00  0.00000000000E+00  0.19207659297E+03  0.19207659297E+03  0.00000000000E+00 0. -1.
         21   -1    0    0  501  502  0.00000000000E+00 -0.00000000000E+00 -0.79978136335E+02  0.79978136335E+02  0.00000000000E+00 0.  1.
         23    2    1    2    0    0 -0.46449828790E+01 -0.86029139412E+01  0.93601069711E+02  0.13021559829E+03  0.89996420999E+02 0.  0.
        -24    2    1    2    0    0  0.33624033885E+02  0.10871609832E+01 -0.23337909266E+02  0.90395336956E+02  0.80590950862E+02 0.  0.
         13    1    4    4    0    0  0.10436107208E+02 -0.17117742314E+02  0.26053864366E+02  0.32874508118E+02  0.00000000000E+00 0. -1.
        -14    1    4    4    0    0  0.23187926677E+02  0.18204903297E+02 -0.49391773633E+02  0.57520828838E+02  0.00000000000E+00 0.  1.
        -11    1    3    3    0    0 -0.27961180609E+01  0.32510283746E+02  0.56552000015E+01  0.33116734629E+02  0.00000000000E+00 0.  1.
         11    1    3    3    0    0 -0.18488648181E+01 -0.41113197687E+02  0.87945869710E+02  0.97098863661E+02  0.00000000000E+00 0. -1.
          4    1    1    2  501    0 -0.28979051006E+02  0.75157529579E+01  0.41835296190E+02  0.51443794058E+02  0.00000000000E+00 0. -1.
<scales pt_clust_5="13000.00000" pt_clust_6="13000.00000" pt_clust_7="13000.00000" pt_clust_8="13000.00000" pt_clust_9="29.93782"></scales>
<clustering>
<clus scale="   29.938">  2  9  1 -1</clus>
<clus scale="   80.591">  5  6 -1 -1</clus>
<clus scale="   81.717">  2  5  1 -1</clus>
<clus scale="   89.996">  7  8 -1 -1</clus>
<clus scale="   29.938">  2  5  1 -1</clus>
</clustering>
</event>
<event>
 9    1  0.6270443E-005  0.1505565E+03  0.7546771E-02  0.1200604E+00
         21   -1    0    0  501  502  0.00000000000E+00  0.00000000000E+00  0.35516213166E+03  0.35516213166E+03  0.00000000000E+00 0. -1.
          1   -1    0    0  502    0 -0.00000000000E+00 -0.00000000000E+00 -0.55549740872E+03  0.55549740872E+03  0.00000000000E+00 0. -1.
        -24    2    1    2    0    0  0.89131997037E+02 -0.88853474095E+02 -0.52084136582E+03  0.54226693374E+03  0.83296136295E+02 0.  0.
         23    2    1    2    0    0 -0.21536772349E+02  0.52188573070E+02  0.19443040770E+03  0.22071557145E+03  0.87890274317E+02 0.  0.
         11    1    3    3    0    0  0.23240095977E+02 -0.68605484037E+02 -0.36099680964E+03  0.36819222028E+03  0.00000000000E+00 0. -1.
        -12    1    3    3    0    0  0.65891901060E+02 -0.20247990058E+02 -0.15984455618E+03  0.17407471346E+03  0.00000000000E+00 0.  1.
        -13    1    4    4    0    0 -0.25318145784E+02  0.18650165648E+02  0.96718450555E+01  0.32899570991E+02  0.00000000000E+00 0.  1.
         13    1    4    4    0    0  0.37813734345E+01  0.33538407422E+02  0.18475856265E+03  0.18781600046E+03  0.00000000000E+00 0. -1.
          2    1    1    2  501    0 -0.67595224688E+02  0.36664901025E+02  0.12607568106E+03  0.14767703519E+03  0.00000000000E+00 0. -1.
<scales pt_clust_5="13000.00000" pt_clust_6="13000.00000" pt_clust_7="13000.00000" pt_clust_8="13000.00000" pt_clust_9="76.89883"></scales>
<clustering>
<clus scale="   76.899">  1  9  2 -1</clus>
<clus scale="   83.296">  5  6 -1 -1</clus>
<clus scale="   87.890">  7  8 -1 -1</clus>
<clus scale="  147.922">  2  5  1 -1</clus>
<clus scale="   76.899">  1  5  2 -1</clus>
</clustering>
</event>
<event>
 9    1  0.6270443E-005  0.1620176E+03  0.7546771E-02  0.1187462E+00
         -2   -1    0    0    0  501 -0.00000000000E+00  0.00000000000E+00  0.25257432967E+03  0.25257432967E+03  0.00000000000E+00 0.  1.
         21   -1    0    0  501  502  0.00000000000E+00 -0.00000000000E+00 -0.15180188994E+03  0.15180188994E+03  0.00000000000E+00 0.  1.
         23    2    1    2    0    0 -0.10799221719E+03 -0.11478085063E+03  0.10030426581E+03  0.20045310689E+03  0.72687961015E+02 0.  0.
        -24    2    1    2    0    0  0.86768212463E+02  0.69831884997E+02 -0.36370130874E+02  0.14205285664E+03  0.80318197216E+02 0.  0.
         13    1    4    4    0    0  0.67563352925E+02  0.58071556962E+02  0.10839247723E+02  0.89747432708E+02  0.00000000000E+00 0. -1.
        -14    1    4    4    0    0  0.19204859538E+02  0.11760328035E+02 -0.47209378597E+02  0.52305423934E+02  0.00000000000E+00 0.  1.
        -13    1    3    3    0    0 -0.54483210162E+02 -0.15668990470E+02  0.55192604037E+02  0.79121179164E+02  0.00000000000E+00 0. -1.
         13    1    3    3    0    0 -0.53509007028E+02 -0.99111860158E+02  0.45111661771E+02  0.12133192772E+03  0.00000000000E+00 0.  1.
         -1    1    1    2    0  502  0.21224004726E+02  0.44948965632E+02  0.36838304799E+02  0.61870256089E+02  0.00000000000E+00 0.  1.
<scales pt_clust_5="13000.00000" pt_clust_6="13000.00000" pt_clust_7="13000.00000" pt_clust_8="13000.00000" pt_clust_9="49.70785"></scales>
<clustering>
<clus scale="   49.708">  2  9  1 -1</clus>
<clus scale="   72.688">  7  8 -1 -1</clus>
<clus scale="   80.318">  5  6 -1 -1</clus>
<clus scale="  158.374">  1  7  2 -1</clus>
<clus scale="   49.708">  2  5  1 -1</clus>
</clustering>
</event>
<event>
 9    1  0.6270443E-005  0.1533517E+03  0.7546771E-02  0.1198473E+00
         -2   -1    0    0    0  501 -0.00000000000E+00  0.00000000000E+00  0.29016481479E+03  0.29016481479E+03  0.00000000000E+00 0.  1.
         21   -1    0    0  501  502  0.00000000000E+00 -0.00000000000E+00 -0.18320280453E+03  0.18320280453E+03  0.00000000000E+00 0.  1.
         23    2    1    2    0    0  0.76346380778E+02  0.88685157515E+02  0.17534722909E+03  0.22986132410E+03  0.91628328297E+02 0.  0.
        -24    2    1    2    0    0 -0.86088180528E+02 -0.10972824724E+03  0.10726848592E+02  0.16106581063E+03  0.79847773934E+02 0.  0.
         11    1    4    4    0    0 -0.18643835427E+02  0.93204533215E+01 -0.92230165318E+01  0.22793145538E+02  0.00000000000E+00 0. -1.
        -12    1    4    4    0    0 -0.67444345100E+02 -0.11904870056E+03  0.19949865124E+02  0.13827266509E+03  0.00000000000E+00 0.  1.
        -11    1    3    3    0    0  0.41277317057E+02  0.20884175200E+02  0.94077779455E+01  0.47206694049E+02  0.00000000000E+00 0. -1.
         11    1    3    3    0    0  0.35069063721E+02  0.67800982315E+02  0.16593945114E+03  0.18265463005E+03  0.00000000000E+00 0.  1.
         -1    1    1    2    0  502  0.97417997499E+01  0.21043089728E+02 -0.79112067423E+02  0.82440484591E+02  0.00000000000E+00 0.  1.
<scales pt_clust_5="13000.00000" pt_clust_6="13000.00000" pt_clust_7="13000.00000" pt_clust_8="13000.00000" pt_clust_9="23.18867"></scales>
<clustering>
<clus scale="   23.189">  2  9  1 -1</clus>
<clus scale="   79.848">  5  6 -1 -1</clus>
<clus scale="   91.628">  7  8 -1 -1</clus>
<clus scale="  146.617">  2  5  1 -1</clus>
<clus scale="   23.189">  2  5  1 -1</clus>
</clustering>
</event>
<event>
 9    1  0.1035211E-004  0.1373022E+03  0.7546771E-02  0.1242024E+00
         -2   -1    0    0    0  501 -0.00000000000E+00  0.00000000000E+00  0.21279113351E+03  0.21279113351E+03  0.00000000000E+00 0.  1.
         21   -1    0    0  501  502  0.00000000000E+00 -0.00000000000E+00 -0.44816167701E+03  0.44816167701E+03  0.00000000000E+00 0.  1.
        -24    2    1    2    0    0  0.17800805152E+02 -0.46936106161E+01 -0.21052900741E+02  0.84531465043E+02  0.79771206009E+02 0.  0.
         23    2    1    2    0    0  0.29096910909E+02 -0.98720921027E+02 -0.36381672723E+03  0.38868765808E+03  0.90127876135E+02 0.  0.
         11    1    3    3    0    0 -0.27128529817E+02  0.16739452688E+02 -0.52731034676E+01  0.32310555961E+02  0.00000000000E+00 0. -1.
        -12    1    3    3    0    0  0.44929334969E+02 -0.21433063305E+02 -0.15779797273E+02  0.52220909082E+02  0.00000000000E+00 0.  1.
        -11    1    4    4    0    0  0.85801213376E+01 -0.10787504396E+03 -0.33562029954E+03  0.35263526349E+03  0.00000000000E+00 0.  1.
         11    1    4    4    0    0  0.20516789571E+02  0.91541229376E+01 -0.28196427687E+02  0.36052394586E+02  0.00000000000E+00 0. -1.
         -1    1    1    2    0  502 -0.46897716061E+02  0.10341453164E+03  0.14949908447E+03  0.18773368740E+03  0.00000000000E+00 0.  1.
<scales pt_clust_5="13000.00000" pt_clust_6="13000.00000" pt_clust_7="13000.00000" pt_clust_8="13000.00000" pt_clust_9="103.58022"></scales>
<clustering>
<clus scale="   79.771">  5  6 -1 -1</clus>
<clus scale="   81.868">  1  5  2 -1</clus>
<clus scale="   90.128">  7  8 -1 -1</clus>
<clus scale="  103.580">  2  9  1 -1</clus>
<clus scale="  103.580">  2  5  1 -1</clus>
</clustering>
</event>
<event>
 9    1  0.6270443E-005  0.1076268E+03  0.7546771E-02  0.1274850E+00
         21   -1    0    0  501  502  0.00000000000E+00  0.00000000000E+00  0.68684343100E+02  0.68684343100E+02  0.00000000000E+00 0.  1.
          1   -1    0    0  502    0 -0.00000000000E+00 -0.00000000000E+00 -0.40863536830E+03  0.40863536830E+03  0.00000000000E+00 0. -1.
        -24    2    1    2    0    0  0.28718099475E+02 -0.26045639342E+01 -0.23613228411E+03  0.25174535489E+03  0.82375694935E+02 0.  0.
         23    2    1    2    0    0 -0.46132567666E+02 -0.15555837561E+02 -0.14090906830E+03  0.18075520594E+03  0.10220998515E+03 0.  0.
         13    1    3    3    0    0  0.46994388259E+02  0.11342673566E+02 -0.21549537686E+03  0.22085150264E+03  0.00000000000E+00 0. -1.
        -14    1    3    3    0    0 -0.18276288784E+02 -0.13947237500E+02 -0.20636907256E+02  0.30893852247E+02  0.00000000000E+00 0.  1.
        -11    1    4    4    0    0  0.14554144258E+02 -0.35298676756E+02 -0.17882620049E+02  0.42161686347E+02  0.00000000000E+00 0.  1.
         11    1    4    4    0    0 -0.60686711925E+02  0.19742839195E+02 -0.12302644825E+03  0.13859351959E+03  0.00000000000E+00 0. -1.
          2    1    1    2  501    0  0.17414468191E+02  0.18160401495E+02  0.37090327216E+02  0.44819150570E+02  0.00000000000E+00 0. -1.
<scales pt_clust_5="13000.00000" pt_clust_6="13000.00000" pt_clust_7="13000.00000" pt_clust_8="13000.00000" pt_clust_9="25.16076"></scales>
<clustering>
<clus scale="   25.161">  1  9  2 -1</clus>
<clus scale="   82.376">  5  6 -1 -1</clus>
<clus scale="   89.008">  2  5  1 -1</clus>
<clus scale="  102.210">  7  8 -1 -1</clus>
<clus scale="   25.161">  1  5  2 -1</clus>
</clustering>
</event>
<event>
 9    1  0.6270443E-005  0.7911713E+02  0.7546771E-02  0.1333236E+00
         21   -1    0    0  501  502  0.00000000000E+00  0.00000000000E+00  0.45180402210E+02  0.45180402210E+02  0.00000000000E+00 0. -1.
          1   -1    0    0  502    0 -0.00000000000E+00 -0.00000000000E+00 -0.42934436207E+03  0.42934436207E+03  0.00000000000E+00 0. -1.
         23    2    1    2    0    0 -0.10902741203E+02  0.36884860647E+01 -0.20010437697E+03  0.21435872458E+03  0.75996226377E+02 0.  0.
        -24    2    1    2    0    0  0.62661660476E+01  0.48062500987E+02 -0.28853792871E+02  0.96494112530E+02  0.78289868769E+02 0.  0.
         11    1    4    4    0    0  0.25445586006E+02  0.60006747889E+02 -0.78589378640E+01  0.65650975193E+02  0.00000000000E+00 0. -1.
        -12    1    4    4    0    0 -0.19179419959E+02 -0.11944246902E+02 -0.20994855007E+02  0.30843137337E+02  0.00000000000E+00 0.  1.
        -11    1    3    3    0    0  0.28840365388E+02 -0.14604063750E+02 -0.70225545931E+02  0.77308942917E+02  0.00000000000E+00 0.  1.
         11    1    3    3    0    0 -0.39743106590E+02  0.18292549815E+02 -0.12987883104E+03  0.13704978166E+03  0.00000000000E+00 0. -1.
          2    1    1    2  501    0  0.46365751551E+01 -0.51750987052E+02 -0.15520579001E+03  0.16367192717E+03  0.00000000000E+00 0. -1.
<scales pt_clust_5="13000.00000" pt_clust_6="13000.00000" pt_clust_7="13000.00000" pt_clust_8="13000.00000" pt_clust_9="51.95830"></scales>
<clustering>
<clus scale="   51.958">  1  9  2 -1</clus>
<clus scale="   75.996">  7  8 -1 -1</clus>
<clus scale="   76.848">  2  7  1 -1</clus>
<clus scale="   78.290">  5  6 -1 -1</clus>
<clus scale="   51.958">  1  5  2 -1</clus>
</clustering>
</event>
<event>
 9    1  0.6270443E-005  0.1388210E+03  0.7546771E-02  0.1217349E+00
         21   -1    0    0  501  502  0.00000000000E+00  0.00000000000E+00  0.33849842448E+03  0.33849842448E+03  0.00000000000E+00 0. -1.
          3   -1    0    0  502    0 -0.00000000000E+00 -0.00000000000E+00 -0.11220150246E+03  0.11220150246E+03  0.00000000000E+00 0. -1.
        -24    2    1    2    0    0 -0.71315535423E+02 -0.73201400414E+02 -0.19392266422E+02  0.13234667197E+03  0.81824391036E+02 0.  0.
         23    2    1    2    0    0  0.92734984937E+02  0.61795021056E+02  0.25423952248E+03  0.29262376761E+03  0.92587971795E+02 0.  0.
         13    1    3    3    0    0  0.17851239042E+02 -0.19121927232E+02 -0.84457618082E+01  0.27489011057E+02  0.00000000000E+00 0. -1.
        -14    1    3    3    0    0 -0.89166774465E+02 -0.54079473182E+02 -0.10946504614E+02  0.10485766091E+03  0.00000000000E+00 0.  1.
        -11    1    4    4    0    0  0.67038425920E+02 -0.14935536611E+01  0.17825656615E+03  0.19045152829E+03  0.00000000000E+00 0. -1.
         11    1    4    4    0    0  0.25696559017E+02  0.63288574717E+02  0.75982956329E+02  0.10217223932E+03  0.00000000000E+00 0.  1.
          4    1    1    2  501    0 -0.21419449514E+02  0.11406379358E+02 -0.85503340384E+01  0.25729487358E+02  0.00000000000E+00 0. -1.
<scales pt_clust_5="13000.00000" pt_clust_6="13000.00000" pt_clust_7="13000.00000" pt_clust_8="13000.00000" pt_clust_9="24.26724"></scales>
<clustering>
<clus scale="   24.267">  1  9  2 -1</clus>
<clus scale="   81.824">  5  6 -1 -1</clus>
<clus scale="   92.588">  7  8 -1 -1</clus>
<clus scale="  131.886">  2  5  1 -1</clus>
<clus scale="   24.267">  1  5  2 -1</clus>
</clustering>
</event>
<event>
 9    1  0.6270443E-005  0.1106668E+03  0.7546771E-02  0.1265402E+00
         21   -1    0    0  501  502  0.00000000000E+00  0.00000000000E+00  0.56395978429E+02  0.56395978429E+02  0.00000000000E+00 0. -1.
          1   -1    0    0  502    0 -0.00000000000E+00 -0.00000000000E+00 -0.42238628956E+03  0.42238628956E+03  0.00000000000E+00 0. -1.
        -24    2    1    2    0    0 -0.27549466133E+02 -0.47768909591E+02 -0.22845652110E+03  0.24811221933E+03  0.79538981268E+02 0.  0.
         23    2    1    2    0    0 -0.15368358195E+02  0.80780399691E+02 -0.67795402736E+02  0.14237995416E+03  0.94414910406E+02 0.  0.
         13    1    3    3    0    0 -0.36722735455E+02 -0.47423259697E+02 -0.23094053399E+03  0.23860229484E+03  0.00000000000E+00 0. -1.
        -14    1    3    3    0    0  0.91732693213E+01 -0.34564989350E+00  0.24840128929E+01  0.95099244972E+01  0.00000000000E+00 0.  1.
        -13    1    4    4    0    0 -0.21935920107E+02 -0.16597540048E+02 -0.12619953754E+02  0.30264271994E+02  0.00000000000E+00 0.  1.
         13    1    4    4    0    0  0.65675619121E+01  0.97377939739E+02 -0.55175448982E+02  0.11211568217E+03  0.00000000000E+00 0. -1.
          2    1    1    2  501    0  0.42917824328E+02 -0.33011490100E+02 -0.69738387298E+02  0.88290094499E+02  0.00000000000E+00 0. -1.
<scales pt_clust_5="13000.00000" pt_clust_6="13000.00000" pt_clust_7="13000.00000" pt_clust_8="13000.00000" pt_clust_9="54.14518"></scales>
<clustering>
<clus scale="   54.145">  1  9  2 -1</clus>
<clus scale="   79.539">  5  6 -1 -1</clus>
<clus scale="   94.415">  7  8 -1 -1</clus>
<clus scale="   98.282">  2  5  1 -1</clus>
<clus scale="   54.145">  1  5  2 -1</clus>
</clustering>
</event>
<event>
 9    1  0.6708391E-005  0.1232921E+03  0.7546771E-02  0.1240752E+00
          1   -1    0    0  502    0 -0.00000000000E+00  0.00000000000E+00  0.10813458601E+04  0.10813458601E+04  0.00000000000E+00 0. -1.
         21   -1    0    0  501  502  0.00000000000E+00 -0.00000000000E+00 -0.57883341527E+02  0.57883341527E+02  0.00000000000E+00 0. -1.
         23    2    1    2    0    0 -0.18697124534E+02 -0.81610716149E+02  0.69489700651E+03  0.70583454124E+03  0.91162813136E+02 0.  0.
        -24    2    1    2    0    0 -0.29631665587E+02  0.83780273069E+02  0.21067362565E+02  0.12211425484E+03  0.81061012259E+02 0.  0.
         13    1    4    4    0    0  0.52429430108E+01  0.69322279130E+02 -0.13624174248E+02  0.70842677527E+02  0.00000000000E+00 0. -1.
        -14    1    4    4    0    0 -0.34874608598E+02  0.14457993939E+02  0.34691536814E+02  0.51271577312E+02  0.00000000000E+00 0.  1.
        -13    1    3    3    0    0 -0.18714680583E+02  0.16850890860E+02  0.12886522465E+03  0.13130284809E+03  0.00000000000E+00 0.  1.
         13    1    3    3    0    0  0.17556049778E-01 -0.98461607009E+02  0.56603178186E+03  0.57453169316E+03  0.00000000000E+00 0. -1.
          2    1    1    2  501    0  0.48328790120E+02 -0.21695569205E+01  0.30749814947E+03  0.31128040552E+03  0.00000000000E+00 0. -1.
<scales pt_clust_5="13000.00000" pt_clust_6="13000.00000" pt_clust_7="13000.00000" pt_clust_8="13000.00000" pt_clust_9="48.37749"></scales>
<clustering>
<clus scale="   48.377">  2  9  1 -1</clus>
<clus scale="   81.061">  5  6 -1 -1</clus>
<clus scale="   91.163">  7  8 -1 -1</clus>
<clus scale="  116.022">  2  5  1 -1</clus>
<clus scale="   48.377">  2  5  1 -1</clus>
</clustering>
</event>
<event>
 9    1  0.6460180E-005  0.9206154E+02  0.7546771E-02  0.1304626E+00
         21   -1    0    0  501  502  0.00000000000E+00  0.00000000000E+00  0.12699500969E+03  0.12699500969E+03  0.00000000000E+00 0. -1.
          3   -1    0    0  502    0 -0.00000000000E+00 -0.00000000000E+00 -0.29467101184E+03  0.29467101184E+03  0.00000000000E+00 0. -1.
         23    2    1    2    0    0  0.68254923108E+01  0.10666655829E+02 -0.26381441201E+03  0.27949397213E+03  0.91424677079E+02 0.  0.
        -24    2    1    2    0    0  0.32142096063E+01  0.10109579591E+02  0.70335729617E+02  0.10755664993E+03  0.80677031059E+02 0.  0.
         11    1    4    4    0    0  0.34925477100E+02 -0.74732028279E+01  0.98741446162E+01  0.37055855719E+02  0.00000000000E+00 0. -1.
        -12    1    4    4    0    0 -0.31711267493E+02  0.17582782419E+02  0.60461585001E+02  0.70500794211E+02  0.00000000000E+00 0.  1.
        -11    1    3    3    0    0  0.32254050911E+02 -0.26504399481E+02 -0.17503469084E+03  0.17994429691E+03  0.00000000000E+00 0.  1.
         11    1    3    3    0    0 -0.25428558600E+02  0.37171055310E+02 -0.88779721176E+02  0.99549675225E+02  0.00000000000E+00 0. -1.
          4    1    1    2  501    0 -0.10039701917E+02 -0.20776235420E+02  0.25802680245E+02  0.34615399473E+02  0.00000000000E+00 0. -1.
<scales pt_clust_5="13000.00000" pt_clust_6="13000.00000" pt_clust_7="13000.00000" pt_clust_8="13000.00000" pt_clust_9="23.07483"></scales>
<clustering>
<clus scale="   23.075">  1  9  2 -1</clus>
<clus scale="   80.677">  5  6 -1 -1</clus>
<clus scale="   81.398">  1  5  2 -1</clus>
<clus scale="   91.425">  7  8 -1 -1</clus>
<clus scale="   23.075">  1  5  2 -1</clus>
</clustering>
</event>
<event>
 9    1  0.6270443E-005  0.9459782E+02  0.7546771E-02  0.1296145E+00
         -2   -1    0    0    0  501 -0.00000000000E+00  0.00000000000E+00  0.10519839356E+03  0.10519839356E+03  0.00000000000E+00 0.  1.
         21   -1    0    0  501  502  0.00000000000E+00 -0.00000000000E+00 -0.11255871768E+03  0.11255871768E+03  0.00000000000E+00 0. -1.
        -24    2    1    2    0    0 -0.17645855343E+01  0.33874076536E+02 -0.88463937898E+01  0.87525734514E+02  0.80199306080E+02 0.  0.
         23    2    1    2    0    0  0.29343993746E+02 -0.30743896422E+02 -0.14020347087E+02  0.98437183146E+02  0.87675833370E+02 0.  0.
         13    1    3    3    0    0 -0.24142319230E+02  0.42829579167E+02 -0.28142587423E+02  0.56650063162E+02  0.00000000000E+00 0. -1.
        -14    1    3    3    0    0  0.22377733696E+02 -0.89555026306E+01  0.19296193633E+02  0.30875671352E+02  0.00000000000E+00 0.  1.
        -13    1    4    4    0    0  0.50923119232E+02 -0.47819796854E+02 -0.85085450352E+01  0.70372525761E+02  0.00000000000E+00 0. -1.
         13    1    4    4    0    0 -0.21579125486E+02  0.17075900431E+02 -0.55118020514E+01  0.28064657385E+02  0.00000000000E+00 0.  1.
         -1    1    1    2    0  502 -0.27579408212E+02 -0.31301801135E+01  0.15506416750E+02  0.31794193578E+02  0.00000000000E+00 0.  1.
<scales pt_clust_5="13000.00000" pt_clust_6="13000.00000" pt_clust_7="13000.00000" pt_clust_8="13000.00000" pt_clust_9="27.75649"></scales>
<clustering>
<clus scale="   27.756">  2  9  1 -1</clus>
<clus scale="   80.199">  5  6 -1 -1</clus>
<clus scale="   87.676">  7  8 -1 -1</clus>
<clus scale="   87.713">  1  5  2 -1</clus>
<clus scale="   27.756">  2  5  1 -1</clus>
</clustering>
</event>
<event>
 9    1  0.6270443E-005  0.9624265E+02  0.7546771E-02  0.1289673E+00
          1   -1    0    0  502    0 -0.00000000000E+00  0.00000000000E+00  0.60092015845E+03  0.60092015845E+03  0.00000000000E+00 0. -1.
         21   -1    0    0  501  502  0.00000000000E+00 -0.00000000000E+00 -0.43856743264E+02  0.43856743264E+02  0.00000000000E+00 0. -1.
         23    2    1    2    0    0  0.19323478665E+01 -0.25569941893E+02  0.37403686882E+03  0.38628625464E+03  0.93037279598E+02 0.  0.
        -24    2    1    2    0    0 -0.61441993879E+02  0.12553034378E+01  0.74934937437E+02  0.13272739515E+03  0.90689702704E+02 0.  0.
         11    1    4    4    0    0 -0.85249452364E+02 -0.24694477024E+01  0.61411909747E+02  0.10509514717E+03  0.00000000000E+00 0. -1.
        -12    1    4    4    0    0  0.23807458484E+02  0.37247511402E+01  0.13523027689E+02  0.27632247980E+02  0.00000000000E+00 0.  1.
        -11    1    3    3    0    0 -0.39687565043E+02  0.10295914213E+02  0.18078499895E+03  0.18537617030E+03  0.00000000000E+00 0. -1.
         11    1    3    3    0    0  0.41619912910E+02 -0.35865856106E+02  0.19325186986E+03  0.20091008434E+03  0.00000000000E+00 0.  1.
          2    1    1    2  501    0  0.59509646013E+02  0.24314638455E+02  0.10809160894E+03  0.12576325192E+03  0.00000000000E+00 0. -1.
<scales pt_clust_5="13000.00000" pt_clust_6="13000.00000" pt_clust_7="13000.00000" pt_clust_8="13000.00000" pt_clust_9="64.28530"></scales>
<clustering>
<clus scale="   64.285">  2  9  1 -1</clus>
<clus scale="   90.690">  5  6 -1 -1</clus>
<clus scale="   93.037">  7  8 -1 -1</clus>
<clus scale="   93.975">  2  5  1 -1</clus>
<clus scale="   64.285">  2  5  1 -1</clus>
</clustering>
</event>
<event>
 9    1  0.6270443E-005  0.1323818E+03  0.7546771E-02  0.1225213E+00
          1   -1    0    0  502    0 -0.00000000000E+00  0.00000000000E+00  0.45333872756E+03  0.45333872756E+03  0.00000000000E+00 0. -1.
         21   -1    0    0  501  502  0.00000000000E+00 -0.00000000000E+00 -0.14702840408E+03  0.14702840408E+03  0.00000000000E+00 0.  1.
         23    2    1    2    0    0  0.11005595602E+03 -0.20898948128E+02  0.38999478527E+03  0.41461952847E+03  0.85231105587E+02 0.  0.
        -24    2    1    2    0    0 -0.37113537229E+02  0.26336568488E+02 -0.37613702932E+02  0.99302944590E+02  0.79845191907E+02 0.  0.
         11    1    4    4    0    0  0.93657897463E+01  0.22030887534E+02  0.15556996026E+02  0.28549923791E+02  0.00000000000E+00 0. -1.
        -12    1    4    4    0    0 -0.46479326976E+02  0.43056809541E+01 -0.53170698957E+02  0.70753020799E+02  0.00000000000E+00 0.  1.
        -13    1    3    3    0    0  0.34929047312E+02  0.32000526537E+02  0.10530357293E+03  0.11546824030E+03  0.00000000000E+00 0.  1.
         13    1    3    3    0    0  0.75126908709E+02 -0.52899474665E+02  0.28469121234E+03  0.29915128817E+03  0.00000000000E+00 0. -1.
          2    1    1    2  501    0 -0.72942418792E+02 -0.54376203602E+01 -0.46070758860E+02  0.86444658576E+02  0.00000000000E+00 0. -1.
<scales pt_clust_5="13000.00000" pt_clust_6="13000.00000" pt_clust_7="13000.00000" pt_clust_8="13000.00000" pt_clust_9="73.14482"></scales>
<clustering>
<clus scale="   73.145">  2  9  1 -1</clus>
<clus scale="   79.845">  5  6 -1 -1</clus>
<clus scale="   85.231">  7  8 -1 -1</clus>
<clus scale="  128.980">  2  5  1 -1</clus>
<clus scale="   73.145">  2  5  1 -1</clus>
</clustering>
</event>
<event>
 9    1  0.6270443E-005  0.2824598E+03  0.7546771E-02  0.1094763E+00
          1   -1    0    0  502    0 -0.00000000000E+00  0.00000000000E+00  0.98211777337E+03  0.98211777337E+03  0.00000000000E+00 0. -1.
         21   -1    0    0  501  502  0.00000000000E+00 -0.00000000000E+00 -0.24240530465E+03  0.24240530465E+03  0.00000000000E+00 0.  1.
         23    2    1    2    0    0  0.29792407211E+03  0.70994240626E+02  0.16335614189E+03  0.35916884035E+03  0.92293509207E+02 0.  0.
        -24    2    1    2    0    0 -0.22605092576E+03  0.13983697116E+03  0.35715050162E+02  0.28062477965E+03  0.82591177513E+02 0.  0.
         11    1    4    4    0    0 -0.88417987383E+02  0.65030900672E+02  0.55046457363E+02  0.12278791066E+03  0.00000000000E+00 0. -1.
        -12    1    4    4    0    0 -0.13763293838E+03  0.74806070493E+02 -0.19331407201E+02  0.15783686899E+03  0.00000000000E+00 0.  1.
        -13    1    3    3    0    0  0.73090147559E+02 -0.32451674562E+01  0.30377498152E+01  0.73225191744E+02  0.00000000000E+00 0. -1.
         13    1    3    3    0    0  0.22483392455E+03  0.74239408083E+02  0.16031839208E+03  0.28594364861E+03  0.00000000000E+00 0.  1.
          2    1    1    2  501    0 -0.71873146348E+02 -0.21083121179E+03  0.54064127667E+03  0.58472945802E+03  0.00000000000E+00 0. -1.
<scales pt_clust_5="13000.00000" pt_clust_6="13000.00000" pt_clust_7="13000.00000" pt_clust_8="13000.00000" pt_clust_9="222.74559"></scales>
<clustering>
<clus scale="   82.591">  5  6 -1 -1</clus>
<clus scale="   92.294">  7  8 -1 -1</clus>
<clus scale="  222.746">  2  9  1 -1</clus>
<clus scale="  279.440">  2  5  1 -1</clus>
<clus scale="  222.746">  2  5  1 -1</clus>
</clustering>
</event>
<event>
 9    1  0.6270443E-005  0.2009466E+03  0.7546771E-02  0.1150362E+00
         -2   -1    0    0    0  501 -0.00000000000E+00  0.00000000000E+00  0.42891630340E+03  0.42891630340E+03  0.00000000000E+00 0.  1.
         21   -1    0    0  501  502  0.00000000000E+00 -0.00000000000E+00 -0.18563433275E+03  0.18563433275E+03  0.00000000000E+00 0.  1.
         23    2    1    2    0    0 -0.11927606387E+03  0.19911121708E+02  0.45581410521E+02  0.15840910901E+03  0.91610854438E+02 0.  0.
        -24    2    1    2    0    0  0.23560019138E+03 -0.53441273332E+01  0.22634571056E+03  0.33545994359E+03  0.75927486374E+02 0.  0.
         13    1    4    4    0    0  0.11830267847E+03 -0.18011444938E+02  0.66853619740E+02  0.13707422206E+03  0.00000000000E+00 0. -1.
        -14    1    4    4    0    0  0.11729751291E+03  0.12667317605E+02  0.15949209082E+03  0.19838572153E+03  0.00000000000E+00 0.  1.
        -13    1    3    3    0    0 -0.72804554236E+02 -0.33027830760E+02  0.34615918071E+02  0.87118324743E+02  0.00000000000E+00 0. -1.
         13    1    3    3    0    0 -0.46471509639E+02  0.52938952468E+02  0.10965492450E+02  0.71290784266E+02  0.00000000000E+00 0.  1.
         -1    1    1    2    0  502 -0.11632412751E+03 -0.14566994375E+02 -0.28645150428E+02  0.12068158355E+03  0.00000000000E+00 0.  1.
<scales pt_clust_5="13000.00000" pt_clust_6="13000.00000" pt_clust_7="13000.00000" pt_clust_8="13000.00000" pt_clust_9="117.23267"></scales>
<clustering>
<clus scale="   75.927">  5  6 -1 -1</clus>
<clus scale="   91.611">  7  8 -1 -1</clus>
<clus scale="  117.233">  2  9  1 -1</clus>
<clus scale="  194.299">  2  5  1 -1</clus>
<clus scale="  117.233">  2  5  1 -1</clus>
</clustering>
</event>
<event>
 9    1  0.6270443E-005  0.1776266E+03  0.7546771E-02  0.1199310E+00
         21   -1    0    0  501  502  0.00000000000E+00  0.00000000000E+00  0.23262197461E+03  0.23262197461E+03  0.00000000000E+00 0. -1.
          1   -1    0    0  502    0 -0.00000000000E+00 -0.00000000000E+00 -0.21488920593E+03  0.21488920593E+03  0.00000000000E+00 0. -1.
         23    2    1    2    0    0  0.18876179616E+02  0.25629473260E+02 -0.60720057842E+01  0.92841908753E+02  0.87003279882E+02 0.  0.
        -24    2    1    2    0    0 -0.15868382253E+03  0.36413295064E+02  0.70492264557E+02  0.19474677853E+03  0.80316030762E+02 0.  0.
         13    1    4    4    0    0 -0.16590956660E+03  0.36458867751E+02  0.56533616111E+02  0.17902872138E+03  0.00000000000E+00 0. -1.
        -14    1    4    4    0    0  0.72257440741E+01 -0.45572686918E-01  0.13958648447E+02  0.15718057156E+02  0.00000000000E+00 0.  1.
        -13    1    3    3    0    0 -0.13017921108E+02  0.39396309308E+02 -0.29528168950E+02  0.50925909109E+02  0.00000000000E+00 0.  1.
         13    1    3    3    0    0  0.31894100724E+02 -0.13766836047E+02  0.23456163166E+02  0.41915999645E+02  0.00000000000E+00 0. -1.
          2    1    1    2  501    0  0.13980764291E+03 -0.62042768324E+02 -0.46687490087E+02  0.15992249325E+03  0.00000000000E+00 0. -1.
<scales pt_clust_5="13000.00000" pt_clust_6="13000.00000" pt_clust_7="13000.00000" pt_clust_8="13000.00000" pt_clust_9="158.43164"></scales>
<clustering>
<clus scale="   80.316">  5  6 -1 -1</clus>
<clus scale="   87.003">  7  8 -1 -1</clus>
<clus scale="   92.643">  2  7  1 -1</clus>
<clus scale="  158.432">  1  9  2 -1</clus>
<clus scale="  158.432">  1  5  2 -1</clus>
</clustering>
</event>
<event>
 9    1  0.6270443E-005  0.2950664E+03  0.7546771E-02  0.1124331E+00
         -4   -1    0    0    0  501 -0.00000000000E+00  0.00000000000E+00  0.94504803940E+03  0.94504803940E+03  0.00000000000E+00 0.  1.
         21   -1    0    0  501  502  0.00000000000E+00 -0.00000000000E+00 -0.13504066101E+03  0.13504066101E+03  0.00000000000E+00 0.  1.
        -24    2    1    2    0    0  0.60715576591E+02 -0.51816447373E+02  0.13828124060E+03  0.18006948640E+03  0.83258590971E+02 0.  0.
         23    2    1    2    0    0 -0.13057592153E+03 -0.23404659355E+03  0.45291807411E+03  0.53331072666E+03  0.86357802608E+02 0.  0.
         13    1    3    3    0    0  0.60650177404E+02 -0.52036018429E+02  0.55517949714E+02  0.97305878412E+02  0.00000000000E+00 0. -1.
        -14    1    3    3    0    0  0.65399186978E-01  0.21957105563E+00  0.82763290887E+02  0.82763607986E+02  0.00000000000E+00 0.  1.
        -13    1    4    4    0    0 -0.61823858137E+02 -0.70496811333E+02  0.23022460362E+03  0.24858672119E+03  0.00000000000E+00 0. -1.
         13    1    4    4    0    0 -0.68752063398E+02 -0.16354978222E+03  0.22269347049E+03  0.28472400546E+03  0.00000000000E+00 0.  1.
         -3    1    1    2    0  502  0.69860344944E+02  0.28586304093E+03  0.21880806368E+03  0.36670848735E+03  0.00000000000E+00 0.  1.
<scales pt_clust_5="13000.00000" pt_clust_6="13000.00000" pt_clust_7="13000.00000" pt_clust_8="13000.00000" pt_clust_9="282.14630"></scales>
<clustering>
<clus scale="   83.259">  5  6 -1 -1</clus>
<clus scale="   86.358">  7  8 -1 -1</clus>
<clus scale="  115.340">  1  5  2 -1</clus>
<clus scale="  282.146">  2  9  1 -1</clus>
<clus scale="  282.146">  2  5  1 -1</clus>
</clustering>
</event>
<event>
 9    1  0.6270443E-005  0.1011065E+03  0.7546771E-02  0.1285373E+00
         21   -1    0    0  501  502  0.00000000000E+00  0.00000000000E+00  0.33692336684E+02  0.33692336684E+02  0.00000000000E+00 0. -1.
         -2   -1    0    0    0  501 -0.00000000000E+00 -0.00000000000E+00 -0.68752261736E+03  0.68752261736E+03  0.00000000000E+00 0.  1.
         23    2    1    2    0    0 -0.11245073774E+02  0.14260915801E+02 -0.23997455700E+03  0.25914942250E+03  0.96129130700E+02 0.  0.
        -24    2    1    2    0    0 -0.62286824378E+00 -0.66976489601E+02 -0.10735992890E+03  0.15084301954E+03  0.82104957735E+02 0.  0.
         11    1    4    4    0    0 -0.17149655358E+02 -0.55060566921E+02 -0.19846349715E+02  0.60988968721E+02  0.00000000000E+00 0. -1.
        -12    1    4    4    0    0  0.16526787114E+02 -0.11915922679E+02 -0.87513579188E+02  0.89854050815E+02  0.00000000000E+00 0.  1.
        -11    1    3    3    0    0  0.11609058054E+02 -0.38451773228E+02 -0.90481339979E+02  0.98995868488E+02  0.00000000000E+00 0. -1.
         11    1    3    3    0    0 -0.22854131828E+02  0.52712689028E+02 -0.14949321702E+03  0.16015355401E+03  0.00000000000E+00 0.  1.
         -1    1    1    2    0  502  0.11867942018E+02  0.52715573800E+02 -0.30649579477E+03  0.31122251201E+03  0.00000000000E+00 0.  1.
<scales pt_clust_5="13000.00000" pt_clust_6="13000.00000" pt_clust_7="13000.00000" pt_clust_8="13000.00000" pt_clust_9="54.03501"></scales>
<clustering>
<clus scale="   54.035">  1  9  2 -1</clus>
<clus scale="   82.105">  5  6 -1 -1</clus>
<clus scale="   87.880">  1  5  2 -1</clus>
<clus scale="   96.129">  7  8 -1 -1</clus>
<clus scale="   54.035">  1  5  2 -1</clus>
</clustering>
</event>
<event>
 9    1  0.6270443E-005  0.2282095E+03  0.7546771E-02  0.1128442E+00
         21   -1    0    0  501  502  0.00000000000E+00  0.00000000000E+00  0.72512517818E+03  0.72512517818E+03  0.00000000000E+00 0. -1.
          3   -1    0    0  502    0 -0.00000000000E+00 -0.00000000000E+00 -0.97807583432E+02  0.97807583432E+02  0.00000000000E+00 0. -1.
        -24    2    1    2    0    0 -0.12079450382E+03  0.17587030915E+03  0.13276584683E+03  0.26386488590E+03  0.80475028018E+02 0.  0.
         23    2    1    2    0    0  0.13584030322E+03 -0.15211078377E+03  0.47605623872E+03  0.52540818191E+03  0.88509528721E+02 0.  0.
         13    1    3    3    0    0 -0.11991196576E+03  0.13260842472E+03  0.80667973960E+02  0.19614075523E+03  0.00000000000E+00 0. -1.
        -14    1    3    3    0    0 -0.88253805642E+00  0.43261884430E+02  0.52097872865E+02  0.67724130669E+02  0.00000000000E+00 0.  1.
        -13    1    4    4    0    0  0.11600832793E+03 -0.11667631776E+03  0.44452246117E+03  0.47399526766E+03  0.00000000000E+00 0. -1.
         13    1    4    4    0    0  0.19831975288E+02 -0.35434466012E+02  0.31533777548E+02  0.51412914252E+02  0.00000000000E+00 0.  1.
          4    1    1    2  501    0 -0.15045799405E+02 -0.23759525385E+02  0.18495509204E+02  0.33659693804E+02  0.00000000000E+00 0. -1.
<scales pt_clust_5="13000.00000" pt_clust_6="13000.00000" pt_clust_7="13000.00000" pt_clust_8="13000.00000" pt_clust_9="28.12280"></scales>
<clustering>
<clus scale="   28.123">  1  9  2 -1</clus>
<clus scale="   80.475">  5  6 -1 -1</clus>
<clus scale="   88.510">  7  8 -1 -1</clus>
<clus scale="  225.215">  2  5  1 -1</clus>
<clus scale="   28.123">  1  5  2 -1</clus>
</clustering>
</event>
<event>
 9    1  0.6270443E-005  0.1075548E+03  0.7546771E-02  0.1270767E+00
          3   -1    0    0  502    0 -0.00000000000E+00  0.00000000000E+00  0.11733383507E+03  0.11733383507E+03  0.00000000000E+00 0. -1.
         21   -1    0    0  501  502  0.00000000000E+00 -0.00000000000E+00 -0.19901432434E+03  0.19901432434E+03  0.00000000000E+00 0. -1.
         23    2    1    2    0    0  0.20204478598E+02  0.55982215135E+02  0.40556836490E+02  0.11748117313E+03  0.92815622002E+02 0.  0.
        -24    2    1    2    0    0 -0.29479781554E+02 -0.37974222333E+02 -0.20746700947E+02  0.95374638867E+02  0.79716980980E+02 0.  0.
         13    1    4    4    0    0 -0.56120620837E+02 -0.21775896948E+02 -0.48907810847E+01  0.60395641487E+02  0.00000000000E+00 0. -1.
        -14    1    4    4    0    0  0.26640839283E+02 -0.16198325385E+02 -0.15855919863E+02  0.34978997380E+02  0.00000000000E+00 0.  1.
        -11    1    3    3    0    0 -0.12014893763E+02  0.30814976751E+02 -0.24141434540E+02  0.40947885489E+02  0.00000000000E+00 0.  1.
         11    1    3    3    0    0  0.32219372362E+02  0.25167238383E+02  0.64698271030E+02  0.76533287644E+02  0.00000000000E+00 0. -1.
          4    1    1    2  501    0  0.92753029559E+01 -0.18007992801E+02 -0.10149062481E+03  0.10349234742E+03  0.00000000000E+00 0. -1.
<scales pt_clust_5="13000.00000" pt_clust_6="13000.00000" pt_clust_7="13000.00000" pt_clust_8="13000.00000" pt_clust_9="20.25633"></scales>
<clustering>
<clus scale="   20.256">  2  9  1 -1</clus>
<clus scale="   79.717">  5  6 -1 -1</clus>
<clus scale="   92.816">  7  8 -1 -1</clus>
<clus scale="   96.478">  2  5  1 -1</clus>
<clus scale="   20.256">  2  5  1 -1</clus>
</clustering>
</event>
<event>
 9    1  0.6270443E-005  0.2295707E+03  0.7546771E-02  0.1127072E+00
          1   -1    0    0  502    0 -0.00000000000E+00  0.00000000000E+00  0.44539793209E+03  0.44539793209E+03  0.00000000000E+00 0. -1.
         21   -1    0    0  501  502  0.00000000000E+00 -0.00000000000E+00 -0.22177715047E+03  0.22177715047E+03  0.00000000000E+00 0. -1.
        -24    2    1    2    0    0 -0.19774741840E+03 -0.64503284470E+02  0.83588604356E+02  0.24298673730E+03  0.93759183738E+02 0.  0.
         23    2    1    2    0    0  0.14030239159E+03  0.18942574426E+03  0.44872471342E+02  0.25697314948E+03  0.91949916769E+02 0.  0.
         11    1    3    3    0    0 -0.16948477655E+03 -0.14485914329E+02  0.54693567433E+02  0.17867937071E+03  0.00000000000E+00 0. -1.
        -12    1    3    3    0    0 -0.28262641851E+02 -0.50017370141E+02  0.28895036923E+02  0.64307366600E+02  0.00000000000E+00 0.  1.
        -13    1    4    4    0    0  0.12578744445E+01  0.63403457775E+02  0.25382960492E+02  0.68307213303E+02  0.00000000000E+00 0.  1.
         13    1    4    4    0    0  0.13904451715E+03  0.12602228648E+03  0.19489510850E+02  0.18866593617E+03  0.00000000000E+00 0. -1.
          2    1    1    2  501    0  0.57445026811E+02 -0.12492245979E+03  0.95159705923E+02  0.16721519577E+03  0.00000000000E+00 0. -1.
<scales pt_clust_5="13000.00000" pt_clust_6="13000.00000" pt_clust_7="13000.00000" pt_clust_8="13000.00000" pt_clust_9="137.49753"></scales>
<clustering>
<clus scale="   91.950">  7  8 -1 -1</clus>
<clus scale="   93.759">  5  6 -1 -1</clus>
<clus scale="  137.498">  2  9  1 -1</clus>
<clus scale="  228.838">  2  7  1 -1</clus>
<clus scale="  137.498">  2  5  1 -1</clus>
</clustering>
</event>
<event>
 9    1  0.6270443E-005  0.1521234E+03  0.7546771E-02  0.1219379E+00
         21   -1    0    0  501  502  0.00000000000E+00  0.00000000000E+00  0.72242758989E+03  0.72242758989E+03  0.00000000000E+00 0. -1.
         -4   -1    0    0    0  501 -0.00000000000E+00 -0.00000000000E+00 -0.10329533085E+03  0.10329533085E+03  0.00000000000E+00 0.  1.
         23    2    1    2    0    0  0.17854536360E+02  0.12225549114E+02  0.47684105278E+02  0.10721822744E+03  0.93561348208E+02 0.  0.
        -24    2    1    2    0    0  0.41851811166E+02 -0.12131969091E+03  0.57413924724E+03  0.59411168026E+03  0.82841848770E+02 0.  0.
         13    1    4    4    0    0  0.51484180781E+02 -0.40544828851E+02  0.17736296073E+03  0.18908232031E+03  0.00000000000E+00 0. -1.
        -14    1    4    4    0    0 -0.96323696154E+01 -0.80774862062E+02  0.39677628651E+03  0.40502935995E+03  0.00000000000E+00 0.  1.
        -11    1    3    3    0    0  0.53228418670E+02 -0.16438496302E+01  0.43934978618E+02  0.69038026782E+02  0.00000000000E+00 0. -1.
         11    1    3    3    0    0 -0.35373882310E+02  0.13869398744E+02  0.37491266598E+01  0.38180200653E+02  0.00000000000E+00 0.  1.
         -3    1    1    2    0  502 -0.59706347526E+02  0.10909414180E+03 -0.26910934718E+01  0.12439301304E+03  0.00000000000E+00 0.  1.
<scales pt_clust_5="13000.00000" pt_clust_6="13000.00000" pt_clust_7="13000.00000" pt_clust_8="13000.00000" pt_clust_9="127.58835"></scales>
<clustering>
<clus scale="   82.842">  5  6 -1 -1</clus>
<clus scale="   93.561">  7  8 -1 -1</clus>
<clus scale="   96.031">  2  7  1 -1</clus>
<clus scale="  127.588">  1  9  2 -1</clus>
<clus scale="  127.588">  1  5  2 -1</clus>
</clustering>
</event>
<event>
 9    1  0.6270443E-005  0.1057211E+03  0.7546771E-02  0.1277182E+00
         -4   -1    0    0    0  501 -0.00000000000E+00  0.00000000000E+00  0.50378028225E+03  0.50378028225E+03  0.00000000000E+00 0.  1.
         21   -1    0    0  501  502  0.00000000000E+00 -0.00000000000E+00 -0.50855868611E+02  0.50855868611E+02  0.00000000000E+00 0.  1.
        -24    2    1    2    0    0 -0.42602699577E+02 -0.23488525320E+02  0.29944355787E+03  0.31363638969E+03  0.79590450151E+02 0.  0.
         23    2    1    2    0    0  0.36501165387E+02 -0.28216439179E+02  0.15527401069E+03  0.18890515994E+03  0.97193819450E+02 0.  0.
         13    1    3    3    0    0  0.72743538093E+01 -0.38461817868E+02  0.16189054958E+03  0.16655562944E+03  0.00000000000E+00 0. -1.
        -14    1    3    3    0    0 -0.49877053386E+02  0.14973292548E+02  0.13755300829E+03  0.14708076024E+03  0.00000000000E+00 0.  1.
        -11    1    4    4    0    0  0.38169938508E+02 -0.61582799543E+02  0.12106685340E+03  0.14109063895E+03  0.00000000000E+00 0.  1.
         11    1    4    4    0    0 -0.16687731209E+01  0.33366360364E+02  0.34207157292E+02  0.47814520992E+02  0.00000000000E+00 0. -1.
         -3    1    1    2    0  502  0.61015341899E+01  0.51704964500E+02 -0.17931549227E+01  0.52094601236E+02  0.00000000000E+00 0.  1.
<scales pt_clust_5="13000.00000" pt_clust_6="13000.00000" pt_clust_7="13000.00000" pt_clust_8="13000.00000" pt_clust_9="52.06373"></scales>
<clustering>
<clus scale="   52.064">  2  9  1 -1</clus>
<clus scale="   79.590">  5  6 -1 -1</clus>
<clus scale="   89.805">  1  5  2 -1</clus>
<clus scale="   97.194">  7  8 -1 -1</clus>
<clus scale="   52.064">  2  5  1 -1</clus>
</clustering>
</event>
<event>
 9    1  0.6270443E-005  0.1358924E+03  0.7546771E-02  0.1225067E+00
         -4   -1    0    0    0  501 -0.00000000000E+00  0.00000000000E+00  0.85659989322E+03  0.85659989322E+03  0.00000000000E+00 0.  1.
         21   -1    0    0  501  502  0.00000000000E+00 -0.00000000000E+00 -0.79530708066E+02  0.79530708066E+02  0.00000000000E+00 0.  1.
        -24    2    1    2    0    0 -0.75939318228E+02  0.79309447670E+02  0.73658933797E+03  0.74733937562E+03  0.62414109016E+02 0.  0.
         23    2    1    2    0    0  0.54345855985E+02 -0.27841339814E+02  0.66391293028E+02  0.12725549001E+03  0.89763821674E+02 0.  0.
         13    1    3    3    0    0 -0.13002610553E+02  0.40355117649E+02  0.14299439746E+03  0.14914758163E+03  0.00000000000E+00 0. -1.
        -14    1    3    3    0    0 -0.62936707675E+02  0.38954330021E+02  0.59359494051E+03  0.59819179399E+03  0.00000000000E+00 0.  1.
        -13    1    4    4    0    0  0.70409264468E+02  0.29702802863E+01  0.28983374443E+02  0.76199232818E+02  0.00000000000E+00 0.  1.
         13    1    4    4    0    0 -0.16063408483E+02 -0.30811620100E+02  0.37407918585E+02  0.51056257189E+02  0.00000000000E+00 0. -1.
         -3    1    1    2    0  502  0.21593462243E+02 -0.51468107856E+02 -0.25911445838E+02  0.61535735661E+02  0.00000000000E+00 0.  1.
<scales pt_clust_5="13000.00000" pt_clust_6="13000.00000" pt_clust_7="13000.00000" pt_clust_8="13000.00000" pt_clust_9="55.81437"></scales>
<clustering>
<clus scale="   55.814">  2  9  1 -1</clus>
<clus scale="   62.414">  5  6 -1 -1</clus>
<clus scale="   89.764">  7  8 -1 -1</clus>
<clus scale="  119.602">  1  5  2 -1</clus>
<clus scale="   55.814">  2  5  1 -1</clus>
</clustering>
</event>
<event>
 9    1  0.6270443E-005  0.1013615E+03  0.7546771E-02  0.1280312E+00
         21   -1    0    0  501  502  0.00000000000E+00  0.00000000000E+00  0.77919058867E+02  0.77919058867E+02  0.00000000000E+00 0. -1.
          1   -1    0    0  502    0 -0.00000000000E+00 -0.00000000000E+00 -0.48446743413E+03  0.48446743413E+03  0.00000000000E+00 0. -1.
        -24    2    1    2    0    0  0.13871816262E+02  0.60977654932E+02 -0.39113794948E+03  0.40421496951E+03  0.80561432214E+02 0.  0.
         23    2    1    2    0    0  0.53897667203E+01 -0.10174683038E+02 -0.42560756589E+02  0.97433635855E+02  0.86886832341E+02 0.  0.
         13    1    3    3    0    0 -0.24047213427E+02  0.45681491316E+02 -0.29883365664E+03  0.30325998988E+03  0.00000000000E+00 0. -1.
        -14    1    3    3    0    0  0.37919029688E+02  0.15296163616E+02 -0.92304292845E+02  0.10095497963E+03  0.00000000000E+00 0.  1.
        -11    1    4    4    0    0  0.40388664138E+02 -0.26522974361E+02 -0.29715773288E+02  0.56725122670E+02  0.00000000000E+00 0.  1.
         11    1    4    4    0    0 -0.34998897418E+02  0.16348291323E+02 -0.12844983301E+02  0.40708513184E+02  0.00000000000E+00 0. -1.
          2    1    1    2  501    0 -0.19261582982E+02 -0.50802971894E+02  0.27150330804E+02  0.60737887640E+02  0.00000000000E+00 0. -1.
<scales pt_clust_5="13000.00000" pt_clust_6="13000.00000" pt_clust_7="13000.00000" pt_clust_8="13000.00000" pt_clust_9="54.33186"></scales>
<clustering>
<clus scale="   54.332">  1  9  2 -1</clus>
<clus scale="   80.561">  5  6 -1 -1</clus>
<clus scale="   86.887">  7  8 -1 -1</clus>
<clus scale="   95.995">  2  5  1 -1</clus>
<clus scale="   54.332">  1  5  2 -1</clus>
</clustering>
</event>
<event>
 9    1  0.6270443E-005  0.9981347E+02  0.7546771E-02  0.1287015E+00
          1   -1    0    0  502    0 -0.00000000000E+00  0.00000000000E+00  0.30355881011E+03  0.30355881011E+03  0.00000000000E+00 0. -1.
         21   -1    0    0  501  502  0.00000000000E+00 -0.00000000000E+00 -0.48775196964E+02  0.48775196964E+02  0.00000000000E+00 0.  1.
         23    2    1    2    0    0  0.45009775913E+02 -0.38139417809E+01  0.13866157993E+03  0.17307648440E+03  0.93209493203E+02 0.  0.
        -24    2    1    2    0    0 -0.19099419987E+02  0.37348090080E+01  0.28813968304E+02  0.88185842091E+02  0.81041725880E+02 0.  0.
         13    1    4    4    0    0 -0.17789330626E+02 -0.37109954204E+02  0.22290998138E+02  0.46802751876E+02  0.00000000000E+00 0. -1.
        -14    1    4    4    0    0 -0.13100893612E+01  0.40844763212E+02  0.65229701665E+01  0.41383090215E+02  0.00000000000E+00 0.  1.
        -13    1    3    3    0    0  0.93275858500E+01  0.40191676068E+02  0.87501140722E+02  0.96741016692E+02  0.00000000000E+00 0. -1.
         13    1    3    3    0    0  0.35682190063E+02 -0.44005617849E+02  0.51160439209E+02  0.76335467707E+02  0.00000000000E+00 0.  1.
          2    1    1    2  501    0 -0.25910355926E+02  0.79132772917E-01  0.87308064907E+02  0.91071680582E+02  0.00000000000E+00 0. -1.
<scales pt_clust_5="13000.00000" pt_clust_6="13000.00000" pt_clust_7="13000.00000" pt_clust_8="13000.00000" pt_clust_9="25.91049"></scales>
<clustering>
<clus scale="   25.910">  2  9  1 -1</clus>
<clus scale="   81.042">  5  6 -1 -1</clus>
<clus scale="   88.558">  2  5  1 -1</clus>
<clus scale="   93.209">  7  8 -1 -1</clus>
<clus scale="   25.910">  2  5  1 -1</clus>
</clustering>
</event>
<event>
 9    1  0.6270443E-005  0.1408539E+03  0.7546771E-02  0.1214224E+00
         21   -1    0    0  501  502  0.00000000000E+00  0.00000000000E+00  0.44164893471E+03  0.44164893471E+03  0.00000000000E+00 0.  1.
         -2   -1    0    0    0  501 -0.00000000000E+00 -0.00000000000E+00 -0.85578764827E+02  0.85578764827E+02  0.00000000000E+00 0.  1.
        -24    2    1    2    0    0  0.36532142599E+02  0.93201396534E+02  0.33412843135E+02  0.13308539107E+03  0.81081474276E+02 0.  0.
         23    2    1    2    0    0 -0.13813440465E+02 -0.12680590868E+03  0.14996645496E+03  0.21675138463E+03  0.90667940923E+02 0.  0.
         11    1    3    3    0    0  0.19218376756E+02  0.76479047157E+02  0.58599570896E+02  0.98246121391E+02  0.00000000000E+00 0. -1.
        -12    1    3    3    0    0  0.17313765843E+02  0.16722349377E+02 -0.25186727761E+02  0.34839269678E+02  0.00000000000E+00 0.  1.
        -11    1    4    4    0    0 -0.18734212190E+02 -0.32147886713E+02  0.10585481082E+03  0.11220382480E+03  0.00000000000E+00 0.  1.
         11    1    4    4    0    0  0.49207717255E+01 -0.94658021963E+02  0.44111644141E+02  0.10454755982E+03  0.00000000000E+00 0. -1.
         -1    1    1    2    0  502 -0.22718702135E+02  0.33604512142E+02  0.17269087179E+03  0.17739092385E+03  0.00000000000E+00 0.  1.
<scales pt_clust_5="13000.00000" pt_clust_6="13000.00000" pt_clust_7="13000.00000" pt_clust_8="13000.00000" pt_clust_9="40.56356"></scales>
<clustering>
<clus scale="   40.564">  1  9  2 -1</clus>
<clus scale="   81.081">  5  6 -1 -1</clus>
<clus scale="   90.668">  7  8 -1 -1</clus>
<clus scale="  134.883">  2  5  1 -1</clus>
<clus scale="   40.564">  1  5  2 -1</clus>
</clustering>
</event>
<event>
 9    1  0.6270443E-005  0.1355268E+03  0.7546771E-02  0.1237067E+00
         21   -1    0    0  501  502  0.00000000000E+00  0.00000000000E+00  0.53963734619E+02  0.53963734619E+02  0.00000000000E+00 0. -1.
          3   -1    0    0  502    0 -0.00000000000E+00 -0.00000000000E+00 -0.54428483298E+03  0.54428483298E+03  0.00000000000E+00 0. -1.
         23    2    1    2    0    0  0.52477858527E+01  0.16197888261E+02 -0.11107081957E+03  0.14560712868E+03  0.92600205839E+02 0.  0.
        -24    2    1    2    0    0  0.20790173998E+02 -0.11657165696E+03 -0.23338300014E+03  0.27367179967E+03  0.80046527946E+02 0.  0.
         13    1    4    4    0    0  0.13779935728E+02 -0.12759254334E+03 -0.22161081528E+03  0.25608806531E+03  0.00000000000E+00 0. -1.
        -14    1    4    4    0    0  0.70102382702E+01  0.11020886388E+02 -0.11772184862E+02  0.17583734354E+02  0.00000000000E+00 0.  1.
        -11    1    3    3    0    0  0.46473442661E+02  0.19377130031E+02 -0.77142829650E+02  0.92120954225E+02  0.00000000000E+00 0. -1.
         11    1    3    3    0    0 -0.41225656809E+02 -0.31792417701E+01 -0.33927989918E+02  0.53486174451E+02  0.00000000000E+00 0.  1.
          4    1    1    2  501    0 -0.26037959850E+02  0.10037376869E+03 -0.14586727865E+03  0.17896963926E+03  0.00000000000E+00 0. -1.
<scales pt_clust_5="13000.00000" pt_clust_6="13000.00000" pt_clust_7="13000.00000" pt_clust_8="13000.00000" pt_clust_9="109.36215"></scales>
<clustering>
<clus scale="   80.047">  5  6 -1 -1</clus>
<clus scale="   92.600">  7  8 -1 -1</clus>
<clus scale="   94.153">  2  7  1 -1</clus>
<clus scale="  109.362">  1  9  2 -1</clus>
<clus scale="  109.362">  1  5  2 -1</clus>
</clustering>
</event>
<event>
 9    1  0.6270443E-005  0.1029213E+03  0.7546771E-02  0.1276861E+00
         21   -1    0    0  501  502  0.00000000000E+00  0.00000000000E+00  0.67739876218E+02  0.67739876218E+02  0.00000000000E+00 0. -1.
          1   -1    0    0  502    0 -0.00000000000E+00 -0.00000000000E+00 -0.27623490178E+03  0.27623490178E+03  0.00000000000E+00 0. -1.
        -24    2    1    2    0    0  0.45470889751E+02  0.42543591634E+02 -0.18610561156E+03  0.21255869285E+03  0.81659906012E+02 0.  0.
         23    2    1    2    0    0 -0.13541351425E+02 -0.25944051094E+02 -0.80867802767E+01  0.92691345046E+02  0.87577551037E+02 0.  0.
         11    1    3    3    0    0  0.40124131269E+01  0.26238032271E+02 -0.15726309732E+03  0.15948735240E+03  0.00000000000E+00 0. -1.
        -12    1    3    3    0    0  0.41458476625E+02  0.16305559363E+02 -0.28842514243E+02  0.53071340458E+02  0.00000000000E+00 0.  1.
        -11    1    4    4    0    0  0.29253833218E+02  0.12028871742E+02 -0.15099818237E+02  0.35049750700E+02  0.00000000000E+00 0.  1.
         11    1    4    4    0    0 -0.42795184643E+02 -0.37972922836E+02  0.70130379598E+01  0.57641594346E+02  0.00000000000E+00 0. -1.
          2    1    1    2  501    0 -0.31929538327E+02 -0.16599540540E+02 -0.14302633720E+02  0.38724740092E+02  0.00000000000E+00 0. -1.
<scales pt_clust_5="13000.00000" pt_clust_6="13000.00000" pt_clust_7="13000.00000" pt_clust_8="13000.00000" pt_clust_9="35.98667"></scales>
<clustering>
<clus scale="   35.987">  1  9  2 -1</clus>
<clus scale="   81.660">  5  6 -1 -1</clus>
<clus scale="   87.578">  7  8 -1 -1</clus>
<clus scale="   97.935">  2  5  1 -1</clus>
<clus scale="   35.987">  1  5  2 -1</clus>
</clustering>
</event>
<event>
 9    1  0.6270443E-005  0.1095854E+03  0.7546771E-02  0.1261850E+00
          1   -1    0    0  502    0 -0.00000000000E+00  0.00000000000E+00  0.53121885812E+03  0.53121885812E+03  0.00000000000E+00 0. -1.
         21   -1    0    0  501  502  0.00000000000E+00 -0.00000000000E+00 -0.48429968510E+02  0.48429968510E+02  0.00000000000E+00 0.  1.
         23    2    1    2    0    0 -0.35792490215E+02  0.65277300171E+02  0.15617088853E+03  0.19207658251E+03  0.83437634491E+02 0.  0.
        -24    2    1    2    0    0  0.52706505790E+02 -0.38212842753E+02  0.67438254086E+02  0.12643490472E+03  0.84850868670E+02 0.  0.
         13    1    4    4    0    0  0.71110467730E+02 -0.48196598063E+02  0.51949470832E+02  0.10039102652E+03  0.00000000000E+00 0. -1.
        -14    1    4    4    0    0 -0.18403961940E+02  0.99837553099E+01  0.15488783255E+02  0.26043878204E+02  0.00000000000E+00 0.  1.
        -11    1    3    3    0    0 -0.52178964110E+02  0.43650937308E+02  0.55451058058E+02  0.87765986938E+02  0.00000000000E+00 0.  1.
         11    1    3    3    0    0  0.16386473895E+02  0.21626362863E+02  0.10071983047E+03  0.10431059557E+03  0.00000000000E+00 0. -1.
          2    1    1    2  501    0 -0.16914015575E+02 -0.27064457419E+02  0.25917974700E+03  0.26113733940E+03  0.00000000000E+00 0. -1.
<scales pt_clust_5="13000.00000" pt_clust_6="13000.00000" pt_clust_7="13000.00000" pt_clust_8="13000.00000" pt_clust_9="31.91504"></scales>
<clustering>
<clus scale="   31.915">  2  9  1 -1</clus>
<clus scale="   83.438">  7  8 -1 -1</clus>
<clus scale="   84.851">  5  6 -1 -1</clus>
<clus scale="  108.495">  1  7  2 -1</clus>
<clus scale="   31.915">  2  5  1 -1</clus>
</clustering>
</event>
<event>
 9    1  0.6270443E-005  0.2065395E+03  0.7546771E-02  0.1159740E+00
         -4   -1    0    0    0  501 -0.00000000000E+00  0.00000000000E+00  0.76044870339E+03  0.76044870339E+03  0.00000000000E+00 0.  1.
         21   -1    0    0  501  502  0.00000000000E+00 -0.00000000000E+00 -0.10007893355E+03  0.10007893355E+03  0.00000000000E+00 0.  1.
        -24    2    1    2    0    0 -0.80900588027E+02  0.88625233697E+02  0.14207090219E+03  0.20198077368E+03  0.78821028251E+02 0.  0.
         23    2    1    2    0    0 -0.12700173604E+03 -0.10635352346E+03  0.23470304078E+03  0.30646127477E+03  0.10673557359E+03 0.  0.
         13    1    3    3    0    0 -0.76023478801E+02  0.69734822490E+02  0.63759445913E+02  0.12127564364E+03  0.00000000000E+00 0. -1.
        -14    1    3    3    0    0 -0.48771092260E+01  0.18890411208E+02  0.78311456281E+02  0.80705130040E+02  0.00000000000E+00 0.  1.
        -11    1    4    4    0    0 -0.11577565481E+03 -0.46731326018E+02  0.10448464810E+03  0.16280313500E+03  0.00000000000E+00 0.  1.
         11    1    4    4    0    0 -0.11226081224E+02 -0.59622197441E+02  0.13021839268E+03  0.14365813976E+03  0.00000000000E+00 0. -1.
         -3    1    1    2    0  502  0.20790232406E+03  0.17728289762E+02  0.28359582687E+03  0.35208558850E+03  0.00000000000E+00 0.  1.
<scales pt_clust_5="13000.00000" pt_clust_6="13000.00000" pt_clust_7="13000.00000" pt_clust_8="13000.00000" pt_clust_9="176.82221"></scales>
<clustering>
<clus scale="   78.821">  5  6 -1 -1</clus>
<clus scale="  106.736">  7  8 -1 -1</clus>
<clus scale="  143.569">  1  5  2 -1</clus>
<clus scale="  176.822">  2  9  1 -1</clus>
<clus scale="  176.822">  2  5  1 -1</clus>
</clustering>
</event>
<event>
 9    1  0.6270443E-005  0.2050169E+03  0.7546771E-02  0.1146625E+00
          1   -1    0    0  502    0 -0.00000000000E+00  0.00000000000E+00  0.48076544718E+03  0.48076544718E+03  0.00000000000E+00 0. -1.
         21   -1    0    0  501  502  0.00000000000E+00 -0.00000000000E+00 -0.16389563309E+03  0.16389563309E+03  0.00000000000E+00 0. -1.
         23    2    1    2    0    0 -0.49218131555E+02 -0.17913918363E+03  0.27764220949E+03  0.34640343323E+03  0.91634439344E+02 0.  0.
        -24    2    1    2    0    0  0.12835816325E+03  0.14252071670E+03  0.17642888624E+02  0.20842470931E+03  0.79634258767E+02 0.  0.
         13    1    4    4    0    0  0.99805761273E+02  0.52496598816E+02  0.26699599346E+01  0.11280164696E+03  0.00000000000E+00 0. -1.
        -14    1    4    4    0    0  0.28552401979E+02  0.90024117887E+02  0.14972928690E+02  0.95623062353E+02  0.00000000000E+00 0.  1.
        -11    1    3    3    0    0  0.10194086090E+02 -0.63497492663E+02  0.15441971434E+03  0.16727611648E+03  0.00000000000E+00 0. -1.
         11    1    3    3    0    0 -0.59412217645E+02 -0.11564169097E+03  0.12322249515E+03  0.17912731675E+03  0.00000000000E+00 0.  1.
          2    1    1    2  501    0 -0.79140031698E+02  0.36618466929E+02  0.21584715980E+02  0.89832937731E+02  0.00000000000E+00 0. -1.
<scales pt_clust_5="13000.00000" pt_clust_6="13000.00000" pt_clust_7="13000.00000" pt_clust_8="13000.00000" pt_clust_9="87.20124"></scales>
<clustering>
<clus scale="   79.634">  5  6 -1 -1</clus>
<clus scale="   87.201">  2  9  1 -1</clus>
<clus scale="   91.634">  7  8 -1 -1</clus>
<clus scale="  199.942">  2  5  1 -1</clus>
<clus scale="   87.201">  2  5  1 -1</clus>
</clustering>
</event>
<event>
 9    1  0.6270443E-005  0.9439278E+02  0.7546771E-02  0.1299656E+00
         21   -1    0    0  501  502  0.00000000000E+00  0.00000000000E+00  0.15579502061E+03  0.15579502061E+03  0.00000000000E+00 0. -1.
          3   -1    0    0  502    0 -0.00000000000E+00 -0.00000000000E+00 -0.15506951900E+03  0.15506951900E+03  0.00000000000E+00 0. -1.
        -24    2    1    2    0    0  0.19558040650E+02  0.10357773117E+02 -0.95990060760E+02  0.12645244657E+03  0.79286373743E+02 0.  0.
         23    2    1    2    0    0 -0.36361155462E+02  0.13223758776E+02  0.18419248423E+02  0.10093307717E+03  0.91384987456E+02 0.  0.
         11    1    3    3    0    0  0.48216016918E+02  0.19102832796E+02 -0.67343214854E+02  0.84998888788E+02  0.00000000000E+00 0. -1.
        -12    1    3    3    0    0 -0.28657976268E+02 -0.87450596798E+01 -0.28646845906E+02  0.41453557784E+02  0.00000000000E+00 0.  1.
        -13    1    4    4    0    0  0.38953175903E+01 -0.24336350177E+02 -0.21676888978E+02  0.32822537300E+02  0.00000000000E+00 0.  1.
         13    1    4    4    0    0 -0.40256473053E+02  0.37560108953E+02  0.40096137401E+02  0.68110539872E+02  0.00000000000E+00 0. -1.
          4    1    1    2  501    0  0.16803114813E+02 -0.23581531893E+02  0.78296313947E+02  0.83479015875E+02  0.00000000000E+00 0. -1.
<scales pt_clust_5="13000.00000" pt_clust_6="13000.00000" pt_clust_7="13000.00000" pt_clust_8="13000.00000" pt_clust_9="28.95571"></scales>
<clustering>
<clus scale="   28.956">  1  9  2 -1</clus>
<clus scale="   79.286">  5  6 -1 -1</clus>
<clus scale="   82.735">  2  5  1 -1</clus>
<clus scale="   91.385">  7  8 -1 -1</clus>
<clus scale="   28.956">  1  5  2 -1</clus>
</clustering>
</event>
<event>
 9    1  0.6270443E-005  0.1661795E+03  0.7546771E-02  0.1213115E+00
          1   -1    0    0  502    0 -0.00000000000E+00  0.00000000000E+00  0.37998072891E+03  0.37998072891E+03  0.00000000000E+00 0. -1.
         21   -1    0    0  501  502  0.00000000000E+00 -0.00000000000E+00 -0.10075245400E+03  0.10075245400E+03  0.00000000000E+00 0. -1.
        -24    2    1    2    0    0  0.23494346436E+02 -0.51605893659E+01  0.62587475499E+02  0.10482661937E+03  0.80577987334E+02 0.  0.
         23    2    1    2    0    0 -0.80739326076E+02  0.12306446727E+03  0.97411465786E+02  0.19872319491E+03  0.91313814124E+02 0.  0.
         13    1    3    3    0    0  0.47419604115E+02 -0.76393506657E+01  0.64813248162E+02  0.80670537808E+02  0.00000000000E+00 0. -1.
        -14    1    3    3    0    0 -0.23925257680E+02  0.24787612998E+01 -0.22257726628E+01  0.24156081565E+02  0.00000000000E+00 0.  1.
        -13    1    4    4    0    0 -0.27324067423E+02  0.85351164928E+02  0.98709829254E+02  0.13332312780E+03  0.00000000000E+00 0.  1.
         13    1    4    4    0    0 -0.53415258653E+02  0.37713302342E+02 -0.12983634682E+01  0.65400067112E+02  0.00000000000E+00 0. -1.
          2    1    1    2  501    0  0.57244979641E+02 -0.11790387790E+03  0.11922933362E+03  0.17718336862E+03  0.00000000000E+00 0. -1.
<scales pt_clust_5="13000.00000" pt_clust_6="13000.00000" pt_clust_7="13000.00000" pt_clust_8="13000.00000" pt_clust_9="138.84317"></scales>
<clustering>
<clus scale="   80.578">  5  6 -1 -1</clus>
<clus scale="   84.092">  1  5  2 -1</clus>
<clus scale="   91.314">  7  8 -1 -1</clus>
<clus scale="  138.843">  2  9  1 -1</clus>
<clus scale="  138.843">  2  5  1 -1</clus>
</clustering>
</event>
<event>
 9    1  0.6270443E-005  0.3150858E+03  0.7546771E-02  0.1077933E+00
         21   -1    0    0  501  502  0.00000000000E+00  0.00000000000E+00  0.57546397972E+03  0.57546397972E+03  0.00000000000E+00 0.  1.
          1   -1    0    0  502    0 -0.00000000000E+00 -0.00000000000E+00 -0.15734437792E+03  0.15734437792E+03  0.00000000000E+00 0. -1.
        -24    2    1    2    0    0  0.24193160363E+02  0.13682738920E+03  0.23332484737E+03  0.28307492861E+03  0.79899232575E+02 0.  0.
         23    2    1    2    0    0 -0.63313602888E+02  0.10155064661E+03  0.13757808346E+03  0.20359543724E+03  0.90566146431E+02 0.  0.
         11    1    3    3    0    0 -0.20541819956E+02  0.59214984103E+02  0.54462792296E+02  0.83033586302E+02  0.00000000000E+00 0. -1.
        -12    1    3    3    0    0  0.44734980319E+02  0.77612405098E+02  0.17886205507E+03  0.20004134231E+03  0.00000000000E+00 0.  1.
        -11    1    4    4    0    0  0.23227862079E+02  0.28949511224E+02  0.34081750783E+02  0.50390212475E+02  0.00000000000E+00 0.  1.
         11    1    4    4    0    0 -0.86541464967E+02  0.72601135390E+02  0.10349633268E+03  0.15320522477E+03  0.00000000000E+00 0. -1.
          2    1    1    2  501    0  0.39120442525E+02 -0.23837803582E+03  0.47216670969E+02  0.24613799179E+03  0.00000000000E+00 0. -1.
<scales pt_clust_5="13000.00000" pt_clust_6="13000.00000" pt_clust_7="13000.00000" pt_clust_8="13000.00000" pt_clust_9="241.56688"></scales>
<clustering>
<clus scale="   79.899">  5  6 -1 -1</clus>
<clus scale="   90.566">  7  8 -1 -1</clus>
<clus scale="  132.722">  5  7 -1 -1</clus>
<clus scale="  241.567">  1  9  2 -1</clus>
<clus scale="  241.567">  1  5  2 -1</clus>
</clustering>
</event>
<event>
 9    1  0.6270443E-005  0.1725915E+03  0.7546771E-02  0.1176649E+00
         -2   -1    0    0    0  501 -0.00000000000E+00  0.00000000000E+00  0.12243485353E+03  0.12243485353E+03  0.00000000000E+00 0.  1.
         21   -1    0    0  501  502  0.00000000000E+00 -0.00000000000E+00 -0.85864775022E+03  0.85864775022E+03  0.00000000000E+00 0. -1.
        -24    2    1    2    0    0 -0.18919188252E+02  0.14386794725E+03  0.45309508096E+02  0.17191966447E+03  0.80296311095E+02 0.  0.
         23    2    1    2    0    0  0.37811284855E+02 -0.15535605797E+03 -0.64238444484E+03  0.66827908677E+03  0.91509370206E+02 0.  0.
         11    1    3    3    0    0 -0.50556220302E+02  0.82961752216E+02  0.24342302013E+02  0.10015553609E+03  0.00000000000E+00 0. -1.
        -12    1    3    3    0    0  0.31637032050E+02  0.60906195037E+02  0.20967206083E+02  0.71764128377E+02  0.00000000000E+00 0.  1.
        -11    1    4    4    0    0 -0.13106452149E+02 -0.12133329012E+03 -0.39469086672E+03  0.41312761546E+03  0.00000000000E+00 0.  1.
         11    1    4    4    0    0  0.50917737004E+02 -0.34022767847E+02 -0.24769357812E+03  0.25515147132E+03  0.00000000000E+00 0. -1.
         -1    1    1    2    0  502 -0.18892096603E+02  0.11488110713E+02 -0.13913795995E+03  0.14088385252E+03  0.00000000000E+00 0.  1.
<scales pt_clust_5="13000.00000" pt_clust_6="13000.00000" pt_clust_7="13000.00000" pt_clust_8="13000.00000" pt_clust_9="22.11081"></scales>
<clustering>
<clus scale="   22.111">  2  9  1 -1</clus>
<clus scale="   80.296">  5  6 -1 -1</clus>
<clus scale="   91.509">  7  8 -1 -1</clus>
<clus scale="  166.917">  1  5  2 -1</clus>
<clus scale="   22.111">  2  5  1 -1</clus>
</clustering>
</event>
<event>
 9    1  0.6270443E-005  0.1200078E+03  0.7546771E-02  0.1245490E+00
          3   -1    0    0  502    0 -0.00000000000E+00  0.00000000000E+00  0.12876057784E+03  0.12876057784E+03  0.00000000000E+00 0. -1.
         21   -1    0    0  501  502  0.00000000000E+00 -0.00000000000E+00 -0.24990487842E+03  0.24990487842E+03  0.00000000000E+00 0.  1.
         23    2    1    2    0    0 -0.25007719634E+02  0.72049580836E+02 -0.84972692970E+02  0.14678166096E+03  0.92238654070E+02 0.  0.
        -24    2    1    2    0    0 -0.33221016132E+02 -0.81543936198E+02 -0.90209966068E+02  0.15187834151E+03  0.84712119539E+02 0.  0.
         11    1    4    4    0    0 -0.50288669681E+02 -0.13562452029E+02 -0.37578605133E+02  0.64226489606E+02  0.00000000000E+00 0. -1.
        -12    1    4    4    0    0  0.17067653549E+02 -0.67981484169E+02 -0.52631360935E+02  0.87651851900E+02  0.00000000000E+00 0.  1.
        -11    1    3    3    0    0 -0.39193275429E+00  0.23284160789E+02 -0.89010708879E+02  0.92006586993E+02  0.00000000000E+00 0. -1.
         11    1    3    3    0    0 -0.24615786880E+02  0.48765420047E+02  0.40380159087E+01  0.54775073971E+02  0.00000000000E+00 0.  1.
          4    1    1    2  501    0  0.58228735766E+02  0.94943553623E+01  0.54038358455E+02  0.80005453796E+02  0.00000000000E+00 0. -1.
<scales pt_clust_5="13000.00000" pt_clust_6="13000.00000" pt_clust_7="13000.00000" pt_clust_8="13000.00000" pt_clust_9="58.99773"></scales>
<clustering>
<clus scale="   58.998">  2  9  1 -1</clus>
<clus scale="   84.712">  5  6 -1 -1</clus>
<clus scale="   92.239">  7  8 -1 -1</clus>
<clus scale="  114.324">  2  5  1 -1</clus>
<clus scale="   58.998">  2  5  1 -1</clus>
</clustering>
</event>
<event>
 9    1  0.6270443E-005  0.1035825E+03  0.7546771E-02  0.1277937E+00
         21   -1    0    0  501  502  0.00000000000E+00  0.00000000000E+00  0.13165367480E+03  0.13165367480E+03  0.00000000000E+00 0.  1.
          3   -1    0    0  502    0 -0.00000000000E+00 -0.00000000000E+00 -0.10026569979E+03  0.10026569979E+03  0.00000000000E+00 0. -1.
         23    2    1    2    0    0 -0.59355700383E+02  0.15962304449E+02 -0.15941040740E+02  0.10999135075E+03  0.89811391973E+02 0.  0.
        -24    2    1    2    0    0  0.34577941036E+02 -0.14404830900E+02  0.40897107330E+02  0.96281727263E+02  0.78704920159E+02 0.  0.
         11    1    4    4    0    0 -0.22455549722E+02 -0.19153407462E+02  0.95083175763E+01  0.31008270410E+02  0.00000000000E+00 0. -1.
        -12    1    4    4    0    0  0.57033490757E+02  0.47485765621E+01  0.31388789754E+02  0.65273456853E+02  0.00000000000E+00 0.  1.
        -11    1    3    3    0    0 -0.58495130865E+02  0.43139839906E+02 -0.30875882792E+02  0.78968640993E+02  0.00000000000E+00 0. -1.
         11    1    3    3    0    0 -0.86056951756E+00 -0.27177535457E+02  0.14934842052E+02  0.31022709755E+02  0.00000000000E+00 0.  1.
          4    1    1    2  501    0  0.24777759347E+02 -0.15574735490E+01  0.64319084253E+01  0.25646296577E+02  0.00000000000E+00 0. -1.
<scales pt_clust_5="13000.00000" pt_clust_6="13000.00000" pt_clust_7="13000.00000" pt_clust_8="13000.00000" pt_clust_9="24.82666"></scales>
<clustering>
<clus scale="   24.827">  1  9  2 -1</clus>
<clus scale="   78.705">  5  6 -1 -1</clus>
<clus scale="   89.811">  7  8 -1 -1</clus>
<clus scale="   94.115">  1  5  2 -1</clus>
<clus scale="   24.827">  1  5  2 -1</clus>
</clustering>
</event>
<event>
 9    1  0.6270443E-005  0.1487205E+03  0.7546771E-02  0.1230044E+00
         21   -1    0    0  501  502  0.00000000000E+00  0.00000000000E+00  0.10264142970E+03  0.10264142970E+03  0.00000000000E+00 0.  1.
         -4   -1    0    0    0  501 -0.00000000000E+00 -0.00000000000E+00 -0.36921469632E+03  0.36921469632E+03  0.00000000000E+00 0.  1.
        -24    2    1    2    0    0  0.80853687649E+01 -0.13563939888E+02 -0.17481011200E+03  0.19321447104E+03  0.80770681016E+02 0.  0.
         23    2    1    2    0    0  0.73000897481E+02 -0.75526188153E+02 -0.46962086053E+02  0.15011473471E+03  0.96414002715E+02 0.  0.
         11    1    3    3    0    0  0.41821003820E+02 -0.20537539796E+02 -0.11675446428E+03  0.12570756473E+03  0.00000000000E+00 0. -1.
        -12    1    3    3    0    0 -0.33735635056E+02  0.69735999085E+01 -0.58055647716E+02  0.67506906314E+02  0.00000000000E+00 0.  1.
        -11    1    4    4    0    0  0.56912210499E+02 -0.17236265041E+02 -0.63929154903E+02  0.87309938627E+02  0.00000000000E+00 0.  1.
         11    1    4    4    0    0  0.16088686981E+02 -0.58289923112E+02  0.16967068850E+02  0.62804796079E+02  0.00000000000E+00 0. -1.
         -3    1    1    2    0  502 -0.81086266246E+02  0.89090128041E+02 -0.44801068572E+02  0.12852692027E+03  0.00000000000E+00 0.  1.
<scales pt_clust_5="13000.00000" pt_clust_6="13000.00000" pt_clust_7="13000.00000" pt_clust_8="13000.00000" pt_clust_9="113.23487"></scales>
<clustering>
<clus scale="   80.771">  5  6 -1 -1</clus>
<clus scale="   82.300">  2  5  1 -1</clus>
<clus scale="   96.414">  7  8 -1 -1</clus>
<clus scale="  113.235">  1  9  2 -1</clus>
<clus scale="  113.235">  1  5  2 -1</clus>
</clustering>
</event>
<event>
 9    1  0.6270443E-005  0.1085896E+03  0.7546771E-02  0.1267050E+00
         21   -1    0    0  501  502  0.00000000000E+00  0.00000000000E+00  0.65156719482E+02  0.65156719482E+02  0.00000000000E+00 0. -1.
         -2   -1    0    0    0  501 -0.00000000000E+00 -0.00000000000E+00 -0.25401026730E+03  0.25401026730E+03  0.00000000000E+00 0.  1.
         23    2    1    2    0    0  0.39335116623E+02  0.51790702280E+02 -0.16197868561E+03  0.19651708103E+03  0.90290311236E+02 0.  0.
        -24    2    1    2    0    0 -0.16164745659E+02 -0.48818740208E+02 -0.16525932566E+02  0.97099974366E+02  0.80689095775E+02 0.  0.
         11    1    4    4    0    0 -0.18697662531E+02 -0.21426568794E+02  0.31074209096E+02  0.42122522543E+02  0.00000000000E+00 0. -1.
        -12    1    4    4    0    0  0.25329168724E+01 -0.27392171414E+02 -0.47600141662E+02  0.54977451823E+02  0.00000000000E+00 0.  1.
        -11    1    3    3    0    0 -0.21072294025E+02 -0.37242518964E+01 -0.95954803419E+01  0.23451756238E+02  0.00000000000E+00 0.  1.
         11    1    3    3    0    0  0.60407410648E+02  0.55514954176E+02 -0.15238320527E+03  0.17306532479E+03  0.00000000000E+00 0. -1.
         -1    1    1    2    0  502 -0.23170370964E+02 -0.29719620716E+01 -0.10348929648E+02  0.25549931390E+02  0.00000000000E+00 0.  1.
<scales pt_clust_5="13000.00000" pt_clust_6="13000.00000" pt_clust_7="13000.00000" pt_clust_8="13000.00000" pt_clust_9="23.36019"></scales>
<clustering>
<clus scale="   23.360">  1  9  2 -1</clus>
<clus scale="   80.689">  5  6 -1 -1</clus>
<clus scale="   90.290">  7  8 -1 -1</clus>
<clus scale="  100.748">  1  5  2 -1</clus>
<clus scale="   23.360">  1  5  2 -1</clus>
</clustering>
</event>
<event>
 9    1  0.6270443E-005  0.1752545E+03  0.7546771E-02  0.1172818E+00
         21   -1    0    0  501  502  0.00000000000E+00  0.00000000000E+00  0.95130100705E+02  0.95130100705E+02  0.00000000000E+00 0. -1.
          1   -1    0    0  502    0 -0.00000000000E+00 -0.00000000000E+00 -0.67737820372E+03  0.67737820372E+03  0.00000000000E+00 0. -1.
        -24    2    1    2    0    0 -0.65421160603E+02 -0.13978206753E+03 -0.37388412071E+03  0.41413521267E+03  0.88880166528E+02 0.  0.
         23    2    1    2    0    0 -0.16223635274E+02  0.14998432437E+03 -0.55831718843E+02  0.18506397446E+03  0.91504043170E+02 0.  0.
         11    1    3    3    0    0 -0.10896399493E+02 -0.11631430830E+03 -0.27526067117E+03  0.29902539513E+03  0.00000000000E+00 0. -1.
        -12    1    3    3    0    0 -0.54524761110E+02 -0.23467759232E+02 -0.98623449534E+02  0.11510981755E+03  0.00000000000E+00 0.  1.
        -11    1    4    4    0    0 -0.30649723084E+02  0.10960481442E+03  0.10704281187E+01  0.11381461543E+03  0.00000000000E+00 0. -1.
         11    1    4    4    0    0  0.14426087810E+02  0.40379509943E+02 -0.56902146961E+02  0.71249359025E+02  0.00000000000E+00 0.  1.
          2    1    1    2  501    0  0.81644795877E+02 -0.10202256835E+02 -0.15253226346E+03  0.17330911729E+03  0.00000000000E+00 0. -1.
<scales pt_clust_5="13000.00000" pt_clust_6="13000.00000" pt_clust_7="13000.00000" pt_clust_8="13000.00000" pt_clust_9="82.27980"></scales>
<clustering>
<clus scale="   82.280">  1  9  2 -1</clus>
<clus scale="   88.880">  5  6 -1 -1</clus>
<clus scale="   91.504">  7  8 -1 -1</clus>
<clus scale="  173.899">  2  5  1 -1</clus>
<clus scale="   82.280">  1  5  2 -1</clus>
</clustering>
</event>
<event>
 9    1  0.6270443E-005  0.1803385E+03  0.7546771E-02  0.1193866E+00
          1   -1    0    0  502    0 -0.00000000000E+00  0.00000000000E+00  0.13920010199E+04  0.13920010199E+04  0.00000000000E+00 0. -1.
         21   -1    0    0  501  502  0.00000000000E+00 -0.00000000000E+00 -0.62950774334E+02  0.62950774334E+02  0.00000000000E+00 0.  1.
         23    2    1    2    0    0 -0.33979767110E+02  0.23390323637E+02  0.25133067645E+02  0.10282422893E+03  0.90771246287E+02 0.  0.
        -24    2    1    2    0    0 -0.32605154501E+02 -0.16736062478E+03  0.86900628219E+03  0.88919291914E+03  0.80121496017E+02 0.  0.
         13    1    4    4    0    0  0.12081794825E+02 -0.12164769726E+03  0.63214559183E+03  0.64385726779E+03  0.00000000000E+00 0. -1.
        -14    1    4    4    0    0 -0.44686949327E+02 -0.45712927518E+02  0.23686069036E+03  0.24533565135E+03  0.00000000000E+00 0.  1.
        -11    1    3    3    0    0 -0.54736343339E+02  0.27798307045E+01  0.42008418641E+02  0.69054340759E+02  0.00000000000E+00 0.  1.
         11    1    3    3    0    0  0.20756576229E+02  0.20610492932E+02 -0.16875350996E+02  0.33769888168E+02  0.00000000000E+00 0. -1.
          2    1    1    2  501    0  0.66584921612E+02  0.14397030115E+03  0.43491089568E+03  0.46293464612E+03  0.00000000000E+00 0. -1.
<scales pt_clust_5="13000.00000" pt_clust_6="13000.00000" pt_clust_7="13000.00000" pt_clust_8="13000.00000" pt_clust_9="161.56269"></scales>
<clustering>
<clus scale="   80.121">  5  6 -1 -1</clus>
<clus scale="   90.771">  7  8 -1 -1</clus>
<clus scale="   99.705">  1  7  2 -1</clus>
<clus scale="  161.563">  2  9  1 -1</clus>
<clus scale="  161.563">  2  5  1 -1</clus>
</clustering>
</event>
<event>
 9    1  0.6270443E-005  0.9880638E+02  0.7546771E-02  0.1284920E+00
          1   -1    0    0  502    0 -0.00000000000E+00  0.00000000000E+00  0.86466946024E+02  0.86466946024E+02  0.00000000000E+00 0. -1.
         21   -1    0    0  501  502  0.00000000000E+00 -0.00000000000E+00 -0.38535045785E+03  0.38535045785E+03  0.00000000000E+00 0. -1.
         23    2    1    2    0    0 -0.33623775789E+02  0.20470577803E+01  0.85946061519E+01  0.99114297712E+02  0.92817175201E+02 0.  0.
        -24    2    1    2    0    0  0.12499205560E+02 -0.83733200742E+02 -0.21502301373E+03  0.24753593906E+03  0.88722407804E+02 0.  0.
         11    1    4    4    0    0 -0.17836732952E+02 -0.89405936585E+02 -0.17080834982E+03  0.19361576100E+03  0.00000000000E+00 0. -1.
        -12    1    4    4    0    0  0.30335938512E+02  0.56727358434E+01 -0.44214663907E+02  0.53920178058E+02  0.00000000000E+00 0.  1.
        -13    1    3    3    0    0  0.84248371341E+01  0.23848781857E+02 -0.29118242550E+02  0.38569603654E+02  0.00000000000E+00 0.  1.
         13    1    3    3    0    0 -0.42048612923E+02 -0.21801724077E+02  0.37712848702E+02  0.60544694059E+02  0.00000000000E+00 0. -1.
          2    1    1    2  501    0  0.21124570229E+02  0.81686142962E+02 -0.92455104253E+02  0.12516716711E+03  0.00000000000E+00 0. -1.
<scales pt_clust_5="13000.00000" pt_clust_6="13000.00000" pt_clust_7="13000.00000" pt_clust_8="13000.00000" pt_clust_9="84.37342"></scales>
<clustering>
<clus scale="   84.373">  2  9  1 -1</clus>
<clus scale="   88.722">  5  6 -1 -1</clus>
<clus scale="   92.817">  7  8 -1 -1</clus>
<clus scale="   94.970">  2  5  1 -1</clus>
<clus scale="   84.373">  2  5  1 -1</clus>
</clustering>
</event>
<event>
 9    1  0.6270443E-005  0.1287954E+03  0.7546771E-02  0.1232106E+00
          3   -1    0    0  502    0 -0.00000000000E+00  0.00000000000E+00  0.95350321768E+02  0.95350321768E+02  0.00000000000E+00 0. -1.
         21   -1    0    0  501  502  0.00000000000E+00 -0.00000000000E+00 -0.52468193929E+03  0.52468193929E+03  0.00000000000E+00 0.  1.
        -24    2    1    2    0    0 -0.46334406362E+02 -0.83420759080E+02 -0.16547874994E+03  0.20720636215E+03  0.80282996805E+02 0.  0.
         23    2    1    2    0    0  0.35684169160E+01  0.89759232498E+02 -0.31845765161E+03  0.34317829639E+03  0.91030839954E+02 0.  0.
         11    1    3    3    0    0 -0.37915001156E+02 -0.17633382657E+01 -0.80787710414E+02  0.89259794020E+02  0.00000000000E+00 0. -1.
        -12    1    3    3    0    0 -0.84194052060E+01 -0.81657420814E+02 -0.84691039527E+02  0.11794656813E+03  0.00000000000E+00 0.  1.
        -13    1    4    4    0    0  0.14311563492E-01  0.58638202851E+02 -0.30229720734E+03  0.30793187657E+03  0.00000000000E+00 0.  1.
         13    1    4    4    0    0  0.35541053525E+01  0.31121029646E+02 -0.16160444268E+02  0.35246419819E+02  0.00000000000E+00 0. -1.
          4    1    1    2  501    0  0.42765989446E+02 -0.63384734174E+01  0.54604784027E+02  0.69647602524E+02  0.00000000000E+00 0. -1.
<scales pt_clust_5="13000.00000" pt_clust_6="13000.00000" pt_clust_7="13000.00000" pt_clust_8="13000.00000" pt_clust_9="43.23318"></scales>
<clustering>
<clus scale="   43.233">  2  9  1 -1</clus>
<clus scale="   80.283">  5  6 -1 -1</clus>
<clus scale="   91.031">  7  8 -1 -1</clus>
<clus scale="  121.437">  1  5  2 -1</clus>
<clus scale="   43.233">  2  5  1 -1</clus>
</clustering>
</event>
<event>
 9    1  0.6270443E-005  0.1066083E+03  0.7546771E-02  0.1270890E+00
          1   -1    0    0  502    0 -0.00000000000E+00  0.00000000000E+00  0.39384778545E+03  0.39384778545E+03  0.00000000000E+00 0. -1.
         21   -1    0    0  501  502  0.00000000000E+00 -0.00000000000E+00 -0.75767907941E+02  0.75767907941E+02  0.00000000000E+00 0. -1.
        -24    2    1    2    0    0 -0.13422848555E+02  0.67189166930E+02  0.18623962159E+03  0.21472233494E+03  0.82011751936E+02 0.  0.
         23    2    1    2    0    0 -0.35693400569E+02 -0.39893827441E+02  0.16018640311E+03  0.19195731515E+03  0.91227138435E+02 0.  0.
         11    1    3    3    0    0 -0.39832053767E+02  0.57428071375E+02  0.16580504320E+03  0.17993301042E+03  0.00000000000E+00 0. -1.
        -12    1    3    3    0    0  0.26409205211E+02  0.97610955553E+01  0.20434578389E+02  0.34789324516E+02  0.00000000000E+00 0.  1.
        -11    1    4    4    0    0 -0.11946594298E+02 -0.42749496686E+02  0.16199981657E+03  0.16797077469E+03  0.00000000000E+00 0. -1.
         11    1    4    4    0    0 -0.23746806270E+02  0.28556692448E+01 -0.18134134586E+01  0.23986540460E+02  0.00000000000E+00 0.  1.
          2    1    1    2  501    0  0.49116249124E+02 -0.27295339489E+02 -0.28346147190E+02  0.62936043301E+02  0.00000000000E+00 0. -1.
<scales pt_clust_5="13000.00000" pt_clust_6="13000.00000" pt_clust_7="13000.00000" pt_clust_8="13000.00000" pt_clust_9="56.19112"></scales>
<clustering>
<clus scale="   56.191">  2  9  1 -1</clus>
<clus scale="   82.012">  5  6 -1 -1</clus>
<clus scale="   91.227">  7  8 -1 -1</clus>
<clus scale="   98.838">  1  5  2 -1</clus>
<clus scale="   56.191">  2  5  1 -1</clus>
</clustering>
</event>
<event>
 9    1  0.6270443E-005  0.9359496E+02  0.7546771E-02  0.1300564E+00
          1   -1    0    0  502    0 -0.00000000000E+00  0.00000000000E+00  0.25864326969E+03  0.25864326969E+03  0.00000000000E+00 0. -1.
         21   -1    0    0  501  502  0.00000000000E+00 -0.00000000000E+00 -0.65040018101E+02  0.65040018101E+02  0.00000000000E+00 0.  1.
        -24    2    1    2    0    0 -0.17448711824E+02  0.18673015650E+02  0.14583662311E+03  0.16853801856E+03  0.80520829608E+02 0.  0.
         23    2    1    2    0    0 -0.18821279403E+02 -0.21962607381E+02  0.49497648039E+00  0.95471633851E+02  0.90983466559E+02 0.  0.
         11    1    3    3    0    0  0.27325845417E+02 -0.51931691662E+01  0.24677656238E+02  0.37184103473E+02  0.00000000000E+00 0. -1.
        -12    1    3    3    0    0 -0.44774557241E+02  0.23866184816E+02  0.12115896688E+03  0.13135391509E+03  0.00000000000E+00 0.  1.
        -13    1    4    4    0    0  0.13902057698E+02  0.22778470121E+02 -0.23035844886E+02  0.35253029074E+02  0.00000000000E+00 0. -1.
         13    1    4    4    0    0 -0.32723337101E+02 -0.44741077502E+02  0.23530821366E+02  0.60218604777E+02  0.00000000000E+00 0.  1.
          2    1    1    2  501    0  0.36269991227E+02  0.32895917312E+01  0.47271651994E+02  0.59673635381E+02  0.00000000000E+00 0. -1.
<scales pt_clust_5="13000.00000" pt_clust_6="13000.00000" pt_clust_7="13000.00000" pt_clust_8="13000.00000" pt_clust_9="36.41888"></scales>
<clustering>
<clus scale="   36.419">  2  9  1 -1</clus>
<clus scale="   80.521">  5  6 -1 -1</clus>
<clus scale="   83.460">  1  5  2 -1</clus>
<clus scale="   90.983">  7  8 -1 -1</clus>
<clus scale="   36.419">  2  5  1 -1</clus>
</clustering>
</event>
<event>
 9    1  0.6270443E-005  0.1533665E+03  0.7546771E-02  0.1198483E+00
          1   -1    0    0  502    0 -0.00000000000E+00  0.00000000000E+00  0.68884974434E+03  0.68884974434E+03  0.00000000000E+00 0. -1.
         21   -1    0    0  501  502  0.00000000000E+00 -0.00000000000E+00 -0.10130510588E+03  0.10130510588E+03  0.00000000000E+00 0.  1.
        -24    2    1    2    0    0  0.10694184194E+03 -0.30266124408E+02  0.55926893762E+03  0.57920206080E+03  0.10168916757E+03 0.  0.
         23    2    1    2    0    0 -0.12886768053E+03  0.62509817312E+02  0.27563963342E+02  0.17195401124E+03  0.91071694614E+02 0.  0.
         11    1    3    3    0    0  0.48729862560E+02 -0.62339235254E+02  0.37647835816E+03  0.38470343633E+03  0.00000000000E+00 0. -1.
        -12    1    3    3    0    0  0.58211979379E+02  0.32073110845E+02  0.18279057946E+03  0.19449862447E+03  0.00000000000E+00 0.  1.
        -11    1    4    4    0    0 -0.36429117043E+02  0.48533320488E+02 -0.23917517273E+02  0.65227382277E+02  0.00000000000E+00 0.  1.
         11    1    4    4    0    0 -0.92438563489E+02  0.13976496824E+02  0.51481480615E+02  0.10672662896E+03  0.00000000000E+00 0. -1.
          2    1    1    2  501    0  0.21925838594E+02 -0.32243692904E+02  0.71173749732E+00  0.38998778191E+02  0.00000000000E+00 0. -1.
<scales pt_clust_5="13000.00000" pt_clust_6="13000.00000" pt_clust_7="13000.00000" pt_clust_8="13000.00000" pt_clust_9="38.99228"></scales>
<clustering>
<clus scale="   38.992">  2  9  1 -1</clus>
<clus scale="   91.072">  7  8 -1 -1</clus>
<clus scale="  101.689">  5  6 -1 -1</clus>
<clus scale="  146.542">  2  7  1 -1</clus>
<clus scale="   38.992">  2  5  1 -1</clus>
</clustering>
</event>
<event>
 9    1  0.6270443E-005  0.1355260E+03  0.7546771E-02  0.1226471E+00
         21   -1    0    0  501  502  0.00000000000E+00  0.00000000000E+00  0.40085680772E+03  0.40085680772E+03  0.00000000000E+00 0. -1.
          1   -1    0    0  502    0 -0.00000000000E+00 -0.00000000000E+00 -0.12648936056E+03  0.12648936056E+03  0.00000000000E+00 0. -1.
        -24    2    1    2    0    0 -0.74168598662E+02 -0.44425001715E+02  0.63564443827E+02  0.13324497369E+03  0.78988750402E+02 0.  0.
         23    2    1    2    0    0 -0.75358312703E+02 -0.35392405590E+02  0.18562073570E+03  0.22274407528E+03  0.90710351580E+02 0.  0.
         13    1    3    3    0    0 -0.75113949394E+02 -0.57103973011E+02  0.71386458498E+02  0.11831735115E+03  0.00000000000E+00 0. -1.
        -14    1    3    3    0    0  0.94535073167E+00  0.12678971296E+02 -0.78220146703E+01  0.14927622538E+02  0.00000000000E+00 0.  1.
        -11    1    4    4    0    0 -0.26239358091E+02  0.30899131643E+02  0.57369220112E+02  0.70245908532E+02  0.00000000000E+00 0.  1.
         11    1    4    4    0    0 -0.49118954612E+02 -0.66291537233E+02  0.12825151559E+03  0.15249816675E+03  0.00000000000E+00 0. -1.
          2    1    1    2  501    0  0.14952691137E+03  0.79817407306E+02  0.25182267629E+02  0.17135711930E+03  0.00000000000E+00 0. -1.
<scales pt_clust_5="13000.00000" pt_clust_6="13000.00000" pt_clust_7="13000.00000" pt_clust_8="13000.00000" pt_clust_9="100.69234"></scales>
<clustering>
<clus scale="   78.989">  5  6 -1 -1</clus>
<clus scale="   90.710">  7  8 -1 -1</clus>
<clus scale="  117.106">  2  5  1 -1</clus>
<clus scale="  100.692">  1  9  2 -1</clus>
<clus scale="  100.692">  1  5  2 -1</clus>
</clustering>
</event>
<event>
 9    1  0.6270443E-005  0.2325709E+03  0.7546771E-02  0.1125614E+00
         21   -1    0    0  501  502  0.00000000000E+00  0.00000000000E+00  0.15277528881E+03  0.15277528881E+03  0.00000000000E+00 0. -1.
         -2   -1    0    0    0  501 -0.00000000000E+00 -0.00000000000E+00 -0.48684029781E+03  0.48684029781E+03  0.00000000000E+00 0.  1.
        -24    2    1    2    0    0 -0.12887920729E+03 -0.18414340721E+03 -0.28449002849E+03  0.37141109280E+03  0.80579023683E+02 0.  0.
         23    2    1    2    0    0  0.95207515027E+02  0.16162699643E+03 -0.66247386362E+01  0.20916641382E+03  0.92298128993E+02 0.  0.
         11    1    3    3    0    0 -0.27059182706E+02 -0.93146431093E+01 -0.97861533099E+01  0.30244515892E+02  0.00000000000E+00 0. -1.
        -12    1    3    3    0    0 -0.10182002458E+03 -0.17482876410E+03 -0.27470387518E+03  0.34116657691E+03  0.00000000000E+00 0.  1.
        -11    1    4    4    0    0  0.40133932388E+02  0.12635488637E+02 -0.25506951831E+02  0.49203584156E+02  0.00000000000E+00 0.  1.
         11    1    4    4    0    0  0.55073582638E+02  0.14899150779E+03  0.18882213195E+02  0.15996282966E+03  0.00000000000E+00 0. -1.
         -1    1    1    2    0  502  0.33671692259E+02  0.22516410780E+02 -0.42950241875E+02  0.59038080008E+02  0.00000000000E+00 0.  1.
<scales pt_clust_5="13000.00000" pt_clust_6="13000.00000" pt_clust_7="13000.00000" pt_clust_8="13000.00000" pt_clust_9="40.50646"></scales>
<clustering>
<clus scale="   40.506">  1  9  2 -1</clus>
<clus scale="   80.579">  5  6 -1 -1</clus>
<clus scale="   92.298">  7  8 -1 -1</clus>
<clus scale="  228.174">  2  5  1 -1</clus>
<clus scale="   40.506">  1  5  2 -1</clus>
</clustering>
</event>
<event>
 9    1  0.6270443E-005  0.1644119E+03  0.7546771E-02  0.1206968E+00
          1   -1    0    0  502    0 -0.00000000000E+00  0.00000000000E+00  0.15806738239E+04  0.15806738239E+04  0.00000000000E+00 0. -1.
         21   -1    0    0  501  502  0.00000000000E+00 -0.00000000000E+00 -0.29560144517E+02  0.29560144517E+02  0.00000000000E+00 0. -1.
        -24    2    1    2    0    0  0.57197389970E+02 -0.81500285190E+01  0.27472095414E+03  0.29201871602E+03  0.80407483941E+02 0.  0.
         23    2    1    2    0    0 -0.97105678239E+02 -0.93200914295E+02  0.40828913938E+03  0.44330467362E+03  0.10818081691E+03 0.  0.
         13    1    3    3    0    0  0.57515001782E+02 -0.53042102011E+01  0.87916431900E+02  0.10519224816E+03  0.00000000000E+00 0. -1.
        -14    1    3    3    0    0 -0.31761181166E+00 -0.28458183179E+01  0.18680452224E+03  0.18682646785E+03  0.00000000000E+00 0.  1.
        -13    1    4    4    0    0 -0.18528073961E+01 -0.31692762568E+02  0.17192400793E+02  0.36103223394E+02  0.00000000000E+00 0.  1.
         13    1    4    4    0    0 -0.95252870843E+02 -0.61508151727E+02  0.39109673859E+03  0.40720145022E+03  0.00000000000E+00 0. -1.
          2    1    1    2  501    0  0.39908288269E+02  0.10135094281E+03  0.86810358588E+03  0.87491057880E+03  0.00000000000E+00 0. -1.
<scales pt_clust_5="13000.00000" pt_clust_6="13000.00000" pt_clust_7="13000.00000" pt_clust_8="13000.00000" pt_clust_9="123.80706"></scales>
<clustering>
<clus scale="   80.407">  5  6 -1 -1</clus>
<clus scale="   99.012">  1  5  2 -1</clus>
<clus scale="  108.181">  7  8 -1 -1</clus>
<clus scale="  123.807">  2  9  1 -1</clus>
<clus scale="  123.807">  2  5  1 -1</clus>
</clustering>
</event>
<event>
 9    1  0.6270443E-005  0.1353028E+03  0.7546771E-02  0.1220397E+00
          1   -1    0    0  502    0 -0.00000000000E+00  0.00000000000E+00  0.18388559986E+03  0.18388559986E+03  0.00000000000E+00 0. -1.
         21   -1    0    0  501  502  0.00000000000E+00 -0.00000000000E+00 -0.24519701755E+03  0.24519701755E+03  0.00000000000E+00 0. -1.
        -24    2    1    2    0    0 -0.88514813760E+02  0.82613272720E+02  0.10105457042E+03  0.17328790219E+03  0.71811181283E+02 0.  0.
         23    2    1    2    0    0  0.95455160507E+02 -0.25606028612E+02 -0.58548391373E+02  0.13715202608E+03  0.74936024423E+02 0.  0.
         13    1    3    3    0    0 -0.22568069689E+02 -0.37176179202E+01  0.46279985610E+02  0.51623400901E+02  0.00000000000E+00 0. -1.
        -14    1    3    3    0    0 -0.65946744071E+02  0.86330890641E+02  0.54774584813E+02  0.12166450129E+03  0.00000000000E+00 0.  1.
        -13    1    4    4    0    0  0.16583301428E+02  0.15195638319E+02  0.10347980274E+02  0.24758715757E+02  0.00000000000E+00 0. -1.
         13    1    4    4    0    0  0.78871859080E+02 -0.40801666931E+02 -0.68896371647E+02  0.11239331032E+03  0.00000000000E+00 0.  1.
          2    1    1    2  501    0 -0.69403467474E+01 -0.57007244108E+02 -0.10381759674E+03  0.11864268914E+03  0.00000000000E+00 0. -1.
<scales pt_clust_5="13000.00000" pt_clust_6="13000.00000" pt_clust_7="13000.00000" pt_clust_8="13000.00000" pt_clust_9="57.42817"></scales>
<clustering>
<clus scale="   57.428">  2  9  1 -1</clus>
<clus scale="   71.811">  5  6 -1 -1</clus>
<clus scale="   74.936">  7  8 -1 -1</clus>
<clus scale="  133.597">  1  5  2 -1</clus>
<clus scale="   57.428">  2  5  1 -1</clus>
</clustering>
</event>
<event>
 9    1  0.6270443E-005  0.1147145E+03  0.7546771E-02  0.1253140E+00
         -2   -1    0    0    0  501 -0.00000000000E+00  0.00000000000E+00  0.28938536798E+03  0.28938536798E+03  0.00000000000E+00 0.  1.
         21   -1    0    0  501  502  0.00000000000E+00 -0.00000000000E+00 -0.42155308662E+03  0.42155308662E+03  0.00000000000E+00 0.  1.
        -24    2    1    2    0    0 -0.47956370406E+02 -0.45835757432E+02  0.23423909156E+03  0.26085011453E+03  0.93670166608E+02 0.  0.
         23    2    1    2    0    0  0.90576830658E+02 -0.56341261274E+01 -0.69862701306E+02  0.14610797711E+03  0.90723967683E+02 0.  0.
         13    1    3    3    0    0 -0.47440733854E+02 -0.38514132089E+02  0.57332323079E+02  0.83791150301E+02  0.00000000000E+00 0. -1.
        -14    1    3    3    0    0 -0.51563655182E+00 -0.73216253434E+01  0.17690676848E+03  0.17705896423E+03  0.00000000000E+00 0.  1.
        -11    1    4    4    0    0  0.91873920721E+02 -0.33506162621E+02 -0.65902036552E+02  0.11792607288E+03  0.00000000000E+00 0.  1.
         11    1    4    4    0    0 -0.12970900633E+01  0.27872036494E+02 -0.39606647541E+01  0.28181904234E+02  0.00000000000E+00 0. -1.
         -1    1    1    2    0  502 -0.42620460252E+02  0.51469883559E+02 -0.29654410890E+03  0.30398036296E+03  0.00000000000E+00 0.  1.
<scales pt_clust_5="13000.00000" pt_clust_6="13000.00000" pt_clust_7="13000.00000" pt_clust_8="13000.00000" pt_clust_9="66.82554"></scales>
<clustering>
<clus scale="   66.826">  2  9  1 -1</clus>
<clus scale="   90.724">  7  8 -1 -1</clus>
<clus scale="   93.670">  5  6 -1 -1</clus>
<clus scale="  112.322">  2  7  1 -1</clus>
<clus scale="   66.826">  2  5  1 -1</clus>
</clustering>
</event>
<event>
 9    1  0.6270443E-005  0.1331537E+03  0.7546771E-02  0.1225643E+00
         21   -1    0    0  501  502  0.00000000000E+00  0.00000000000E+00  0.92912779843E+02  0.92912779843E+02  0.00000000000E+00 0. -1.
          1   -1    0    0  502    0 -0.00000000000E+00 -0.00000000000E+00 -0.31676804968E+03  0.31676804968E+03  0.00000000000E+00 0. -1.
         23    2    1    2    0    0 -0.11164992641E+03 -0.24204180426E+01 -0.15135015821E+03  0.20919963530E+03  0.91575392599E+02 0.  0.
        -24    2    1    2    0    0  0.67098424437E+02 -0.29327327325E+02  0.12740897239E+01  0.10863280711E+03  0.80231993526E+02 0.  0.
         11    1    4    4    0    0  0.43976681174E+02 -0.57363323489E+02  0.12950375133E+01  0.72292298974E+02  0.00000000000E+00 0. -1.
        -12    1    4    4    0    0  0.23121743263E+02  0.28035996164E+02 -0.20947789406E-01  0.36340508132E+02  0.00000000000E+00 0.  1.
        -13    1    3    3    0    0 -0.56278087813E+02 -0.12709947287E+02 -0.12043578134E+02  0.58939067707E+02  0.00000000000E+00 0.  1.
         13    1    3    3    0    0 -0.55371838595E+02  0.10289529244E+02 -0.13930658007E+03  0.15026056759E+03  0.00000000000E+00 0. -1.
          2    1    1    2  501    0  0.44551501971E+02  0.31747745368E+02 -0.73779201351E+02  0.91848387116E+02  0.00000000000E+00 0. -1.
<scales pt_clust_5="13000.00000" pt_clust_6="13000.00000" pt_clust_7="13000.00000" pt_clust_8="13000.00000" pt_clust_9="54.70611"></scales>
<clustering>
<clus scale="   54.706">  1  9  2 -1</clus>
<clus scale="   80.232">  5  6 -1 -1</clus>
<clus scale="   91.575">  7  8 -1 -1</clus>
<clus scale="  125.623">  1  5  2 -1</clus>
<clus scale="   54.706">  1  5  2 -1</clus>
</clustering>
</event>
<event>
 9    1  0.6270443E-005  0.1334079E+03  0.7546771E-02  0.1230523E+00
          1   -1    0    0  502    0 -0.00000000000E+00  0.00000000000E+00  0.88000144555E+03  0.88000144555E+03  0.00000000000E+00 0. -1.
         21   -1    0    0  501  502  0.00000000000E+00 -0.00000000000E+00 -0.89423004516E+02  0.89423004516E+02  0.00000000000E+00 0. -1.
        -24    2    1    2    0    0 -0.78833109914E+02 -0.87445811449E+01  0.69650340343E+03  0.70559375766E+03  0.80339485499E+02 0.  0.
         23    2    1    2    0    0 -0.46585590948E+02  0.49810478285E+02  0.56328300310E+02  0.12656789844E+03  0.90527644776E+02 0.  0.
         11    1    3    3    0    0 -0.34258785842E+02 -0.33564331883E+02  0.17035334293E+03  0.17697595947E+03  0.00000000000E+00 0. -1.
        -12    1    3    3    0    0 -0.44574324071E+02  0.24819750738E+02  0.52615006051E+03  0.52861779819E+03  0.00000000000E+00 0.  1.
        -11    1    4    4    0    0  0.21484872766E+01  0.41547444928E+02  0.64214173910E+02  0.76513177353E+02  0.00000000000E+00 0.  1.
         11    1    4    4    0    0 -0.48734078224E+02  0.82630333568E+01 -0.78858736001E+01  0.50054721087E+02  0.00000000000E+00 0. -1.
          2    1    1    2  501    0  0.12541870086E+03 -0.41065897140E+02  0.37746737295E+02  0.13726279398E+03  0.00000000000E+00 0. -1.
<scales pt_clust_5="13000.00000" pt_clust_6="13000.00000" pt_clust_7="13000.00000" pt_clust_8="13000.00000" pt_clust_9="97.99190"></scales>
<clustering>
<clus scale="   80.339">  5  6 -1 -1</clus>
<clus scale="   90.528">  7  8 -1 -1</clus>
<clus scale="  112.896">  1  5  2 -1</clus>
<clus scale="   97.992">  2  9  1 -1</clus>
<clus scale="   97.992">  2  5  1 -1</clus>
</clustering>
</event>
<event>
 9    1  0.6270443E-005  0.8943560E+02  0.7546771E-02  0.1304334E+00
         -2   -1    0    0    0  501 -0.00000000000E+00  0.00000000000E+00  0.87121661256E+02  0.87121661256E+02  0.00000000000E+00 0.  1.
         21   -1    0    0  501  502  0.00000000000E+00 -0.00000000000E+00 -0.44636331593E+03  0.44636331593E+03  0.00000000000E+00 0. -1.
         23    2    1    2    0    0  0.38022017230E+02  0.69425876919E+01  0.49772700319E+02  0.10186453230E+03  0.80032417966E+02 0.  0.
        -24    2    1    2    0    0 -0.51054658693E+02  0.21822147075E+02 -0.22997177314E+03  0.24981421335E+03  0.80233038534E+02 0.  0.
         11    1    4    4    0    0 -0.68306569799E+02 -0.58524464162E+00 -0.14555853184E+03  0.16078997537E+03  0.00000000000E+00 0. -1.
        -12    1    4    4    0    0  0.17251911105E+02  0.22407391717E+02 -0.84413241301E+02  0.89024237977E+02  0.00000000000E+00 0.  1.
        -13    1    3    3    0    0  0.58390540491E+02 -0.74663116517E+01  0.49501992492E+02  0.76913251714E+02  0.00000000000E+00 0.  1.
         13    1    3    3    0    0 -0.20368523261E+02  0.14408899344E+02  0.27070782712E+00  0.24951280586E+02  0.00000000000E+00 0. -1.
         -1    1    1    2    0  502  0.13032641464E+02 -0.28764734767E+02 -0.17904258185E+03  0.18180623153E+03  0.00000000000E+00 0.  1.
<scales pt_clust_5="13000.00000" pt_clust_6="13000.00000" pt_clust_7="13000.00000" pt_clust_8="13000.00000" pt_clust_9="31.57942"></scales>
<clustering>
<clus scale="   31.579">  2  9  1 -1</clus>
<clus scale="   80.032">  7  8 -1 -1</clus>
<clus scale="   80.233">  5  6 -1 -1</clus>
<clus scale="   89.256">  1  7  2 -1</clus>
<clus scale="   31.579">  2  5  1 -1</clus>
</clustering>
</event>
<event>
 9    1  0.6270443E-005  0.9534773E+02  0.7546771E-02  0.1296911E+00
         21   -1    0    0  501  502  0.00000000000E+00  0.00000000000E+00  0.14932938386E+03  0.14932938386E+03  0.00000000000E+00 0.  1.
          1   -1    0    0  502    0 -0.00000000000E+00 -0.00000000000E+00 -0.19366770347E+03  0.19366770347E+03  0.00000000000E+00 0. -1.
         23    2    1    2    0    0 -0.24535668598E+02  0.68991963109E+01 -0.15587477710E+03  0.18308212852E+03  0.92587913386E+02 0.  0.
        -24    2    1    2    0    0  0.11579273324E+01 -0.17024252584E+02  0.60217029060E+02  0.10261993908E+03  0.81324014514E+02 0.  0.
         11    1    4    4    0    0 -0.56260493769E+01  0.29567922102E+02  0.57841251231E+01  0.30649152557E+02  0.00000000000E+00 0. -1.
        -12    1    4    4    0    0  0.67839767094E+01 -0.46592174686E+02  0.54432903937E+02  0.71970786525E+02  0.00000000000E+00 0.  1.
        -11    1    3    3    0    0  0.28221918857E+02  0.14316486813E+02 -0.20770996021E+02  0.37853305990E+02  0.00000000000E+00 0.  1.
         11    1    3    3    0    0 -0.52757587455E+02 -0.74172905025E+01 -0.13510378108E+03  0.14522882253E+03  0.00000000000E+00 0. -1.
          2    1    1    2  501    0  0.23377741265E+02  0.10125056273E+02  0.51319428428E+02  0.57295019726E+02  0.00000000000E+00 0. -1.
<scales pt_clust_5="13000.00000" pt_clust_6="13000.00000" pt_clust_7="13000.00000" pt_clust_8="13000.00000" pt_clust_9="25.47618"></scales>
<clustering>
<clus scale="   25.476">  1  9  2 -1</clus>
<clus scale="   81.324">  5  6 -1 -1</clus>
<clus scale="   84.453">  1  5  2 -1</clus>
<clus scale="   92.588">  7  8 -1 -1</clus>
<clus scale="   25.476">  1  5  2 -1</clus>
</clustering>
</event>
<event>
 9    1  0.6270443E-005  0.9735402E+02  0.7546771E-02  0.1294246E+00
          1   -1    0    0  502    0 -0.00000000000E+00  0.00000000000E+00  0.19944815253E+03  0.19944815253E+03  0.00000000000E+00 0. -1.
         21   -1    0    0  501  502  0.00000000000E+00 -0.00000000000E+00 -0.95656423358E+02  0.95656423358E+02  0.00000000000E+00 0. -1.
        -24    2    1    2    0    0 -0.48932822532E+02 -0.35324104729E+02  0.80503751862E+02  0.12511094855E+03  0.74361830844E+02 0.  0.
         23    2    1    2    0    0  0.18250354575E+02 -0.20279864687E+02  0.43405316564E+02  0.10337589251E+03  0.89767506888E+02 0.  0.
         11    1    3    3    0    0 -0.50715056816E+02 -0.54242868644E+02  0.51248485149E+02  0.90225899922E+02  0.00000000000E+00 0. -1.
        -12    1    3    3    0    0  0.17822342846E+01  0.18918763915E+02  0.29255266713E+02  0.34885048625E+02  0.00000000000E+00 0.  1.
        -11    1    4    4    0    0  0.48422309501E+02 -0.27113943198E+02  0.75318824784E+01  0.56005492828E+02  0.00000000000E+00 0.  1.
         11    1    4    4    0    0 -0.30171954926E+02  0.68340785113E+01  0.35873434086E+02  0.47370399685E+02  0.00000000000E+00 0. -1.
          2    1    1    2  501    0  0.30682467957E+02  0.55603969416E+02 -0.20117339257E+02  0.66617734827E+02  0.00000000000E+00 0. -1.
<scales pt_clust_5="13000.00000" pt_clust_6="13000.00000" pt_clust_7="13000.00000" pt_clust_8="13000.00000" pt_clust_9="63.50760"></scales>
<clustering>
<clus scale="   63.508">  2  9  1 -1</clus>
<clus scale="   74.362">  5  6 -1 -1</clus>
<clus scale="   83.362">  1  5  2 -1</clus>
<clus scale="   89.768">  7  8 -1 -1</clus>
<clus scale="   63.508">  2  5  1 -1</clus>
</clustering>
</event>
<event>
 9    1  0.6270443E-005  0.1314139E+03  0.7546771E-02  0.1228837E+00
         21   -1    0    0  501  502  0.00000000000E+00  0.00000000000E+00  0.19246471410E+03  0.19246471410E+03  0.00000000000E+00 0. -1.
         -2   -1    0    0    0  501 -0.00000000000E+00 -0.00000000000E+00 -0.11964135177E+03  0.11964135177E+03  0.00000000000E+00 0.  1.
        -24    2    1    2    0    0  0.89305461734E+01  0.84132922110E+02 -0.10325527450E+01  0.11710408214E+03  0.80957993133E+02 0.  0.
         23    2    1    2    0    0 -0.33299823794E+02 -0.10266530820E+03  0.79581282688E+02  0.16385570209E+03  0.94161917890E+02 0.  0.
         13    1    3    3    0    0  0.26595649321E+02  0.68965540275E+01  0.21324217840E+02  0.34779495205E+02  0.00000000000E+00 0. -1.
        -14    1    3    3    0    0 -0.17665103148E+02  0.77236368082E+02 -0.22356770585E+02  0.82324586939E+02  0.00000000000E+00 0.  1.
        -11    1    4    4    0    0 -0.38888374101E+02 -0.28665012530E+02 -0.80992261993E+01  0.48985569799E+02  0.00000000000E+00 0.  1.
         11    1    4    4    0    0  0.55885503066E+01 -0.74000295667E+02  0.87680508887E+02  0.11487013229E+03  0.00000000000E+00 0. -1.
         -1    1    1    2    0  502  0.24369277621E+02  0.18532386087E+02 -0.57253676174E+01  0.31146281643E+02  0.00000000000E+00 0.  1.
<scales pt_clust_5="13000.00000" pt_clust_6="13000.00000" pt_clust_7="13000.00000" pt_clust_8="13000.00000" pt_clust_9="30.61555"></scales>
<clustering>
<clus scale="   30.616">  1  9  2 -1</clus>
<clus scale="   80.958">  5  6 -1 -1</clus>
<clus scale="   94.162">  7  8 -1 -1</clus>
<clus scale="  122.300">  2  5  1 -1</clus>
<clus scale="   30.616">  1  5  2 -1</clus>
</clustering>
</event>
<event>
 9    1  0.6270443E-005  0.2121366E+03  0.7546771E-02  0.1170694E+00
         21   -1    0    0  501  502  0.00000000000E+00  0.00000000000E+00  0.10877212962E+03  0.10877212962E+03  0.00000000000E+00 0.  1.
         -2   -1    0    0    0  501 -0.00000000000E+00 -0.00000000000E+00 -0.82896010934E+03  0.82896010934E+03  0.00000000000E+00 0.  1.
         23    2    1    2    0    0  0.28783454438E+02 -0.38258863948E+02 -0.49790443640E+02  0.11432932236E+03  0.91103664874E+02 0.  0.
        -24    2    1    2    0    0 -0.36287445512E+02 -0.16503661694E+03 -0.56234864515E+03  0.59305551535E+03  0.83216476428E+02 0.  0.
         11    1    4    4    0    0  0.22370138626E+02 -0.14363808187E+02 -0.73357507906E+02  0.78026060095E+02  0.00000000000E+00 0. -1.
        -12    1    4    4    0    0 -0.58657584138E+02 -0.15067280875E+03 -0.48899113724E+03  0.51502945525E+03  0.00000000000E+00 0.  1.
        -13    1    3    3    0    0 -0.30765865260E+01 -0.62629301330E+02 -0.27884300541E+02  0.68625279499E+02  0.00000000000E+00 0. -1.
         13    1    3    3    0    0  0.31860040964E+02  0.24370437381E+02 -0.21906143098E+02  0.45704042861E+02  0.00000000000E+00 0.  1.
         -1    1    1    2    0  502  0.75039910735E+01  0.20329548089E+03 -0.10804889093E+03  0.23034740125E+03  0.00000000000E+00 0.  1.
<scales pt_clust_5="13000.00000" pt_clust_6="13000.00000" pt_clust_7="13000.00000" pt_clust_8="13000.00000" pt_clust_9="195.13318"></scales>
<clustering>
<clus scale="   83.216">  5  6 -1 -1</clus>
<clus scale="   91.104">  7  8 -1 -1</clus>
<clus scale="  102.918">  2  7  1 -1</clus>
<clus scale="  195.133">  1  9  2 -1</clus>
<clus scale="  195.133">  1  5  2 -1</clus>
</clustering>
</event>
<event>
 9    1  0.6270443E-005  0.1407011E+03  0.7546771E-02  0.1214505E+00
         21   -1    0    0  501  502  0.00000000000E+00  0.00000000000E+00  0.23366530210E+03  0.23366530210E+03  0.00000000000E+00 0.  1.
          1   -1    0    0  502    0 -0.00000000000E+00 -0.00000000000E+00 -0.39852238239E+03  0.39852238239E+03  0.00000000000E+00 0. -1.
         23    2    1    2    0    0  0.36538472827E+02  0.99668053988E+02 -0.35062104218E+03  0.37755794807E+03  0.91357035560E+02 0.  0.
        -24    2    1    2    0    0 -0.61559405500E+02 -0.10465024892E+03  0.17155920111E+03  0.22542965822E+03  0.81515252044E+02 0.  0.
         11    1    4    4    0    0 -0.22625196670E+02  0.11541126958E+01  0.33028045288E+01  0.22894104442E+02  0.00000000000E+00 0. -1.
        -12    1    4    4    0    0 -0.38934208831E+02 -0.10580436161E+03  0.16825639658E+03  0.20253555378E+03  0.00000000000E+00 0.  1.
        -13    1    3    3    0    0  0.22171263693E+02  0.20530851856E+02 -0.17615688914E+02  0.34977039720E+02  0.00000000000E+00 0.  1.
         13    1    3    3    0    0  0.14367209135E+02  0.79137202132E+02 -0.33300535327E+03  0.34258090835E+03  0.00000000000E+00 0. -1.
          2    1    1    2  501    0  0.25020932673E+02  0.49821949301E+01  0.14204760786E+02  0.29200078204E+02  0.00000000000E+00 0. -1.
<scales pt_clust_5="13000.00000" pt_clust_6="13000.00000" pt_clust_7="13000.00000" pt_clust_8="13000.00000" pt_clust_9="25.51214"></scales>
<clustering>
<clus scale="   25.512">  1  9  2 -1</clus>
<clus scale="   81.515">  5  6 -1 -1</clus>
<clus scale="   91.357">  7  8 -1 -1</clus>
<clus scale="  134.519">  1  5  2 -1</clus>
<clus scale="   25.512">  1  5  2 -1</clus>
</clustering>
</event>
<event>
 9    1  0.6270443E-005  0.1267810E+03  0.7546771E-02  0.1234248E+00
         -2   -1    0    0    0  501 -0.00000000000E+00  0.00000000000E+00  0.47234084495E+03  0.47234084495E+03  0.00000000000E+00 0.  1.
         21   -1    0    0  501  502  0.00000000000E+00 -0.00000000000E+00 -0.41859184148E+02  0.41859184148E+02  0.00000000000E+00 0. -1.
         23    2    1    2    0    0 -0.16608549922E+02  0.90017485482E+02  0.24464919140E+03  0.27579640025E+03  0.88495400525E+02 0.  0.
        -24    2    1    2    0    0  0.40091563785E+02 -0.82429871678E+02  0.13760288770E+03  0.18422691453E+03  0.81258747852E+02 0.  0.
         11    1    4    4    0    0  0.64502677396E+02 -0.68398502937E+02  0.11133000639E+03  0.14571657736E+03  0.00000000000E+00 0. -1.
        -12    1    4    4    0    0 -0.24411113611E+02 -0.14031368741E+02  0.26272881307E+02  0.38510337167E+02  0.00000000000E+00 0.  1.
        -11    1    3    3    0    0  0.20713914488E+02 -0.45710960608E+01  0.19775046747E+02  0.29000235283E+02  0.00000000000E+00 0. -1.
         11    1    3    3    0    0 -0.37322464411E+02  0.94588581543E+02  0.22487414465E+03  0.24679616496E+03  0.00000000000E+00 0.  1.
         -1    1    1    2    0  502 -0.23483013862E+02 -0.75876138039E+01  0.48229581703E+02  0.54176714321E+02  0.00000000000E+00 0.  1.
<scales pt_clust_5="13000.00000" pt_clust_6="13000.00000" pt_clust_7="13000.00000" pt_clust_8="13000.00000" pt_clust_9="24.67842"></scales>
<clustering>
<clus scale="   24.678">  2  9  1 -1</clus>
<clus scale="   81.259">  5  6 -1 -1</clus>
<clus scale="   88.495">  7  8 -1 -1</clus>
<clus scale="  121.840">  2  5  1 -1</clus>
<clus scale="   24.678">  2  5  1 -1</clus>
</clustering>
</event>
<event>
 9    1  0.6270443E-005  0.3707928E+03  0.7546771E-02  0.1054390E+00
         -2   -1    0    0    0  501 -0.00000000000E+00  0.00000000000E+00  0.51004936862E+03  0.51004936862E+03  0.00000000000E+00 0.  1.
         21   -1    0    0  501  502  0.00000000000E+00 -0.00000000000E+00 -0.38980006626E+03  0.38980006626E+03  0.00000000000E+00 0.  1.
        -24    2    1    2    0    0  0.49211207149E+02  0.10548017917E+03  0.68833498633E+02  0.15541131679E+03  0.76595141777E+02 0.  0.
         23    2    1    2    0    0  0.61306706212E+02  0.18306643532E+03  0.28498262691E+03  0.35710516210E+03  0.95064016271E+02 0.  0.
         13    1    3    3    0    0 -0.19674428882E+02  0.31429788960E+02  0.27451647945E+02  0.46135753607E+02  0.00000000000E+00 0. -1.
        -14    1    3    3    0    0  0.68885636031E+02  0.74050390214E+02  0.41381850688E+02  0.10927556318E+03  0.00000000000E+00 0.  1.
        -11    1    4    4    0    0  0.62433275352E+02  0.56851628178E+02  0.79636592184E+02  0.11606898084E+03  0.00000000000E+00 0. -1.
         11    1    4    4    0    0 -0.11265691401E+01  0.12621480714E+03  0.20534603472E+03  0.24103618126E+03  0.00000000000E+00 0.  1.
         -1    1    1    2    0  502 -0.11051791336E+03 -0.28854661449E+03 -0.23356682319E+03  0.38733295600E+03  0.00000000000E+00 0.  1.
<scales pt_clust_5="13000.00000" pt_clust_6="13000.00000" pt_clust_7="13000.00000" pt_clust_8="13000.00000" pt_clust_9="308.98763"></scales>
<clustering>
<clus scale="   76.595">  5  6 -1 -1</clus>
<clus scale="   95.064">  7  8 -1 -1</clus>
<clus scale="  121.969">  5  7 -1 -1</clus>
<clus scale="  308.988">  2  9  1 -1</clus>
<clus scale="  308.988">  2  5  1 -1</clus>
</clustering>
</event>
<event>
 9    1  0.6270443E-005  0.2194085E+03  0.7546771E-02  0.1135187E+00
         21   -1    0    0  501  502  0.00000000000E+00  0.00000000000E+00  0.33136534901E+03  0.33136534901E+03  0.00000000000E+00 0. -1.
          1   -1    0    0  502    0 -0.00000000000E+00 -0.00000000000E+00 -0.24325151435E+03  0.24325151435E+03  0.00000000000E+00 0. -1.
         23    2    1    2    0    0  0.11090024258E+03  0.17435793781E+03 -0.11006603237E+03  0.25155606434E+03  0.92012867263E+02 0.  0.
        -24    2    1    2    0    0 -0.12727706972E+03 -0.12551060095E+03  0.18571613044E+03  0.27005506806E+03  0.80541264266E+02 0.  0.
         13    1    4    4    0    0 -0.96714657545E+02 -0.86164917162E+02  0.17722591527E+03  0.21951570098E+03  0.00000000000E+00 0. -1.
        -14    1    4    4    0    0 -0.30562412170E+02 -0.39345683791E+02  0.84902151708E+01  0.50539367075E+02  0.00000000000E+00 0.  1.
        -13    1    3    3    0    0  0.43594805192E+02  0.99467428643E+01 -0.41882881686E+02  0.61266797791E+02  0.00000000000E+00 0.  1.
         13    1    3    3    0    0  0.67305437386E+02  0.16441119495E+03 -0.68183150685E+02  0.19028926655E+03  0.00000000000E+00 0. -1.
          2    1    1    2  501    0  0.16376827138E+02 -0.48847336858E+02  0.12463736587E+02  0.53005730963E+02  0.00000000000E+00 0. -1.
<scales pt_clust_5="13000.00000" pt_clust_6="13000.00000" pt_clust_7="13000.00000" pt_clust_8="13000.00000" pt_clust_9="51.51954"></scales>
<clustering>
<clus scale="   51.520">  1  9  2 -1</clus>
<clus scale="   80.541">  5  6 -1 -1</clus>
<clus scale="   92.013">  7  8 -1 -1</clus>
<clus scale="  214.850">  1  5  2 -1</clus>
<clus scale="   51.520">  1  5  2 -1</clus>
</clustering>
</event>
<event>
 9    1  0.6270443E-005  0.2124135E+03  0.7546771E-02  0.1172029E+00
         21   -1    0    0  501  502  0.00000000000E+00  0.00000000000E+00  0.30824930774E+02  0.30824930774E+02  0.00000000000E+00 0. -1.
          1   -1    0    0  502    0 -0.00000000000E+00 -0.00000000000E+00 -0.24249713819E+04  0.24249713819E+04  0.00000000000E+00 0. -1.
        -24    2    1    2    0    0  0.63358760011E+01  0.62821623257E+02 -0.35622213591E+03  0.36984127140E+03  0.76822237934E+02 0.  0.
         23    2    1    2    0    0  0.16813322250E+03 -0.10908868574E+03 -0.64798529840E+03  0.68434504635E+03  0.90961935253E+02 0.  0.
         11    1    3    3    0    0 -0.54953688575E+00  0.80451459094E+02 -0.28319381775E+03  0.29440019985E+03  0.00000000000E+00 0. -1.
        -12    1    3    3    0    0  0.68854128868E+01 -0.17629835836E+02 -0.73028318161E+02  0.75441071543E+02  0.00000000000E+00 0.  1.
        -13    1    4    4    0    0  0.17012576478E+03 -0.80388616250E+02 -0.59513154666E+03  0.62416877789E+03  0.00000000000E+00 0.  1.
         13    1    4    4    0    0 -0.19925422786E+01 -0.28700069489E+02 -0.52853751742E+02  0.60176268467E+02  0.00000000000E+00 0. -1.
          2    1    1    2  501    0 -0.17446909850E+03  0.46267062482E+02 -0.13899390168E+04  0.14016099949E+04  0.00000000000E+00 0. -1.
<scales pt_clust_5="13000.00000" pt_clust_6="13000.00000" pt_clust_7="13000.00000" pt_clust_8="13000.00000" pt_clust_9="191.95166"></scales>
<clustering>
<clus scale="   76.822">  5  6 -1 -1</clus>
<clus scale="   90.962">  7  8 -1 -1</clus>
<clus scale="   99.440">  2  5  1 -1</clus>
<clus scale="  191.952">  1  9  2 -1</clus>
<clus scale="  191.952">  1  5  2 -1</clus>
</clustering>
</event>
<event>
 9    1  0.6270443E-005  0.2218411E+03  0.7546771E-02  0.1148971E+00
          3   -1    0    0  502    0 -0.00000000000E+00  0.00000000000E+00  0.66589349074E+03  0.66589349074E+03  0.00000000000E+00 0. -1.
         21   -1    0    0  501  502  0.00000000000E+00 -0.00000000000E+00 -0.15184737138E+03  0.15184737138E+03  0.00000000000E+00 0. -1.
         23    2    1    2    0    0  0.98818117796E+02  0.62856548898E+02  0.54287255373E+02  0.15881329983E+03  0.92512658401E+02 0.  0.
        -24    2    1    2    0    0 -0.40458592446E+01  0.18268014481E+03  0.13764559044E+03  0.24296240756E+03  0.81829204037E+02 0.  0.
         13    1    4    4    0    0 -0.20900725248E+02  0.40255302355E+02  0.72319858699E+02  0.85366806463E+02  0.00000000000E+00 0. -1.
        -14    1    4    4    0    0  0.16854866004E+02  0.14242484246E+03  0.65325731746E+02  0.15759560110E+03  0.00000000000E+00 0.  1.
        -13    1    3    3    0    0  0.35621020357E+02  0.41608413628E+02  0.71389808489E+02  0.89981230999E+02  0.00000000000E+00 0.  1.
         13    1    3    3    0    0  0.63197097440E+02  0.21248135270E+02 -0.17102553116E+02  0.68832068836E+02  0.00000000000E+00 0. -1.
          4    1    1    2  501    0 -0.94772258552E+02 -0.24553669371E+03  0.32211327355E+03  0.41596515473E+03  0.00000000000E+00 0. -1.
<scales pt_clust_5="13000.00000" pt_clust_6="13000.00000" pt_clust_7="13000.00000" pt_clust_8="13000.00000" pt_clust_9="206.19775"></scales>
<clustering>
<clus scale="   81.829">  5  6 -1 -1</clus>
<clus scale="   92.513">  7  8 -1 -1</clus>
<clus scale="  149.247">  1  7  2 -1</clus>
<clus scale="  206.198">  2  9  1 -1</clus>
<clus scale="  206.198">  2  5  1 -1</clus>
</clustering>
</event>
<event>
 9    1  0.6270443E-005  0.1974377E+03  0.7546771E-02  0.1177630E+00
         21   -1    0    0  501  502  0.00000000000E+00  0.00000000000E+00  0.41825860617E+03  0.41825860617E+03  0.00000000000E+00 0.  1.
         -2   -1    0    0    0  501 -0.00000000000E+00 -0.00000000000E+00 -0.16005376208E+03  0.16005376208E+03  0.00000000000E+00 0.  1.
        -24    2    1    2    0    0  0.24415826610E+02  0.68237852736E+02  0.14681537746E+03  0.18288680664E+03  0.81487985934E+02 0.  0.
         23    2    1    2    0    0 -0.17609226346E+03  0.26981265295E+02  0.61367766828E+02  0.20948311785E+03  0.91546162843E+02 0.  0.
         13    1    3    3    0    0 -0.23804495504E+02  0.16559814353E+00  0.19988976197E+02  0.31084410857E+02  0.00000000000E+00 0. -1.
        -14    1    3    3    0    0  0.48220322113E+02  0.68072254592E+02  0.12682640126E+03  0.15180239579E+03  0.00000000000E+00 0.  1.
        -13    1    4    4    0    0 -0.16087618819E+03  0.45393431757E+02  0.73604279574E+02  0.18264528887E+03  0.00000000000E+00 0.  1.
         13    1    4    4    0    0 -0.15216075272E+02 -0.18412166461E+02 -0.12236512746E+02  0.26837828986E+02  0.00000000000E+00 0. -1.
         -1    1    1    2    0  502  0.15167643685E+03 -0.95219118031E+02  0.50021699809E+02  0.18594244375E+03  0.00000000000E+00 0.  1.
<scales pt_clust_5="13000.00000" pt_clust_6="13000.00000" pt_clust_7="13000.00000" pt_clust_8="13000.00000" pt_clust_9="174.93135"></scales>
<clustering>
<clus scale="   81.488">  5  6 -1 -1</clus>
<clus scale="   91.546">  7  8 -1 -1</clus>
<clus scale="  109.054">  2  5  1 -1</clus>
<clus scale="  174.931">  1  9  2 -1</clus>
<clus scale="  174.931">  1  5  2 -1</clus>
</clustering>
</event>
<event>
 9    1  0.6270443E-005  0.1460008E+03  0.7546771E-02  0.1208478E+00
         -2   -1    0    0    0  501 -0.00000000000E+00  0.00000000000E+00  0.29786453816E+03  0.29786453816E+03  0.00000000000E+00 0.  1.
         21   -1    0    0  501  502  0.00000000000E+00 -0.00000000000E+00 -0.29720940155E+03  0.29720940155E+03  0.00000000000E+00 0.  1.
        -24    2    1    2    0    0  0.10929602113E+03 -0.43756677991E+02  0.19786876809E+03  0.24429023786E+03  0.81641924426E+02 0.  0.
         23    2    1    2    0    0 -0.26459073957E+00  0.97849937176E+02 -0.18231898039E+03  0.22816321362E+03  0.96143440896E+02 0.  0.
         13    1    3    3    0    0  0.40772015876E+02  0.73123586192E+01  0.12597613778E+03  0.13261151970E+03  0.00000000000E+00 0. -1.
        -14    1    3    3    0    0  0.68524005258E+02 -0.51069036610E+02  0.71892630306E+02  0.11167871816E+03  0.00000000000E+00 0.  1.
        -11    1    4    4    0    0 -0.37179650700E+02  0.11867368848E+02 -0.29301595919E+02  0.48803118680E+02  0.00000000000E+00 0. -1.
         11    1    4    4    0    0  0.36915059960E+02  0.85982568328E+02 -0.15301738447E+03  0.17936009494E+03  0.00000000000E+00 0.  1.
         -1    1    1    2    0  502 -0.10903143039E+03 -0.54093259186E+02 -0.14894651095E+02  0.12262048823E+03  0.00000000000E+00 0.  1.
<scales pt_clust_5="13000.00000" pt_clust_6="13000.00000" pt_clust_7="13000.00000" pt_clust_8="13000.00000" pt_clust_9="121.71250"></scales>
<clustering>
<clus scale="   81.642">  5  6 -1 -1</clus>
<clus scale="   96.143">  7  8 -1 -1</clus>
<clus scale="  121.713">  2  9  1 -1</clus>
<clus scale="  136.887">  1  5  2 -1</clus>
<clus scale="  121.713">  2  5  1 -1</clus>
</clustering>
</event>
<event>
 9    1  0.6270443E-005  0.1026403E+03  0.7546771E-02  0.1282438E+00
          1   -1    0    0  502    0 -0.00000000000E+00  0.00000000000E+00  0.13948400599E+03  0.13948400599E+03  0.00000000000E+00 0. -1.
         21   -1    0    0  501  502  0.00000000000E+00 -0.00000000000E+00 -0.16021803935E+03  0.16021803935E+03  0.00000000000E+00 0.  1.
         23    2    1    2    0    0  0.29753483541E+02  0.43609145142E+02 -0.63479640495E+00  0.10683537400E+03  0.92878236673E+02 0.  0.
        -24    2    1    2    0    0 -0.31981117019E+02 -0.78486001256E+01 -0.84503424912E+02  0.11916675034E+03  0.77301314314E+02 0.  0.
         13    1    4    4    0    0 -0.24156070617E+02 -0.33529261022E+02 -0.13848447375E+02  0.43583329233E+02  0.00000000000E+00 0. -1.
        -14    1    4    4    0    0 -0.78250464019E+01  0.25680660896E+02 -0.70654977537E+02  0.75583421105E+02  0.00000000000E+00 0.  1.
        -11    1    3    3    0    0  0.16881265611E+02 -0.17565491446E+02 -0.29263797316E+02  0.38077466456E+02  0.00000000000E+00 0.  1.
         11    1    3    3    0    0  0.12872217930E+02  0.61174636588E+02  0.28629000911E+02  0.68757907540E+02  0.00000000000E+00 0. -1.
          2    1    1    2  501    0  0.22276334778E+01 -0.35760545016E+02  0.64404187948E+02  0.73699921004E+02  0.00000000000E+00 0. -1.
<scales pt_clust_5="13000.00000" pt_clust_6="13000.00000" pt_clust_7="13000.00000" pt_clust_8="13000.00000" pt_clust_9="35.82988"></scales>
<clustering>
<clus scale="   35.830">  2  9  1 -1</clus>
<clus scale="   77.301">  5  6 -1 -1</clus>
<clus scale="   88.793">  2  5  1 -1</clus>
<clus scale="   92.878">  7  8 -1 -1</clus>
<clus scale="   35.830">  2  5  1 -1</clus>
</clustering>
</event>
<event>
 9    1  0.6270443E-005  0.1297151E+03  0.7546771E-02  0.1231333E+00
          1   -1    0    0  502    0 -0.00000000000E+00  0.00000000000E+00  0.45832860606E+03  0.45832860606E+03  0.00000000000E+00 0. -1.
         21   -1    0    0  501  502  0.00000000000E+00 -0.00000000000E+00 -0.14426369289E+03  0.14426369289E+03  0.00000000000E+00 0. -1.
         23    2    1    2    0    0  0.96700899960E+02 -0.21424213337E+02  0.33322645751E+03  0.35929786855E+03  0.90802122174E+02 0.  0.
        -24    2    1    2    0    0 -0.76748880826E+02  0.19059208076E+02  0.83501301579E+02  0.13868402820E+03  0.77505794562E+02 0.  0.
         13    1    4    4    0    0 -0.32804663469E+02  0.86391180603E+00  0.84982886727E+02  0.91098755894E+02  0.00000000000E+00 0. -1.
        -14    1    4    4    0    0 -0.43944217357E+02  0.18195296270E+02 -0.14815851483E+01  0.47585272302E+02  0.00000000000E+00 0.  1.
        -13    1    3    3    0    0  0.79700563539E+02 -0.54872190995E+02  0.23427318306E+03  0.25347004058E+03  0.00000000000E+00 0. -1.
         13    1    3    3    0    0  0.17000336421E+02  0.33447977659E+02  0.98953274450E+02  0.10582782797E+03  0.00000000000E+00 0.  1.
          2    1    1    2  501    0 -0.19952019135E+02  0.23650052603E+01 -0.10266284592E+03  0.10461040220E+03  0.00000000000E+00 0. -1.
<scales pt_clust_5="13000.00000" pt_clust_6="13000.00000" pt_clust_7="13000.00000" pt_clust_8="13000.00000" pt_clust_9="20.09170"></scales>
<clustering>
<clus scale="   20.092">  2  9  1 -1</clus>
<clus scale="   77.506">  5  6 -1 -1</clus>
<clus scale="   90.802">  7  8 -1 -1</clus>
<clus scale="  120.781">  2  5  1 -1</clus>
<clus scale="   20.092">  2  5  1 -1</clus>
</clustering>
</event>
<event>
 9    1  0.6270443E-005  0.1635445E+03  0.7546771E-02  0.1196727E+00
         -2   -1    0    0    0  501 -0.00000000000E+00  0.00000000000E+00  0.36971672620E+03  0.36971672620E+03  0.00000000000E+00 0.  1.
         21   -1    0    0  501  502  0.00000000000E+00 -0.00000000000E+00 -0.15465077973E+03  0.15465077973E+03  0.00000000000E+00 0.  1.
         23    2    1    2    0    0 -0.86530730264E+02  0.65107415705E+01  0.61176570858E+02  0.13967647871E+03  0.90757858316E+02 0.  0.
        -24    2    1    2    0    0  0.18470505104E+02  0.12918656352E+03  0.17329614246E+03  0.23164666941E+03  0.81229912627E+02 0.  0.
         13    1    4    4    0    0  0.89857894578E+01  0.53256769476E+02  0.13638434070E+03  0.14668918261E+03  0.00000000000E+00 0. -1.
        -14    1    4    4    0    0  0.94847156460E+01  0.75929794043E+02  0.36911801762E+02  0.84957486801E+02  0.00000000000E+00 0.  1.
        -13    1    3    3    0    0 -0.77149380811E+02  0.25038042009E+02  0.78316851469E+02  0.11274954426E+03  0.00000000000E+00 0.  1.
         13    1    3    3    0    0 -0.93813494529E+01 -0.18527300439E+02 -0.17140280612E+02  0.26926934444E+02  0.00000000000E+00 0. -1.
         -1    1    1    2    0  502  0.68060225160E+02 -0.13569730509E+03 -0.19406766855E+02  0.15304435781E+03  0.00000000000E+00 0.  1.
<scales pt_clust_5="13000.00000" pt_clust_6="13000.00000" pt_clust_7="13000.00000" pt_clust_8="13000.00000" pt_clust_9="141.94542"></scales>
<clustering>
<clus scale="   81.230">  5  6 -1 -1</clus>
<clus scale="   90.758">  7  8 -1 -1</clus>
<clus scale="  125.566">  1  7  2 -1</clus>
<clus scale="  141.945">  2  9  1 -1</clus>
<clus scale="  141.945">  2  5  1 -1</clus>
</clustering>
</event>
<event>
 9    1  0.6270443E-005  0.1252201E+03  0.7546771E-02  0.1237163E+00
         21   -1    0    0  501  502  0.00000000000E+00  0.00000000000E+00  0.16860003417E+03  0.16860003417E+03  0.00000000000E+00 0.  1.
         -2   -1    0    0    0  501 -0.00000000000E+00 -0.00000000000E+00 -0.26122468833E+03  0.26122468833E+03  0.00000000000E+00 0.  1.
         23    2    1    2    0    0  0.54662106714E+02 -0.64490782006E+02 -0.17928991881E+03  0.21789069694E+03  0.90468082508E+02 0.  0.
        -24    2    1    2    0    0 -0.85655383113E+02  0.59824568874E+02  0.11039116414E+03  0.17262403913E+03  0.81835359534E+02 0.  0.
         11    1    4    4    0    0 -0.52858269944E+02 -0.79134372471E+01  0.25637276548E+02  0.59278066259E+02  0.00000000000E+00 0. -1.
        -12    1    4    4    0    0 -0.32797113168E+02  0.67738006121E+02  0.84753887589E+02  0.11334597287E+03  0.00000000000E+00 0.  1.
        -11    1    3    3    0    0  0.49945492822E+02 -0.37746393049E+02 -0.36347034730E+02  0.72390948157E+02  0.00000000000E+00 0.  1.
         11    1    3    3    0    0  0.47166138921E+01 -0.26744388957E+02 -0.14294288408E+03  0.14549974879E+03  0.00000000000E+00 0. -1.
         -1    1    1    2    0  502  0.30993276399E+02  0.46662131317E+01 -0.23725899486E+02  0.39309986432E+02  0.00000000000E+00 0.  1.
<scales pt_clust_5="13000.00000" pt_clust_6="13000.00000" pt_clust_7="13000.00000" pt_clust_8="13000.00000" pt_clust_9="31.34259"></scales>
<clustering>
<clus scale="   31.343">  1  9  2 -1</clus>
<clus scale="   81.835">  5  6 -1 -1</clus>
<clus scale="   90.468">  7  8 -1 -1</clus>
<clus scale="  119.133">  1  5  2 -1</clus>
<clus scale="   31.343">  1  5  2 -1</clus>
</clustering>
</event>
<event>
 9    1  0.8233925E-005  0.1997603E+03  0.7546771E-02  0.1187791E+00
         21   -1    0    0  501  502  0.00000000000E+00  0.00000000000E+00  0.56016127246E+02  0.56016127246E+02  0.00000000000E+00 0. -1.
         -2   -1    0    0    0  501 -0.00000000000E+00 -0.00000000000E+00 -0.14604894366E+04  0.14604894366E+04  0.00000000000E+00 0.  1.
        -24    2    1    2    0    0  0.90216808880E+01 -0.17313193493E+02 -0.65426867018E+03  0.65962391680E+03  0.81578682540E+02 0.  0.
         23    2    1    2    0    0  0.56356167717E+02  0.17143988146E+03 -0.21483401621E+03  0.29594403646E+03  0.94135899638E+02 0.  0.
         11    1    3    3    0    0  0.19490527184E+02 -0.44827654891E+02 -0.28305138181E+03  0.28724116007E+03  0.00000000000E+00 0. -1.
        -12    1    3    3    0    0 -0.10468846295E+02  0.27514461398E+02 -0.37121728836E+03  0.37238275673E+03  0.00000000000E+00 0.  1.
        -11    1    4    4    0    0  0.52714648009E+02  0.46714790754E+02 -0.39537606543E+02  0.80773313174E+02  0.00000000000E+00 0. -1.
         11    1    4    4    0    0  0.36415197079E+01  0.12472509071E+03 -0.17529640967E+03  0.21517072329E+03  0.00000000000E+00 0.  1.
         -1    1    1    2    0  502 -0.65377848605E+02 -0.15412668797E+03 -0.53537062299E+03  0.56093761061E+03  0.00000000000E+00 0.  1.
<scales pt_clust_5="13000.00000" pt_clust_6="13000.00000" pt_clust_7="13000.00000" pt_clust_8="13000.00000" pt_clust_9="176.18918"></scales>
<clustering>
<clus scale="   81.579">  5  6 -1 -1</clus>
<clus scale="   83.882">  2  5  1 -1</clus>
<clus scale="   94.136">  7  8 -1 -1</clus>
<clus scale="  176.189">  1  9  2 -1</clus>
<clus scale="  176.189">  1  5  2 -1</clus>
</clustering>
</event>
<event>
 9    1  0.6270443E-005  0.1850650E+03  0.7546771E-02  0.1193304E+00
          1   -1    0    0  502    0 -0.00000000000E+00  0.00000000000E+00  0.10342286486E+04  0.10342286486E+04  0.00000000000E+00 0. -1.
         21   -1    0    0  501  502  0.00000000000E+00 -0.00000000000E+00 -0.66437404028E+02  0.66437404028E+02  0.00000000000E+00 0. -1.
        -24    2    1    2    0    0 -0.42538188788E+02 -0.26286811804E+02  0.23360667348E+03  0.25158837190E+03  0.78893199950E+02 0.  0.
         23    2    1    2    0    0  0.19156005552E+03  0.57014376500E+02  0.62310428598E+03  0.66068837707E+03  0.91127857385E+02 0.  0.
         13    1    3    3    0    0 -0.38086122347E+02  0.18386696642E+02  0.68650264104E+02  0.80631768493E+02  0.00000000000E+00 0. -1.
        -14    1    3    3    0    0 -0.44520664417E+01 -0.44673508447E+02  0.16495640938E+03  0.17095660340E+03  0.00000000000E+00 0.  1.
        -13    1    4    4    0    0  0.15555897898E+03  0.77019498191E+02  0.55047185382E+03  0.57719135553E+03  0.00000000000E+00 0. -1.
         13    1    4    4    0    0  0.36001076533E+02 -0.20005121691E+02  0.72632432151E+02  0.83497021537E+02  0.00000000000E+00 0.  1.
          2    1    1    2  501    0 -0.14902186673E+03 -0.30727564696E+02  0.11108028512E+03  0.18838930367E+03  0.00000000000E+00 0. -1.
<scales pt_clust_5="13000.00000" pt_clust_6="13000.00000" pt_clust_7="13000.00000" pt_clust_8="13000.00000" pt_clust_9="161.07381"></scales>
<clustering>
<clus scale="   78.893">  5  6 -1 -1</clus>
<clus scale="   91.128">  7  8 -1 -1</clus>
<clus scale="   93.406">  1  5  2 -1</clus>
<clus scale="  161.074">  2  9  1 -1</clus>
<clus scale="  161.074">  2  5  1 -1</clus>
</clustering>
</event>
<event>
 9    1  0.6270443E-005  0.1161626E+03  0.7546771E-02  0.1252107E+00
          1   -1    0    0  502    0 -0.00000000000E+00  0.00000000000E+00  0.31155390410E+03  0.31155390410E+03  0.00000000000E+00 0. -1.
         21   -1    0    0  501  502  0.00000000000E+00 -0.00000000000E+00 -0.60857303313E+02  0.60857303313E+02  0.00000000000E+00 0.  1.
         23    2    1    2    0    0 -0.25168433109E+02 -0.89899201608E+02  0.15335391708E+03  0.20001216971E+03  0.88159671468E+02 0.  0.
        -24    2    1    2    0    0  0.10666155678E+02  0.51562262468E+02  0.45651939838E+02  0.10642957541E+03  0.80440792659E+02 0.  0.
         11    1    4    4    0    0  0.85689002932E+01  0.62673800631E+02  0.60657818182E+02  0.87640186241E+02  0.00000000000E+00 0. -1.
        -12    1    4    4    0    0  0.20972553847E+01 -0.11111538163E+02 -0.15005878345E+02  0.18789389170E+02  0.00000000000E+00 0.  1.
        -11    1    3    3    0    0  0.25752685192E+02 -0.67368727545E+02  0.96005292352E+02  0.12007815124E+03  0.00000000000E+00 0.  1.
         11    1    3    3    0    0 -0.50921118301E+02 -0.22530474063E+02  0.57348624729E+02  0.79934018471E+02  0.00000000000E+00 0. -1.
          2    1    1    2  501    0  0.14502277431E+02  0.38336939140E+02  0.51690743866E+02  0.65969462289E+02  0.00000000000E+00 0. -1.
<scales pt_clust_5="13000.00000" pt_clust_6="13000.00000" pt_clust_7="13000.00000" pt_clust_8="13000.00000" pt_clust_9="40.98827"></scales>
<clustering>
<clus scale="   40.988">  2  9  1 -1</clus>
<clus scale="   80.441">  5  6 -1 -1</clus>
<clus scale="   88.160">  7  8 -1 -1</clus>
<clus scale="  110.419">  2  5  1 -1</clus>
<clus scale="   40.988">  2  5  1 -1</clus>
</clustering>
</event>
<event>
 9    1  0.1904441E-004  0.1719830E+03  0.7546771E-02  0.1209171E+00
         -2   -1    0    0    0  501 -0.00000000000E+00  0.00000000000E+00  0.47795681849E+03  0.47795681849E+03  0.00000000000E+00 0.  1.
         21   -1    0    0  501  502  0.00000000000E+00 -0.00000000000E+00 -0.20145882012E+03  0.20145882012E+03  0.00000000000E+00 0. -1.
        -24    2    1    2    0    0 -0.20134219364E+02  0.34119864042E+00  0.95145717225E+02  0.12594242769E+03  0.80020524745E+02 0.  0.
         23    2    1    2    0    0 -0.12156692586E+03 -0.78272105789E+02 -0.12215742569E+03  0.20956830693E+03  0.89952201821E+02 0.  0.
         13    1    3    3    0    0  0.14679970260E+02 -0.30492654848E+02  0.54632817938E+02  0.64265452013E+02  0.00000000000E+00 0. -1.
        -14    1    3    3    0    0 -0.34814189625E+02  0.30833853488E+02  0.40512899286E+02  0.61676975678E+02  0.00000000000E+00 0.  1.
        -13    1    4    4    0    0 -0.21004855802E+02  0.13402582985E+02  0.24777689488E+01  0.25039419660E+02  0.00000000000E+00 0.  1.
         13    1    4    4    0    0 -0.10056207005E+03 -0.91674688774E+02 -0.12463519464E+03  0.18452888727E+03  0.00000000000E+00 0. -1.
         -1    1    1    2    0  502  0.14170114522E+03  0.77930907149E+02  0.30350970683E+03  0.34390490399E+03  0.00000000000E+00 0.  1.
<scales pt_clust_5="13000.00000" pt_clust_6="13000.00000" pt_clust_7="13000.00000" pt_clust_8="13000.00000" pt_clust_9="146.58365"></scales>
<clustering>
<clus scale="   80.021">  5  6 -1 -1</clus>
<clus scale="   82.515">  1  5  2 -1</clus>
<clus scale="   89.952">  7  8 -1 -1</clus>
<clus scale="  146.584">  2  9  1 -1</clus>
<clus scale="  146.584">  2  5  1 -1</clus>
</clustering>
</event>
<event>
 9    1  0.6270443E-005  0.1227052E+03  0.7546771E-02  0.1241249E+00
         -4   -1    0    0    0  501 -0.00000000000E+00  0.00000000000E+00  0.29662179547E+03  0.29662179547E+03  0.00000000000E+00 0.  1.
         21   -1    0    0  501  502  0.00000000000E+00 -0.00000000000E+00 -0.16842919791E+03  0.16842919791E+03  0.00000000000E+00 0.  1.
        -24    2    1    2    0    0  0.67657362956E+02 -0.41725246172E+02  0.16794181906E+03  0.20315793978E+03  0.82159472832E+02 0.  0.
         23    2    1    2    0    0 -0.42456867708E+02  0.12066240672E+03 -0.72530589708E+02  0.17278212062E+03  0.90724708612E+02 0.  0.
         11    1    3    3    0    0  0.33986253443E+02  0.18032570407E+02  0.97601140932E+02  0.10491054156E+03  0.00000000000E+00 0. -1.
        -12    1    3    3    0    0  0.33671109513E+02 -0.59757816579E+02  0.70340678132E+02  0.98247398226E+02  0.00000000000E+00 0.  1.
        -13    1    4    4    0    0 -0.23361794477E+02 -0.31688710996E+01 -0.34605885797E+02  0.41873410621E+02  0.00000000000E+00 0. -1.
         13    1    4    4    0    0 -0.19095073231E+02  0.12383127782E+03 -0.37924703911E+02  0.13090871000E+03  0.00000000000E+00 0.  1.
         -3    1    1    2    0  502 -0.25200495248E+02 -0.78937160544E+02  0.32781368198E+02  0.89110932979E+02  0.00000000000E+00 0.  1.
<scales pt_clust_5="13000.00000" pt_clust_6="13000.00000" pt_clust_7="13000.00000" pt_clust_8="13000.00000" pt_clust_9="82.86222"></scales>
<clustering>
<clus scale="   82.159">  5  6 -1 -1</clus>
<clus scale="   82.862">  2  9  1 -1</clus>
<clus scale="   90.725">  7  8 -1 -1</clus>
<clus scale="  116.515">  1  5  2 -1</clus>
<clus scale="   82.862">  2  5  1 -1</clus>
</clustering>
</event>
<event>
 9    1  0.6270443E-005  0.9567630E+02  0.7546771E-02  0.1293673E+00
         21   -1    0    0  501  502  0.00000000000E+00  0.00000000000E+00  0.26319585541E+03  0.26319585541E+03  0.00000000000E+00 0. -1.
          1   -1    0    0  502    0 -0.00000000000E+00 -0.00000000000E+00 -0.20210654348E+03  0.20210654348E+03  0.00000000000E+00 0. -1.
         23    2    1    2    0    0 -0.18318381677E+02 -0.20625833520E+02 -0.12383735872E+03  0.15528024030E+03  0.89528059840E+02 0.  0.
        -24    2    1    2    0    0 -0.17702911903E+02  0.70882134481E+02 -0.52688794582E+01  0.11002821703E+03  0.82102237322E+02 0.  0.
         13    1    4    4    0    0 -0.48234696797E+02  0.57920076732E+02  0.43272662059E+01  0.75498652283E+02  0.00000000000E+00 0. -1.
        -14    1    4    4    0    0  0.30531784894E+02  0.12962057749E+02 -0.95961456640E+01  0.34529564745E+02  0.00000000000E+00 0.  1.
        -11    1    3    3    0    0  0.10522858154E+02  0.23642451886E+02 -0.66291679604E+01  0.26714077614E+02  0.00000000000E+00 0.  1.
         11    1    3    3    0    0 -0.28841239831E+02 -0.44268285407E+02 -0.11720819076E+03  0.12856616269E+03  0.00000000000E+00 0. -1.
          2    1    1    2  501    0  0.36021293580E+02 -0.50256300961E+02  0.19019555011E+03  0.19999394156E+03  0.00000000000E+00 0. -1.
<scales pt_clust_5="13000.00000" pt_clust_6="13000.00000" pt_clust_7="13000.00000" pt_clust_8="13000.00000" pt_clust_9="61.83227"></scales>
<clustering>
<clus scale="   61.832">  1  9  2 -1</clus>
<clus scale="   82.102">  5  6 -1 -1</clus>
<clus scale="   88.766">  1  5  2 -1</clus>
<clus scale="   89.528">  7  8 -1 -1</clus>
<clus scale="   61.832">  1  5  2 -1</clus>
</clustering>
</event>
<event>
 9    1  0.6270443E-005  0.9406236E+02  0.7546771E-02  0.1299823E+00
         21   -1    0    0  501  502  0.00000000000E+00  0.00000000000E+00  0.10238850112E+03  0.10238850112E+03  0.00000000000E+00 0.  1.
         -2   -1    0    0    0  501 -0.00000000000E+00 -0.00000000000E+00 -0.17927862274E+03  0.17927862274E+03  0.00000000000E+00 0.  1.
        -24    2    1    2    0    0  0.23734821776E+02 -0.41883583881E+01 -0.10745048625E+03  0.13659930606E+03  0.80826229096E+02 0.  0.
         23    2    1    2    0    0  0.16173257798E+00 -0.42991955959E+01  0.57211045955E+02  0.10828001143E+03  0.91831083276E+02 0.  0.
         13    1    3    3    0    0 -0.64641745000E+01 -0.34994889325E+02 -0.24825906281E+02  0.43390706995E+02  0.00000000000E+00 0. -1.
        -14    1    3    3    0    0  0.30198996276E+02  0.30806530937E+02 -0.82624579973E+02  0.93208599068E+02  0.00000000000E+00 0.  1.
        -11    1    4    4    0    0 -0.13705467430E+02 -0.29365498470E+02  0.69825591558E+02  0.76979124276E+02  0.00000000000E+00 0.  1.
         11    1    4    4    0    0  0.13867200008E+02  0.25066302874E+02 -0.12614545603E+02  0.31300887153E+02  0.00000000000E+00 0. -1.
         -1    1    1    2    0  502 -0.23896554354E+02  0.84875539839E+01 -0.26650681317E+02  0.36787806367E+02  0.00000000000E+00 0.  1.
<scales pt_clust_5="13000.00000" pt_clust_6="13000.00000" pt_clust_7="13000.00000" pt_clust_8="13000.00000" pt_clust_9="25.35911"></scales>
<clustering>
<clus scale="   25.359">  1  9  2 -1</clus>
<clus scale="   80.826">  5  6 -1 -1</clus>
<clus scale="   83.353">  2  5  1 -1</clus>
<clus scale="   91.831">  7  8 -1 -1</clus>
<clus scale="   25.359">  1  5  2 -1</clus>
</clustering>
</event>
<event>
 9    1  0.6270443E-005  0.2398114E+03  0.7546771E-02  0.1121366E+00
          3   -1    0    0  502    0 -0.00000000000E+00  0.00000000000E+00  0.12717780248E+04  0.12717780248E+04  0.00000000000E+00 0. -1.
         21   -1    0    0  501  502  0.00000000000E+00 -0.00000000000E+00 -0.33968501564E+03  0.33968501564E+03  0.00000000000E+00 0. -1.
        -24    2    1    2    0    0 -0.14626588332E+03 -0.17456875956E+03  0.12074267975E+04  0.12304524534E+04  0.65313157296E+02 0.  0.
         23    2    1    2    0    0  0.98693657096E+02  0.91504427390E+02 -0.13545502227E+03  0.21151466035E+03  0.90977416430E+02 0.  0.
         13    1    3    3    0    0 -0.83153237398E+02 -0.13092083127E+03  0.91884244390E+03  0.93184020178E+03  0.00000000000E+00 0. -1.
        -14    1    3    3    0    0 -0.63112645924E+02 -0.43647928285E+02  0.28858435356E+03  0.29861225165E+03  0.00000000000E+00 0.  1.
        -13    1    4    4    0    0  0.70391278052E+02  0.10179081010E+03 -0.76996698608E+02  0.14575593519E+03  0.00000000000E+00 0. -1.
         13    1    4    4    0    0  0.28302379045E+02 -0.10286382710E+02 -0.58458323661E+02  0.65758725156E+02  0.00000000000E+00 0.  1.
          4    1    1    2  501    0  0.47572226225E+02  0.83064332165E+02 -0.13987876600E+03  0.16949592669E+03  0.00000000000E+00 0. -1.
<scales pt_clust_5="13000.00000" pt_clust_6="13000.00000" pt_clust_7="13000.00000" pt_clust_8="13000.00000" pt_clust_9="95.72252"></scales>
<clustering>
<clus scale="   65.313">  5  6 -1 -1</clus>
<clus scale="   90.977">  7  8 -1 -1</clus>
<clus scale="   95.723">  2  9  1 -1</clus>
<clus scale="  231.297">  1  5  2 -1</clus>
<clus scale="   95.723">  2  5  1 -1</clus>
</clustering>
</event>
<event>
 9    1  0.6270443E-005  0.9494711E+02  0.7546771E-02  0.1305817E+00
         -2   -1    0    0    0  501 -0.00000000000E+00  0.00000000000E+00  0.84419111597E+02  0.84419111597E+02  0.00000000000E+00 0.  1.
         21   -1    0    0  501  502  0.00000000000E+00 -0.00000000000E+00 -0.19764836274E+03  0.19764836274E+03  0.00000000000E+00 0. -1.
         23    2    1    2    0    0  0.17562470600E+02  0.19011479597E+02  0.25295322283E+02  0.99508656539E+02  0.92694350781E+02 0.  0.
        -24    2    1    2    0    0 -0.14827487139E+02  0.15570357629E+02 -0.12622893990E+03  0.14575438595E+03  0.69629773390E+02 0.  0.
         13    1    4    4    0    0 -0.36527121978E+02  0.28118052016E+02 -0.65867121992E+02  0.80394858348E+02  0.00000000000E+00 0. -1.
        -14    1    4    4    0    0  0.21699634839E+02 -0.12547694387E+02 -0.60361817908E+02  0.65359527598E+02  0.00000000000E+00 0.  1.
        -11    1    3    3    0    0  0.27118552469E+02 -0.87167212131E+01  0.52355912062E+02  0.59603176463E+02  0.00000000000E+00 0.  1.
         11    1    3    3    0    0 -0.95560818688E+01  0.27728200810E+02 -0.27060589779E+02  0.39905480075E+02  0.00000000000E+00 0. -1.
         -1    1    1    2    0  502 -0.27349834611E+01 -0.34581837226E+02 -0.12295633529E+02  0.36804431857E+02  0.00000000000E+00 0.  1.
<scales pt_clust_5="13000.00000" pt_clust_6="13000.00000" pt_clust_7="13000.00000" pt_clust_8="13000.00000" pt_clust_9="34.68984"></scales>
<clustering>
<clus scale="   34.690">  2  9  1 -1</clus>
<clus scale="   69.630">  5  6 -1 -1</clus>
<clus scale="   72.602">  2  5  1 -1</clus>
<clus scale="   92.694">  7  8 -1 -1</clus>
<clus scale="   34.690">  2  5  1 -1</clus>
</clustering>
</event>
<event>
 9    1  0.6270443E-005  0.9714703E+02  0.7546771E-02  0.1292149E+00
         21   -1    0    0  501  502  0.00000000000E+00  0.00000000000E+00  0.16525548617E+03  0.16525548617E+03  0.00000000000E+00 0.  1.
          3   -1    0    0  502    0 -0.00000000000E+00 -0.00000000000E+00 -0.11105684477E+03  0.11105684477E+03  0.00000000000E+00 0. -1.
         23    2    1    2    0    0  0.26530164771E+02  0.23312318186E+02 -0.57740705910E+02  0.11350645436E+03  0.91117573717E+02 0.  0.
        -24    2    1    2    0    0 -0.36955081406E+02  0.30499537271E+01  0.73973439467E+02  0.11542382909E+03  0.80471176923E+02 0.  0.
         11    1    4    4    0    0  0.12897313036E+02 -0.23529042694E+02  0.43827624379E+02  0.51388881992E+02  0.00000000000E+00 0. -1.
        -12    1    4    4    0    0 -0.49852394441E+02  0.26578996421E+02  0.30145815088E+02  0.64034947096E+02  0.00000000000E+00 0.  1.
        -13    1    3    3    0    0  0.42988799607E+02  0.32496130822E+01 -0.71982609374E+02  0.83905261629E+02  0.00000000000E+00 0. -1.
         13    1    3    3    0    0 -0.16458634836E+02  0.20062705104E+02  0.14241903464E+02  0.29601192729E+02  0.00000000000E+00 0.  1.
          4    1    1    2  501    0  0.10424916635E+02 -0.26362271913E+02  0.37965907842E+02  0.47382047502E+02  0.00000000000E+00 0. -1.
<scales pt_clust_5="13000.00000" pt_clust_6="13000.00000" pt_clust_7="13000.00000" pt_clust_8="13000.00000" pt_clust_9="28.34869"></scales>
<clustering>
<clus scale="   28.349">  1  9  2 -1</clus>
<clus scale="   80.471">  5  6 -1 -1</clus>
<clus scale="   87.240">  1  5  2 -1</clus>
<clus scale="   91.118">  7  8 -1 -1</clus>
<clus scale="   28.349">  1  5  2 -1</clus>
</clustering>
</event>
<event>
 9    1  0.6270443E-005  0.1606611E+03  0.7546771E-02  0.1188255E+00
          1   -1    0    0  502    0 -0.00000000000E+00  0.00000000000E+00  0.87791756755E+03  0.87791756755E+03  0.00000000000E+00 0. -1.
         21   -1    0    0  501  502  0.00000000000E+00 -0.00000000000E+00 -0.55226667715E+02  0.55226667715E+02  0.00000000000E+00 0.  1.
        -24    2    1    2    0    0 -0.12408812117E+03  0.34354631785E+02  0.37060364316E+03  0.40048265962E+03  0.80381576160E+02 0.  0.
         23    2    1    2    0    0  0.16154812184E+03 -0.19737153972E+02  0.17549685368E+03  0.25316350172E+03  0.82494012091E+02 0.  0.
         11    1    3    3    0    0 -0.64776044215E+02 -0.16712331467E+02  0.23036522978E+03  0.23988200645E+03  0.00000000000E+00 0. -1.
        -12    1    3    3    0    0 -0.59312076955E+02  0.51066963252E+02  0.14023841338E+03  0.16060065316E+03  0.00000000000E+00 0.  1.
        -13    1    4    4    0    0  0.23010993504E+02  0.18325392486E+02  0.66854506808E+02  0.73040063748E+02  0.00000000000E+00 0. -1.
         13    1    4    4    0    0  0.13853712834E+03 -0.38062546458E+02  0.10864234688E+03  0.18012343797E+03  0.00000000000E+00 0.  1.
          2    1    1    2  501    0 -0.37460000670E+02 -0.14617477813E+02  0.27659040299E+03  0.27949807393E+03  0.00000000000E+00 0. -1.
<scales pt_clust_5="13000.00000" pt_clust_6="13000.00000" pt_clust_7="13000.00000" pt_clust_8="13000.00000" pt_clust_9="40.21099"></scales>
<clustering>
<clus scale="   40.211">  2  9  1 -1</clus>
<clus scale="   80.382">  5  6 -1 -1</clus>
<clus scale="   82.494">  7  8 -1 -1</clus>
<clus scale="  159.587">  1  5  2 -1</clus>
<clus scale="   40.211">  2  5  1 -1</clus>
</clustering>
</event>
<event>
 9    1  0.6270443E-005  0.1605790E+03  0.7546771E-02  0.1216076E+00
         21   -1    0    0  501  502  0.00000000000E+00  0.00000000000E+00  0.94538247492E+02  0.94538247492E+02  0.00000000000E+00 0.  1.
          1   -1    0    0  502    0 -0.00000000000E+00 -0.00000000000E+00 -0.58330513486E+03  0.58330513486E+03  0.00000000000E+00 0. -1.
         23    2    1    2    0    0 -0.14069343852E+02  0.98642080771E+01  0.16711789937E+02  0.89113533139E+02  0.85829417033E+02 0.  0.
        -24    2    1    2    0    0  0.44181109125E+02  0.12818581374E+03 -0.23289506402E+03  0.28170158803E+03  0.82049379067E+02 0.  0.
         13    1    4    4    0    0  0.44381083265E+02  0.18508670925E+02 -0.83718684980E+02  0.96545686936E+02  0.00000000000E+00 0. -1.
        -14    1    4    4    0    0 -0.19997414030E+00  0.10967714282E+03 -0.14917637904E+03  0.18515590109E+03  0.00000000000E+00 0.  1.
        -13    1    3    3    0    0 -0.43941179771E+02  0.11978377379E+02  0.31832249187E+02  0.55566184794E+02  0.00000000000E+00 0. -1.
         13    1    3    3    0    0  0.29871835919E+02 -0.21141693015E+01 -0.15120459249E+02  0.33547348344E+02  0.00000000000E+00 0.  1.
          2    1    1    2  501    0 -0.30111765273E+02 -0.13805002182E+03 -0.27258361329E+03  0.30702826118E+03  0.00000000000E+00 0. -1.
<scales pt_clust_5="13000.00000" pt_clust_6="13000.00000" pt_clust_7="13000.00000" pt_clust_8="13000.00000" pt_clust_9="138.03459"></scales>
<clustering>
<clus scale="   82.049">  5  6 -1 -1</clus>
<clus scale="   85.829">  7  8 -1 -1</clus>
<clus scale="   87.533">  2  7  1 -1</clus>
<clus scale="  138.035">  1  9  2 -1</clus>
<clus scale="  138.035">  1  5  2 -1</clus>
</clustering>
</event>
<event>
 9    1  0.6270443E-005  0.2644793E+03  0.7546771E-02  0.1123451E+00
         21   -1    0    0  501  502  0.00000000000E+00  0.00000000000E+00  0.33093275243E+03  0.33093275243E+03  0.00000000000E+00 0. -1.
          1   -1    0    0  502    0 -0.00000000000E+00 -0.00000000000E+00 -0.44630018510E+03  0.44630018510E+03  0.00000000000E+00 0. -1.
         23    2    1    2    0    0 -0.13562099395E+03  0.78421308468E+01 -0.43639425421E+02  0.16941984913E+03  0.91346224947E+02 0.  0.
        -24    2    1    2    0    0  0.22113405660E+03 -0.22786300679E+03 -0.14867903424E+03  0.35953274223E+03  0.79602240316E+02 0.  0.
         13    1    4    4    0    0  0.18606465172E+03 -0.22527988018E+03 -0.13316499238E+03  0.32109810686E+03  0.00000000000E+00 0. -1.
        -14    1    4    4    0    0  0.35069404878E+02 -0.25831266152E+01 -0.15514041855E+02  0.38434635373E+02  0.00000000000E+00 0.  1.
        -11    1    3    3    0    0 -0.33544788521E+01  0.24418731526E+02  0.88043451425E+01  0.26173335116E+02  0.00000000000E+00 0.  1.
         11    1    3    3    0    0 -0.13226651510E+03 -0.16576600680E+02 -0.52443770564E+02  0.14324651401E+03  0.00000000000E+00 0. -1.
          2    1    1    2  501    0 -0.85513062652E+02  0.22002087595E+03  0.76951026981E+02  0.24828034616E+03  0.00000000000E+00 0. -1.
<scales pt_clust_5="13000.00000" pt_clust_6="13000.00000" pt_clust_7="13000.00000" pt_clust_8="13000.00000" pt_clust_9="252.21577"></scales>
<clustering>
<clus scale="   79.602">  5  6 -1 -1</clus>
<clus scale="   91.346">  7  8 -1 -1</clus>
<clus scale="  163.703">  2  7  1 -1</clus>
<clus scale="  252.216">  1  9  2 -1</clus>
<clus scale="  252.216">  1  5  2 -1</clus>
</clustering>
</event>
<event>
 9    1  0.6270443E-005  0.1296913E+03  0.7546771E-02  0.1231672E+00
         21   -1    0    0  501  502  0.00000000000E+00  0.00000000000E+00  0.32939474504E+03  0.32939474504E+03  0.00000000000E+00 0.  1.
         -4   -1    0    0    0  501 -0.00000000000E+00 -0.00000000000E+00 -0.12125845817E+03  0.12125845817E+03  0.00000000000E+00 0.  1.
         23    2    1    2    0    0  0.92186574591E+02 -0.19677819028E+02 -0.61510495166E+02  0.14575512272E+03  0.92603637550E+02 0.  0.
        -24    2    1    2    0    0 -0.75619891498E+02 -0.88425536394E+01  0.20729461653E+03  0.23435972787E+03  0.78465694802E+02 0.  0.
         11    1    4    4    0    0 -0.46836627714E+02  0.29398542798E+02  0.14901727850E+03  0.15894682540E+03  0.00000000000E+00 0. -1.
        -12    1    4    4    0    0 -0.28783263784E+02 -0.38241096438E+02  0.58277338032E+02  0.75412902470E+02  0.00000000000E+00 0.  1.
        -13    1    3    3    0    0 -0.81960504838E+01 -0.30119084238E+02 -0.14224554625E+02  0.34302659272E+02  0.00000000000E+00 0. -1.
         13    1    3    3    0    0  0.10038262508E+03  0.10441265210E+02 -0.47285940541E+02  0.11145246345E+03  0.00000000000E+00 0.  1.
         -3    1    1    2    0  502 -0.16566683093E+02  0.28520372667E+02  0.62352165506E+02  0.70538352611E+02  0.00000000000E+00 0.  1.
<scales pt_clust_5="13000.00000" pt_clust_6="13000.00000" pt_clust_7="13000.00000" pt_clust_8="13000.00000" pt_clust_9="32.98282"></scales>
<clustering>
<clus scale="   32.983">  1  9  2 -1</clus>
<clus scale="   78.466">  5  6 -1 -1</clus>
<clus scale="   92.604">  7  8 -1 -1</clus>
<clus scale="  120.005">  1  5  2 -1</clus>
<clus scale="   32.983">  1  5  2 -1</clus>
</clustering>
</event>
<event>
 9    1  0.6270443E-005  0.1321775E+03  0.7546771E-02  0.1227555E+00
         21   -1    0    0  501  502  0.00000000000E+00  0.00000000000E+00  0.27694293424E+03  0.27694293424E+03  0.00000000000E+00 0. -1.
         -4   -1    0    0    0  501 -0.00000000000E+00 -0.00000000000E+00 -0.98013253452E+02  0.98013253452E+02  0.00000000000E+00 0.  1.
        -24    2    1    2    0    0  0.45117501370E+02 -0.95754607280E+02  0.82847512744E+02  0.15638483057E+03  0.79924784133E+02 0.  0.
         23    2    1    2    0    0 -0.43355249982E+02  0.66719608731E+02  0.12686992257E+03  0.17621545436E+03  0.92869398696E+02 0.  0.
         11    1    3    3    0    0  0.66967258250E+02 -0.71902592977E+02  0.73524644730E+02  0.12272110632E+03  0.00000000000E+00 0. -1.
        -12    1    3    3    0    0 -0.21849756880E+02 -0.23852014303E+02  0.93228680137E+01  0.33663724245E+02  0.00000000000E+00 0.  1.
        -11    1    4    4    0    0  0.23155591165E+02  0.21398580263E+02  0.72580514477E+02  0.79132873834E+02  0.00000000000E+00 0.  1.
         11    1    4    4    0    0 -0.66510841148E+02  0.45321028468E+02  0.54289408091E+02  0.97082580530E+02  0.00000000000E+00 0. -1.
         -3    1    1    2    0  502 -0.17622513874E+01  0.29034998549E+02 -0.30787754519E+02  0.42355902765E+02  0.00000000000E+00 0.  1.
<scales pt_clust_5="13000.00000" pt_clust_6="13000.00000" pt_clust_7="13000.00000" pt_clust_8="13000.00000" pt_clust_9="29.08844"></scales>
<clustering>
<clus scale="   29.088">  1  9  2 -1</clus>
<clus scale="   79.925">  5  6 -1 -1</clus>
<clus scale="   92.869">  7  8 -1 -1</clus>
<clus scale="  123.427">  2  5  1 -1</clus>
<clus scale="   29.088">  1  5  2 -1</clus>
</clustering>
</event>
<event>
 9    1  0.6270443E-005  0.1017040E+03  0.7546771E-02  0.1282448E+00
         21   -1    0    0  501  502  0.00000000000E+00  0.00000000000E+00  0.41007621067E+03  0.41007621067E+03  0.00000000000E+00 0.  1.
          1   -1    0    0  502    0 -0.00000000000E+00 -0.00000000000E+00 -0.91509341474E+02  0.91509341474E+02  0.00000000000E+00 0. -1.
         23    2    1    2    0    0 -0.55518756947E+02  0.44774645390E+02  0.12530287239E+03  0.17072399714E+03  0.91426320765E+02 0.  0.
        -24    2    1    2    0    0 -0.21628290226E+02 -0.22930767782E+02  0.22794357751E+03  0.24350312555E+03  0.79636013065E+02 0.  0.
         11    1    4    4    0    0 -0.32954995965E+02 -0.43562563001E+02  0.10533353136E+03  0.11865446255E+03  0.00000000000E+00 0. -1.
        -12    1    4    4    0    0  0.11326705739E+02  0.20631795219E+02  0.12261004615E+03  0.12484866300E+03  0.00000000000E+00 0.  1.
        -13    1    3    3    0    0 -0.58870538397E+02  0.56060382488E+01  0.27307091211E+02  0.65137126021E+02  0.00000000000E+00 0.  1.
         13    1    3    3    0    0  0.33517814494E+01  0.39168607141E+02  0.97995781180E+02  0.10558687112E+03  0.00000000000E+00 0. -1.
          2    1    1    2  501    0  0.77147047173E+02 -0.21843877608E+02 -0.34679580710E+02  0.87358429443E+02  0.00000000000E+00 0. -1.
<scales pt_clust_5="13000.00000" pt_clust_6="13000.00000" pt_clust_7="13000.00000" pt_clust_8="13000.00000" pt_clust_9="80.17997"></scales>
<clustering>
<clus scale="   79.636">  5  6 -1 -1</clus>
<clus scale="   80.180">  1  9  2 -1</clus>
<clus scale="   91.251">  1  5  2 -1</clus>
<clus scale="   91.426">  7  8 -1 -1</clus>
<clus scale="   80.180">  1  5  2 -1</clus>
</clustering>
</event>
<event>
 9    1  0.6270443E-005  0.1385500E+03  0.7546771E-02  0.1230043E+00
         21   -1    0    0  501  502  0.00000000000E+00  0.00000000000E+00  0.47208088025E+02  0.47208088025E+02  0.00000000000E+00 0. -1.
          1   -1    0    0  502    0 -0.00000000000E+00 -0.00000000000E+00 -0.97553516687E+03  0.97553516687E+03  0.00000000000E+00 0. -1.
         23    2    1    2    0    0  0.36216124912E+02  0.24355120029E+02 -0.15976248791E+03  0.18943386677E+03  0.91958456724E+02 0.  0.
        -24    2    1    2    0    0 -0.11542926663E+03 -0.92884988665E+02 -0.66413748849E+03  0.68540372751E+03  0.82146998437E+02 0.  0.
         11    1    4    4    0    0 -0.11708868414E+03 -0.10297567932E+03 -0.64628927343E+03  0.66483349452E+03  0.00000000000E+00 0. -1.
        -12    1    4    4    0    0  0.16594175178E+01  0.10090690653E+02 -0.17848215056E+02  0.20570232985E+02  0.00000000000E+00 0.  1.
        -11    1    3    3    0    0 -0.25272778624E+02  0.22030097113E+02 -0.91917941822E+02  0.97841435736E+02  0.00000000000E+00 0.  1.
         11    1    3    3    0    0  0.61488903536E+02  0.23250229160E+01 -0.67844546085E+02  0.91592431036E+02  0.00000000000E+00 0. -1.
          2    1    1    2  501    0  0.79213141714E+02  0.68529868636E+02 -0.10442710245E+03  0.14790566061E+03  0.00000000000E+00 0. -1.
<scales pt_clust_5="13000.00000" pt_clust_6="13000.00000" pt_clust_7="13000.00000" pt_clust_8="13000.00000" pt_clust_9="111.57044"></scales>
<clustering>
<clus scale="   82.147">  5  6 -1 -1</clus>
<clus scale="   91.958">  7  8 -1 -1</clus>
<clus scale="  101.790">  2  7  1 -1</clus>
<clus scale="  111.570">  1  9  2 -1</clus>
<clus scale="  111.570">  1  5  2 -1</clus>
</clustering>
</event>
<event>
 9    1  0.6270443E-005  0.1011104E+03  0.7546771E-02  0.1283381E+00
         21   -1    0    0  501  502  0.00000000000E+00  0.00000000000E+00  0.38127917393E+02  0.38127917393E+02  0.00000000000E+00 0.  1.
          1   -1    0    0  502    0 -0.00000000000E+00 -0.00000000000E+00 -0.63839422258E+03  0.63839422258E+03  0.00000000000E+00 0. -1.
        -24    2    1    2    0    0 -0.14456496598E+02 -0.53644652985E+02 -0.43187515989E+03  0.44275087512E+03  0.80158871020E+02 0.  0.
         23    2    1    2    0    0  0.30519813296E-01 -0.86325966059E+01 -0.65518829025E+02  0.11265446966E+03  0.91234806525E+02 0.  0.
         11    1    3    3    0    0  0.25670162645E+02 -0.49215079226E+02 -0.28897129912E+03  0.29425412994E+03  0.00000000000E+00 0. -1.
        -12    1    3    3    0    0 -0.40126659242E+02 -0.44295737583E+01 -0.14290386077E+03  0.14849674518E+03  0.00000000000E+00 0.  1.
        -11    1    4    4    0    0  0.12693430032E+02  0.39447065135E+02 -0.35573023915E+02  0.54613497820E+02  0.00000000000E+00 0. -1.
         11    1    4    4    0    0 -0.12662910219E+02 -0.48079661740E+02 -0.29945805111E+02  0.58040971839E+02  0.00000000000E+00 0.  1.
          2    1    1    2  501    0  0.14425976784E+02  0.62277249590E+02 -0.10287231627E+03  0.12111679519E+03  0.00000000000E+00 0. -1.
<scales pt_clust_5="13000.00000" pt_clust_6="13000.00000" pt_clust_7="13000.00000" pt_clust_8="13000.00000" pt_clust_9="63.92624"></scales>
<clustering>
<clus scale="   63.926">  1  9  2 -1</clus>
<clus scale="   80.159">  5  6 -1 -1</clus>
<clus scale="   91.235">  7  8 -1 -1</clus>
<clus scale="   91.241">  2  5  1 -1</clus>
<clus scale="   63.926">  1  5  2 -1</clus>
</clustering>
</event>
<event>
 9    1  0.6270443E-005  0.1787351E+03  0.7546771E-02  0.1203408E+00
          1   -1    0    0  502    0 -0.00000000000E+00  0.00000000000E+00  0.10653864417E+04  0.10653864417E+04  0.00000000000E+00 0. -1.
         21   -1    0    0  501  502  0.00000000000E+00 -0.00000000000E+00 -0.50665116287E+02  0.50665116287E+02  0.00000000000E+00 0.  1.
        -24    2    1    2    0    0  0.13311993259E+02  0.13331279640E+02  0.32909928058E+03  0.33945426070E+03  0.81042744573E+02 0.  0.
         23    2    1    2    0    0 -0.15879994111E+03 -0.72175494654E+01  0.20579165251E+03  0.27515804267E+03  0.89956822351E+02 0.  0.
         11    1    3    3    0    0  0.45929816135E+01 -0.29944281079E+02  0.65278037585E+02  0.71965114051E+02  0.00000000000E+00 0. -1.
        -12    1    3    3    0    0  0.87190116456E+01  0.43275560719E+02  0.26382124300E+03  0.26748914665E+03  0.00000000000E+00 0.  1.
        -11    1    4    4    0    0 -0.12598974462E+03  0.15121845058E+02  0.98125052940E+02  0.16040764309E+03  0.00000000000E+00 0.  1.
         11    1    4    4    0    0 -0.32810196494E+02 -0.22339394523E+02  0.10766659957E+03  0.11475039958E+03  0.00000000000E+00 0. -1.
          2    1    1    2  501    0  0.14548794786E+03 -0.61137301748E+01  0.47983039228E+03  0.50143925457E+03  0.00000000000E+00 0. -1.
<scales pt_clust_5="13000.00000" pt_clust_6="13000.00000" pt_clust_7="13000.00000" pt_clust_8="13000.00000" pt_clust_9="154.44745"></scales>
<clustering>
<clus scale="   81.043">  5  6 -1 -1</clus>
<clus scale="   83.204">  1  5  2 -1</clus>
<clus scale="   89.957">  7  8 -1 -1</clus>
<clus scale="  154.447">  2  9  1 -1</clus>
<clus scale="  154.447">  2  5  1 -1</clus>
</clustering>
</event>
<event>
 9    1  0.6270443E-005  0.2577134E+03  0.7546771E-02  0.1126325E+00
         -2   -1    0    0    0  501 -0.00000000000E+00  0.00000000000E+00  0.13687687523E+03  0.13687687523E+03  0.00000000000E+00 0.  1.
         21   -1    0    0  501  502  0.00000000000E+00 -0.00000000000E+00 -0.10844910750E+04  0.10844910750E+04  0.00000000000E+00 0.  1.
         23    2    1    2    0    0  0.14326994244E+02  0.13638849422E+03 -0.52414985514E+03  0.54943814380E+03  0.91335201873E+02 0.  0.
        -24    2    1    2    0    0 -0.24832610620E+03 -0.26888652220E+02 -0.22997480508E+03  0.34915434002E+03  0.81433945904E+02 0.  0.
         13    1    4    4    0    0 -0.17039758700E+03 -0.40612534565E+02 -0.19648316134E+03  0.26323059911E+03  0.00000000000E+00 0. -1.
        -14    1    4    4    0    0 -0.77928519205E+02  0.13723882344E+02 -0.33491643743E+02  0.85923740914E+02  0.00000000000E+00 0.  1.
        -11    1    3    3    0    0  0.21690979129E+02 -0.56323055359E+01 -0.79696103514E+02  0.82787018043E+02  0.00000000000E+00 0. -1.
         11    1    3    3    0    0 -0.73639848850E+01  0.14202079976E+03 -0.44445375162E+03  0.46665112576E+03  0.00000000000E+00 0.  1.
         -1    1    1    2    0  502  0.23399911196E+03 -0.10949984200E+03 -0.19348953954E+03  0.32277546640E+03  0.00000000000E+00 0.  1.
<scales pt_clust_5="13000.00000" pt_clust_6="13000.00000" pt_clust_7="13000.00000" pt_clust_8="13000.00000" pt_clust_9="244.50927"></scales>
<clustering>
<clus scale="   81.434">  5  6 -1 -1</clus>
<clus scale="   91.335">  7  8 -1 -1</clus>
<clus scale="  164.770">  1  7  2 -1</clus>
<clus scale="  244.509">  2  9  1 -1</clus>
<clus scale="  244.509">  2  5  1 -1</clus>
</clustering>
</event>
<event>
 9    1  0.6270443E-005  0.1144873E+03  0.7546771E-02  0.1257032E+00
          3   -1    0    0  502    0 -0.00000000000E+00  0.00000000000E+00  0.13318963690E+03  0.13318963690E+03  0.00000000000E+00 0. -1.
         21   -1    0    0  501  502  0.00000000000E+00 -0.00000000000E+00 -0.13938368927E+03  0.13938368927E+03  0.00000000000E+00 0.  1.
         23    2    1    2    0    0  0.68519552834E+02 -0.31071729355E+02  0.59440195425E+02  0.13297758586E+03  0.92138591397E+02 0.  0.
        -24    2    1    2    0    0 -0.43428752970E+02  0.32682975193E+02 -0.41986332247E+02  0.10507953744E+03  0.79527502418E+02 0.  0.
         11    1    4    4    0    0 -0.16305958220E+02  0.43898457759E+02  0.76159601611E+01  0.47444301200E+02  0.00000000000E+00 0. -1.
        -12    1    4    4    0    0 -0.27122794750E+02 -0.11215482567E+02 -0.49602292408E+02  0.57635236240E+02  0.00000000000E+00 0.  1.
        -13    1    3    3    0    0  0.57491258275E+02 -0.59656674044E+02  0.24266479930E+02  0.86330907468E+02  0.00000000000E+00 0.  1.
         13    1    3    3    0    0  0.11028294560E+02  0.28584944689E+02  0.35173715495E+02  0.46646678397E+02  0.00000000000E+00 0. -1.
          4    1    1    2  501    0 -0.25090799864E+02 -0.16112458379E+01 -0.23647915544E+02  0.34516202870E+02  0.00000000000E+00 0. -1.
<scales pt_clust_5="13000.00000" pt_clust_6="13000.00000" pt_clust_7="13000.00000" pt_clust_8="13000.00000" pt_clust_9="25.14248"></scales>
<clustering>
<clus scale="   25.142">  2  9  1 -1</clus>
<clus scale="   79.528">  5  6 -1 -1</clus>
<clus scale="   92.139">  7  8 -1 -1</clus>
<clus scale="  104.606">  2  5  1 -1</clus>
<clus scale="   25.142">  2  5  1 -1</clus>
</clustering>
</event>
<event>
 9    1  0.6270443E-005  0.1216456E+03  0.7546771E-02  0.1250819E+00
         -2   -1    0    0    0  501 -0.00000000000E+00  0.00000000000E+00  0.10037669486E+04  0.10037669486E+04  0.00000000000E+00 0.  1.
         21   -1    0    0  501  502  0.00000000000E+00 -0.00000000000E+00 -0.28467325647E+02  0.28467325647E+02  0.00000000000E+00 0. -1.
         23    2    1    2    0    0 -0.37336014332E+02  0.13524788196E+02  0.45205754299E+03  0.46269656036E+03  0.90306073586E+02 0.  0.
        -24    2    1    2    0    0 -0.34975068795E+02  0.66372339788E+02  0.21118515543E+03  0.23939839792E+03  0.84165789531E+02 0.  0.
         11    1    4    4    0    0 -0.26133112339E+02  0.64120859224E+02  0.71919066854E+02  0.99833743420E+02  0.00000000000E+00 0. -1.
        -12    1    4    4    0    0 -0.88419564564E+01  0.22514805632E+01  0.13926608858E+03  0.13956465450E+03  0.00000000000E+00 0.  1.
        -11    1    3    3    0    0  0.15927647326E+02 -0.26679023690E+02  0.11683422670E+03  0.12089539604E+03  0.00000000000E+00 0. -1.
         11    1    3    3    0    0 -0.53263661658E+02  0.40203811885E+02  0.33522331629E+03  0.34180116432E+03  0.00000000000E+00 0.  1.
         -1    1    1    2    0  502  0.72311083127E+02 -0.79897127983E+02  0.31205692455E+03  0.33013931599E+03  0.00000000000E+00 0.  1.
<scales pt_clust_5="13000.00000" pt_clust_6="13000.00000" pt_clust_7="13000.00000" pt_clust_8="13000.00000" pt_clust_9="87.82810"></scales>
<clustering>
<clus scale="   84.166">  5  6 -1 -1</clus>
<clus scale="   90.306">  7  8 -1 -1</clus>
<clus scale="   98.651">  1  7  2 -1</clus>
<clus scale="   87.828">  2  9  1 -1</clus>
<clus scale="   87.828">  2  5  1 -1</clus>
</clustering>
</event>
<event>
 9    1  0.6270443E-005  0.1459247E+03  0.7546771E-02  0.1219269E+00
          1   -1    0    0  502    0 -0.00000000000E+00  0.00000000000E+00  0.81595353562E+03  0.81595353562E+03  0.00000000000E+00 0. -1.
         21   -1    0    0  501  502  0.00000000000E+00 -0.00000000000E+00 -0.72454252563E+02  0.72454252563E+02  0.00000000000E+00 0.  1.
        -24    2    1    2    0    0 -0.62029842326E+02  0.39046976517E+02  0.27959422728E+03  0.30010791882E+03  0.80743193474E+02 0.  0.
         23    2    1    2    0    0 -0.95358110296E+02 -0.14636987797E+02  0.53426993780E+02  0.14800558760E+03  0.98710686779E+02 0.  0.
         13    1    3    3    0    0 -0.13260905136E+02 -0.24996021851E+02  0.64012282512E+02  0.69987320465E+02  0.00000000000E+00 0. -1.
        -14    1    3    3    0    0 -0.48768937190E+02  0.64042998369E+02  0.21558194477E+03  0.23012059835E+03  0.00000000000E+00 0.  1.
        -11    1    4    4    0    0 -0.51904885820E+01 -0.33226006458E+02  0.44116308895E+02  0.55472131629E+02  0.00000000000E+00 0. -1.
         11    1    4    4    0    0 -0.90167621714E+02  0.18589018661E+02  0.93106848842E+01  0.92533455968E+02  0.00000000000E+00 0.  1.
          2    1    1    2  501    0  0.15738795262E+03 -0.24409988720E+02  0.41047806200E+03  0.44029428177E+03  0.00000000000E+00 0. -1.
<scales pt_clust_5="13000.00000" pt_clust_6="13000.00000" pt_clust_7="13000.00000" pt_clust_8="13000.00000" pt_clust_9="107.47197"></scales>
<clustering>
<clus scale="   80.743">  5  6 -1 -1</clus>
<clus scale="   98.711">  7  8 -1 -1</clus>
<clus scale="  109.050">  1  5  2 -1</clus>
<clus scale="  107.472">  2  9  1 -1</clus>
<clus scale="  107.472">  2  5  1 -1</clus>
</clustering>
</event>
<event>
 9    1  0.6270443E-005  0.1002997E+03  0.7546771E-02  0.1284443E+00
         21   -1    0    0  501  502  0.00000000000E+00  0.00000000000E+00  0.26657982175E+03  0.26657982175E+03  0.00000000000E+00 0. -1.
          3   -1    0    0  502    0 -0.00000000000E+00 -0.00000000000E+00 -0.68700362415E+02  0.68700362415E+02  0.00000000000E+00 0. -1.
         23    2    1    2    0    0  0.52660463999E+02 -0.20857692518E+02  0.86785527019E+02  0.13749151772E+03  0.90354977391E+02 0.  0.
        -24    2    1    2    0    0  0.48133318299E+01  0.52114467451E+02  0.81390481474E+02  0.12593800063E+03  0.80603248366E+02 0.  0.
         13    1    4    4    0    0 -0.35687313925E+02  0.39896525560E+02  0.40734498124E+02  0.67265269377E+02  0.00000000000E+00 0. -1.
        -14    1    4    4    0    0  0.40500645754E+02  0.12217941891E+02  0.40655983350E+02  0.58672731253E+02  0.00000000000E+00 0.  1.
        -11    1    3    3    0    0  0.74571275240E+02 -0.22477270151E+02  0.85243785419E+02  0.11546690312E+03  0.00000000000E+00 0. -1.
         11    1    3    3    0    0 -0.21910811241E+02  0.16195776332E+01  0.15417415995E+01  0.22024614596E+02  0.00000000000E+00 0.  1.
          4    1    1    2  501    0 -0.57473795829E+02 -0.31256774933E+02  0.29703450844E+02  0.71850665816E+02  0.00000000000E+00 0. -1.
<scales pt_clust_5="13000.00000" pt_clust_6="13000.00000" pt_clust_7="13000.00000" pt_clust_8="13000.00000" pt_clust_9="65.42345"></scales>
<clustering>
<clus scale="   65.423">  1  9  2 -1</clus>
<clus scale="   80.603">  5  6 -1 -1</clus>
<clus scale="   90.355">  7  8 -1 -1</clus>
<clus scale="   91.613">  1  5  2 -1</clus>
<clus scale="   65.423">  1  5  2 -1</clus>
</clustering>
</event>
<event>
 9    1  0.6270443E-005  0.2523887E+03  0.7546771E-02  0.1111804E+00
          3   -1    0    0  502    0 -0.00000000000E+00  0.00000000000E+00  0.38076099533E+03  0.38076099533E+03  0.00000000000E+00 0. -1.
         21   -1    0    0  501  502  0.00000000000E+00 -0.00000000000E+00 -0.15613121685E+03  0.15613121685E+03  0.00000000000E+00 0. -1.
        -24    2    1    2    0    0  0.10549525086E+03 -0.71515725367E+02  0.22484619933E+03  0.27014460729E+03  0.78603743955E+02 0.  0.
         23    2    1    2    0    0  0.27518343174E+02  0.67436915341E+01  0.56939146930E+02  0.10814498356E+03  0.87467333499E+02 0.  0.
         13    1    3    3    0    0  0.55575527168E+02 -0.40661877963E+02  0.18953041419E+03  0.20165268518E+03  0.00000000000E+00 0. -1.
        -14    1    3    3    0    0  0.49919723693E+02 -0.30853847404E+02  0.35315785145E+02  0.68491922105E+02  0.00000000000E+00 0.  1.
        -11    1    4    4    0    0 -0.17477644897E+02  0.24526289742E+02  0.51230379684E+02  0.59426919508E+02  0.00000000000E+00 0.  1.
         11    1    4    4    0    0  0.44995988071E+02 -0.17782598208E+02  0.57087672458E+01  0.48718064052E+02  0.00000000000E+00 0. -1.
          4    1    1    2  501    0 -0.13301359403E+03  0.64772033833E+02 -0.57155567777E+02  0.15860262133E+03  0.00000000000E+00 0. -1.
<scales pt_clust_5="13000.00000" pt_clust_6="13000.00000" pt_clust_7="13000.00000" pt_clust_8="13000.00000" pt_clust_9="147.94605"></scales>
<clustering>
<clus scale="   78.604">  5  6 -1 -1</clus>
<clus scale="   87.467">  7  8 -1 -1</clus>
<clus scale="   91.222">  5  7 -1 -1</clus>
<clus scale="  147.946">  2  9  1 -1</clus>
<clus scale="  147.946">  2  5  1 -1</clus>
</clustering>
</event>
<event>
 9    1  0.6270443E-005  0.1314797E+03  0.7546771E-02  0.1228646E+00
          1   -1    0    0  502    0 -0.00000000000E+00  0.00000000000E+00  0.12611110932E+04  0.12611110932E+04  0.00000000000E+00 0. -1.
         21   -1    0    0  501  502  0.00000000000E+00 -0.00000000000E+00 -0.22178700684E+02  0.22178700684E+02  0.00000000000E+00 0. -1.
        -24    2    1    2    0    0  0.42986740112E+02 -0.20026880962E+02  0.47115579253E+03  0.48553265780E+03  0.10726250586E+03 0.  0.
         23    2    1    2    0    0 -0.10003966840E+03  0.52825846902E+02  0.58298365768E+03  0.60159587509E+03  0.96172482783E+02 0.  0.
         13    1    3    3    0    0  0.59291531434E+01 -0.61284520042E+02  0.23198781847E+03  0.24001936416E+03  0.00000000000E+00 0. -1.
        -14    1    3    3    0    0  0.37057586969E+02  0.41257639080E+02  0.23916797407E+03  0.24551329364E+03  0.00000000000E+00 0.  1.
        -13    1    4    4    0    0 -0.23058622722E+02 -0.21481899160E+02  0.59927737596E+02  0.67708978775E+02  0.00000000000E+00 0.  1.
         13    1    4    4    0    0 -0.76981045677E+02  0.74307746062E+02  0.52305592009E+03  0.53388689631E+03  0.00000000000E+00 0. -1.
          2    1    1    2  501    0  0.57052928288E+02 -0.32798965940E+02  0.18479294231E+03  0.19616126101E+03  0.00000000000E+00 0. -1.
<scales pt_clust_5="13000.00000" pt_clust_6="13000.00000" pt_clust_7="13000.00000" pt_clust_8="13000.00000" pt_clust_9="65.80888"></scales>
<clustering>
<clus scale="   65.809">  2  9  1 -1</clus>
<clus scale="   96.172">  7  8 -1 -1</clus>
<clus scale="  107.263">  5  6 -1 -1</clus>
<clus scale="  122.600">  2  7  1 -1</clus>
<clus scale="   65.809">  2  5  1 -1</clus>
</clustering>
</event>
<event>
 9    1  0.6270443E-005  0.9421521E+02  0.7546771E-02  0.1300664E+00
         21   -1    0    0  501  502  0.00000000000E+00  0.00000000000E+00  0.88782245862E+02  0.88782245862E+02  0.00000000000E+00 0. -1.
         -4   -1    0    0    0  501 -0.00000000000E+00 -0.00000000000E+00 -0.29921478134E+03  0.29921478134E+03  0.00000000000E+00 0.  1.
        -24    2    1    2    0    0 -0.22843511563E+02  0.13861435486E+02 -0.10460137199E+03  0.13449749305E+03  0.80213235826E+02 0.  0.
         23    2    1    2    0    0 -0.26257496514E+02  0.25778139945E+02  0.29453989668E+02  0.10422034069E+03  0.92953608235E+02 0.  0.
         13    1    3    3    0    0  0.16179979474E+02  0.24992400420E+02 -0.83727941815E+02  0.88863828722E+02  0.00000000000E+00 0. -1.
        -14    1    3    3    0    0 -0.39023491037E+02 -0.11130964934E+02 -0.20873430172E+02  0.45633664331E+02  0.00000000000E+00 0.  1.
        -11    1    4    4    0    0 -0.44803626939E+02 -0.18085802538E+02  0.17556983724E+00  0.48316581678E+02  0.00000000000E+00 0.  1.
         11    1    4    4    0    0  0.18546130425E+02  0.43863942482E+02  0.29278419831E+02  0.55903759012E+02  0.00000000000E+00 0. -1.
         -3    1    1    2    0  502  0.49101008077E+02 -0.39639575431E+02 -0.13528515315E+03  0.14927919345E+03  0.00000000000E+00 0.  1.
<scales pt_clust_5="13000.00000" pt_clust_6="13000.00000" pt_clust_7="13000.00000" pt_clust_8="13000.00000" pt_clust_9="63.10475"></scales>
<clustering>
<clus scale="   63.105">  1  9  2 -1</clus>
<clus scale="   80.213">  5  6 -1 -1</clus>
<clus scale="   81.672">  2  5  1 -1</clus>
<clus scale="   92.954">  7  8 -1 -1</clus>
<clus scale="   63.105">  1  5  2 -1</clus>
</clustering>
</event>
<event>
 9    1  0.6270443E-005  0.1332404E+03  0.7546771E-02  0.1235578E+00
         21   -1    0    0  501  502  0.00000000000E+00  0.00000000000E+00  0.10254131861E+04  0.10254131861E+04  0.00000000000E+00 0.  1.
         -2   -1    0    0    0  501 -0.00000000000E+00 -0.00000000000E+00 -0.35557409302E+02  0.35557409302E+02  0.00000000000E+00 0.  1.
        -24    2    1    2    0    0  0.27879871632E+02 -0.41564112241E+02  0.40997644285E+03  0.42250904016E+03  0.89041241307E+02 0.  0.
         23    2    1    2    0    0  0.24975571969E+02 -0.51022102800E+02  0.10079117291E+03  0.14765469794E+03  0.91738841924E+02 0.  0.
         11    1    3    3    0    0  0.33884886850E+02 -0.10433082520E+02  0.50873737271E+02  0.62009450180E+02  0.00000000000E+00 0. -1.
        -12    1    3    3    0    0 -0.60050152173E+01 -0.31131029721E+02  0.35910270558E+03  0.36049958998E+03  0.00000000000E+00 0.  1.
        -13    1    4    4    0    0  0.14663067324E+02 -0.18752475930E+02 -0.14239960921E+02  0.27738734360E+02  0.00000000000E+00 0.  1.
         13    1    4    4    0    0  0.10312504645E+02 -0.32269626871E+02  0.11503113383E+03  0.11991596358E+03  0.00000000000E+00 0. -1.
         -1    1    1    2    0  502 -0.52855443601E+02  0.92586215041E+02  0.47908816108E+03  0.49080685735E+03  0.00000000000E+00 0.  1.
<scales pt_clust_5="13000.00000" pt_clust_6="13000.00000" pt_clust_7="13000.00000" pt_clust_8="13000.00000" pt_clust_9="96.62806"></scales>
<clustering>
<clus scale="   89.041">  5  6 -1 -1</clus>
<clus scale="   91.739">  7  8 -1 -1</clus>
<clus scale="  102.143">  2  5  1 -1</clus>
<clus scale="   96.628">  1  9  2 -1</clus>
<clus scale="   96.628">  1  5  2 -1</clus>
</clustering>
</event>
<event>
 9    1  0.6270443E-005  0.8964705E+02  0.7546771E-02  0.1308502E+00
         -2   -1    0    0    0  501 -0.00000000000E+00  0.00000000000E+00  0.24500270600E+03  0.24500270600E+03  0.00000000000E+00 0.  1.
         21   -1    0    0  501  502  0.00000000000E+00 -0.00000000000E+00 -0.49566720707E+02  0.49566720707E+02  0.00000000000E+00 0. -1.
        -24    2    1    2    0    0  0.22684663894E+02  0.20722896260E+02  0.11118728402E+03  0.14055319985E+03  0.80302910621E+02 0.  0.
         23    2    1    2    0    0  0.46352616114E+01  0.62189471979E+01  0.44957996639E+02  0.99098099348E+02  0.87971875495E+02 0.  0.
         11    1    3    3    0    0 -0.24955171849E+02 -0.98359846750E+01  0.20952610374E+02  0.34037025105E+02  0.00000000000E+00 0. -1.
        -12    1    3    3    0    0  0.47639835743E+02  0.30558880935E+02  0.90234673648E+02  0.10651617474E+03  0.00000000000E+00 0.  1.
        -11    1    4    4    0    0 -0.33658853807E+02  0.17353019280E+02 -0.14655947404E+01  0.37897146142E+02  0.00000000000E+00 0.  1.
         11    1    4    4    0    0  0.38294115419E+02 -0.11134072082E+02  0.46423591379E+02  0.61200953206E+02  0.00000000000E+00 0. -1.
         -1    1    1    2    0  502 -0.27319925506E+02 -0.26941843458E+02  0.39290704627E+02  0.54918127505E+02  0.00000000000E+00 0.  1.
<scales pt_clust_5="13000.00000" pt_clust_6="13000.00000" pt_clust_7="13000.00000" pt_clust_8="13000.00000" pt_clust_9="38.36982"></scales>
<clustering>
<clus scale="   38.370">  2  9  1 -1</clus>
<clus scale="   80.303">  5  6 -1 -1</clus>
<clus scale="   82.135">  1  5  2 -1</clus>
<clus scale="   87.972">  7  8 -1 -1</clus>
<clus scale="   38.370">  2  5  1 -1</clus>
</clustering>
</event>
<event>
 9    1  0.6270443E-005  0.1023330E+03  0.7546771E-02  0.1279987E+00
         21   -1    0    0  501  502  0.00000000000E+00  0.00000000000E+00  0.10773655097E+03  0.10773655097E+03  0.00000000000E+00 0. -1.
         -4   -1    0    0    0  501 -0.00000000000E+00 -0.00000000000E+00 -0.22588582323E+03  0.22588582323E+03  0.00000000000E+00 0.  1.
         23    2    1    2    0    0  0.44598549503E+02 -0.13331791723E+02 -0.15790835785E+03  0.18704479093E+03  0.88791537022E+02 0.  0.
        -24    2    1    2    0    0 -0.72026529141E+02 -0.13587245300E+01  0.17337278308E+02  0.10822601516E+03  0.78883598462E+02 0.  0.
         13    1    4    4    0    0 -0.88867264177E+02  0.37489351526E+00  0.89065908583E+01  0.89313260763E+02  0.00000000000E+00 0. -1.
        -14    1    4    4    0    0  0.16840735036E+02 -0.17336180452E+01  0.84306874499E+01  0.18912754399E+02  0.00000000000E+00 0.  1.
        -13    1    3    3    0    0  0.42192180229E+02  0.20268416350E+02 -0.14252062199E+03  0.15001038786E+03  0.00000000000E+00 0.  1.
         13    1    3    3    0    0  0.24063692747E+01 -0.33600208073E+02 -0.15387735855E+02  0.37034403065E+02  0.00000000000E+00 0. -1.
         -3    1    1    2    0  502  0.27427979638E+02  0.14690516253E+02  0.22421807276E+02  0.38351568108E+02  0.00000000000E+00 0.  1.
<scales pt_clust_5="13000.00000" pt_clust_6="13000.00000" pt_clust_7="13000.00000" pt_clust_8="13000.00000" pt_clust_9="31.11439"></scales>
<clustering>
<clus scale="   31.114">  1  9  2 -1</clus>
<clus scale="   78.884">  5  6 -1 -1</clus>
<clus scale="   88.792">  7  8 -1 -1</clus>
<clus scale="   93.866">  1  5  2 -1</clus>
<clus scale="   31.114">  1  5  2 -1</clus>
</clustering>
</event>
<event>
 9    1  0.6270443E-005  0.9672431E+02  0.7546771E-02  0.1292929E+00
         21   -1    0    0  501  502  0.00000000000E+00  0.00000000000E+00  0.29355738886E+03  0.29355738886E+03  0.00000000000E+00 0.  1.
         -2   -1    0    0    0  501 -0.00000000000E+00 -0.00000000000E+00 -0.30520605928E+03  0.30520605928E+03  0.00000000000E+00 0.  1.
        -24    2    1    2    0    0 -0.29528769185E+02  0.18075783460E+02 -0.26626567417E+03  0.28066435376E+03  0.81709167612E+02 0.  0.
         23    2    1    2    0    0 -0.15749108878E+02  0.63103005679E+01  0.47751244337E+02  0.10493669208E+03  0.91889464499E+02 0.  0.
         11    1    3    3    0    0 -0.54452048945E+02  0.18228286467E+01 -0.21074127562E+03  0.21767001077E+03  0.00000000000E+00 0. -1.
        -12    1    3    3    0    0  0.24923279760E+02  0.16252954814E+02 -0.55524398554E+02  0.62994342992E+02  0.00000000000E+00 0.  1.
        -13    1    4    4    0    0  0.37790152886E+02 -0.56552096622E+01  0.24238526388E+02  0.45250228872E+02  0.00000000000E+00 0. -1.
         13    1    4    4    0    0 -0.53539261764E+02  0.11965510230E+02  0.23512717949E+02  0.59686463211E+02  0.00000000000E+00 0.  1.
         -1    1    1    2    0  502  0.45277878062E+02 -0.24386084028E+02  0.20686575941E+03  0.21316240230E+03  0.00000000000E+00 0.  1.
<scales pt_clust_5="13000.00000" pt_clust_6="13000.00000" pt_clust_7="13000.00000" pt_clust_8="13000.00000" pt_clust_9="51.42730"></scales>
<clustering>
<clus scale="   51.427">  1  9  2 -1</clus>
<clus scale="   81.709">  5  6 -1 -1</clus>
<clus scale="   87.111">  2  5  1 -1</clus>
<clus scale="   91.889">  7  8 -1 -1</clus>
<clus scale="   51.427">  1  5  2 -1</clus>
</clustering>
</event>
<event>
 9    1  0.6270443E-005  0.1344865E+03  0.7546771E-02  0.1240039E+00
         -2   -1    0    0    0  501 -0.00000000000E+00  0.00000000000E+00  0.16537631549E+03  0.16537631549E+03  0.00000000000E+00 0.  1.
         21   -1    0    0  501  502  0.00000000000E+00 -0.00000000000E+00 -0.21961200054E+03  0.21961200054E+03  0.00000000000E+00 0. -1.
        -24    2    1    2    0    0  0.38889774679E+01  0.41048987416E+02  0.66265276760E+02  0.11232477637E+03  0.80781340468E+02 0.  0.
         23    2    1    2    0    0 -0.59521963406E+02  0.52610630305E+02 -0.16245228264E+02  0.12187756189E+03  0.90991703481E+02 0.  0.
         13    1    3    3    0    0  0.30670855971E+02  0.51932012520E+02  0.53880794544E+02  0.80875060130E+02  0.00000000000E+00 0. -1.
        -14    1    3    3    0    0 -0.26781878503E+02 -0.10883025104E+02  0.12384482216E+02  0.31449716236E+02  0.00000000000E+00 0.  1.
        -11    1    4    4    0    0 -0.44561066126E+02  0.36143172412E+02  0.34163696775E+02  0.66777059711E+02  0.00000000000E+00 0.  1.
         11    1    4    4    0    0 -0.14960897279E+02  0.16467457893E+02 -0.50408925039E+02  0.55100502180E+02  0.00000000000E+00 0. -1.
         -1    1    1    2    0  502  0.55632985938E+02 -0.93659617721E+02 -0.10425573354E+03  0.15078597777E+03  0.00000000000E+00 0.  1.
<scales pt_clust_5="13000.00000" pt_clust_6="13000.00000" pt_clust_7="13000.00000" pt_clust_8="13000.00000" pt_clust_9="99.03095"></scales>
<clustering>
<clus scale="   80.781">  5  6 -1 -1</clus>
<clus scale="   90.696">  1  5  2 -1</clus>
<clus scale="   90.992">  7  8 -1 -1</clus>
<clus scale="   99.031">  2  9  1 -1</clus>
<clus scale="   99.031">  2  5  1 -1</clus>
</clustering>
</event>
<event>
 9    1  0.6270443E-005  0.1232071E+03  0.7546771E-02  0.1241035E+00
          1   -1    0    0  502    0 -0.00000000000E+00  0.00000000000E+00  0.39688027765E+03  0.39688027765E+03  0.00000000000E+00 0. -1.
         21   -1    0    0  501  502  0.00000000000E+00 -0.00000000000E+00 -0.99219092683E+02  0.99219092683E+02  0.00000000000E+00 0. -1.
         23    2    1    2    0    0  0.60964563920E+02  0.39661175536E+02  0.21733912177E+03  0.24657338542E+03  0.90953029879E+02 0.  0.
        -24    2    1    2    0    0 -0.10042217142E+03 -0.31005532615E+02  0.13001501054E+03  0.18548527943E+03  0.80342581209E+02 0.  0.
         11    1    4    4    0    0 -0.41317418806E+02  0.24267552402E+02  0.28831662531E+02  0.55922338655E+02  0.00000000000E+00 0. -1.
        -12    1    4    4    0    0 -0.59104752614E+02 -0.55273085017E+02  0.10118334801E+03  0.12956294078E+03  0.00000000000E+00 0.  1.
        -13    1    3    3    0    0 -0.11390060720E+02  0.31245878527E+02  0.12281657408E+03  0.12723973152E+03  0.00000000000E+00 0.  1.
         13    1    3    3    0    0  0.72354624640E+02  0.84152970087E+01  0.94522547697E+02  0.11933365390E+03  0.00000000000E+00 0. -1.
          2    1    1    2  501    0  0.39457607500E+02 -0.86556429209E+01 -0.49692947340E+02  0.64040705487E+02  0.00000000000E+00 0. -1.
<scales pt_clust_5="13000.00000" pt_clust_6="13000.00000" pt_clust_7="13000.00000" pt_clust_8="13000.00000" pt_clust_9="40.39583"></scales>
<clustering>
<clus scale="   40.396">  2  9  1 -1</clus>
<clus scale="   80.343">  5  6 -1 -1</clus>
<clus scale="   90.953">  7  8 -1 -1</clus>
<clus scale="  115.596">  2  5  1 -1</clus>
<clus scale="   40.396">  2  5  1 -1</clus>
</clustering>
</event>
<event>
 9    1  0.6270443E-005  0.1437229E+03  0.7546771E-02  0.1211457E+00
         21   -1    0    0  501  502  0.00000000000E+00  0.00000000000E+00  0.75168668872E+02  0.75168668872E+02  0.00000000000E+00 0.  1.
          1   -1    0    0  502    0 -0.00000000000E+00 -0.00000000000E+00 -0.52146101566E+03  0.52146101566E+03  0.00000000000E+00 0. -1.
         23    2    1    2    0    0 -0.17128811114E+02 -0.10522575231E+03 -0.38224202264E+03  0.40840165978E+03  0.96525109270E+02 0.  0.
        -24    2    1    2    0    0  0.45910770839E+02  0.99013321247E+02 -0.75988118214E+02  0.15645529380E+03  0.82417402193E+02 0.  0.
         13    1    4    4    0    0 -0.19856900925E+02  0.49113030458E+02 -0.19622380977E+02  0.56492690769E+02  0.00000000000E+00 0. -1.
        -14    1    4    4    0    0  0.65767671764E+02  0.49900290789E+02 -0.56365737237E+02  0.99962603029E+02  0.00000000000E+00 0.  1.
        -11    1    3    3    0    0 -0.41599269347E+02 -0.21615033421E+02 -0.21249040079E+03  0.21760027415E+03  0.00000000000E+00 0. -1.
         11    1    3    3    0    0  0.24470458234E+02 -0.83610718890E+02 -0.16975162185E+03  0.19080138563E+03  0.00000000000E+00 0.  1.
          2    1    1    2  501    0 -0.28781959725E+02  0.62124310636E+01  0.11937794063E+02  0.31772730957E+02  0.00000000000E+00 0. -1.
<scales pt_clust_5="13000.00000" pt_clust_6="13000.00000" pt_clust_7="13000.00000" pt_clust_8="13000.00000" pt_clust_9="29.44479"></scales>
<clustering>
<clus scale="   29.445">  1  9  2 -1</clus>
<clus scale="   82.417">  5  6 -1 -1</clus>
<clus scale="   96.525">  7  8 -1 -1</clus>
<clus scale="  134.654">  1  5  2 -1</clus>
<clus scale="   29.445">  1  5  2 -1</clus>
</clustering>
</event>
<event>
 9    1  0.1203130E-004  0.2165785E+03  0.7546771E-02  0.1162034E+00
         -4   -1    0    0    0  501 -0.00000000000E+00  0.00000000000E+00  0.37150762619E+03  0.37150762619E+03  0.00000000000E+00 0.  1.
         21   -1    0    0  501  502  0.00000000000E+00 -0.00000000000E+00 -0.35760484325E+03  0.35760484325E+03  0.00000000000E+00 0. -1.
        -24    2    1    2    0    0  0.85084828906E+02 -0.18036816457E+02  0.94140057894E+02  0.15099028445E+03  0.79818297662E+02 0.  0.
         23    2    1    2    0    0 -0.10173942978E+03  0.17970788341E+03 -0.25444949349E+03  0.33986852455E+03  0.90112342709E+02 0.  0.
         13    1    3    3    0    0  0.83429864287E+02 -0.27718871131E+02  0.41097235279E+02  0.97045663578E+02  0.00000000000E+00 0. -1.
        -14    1    3    3    0    0  0.16549646186E+01  0.96820546733E+01  0.53042822615E+02  0.53944620877E+02  0.00000000000E+00 0.  1.
        -11    1    4    4    0    0 -0.61463135763E+02  0.16497660009E+03 -0.23266498105E+03  0.29176701158E+03  0.00000000000E+00 0. -1.
         11    1    4    4    0    0 -0.40276294020E+02  0.14731283319E+02 -0.21784512443E+02  0.48101512976E+02  0.00000000000E+00 0.  1.
         -3    1    1    2    0  502  0.16654600878E+02 -0.16167106696E+03  0.17421221854E+03  0.23825366044E+03  0.00000000000E+00 0.  1.
<scales pt_clust_5="13000.00000" pt_clust_6="13000.00000" pt_clust_7="13000.00000" pt_clust_8="13000.00000" pt_clust_9="196.94176"></scales>
<clustering>
<clus scale="   79.818">  5  6 -1 -1</clus>
<clus scale="   90.112">  7  8 -1 -1</clus>
<clus scale="  118.050">  1  5  2 -1</clus>
<clus scale="  196.942">  2  9  1 -1</clus>
<clus scale="  196.942">  2  5  1 -1</clus>
</clustering>
</event>
<event>
 9    1  0.6270443E-005  0.2080101E+03  0.7546771E-02  0.1144660E+00
         -2   -1    0    0    0  501 -0.00000000000E+00  0.00000000000E+00  0.60107886748E+03  0.60107886748E+03  0.00000000000E+00 0.  1.
         21   -1    0    0  501  502  0.00000000000E+00 -0.00000000000E+00 -0.11422164434E+03  0.11422164434E+03  0.00000000000E+00 0.  1.
         23    2    1    2    0    0  0.58714177087E+02 -0.14755299271E+03  0.20342450551E+03  0.27566255693E+03  0.96897242496E+02 0.  0.
        -24    2    1    2    0    0 -0.91339230474E+02  0.21335352984E+03  0.15087721476E+03  0.28809566332E+03  0.79828526035E+02 0.  0.
         13    1    4    4    0    0  0.76141969796E+00  0.27672131860E+02  0.50976794411E+02  0.58008277083E+02  0.00000000000E+00 0. -1.
        -14    1    4    4    0    0 -0.92100650172E+02  0.18568139798E+03  0.99900420353E+02  0.23008738624E+03  0.00000000000E+00 0.  1.
        -11    1    3    3    0    0  0.27420383151E+00 -0.63740147056E+02  0.14396734856E+03  0.15744674968E+03  0.00000000000E+00 0. -1.
         11    1    3    3    0    0  0.58439973256E+02 -0.83812845653E+02  0.59457156948E+02  0.11821580725E+03  0.00000000000E+00 0.  1.
         -1    1    1    2    0  502  0.32625053386E+02 -0.65800537133E+02  0.13255550287E+03  0.15154229157E+03  0.00000000000E+00 0.  1.
<scales pt_clust_5="13000.00000" pt_clust_6="13000.00000" pt_clust_7="13000.00000" pt_clust_8="13000.00000" pt_clust_9="73.44461"></scales>
<clustering>
<clus scale="   73.445">  2  9  1 -1</clus>
<clus scale="   79.829">  5  6 -1 -1</clus>
<clus scale="   96.897">  7  8 -1 -1</clus>
<clus scale="  200.628">  2  5  1 -1</clus>
<clus scale="   73.445">  2  5  1 -1</clus>
</clustering>
</event>
<event>
 9    1  0.6270443E-005  0.1466756E+03  0.7546771E-02  0.1206288E+00
         21   -1    0    0  501  502  0.00000000000E+00  0.00000000000E+00  0.14082492514E+03  0.14082492514E+03  0.00000000000E+00 0. -1.
          1   -1    0    0  502    0 -0.00000000000E+00 -0.00000000000E+00 -0.32737070681E+03  0.32737070681E+03  0.00000000000E+00 0. -1.
        -24    2    1    2    0    0 -0.10181258297E+03  0.49559147350E+02 -0.23906112931E+02  0.14111931966E+03  0.80754250716E+02 0.  0.
         23    2    1    2    0    0  0.13201395637E+03  0.37335968217E+02 -0.31382420829E+02  0.16679110027E+03  0.89513996625E+02 0.  0.
         13    1    3    3    0    0 -0.10302855383E+03  0.65757822025E+02 -0.16745576863E+02  0.12336688537E+03  0.00000000000E+00 0. -1.
        -14    1    3    3    0    0  0.12159708606E+01 -0.16198674675E+02 -0.71605360681E+01  0.17752434288E+02  0.00000000000E+00 0.  1.
        -13    1    4    4    0    0  0.77920436853E+02  0.25692985251E+02 -0.62653514921E+02  0.10323365199E+03  0.00000000000E+00 0.  1.
         13    1    4    4    0    0  0.54093519521E+02  0.11642982966E+02  0.31271094092E+02  0.63557448283E+02  0.00000000000E+00 0. -1.
          2    1    1    2  501    0 -0.30201373408E+02 -0.86895115566E+02 -0.13125724790E+03  0.16028521202E+03  0.00000000000E+00 0. -1.
<scales pt_clust_5="13000.00000" pt_clust_6="13000.00000" pt_clust_7="13000.00000" pt_clust_8="13000.00000" pt_clust_9="91.99398"></scales>
<clustering>
<clus scale="   80.754">  5  6 -1 -1</clus>
<clus scale="   89.514">  7  8 -1 -1</clus>
<clus scale="   91.994">  1  9  2 -1</clus>
<clus scale="  141.500">  2  5  1 -1</clus>
<clus scale="   91.994">  1  5  2 -1</clus>
</clustering>
</event>
<event>
 9    1  0.6270443E-005  0.1244091E+03  0.7546771E-02  0.1240178E+00
         21   -1    0    0  501  502  0.00000000000E+00  0.00000000000E+00  0.45884784727E+03  0.45884784727E+03  0.00000000000E+00 0. -1.
          1   -1    0    0  502    0 -0.00000000000E+00 -0.00000000000E+00 -0.44378050465E+02  0.44378050465E+02  0.00000000000E+00 0. -1.
         23    2    1    2    0    0  0.56287761623E+02  0.50381638253E+02  0.18472008712E+03  0.21923876523E+03  0.90760696408E+02 0.  0.
        -24    2    1    2    0    0 -0.45859111244E+02 -0.86872390604E+02  0.20108798826E+03  0.23642847366E+03  0.76237614092E+02 0.  0.
         11    1    4    4    0    0 -0.62288831544E+02 -0.71125426619E+02  0.12327495608E+03  0.15535584844E+03  0.00000000000E+00 0. -1.
        -12    1    4    4    0    0  0.16429720300E+02 -0.15746963985E+02  0.77813032184E+02  0.81072625229E+02  0.00000000000E+00 0.  1.
        -13    1    3    3    0    0  0.75476770494E+02  0.28154552631E+02  0.16572396829E+03  0.18426571951E+03  0.00000000000E+00 0. -1.
         13    1    3    3    0    0 -0.19189008871E+02  0.22227085622E+02  0.18996118825E+02  0.34973045723E+02  0.00000000000E+00 0.  1.
          2    1    1    2  501    0 -0.10428650379E+02  0.36490752351E+02  0.28661721427E+02  0.47558658843E+02  0.00000000000E+00 0. -1.
<scales pt_clust_5="13000.00000" pt_clust_6="13000.00000" pt_clust_7="13000.00000" pt_clust_8="13000.00000" pt_clust_9="37.95172"></scales>
<clustering>
<clus scale="   37.952">  1  9  2 -1</clus>
<clus scale="   76.238">  5  6 -1 -1</clus>
<clus scale="   90.761">  7  8 -1 -1</clus>
<clus scale="  114.247">  1  5  2 -1</clus>
<clus scale="   37.952">  1  5  2 -1</clus>
</clustering>
</event>
<event>
 9    1  0.6270443E-005  0.1802843E+03  0.7546771E-02  0.1168691E+00
          1   -1    0    0  502    0 -0.00000000000E+00  0.00000000000E+00  0.12101396237E+04  0.12101396237E+04  0.00000000000E+00 0. -1.
         21   -1    0    0  501  502  0.00000000000E+00 -0.00000000000E+00 -0.41176148657E+02  0.41176148657E+02  0.00000000000E+00 0.  1.
         23    2    1    2    0    0 -0.13104260164E+03  0.93521562747E+02  0.77603937451E+03  0.79772805546E+03  0.90633843247E+02 0.  0.
        -24    2    1    2    0    0  0.14564067046E+03 -0.41718099450E+02  0.31721175765E+03  0.36069497612E+03  0.80783425839E+02 0.  0.
         11    1    4    4    0    0  0.43572743894E+02 -0.29889665143E+02  0.43864747101E+02  0.68673809644E+02  0.00000000000E+00 0. -1.
        -12    1    4    4    0    0  0.10206792657E+03 -0.11828434307E+02  0.27334701055E+03  0.29202116648E+03  0.00000000000E+00 0.  1.
        -13    1    3    3    0    0 -0.68096733654E+02  0.80283195733E+02  0.62124143774E+03  0.63009799287E+03  0.00000000000E+00 0. -1.
         13    1    3    3    0    0 -0.62945867986E+02  0.13238367014E+02  0.15479793677E+03  0.16763006259E+03  0.00000000000E+00 0.  1.
          2    1    1    2  501    0 -0.14598068822E+02 -0.51803463298E+02  0.75712342850E+02  0.92892740743E+02  0.00000000000E+00 0. -1.
<scales pt_clust_5="13000.00000" pt_clust_6="13000.00000" pt_clust_7="13000.00000" pt_clust_8="13000.00000" pt_clust_9="53.82102"></scales>
<clustering>
<clus scale="   53.821">  2  9  1 -1</clus>
<clus scale="   80.783">  5  6 -1 -1</clus>
<clus scale="   90.634">  7  8 -1 -1</clus>
<clus scale="  175.539">  2  5  1 -1</clus>
<clus scale="   53.821">  2  5  1 -1</clus>
</clustering>
</event>
<event>
 9    1  0.6270443E-005  0.9820067E+02  0.7546771E-02  0.1285870E+00
         -2   -1    0    0    0  501 -0.00000000000E+00  0.00000000000E+00  0.61966117689E+02  0.61966117689E+02  0.00000000000E+00 0.  1.
         21   -1    0    0  501  502  0.00000000000E+00 -0.00000000000E+00 -0.64739976592E+03  0.64739976592E+03  0.00000000000E+00 0.  1.
        -24    2    1    2    0    0  0.50617083604E+02  0.24948608998E+01 -0.93012013112E+02  0.14005958843E+03  0.91635911320E+02 0.  0.
         23    2    1    2    0    0  0.48922919995E+02 -0.10104501131E+02 -0.44818999741E+03  0.46011583445E+03  0.91305828323E+02 0.  0.
         11    1    3    3    0    0  0.46088590448E+02  0.43457470806E+02 -0.52563186552E+02  0.82314023828E+02  0.00000000000E+00 0. -1.
        -12    1    3    3    0    0  0.45284931560E+01 -0.40962609907E+02 -0.40448826561E+02  0.57745564598E+02  0.00000000000E+00 0.  1.
        -13    1    4    4    0    0  0.35645913732E+01  0.36154559026E+02 -0.11214898218E+03  0.11788660931E+03  0.00000000000E+00 0. -1.
         13    1    4    4    0    0  0.45358328622E+02 -0.46259060157E+02 -0.33604101523E+03  0.34222922514E+03  0.00000000000E+00 0.  1.
         -1    1    1    2    0  502 -0.99540003599E+02  0.76096402315E+01 -0.44231637705E+02  0.10919046073E+03  0.00000000000E+00 0.  1.
<scales pt_clust_5="13000.00000" pt_clust_6="13000.00000" pt_clust_7="13000.00000" pt_clust_8="13000.00000" pt_clust_9="99.83050"></scales>
<clustering>
<clus scale="   91.306">  7  8 -1 -1</clus>
<clus scale="   91.636">  5  6 -1 -1</clus>
<clus scale="   99.831">  2  9  1 -1</clus>
<clus scale="   99.831">  2  7  1 -1</clus>
<clus scale="   98.201">  2  5  1 -1</clus>
</clustering>
</event>
<event>
 9    1  0.6270443E-005  0.1181998E+03  0.7546771E-02  0.1254564E+00
          1   -1    0    0  502    0 -0.00000000000E+00  0.00000000000E+00  0.15314245853E+03  0.15314245853E+03  0.00000000000E+00 0. -1.
         21   -1    0    0  501  502  0.00000000000E+00 -0.00000000000E+00 -0.20330825207E+03  0.20330825207E+03  0.00000000000E+00 0.  1.
         23    2    1    2    0    0  0.62663650049E+02  0.50821086251E+02 -0.31972628152E+01  0.99865073284E+02  0.58764738808E+02 0.  0.
        -24    2    1    2    0    0 -0.39257637113E+02  0.68957609689E+02 -0.69339044605E+02  0.13250817226E+03  0.80338027137E+02 0.  0.
         11    1    4    4    0    0 -0.35782727592E+02 -0.68070521549E+01 -0.29285069352E+02  0.46737082064E+02  0.00000000000E+00 0. -1.
        -12    1    4    4    0    0 -0.34749095215E+01  0.75764661844E+02 -0.40053975254E+02  0.85771090200E+02  0.00000000000E+00 0.  1.
        -13    1    3    3    0    0  0.45689381058E+02  0.70108850460E+01 -0.19450352362E+02  0.50149658599E+02  0.00000000000E+00 0.  1.
         13    1    3    3    0    0  0.16974268991E+02  0.43810201205E+02  0.16253089547E+02  0.49715414685E+02  0.00000000000E+00 0. -1.
          2    1    1    2  501    0 -0.23406012936E+02 -0.11977869594E+03  0.22370513872E+02  0.12407746505E+03  0.00000000000E+00 0. -1.
<scales pt_clust_5="13000.00000" pt_clust_6="13000.00000" pt_clust_7="13000.00000" pt_clust_8="13000.00000" pt_clust_9="86.70061"></scales>
<clustering>
<clus scale="   58.765">  7  8 -1 -1</clus>
<clus scale="   80.338">  5  6 -1 -1</clus>
<clus scale="   99.814">  1  7  2 -1</clus>
<clus scale="   86.701">  2  9  1 -1</clus>
<clus scale="   86.701">  2  5  1 -1</clus>
</clustering>
</event>
<event>
 9    1  0.6270443E-005  0.9436743E+02  0.7546771E-02  0.1300901E+00
         -4   -1    0    0    0  501 -0.00000000000E+00  0.00000000000E+00  0.11092143074E+03  0.11092143074E+03  0.00000000000E+00 0.  1.
         21   -1    0    0  501  502  0.00000000000E+00 -0.00000000000E+00 -0.45785720950E+03  0.45785720950E+03  0.00000000000E+00 0.  1.
        -24    2    1    2    0    0 -0.34890995605E+01  0.27628844282E+01  0.65829078104E+02  0.10421468905E+03  0.80668621807E+02 0.  0.
         23    2    1    2    0    0 -0.65711762423E+02 -0.26760086050E+02 -0.14454902978E+03  0.18652734409E+03  0.94148235015E+02 0.  0.
         11    1    3    3    0    0  0.32165541573E+02  0.22249291612E+02  0.23937231591E+02  0.45854597350E+02  0.00000000000E+00 0. -1.
        -12    1    3    3    0    0 -0.35654641134E+02 -0.19486407183E+02  0.41891846513E+02  0.58360091703E+02  0.00000000000E+00 0.  1.
        -13    1    4    4    0    0 -0.18289184352E+02 -0.21982608643E+02  0.54738692395E+01  0.29115160852E+02  0.00000000000E+00 0.  1.
         13    1    4    4    0    0 -0.47422578071E+02 -0.47774774077E+01 -0.15002289902E+03  0.15741218323E+03  0.00000000000E+00 0. -1.
         -3    1    1    2    0  502  0.69200861983E+02  0.23997201622E+02 -0.26821582709E+03  0.27803660710E+03  0.00000000000E+00 0.  1.
<scales pt_clust_5="13000.00000" pt_clust_6="13000.00000" pt_clust_7="13000.00000" pt_clust_8="13000.00000" pt_clust_9="73.24360"></scales>
<clustering>
<clus scale="   73.244">  2  9  1 -1</clus>
<clus scale="   80.669">  5  6 -1 -1</clus>
<clus scale="   80.924">  1  5  2 -1</clus>
<clus scale="   94.148">  7  8 -1 -1</clus>
<clus scale="   73.244">  2  5  1 -1</clus>
</clustering>
</event>
<event>
 9    1  0.6270443E-005  0.3606494E+03  0.7546771E-02  0.1058327E+00
         21   -1    0    0  501  502  0.00000000000E+00  0.00000000000E+00  0.19946768090E+03  0.19946768090E+03  0.00000000000E+00 0. -1.
          1   -1    0    0  502    0 -0.00000000000E+00 -0.00000000000E+00 -0.56332930663E+03  0.56332930663E+03  0.00000000000E+00 0. -1.
        -24    2    1    2    0    0 -0.17816400698E+03  0.18049202351E+02 -0.59884331963E+02  0.20570106361E+03  0.81600289644E+02 0.  0.
         23    2    1    2    0    0 -0.12592962550E+03  0.30729893113E+02 -0.10853277256E+03  0.19233449731E+03  0.91709319178E+02 0.  0.
         13    1    3    3    0    0 -0.15525417258E+03 -0.14561474468E+02 -0.55884611101E+02  0.16564716840E+03  0.00000000000E+00 0. -1.
        -14    1    3    3    0    0 -0.22909834398E+02  0.32610676818E+02 -0.39997208620E+01  0.40053895212E+02  0.00000000000E+00 0.  1.
        -13    1    4    4    0    0 -0.83832941474E+02  0.29708398459E+02 -0.15589601052E+02  0.90297213003E+02  0.00000000000E+00 0. -1.
         13    1    4    4    0    0 -0.42096684030E+02  0.10214946536E+01 -0.92943171511E+02  0.10203728430E+03  0.00000000000E+00 0.  1.
          2    1    1    2  501    0  0.30409363248E+03 -0.48779095464E+02 -0.19544452121E+03  0.36476142661E+03  0.00000000000E+00 0. -1.
<scales pt_clust_5="13000.00000" pt_clust_6="13000.00000" pt_clust_7="13000.00000" pt_clust_8="13000.00000" pt_clust_9="307.98122"></scales>
<clustering>
<clus scale="   81.600">  5  6 -1 -1</clus>
<clus scale="   91.709">  7  8 -1 -1</clus>
<clus scale="  106.235">  5  7 -1 -1</clus>
<clus scale="  307.981">  1  9  2 -1</clus>
<clus scale="  307.981">  1  5  2 -1</clus>
</clustering>
</event>
<event>
 9    1  0.6270443E-005  0.1208163E+03  0.7546771E-02  0.1256024E+00
         21   -1    0    0  501  502  0.00000000000E+00  0.00000000000E+00  0.48673168662E+02  0.48673168662E+02  0.00000000000E+00 0. -1.
          1   -1    0    0  502    0 -0.00000000000E+00 -0.00000000000E+00 -0.57836986341E+03  0.57836986341E+03  0.00000000000E+00 0. -1.
         23    2    1    2    0    0 -0.93071133971E+01  0.10965024241E+02 -0.99401544585E+02  0.13463262854E+03  0.89657255626E+02 0.  0.
        -24    2    1    2    0    0 -0.39916419277E+02  0.70324175793E+02 -0.35103328623E+03  0.36866334988E+03  0.78418666646E+02 0.  0.
         11    1    4    4    0    0 -0.57398329941E+02  0.46210330692E+02 -0.30544556614E+03  0.31420846076E+03  0.00000000000E+00 0. -1.
        -12    1    4    4    0    0  0.17481910663E+02  0.24113845100E+02 -0.45587720089E+02  0.54454889118E+02  0.00000000000E+00 0.  1.
        -11    1    3    3    0    0 -0.15367353175E+01  0.46558827162E+02 -0.27677288220E+02  0.54185959670E+02  0.00000000000E+00 0. -1.
         11    1    3    3    0    0 -0.77703780796E+01 -0.35593802920E+02 -0.71724256365E+02  0.80446668874E+02  0.00000000000E+00 0.  1.
          2    1    1    2  501    0  0.49223532674E+02 -0.81289200034E+02 -0.79261863935E+02  0.12374705364E+03  0.00000000000E+00 0. -1.
<scales pt_clust_5="13000.00000" pt_clust_6="13000.00000" pt_clust_7="13000.00000" pt_clust_8="13000.00000" pt_clust_9="91.90809"></scales>
<clustering>
<clus scale="   78.419">  5  6 -1 -1</clus>
<clus scale="   89.657">  7  8 -1 -1</clus>
<clus scale="   90.804">  2  7  1 -1</clus>
<clus scale="   91.908">  1  9  2 -1</clus>
<clus scale="   91.908">  1  5  2 -1</clus>
</clustering>
</event>
<event>
 9    1  0.6270443E-005  0.9657522E+02  0.7546771E-02  0.1295551E+00
         -4   -1    0    0    0  501 -0.00000000000E+00  0.00000000000E+00  0.10266208654E+03  0.10266208654E+03  0.00000000000E+00 0.  1.
         21   -1    0    0  501  502  0.00000000000E+00 -0.00000000000E+00 -0.14774480683E+03  0.14774480683E+03  0.00000000000E+00 0.  1.
        -24    2    1    2    0    0  0.21144525837E+02  0.12345608377E+02  0.21220882513E+02  0.83410559362E+02  0.76860201271E+02 0.  0.
         23    2    1    2    0    0 -0.34152956493E+02 -0.49047102071E+02 -0.67348768796E+02  0.12804365401E+03  0.91034488056E+02 0.  0.
         13    1    3    3    0    0  0.34040343264E+02 -0.23271968769E+02  0.19174223616E+02  0.45475051965E+02  0.00000000000E+00 0. -1.
        -14    1    3    3    0    0 -0.12895817427E+02  0.35617577146E+02  0.20466588967E+01  0.37935507397E+02  0.00000000000E+00 0.  1.
        -11    1    4    4    0    0  0.15136226318E+02 -0.47261484329E+02 -0.60498863784E+02  0.78248742912E+02  0.00000000000E+00 0.  1.
         11    1    4    4    0    0 -0.49289182811E+02 -0.17856177425E+01 -0.68499050124E+01  0.49794911101E+02  0.00000000000E+00 0. -1.
         -3    1    1    2    0  502  0.13008430656E+02  0.36701493694E+02  0.10451659926E+01  0.38952680004E+02  0.00000000000E+00 0.  1.
<scales pt_clust_5="13000.00000" pt_clust_6="13000.00000" pt_clust_7="13000.00000" pt_clust_8="13000.00000" pt_clust_9="38.93868"></scales>
<clustering>
<clus scale="   38.939">  2  9  1 -1</clus>
<clus scale="   76.860">  5  6 -1 -1</clus>
<clus scale="   83.349">  1  5  2 -1</clus>
<clus scale="   91.034">  7  8 -1 -1</clus>
<clus scale="   38.939">  2  5  1 -1</clus>
</clustering>
</event>
<event>
 9    1  0.6270443E-005  0.1229567E+03  0.7546771E-02  0.1242619E+00
          1   -1    0    0  502    0 -0.00000000000E+00  0.00000000000E+00  0.72370732968E+03  0.72370732968E+03  0.00000000000E+00 0. -1.
         21   -1    0    0  501  502  0.00000000000E+00 -0.00000000000E+00 -0.33139407793E+02  0.33139407793E+02  0.00000000000E+00 0.  1.
         23    2    1    2    0    0  0.71478687890E+02 -0.45279586263E+01  0.44369019960E+03  0.45918273012E+03  0.94117379827E+02 0.  0.
        -24    2    1    2    0    0 -0.92067117251E+02  0.19604526042E+02  0.24189834114E+03  0.27166438149E+03  0.80162567337E+02 0.  0.
         11    1    4    4    0    0 -0.82651157936E+02 -0.18237672286E+02  0.16662153278E+03  0.18688649439E+03  0.00000000000E+00 0. -1.
        -12    1    4    4    0    0 -0.94159593152E+01  0.37842198328E+02  0.75276808359E+02  0.84777887098E+02  0.00000000000E+00 0.  1.
        -11    1    3    3    0    0 -0.20551939095E+02  0.12936795289E+02  0.78532171763E+02  0.82201246187E+02  0.00000000000E+00 0. -1.
         11    1    3    3    0    0  0.92030626985E+02 -0.17464753916E+02  0.36515802784E+03  0.37698148393E+03  0.00000000000E+00 0.  1.
          2    1    1    2  501    0  0.20588429361E+02 -0.15076567416E+02  0.49793811443E+01  0.25999625866E+02  0.00000000000E+00 0. -1.
<scales pt_clust_5="13000.00000" pt_clust_6="13000.00000" pt_clust_7="13000.00000" pt_clust_8="13000.00000" pt_clust_9="25.51835"></scales>
<clustering>
<clus scale="   25.518">  2  9  1 -1</clus>
<clus scale="   80.163">  5  6 -1 -1</clus>
<clus scale="   94.117">  7  8 -1 -1</clus>
<clus scale="  112.633">  2  5  1 -1</clus>
<clus scale="   25.518">  2  5  1 -1</clus>
</clustering>
</event>
<event>
 9    1  0.6270443E-005  0.1278393E+03  0.7546771E-02  0.1234242E+00
          1   -1    0    0  502    0 -0.00000000000E+00  0.00000000000E+00  0.10271561671E+04  0.10271561671E+04  0.00000000000E+00 0. -1.
         21   -1    0    0  501  502  0.00000000000E+00 -0.00000000000E+00 -0.36939738065E+02  0.36939738065E+02  0.00000000000E+00 0.  1.
        -24    2    1    2    0    0 -0.78535361646E+02  0.10167259129E+03  0.34373946933E+03  0.37483482041E+03  0.76414664612E+02 0.  0.
         23    2    1    2    0    0  0.32286157480E+02 -0.34529285758E+02  0.12282897827E+03  0.15930408572E+03  0.89756149010E+02 0.  0.
         13    1    3    3    0    0 -0.29823133927E+02  0.94663566324E+02  0.20845347211E+03  0.23087542126E+03  0.00000000000E+00 0. -1.
        -14    1    3    3    0    0 -0.48712227719E+02  0.70090249667E+01  0.13528599722E+03  0.14395939915E+03  0.00000000000E+00 0.  1.
        -13    1    4    4    0    0 -0.23294661924E+02 -0.18692385684E+02  0.85343254839E+02  0.90418569460E+02  0.00000000000E+00 0. -1.
         13    1    4    4    0    0  0.55580819405E+02 -0.15836900074E+02  0.37485723434E+02  0.68885516265E+02  0.00000000000E+00 0.  1.
          2    1    1    2  501    0  0.46249204166E+02 -0.67143305532E+02  0.52364798141E+03  0.52995699901E+03  0.00000000000E+00 0. -1.
<scales pt_clust_5="13000.00000" pt_clust_6="13000.00000" pt_clust_7="13000.00000" pt_clust_8="13000.00000" pt_clust_9="81.53048"></scales>
<clustering>
<clus scale="   76.415">  5  6 -1 -1</clus>
<clus scale="   81.530">  2  9  1 -1</clus>
<clus scale="   89.756">  7  8 -1 -1</clus>
<clus scale="  118.852">  1  5  2 -1</clus>
<clus scale="   81.530">  2  5  1 -1</clus>
</clustering>
</event>
<event>
 9    1  0.6270443E-005  0.1584681E+03  0.7546771E-02  0.1219268E+00
          1   -1    0    0  502    0 -0.00000000000E+00  0.00000000000E+00  0.68102123809E+03  0.68102123809E+03  0.00000000000E+00 0. -1.
         21   -1    0    0  501  502  0.00000000000E+00 -0.00000000000E+00 -0.13050034205E+03  0.13050034205E+03  0.00000000000E+00 0. -1.
        -24    2    1    2    0    0 -0.30919677000E+02  0.10255990749E+02  0.39729361075E+03  0.40631628615E+03  0.78673372105E+02 0.  0.
         23    2    1    2    0    0 -0.80124794746E+02  0.26775002919E+01  0.22999536814E+03  0.26959007199E+03  0.11555858171E+03 0.  0.
         13    1    3    3    0    0  0.43782209793E+01  0.36118274657E+02  0.11405275788E+03  0.11971520440E+03  0.00000000000E+00 0. -1.
        -14    1    3    3    0    0 -0.35297897980E+02 -0.25862283908E+02  0.28324085286E+03  0.28660108175E+03  0.00000000000E+00 0.  1.
        -11    1    4    4    0    0  0.17752933737E+02 -0.23893869313E+02  0.18535407215E+02  0.35066293896E+02  0.00000000000E+00 0.  1.
         11    1    4    4    0    0 -0.97877728482E+02  0.26571369605E+02  0.21145996092E+03  0.23452377809E+03  0.00000000000E+00 0. -1.
          2    1    1    2  501    0  0.11104447175E+03 -0.12933491041E+02 -0.76768082839E+02  0.13561522200E+03  0.00000000000E+00 0. -1.
<scales pt_clust_5="13000.00000" pt_clust_6="13000.00000" pt_clust_7="13000.00000" pt_clust_8="13000.00000" pt_clust_9="108.43592"></scales>
<clustering>
<clus scale="   78.673">  5  6 -1 -1</clus>
<clus scale="   85.151">  1  5  2 -1</clus>
<clus scale="  108.436">  2  9  1 -1</clus>
<clus scale="  115.559">  7  8 -1 -1</clus>
<clus scale="  108.436">  2  5  1 -1</clus>
</clustering>
</event>
<event>
 9    1  0.6270443E-005  0.1170538E+03  0.7546771E-02  0.1251868E+00
         21   -1    0    0  501  502  0.00000000000E+00  0.00000000000E+00  0.76557655400E+02  0.76557655400E+02  0.00000000000E+00 0. -1.
          1   -1    0    0  502    0 -0.00000000000E+00 -0.00000000000E+00 -0.61015092200E+03  0.61015092200E+03  0.00000000000E+00 0. -1.
         23    2    1    2    0    0  0.24460511161E+02  0.57667725860E+02 -0.25068969588E+03  0.27394166305E+03  0.90966081160E+02 0.  0.
        -24    2    1    2    0    0 -0.49892501510E+02 -0.12096236034E+03 -0.36956646813E+02  0.15753586948E+03  0.79565080923E+02 0.  0.
         13    1    4    4    0    0  0.11064852769E+02 -0.69490306703E+02 -0.32829029353E+02  0.77647143287E+02  0.00000000000E+00 0. -1.
        -14    1    4    4    0    0 -0.60957354279E+02 -0.51472053639E+02 -0.41276174600E+01  0.79888726191E+02  0.00000000000E+00 0.  1.
        -11    1    3    3    0    0  0.49056518603E+02  0.17029410507E+02 -0.18945362576E+03  0.19644138859E+03  0.00000000000E+00 0.  1.
         11    1    3    3    0    0 -0.24596007442E+02  0.40638315354E+02 -0.61236070126E+02  0.77500274460E+02  0.00000000000E+00 0. -1.
          2    1    1    2  501    0  0.25431990349E+02  0.63294634481E+02 -0.24594692390E+03  0.25523104487E+03  0.00000000000E+00 0. -1.
<scales pt_clust_5="13000.00000" pt_clust_6="13000.00000" pt_clust_7="13000.00000" pt_clust_8="13000.00000" pt_clust_9="68.21291"></scales>
<clustering>
<clus scale="   68.213">  1  9  2 -1</clus>
<clus scale="   79.565">  5  6 -1 -1</clus>
<clus scale="   90.966">  7  8 -1 -1</clus>
<clus scale="  108.431">  1  5  2 -1</clus>
<clus scale="   68.213">  1  5  2 -1</clus>
</clustering>
</event>
<event>
 9    1  0.6270443E-005  0.1212345E+03  0.7546771E-02  0.1245054E+00
         21   -1    0    0  501  502  0.00000000000E+00  0.00000000000E+00  0.54584053062E+02  0.54584053062E+02  0.00000000000E+00 0.  1.
          1   -1    0    0  502    0 -0.00000000000E+00 -0.00000000000E+00 -0.48229073852E+03  0.48229073852E+03  0.00000000000E+00 0. -1.
         23    2    1    2    0    0 -0.47949391594E+02 -0.25639831866E+01 -0.81604098171E+02  0.13337113571E+03  0.93930361638E+02 0.  0.
        -24    2    1    2    0    0  0.10395396665E+03  0.38284485203E+01 -0.15164887112E+03  0.20114170533E+03  0.81483257848E+02 0.  0.
         11    1    4    4    0    0  0.52230664076E+02 -0.23084881684E+02 -0.26247600006E+02  0.62848154613E+02  0.00000000000E+00 0. -1.
        -12    1    4    4    0    0  0.51723302569E+02  0.26913330204E+02 -0.12540127111E+03  0.13829355071E+03  0.00000000000E+00 0.  1.
        -13    1    3    3    0    0 -0.72102518891E+02  0.15090869765E+02 -0.45921896487E+02  0.86806267963E+02  0.00000000000E+00 0.  1.
         13    1    3    3    0    0  0.24153127297E+02 -0.17654852952E+02 -0.35682201684E+02  0.46564867744E+02  0.00000000000E+00 0. -1.
          2    1    1    2  501    0 -0.56004575052E+02 -0.12644653337E+01 -0.19445371616E+03  0.20236195055E+03  0.00000000000E+00 0. -1.
<scales pt_clust_5="13000.00000" pt_clust_6="13000.00000" pt_clust_7="13000.00000" pt_clust_8="13000.00000" pt_clust_9="56.01888"></scales>
<clustering>
<clus scale="   56.019">  1  9  2 -1</clus>
<clus scale="   81.483">  5  6 -1 -1</clus>
<clus scale="   93.930">  7  8 -1 -1</clus>
<clus scale="  111.868">  1  5  2 -1</clus>
<clus scale="   56.019">  1  5  2 -1</clus>
</clustering>
</event>
<event>
 9    1  0.6270443E-005  0.2700151E+03  0.7546771E-02  0.1101271E+00
         21   -1    0    0  501  502  0.00000000000E+00  0.00000000000E+00  0.82436224284E+03  0.82436224284E+03  0.00000000000E+00 0. -1.
          1   -1    0    0  502    0 -0.00000000000E+00 -0.00000000000E+00 -0.10721327620E+03  0.10721327620E+03  0.00000000000E+00 0. -1.
        -24    2    1    2    0    0 -0.41805836545E+02 -0.67892736765E+02  0.68300305145E+02  0.13392932888E+03  0.83156369428E+02 0.  0.
         23    2    1    2    0    0  0.93556839904E+01 -0.12193594203E+03  0.36470323023E+02  0.15569979901E+03  0.89198879854E+02 0.  0.
         11    1    3    3    0    0 -0.92099876188E+01 -0.79527999674E+02  0.53483327820E+02  0.96280802649E+02  0.00000000000E+00 0. -1.
        -12    1    3    3    0    0 -0.32595848926E+02  0.11635262910E+02  0.14816977324E+02  0.37648526229E+02  0.00000000000E+00 0.  1.
        -13    1    4    4    0    0  0.48307690129E+02 -0.80861098904E+02  0.16215004523E+02  0.95577594724E+02  0.00000000000E+00 0.  1.
         13    1    4    4    0    0 -0.38952006139E+02 -0.41074843127E+02  0.20255318500E+02  0.60122204281E+02  0.00000000000E+00 0. -1.
          2    1    1    2  501    0  0.32450152554E+02  0.18982867880E+03  0.61237833847E+03  0.64194639116E+03  0.00000000000E+00 0. -1.
<scales pt_clust_5="13000.00000" pt_clust_6="13000.00000" pt_clust_7="13000.00000" pt_clust_8="13000.00000" pt_clust_9="192.58229"></scales>
<clustering>
<clus scale="   83.156">  5  6 -1 -1</clus>
<clus scale="   89.199">  7  8 -1 -1</clus>
<clus scale="  104.511">  5  7 -1 -1</clus>
<clus scale="  192.582">  1  9  2 -1</clus>
<clus scale="  192.582">  1  5  2 -1</clus>
</clustering>
</event>
<event>
 9    1  0.6270443E-005  0.4144962E+03  0.7546771E-02  0.1039067E+00
          3   -1    0    0  502    0 -0.00000000000E+00  0.00000000000E+00  0.10054167085E+04  0.10054167085E+04  0.00000000000E+00 0. -1.
         21   -1    0    0  501  502  0.00000000000E+00 -0.00000000000E+00 -0.42082378323E+03  0.42082378323E+03  0.00000000000E+00 0.  1.
         23    2    1    2    0    0  0.35886175454E+03 -0.20044630434E+03  0.60449106946E+03  0.73678015192E+03  0.92060085858E+02 0.  0.
        -24    2    1    2    0    0 -0.32132822948E+03  0.22610551274E+03  0.21160910441E+03  0.45353076001E+03  0.80846788766E+02 0.  0.
         11    1    4    4    0    0 -0.32239242500E+02  0.23119041701E+02  0.53295944022E+02  0.66440322812E+02  0.00000000000E+00 0. -1.
        -12    1    4    4    0    0 -0.28908898698E+03  0.20298647104E+03  0.15831316039E+03  0.38709043720E+03  0.00000000000E+00 0.  1.
        -13    1    3    3    0    0  0.19278041520E+03 -0.58432939919E+02  0.31858826225E+03  0.37693126402E+03  0.00000000000E+00 0.  1.
         13    1    3    3    0    0  0.16608133934E+03 -0.14201336442E+03  0.28590280721E+03  0.35984888790E+03  0.00000000000E+00 0. -1.
          4    1    1    2  501    0 -0.37533525060E+02 -0.25659208404E+02 -0.23150724859E+03  0.23592957981E+03  0.00000000000E+00 0. -1.
<scales pt_clust_5="13000.00000" pt_clust_6="13000.00000" pt_clust_7="13000.00000" pt_clust_8="13000.00000" pt_clust_9="45.46604"></scales>
<clustering>
<clus scale="   45.466">  2  9  1 -1</clus>
<clus scale="   80.847">  5  6 -1 -1</clus>
<clus scale="   92.060">  7  8 -1 -1</clus>
<clus scale="  412.151">  2  5  1 -1</clus>
<clus scale="   45.466">  2  5  1 -1</clus>
</clustering>
</event>
<event>
 9    1  0.6270443E-005  0.2293999E+03  0.7546771E-02  0.1127798E+00
          1   -1    0    0  502    0 -0.00000000000E+00  0.00000000000E+00  0.24257655461E+03  0.24257655461E+03  0.00000000000E+00 0. -1.
         21   -1    0    0  501  502  0.00000000000E+00 -0.00000000000E+00 -0.57868231877E+03  0.57868231877E+03  0.00000000000E+00 0.  1.
         23    2    1    2    0    0 -0.21326196489E+03 -0.47437883271E+02  0.14521908711E+03  0.27774882691E+03  0.91240392090E+02 0.  0.
        -24    2    1    2    0    0  0.16838820339E+03  0.35307028769E+02 -0.29006491891E+03  0.34668226939E+03  0.80310431506E+02 0.  0.
         13    1    4    4    0    0  0.93829466064E+02 -0.20734779860E+02 -0.13454216074E+03  0.16533448767E+03  0.00000000000E+00 0. -1.
        -14    1    4    4    0    0  0.74558737322E+02  0.56041808630E+02 -0.15552275817E+03  0.18134778172E+03  0.00000000000E+00 0.  1.
        -11    1    3    3    0    0 -0.92306746973E+02 -0.26764096284E+02  0.11776694951E+03  0.15200627218E+03  0.00000000000E+00 0.  1.
         11    1    3    3    0    0 -0.12095521792E+03 -0.20673786987E+02  0.27452137606E+02  0.12574255472E+03  0.00000000000E+00 0. -1.
          2    1    1    2  501    0  0.44873761502E+02  0.12130854502E+02 -0.19125993237E+03  0.19682777708E+03  0.00000000000E+00 0. -1.
<scales pt_clust_5="13000.00000" pt_clust_6="13000.00000" pt_clust_7="13000.00000" pt_clust_8="13000.00000" pt_clust_9="46.48454"></scales>
<clustering>
<clus scale="   46.485">  2  9  1 -1</clus>
<clus scale="   80.310">  5  6 -1 -1</clus>
<clus scale="   91.240">  7  8 -1 -1</clus>
<clus scale="  225.276">  2  5  1 -1</clus>
<clus scale="   46.485">  2  5  1 -1</clus>
</clustering>
</event>
<event>
 9    1  0.6270443E-005  0.9438792E+02  0.7546771E-02  0.1298895E+00
          1   -1    0    0  502    0 -0.00000000000E+00  0.00000000000E+00  0.34152162703E+03  0.34152162703E+03  0.00000000000E+00 0. -1.
         21   -1    0    0  501  502  0.00000000000E+00 -0.00000000000E+00 -0.72511367626E+02  0.72511367626E+02  0.00000000000E+00 0.  1.
         23    2    1    2    0    0  0.44377510515E+01  0.13754227691E+02  0.14377650674E+03  0.17103010487E+03  0.91491750829E+02 0.  0.
        -24    2    1    2    0    0 -0.37826600675E+01 -0.59387684397E+02 -0.95720194559E+01  0.10068129018E+03  0.80646717609E+02 0.  0.
         11    1    4    4    0    0 -0.13111449004E+02 -0.15984007916E+02  0.33150534008E+02  0.39068612838E+02  0.00000000000E+00 0. -1.
        -12    1    4    4    0    0  0.93287889360E+01 -0.43403676480E+02 -0.42722553464E+02  0.61612677344E+02  0.00000000000E+00 0.  1.
        -13    1    3    3    0    0  0.15939560653E+02  0.45360477869E+02  0.12155512130E+03  0.13071836161E+03  0.00000000000E+00 0.  1.
         13    1    3    3    0    0 -0.11501809601E+02 -0.31606250179E+02  0.22221385431E+02  0.40311743264E+02  0.00000000000E+00 0. -1.
          2    1    1    2  501    0 -0.65509098394E+00  0.45633456706E+02  0.13480577212E+03  0.14232159960E+03  0.00000000000E+00 0. -1.
<scales pt_clust_5="13000.00000" pt_clust_6="13000.00000" pt_clust_7="13000.00000" pt_clust_8="13000.00000" pt_clust_9="45.63818"></scales>
<clustering>
<clus scale="   45.638">  2  9  1 -1</clus>
<clus scale="   80.647">  5  6 -1 -1</clus>
<clus scale="   83.918">  2  5  1 -1</clus>
<clus scale="   91.492">  7  8 -1 -1</clus>
<clus scale="   45.638">  2  5  1 -1</clus>
</clustering>
</event>
<event>
 9    1  0.6270443E-005  0.1403364E+03  0.7546771E-02  0.1227641E+00
          1   -1    0    0  502    0 -0.00000000000E+00  0.00000000000E+00  0.67371134287E+03  0.67371134287E+03  0.00000000000E+00 0. -1.
         21   -1    0    0  501  502  0.00000000000E+00 -0.00000000000E+00 -0.80028283528E+02  0.80028283528E+02  0.00000000000E+00 0. -1.
        -24    2    1    2    0    0  0.61599342598E+02 -0.19805044461E+02  0.16520483256E+03  0.19465247306E+03  0.80063910556E+02 0.  0.
         23    2    1    2    0    0  0.50962778878E+02  0.18006496968E+01  0.43263174245E+03  0.44501857258E+03  0.90944258759E+02 0.  0.
         13    1    3    3    0    0  0.62717677920E+02 -0.13227661374E+02  0.17294075746E+03  0.18443693703E+03  0.00000000000E+00 0. -1.
        -14    1    3    3    0    0 -0.11183353214E+01 -0.65773830872E+01 -0.77359249079E+01  0.10215536028E+02  0.00000000000E+00 0.  1.
        -13    1    4    4    0    0 -0.11022545135E+02 -0.23533346223E+02  0.47827620199E+02  0.54431573003E+02  0.00000000000E+00 0.  1.
         13    1    4    4    0    0  0.61985324013E+02  0.25333995919E+02  0.38480412225E+03  0.39058699958E+03  0.00000000000E+00 0. -1.
          2    1    1    2  501    0 -0.11256212148E+03  0.18004394764E+02 -0.41535156651E+01  0.11406858075E+03  0.00000000000E+00 0. -1.
<scales pt_clust_5="13000.00000" pt_clust_6="13000.00000" pt_clust_7="13000.00000" pt_clust_8="13000.00000" pt_clust_9="106.88049"></scales>
<clustering>
<clus scale="   80.064">  5  6 -1 -1</clus>
<clus scale="   90.944">  7  8 -1 -1</clus>
<clus scale="  102.941">  1  5  2 -1</clus>
<clus scale="  106.880">  2  9  1 -1</clus>
<clus scale="  106.880">  2  5  1 -1</clus>
</clustering>
</event>
<event>
 9    1  0.6270443E-005  0.9132705E+02  0.7546771E-02  0.1304795E+00
         -2   -1    0    0    0  501 -0.00000000000E+00  0.00000000000E+00  0.37809254501E+02  0.37809254501E+02  0.00000000000E+00 0.  1.
         21   -1    0    0  501  502  0.00000000000E+00 -0.00000000000E+00 -0.53985966242E+03  0.53985966242E+03  0.00000000000E+00 0. -1.
        -24    2    1    2    0    0 -0.20707768455E+02 -0.58811463194E+01 -0.86059438144E+02  0.11970852990E+03  0.80377270920E+02 0.  0.
         23    2    1    2    0    0 -0.25475573648E+02  0.60172979110E+02 -0.31950234182E+03  0.33799972880E+03  0.88838493766E+02 0.  0.
         11    1    3    3    0    0 -0.37366134281E+02  0.19283348749E+02 -0.77774116442E+02  0.88413170503E+02  0.00000000000E+00 0. -1.
        -12    1    3    3    0    0  0.16658365826E+02 -0.25164495069E+02 -0.82853217022E+01  0.31295359396E+02  0.00000000000E+00 0.  1.
        -11    1    4    4    0    0  0.30879420130E+02  0.39395451463E+02 -0.13612328040E+03  0.14503478083E+03  0.00000000000E+00 0. -1.
         11    1    4    4    0    0 -0.56354993778E+02  0.20777527647E+02 -0.18337906142E+03  0.19296494797E+03  0.00000000000E+00 0.  1.
         -1    1    1    2    0  502  0.46183342103E+02 -0.54291832790E+02 -0.96488627957E+02  0.11996065822E+03  0.00000000000E+00 0.  1.
<scales pt_clust_5="13000.00000" pt_clust_6="13000.00000" pt_clust_7="13000.00000" pt_clust_8="13000.00000" pt_clust_9="71.27769"></scales>
<clustering>
<clus scale="   71.278">  2  9  1 -1</clus>
<clus scale="   80.377">  5  6 -1 -1</clus>
<clus scale="   83.120">  1  5  2 -1</clus>
<clus scale="   88.838">  7  8 -1 -1</clus>
<clus scale="   71.278">  2  5  1 -1</clus>
</clustering>
</event>
<event>
 9    1  0.6270443E-005  0.3382130E+03  0.7546771E-02  0.1067763E+00
         21   -1    0    0  501  502  0.00000000000E+00  0.00000000000E+00  0.21335125985E+03  0.21335125985E+03  0.00000000000E+00 0. -1.
          1   -1    0    0  502    0 -0.00000000000E+00 -0.00000000000E+00 -0.11306012604E+04  0.11306012604E+04  0.00000000000E+00 0. -1.
        -24    2    1    2    0    0 -0.35050927256E+03  0.59061220402E+02 -0.23538139463E+03  0.43355585172E+03  0.78875203452E+02 0.  0.
         23    2    1    2    0    0  0.28144521440E+03 -0.94615106564E+02 -0.10248277877E+03  0.32582686119E+03  0.86585197504E+02 0.  0.
         13    1    3    3    0    0 -0.28211752415E+03  0.36498820390E+02 -0.14912167406E+03  0.32118489223E+03  0.00000000000E+00 0. -1.
        -14    1    3    3    0    0 -0.68391748415E+02  0.22562400013E+02 -0.86259720570E+02  0.11237095950E+03  0.00000000000E+00 0.  1.
        -11    1    4    4    0    0  0.24184344176E+03 -0.47021835917E+02 -0.92226586576E+02  0.26306852082E+03  0.00000000000E+00 0.  1.
         11    1    4    4    0    0  0.39601772640E+02 -0.47593270646E+02 -0.10256192196E+02  0.62758340365E+02  0.00000000000E+00 0. -1.
          2    1    1    2  501    0  0.69064058161E+02  0.35553886161E+02 -0.57938582711E+03  0.58456980730E+03  0.00000000000E+00 0. -1.
<scales pt_clust_5="13000.00000" pt_clust_6="13000.00000" pt_clust_7="13000.00000" pt_clust_8="13000.00000" pt_clust_9="77.67837"></scales>
<clustering>
<clus scale="   77.678">  1  9  2 -1</clus>
<clus scale="   78.875">  5  6 -1 -1</clus>
<clus scale="   86.585">  7  8 -1 -1</clus>
<clus scale="  336.322">  2  5  1 -1</clus>
<clus scale="   77.678">  1  5  2 -1</clus>
</clustering>
</event>
<event>
 9    1  0.6270443E-005  0.9575641E+02  0.7546771E-02  0.1293544E+00
          3   -1    0    0  502    0 -0.00000000000E+00  0.00000000000E+00  0.40166633182E+03  0.40166633182E+03  0.00000000000E+00 0. -1.
         21   -1    0    0  501  502  0.00000000000E+00 -0.00000000000E+00 -0.11382803158E+03  0.11382803158E+03  0.00000000000E+00 0. -1.
         23    2    1    2    0    0  0.32314531134E+02  0.16167760665E+02  0.33032134469E+03  0.34395597470E+03  0.88813829816E+02 0.  0.
        -24    2    1    2    0    0 -0.41216497862E+02  0.15578116489E+02 -0.79552785498E+02  0.12192779075E+03  0.81217381551E+02 0.  0.
         11    1    4    4    0    0 -0.90926555056E+01  0.45638813620E+02 -0.28653376057E+02  0.54649736067E+02  0.00000000000E+00 0. -1.
        -12    1    4    4    0    0 -0.32123842357E+02 -0.30060697131E+02 -0.50899409442E+02  0.67278054678E+02  0.00000000000E+00 0.  1.
        -13    1    3    3    0    0  0.22477582219E+02 -0.28688866613E+02  0.63534874979E+02  0.73245976740E+02  0.00000000000E+00 0.  1.
         13    1    3    3    0    0  0.98369489145E+01  0.44856627278E+02  0.26678646971E+03  0.27070999796E+03  0.00000000000E+00 0. -1.
          4    1    1    2  501    0  0.89019667284E+01 -0.31745877154E+02  0.37069741043E+02  0.49610597950E+02  0.00000000000E+00 0. -1.
<scales pt_clust_5="13000.00000" pt_clust_6="13000.00000" pt_clust_7="13000.00000" pt_clust_8="13000.00000" pt_clust_9="32.97039"></scales>
<clustering>
<clus scale="   32.970">  2  9  1 -1</clus>
<clus scale="   81.217">  5  6 -1 -1</clus>
<clus scale="   88.756">  2  5  1 -1</clus>
<clus scale="   88.814">  7  8 -1 -1</clus>
<clus scale="   32.970">  2  5  1 -1</clus>
</clustering>
</event>
<event>
 9    1  0.6270443E-005  0.9955539E+02  0.7546771E-02  0.1285738E+00
         -2   -1    0    0    0  501 -0.00000000000E+00  0.00000000000E+00  0.57227407801E+02  0.57227407801E+02  0.00000000000E+00 0.  1.
         21   -1    0    0  501  502  0.00000000000E+00 -0.00000000000E+00 -0.26501363141E+03  0.26501363141E+03  0.00000000000E+00 0. -1.
         23    2    1    2    0    0 -0.24213789820E+01 -0.41505261925E+02 -0.28428112703E+02  0.10341404155E+03  0.90320299794E+02 0.  0.
        -24    2    1    2    0    0 -0.18241924257E+02  0.42507659847E+02 -0.17387558802E+03  0.19742524634E+03  0.81267083361E+02 0.  0.
         13    1    4    4    0    0 -0.99321433065E+01  0.36204905612E+02 -0.18096243275E+03  0.18481570477E+03  0.00000000000E+00 0. -1.
        -14    1    4    4    0    0 -0.83097809502E+01  0.63027542351E+01  0.70868447349E+01  0.12609541573E+02  0.00000000000E+00 0.  1.
        -11    1    3    3    0    0 -0.40940109300E+02  0.13694084357E+01 -0.52749343498E+01  0.41301244066E+02  0.00000000000E+00 0. -1.
         11    1    3    3    0    0  0.38518730318E+02 -0.42874670361E+02 -0.23153178354E+02  0.62112797488E+02  0.00000000000E+00 0.  1.
         -1    1    1    2    0  502  0.20663303239E+02 -0.10023979220E+01 -0.54825228909E+01  0.21401751320E+02  0.00000000000E+00 0.  1.
<scales pt_clust_5="13000.00000" pt_clust_6="13000.00000" pt_clust_7="13000.00000" pt_clust_8="13000.00000" pt_clust_9="20.68761"></scales>
<clustering>
<clus scale="   20.688">  2  9  1 -1</clus>
<clus scale="   81.267">  5  6 -1 -1</clus>
<clus scale="   90.320">  7  8 -1 -1</clus>
<clus scale="   91.421">  2  5  1 -1</clus>
<clus scale="   20.688">  2  5  1 -1</clus>
</clustering>
</event>
<event>
 9    1  0.6270443E-005  0.1094567E+03  0.7546771E-02  0.1261753E+00
         21   -1    0    0  501  502  0.00000000000E+00  0.00000000000E+00  0.39718312480E+02  0.39718312480E+02  0.00000000000E+00 0.  1.
         -2   -1    0    0    0  501 -0.00000000000E+00 -0.00000000000E+00 -0.40556950518E+03  0.40556950518E+03  0.00000000000E+00 0.  1.
        -24    2    1    2    0    0  0.13577470494E+02 -0.71802114324E+02 -0.16407850160E+03  0.19981483539E+03  0.87546116021E+02 0.  0.
         23    2    1    2    0    0  0.76028480829E+01  0.58651028105E+02 -0.11828330440E+03  0.15834069975E+03  0.87080943394E+02 0.  0.
         11    1    3    3    0    0  0.83869122821E+01 -0.18858214654E+02  0.60948564084E+01  0.21520219149E+02  0.00000000000E+00 0. -1.
        -12    1    3    3    0    0  0.51905582115E+01 -0.52943899670E+02 -0.17017335801E+03  0.17829461625E+03  0.00000000000E+00 0.  1.
        -13    1    4    4    0    0  0.43038911179E+02  0.53921453726E+02 -0.85206957057E+02  0.10963620104E+03  0.00000000000E+00 0. -1.
         13    1    4    4    0    0 -0.35436063096E+02  0.47295743796E+01 -0.33076347341E+02  0.48704498714E+02  0.00000000000E+00 0.  1.
         -1    1    1    2    0  502 -0.21180318577E+02  0.13151086219E+02 -0.83489386708E+02  0.87132282517E+02  0.00000000000E+00 0.  1.
<scales pt_clust_5="13000.00000" pt_clust_6="13000.00000" pt_clust_7="13000.00000" pt_clust_8="13000.00000" pt_clust_9="24.93106"></scales>
<clustering>
<clus scale="   24.931">  1  9  2 -1</clus>
<clus scale="   87.081">  7  8 -1 -1</clus>
<clus scale="   87.546">  5  6 -1 -1</clus>
<clus scale="  109.085">  1  7  2 -1</clus>
<clus scale="   24.931">  1  5  2 -1</clus>
</clustering>
</event>
<event>
 9    1  0.6270443E-005  0.9502974E+02  0.7546771E-02  0.1296723E+00
         -2   -1    0    0    0  501 -0.00000000000E+00  0.00000000000E+00  0.23939830708E+03  0.23939830708E+03  0.00000000000E+00 0.  1.
         21   -1    0    0  501  502  0.00000000000E+00 -0.00000000000E+00 -0.98330284215E+02  0.98330284215E+02  0.00000000000E+00 0. -1.
         23    2    1    2    0    0  0.20958474465E+02  0.22793622529E+02  0.15581858278E+03  0.18282644386E+03  0.90483539700E+02 0.  0.
        -24    2    1    2    0    0 -0.88283421191E+00 -0.21959811686E+02 -0.61723476775E+02  0.10381221211E+03  0.80524375647E+02 0.  0.
         13    1    4    4    0    0  0.39288034958E+02 -0.58095150430E+01 -0.34973691857E+02  0.52919365813E+02  0.00000000000E+00 0. -1.
        -14    1    4    4    0    0 -0.40170869170E+02 -0.16150296643E+02 -0.26749784918E+02  0.50892846302E+02  0.00000000000E+00 0.  1.
        -11    1    3    3    0    0  0.55339128304E+02  0.24674399364E+01  0.83304552720E+02  0.10004077111E+03  0.00000000000E+00 0.  1.
         11    1    3    3    0    0 -0.34380653838E+02  0.20326182593E+02  0.72514030057E+02  0.82785672748E+02  0.00000000000E+00 0. -1.
         -1    1    1    2    0  502 -0.20075640253E+02 -0.83381084320E+00  0.46972916863E+02  0.51089935318E+02  0.00000000000E+00 0.  1.
<scales pt_clust_5="13000.00000" pt_clust_6="13000.00000" pt_clust_7="13000.00000" pt_clust_8="13000.00000" pt_clust_9="20.09296"></scales>
<clustering>
<clus scale="   20.093">  2  9  1 -1</clus>
<clus scale="   80.524">  5  6 -1 -1</clus>
<clus scale="   85.601">  2  5  1 -1</clus>
<clus scale="   90.484">  7  8 -1 -1</clus>
<clus scale="   20.093">  2  5  1 -1</clus>
</clustering>
</event>
<event>
 9    1  0.6270443E-005  0.1545321E+03  0.7546771E-02  0.1197034E+00
         -4   -1    0    0    0  501 -0.00000000000E+00  0.00000000000E+00  0.36133050188E+03  0.36133050188E+03  0.00000000000E+00 0.  1.
         21   -1    0    0  501  502  0.00000000000E+00 -0.00000000000E+00 -0.24643884888E+03  0.24643884888E+03  0.00000000000E+00 0. -1.
        -24    2    1    2    0    0 -0.89384053650E+02  0.70741527985E+02  0.21043233915E+03  0.25177948147E+03  0.78212947135E+02 0.  0.
         23    2    1    2    0    0  0.15926802513E+03 -0.68098538810E+02  0.43739467592E+02  0.20013828576E+03  0.90213511111E+02 0.  0.
         13    1    3    3    0    0 -0.73472776719E+02  0.57991950600E+02  0.90747501580E+02  0.13037033519E+03  0.00000000000E+00 0. -1.
        -14    1    3    3    0    0 -0.15911276931E+02  0.12749577385E+02  0.11968483757E+03  0.12140914628E+03  0.00000000000E+00 0.  1.
        -13    1    4    4    0    0  0.10846729840E+03 -0.80864671157E+02  0.55864315372E+02  0.14637305625E+03  0.00000000000E+00 0. -1.
         13    1    4    4    0    0  0.50800726725E+02  0.12766132347E+02 -0.12124847780E+02  0.53765229513E+02  0.00000000000E+00 0.  1.
         -3    1    1    2    0  502 -0.69883971476E+02 -0.26429891747E+01 -0.13928015374E+03  0.15585158352E+03  0.00000000000E+00 0.  1.
<scales pt_clust_5="13000.00000" pt_clust_6="13000.00000" pt_clust_7="13000.00000" pt_clust_8="13000.00000" pt_clust_9="69.93393"></scales>
<clustering>
<clus scale="   69.934">  2  9  1 -1</clus>
<clus scale="   78.213">  5  6 -1 -1</clus>
<clus scale="   90.214">  7  8 -1 -1</clus>
<clus scale="  147.848">  1  5  2 -1</clus>
<clus scale="   69.934">  2  5  1 -1</clus>
</clustering>
</event>
<event>
 9    1  0.6270443E-005  0.1006928E+03  0.7546771E-02  0.1284657E+00
          1   -1    0    0  502    0 -0.00000000000E+00  0.00000000000E+00  0.43834767076E+02  0.43834767076E+02  0.00000000000E+00 0. -1.
         21   -1    0    0  501  502  0.00000000000E+00 -0.00000000000E+00 -0.45571309565E+03  0.45571309565E+03  0.00000000000E+00 0. -1.
         23    2    1    2    0    0 -0.36826585893E+02  0.35750298209E+02 -0.75775369587E+02  0.12852652011E+03  0.90237899382E+02 0.  0.
        -24    2    1    2    0    0  0.50989406559E+02  0.23351319929E+02 -0.20907605846E+03  0.23020436845E+03  0.78332938850E+02 0.  0.
         13    1    4    4    0    0  0.15905773625E+02  0.48986559736E+02 -0.13252049415E+03  0.14217720647E+03  0.00000000000E+00 0. -1.
        -14    1    4    4    0    0  0.35083632934E+02 -0.25635239807E+02 -0.76555564310E+02  0.88027161982E+02  0.00000000000E+00 0.  1.
        -13    1    3    3    0    0 -0.31414668701E+02  0.58619709030E+02 -0.80639957741E+02  0.10452729060E+03  0.00000000000E+00 0. -1.
         13    1    3    3    0    0 -0.54119171922E+01 -0.22869410821E+02  0.48645881541E+01  0.23999229506E+02  0.00000000000E+00 0.  1.
          2    1    1    2  501    0 -0.14162820666E+02 -0.59101618138E+02 -0.12702690053E+03  0.14081697417E+03  0.00000000000E+00 0. -1.
<scales pt_clust_5="13000.00000" pt_clust_6="13000.00000" pt_clust_7="13000.00000" pt_clust_8="13000.00000" pt_clust_9="60.77489"></scales>
<clustering>
<clus scale="   60.775">  2  9  1 -1</clus>
<clus scale="   78.333">  5  6 -1 -1</clus>
<clus scale="   90.179">  2  5  1 -1</clus>
<clus scale="   90.238">  7  8 -1 -1</clus>
<clus scale="   60.775">  2  5  1 -1</clus>
</clustering>
</event>
<event>
 9    1  0.6270443E-005  0.1004031E+03  0.7546771E-02  0.1284486E+00
         21   -1    0    0  501  502  0.00000000000E+00  0.00000000000E+00  0.36722143033E+03  0.36722143033E+03  0.00000000000E+00 0.  1.
          1   -1    0    0  502    0 -0.00000000000E+00 -0.00000000000E+00 -0.44393252502E+02  0.44393252502E+02  0.00000000000E+00 0. -1.
        -24    2    1    2    0    0 -0.26717938621E+02 -0.45233044506E+02  0.44244761139E+02  0.10552470981E+03  0.80112351936E+02 0.  0.
         23    2    1    2    0    0  0.14750574765E+02  0.15437228892E+02  0.18237336597E+03  0.20466323944E+03  0.90394189367E+02 0.  0.
         13    1    3    3    0    0 -0.50107415281E+02 -0.35183678374E+02  0.87551659759E+01  0.61848987230E+02  0.00000000000E+00 0. -1.
        -14    1    3    3    0    0  0.23389476660E+02 -0.10049366131E+02  0.35489595163E+02  0.43675722580E+02  0.00000000000E+00 0.  1.
        -13    1    4    4    0    0 -0.24221444371E+02 -0.34486168847E+01  0.14620950166E+03  0.14824233438E+03  0.00000000000E+00 0.  1.
         13    1    4    4    0    0  0.38972019136E+02  0.18885845777E+02  0.36163864308E+02  0.56420905062E+02  0.00000000000E+00 0. -1.
          2    1    1    2  501    0  0.11967363856E+02  0.29795815613E+02  0.96210050712E+02  0.10142673357E+03  0.00000000000E+00 0. -1.
<scales pt_clust_5="13000.00000" pt_clust_6="13000.00000" pt_clust_7="13000.00000" pt_clust_8="13000.00000" pt_clust_9="32.10932"></scales>
<clustering>
<clus scale="   32.109">  1  9  2 -1</clus>
<clus scale="   80.112">  5  6 -1 -1</clus>
<clus scale="   90.394">  7  8 -1 -1</clus>
<clus scale="   91.256">  2  5  1 -1</clus>
<clus scale="   32.109">  1  5  2 -1</clus>
</clustering>
</event>
<event>
 9    1  0.6270443E-005  0.1023684E+03  0.7546771E-02  0.1281753E+00
          1   -1    0    0  502    0 -0.00000000000E+00  0.00000000000E+00  0.80310617864E+02  0.80310617864E+02  0.00000000000E+00 0. -1.
         21   -1    0    0  501  502  0.00000000000E+00 -0.00000000000E+00 -0.16609533944E+03  0.16609533944E+03  0.00000000000E+00 0. -1.
         23    2    1    2    0    0 -0.19062965400E+02  0.46481576994E+02 -0.43229358785E+02  0.11393541308E+03  0.92674523167E+02 0.  0.
        -24    2    1    2    0    0 -0.73603536513E+01 -0.39735143477E+02 -0.52387313254E+02  0.10348134960E+03  0.79566969859E+02 0.  0.
         13    1    4    4    0    0 -0.21851709256E+02 -0.56000733375E+02 -0.55079328468E+02  0.81531047831E+02  0.00000000000E+00 0. -1.
        -14    1    4    4    0    0  0.14491355604E+02  0.16265589898E+02  0.26920152134E+01  0.21950301772E+02  0.00000000000E+00 0.  1.
        -11    1    3    3    0    0  0.36805475552E+02  0.27428680318E+02 -0.13513564264E+02  0.47849680811E+02  0.00000000000E+00 0. -1.
         11    1    3    3    0    0 -0.55868440952E+02  0.19052896676E+02 -0.29715794521E+02  0.66085732274E+02  0.00000000000E+00 0.  1.
          2    1    1    2  501    0  0.26423319052E+02 -0.67464335165E+01  0.98319504601E+01  0.28989194620E+02  0.00000000000E+00 0. -1.
<scales pt_clust_5="13000.00000" pt_clust_6="13000.00000" pt_clust_7="13000.00000" pt_clust_8="13000.00000" pt_clust_9="27.27099"></scales>
<clustering>
<clus scale="   27.271">  2  9  1 -1</clus>
<clus scale="   79.567">  5  6 -1 -1</clus>
<clus scale="   90.673">  2  5  1 -1</clus>
<clus scale="   92.675">  7  8 -1 -1</clus>
<clus scale="   27.271">  2  5  1 -1</clus>
</clustering>
</event>
<event>
 9    1  0.6270443E-005  0.9712967E+02  0.7546771E-02  0.1291656E+00
         21   -1    0    0  501  502  0.00000000000E+00  0.00000000000E+00  0.74961021055E+02  0.74961021055E+02  0.00000000000E+00 0. -1.
         -4   -1    0    0    0  501 -0.00000000000E+00 -0.00000000000E+00 -0.26167849976E+03  0.26167849976E+03  0.00000000000E+00 0.  1.
         23    2    1    2    0    0 -0.13492774117E+02  0.24987427146E+02 -0.13870771398E+03  0.16849884111E+03  0.91354272312E+02 0.  0.
        -24    2    1    2    0    0  0.30654948595E+02 -0.41095524125E+02  0.17961133613E+02  0.98096618939E+02  0.81680942392E+02 0.  0.
         13    1    4    4    0    0  0.60780629998E+01 -0.61723713866E+02  0.21886982148E+02  0.65770811845E+02  0.00000000000E+00 0. -1.
        -14    1    4    4    0    0  0.24576885595E+02  0.20628189740E+02 -0.39258485350E+01  0.32325807094E+02  0.00000000000E+00 0.  1.
        -11    1    3    3    0    0 -0.48880551062E+02  0.25097145107E+02 -0.55596905751E+02  0.78167710045E+02  0.00000000000E+00 0.  1.
         11    1    3    3    0    0  0.35387776945E+02 -0.10971796029E+00 -0.83110808232E+02  0.90331131069E+02  0.00000000000E+00 0. -1.
         -3    1    1    2    0  502 -0.17162174478E+02  0.16108096979E+02 -0.65970898330E+02  0.70044060759E+02  0.00000000000E+00 0.  1.
<scales pt_clust_5="13000.00000" pt_clust_6="13000.00000" pt_clust_7="13000.00000" pt_clust_8="13000.00000" pt_clust_9="23.53745"></scales>
<clustering>
<clus scale="   23.537">  1  9  2 -1</clus>
<clus scale="   81.681">  5  6 -1 -1</clus>
<clus scale="   88.093">  1  5  2 -1</clus>
<clus scale="   91.354">  7  8 -1 -1</clus>
<clus scale="   23.537">  1  5  2 -1</clus>
</clustering>
</event>
<event>
 9    1  0.6270443E-005  0.1217059E+03  0.7546771E-02  0.1243335E+00
          1   -1    0    0  502    0 -0.00000000000E+00  0.00000000000E+00  0.46353983259E+03  0.46353983259E+03  0.00000000000E+00 0. -1.
         21   -1    0    0  501  502  0.00000000000E+00 -0.00000000000E+00 -0.10157601154E+03  0.10157601154E+03  0.00000000000E+00 0.  1.
         23    2    1    2    0    0  0.83374824701E+02  0.65273390025E+02  0.99125690586E+02  0.17109609156E+03  0.90752372817E+02 0.  0.
        -24    2    1    2    0    0  0.11306671813E+01 -0.58377259891E+02 -0.17441048156E+02  0.10119701996E+03  0.80792721247E+02 0.  0.
         11    1    4    4    0    0  0.36905223231E+02 -0.39787375094E+02  0.59387349312E+01  0.54592117482E+02  0.00000000000E+00 0. -1.
        -12    1    4    4    0    0 -0.35774556050E+02 -0.18589884797E+02 -0.23379783088E+02  0.46604902473E+02  0.00000000000E+00 0.  1.
        -11    1    3    3    0    0  0.88840377101E+02  0.18392181843E+02  0.52843900849E+02  0.10499220358E+03  0.00000000000E+00 0.  1.
         11    1    3    3    0    0 -0.54655523998E+01  0.46881208183E+02  0.46281789737E+02  0.66103887971E+02  0.00000000000E+00 0. -1.
          2    1    1    2  501    0 -0.84505491883E+02 -0.68961301347E+01  0.28027917862E+03  0.29282273262E+03  0.00000000000E+00 0. -1.
<scales pt_clust_5="13000.00000" pt_clust_6="13000.00000" pt_clust_7="13000.00000" pt_clust_8="13000.00000" pt_clust_9="84.78645"></scales>
<clustering>
<clus scale="   80.793">  5  6 -1 -1</clus>
<clus scale="   84.786">  2  9  1 -1</clus>
<clus scale="   90.752">  7  8 -1 -1</clus>
<clus scale="  114.472">  2  5  1 -1</clus>
<clus scale="   84.786">  2  5  1 -1</clus>
</clustering>
</event>
<event>
 9    1  0.7047398E-005  0.1656396E+03  0.7546771E-02  0.1204119E+00
         -2   -1    0    0    0  501 -0.00000000000E+00  0.00000000000E+00  0.12958590529E+04  0.12958590529E+04  0.00000000000E+00 0.  1.
         21   -1    0    0  501  502  0.00000000000E+00 -0.00000000000E+00 -0.75466698879E+02  0.75466698879E+02  0.00000000000E+00 0.  1.
        -24    2    1    2    0    0  0.55354549368E+02 -0.13706498988E+02  0.25938160938E+03  0.27906462157E+03  0.85710264717E+02 0.  0.
         23    2    1    2    0    0  0.99079733953E+02 -0.65272063504E+01  0.51983795394E+02  0.16998712258E+03  0.12780418129E+03 0.  0.
         11    1    3    3    0    0  0.63196154374E+02 -0.38383182120E+02  0.15825606453E+03  0.17467685753E+03  0.00000000000E+00 0. -1.
        -12    1    3    3    0    0 -0.78416050058E+01  0.24676683133E+02  0.10112554485E+03  0.10438776404E+03  0.00000000000E+00 0.  1.
        -11    1    4    4    0    0  0.10379148844E+03  0.31941039475E+02  0.44908284196E+01  0.10868795065E+03  0.00000000000E+00 0.  1.
         11    1    4    4    0    0 -0.47117544890E+01 -0.38468245826E+02  0.47492966974E+02  0.61299171930E+02  0.00000000000E+00 0. -1.
         -1    1    1    2    0  502 -0.15443428332E+03  0.20233705338E+02  0.90902694923E+03  0.92227400762E+03  0.00000000000E+00 0.  1.
<scales pt_clust_5="13000.00000" pt_clust_6="13000.00000" pt_clust_7="13000.00000" pt_clust_8="13000.00000" pt_clust_9="105.36876"></scales>
<clustering>
<clus scale="   85.710">  5  6 -1 -1</clus>
<clus scale="  102.948">  1  5  2 -1</clus>
<clus scale="  105.369">  2  9  1 -1</clus>
<clus scale="  127.804">  7  8 -1 -1</clus>
<clus scale="  105.369">  2  5  1 -1</clus>
</clustering>
</event>
<event>
 9    1  0.6270443E-005  0.1202501E+03  0.7546771E-02  0.1247954E+00
         21   -1    0    0  501  502  0.00000000000E+00  0.00000000000E+00  0.24545231814E+03  0.24545231814E+03  0.00000000000E+00 0.  1.
         -2   -1    0    0    0  501 -0.00000000000E+00 -0.00000000000E+00 -0.25004484907E+03  0.25004484907E+03  0.00000000000E+00 0.  1.
        -24    2    1    2    0    0  0.22207928899E+02  0.67692412426E+02 -0.11735672097E+03  0.15435446275E+03  0.70549595381E+02 0.  0.
         23    2    1    2    0    0  0.14129588504E+02 -0.11673383561E+03 -0.59446118607E+02  0.15843565270E+03  0.87986256770E+02 0.  0.
         11    1    3    3    0    0 -0.48564603832E+01  0.55023529205E+02 -0.31817632716E+02  0.63745868299E+02  0.00000000000E+00 0. -1.
        -12    1    3    3    0    0  0.27064389282E+02  0.12668883222E+02 -0.85539088255E+02  0.90608594453E+02  0.00000000000E+00 0.  1.
        -13    1    4    4    0    0 -0.98550176586E+01 -0.11093576358E+03 -0.21897611820E+02  0.11350493566E+03  0.00000000000E+00 0.  1.
         13    1    4    4    0    0  0.23984606162E+02 -0.57980720293E+01 -0.37548506787E+02  0.44930717042E+02  0.00000000000E+00 0. -1.
         -1    1    1    2    0  502 -0.36337517403E+02  0.49041423186E+02  0.17221030864E+03  0.18270705176E+03  0.00000000000E+00 0.  1.
<scales pt_clust_5="13000.00000" pt_clust_6="13000.00000" pt_clust_7="13000.00000" pt_clust_8="13000.00000" pt_clust_9="61.03668"></scales>
<clustering>
<clus scale="   61.037">  1  9  2 -1</clus>
<clus scale="   70.550">  5  6 -1 -1</clus>
<clus scale="   87.986">  7  8 -1 -1</clus>
<clus scale="  108.147">  2  5  1 -1</clus>
<clus scale="   61.037">  1  5  2 -1</clus>
</clustering>
</event>
<event>
 9    1  0.6270443E-005  0.1820834E+03  0.7546771E-02  0.1192287E+00
         21   -1    0    0  501  502  0.00000000000E+00  0.00000000000E+00  0.12516021730E+03  0.12516021730E+03  0.00000000000E+00 0.  1.
          3   -1    0    0  502    0 -0.00000000000E+00 -0.00000000000E+00 -0.73448164409E+03  0.73448164409E+03  0.00000000000E+00 0. -1.
         23    2    1    2    0    0 -0.21036391973E+02  0.34265605842E+02  0.57748615674E+01  0.10045342098E+03  0.91874257713E+02 0.  0.
        -24    2    1    2    0    0  0.29172638514E+02  0.13340834615E+03 -0.56034448033E+03  0.58261405617E+03  0.82488618261E+02 0.  0.
         13    1    4    4    0    0  0.27107420773E+02  0.39082239906E+01 -0.14430192854E+03  0.14687795292E+03  0.00000000000E+00 0. -1.
        -14    1    4    4    0    0  0.20652177411E+01  0.12950012216E+03 -0.41604255179E+03  0.43573610324E+03  0.00000000000E+00 0.  1.
        -11    1    3    3    0    0 -0.59708696908E+01  0.60035714169E+02  0.24608789077E+02  0.65157737533E+02  0.00000000000E+00 0.  1.
         11    1    3    3    0    0 -0.15065522282E+02 -0.25770108326E+02 -0.18833927510E+02  0.35295683451E+02  0.00000000000E+00 0. -1.
          4    1    1    2  501    0 -0.81362465407E+01 -0.16767395199E+03 -0.54751808024E+02  0.17657438423E+03  0.00000000000E+00 0. -1.
<scales pt_clust_5="13000.00000" pt_clust_6="13000.00000" pt_clust_7="13000.00000" pt_clust_8="13000.00000" pt_clust_9="162.32675"></scales>
<clustering>
<clus scale="   82.489">  5  6 -1 -1</clus>
<clus scale="   91.874">  7  8 -1 -1</clus>
<clus scale="  100.287">  2  7  1 -1</clus>
<clus scale="  162.327">  1  9  2 -1</clus>
<clus scale="  162.327">  1  5  2 -1</clus>
</clustering>
</event>
<event>
 9    1  0.6270443E-005  0.1387373E+03  0.7546771E-02  0.1217416E+00
         21   -1    0    0  501  502  0.00000000000E+00  0.00000000000E+00  0.62129486738E+03  0.62129486738E+03  0.00000000000E+00 0.  1.
         -2   -1    0    0    0  501 -0.00000000000E+00 -0.00000000000E+00 -0.56117801056E+02  0.56117801056E+02  0.00000000000E+00 0.  1.
        -24    2    1    2    0    0  0.85277302360E+02  0.32382460828E+02  0.16831175174E+03  0.20763695312E+03  0.80395375867E+02 0.  0.
         23    2    1    2    0    0 -0.11511643978E+03 -0.70145034840E+02  0.38813506409E+03  0.42086147003E+03  0.91123149385E+02 0.  0.
         11    1    3    3    0    0  0.56717790230E+02  0.44630107426E+02  0.15991627185E+03  0.17544790743E+03  0.00000000000E+00 0. -1.
        -12    1    3    3    0    0  0.28559512130E+02 -0.12247646598E+02  0.83954798907E+01  0.32189045697E+02  0.00000000000E+00 0.  1.
        -11    1    4    4    0    0 -0.43989884099E+02  0.16590757433E+02  0.78102584112E+02  0.91161267983E+02  0.00000000000E+00 0.  1.
         11    1    4    4    0    0 -0.71126555680E+02 -0.86735792273E+02  0.31003247998E+03  0.32970020204E+03  0.00000000000E+00 0. -1.
         -1    1    1    2    0  502  0.29839137420E+02  0.37762574012E+02  0.87302504835E+01  0.48914245282E+02  0.00000000000E+00 0.  1.
<scales pt_clust_5="13000.00000" pt_clust_6="13000.00000" pt_clust_7="13000.00000" pt_clust_8="13000.00000" pt_clust_9="48.12887"></scales>
<clustering>
<clus scale="   48.129">  1  9  2 -1</clus>
<clus scale="   80.395">  5  6 -1 -1</clus>
<clus scale="   91.123">  7  8 -1 -1</clus>
<clus scale="  131.939">  2  5  1 -1</clus>
<clus scale="   48.129">  1  5  2 -1</clus>
</clustering>
</event>
<event>
 9    1  0.6270443E-005  0.9408091E+02  0.7546771E-02  0.1300649E+00
          1   -1    0    0  502    0 -0.00000000000E+00  0.00000000000E+00  0.13950093861E+03  0.13950093861E+03  0.00000000000E+00 0. -1.
         21   -1    0    0  501  502  0.00000000000E+00 -0.00000000000E+00 -0.12105422637E+03  0.12105422637E+03  0.00000000000E+00 0.  1.
        -24    2    1    2    0    0  0.16418811388E+02 -0.19559942370E+02  0.59908934002E+02  0.10352883930E+03  0.80479633943E+02 0.  0.
         23    2    1    2    0    0 -0.89317246030E+01 -0.32632058008E+02 -0.28480184302E+02  0.10272536189E+03  0.92718672143E+02 0.  0.
         13    1    3    3    0    0  0.10378394714E+02 -0.43986105297E+02  0.63678479559E+02  0.78086088998E+02  0.00000000000E+00 0. -1.
        -14    1    3    3    0    0  0.60404166735E+01  0.24426162928E+02 -0.37695455569E+01  0.25442750297E+02  0.00000000000E+00 0.  1.
        -11    1    4    4    0    0 -0.23185103907E+02 -0.60539570378E+01 -0.56617124799E+02  0.61479250642E+02  0.00000000000E+00 0.  1.
         11    1    4    4    0    0  0.14253379304E+02 -0.26578100970E+02  0.28136940497E+02  0.41246111251E+02  0.00000000000E+00 0. -1.
          2    1    1    2  501    0 -0.74870867846E+01  0.52192000377E+02 -0.12982037456E+02  0.54300963789E+02  0.00000000000E+00 0. -1.
<scales pt_clust_5="13000.00000" pt_clust_6="13000.00000" pt_clust_7="13000.00000" pt_clust_8="13000.00000" pt_clust_9="52.72629"></scales>
<clustering>
<clus scale="   52.726">  2  9  1 -1</clus>
<clus scale="   80.480">  5  6 -1 -1</clus>
<clus scale="   82.045">  1  5  2 -1</clus>
<clus scale="   92.719">  7  8 -1 -1</clus>
<clus scale="   52.726">  2  5  1 -1</clus>
</clustering>
</event>
<event>
 9    1  0.6270443E-005  0.1086427E+03  0.7546771E-02  0.1266900E+00
         -2   -1    0    0    0  501 -0.00000000000E+00  0.00000000000E+00  0.61351749322E+02  0.61351749322E+02  0.00000000000E+00 0.  1.
         21   -1    0    0  501  502  0.00000000000E+00 -0.00000000000E+00 -0.25312526392E+03  0.25312526392E+03  0.00000000000E+00 0.  1.
        -24    2    1    2    0    0 -0.70488145008E+02 -0.91888868005E+01 -0.50654860553E+02  0.11800289972E+03  0.79408785519E+02 0.  0.
         23    2    1    2    0    0  0.49168439678E+02 -0.16250294367E+02 -0.11368949331E+03  0.15341554141E+03  0.89047290404E+02 0.  0.
         11    1    3    3    0    0 -0.34893375680E+02 -0.30008478338E+02 -0.60101375398E+02  0.75698294322E+02  0.00000000000E+00 0. -1.
        -12    1    3    3    0    0 -0.35594769327E+02  0.20819591538E+02  0.94465148446E+01  0.42304605399E+02  0.00000000000E+00 0.  1.
        -13    1    4    4    0    0 -0.14479817198E+02  0.19149347133E+02 -0.54546077113E+02  0.59595613346E+02  0.00000000000E+00 0.  1.
         13    1    4    4    0    0  0.63648256876E+02 -0.35399641500E+02 -0.59143416199E+02  0.93819928061E+02  0.00000000000E+00 0. -1.
         -1    1    1    2    0  502  0.21319705329E+02  0.25439181168E+02 -0.27429160729E+02  0.43058572110E+02  0.00000000000E+00 0.  1.
<scales pt_clust_5="13000.00000" pt_clust_6="13000.00000" pt_clust_7="13000.00000" pt_clust_8="13000.00000" pt_clust_9="33.19159"></scales>
<clustering>
<clus scale="   33.192">  2  9  1 -1</clus>
<clus scale="   79.409">  5  6 -1 -1</clus>
<clus scale="   89.047">  7  8 -1 -1</clus>
<clus scale="  100.894">  1  5  2 -1</clus>
<clus scale="   33.192">  2  5  1 -1</clus>
</clustering>
</event>
<event>
 9    1  0.6270443E-005  0.1021855E+03  0.7546771E-02  0.1281746E+00
          1   -1    0    0  502    0 -0.00000000000E+00  0.00000000000E+00  0.68497278442E+03  0.68497278442E+03  0.00000000000E+00 0. -1.
         21   -1    0    0  501  502  0.00000000000E+00 -0.00000000000E+00 -0.61467758644E+02  0.61467758644E+02  0.00000000000E+00 0. -1.
         23    2    1    2    0    0  0.21941456893E+02  0.34480000596E+02  0.52079341931E+03  0.53033652423E+03  0.91437111551E+02 0.  0.
        -24    2    1    2    0    0 -0.72212129286E+02 -0.61544919361E+02  0.36568548823E+02  0.12872808161E+03  0.78938529988E+02 0.  0.
         11    1    4    4    0    0 -0.65293155571E+02 -0.42512017663E+01  0.15075415219E+02  0.67145640401E+02  0.00000000000E+00 0. -1.
        -12    1    4    4    0    0 -0.69189737156E+01 -0.57293717594E+02  0.21493133604E+02  0.61582441208E+02  0.00000000000E+00 0.  1.
        -11    1    3    3    0    0 -0.66716526065E+01  0.60343211971E+02  0.35156085218E+03  0.35676441381E+03  0.00000000000E+00 0. -1.
         11    1    3    3    0    0  0.28613109500E+02 -0.25863211376E+02  0.16923256713E+03  0.17357211042E+03  0.00000000000E+00 0.  1.
          2    1    1    2  501    0  0.50270672393E+02  0.27064918765E+02  0.66143057640E+02  0.87375937217E+02  0.00000000000E+00 0. -1.
<scales pt_clust_5="13000.00000" pt_clust_6="13000.00000" pt_clust_7="13000.00000" pt_clust_8="13000.00000" pt_clust_9="57.09335"></scales>
<clustering>
<clus scale="   57.093">  2  9  1 -1</clus>
<clus scale="   78.939">  5  6 -1 -1</clus>
<clus scale="   91.172">  2  5  1 -1</clus>
<clus scale="   91.437">  7  8 -1 -1</clus>
<clus scale="   57.093">  2  5  1 -1</clus>
</clustering>
</event>
<event>
 9    1  0.6270443E-005  0.1396685E+03  0.7546771E-02  0.1238920E+00
          1   -1    0    0  502    0 -0.00000000000E+00  0.00000000000E+00  0.16239500958E+03  0.16239500958E+03  0.00000000000E+00 0. -1.
         21   -1    0    0  501  502  0.00000000000E+00 -0.00000000000E+00 -0.34893842345E+03  0.34893842345E+03  0.00000000000E+00 0.  1.
        -24    2    1    2    0    0 -0.90384771618E+01 -0.25802173310E+01  0.96199709514E+02  0.12694899176E+03  0.82300126407E+02 0.  0.
         23    2    1    2    0    0 -0.80922277941E+02  0.78163714150E+02 -0.18953787099E+03  0.23440770466E+03  0.79777103151E+02 0.  0.
         11    1    3    3    0    0  0.23928346593E+02  0.26217998036E+02  0.25169767994E+02  0.43513979507E+02  0.00000000000E+00 0. -1.
        -12    1    3    3    0    0 -0.32966823755E+02 -0.28798215367E+02  0.71029941520E+02  0.83435012250E+02  0.00000000000E+00 0.  1.
        -11    1    4    4    0    0 -0.46945945021E+02  0.66077051023E+02 -0.17953408997E+03  0.19698372493E+03  0.00000000000E+00 0.  1.
         11    1    4    4    0    0 -0.33976332920E+02  0.12086663127E+02 -0.10003781023E+02  0.37423979732E+02  0.00000000000E+00 0. -1.
          2    1    1    2  501    0  0.89960755103E+02 -0.75583496819E+02 -0.93205252392E+02  0.14997673661E+03  0.00000000000E+00 0. -1.
<scales pt_clust_5="13000.00000" pt_clust_6="13000.00000" pt_clust_7="13000.00000" pt_clust_8="13000.00000" pt_clust_9="114.64257"></scales>
<clustering>
<clus scale="   79.777">  7  8 -1 -1</clus>
<clus scale="   82.300">  5  6 -1 -1</clus>
<clus scale="   82.835">  1  5  2 -1</clus>
<clus scale="  114.643">  2  9  1 -1</clus>
<clus scale="  114.643">  2  5  1 -1</clus>
</clustering>
</event>
<event>
 9    1  0.6270443E-005  0.1892739E+03  0.7546771E-02  0.1160399E+00
         21   -1    0    0  501  502  0.00000000000E+00  0.00000000000E+00  0.19244252748E+03  0.19244252748E+03  0.00000000000E+00 0. -1.
          1   -1    0    0  502    0 -0.00000000000E+00 -0.00000000000E+00 -0.36284253475E+03  0.36284253475E+03  0.00000000000E+00 0. -1.
        -24    2    1    2    0    0  0.18732562021E+03  0.61397141270E+02 -0.20592408211E+03  0.29594634648E+03  0.79492235187E+02 0.  0.
         23    2    1    2    0    0 -0.78660301503E+02 -0.52921894846E+02  0.64189865620E+02  0.14663685750E+03  0.91618006653E+02 0.  0.
         13    1    3    3    0    0  0.10020329144E+03 -0.85549921397E+01 -0.90299095135E+02  0.13515847768E+03  0.00000000000E+00 0. -1.
        -14    1    3    3    0    0  0.87122328770E+02  0.69952133409E+02 -0.11562498698E+03  0.16078786880E+03  0.00000000000E+00 0.  1.
        -13    1    4    4    0    0 -0.22662686528E+02 -0.22686705148E+02  0.75475500275E+02  0.82005091872E+02  0.00000000000E+00 0. -1.
         13    1    4    4    0    0 -0.55997614975E+02 -0.30235189697E+02 -0.11285634654E+02  0.64631765630E+02  0.00000000000E+00 0.  1.
          2    1    1    2  501    0 -0.10866531871E+03 -0.84752464239E+01 -0.28665790777E+02  0.11270185825E+03  0.00000000000E+00 0. -1.
<scales pt_clust_5="13000.00000" pt_clust_6="13000.00000" pt_clust_7="13000.00000" pt_clust_8="13000.00000" pt_clust_9="108.99533"></scales>
<clustering>
<clus scale="   79.492">  5  6 -1 -1</clus>
<clus scale="   91.618">  7  8 -1 -1</clus>
<clus scale="  108.995">  1  9  2 -1</clus>
<clus scale="  183.711">  2  5  1 -1</clus>
<clus scale="  108.995">  1  5  2 -1</clus>
</clustering>
</event>
<event>
 9    1  0.6270443E-005  0.1033563E+03  0.7546771E-02  0.1275732E+00
          3   -1    0    0  502    0 -0.00000000000E+00  0.00000000000E+00  0.64957034755E+02  0.64957034755E+02  0.00000000000E+00 0. -1.
         21   -1    0    0  501  502  0.00000000000E+00 -0.00000000000E+00 -0.28792129927E+03  0.28792129927E+03  0.00000000000E+00 0.  1.
        -24    2    1    2    0    0 -0.15528950454E+02  0.40869119906E+02 -0.48641302490E+02  0.10802344641E+03  0.85974737003E+02 0.  0.
         23    2    1    2    0    0 -0.11737374259E+02 -0.65803386915E+02 -0.17449239169E+03  0.20790629033E+03  0.91156892874E+02 0.  0.
         11    1    3    3    0    0  0.15239679288E+02  0.42444130262E+02  0.58005311909E+01  0.45468650526E+02  0.00000000000E+00 0. -1.
        -12    1    3    3    0    0 -0.30768629742E+02 -0.15750103561E+01 -0.54441833681E+02  0.62554795886E+02  0.00000000000E+00 0.  1.
        -13    1    4    4    0    0  0.16100846475E+02  0.17230210569E+02 -0.54234729146E+02  0.59139861844E+02  0.00000000000E+00 0.  1.
         13    1    4    4    0    0 -0.27838220733E+02 -0.83033597483E+02 -0.12025766254E+03  0.14876642849E+03  0.00000000000E+00 0. -1.
          4    1    1    2  501    0  0.27266324712E+02  0.24934267008E+02  0.16942966458E+00  0.36948597280E+02  0.00000000000E+00 0. -1.
<scales pt_clust_5="13000.00000" pt_clust_6="13000.00000" pt_clust_7="13000.00000" pt_clust_8="13000.00000" pt_clust_9="36.94823"></scales>
<clustering>
<clus scale="   36.948">  2  9  1 -1</clus>
<clus scale="   85.975">  5  6 -1 -1</clus>
<clus scale="   91.157">  7  8 -1 -1</clus>
<clus scale="   98.816">  1  5  2 -1</clus>
<clus scale="   36.948">  2  5  1 -1</clus>
</clustering>
</event>
<event>
 9    1  0.6270443E-005  0.9288742E+02  0.7546771E-02  0.1303322E+00
         21   -1    0    0  501  502  0.00000000000E+00  0.00000000000E+00  0.17117895564E+03  0.17117895564E+03  0.00000000000E+00 0. -1.
          1   -1    0    0  502    0 -0.00000000000E+00 -0.00000000000E+00 -0.24935555398E+03  0.24935555398E+03  0.00000000000E+00 0. -1.
         23    2    1    2    0    0 -0.22077627146E+02  0.19511072682E+01 -0.19576036361E+03  0.21702420830E+03  0.91028339457E+02 0.  0.
        -24    2    1    2    0    0 -0.59538231937E+01 -0.32185683714E+02  0.73909032465E+01  0.85856747780E+02  0.79027776394E+02 0.  0.
         13    1    4    4    0    0 -0.13628125215E+02 -0.40550765347E+02 -0.26359373867E+02  0.50248452293E+02  0.00000000000E+00 0. -1.
        -14    1    4    4    0    0  0.76743020215E+01  0.83650816330E+01  0.33750277114E+02  0.35608295487E+02  0.00000000000E+00 0.  1.
        -13    1    3    3    0    0 -0.57452012415E+02  0.69586631827E+01 -0.11640575738E+03  0.12999791181E+03  0.00000000000E+00 0. -1.
         13    1    3    3    0    0  0.35374385269E+02 -0.50075559145E+01 -0.79354606230E+02  0.87026296482E+02  0.00000000000E+00 0.  1.
          2    1    1    2  501    0  0.28031450340E+02  0.30234576446E+02  0.11019286202E+03  0.11765355354E+03  0.00000000000E+00 0. -1.
<scales pt_clust_5="13000.00000" pt_clust_6="13000.00000" pt_clust_7="13000.00000" pt_clust_8="13000.00000" pt_clust_9="41.22974"></scales>
<clustering>
<clus scale="   41.230">  1  9  2 -1</clus>
<clus scale="   79.028">  5  6 -1 -1</clus>
<clus scale="   81.162">  1  5  2 -1</clus>
<clus scale="   91.028">  7  8 -1 -1</clus>
<clus scale="   41.230">  1  5  2 -1</clus>
</clustering>
</event>
<event>
 9    1  0.6270443E-005  0.1411473E+03  0.7546771E-02  0.1226713E+00
          1   -1    0    0  502    0 -0.00000000000E+00  0.00000000000E+00  0.27549318127E+03  0.27549318127E+03  0.00000000000E+00 0. -1.
         21   -1    0    0  501  502  0.00000000000E+00 -0.00000000000E+00 -0.14835657717E+03  0.14835657717E+03  0.00000000000E+00 0. -1.
         23    2    1    2    0    0 -0.32479312419E+02  0.43468128540E+02  0.11076098664E+03  0.15135080908E+03  0.87719366802E+02 0.  0.
        -24    2    1    2    0    0 -0.12620258898E+00  0.94130975666E+02 -0.13332462072E+02  0.12800257199E+03  0.85710252504E+02 0.  0.
         13    1    4    4    0    0  0.22995633345E+02  0.46149263709E+02 -0.42908383680E+02  0.67079677130E+02  0.00000000000E+00 0. -1.
        -14    1    4    4    0    0 -0.23121835934E+02  0.47981711957E+02  0.29575921607E+02  0.60922894861E+02  0.00000000000E+00 0.  1.
        -11    1    3    3    0    0 -0.10829504958E+02 -0.24808321074E+02  0.12658017387E+02  0.29882375680E+02  0.00000000000E+00 0.  1.
         11    1    3    3    0    0 -0.21649807461E+02  0.68276449614E+02  0.98102969256E+02  0.12146843340E+03  0.00000000000E+00 0. -1.
          2    1    1    2  501    0  0.32605515008E+02 -0.13759910421E+03  0.29708079529E+02  0.14449637738E+03  0.00000000000E+00 0. -1.
<scales pt_clust_5="13000.00000" pt_clust_6="13000.00000" pt_clust_7="13000.00000" pt_clust_8="13000.00000" pt_clust_9="112.14417"></scales>
<clustering>
<clus scale="   85.710">  5  6 -1 -1</clus>
<clus scale="   87.719">  7  8 -1 -1</clus>
<clus scale="  103.146">  1  7  2 -1</clus>
<clus scale="  112.144">  2  9  1 -1</clus>
<clus scale="  112.144">  2  5  1 -1</clus>
</clustering>
</event>
<event>
 9    1  0.6270443E-005  0.9963916E+02  0.7546771E-02  0.1283399E+00
         -2   -1    0    0    0  501 -0.00000000000E+00  0.00000000000E+00  0.18464165695E+03  0.18464165695E+03  0.00000000000E+00 0.  1.
         21   -1    0    0  501  502  0.00000000000E+00 -0.00000000000E+00 -0.13759741038E+03  0.13759741038E+03  0.00000000000E+00 0.  1.
        -24    2    1    2    0    0 -0.28607847871E+02  0.43670948730E+02  0.83899889340E+02  0.13680190243E+03  0.94604483801E+02 0.  0.
         23    2    1    2    0    0  0.22122740738E+02  0.35380610825E+02 -0.32266554676E+01  0.99285470371E+02  0.90033271856E+02 0.  0.
         13    1    3    3    0    0  0.29796809066E+02 -0.66683347041E+01  0.18535296839E+02  0.35719374955E+02  0.00000000000E+00 0. -1.
        -14    1    3    3    0    0 -0.58404656937E+02  0.50339283434E+02  0.65364592501E+02  0.10108252748E+03  0.00000000000E+00 0.  1.
        -13    1    4    4    0    0  0.48917588646E+02  0.40914548293E+02 -0.20431242806E+02  0.66965412144E+02  0.00000000000E+00 0.  1.
         13    1    4    4    0    0 -0.26794847908E+02 -0.55339374676E+01  0.17204587339E+02  0.32320058227E+02  0.00000000000E+00 0. -1.
         -1    1    1    2    0  502  0.64851071324E+01 -0.79051559555E+02 -0.33628987307E+02  0.86151694527E+02  0.00000000000E+00 0.  1.
<scales pt_clust_5="13000.00000" pt_clust_6="13000.00000" pt_clust_7="13000.00000" pt_clust_8="13000.00000" pt_clust_9="79.31712"></scales>
<clustering>
<clus scale="   79.317">  2  9  1 -1</clus>
<clus scale="   90.033">  7  8 -1 -1</clus>
<clus scale="   94.604">  5  6 -1 -1</clus>
<clus scale="   95.310">  2  7  1 -1</clus>
<clus scale="   79.317">  2  5  1 -1</clus>
</clustering>
</event>
<event>
 9    1  0.6270443E-005  0.1199729E+03  0.7546771E-02  0.1246696E+00
         21   -1    0    0  501  502  0.00000000000E+00  0.00000000000E+00  0.72186666075E+02  0.72186666075E+02  0.00000000000E+00 0. -1.
         -2   -1    0    0    0  501 -0.00000000000E+00 -0.00000000000E+00 -0.26313521186E+03  0.26313521186E+03  0.00000000000E+00 0.  1.
        -24    2    1    2    0    0 -0.68854825319E+02  0.27518431242E+02 -0.96568290785E+02  0.14613713266E+03  0.80823113826E+02 0.  0.
         23    2    1    2    0    0  0.82254684561E+02 -0.58596058706E+01 -0.10449833831E+03  0.16177969914E+03  0.91938023859E+02 0.  0.
         13    1    3    3    0    0 -0.15675430555E+02  0.48503210322E+02 -0.33409410396E+02  0.60946445652E+02  0.00000000000E+00 0. -1.
        -14    1    3    3    0    0 -0.53179394764E+02 -0.20984779080E+02 -0.63158880389E+02  0.85190687006E+02  0.00000000000E+00 0.  1.
        -11    1    4    4    0    0  0.45503145223E+02  0.42340702784E+02 -0.44093703508E+02  0.76207125825E+02  0.00000000000E+00 0. -1.
         11    1    4    4    0    0  0.36751539338E+02 -0.48200308655E+02 -0.60404634800E+02  0.85572573313E+02  0.00000000000E+00 0.  1.
         -1    1    1    2    0  502 -0.13399859242E+02 -0.21658825371E+02  0.10118083307E+02  0.27405046140E+02  0.00000000000E+00 0.  1.
<scales pt_clust_5="13000.00000" pt_clust_6="13000.00000" pt_clust_7="13000.00000" pt_clust_8="13000.00000" pt_clust_9="25.46882"></scales>
<clustering>
<clus scale="   25.469">  1  9  2 -1</clus>
<clus scale="   80.823">  5  6 -1 -1</clus>
<clus scale="   91.938">  7  8 -1 -1</clus>
<clus scale="  111.684">  2  5  1 -1</clus>
<clus scale="   25.469">  1  5  2 -1</clus>
</clustering>
</event>
<event>
 9    1  0.6270443E-005  0.1731157E+03  0.7546771E-02  0.1176422E+00
         21   -1    0    0  501  502  0.00000000000E+00  0.00000000000E+00  0.13725645754E+03  0.13725645754E+03  0.00000000000E+00 0. -1.
          1   -1    0    0  502    0 -0.00000000000E+00 -0.00000000000E+00 -0.40170475466E+03  0.40170475466E+03  0.00000000000E+00 0. -1.
        -24    2    1    2    0    0 -0.17980906295E+03 -0.83259712123E+02 -0.20265111916E+03  0.29409705414E+03  0.78499187096E+02 0.  0.
         23    2    1    2    0    0  0.80699388904E+02  0.40619458695E+02 -0.33676779323E+02  0.13336673423E+03  0.92142436142E+02 0.  0.
         11    1    3    3    0    0 -0.88721675223E+02 -0.50237871255E+02 -0.50657506727E+02  0.11384885748E+03  0.00000000000E+00 0. -1.
        -12    1    3    3    0    0 -0.91087387728E+02 -0.33021840868E+02 -0.15199361243E+03  0.18024819665E+03  0.00000000000E+00 0.  1.
        -13    1    4    4    0    0 -0.27045855572E+01 -0.19914208991E+02 -0.21765243048E+02  0.29624589579E+02  0.00000000000E+00 0.  1.
         13    1    4    4    0    0  0.83403974461E+02  0.60533667686E+02 -0.11911536275E+02  0.10374214465E+03  0.00000000000E+00 0. -1.
          2    1    1    2  501    0  0.99109674047E+02  0.42640253428E+02 -0.28120398642E+02  0.11149742384E+03  0.00000000000E+00 0. -1.
<scales pt_clust_5="13000.00000" pt_clust_6="13000.00000" pt_clust_7="13000.00000" pt_clust_8="13000.00000" pt_clust_9="107.89309"></scales>
<clustering>
<clus scale="   78.499">  5  6 -1 -1</clus>
<clus scale="   92.142">  7  8 -1 -1</clus>
<clus scale="  107.893">  1  9  2 -1</clus>
<clus scale="  166.256">  2  5  1 -1</clus>
<clus scale="  107.893">  1  5  2 -1</clus>
</clustering>
</event>
<event>
 9    1  0.6270443E-005  0.2701980E+03  0.7546771E-02  0.1135057E+00
          1   -1    0    0  502    0 -0.00000000000E+00  0.00000000000E+00  0.72635997592E+02  0.72635997592E+02  0.00000000000E+00 0. -1.
         21   -1    0    0  501  502  0.00000000000E+00 -0.00000000000E+00 -0.19928976246E+04  0.19928976246E+04  0.00000000000E+00 0. -1.
        -24    2    1    2    0    0  0.81247077556E+02 -0.18304359124E+02 -0.17796449294E+03  0.21210804647E+03  0.79889457714E+02 0.  0.
         23    2    1    2    0    0 -0.13302159523E+03 -0.23041088745E+03 -0.41028775461E+03  0.49740608415E+03  0.91065081741E+02 0.  0.
         13    1    3    3    0    0  0.52442409087E+02 -0.47262098268E+02 -0.13776168619E+03  0.15479726866E+03  0.00000000000E+00 0. -1.
        -14    1    3    3    0    0  0.28804668469E+02  0.28957739144E+02 -0.40202806757E+02  0.57310777809E+02  0.00000000000E+00 0.  1.
        -13    1    4    4    0    0  0.53566224542E+01 -0.55465268117E+02 -0.57928921077E+02  0.80379408237E+02  0.00000000000E+00 0.  1.
         13    1    4    4    0    0 -0.13837821769E+03 -0.17494561934E+03 -0.35235883353E+03  0.41702667591E+03  0.00000000000E+00 0. -1.
          2    1    1    2  501    0  0.51774517677E+02  0.24871524658E+03 -0.13320093794E+04  0.13560194915E+04  0.00000000000E+00 0. -1.
<scales pt_clust_5="13000.00000" pt_clust_6="13000.00000" pt_clust_7="13000.00000" pt_clust_8="13000.00000" pt_clust_9="254.38972"></scales>
<clustering>
<clus scale="   79.889">  5  6 -1 -1</clus>
<clus scale="   91.065">  7  8 -1 -1</clus>
<clus scale="  115.406">  1  5  2 -1</clus>
<clus scale="  254.390">  2  9  1 -1</clus>
<clus scale="  254.390">  2  5  1 -1</clus>
</clustering>
</event>
<event>
 9    1  0.6270443E-005  0.1631574E+03  0.7546771E-02  0.1189443E+00
         21   -1    0    0  501  502  0.00000000000E+00  0.00000000000E+00  0.27515566379E+03  0.27515566379E+03  0.00000000000E+00 0. -1.
         -2   -1    0    0    0  501 -0.00000000000E+00 -0.00000000000E+00 -0.31485149233E+03  0.31485149233E+03  0.00000000000E+00 0.  1.
        -24    2    1    2    0    0  0.13106731528E+03  0.65778758917E+02  0.46227956246E+02  0.17284548008E+03  0.78949666146E+02 0.  0.
         23    2    1    2    0    0  0.68010195205E+01 -0.15302912141E+03  0.67885858942E+02  0.19293475973E+03  0.95661725898E+02 0.  0.
         13    1    3    3    0    0  0.17774758320E+02  0.21772157723E+02  0.42867208986E+02  0.51259794103E+02  0.00000000000E+00 0. -1.
        -14    1    3    3    0    0  0.11329255696E+03  0.44006601194E+02  0.33607472599E+01  0.12158568598E+03  0.00000000000E+00 0.  1.
        -13    1    4    4    0    0  0.35497653526E+02 -0.21809479620E+02 -0.16247411751E+01  0.41693843563E+02  0.00000000000E+00 0.  1.
         13    1    4    4    0    0 -0.28696634005E+02 -0.13121964179E+03  0.69510600117E+02  0.15124091617E+03  0.00000000000E+00 0. -1.
         -1    1    1    2    0  502 -0.13786833480E+03  0.87250362490E+02 -0.15380964373E+03  0.22422691632E+03  0.00000000000E+00 0.  1.
<scales pt_clust_5="13000.00000" pt_clust_6="13000.00000" pt_clust_7="13000.00000" pt_clust_8="13000.00000" pt_clust_9="163.15738"></scales>
<clustering>
<clus scale="   78.950">  5  6 -1 -1</clus>
<clus scale="   95.662">  7  8 -1 -1</clus>
<clus scale="  163.157">  1  9  2 -1</clus>
<clus scale="  148.418">  2  5  1 -1</clus>
<clus scale="  163.157">  1  5  2 -1</clus>
</clustering>
</event>
<event>
 9    1  0.6270443E-005  0.1049330E+03  0.7546771E-02  0.1274116E+00
         21   -1    0    0  501  502  0.00000000000E+00  0.00000000000E+00  0.63113088599E+02  0.63113088599E+02  0.00000000000E+00 0.  1.
          1   -1    0    0  502    0 -0.00000000000E+00 -0.00000000000E+00 -0.35322344161E+03  0.35322344161E+03  0.00000000000E+00 0. -1.
         23    2    1    2    0    0  0.22816753934E+02 -0.28896619790E+02 -0.21120737939E+03  0.23382774834E+03  0.93334023206E+02 0.  0.
        -24    2    1    2    0    0 -0.57015242327E+02  0.58594100219E+02 -0.67707668838E+02  0.13585246610E+03  0.84779465013E+02 0.  0.
         13    1    4    4    0    0 -0.36953652454E+02  0.69544686057E+02 -0.77949581383E+02  0.11080691777E+03  0.00000000000E+00 0. -1.
        -14    1    4    4    0    0 -0.20061589873E+02 -0.10950585838E+02  0.10241912545E+02  0.25045548327E+02  0.00000000000E+00 0.  1.
        -11    1    3    3    0    0 -0.24678852109E+02  0.20038751778E+02 -0.58338004626E+02  0.66437339636E+02  0.00000000000E+00 0.  1.
         11    1    3    3    0    0  0.47495606043E+02 -0.48935371568E+02 -0.15286937476E+03  0.16739040870E+03  0.00000000000E+00 0. -1.
          2    1    1    2  501    0  0.34198488393E+02 -0.29697480429E+02 -0.11195304781E+02  0.46656315772E+02  0.00000000000E+00 0. -1.
<scales pt_clust_5="13000.00000" pt_clust_6="13000.00000" pt_clust_7="13000.00000" pt_clust_8="13000.00000" pt_clust_9="45.29323"></scales>
<clustering>
<clus scale="   45.293">  1  9  2 -1</clus>
<clus scale="   84.779">  5  6 -1 -1</clus>
<clus scale="   93.334">  7  8 -1 -1</clus>
<clus scale="   97.403">  1  5  2 -1</clus>
<clus scale="   45.293">  1  5  2 -1</clus>
</clustering>
</event>
<event>
 9    1  0.6270443E-005  0.9156284E+02  0.7546771E-02  0.1304857E+00
          1   -1    0    0  502    0 -0.00000000000E+00  0.00000000000E+00  0.25503396262E+03  0.25503396262E+03  0.00000000000E+00 0. -1.
         21   -1    0    0  501  502  0.00000000000E+00 -0.00000000000E+00 -0.73107892873E+02  0.73107892873E+02  0.00000000000E+00 0. -1.
         23    2    1    2    0    0 -0.22522809481E+02  0.81060808428E+01  0.18408925109E+03  0.20623214066E+03  0.89832388274E+02 0.  0.
        -24    2    1    2    0    0 -0.11469574061E+02  0.34432079369E+00 -0.18357055178E+02  0.83320429060E+02  0.80458950640E+02 0.  0.
         11    1    4    4    0    0 -0.15372014855E+02  0.36832553713E+02 -0.23421362430E+02  0.46276301406E+02  0.00000000000E+00 0. -1.
        -12    1    4    4    0    0  0.39024407940E+01 -0.36488232919E+02  0.50643072526E+01  0.37044127654E+02  0.00000000000E+00 0.  1.
        -13    1    3    3    0    0  0.20439636974E+01  0.40374197771E+02  0.14257742651E+03  0.14819776038E+03  0.00000000000E+00 0.  1.
         13    1    3    3    0    0 -0.24566773178E+02 -0.32268116928E+02  0.41511824580E+02  0.58034380279E+02  0.00000000000E+00 0. -1.
          2    1    1    2  501    0  0.33992383542E+02 -0.84504016365E+01  0.16193873843E+02  0.38589285776E+02  0.00000000000E+00 0. -1.
<scales pt_clust_5="13000.00000" pt_clust_6="13000.00000" pt_clust_7="13000.00000" pt_clust_8="13000.00000" pt_clust_9="35.02701"></scales>
<clustering>
<clus scale="   35.027">  2  9  1 -1</clus>
<clus scale="   80.459">  5  6 -1 -1</clus>
<clus scale="   82.387">  2  5  1 -1</clus>
<clus scale="   89.832">  7  8 -1 -1</clus>
<clus scale="   35.027">  2  5  1 -1</clus>
</clustering>
</event>
<event>
 9    1  0.6270443E-005  0.1355274E+03  0.7546771E-02  0.1221326E+00
         21   -1    0    0  501  502  0.00000000000E+00  0.00000000000E+00  0.82310213751E+02  0.82310213751E+02  0.00000000000E+00 0. -1.
          1   -1    0    0  502    0 -0.00000000000E+00 -0.00000000000E+00 -0.10109342077E+04  0.10109342077E+04  0.00000000000E+00 0. -1.
        -24    2    1    2    0    0  0.11572837903E+03  0.14340076304E+02 -0.85741015634E+03  0.86918233886E+03  0.82018696025E+02 0.  0.
         23    2    1    2    0    0 -0.31762086535E+02  0.40634247043E+02 -0.67260031378E+02  0.12362231410E+03  0.89992180483E+02 0.  0.
         11    1    3    3    0    0  0.10414259987E+03  0.38133667439E+02 -0.57965554030E+03  0.59016980869E+03  0.00000000000E+00 0. -1.
        -12    1    3    3    0    0  0.11585779165E+02 -0.23793591135E+02 -0.27775461604E+03  0.27901253017E+03  0.00000000000E+00 0.  1.
        -13    1    4    4    0    0 -0.47575477934E+02  0.18950906349E+02 -0.79147474453E+02  0.94270279857E+02  0.00000000000E+00 0.  1.
         13    1    4    4    0    0  0.15813391399E+02  0.21683340694E+02  0.11887443075E+02  0.29352034240E+02  0.00000000000E+00 0. -1.
          2    1    1    2  501    0 -0.83966292495E+02 -0.54974323347E+02 -0.39538061924E+01  0.10043976845E+03  0.00000000000E+00 0. -1.
<scales pt_clust_5="13000.00000" pt_clust_6="13000.00000" pt_clust_7="13000.00000" pt_clust_8="13000.00000" pt_clust_9="100.36192"></scales>
<clustering>
<clus scale="   82.019">  5  6 -1 -1</clus>
<clus scale="   89.992">  7  8 -1 -1</clus>
<clus scale="  100.362">  1  9  2 -1</clus>
<clus scale="  130.369">  2  5  1 -1</clus>
<clus scale="  100.362">  1  5  2 -1</clus>
</clustering>
</event>
<event>
 9    1  0.6270443E-005  0.4327585E+03  0.7546771E-02  0.1059022E+00
          1   -1    0    0  502    0 -0.00000000000E+00  0.00000000000E+00  0.15190259862E+04  0.15190259862E+04  0.00000000000E+00 0. -1.
         21   -1    0    0  501  502  0.00000000000E+00 -0.00000000000E+00 -0.34385594702E+03  0.34385594702E+03  0.00000000000E+00 0. -1.
         23    2    1    2    0    0  0.43696819286E+02  0.17786124652E+03  0.14948220261E+03  0.25347473884E+03  0.91435656631E+02 0.  0.
        -24    2    1    2    0    0  0.91320093179E+02  0.25289040671E+03  0.11146847914E+04  0.11493017593E+04  0.77970716558E+02 0.  0.
         11    1    4    4    0    0  0.89894864553E+02  0.24186312414E+03  0.11044454659E+04  0.11341863360E+04  0.00000000000E+00 0. -1.
        -12    1    4    4    0    0  0.14252286256E+01  0.11027282572E+02  0.10239325441E+02  0.15115423350E+02  0.00000000000E+00 0.  1.
        -13    1    3    3    0    0  0.46974541959E+02  0.36217075106E+02  0.23227005012E+02  0.63700689818E+02  0.00000000000E+00 0.  1.
         13    1    3    3    0    0 -0.32777226731E+01  0.14164417141E+03  0.12625519760E+03  0.18977404902E+03  0.00000000000E+00 0. -1.
          2    1    1    2  501    0 -0.13501691246E+03 -0.43075165323E+03 -0.88996954787E+02  0.46010543506E+03  0.00000000000E+00 0. -1.
<scales pt_clust_5="13000.00000" pt_clust_6="13000.00000" pt_clust_7="13000.00000" pt_clust_8="13000.00000" pt_clust_9="425.67654"></scales>
<clustering>
<clus scale="   77.971">  5  6 -1 -1</clus>
<clus scale="   91.436">  7  8 -1 -1</clus>
<clus scale="  204.706">  1  7  2 -1</clus>
<clus scale="  425.677">  2  9  1 -1</clus>
<clus scale="  425.677">  2  5  1 -1</clus>
</clustering>
</event>
<event>
 9    1  0.6270443E-005  0.1137185E+03  0.7546771E-02  0.1263658E+00
         21   -1    0    0  501  502  0.00000000000E+00  0.00000000000E+00  0.65294650629E+03  0.65294650629E+03  0.00000000000E+00 0. -1.
          3   -1    0    0  502    0 -0.00000000000E+00 -0.00000000000E+00 -0.32778958391E+02  0.32778958391E+02  0.00000000000E+00 0. -1.
         23    2    1    2    0    0  0.49541285059E+02 -0.47121536428E+02  0.20902339795E+03  0.24511557223E+03  0.10824086446E+03 0.  0.
        -24    2    1    2    0    0  0.72094364755E+01  0.14086662290E+02  0.18358416218E+03  0.20376501634E+03  0.86986362461E+02 0.  0.
         13    1    4    4    0    0  0.27846885164E+02  0.43147482809E+02  0.12572294876E+03  0.13580653199E+03  0.00000000000E+00 0. -1.
        -14    1    4    4    0    0 -0.20637448688E+02 -0.29060820518E+02  0.57861213416E+02  0.67958484352E+02  0.00000000000E+00 0.  1.
        -13    1    3    3    0    0 -0.96096073295E+00 -0.60474308580E+02  0.52445416819E+02  0.80053651941E+02  0.00000000000E+00 0. -1.
         13    1    3    3    0    0  0.50502245792E+02  0.13352772152E+02  0.15657798113E+03  0.16506192029E+03  0.00000000000E+00 0.  1.
          4    1    1    2  501    0 -0.56750721535E+02  0.33034874137E+02  0.22755998777E+03  0.23684487611E+03  0.00000000000E+00 0. -1.
<scales pt_clust_5="13000.00000" pt_clust_6="13000.00000" pt_clust_7="13000.00000" pt_clust_8="13000.00000" pt_clust_9="65.66542"></scales>
<clustering>
<clus scale="   65.665">  1  9  2 -1</clus>
<clus scale="   86.986">  5  6 -1 -1</clus>
<clus scale="   93.715">  1  5  2 -1</clus>
<clus scale="  108.241">  7  8 -1 -1</clus>
<clus scale="   65.665">  1  5  2 -1</clus>
</clustering>
</event>
<event>
 9    1  0.6270443E-005  0.1697841E+03  0.7546771E-02  0.1198913E+00
         21   -1    0    0  501  502  0.00000000000E+00  0.00000000000E+00  0.12029585468E+03  0.12029585468E+03  0.00000000000E+00 0. -1.
         -4   -1    0    0    0  501 -0.00000000000E+00 -0.00000000000E+00 -0.46493924612E+03  0.46493924612E+03  0.00000000000E+00 0.  1.
         23    2    1    2    0    0  0.12950043234E+02 -0.49500273785E+02 -0.20008488943E+03  0.22690048545E+03  0.93978117635E+02 0.  0.
        -24    2    1    2    0    0 -0.12329735692E+03  0.11563284862E+03 -0.36544468550E+02  0.19035521626E+03  0.79538772122E+02 0.  0.
         13    1    4    4    0    0 -0.12589364406E+03  0.95491502519E+02 -0.11954788068E+02  0.15846372968E+03  0.00000000000E+00 0. -1.
        -14    1    4    4    0    0  0.25962871358E+01  0.20141346101E+02 -0.24589680482E+02  0.31891486574E+02  0.00000000000E+00 0.  1.
        -11    1    3    3    0    0  0.24768047578E+02 -0.71122394904E+02 -0.10862132206E+03  0.13217580279E+03  0.00000000000E+00 0.  1.
         11    1    3    3    0    0 -0.11818004343E+02  0.21622121119E+02 -0.91463567375E+02  0.94724682662E+02  0.00000000000E+00 0. -1.
         -3    1    1    2    0  502  0.11034731369E+03 -0.66132574835E+02 -0.10801403346E+03  0.16797939908E+03  0.00000000000E+00 0.  1.
<scales pt_clust_5="13000.00000" pt_clust_6="13000.00000" pt_clust_7="13000.00000" pt_clust_8="13000.00000" pt_clust_9="150.00084"></scales>
<clustering>
<clus scale="   79.539">  5  6 -1 -1</clus>
<clus scale="   93.978">  7  8 -1 -1</clus>
<clus scale="  107.004">  2  7  1 -1</clus>
<clus scale="  150.001">  1  9  2 -1</clus>
<clus scale="  150.001">  1  5  2 -1</clus>
</clustering>
</event>
<event>
 9    1  0.6270443E-005  0.1417165E+03  0.7546771E-02  0.1216013E+00
         -4   -1    0    0    0  501 -0.00000000000E+00  0.00000000000E+00  0.63647442098E+02  0.63647442098E+02  0.00000000000E+00 0.  1.
         21   -1    0    0  501  502  0.00000000000E+00 -0.00000000000E+00 -0.59880997190E+03  0.59880997190E+03  0.00000000000E+00 0.  1.
         23    2    1    2    0    0  0.53721786545E+02 -0.66007299235E+02 -0.23886421523E+03  0.27317468791E+03  0.10161349759E+03 0.  0.
        -24    2    1    2    0    0 -0.38285392233E+01  0.12551037365E+03 -0.26778922224E+03  0.30656198904E+03  0.80632958337E+02 0.  0.
         13    1    4    4    0    0 -0.36781747590E+02  0.67983311945E+02 -0.10177634657E+03  0.12780083091E+03  0.00000000000E+00 0. -1.
        -14    1    4    4    0    0  0.32953208366E+02  0.57527061701E+02 -0.16601287566E+03  0.17876115813E+03  0.00000000000E+00 0.  1.
        -11    1    3    3    0    0  0.54871669862E+02 -0.14818851691E+02 -0.44516891909E+02  0.72195929139E+02  0.00000000000E+00 0.  1.
         11    1    3    3    0    0 -0.11498833176E+01 -0.51188447544E+02 -0.19434732332E+03  0.20097875877E+03  0.00000000000E+00 0. -1.
         -3    1    1    2    0  502 -0.49893247322E+02 -0.59503074411E+02 -0.28509092329E+02  0.82720737050E+02  0.00000000000E+00 0.  1.
<scales pt_clust_5="13000.00000" pt_clust_6="13000.00000" pt_clust_7="13000.00000" pt_clust_8="13000.00000" pt_clust_9="77.65280"></scales>
<clustering>
<clus scale="   77.653">  2  9  1 -1</clus>
<clus scale="   80.633">  5  6 -1 -1</clus>
<clus scale="  101.613">  7  8 -1 -1</clus>
<clus scale="  127.514">  2  5  1 -1</clus>
<clus scale="   77.653">  2  5  1 -1</clus>
</clustering>
</event>
<event>
 9    1  0.6270443E-005  0.1122559E+03  0.7546771E-02  0.1261690E+00
         21   -1    0    0  501  502  0.00000000000E+00  0.00000000000E+00  0.14528857042E+03  0.14528857042E+03  0.00000000000E+00 0. -1.
          3   -1    0    0  502    0 -0.00000000000E+00 -0.00000000000E+00 -0.22009973780E+03  0.22009973780E+03  0.00000000000E+00 0. -1.
        -24    2    1    2    0    0 -0.59348712639E+02 -0.42530453634E+02 -0.98177128702E+02  0.14596648194E+03  0.79601231594E+02 0.  0.
         23    2    1    2    0    0  0.10675147929E+01  0.23240521038E+02  0.88004249517E+02  0.13027639553E+03  0.93198336319E+02 0.  0.
         11    1    3    3    0    0 -0.19696846514E+02 -0.54463906537E+02 -0.84332475347E+02  0.10230468844E+03  0.00000000000E+00 0. -1.
        -12    1    3    3    0    0 -0.39651866125E+02  0.11933452903E+02 -0.13844653355E+02  0.43661793503E+02  0.00000000000E+00 0.  1.
        -13    1    4    4    0    0 -0.32665012286E+02 -0.21812291960E+02  0.29732285590E+02  0.49262439186E+02  0.00000000000E+00 0.  1.
         13    1    4    4    0    0  0.33732527079E+02  0.45052812998E+02  0.58271963927E+02  0.81013956341E+02  0.00000000000E+00 0. -1.
          4    1    1    2  501    0  0.58281197847E+02  0.19289932596E+02 -0.64638288196E+02  0.89145430746E+02  0.00000000000E+00 0. -1.
<scales pt_clust_5="13000.00000" pt_clust_6="13000.00000" pt_clust_7="13000.00000" pt_clust_8="13000.00000" pt_clust_9="61.39058"></scales>
<clustering>
<clus scale="   61.391">  1  9  2 -1</clus>
<clus scale="   79.601">  5  6 -1 -1</clus>
<clus scale="   93.198">  7  8 -1 -1</clus>
<clus scale="  101.251">  2  5  1 -1</clus>
<clus scale="   61.391">  1  5  2 -1</clus>
</clustering>
</event>
<event>
 9    1  0.6270443E-005  0.2238937E+03  0.7546771E-02  0.1158538E+00
         21   -1    0    0  501  502  0.00000000000E+00  0.00000000000E+00  0.54505726642E+03  0.54505726642E+03  0.00000000000E+00 0. -1.
          1   -1    0    0  502    0 -0.00000000000E+00 -0.00000000000E+00 -0.54053874552E+03  0.54053874552E+03  0.00000000000E+00 0. -1.
         23    2    1    2    0    0 -0.45721849341E+02 -0.55842968127E+02  0.41107595738E+03  0.42710446094E+03  0.90696489582E+02 0.  0.
        -24    2    1    2    0    0  0.31769628083E+02  0.25083154976E+03 -0.37537077696E+03  0.46053241589E+03  0.85212148562E+02 0.  0.
         13    1    4    4    0    0  0.12239952924E+02  0.23278195238E+03 -0.36252126032E+03  0.43099758466E+03  0.00000000000E+00 0. -1.
        -14    1    4    4    0    0  0.19529675159E+02  0.18049597382E+02 -0.12849516637E+02  0.29534831221E+02  0.00000000000E+00 0.  1.
        -13    1    3    3    0    0 -0.71989682645E+02 -0.53171678758E+02  0.31952005664E+03  0.33181743237E+03  0.00000000000E+00 0. -1.
         13    1    3    3    0    0  0.26267833304E+02 -0.26712893696E+01  0.91555900735E+02  0.95287028566E+02  0.00000000000E+00 0.  1.
          2    1    1    2  501    0  0.13952221258E+02 -0.19498858164E+03 -0.31186659523E+02  0.19795913512E+03  0.00000000000E+00 0. -1.
<scales pt_clust_5="13000.00000" pt_clust_6="13000.00000" pt_clust_7="13000.00000" pt_clust_8="13000.00000" pt_clust_9="207.04412"></scales>
<clustering>
<clus scale="   85.212">  5  6 -1 -1</clus>
<clus scale="   90.696">  7  8 -1 -1</clus>
<clus scale="  115.909">  2  7  1 -1</clus>
<clus scale="  207.044">  1  9  2 -1</clus>
<clus scale="  207.044">  1  5  2 -1</clus>
</clustering>
</event>
<event>
 9    1  0.6270443E-005  0.2345304E+03  0.7546771E-02  0.1160912E+00
         21   -1    0    0  501  502  0.00000000000E+00  0.00000000000E+00  0.10845436177E+03  0.10845436177E+03  0.00000000000E+00 0.  1.
          1   -1    0    0  502    0 -0.00000000000E+00 -0.00000000000E+00 -0.83518275209E+03  0.83518275209E+03  0.00000000000E+00 0. -1.
         23    2    1    2    0    0 -0.21885397071E+02 -0.14379233312E+02 -0.29480583505E+03  0.30986291037E+03  0.91754072863E+02 0.  0.
        -24    2    1    2    0    0  0.10221518569E+03 -0.19309764217E+03 -0.16228753657E+03  0.28419935872E+03  0.81837566995E+02 0.  0.
         11    1    4    4    0    0 -0.36415921597E+01 -0.42693397060E+02 -0.60057041100E+02  0.73775575442E+02  0.00000000000E+00 0. -1.
        -12    1    4    4    0    0  0.10585677785E+03 -0.15040424511E+03 -0.10223049547E+03  0.21042378328E+03  0.00000000000E+00 0.  1.
        -13    1    3    3    0    0  0.10328188035E+02 -0.47317512201E+02 -0.12962682261E+03  0.13837894193E+03  0.00000000000E+00 0.  1.
         13    1    3    3    0    0 -0.32213585107E+02  0.32938278890E+02 -0.16517901244E+03  0.17148396844E+03  0.00000000000E+00 0. -1.
          2    1    1    2  501    0 -0.80329788622E+02  0.20747687548E+03 -0.26963501870E+03  0.34957484478E+03  0.00000000000E+00 0. -1.
<scales pt_clust_5="13000.00000" pt_clust_6="13000.00000" pt_clust_7="13000.00000" pt_clust_8="13000.00000" pt_clust_9="219.78895"></scales>
<clustering>
<clus scale="   81.838">  5  6 -1 -1</clus>
<clus scale="   91.754">  7  8 -1 -1</clus>
<clus scale="   95.418">  2  7  1 -1</clus>
<clus scale="  219.789">  1  9  2 -1</clus>
<clus scale="  219.789">  1  5  2 -1</clus>
</clustering>
</event>
<event>
 9    1  0.6270443E-005  0.1696552E+03  0.7546771E-02  0.1179888E+00
          1   -1    0    0  502    0 -0.00000000000E+00  0.00000000000E+00  0.10487849121E+04  0.10487849121E+04  0.00000000000E+00 0. -1.
         21   -1    0    0  501  502  0.00000000000E+00 -0.00000000000E+00 -0.61521198160E+02  0.61521198160E+02  0.00000000000E+00 0. -1.
         23    2    1    2    0    0 -0.14115770668E+03 -0.15563037187E+02  0.72072224865E+03  0.74024496784E+03  0.91402113936E+02 0.  0.
        -24    2    1    2    0    0  0.14166747985E+03  0.54061341088E+02  0.97862094973E+02  0.19704348655E+03  0.79100205518E+02 0.  0.
         13    1    4    4    0    0  0.81935658085E+02  0.35275928950E+02  0.10880234504E+02  0.89867806984E+02  0.00000000000E+00 0. -1.
        -14    1    4    4    0    0  0.59731821764E+02  0.18785412138E+02  0.86981860468E+02  0.10717567957E+03  0.00000000000E+00 0.  1.
        -13    1    3    3    0    0 -0.11970862774E+02 -0.31250043226E+02  0.85215838107E+02  0.91551110433E+02  0.00000000000E+00 0.  1.
         13    1    3    3    0    0 -0.12918684390E+03  0.15687006039E+02  0.63550641054E+03  0.64869385740E+03  0.00000000000E+00 0. -1.
          2    1    1    2  501    0 -0.50977317340E+00 -0.38498303901E+02  0.16867937035E+03  0.17301765590E+03  0.00000000000E+00 0. -1.
<scales pt_clust_5="13000.00000" pt_clust_6="13000.00000" pt_clust_7="13000.00000" pt_clust_8="13000.00000" pt_clust_9="38.50170"></scales>
<clustering>
<clus scale="   38.502">  2  9  1 -1</clus>
<clus scale="   79.100">  5  6 -1 -1</clus>
<clus scale="   91.402">  7  8 -1 -1</clus>
<clus scale="  163.357">  2  5  1 -1</clus>
<clus scale="   38.502">  2  5  1 -1</clus>
</clustering>
</event>
<event>
 9    1  0.1147312E-004  0.1089076E+03  0.7546771E-02  0.1266435E+00
         21   -1    0    0  501  502  0.00000000000E+00  0.00000000000E+00  0.30787803198E+03  0.30787803198E+03  0.00000000000E+00 0.  1.
          3   -1    0    0  502    0 -0.00000000000E+00 -0.00000000000E+00 -0.37276918152E+03  0.37276918152E+03  0.00000000000E+00 0. -1.
        -24    2    1    2    0    0  0.14533429997E+02 -0.59273319864E+02 -0.34228503230E+03  0.35700932940E+03  0.81068310127E+02 0.  0.
         23    2    1    2    0    0 -0.53843718446E+02  0.25847286617E+02  0.22644499217E+03  0.25112314126E+03  0.90654670901E+02 0.  0.
         11    1    3    3    0    0  0.83180007560E+01 -0.79693849801E+02 -0.27031669716E+03  0.28194222032E+03  0.00000000000E+00 0. -1.
        -12    1    3    3    0    0  0.62154292414E+01  0.20420529937E+02 -0.71968335141E+02  0.75067109086E+02  0.00000000000E+00 0.  1.
        -11    1    4    4    0    0 -0.36855290498E+02  0.46914752002E+02  0.21242451732E+03  0.22064333652E+03  0.00000000000E+00 0.  1.
         11    1    4    4    0    0 -0.16988427948E+02 -0.21067465385E+02  0.14020474851E+02  0.30479804739E+02  0.00000000000E+00 0. -1.
          4    1    1    2  501    0  0.39310288449E+02  0.33426033247E+02  0.50948890584E+02  0.72514742835E+02  0.00000000000E+00 0. -1.
<scales pt_clust_5="13000.00000" pt_clust_6="13000.00000" pt_clust_7="13000.00000" pt_clust_8="13000.00000" pt_clust_9="51.60037"></scales>
<clustering>
<clus scale="   51.600">  1  9  2 -1</clus>
<clus scale="   81.068">  5  6 -1 -1</clus>
<clus scale="   90.655">  7  8 -1 -1</clus>
<clus scale="  101.068">  2  5  1 -1</clus>
<clus scale="   51.600">  1  5  2 -1</clus>
</clustering>
</event>
<event>
 9    1  0.6270443E-005  0.1545588E+03  0.7546771E-02  0.1209260E+00
         -4   -1    0    0    0  501 -0.00000000000E+00  0.00000000000E+00  0.30287444030E+03  0.30287444030E+03  0.00000000000E+00 0.  1.
         21   -1    0    0  501  502  0.00000000000E+00 -0.00000000000E+00 -0.46871598984E+03  0.46871598984E+03  0.00000000000E+00 0.  1.
         23    2    1    2    0    0  0.29364323035E+02 -0.58476944684E+02  0.23671860753E+03  0.26250916509E+03  0.92701381207E+02 0.  0.
        -24    2    1    2    0    0  0.99599344507E+02 -0.13143512504E+02 -0.72867220416E+02  0.14789080295E+03  0.80431812360E+02 0.  0.
         11    1    4    4    0    0  0.39538212628E+02  0.34016436677E+02 -0.33351255173E+02  0.61908759022E+02  0.00000000000E+00 0. -1.
        -12    1    4    4    0    0  0.60061131879E+02 -0.47159949181E+02 -0.39515965244E+02  0.85982043931E+02  0.00000000000E+00 0.  1.
        -13    1    3    3    0    0 -0.17164144946E+02 -0.12705092356E+02  0.52170915570E+01  0.21982840758E+02  0.00000000000E+00 0. -1.
         13    1    3    3    0    0  0.46528467981E+02 -0.45771852328E+02  0.23150151597E+03  0.24052632433E+03  0.00000000000E+00 0.  1.
         -3    1    1    2    0  502 -0.12896366754E+03  0.71620457188E+02 -0.32969293666E+03  0.36119046210E+03  0.00000000000E+00 0.  1.
<scales pt_clust_5="13000.00000" pt_clust_6="13000.00000" pt_clust_7="13000.00000" pt_clust_8="13000.00000" pt_clust_9="131.98163"></scales>
<clustering>
<clus scale="   80.432">  5  6 -1 -1</clus>
<clus scale="   92.701">  7  8 -1 -1</clus>
<clus scale="  113.470">  1  7  2 -1</clus>
<clus scale="  131.982">  2  9  1 -1</clus>
<clus scale="  131.982">  2  5  1 -1</clus>
</clustering>
</event>
<event>
 9    1  0.6270443E-005  0.2038510E+03  0.7546771E-02  0.1160524E+00
          1   -1    0    0  502    0 -0.00000000000E+00  0.00000000000E+00  0.37759426269E+03  0.37759426269E+03  0.00000000000E+00 0. -1.
         21   -1    0    0  501  502  0.00000000000E+00 -0.00000000000E+00 -0.28860205679E+03  0.28860205679E+03  0.00000000000E+00 0.  1.
        -24    2    1    2    0    0 -0.81870359906E+02  0.91708431915E+02  0.16744973447E+03  0.22257016939E+03  0.79905409157E+02 0.  0.
         23    2    1    2    0    0  0.17119740503E+03  0.80895897958E+02 -0.12373217530E+03  0.24407322649E+03  0.91702731099E+02 0.  0.
         11    1    3    3    0    0 -0.54569276875E+02  0.88431494124E+01  0.91467915792E+02  0.10687556732E+03  0.00000000000E+00 0. -1.
        -12    1    3    3    0    0 -0.27301083031E+02  0.82865282503E+02  0.75981818677E+02  0.11569460207E+03  0.00000000000E+00 0.  1.
        -13    1    4    4    0    0  0.12779114902E+03  0.70533994524E+02 -0.13415056019E+03  0.19824730755E+03  0.00000000000E+00 0.  1.
         13    1    4    4    0    0  0.43406256007E+02  0.10361903434E+02  0.10418384889E+02  0.45825918943E+02  0.00000000000E+00 0. -1.
          2    1    1    2  501    0 -0.89327045124E+02 -0.17260432987E+03  0.45274646730E+02  0.19955292360E+03  0.00000000000E+00 0. -1.
<scales pt_clust_5="13000.00000" pt_clust_6="13000.00000" pt_clust_7="13000.00000" pt_clust_8="13000.00000" pt_clust_9="182.06012"></scales>
<clustering>
<clus scale="   79.905">  5  6 -1 -1</clus>
<clus scale="   91.703">  7  8 -1 -1</clus>
<clus scale="  146.622">  1  5  2 -1</clus>
<clus scale="  182.060">  2  9  1 -1</clus>
<clus scale="  182.060">  2  5  1 -1</clus>
</clustering>
</event>
<event>
 9    1  0.6270443E-005  0.9461344E+02  0.7546771E-02  0.1296410E+00
         21   -1    0    0  501  502  0.00000000000E+00  0.00000000000E+00  0.64490304900E+02  0.64490304900E+02  0.00000000000E+00 0.  1.
          3   -1    0    0  502    0 -0.00000000000E+00 -0.00000000000E+00 -0.18582138168E+03  0.18582138168E+03  0.00000000000E+00 0. -1.
        -24    2    1    2    0    0 -0.20018158673E+02  0.22914394095E+02 -0.62690193654E+02  0.10939433975E+03  0.84328317043E+02 0.  0.
         23    2    1    2    0    0 -0.10613431118E+02 -0.18235582140E+02 -0.30707622292E+02  0.99198614407E+02  0.91935986737E+02 0.  0.
         13    1    3    3    0    0  0.27580088938E+02 -0.10533580784E+02 -0.32299652091E+02  0.43759400763E+02  0.00000000000E+00 0. -1.
        -14    1    3    3    0    0 -0.47598247611E+02  0.33447974879E+02 -0.30390541563E+02  0.65634938985E+02  0.00000000000E+00 0.  1.
        -11    1    4    4    0    0  0.37551981991E+02 -0.25678569203E+02 -0.17070915028E+02  0.48589673879E+02  0.00000000000E+00 0.  1.
         11    1    4    4    0    0 -0.48165413109E+02  0.74429870624E+01 -0.13636707264E+02  0.50608940528E+02  0.00000000000E+00 0. -1.
          4    1    1    2  501    0  0.30631589792E+02 -0.46788119551E+01 -0.27933260838E+02  0.41718732429E+02  0.00000000000E+00 0. -1.
<scales pt_clust_5="13000.00000" pt_clust_6="13000.00000" pt_clust_7="13000.00000" pt_clust_8="13000.00000" pt_clust_9="30.98688"></scales>
<clustering>
<clus scale="   30.987">  1  9  2 -1</clus>
<clus scale="   84.328">  5  6 -1 -1</clus>
<clus scale="   87.240">  2  5  1 -1</clus>
<clus scale="   91.936">  7  8 -1 -1</clus>
<clus scale="   30.987">  1  5  2 -1</clus>
</clustering>
</event>
<event>
 9    1  0.6270443E-005  0.1107419E+03  0.7546771E-02  0.1263913E+00
         21   -1    0    0  501  502  0.00000000000E+00  0.00000000000E+00  0.26139833352E+03  0.26139833352E+03  0.00000000000E+00 0.  1.
         -4   -1    0    0    0  501 -0.00000000000E+00 -0.00000000000E+00 -0.13325049108E+03  0.13325049108E+03  0.00000000000E+00 0.  1.
        -24    2    1    2    0    0  0.30395479831E+02  0.52468645099E+02 -0.77602276987E+02  0.12646824158E+03  0.79342667101E+02 0.  0.
         23    2    1    2    0    0 -0.13668101739E+02 -0.73307104484E+02  0.87381252741E+02  0.14683300304E+03  0.91453260628E+02 0.  0.
         11    1    3    3    0    0 -0.11963825828E+02  0.55799468013E+02 -0.49315482302E+02  0.75423673695E+02  0.00000000000E+00 0. -1.
        -12    1    3    3    0    0  0.42359305659E+02 -0.33308229148E+01 -0.28286794685E+02  0.51044567887E+02  0.00000000000E+00 0.  1.
        -11    1    4    4    0    0 -0.34061121052E+02  0.67681947884E+01  0.19052887525E+02  0.39610364188E+02  0.00000000000E+00 0. -1.
         11    1    4    4    0    0  0.20393019314E+02 -0.80075299272E+02  0.68328365217E+02  0.10722263886E+03  0.00000000000E+00 0.  1.
         -3    1    1    2    0  502 -0.16727378092E+02  0.20838459385E+02  0.11836886668E+03  0.12134757998E+03  0.00000000000E+00 0.  1.
<scales pt_clust_5="13000.00000" pt_clust_6="13000.00000" pt_clust_7="13000.00000" pt_clust_8="13000.00000" pt_clust_9="26.72165"></scales>
<clustering>
<clus scale="   26.722">  1  9  2 -1</clus>
<clus scale="   79.343">  5  6 -1 -1</clus>
<clus scale="   91.453">  7  8 -1 -1</clus>
<clus scale="  100.972">  2  5  1 -1</clus>
<clus scale="   26.722">  1  5  2 -1</clus>
</clustering>
</event>
<event>
 9    1  0.6270443E-005  0.1264918E+03  0.7546771E-02  0.1236749E+00
          1   -1    0    0  502    0 -0.00000000000E+00  0.00000000000E+00  0.39644349082E+03  0.39644349082E+03  0.00000000000E+00 0. -1.
         21   -1    0    0  501  502  0.00000000000E+00 -0.00000000000E+00 -0.67921534919E+02  0.67921534919E+02  0.00000000000E+00 0. -1.
        -24    2    1    2    0    0  0.47752827232E+02  0.66482825960E+02  0.13787519182E+03  0.17838425148E+03  0.78173358628E+02 0.  0.
         23    2    1    2    0    0 -0.22545792588E+02 -0.99172451773E+02  0.61696966996E+02  0.15058484966E+03  0.92335222183E+02 0.  0.
         11    1    3    3    0    0  0.37911913932E+02 -0.64907375373E+01  0.59458251464E+02  0.70814734052E+02  0.00000000000E+00 0. -1.
        -12    1    3    3    0    0  0.98409133002E+01  0.72973563497E+02  0.78416940354E+02  0.10756951742E+03  0.00000000000E+00 0.  1.
        -13    1    4    4    0    0 -0.56992368609E+02 -0.48104291273E+02  0.23910083765E+02  0.78318867613E+02  0.00000000000E+00 0. -1.
         13    1    4    4    0    0  0.34446576021E+02 -0.51068160501E+02  0.37786883232E+02  0.72265982045E+02  0.00000000000E+00 0.  1.
          2    1    1    2  501    0 -0.25207034644E+02  0.32689625813E+02  0.12894979709E+03  0.13539592461E+03  0.00000000000E+00 0. -1.
<scales pt_clust_5="13000.00000" pt_clust_6="13000.00000" pt_clust_7="13000.00000" pt_clust_8="13000.00000" pt_clust_9="41.27963"></scales>
<clustering>
<clus scale="   41.280">  2  9  1 -1</clus>
<clus scale="   78.173">  5  6 -1 -1</clus>
<clus scale="   92.335">  7  8 -1 -1</clus>
<clus scale="  116.557">  1  5  2 -1</clus>
<clus scale="   41.280">  2  5  1 -1</clus>
</clustering>
</event>
<event>
 9    1  0.6270443E-005  0.1414885E+03  0.7546771E-02  0.1213617E+00
         21   -1    0    0  501  502  0.00000000000E+00  0.00000000000E+00  0.91263866805E+03  0.91263866805E+03  0.00000000000E+00 0. -1.
         -4   -1    0    0    0  501 -0.00000000000E+00 -0.00000000000E+00 -0.37796654954E+02  0.37796654954E+02  0.00000000000E+00 0.  1.
        -24    2    1    2    0    0  0.72011181191E+02  0.65771162408E+02  0.32045230434E+03  0.34472281495E+03  0.81441290325E+02 0.  0.
         23    2    1    2    0    0 -0.88178110534E+02 -0.87709946662E+02  0.55722342180E+03  0.57831342434E+03  0.92087246884E+02 0.  0.
         11    1    3    3    0    0  0.46920844070E+02  0.82794628915E+02  0.26424066384E+03  0.28085520221E+03  0.00000000000E+00 0. -1.
        -12    1    3    3    0    0  0.25090337121E+02 -0.17023466507E+02  0.56211640504E+02  0.63867612738E+02  0.00000000000E+00 0.  1.
        -13    1    4    4    0    0 -0.17460867243E+02 -0.75516016439E+02  0.36483292105E+03  0.37297534892E+03  0.00000000000E+00 0. -1.
         13    1    4    4    0    0 -0.70717243291E+02 -0.12193930223E+02  0.19239050076E+03  0.20533807541E+03  0.00000000000E+00 0.  1.
         -3    1    1    2    0  502  0.16166929343E+02  0.21938784254E+02 -0.28337130490E+01  0.27399083718E+02  0.00000000000E+00 0.  1.
<scales pt_clust_5="13000.00000" pt_clust_6="13000.00000" pt_clust_7="13000.00000" pt_clust_8="13000.00000" pt_clust_9="27.25217"></scales>
<clustering>
<clus scale="   27.252">  1  9  2 -1</clus>
<clus scale="   81.441">  5  6 -1 -1</clus>
<clus scale="   92.087">  7  8 -1 -1</clus>
<clus scale="  134.802">  2  5  1 -1</clus>
<clus scale="   27.252">  1  5  2 -1</clus>
</clustering>
</event>
<event>
 9    1  0.6270443E-005  0.1367933E+03  0.7546771E-02  0.1219391E+00
          1   -1    0    0  502    0 -0.00000000000E+00  0.00000000000E+00  0.49378954281E+03  0.49378954281E+03  0.00000000000E+00 0. -1.
         21   -1    0    0  501  502  0.00000000000E+00 -0.00000000000E+00 -0.63282112131E+02  0.63282112131E+02  0.00000000000E+00 0.  1.
        -24    2    1    2    0    0  0.86675987544E+02 -0.47551009336E+02  0.25202786922E+03  0.28278011284E+03  0.81686718916E+02 0.  0.
         23    2    1    2    0    0 -0.10067019022E+03  0.62980597944E+02  0.70614925908E+02  0.16443395467E+03  0.89168462886E+02 0.  0.
         11    1    3    3    0    0  0.48709765181E+02  0.13690132697E+02  0.65133969003E+02  0.82477238529E+02  0.00000000000E+00 0. -1.
        -12    1    3    3    0    0  0.37966222363E+02 -0.61241142033E+02  0.18689390022E+03  0.20030287431E+03  0.00000000000E+00 0.  1.
        -13    1    4    4    0    0 -0.47711537702E+02  0.79489010350E+02  0.38930562874E+02  0.10055089419E+03  0.00000000000E+00 0. -1.
         13    1    4    4    0    0 -0.52958652513E+02 -0.16508412406E+02  0.31684363034E+02  0.63883060486E+02  0.00000000000E+00 0.  1.
          2    1    1    2  501    0  0.13994202671E+02 -0.15429588608E+02  0.10786463556E+03  0.10985758744E+03  0.00000000000E+00 0. -1.
<scales pt_clust_5="13000.00000" pt_clust_6="13000.00000" pt_clust_7="13000.00000" pt_clust_8="13000.00000" pt_clust_9="20.83051"></scales>
<clustering>
<clus scale="   20.831">  2  9  1 -1</clus>
<clus scale="   81.687">  5  6 -1 -1</clus>
<clus scale="   89.168">  7  8 -1 -1</clus>
<clus scale="  132.038">  1  5  2 -1</clus>
<clus scale="   20.831">  2  5  1 -1</clus>
</clustering>
</event>
<event>
 9    1  0.6270443E-005  0.2052163E+03  0.7546771E-02  0.1175780E+00
         21   -1    0    0  501  502  0.00000000000E+00  0.00000000000E+00  0.27717106776E+03  0.27717106776E+03  0.00000000000E+00 0. -1.
          1   -1    0    0  502    0 -0.00000000000E+00 -0.00000000000E+00 -0.33329763922E+03  0.33329763922E+03  0.00000000000E+00 0. -1.
        -24    2    1    2    0    0  0.50951366892E+02 -0.34674420937E+02 -0.16880104441E+03  0.19684635820E+03  0.80351346521E+02 0.  0.
         23    2    1    2    0    0  0.14192718440E+03 -0.65950544375E+02  0.48070199614E+02  0.18668352150E+03  0.89706148820E+02 0.  0.
         13    1    3    3    0    0  0.37457827813E+01 -0.49933586743E+02 -0.67456850449E+02  0.84010836481E+02  0.00000000000E+00 0. -1.
        -14    1    3    3    0    0  0.47205584111E+02  0.15259165806E+02 -0.10134419396E+03  0.11283552172E+03  0.00000000000E+00 0.  1.
        -11    1    4    4    0    0  0.93277708859E+02 -0.81809321247E+02  0.53724756318E+02  0.13520297872E+03  0.00000000000E+00 0. -1.
         11    1    4    4    0    0  0.48649475537E+02  0.15858776872E+02 -0.56545567042E+01  0.51480542785E+02  0.00000000000E+00 0.  1.
          2    1    1    2  501    0 -0.19287855129E+03  0.10062496531E+03  0.64604273335E+02  0.22693882727E+03  0.00000000000E+00 0. -1.
<scales pt_clust_5="13000.00000" pt_clust_6="13000.00000" pt_clust_7="13000.00000" pt_clust_8="13000.00000" pt_clust_9="184.57131"></scales>
<clustering>
<clus scale="   80.351">  5  6 -1 -1</clus>
<clus scale="   89.706">  7  8 -1 -1</clus>
<clus scale="  101.265">  2  5  1 -1</clus>
<clus scale="  184.571">  1  9  2 -1</clus>
<clus scale="  184.571">  1  5  2 -1</clus>
</clustering>
</event>
<event>
 9    1  0.6270443E-005  0.1400027E+03  0.7546771E-02  0.1215644E+00
         21   -1    0    0  501  502  0.00000000000E+00  0.00000000000E+00  0.51218205379E+02  0.51218205379E+02  0.00000000000E+00 0. -1.
         -2   -1    0    0    0  501 -0.00000000000E+00 -0.00000000000E+00 -0.59399320478E+03  0.59399320478E+03  0.00000000000E+00 0.  1.
         23    2    1    2    0    0  0.54569768571E+02  0.81816755653E+02 -0.22819283413E+03  0.26461630244E+03  0.90983387603E+02 0.  0.
        -24    2    1    2    0    0 -0.10139522835E+03 -0.71638778585E+02 -0.15596630732E+03  0.21489898436E+03  0.80268160157E+02 0.  0.
         11    1    4    4    0    0 -0.64039361874E+02 -0.21833908627E+02 -0.29242796148E+02  0.73708212309E+02  0.00000000000E+00 0. -1.
        -12    1    4    4    0    0 -0.37355866472E+02 -0.49804869957E+02 -0.12672351117E+03  0.14119077206E+03  0.00000000000E+00 0.  1.
        -13    1    3    3    0    0  0.15022604569E+02  0.31270098177E+02 -0.84675591409E+01  0.35709904030E+02  0.00000000000E+00 0. -1.
         13    1    3    3    0    0  0.39547164002E+02  0.50546657476E+02 -0.21972527499E+03  0.22890639841E+03  0.00000000000E+00 0.  1.
         -1    1    1    2    0  502  0.46825459775E+02 -0.10177977069E+02 -0.15861585796E+03  0.16569612336E+03  0.00000000000E+00 0.  1.
<scales pt_clust_5="13000.00000" pt_clust_6="13000.00000" pt_clust_7="13000.00000" pt_clust_8="13000.00000" pt_clust_9="47.91886"></scales>
<clustering>
<clus scale="   47.919">  1  9  2 -1</clus>
<clus scale="   80.268">  5  6 -1 -1</clus>
<clus scale="   90.983">  7  8 -1 -1</clus>
<clus scale="  133.288">  1  5  2 -1</clus>
<clus scale="   47.919">  1  5  2 -1</clus>
</clustering>
</event>
<event>
 9    1  0.6270443E-005  0.9268176E+02  0.7546771E-02  0.1299024E+00
         21   -1    0    0  501  502  0.00000000000E+00  0.00000000000E+00  0.34251680783E+03  0.34251680783E+03  0.00000000000E+00 0. -1.
          1   -1    0    0  502    0 -0.00000000000E+00 -0.00000000000E+00 -0.11671870129E+03  0.11671870129E+03  0.00000000000E+00 0. -1.
         23    2    1    2    0    0 -0.29595885293E+02  0.37925729650E+02 -0.62949593876E+02  0.11064489478E+03  0.77235768755E+02 0.  0.
        -24    2    1    2    0    0  0.36806089144E+02 -0.83797436712E+02  0.27728310833E+03  0.30076136158E+03  0.72074793471E+02 0.  0.
         13    1    4    4    0    0  0.31420038231E+02 -0.33644030171E+02  0.21852807214E+03  0.22332410949E+03  0.00000000000E+00 0. -1.
        -14    1    4    4    0    0  0.53860509130E+01 -0.50153406541E+02  0.58755036194E+02  0.77437252083E+02  0.00000000000E+00 0.  1.
        -13    1    3    3    0    0 -0.46052703230E+02 -0.12137037004E+01 -0.19909184179E+02  0.50186653267E+02  0.00000000000E+00 0. -1.
         13    1    3    3    0    0  0.16456817937E+02  0.39139433350E+02 -0.43040409697E+02  0.60458241510E+02  0.00000000000E+00 0.  1.
          2    1    1    2  501    0 -0.72102038507E+01  0.45871707062E+02  0.11464592078E+02  0.47829252763E+02  0.00000000000E+00 0. -1.
<scales pt_clust_5="13000.00000" pt_clust_6="13000.00000" pt_clust_7="13000.00000" pt_clust_8="13000.00000" pt_clust_9="46.43493"></scales>
<clustering>
<clus scale="   46.435">  1  9  2 -1</clus>
<clus scale="   72.075">  5  6 -1 -1</clus>
<clus scale="   77.236">  7  8 -1 -1</clus>
<clus scale="   88.427">  1  5  2 -1</clus>
<clus scale="   46.435">  1  5  2 -1</clus>
</clustering>
</event>
<event>
 9    1  0.6270443E-005  0.1142782E+03  0.7546771E-02  0.1256012E+00
          1   -1    0    0  502    0 -0.00000000000E+00  0.00000000000E+00  0.57495348033E+03  0.57495348033E+03  0.00000000000E+00 0. -1.
         21   -1    0    0  501  502  0.00000000000E+00 -0.00000000000E+00 -0.34458822286E+02  0.34458822286E+02  0.00000000000E+00 0.  1.
         23    2    1    2    0    0  0.33067593045E+02 -0.53185041212E+02  0.34637056961E+03  0.36341510405E+03  0.90420418281E+02 0.  0.
        -24    2    1    2    0    0 -0.36763387688E+02  0.81480454172E+02  0.14153262550E+03  0.18616283330E+03  0.81452472872E+02 0.  0.
         13    1    4    4    0    0 -0.56089821102E+02  0.57119644821E+02  0.13063421043E+03  0.15321233237E+03  0.00000000000E+00 0. -1.
        -14    1    4    4    0    0  0.19326433414E+02  0.24360809351E+02  0.10898415068E+02  0.32950500934E+02  0.00000000000E+00 0.  1.
        -11    1    3    3    0    0 -0.13170378799E+02 -0.60331862459E+02  0.16729404993E+03  0.17832748427E+03  0.00000000000E+00 0.  1.
         11    1    3    3    0    0  0.46237971844E+02  0.71468212466E+01  0.17907651968E+03  0.18508761977E+03  0.00000000000E+00 0. -1.
          2    1    1    2  501    0  0.36957946429E+01 -0.28295412959E+02  0.52591462944E+02  0.59834365270E+02  0.00000000000E+00 0. -1.
<scales pt_clust_5="13000.00000" pt_clust_6="13000.00000" pt_clust_7="13000.00000" pt_clust_8="13000.00000" pt_clust_9="28.53575"></scales>
<clustering>
<clus scale="   28.536">  2  9  1 -1</clus>
<clus scale="   81.452">  5  6 -1 -1</clus>
<clus scale="   90.420">  7  8 -1 -1</clus>
<clus scale="  107.323">  2  5  1 -1</clus>
<clus scale="   28.536">  2  5  1 -1</clus>
</clustering>
</event>
<event>
 9    1  0.6270443E-005  0.1624097E+03  0.7546771E-02  0.1196986E+00
          1   -1    0    0  502    0 -0.00000000000E+00  0.00000000000E+00  0.34037304914E+03  0.34037304914E+03  0.00000000000E+00 0. -1.
         21   -1    0    0  501  502  0.00000000000E+00 -0.00000000000E+00 -0.21115470225E+03  0.21115470225E+03  0.00000000000E+00 0. -1.
         23    2    1    2    0    0  0.53487191393E+02  0.70290050909E+02 -0.96021764436E+02  0.15960903444E+03  0.91941795342E+02 0.  0.
        -24    2    1    2    0    0  0.11343775874E+03 -0.12811816937E+01  0.99190090732E+02  0.17165802891E+03  0.82207288333E+02 0.  0.
         11    1    4    4    0    0  0.96318618575E+02  0.23498220809E+02  0.10094423772E+03  0.14148915787E+03  0.00000000000E+00 0. -1.
        -12    1    4    4    0    0  0.17119140160E+02 -0.24779402502E+02 -0.17541469846E+01  0.30168871040E+02  0.00000000000E+00 0.  1.
        -13    1    3    3    0    0  0.66354912940E+02  0.12942490951E+02 -0.40798072858E+02  0.78961796410E+02  0.00000000000E+00 0.  1.
         13    1    3    3    0    0 -0.12867721547E+02  0.57347559959E+02 -0.55223691578E+02  0.80647238034E+02  0.00000000000E+00 0. -1.
          2    1    1    2  501    0 -0.16692495013E+03 -0.69008869215E+02  0.12605002059E+03  0.22026068804E+03  0.00000000000E+00 0. -1.
<scales pt_clust_5="13000.00000" pt_clust_6="13000.00000" pt_clust_7="13000.00000" pt_clust_8="13000.00000" pt_clust_9="140.06750"></scales>
<clustering>
<clus scale="   82.207">  5  6 -1 -1</clus>
<clus scale="   91.942">  7  8 -1 -1</clus>
<clus scale="  127.495">  1  7  2 -1</clus>
<clus scale="  140.067">  2  9  1 -1</clus>
<clus scale="  140.067">  2  5  1 -1</clus>
</clustering>
</event>
<event>
 9    1  0.6270443E-005  0.1107824E+03  0.7546771E-02  0.1259408E+00
         21   -1    0    0  501  502  0.00000000000E+00  0.00000000000E+00  0.61400459003E+02  0.61400459003E+02  0.00000000000E+00 0. -1.
          3   -1    0    0  502    0 -0.00000000000E+00 -0.00000000000E+00 -0.28928487633E+03  0.28928487633E+03  0.00000000000E+00 0. -1.
         23    2    1    2    0    0  0.28313497249E+02  0.68457164182E+02 -0.13743003553E+03  0.17691753137E+03  0.83215147576E+02 0.  0.
        -24    2    1    2    0    0 -0.23017193356E+00 -0.75078766008E+02 -0.92479963699E+02  0.14484338947E+03  0.82402607378E+02 0.  0.
         11    1    4    4    0    0  0.30854055425E+02 -0.19211404130E+02 -0.52956232262E+01  0.36730020558E+02  0.00000000000E+00 0. -1.
        -12    1    4    4    0    0 -0.31084227358E+02 -0.55867361878E+02 -0.87184340473E+02  0.10811336891E+03  0.00000000000E+00 0.  1.
        -13    1    3    3    0    0 -0.26985100237E+02  0.42402549292E+02 -0.63782997870E+02  0.81206173648E+02  0.00000000000E+00 0.  1.
         13    1    3    3    0    0  0.55298597486E+02  0.26054614890E+02 -0.73647037660E+02  0.95711357723E+02  0.00000000000E+00 0. -1.
          4    1    1    2  501    0 -0.28083325316E+02  0.66216018262E+01  0.20255819066E+01  0.28924414490E+02  0.00000000000E+00 0. -1.
<scales pt_clust_5="13000.00000" pt_clust_6="13000.00000" pt_clust_7="13000.00000" pt_clust_8="13000.00000" pt_clust_9="28.85340"></scales>
<clustering>
<clus scale="   28.853">  1  9  2 -1</clus>
<clus scale="   82.403">  5  6 -1 -1</clus>
<clus scale="   83.215">  7  8 -1 -1</clus>
<clus scale="  110.173">  1  5  2 -1</clus>
<clus scale="   28.853">  1  5  2 -1</clus>
</clustering>
</event>
<event>
 9    1  0.6270443E-005  0.1177855E+03  0.7546771E-02  0.1250610E+00
         21   -1    0    0  501  502  0.00000000000E+00  0.00000000000E+00  0.23872090580E+02  0.23872090580E+02  0.00000000000E+00 0. -1.
         -4   -1    0    0    0  501 -0.00000000000E+00 -0.00000000000E+00 -0.95831581852E+03  0.95831581852E+03  0.00000000000E+00 0.  1.
        -24    2    1    2    0    0  0.10070719258E+03 -0.11251097045E+02 -0.41481367315E+03  0.43452348155E+03  0.80447167542E+02 0.  0.
         23    2    1    2    0    0 -0.42314535672E+02  0.35805023333E+01 -0.21804045403E+03  0.24037819666E+03  0.91851499236E+02 0.  0.
         13    1    3    3    0    0  0.81684614832E+02  0.18009813563E+02 -0.35962995850E+03  0.36922951769E+03  0.00000000000E+00 0. -1.
        -14    1    3    3    0    0  0.19022577747E+02 -0.29260910608E+02 -0.55183714647E+02  0.65293963856E+02  0.00000000000E+00 0.  1.
        -11    1    4    4    0    0  0.20794983587E+02  0.24886919353E+02 -0.96191661668E+02  0.10151170313E+03  0.00000000000E+00 0.  1.
         11    1    4    4    0    0 -0.63109519259E+02 -0.21306417020E+02 -0.12184879236E+03  0.13886649354E+03  0.00000000000E+00 0. -1.
         -3    1    1    2    0  502 -0.58392656907E+02  0.76705947121E+01 -0.30158960076E+03  0.30728623089E+03  0.00000000000E+00 0.  1.
<scales pt_clust_5="13000.00000" pt_clust_6="13000.00000" pt_clust_7="13000.00000" pt_clust_8="13000.00000" pt_clust_9="58.89434"></scales>
<clustering>
<clus scale="   58.894">  1  9  2 -1</clus>
<clus scale="   80.447">  5  6 -1 -1</clus>
<clus scale="   91.851">  7  8 -1 -1</clus>
<clus scale="  109.126">  2  5  1 -1</clus>
<clus scale="   58.894">  1  5  2 -1</clus>
</clustering>
</event>
<event>
 9    1  0.6270443E-005  0.2801401E+03  0.7546771E-02  0.1096130E+00
         -4   -1    0    0    0  501 -0.00000000000E+00  0.00000000000E+00  0.71917713407E+03  0.71917713407E+03  0.00000000000E+00 0.  1.
         21   -1    0    0  501  502  0.00000000000E+00 -0.00000000000E+00 -0.20733142456E+03  0.20733142456E+03  0.00000000000E+00 0. -1.
         23    2    1    2    0    0 -0.43841304389E+02  0.19729691181E+03  0.13354672887E+03  0.25897765639E+03  0.91578197948E+02 0.  0.
        -24    2    1    2    0    0  0.17986734587E+03 -0.30857346620E+03  0.30799250039E+03  0.47824657461E+03  0.79313048575E+02 0.  0.
         13    1    4    4    0    0  0.14040503365E+03 -0.28982018827E+03  0.26684105359E+03  0.41822656884E+03  0.00000000000E+00 0. -1.
        -14    1    4    4    0    0  0.39462312213E+02 -0.18753277933E+02  0.41151446803E+02  0.60020005768E+02  0.00000000000E+00 0.  1.
        -11    1    3    3    0    0  0.57838778658E+01  0.13505171428E+03  0.11443511112E+03  0.17710960852E+03  0.00000000000E+00 0. -1.
         11    1    3    3    0    0 -0.49625182255E+02  0.62245197527E+02  0.19111617745E+02  0.81868047869E+02  0.00000000000E+00 0.  1.
         -3    1    1    2    0  502 -0.13602604148E+03  0.11127655440E+03  0.70306480252E+02  0.18928432762E+03  0.00000000000E+00 0.  1.
<scales pt_clust_5="13000.00000" pt_clust_6="13000.00000" pt_clust_7="13000.00000" pt_clust_8="13000.00000" pt_clust_9="175.74287"></scales>
<clustering>
<clus scale="   79.313">  5  6 -1 -1</clus>
<clus scale="   91.578">  7  8 -1 -1</clus>
<clus scale="  175.743">  2  9  1 -1</clus>
<clus scale="  276.374">  2  5  1 -1</clus>
<clus scale="  175.743">  2  5  1 -1</clus>
</clustering>
</event>
<event>
 9    1  0.6270443E-005  0.1017467E+03  0.7546771E-02  0.1289306E+00
         21   -1    0    0  501  502  0.00000000000E+00  0.00000000000E+00  0.19315657832E+03  0.19315657832E+03  0.00000000000E+00 0.  1.
         -4   -1    0    0    0  501 -0.00000000000E+00 -0.00000000000E+00 -0.38654456680E+03  0.38654456680E+03  0.00000000000E+00 0.  1.
        -24    2    1    2    0    0  0.12858567562E+02 -0.85260714521E+01 -0.22899214294E+03  0.24290478086E+03  0.79544291955E+02 0.  0.
         23    2    1    2    0    0  0.57165411250E+02  0.96471878003E+01 -0.11922845464E+03  0.16686181405E+03  0.10132367994E+03 0.  0.
         13    1    3    3    0    0 -0.31937531941E+02 -0.41055990938E+01 -0.60887763010E+02  0.68878019533E+02  0.00000000000E+00 0. -1.
        -14    1    3    3    0    0  0.44796099503E+02 -0.44204723584E+01 -0.16810437993E+03  0.17402676133E+03  0.00000000000E+00 0.  1.
        -11    1    4    4    0    0  0.31172166867E+02 -0.33202517163E+02 -0.99179159996E+01  0.46609829338E+02  0.00000000000E+00 0. -1.
         11    1    4    4    0    0  0.25993244383E+02  0.42849704964E+02 -0.10931053864E+03  0.12025198471E+03  0.00000000000E+00 0.  1.
         -3    1    1    2    0  502 -0.70023978812E+02 -0.11211163482E+01  0.15483260911E+03  0.16993455021E+03  0.00000000000E+00 0.  1.
<scales pt_clust_5="13000.00000" pt_clust_6="13000.00000" pt_clust_7="13000.00000" pt_clust_8="13000.00000" pt_clust_9="70.03295"></scales>
<clustering>
<clus scale="   70.033">  1  9  2 -1</clus>
<clus scale="   79.544">  5  6 -1 -1</clus>
<clus scale="   80.082">  2  5  1 -1</clus>
<clus scale="  101.324">  7  8 -1 -1</clus>
<clus scale="   70.033">  1  5  2 -1</clus>
</clustering>
</event>
<event>
 9    1  0.6270443E-005  0.1265369E+03  0.7546771E-02  0.1235730E+00
          1   -1    0    0  502    0 -0.00000000000E+00  0.00000000000E+00  0.23777893643E+03  0.23777893643E+03  0.00000000000E+00 0. -1.
         21   -1    0    0  501  502  0.00000000000E+00 -0.00000000000E+00 -0.13152848439E+03  0.13152848439E+03  0.00000000000E+00 0. -1.
         23    2    1    2    0    0  0.23198760549E+02  0.85811697030E+02  0.14203886747E+03  0.19116604081E+03  0.92019484065E+02 0.  0.
        -24    2    1    2    0    0  0.87688205049E+01 -0.85990939688E+02  0.13554066757E+02  0.11934819236E+03  0.81172312847E+02 0.  0.
         11    1    4    4    0    0  0.21066412918E+02  0.35727515649E+01  0.19257117019E+02  0.28764472233E+02  0.00000000000E+00 0. -1.
        -12    1    4    4    0    0 -0.12297592413E+02 -0.89563691253E+02 -0.57030502619E+01  0.90583720128E+02  0.00000000000E+00 0.  1.
        -13    1    3    3    0    0 -0.11506251804E+02  0.89219238042E+02  0.81938501493E+02  0.12168148707E+03  0.00000000000E+00 0.  1.
         13    1    3    3    0    0  0.34705012353E+02 -0.34075410123E+01  0.60100365977E+02  0.69484553742E+02  0.00000000000E+00 0. -1.
          2    1    1    2  501    0 -0.31967581054E+02  0.17924265782E+00 -0.49342482181E+02  0.58793187651E+02  0.00000000000E+00 0. -1.
<scales pt_clust_5="13000.00000" pt_clust_6="13000.00000" pt_clust_7="13000.00000" pt_clust_8="13000.00000" pt_clust_9="31.96808"></scales>
<clustering>
<clus scale="   31.968">  2  9  1 -1</clus>
<clus scale="   81.172">  5  6 -1 -1</clus>
<clus scale="   92.019">  7  8 -1 -1</clus>
<clus scale="  118.882">  2  5  1 -1</clus>
<clus scale="   31.968">  2  5  1 -1</clus>
</clustering>
</event>
<event>
 9    1  0.6270443E-005  0.9264658E+02  0.7546771E-02  0.1302644E+00
          1   -1    0    0  502    0 -0.00000000000E+00  0.00000000000E+00  0.12339545418E+03  0.12339545418E+03  0.00000000000E+00 0. -1.
         21   -1    0    0  501  502  0.00000000000E+00 -0.00000000000E+00 -0.35496324851E+03  0.35496324851E+03  0.00000000000E+00 0. -1.
         23    2    1    2    0    0 -0.76503604172E+01  0.10773925322E+02  0.73646329606E+02  0.11824401321E+03  0.91560140429E+02 0.  0.
        -24    2    1    2    0    0  0.51529847264E+02  0.45362474104E+02 -0.11422327839E+03  0.15626619724E+03  0.81603234348E+02 0.  0.
         11    1    4    4    0    0  0.51260691621E+02  0.66380523013E+02 -0.78824972308E+02  0.11509738746E+03  0.00000000000E+00 0. -1.
        -12    1    4    4    0    0  0.26915564282E+00 -0.21018048909E+02 -0.35398306083E+02  0.41168809775E+02  0.00000000000E+00 0.  1.
        -11    1    3    3    0    0 -0.15577355333E+02  0.50006177742E+02  0.38911320977E+02  0.65248469037E+02  0.00000000000E+00 0. -1.
         11    1    3    3    0    0  0.79269949154E+01 -0.39232252419E+02  0.34735008629E+02  0.52995544178E+02  0.00000000000E+00 0.  1.
          2    1    1    2  501    0 -0.43879486847E+02 -0.56136399427E+02 -0.19099084554E+03  0.20384849224E+03  0.00000000000E+00 0. -1.
<scales pt_clust_5="13000.00000" pt_clust_6="13000.00000" pt_clust_7="13000.00000" pt_clust_8="13000.00000" pt_clust_9="71.25100"></scales>
<clustering>
<clus scale="   71.251">  2  9  1 -1</clus>
<clus scale="   81.603">  5  6 -1 -1</clus>
<clus scale="   82.820">  2  5  1 -1</clus>
<clus scale="   91.560">  7  8 -1 -1</clus>
<clus scale="   71.251">  2  5  1 -1</clus>
</clustering>
</event>
<event>
 9    1  0.6270443E-005  0.9329051E+02  0.7546771E-02  0.1298361E+00
         -2   -1    0    0    0  501 -0.00000000000E+00  0.00000000000E+00  0.30420799708E+03  0.30420799708E+03  0.00000000000E+00 0.  1.
         21   -1    0    0  501  502  0.00000000000E+00 -0.00000000000E+00 -0.55561688129E+02  0.55561688129E+02  0.00000000000E+00 0. -1.
        -24    2    1    2    0    0  0.17378473202E+02 -0.30544103419E+02  0.18475603776E+03  0.20553914605E+03  0.82925228290E+02 0.  0.
         23    2    1    2    0    0  0.23481020809E+02  0.22461581222E+02  0.60996003626E+02  0.11247886612E+03  0.88741770869E+02 0.  0.
         13    1    3    3    0    0  0.32762653685E+02 -0.52751722768E+02  0.14169719441E+03  0.15470691851E+03  0.00000000000E+00 0. -1.
        -14    1    3    3    0    0 -0.15384180483E+02  0.22207619348E+02  0.43058843348E+02  0.50832227541E+02  0.00000000000E+00 0.  1.
        -13    1    4    4    0    0 -0.30990725891E+02 -0.12580243373E+01  0.61465959584E+01  0.31619430076E+02  0.00000000000E+00 0.  1.
         13    1    4    4    0    0  0.54471746700E+02  0.23719605559E+02  0.54849407667E+02  0.80859436047E+02  0.00000000000E+00 0. -1.
         -1    1    1    2    0  502 -0.40859494011E+02  0.80825221973E+01  0.28942675602E+01  0.41751673028E+02  0.00000000000E+00 0.  1.
<scales pt_clust_5="13000.00000" pt_clust_6="13000.00000" pt_clust_7="13000.00000" pt_clust_8="13000.00000" pt_clust_9="41.65124"></scales>
<clustering>
<clus scale="   41.651">  2  9  1 -1</clus>
<clus scale="   82.925">  5  6 -1 -1</clus>
<clus scale="   87.776">  1  5  2 -1</clus>
<clus scale="   88.742">  7  8 -1 -1</clus>
<clus scale="   41.651">  2  5  1 -1</clus>
</clustering>
</event>
<event>
 9    1  0.6270443E-005  0.2488787E+03  0.7546771E-02  0.1114766E+00
         21   -1    0    0  501  502  0.00000000000E+00  0.00000000000E+00  0.94898608815E+02  0.94898608815E+02  0.00000000000E+00 0. -1.
          1   -1    0    0  502    0 -0.00000000000E+00 -0.00000000000E+00 -0.10907003115E+04  0.10907003115E+04  0.00000000000E+00 0. -1.
        -24    2    1    2    0    0  0.20568739926E+02  0.20219677210E+03 -0.36430765592E+03  0.42431698929E+03  0.77577261692E+02 0.  0.
         23    2    1    2    0    0 -0.13056832162E+03 -0.24371499188E+03 -0.53536394523E+03  0.60941137110E+03  0.91228183704E+02 0.  0.
         13    1    3    3    0    0 -0.19149532541E+02  0.12941429498E+03 -0.18303186522E+03  0.22497872795E+03  0.00000000000E+00 0. -1.
        -14    1    3    3    0    0  0.39718272467E+02  0.72782477115E+02 -0.18127579070E+03  0.19933826134E+03  0.00000000000E+00 0.  1.
        -13    1    4    4    0    0 -0.77679942046E+02 -0.16537347200E+03 -0.43359266564E+03  0.47051584281E+03  0.00000000000E+00 0. -1.
         13    1    4    4    0    0 -0.52888379578E+02 -0.78341519876E+02 -0.10177127959E+03  0.13889552829E+03  0.00000000000E+00 0.  1.
          2    1    1    2  501    0  0.10999958170E+03  0.41518219780E+02 -0.96130101521E+02  0.15187055990E+03  0.00000000000E+00 0. -1.
<scales pt_clust_5="13000.00000" pt_clust_6="13000.00000" pt_clust_7="13000.00000" pt_clust_8="13000.00000" pt_clust_9="117.57411"></scales>
<clustering>
<clus scale="   77.577">  5  6 -1 -1</clus>
<clus scale="   91.228">  7  8 -1 -1</clus>
<clus scale="  117.574">  1  9  2 -1</clus>
<clus scale="  244.205">  2  5  1 -1</clus>
<clus scale="  117.574">  1  5  2 -1</clus>
</clustering>
</event>
<event>
 9    1  0.6270443E-005  0.2127284E+03  0.7546771E-02  0.1173407E+00
         21   -1    0    0  501  502  0.00000000000E+00  0.00000000000E+00  0.18530562483E+04  0.18530562483E+04  0.00000000000E+00 0.  1.
         -4   -1    0    0    0  501 -0.00000000000E+00 -0.00000000000E+00 -0.61484705858E+02  0.61484705858E+02  0.00000000000E+00 0.  1.
        -24    2    1    2    0    0  0.55957816319E+02 -0.14977861223E+02  0.67711156927E+03  0.68387470630E+03  0.76478252783E+02 0.  0.
         23    2    1    2    0    0 -0.94738880338E+02 -0.17385537593E+03  0.19855109063E+03  0.29469026339E+03  0.90656872641E+02 0.  0.
         13    1    3    3    0    0  0.59414349924E+02 -0.90011020583E+01  0.26592333390E+03  0.27262850975E+03  0.00000000000E+00 0. -1.
        -14    1    3    3    0    0 -0.34565336044E+01 -0.59767591642E+01  0.41118823537E+03  0.41124619655E+03  0.00000000000E+00 0.  1.
        -11    1    4    4    0    0 -0.65142816493E+02 -0.60952489399E+02  0.39894285838E+02  0.97725874501E+02  0.00000000000E+00 0.  1.
         11    1    4    4    0    0 -0.29596063845E+02 -0.11290288653E+03  0.15865680479E+03  0.19696438888E+03  0.00000000000E+00 0. -1.
         -3    1    1    2    0  502  0.38781064019E+02  0.18883323715E+03  0.91590888253E+03  0.93597598445E+03  0.00000000000E+00 0.  1.
<scales pt_clust_5="13000.00000" pt_clust_6="13000.00000" pt_clust_7="13000.00000" pt_clust_8="13000.00000" pt_clust_9="192.44402"></scales>
<clustering>
<clus scale="   76.478">  5  6 -1 -1</clus>
<clus scale="   90.657">  7  8 -1 -1</clus>
<clus scale="   95.940">  2  5  1 -1</clus>
<clus scale="  192.444">  1  9  2 -1</clus>
<clus scale="  192.444">  1  5  2 -1</clus>
</clustering>
</event>
<event>
 9    1  0.6270443E-005  0.1175419E+03  0.7546771E-02  0.1250579E+00
         21   -1    0    0  501  502  0.00000000000E+00  0.00000000000E+00  0.23011726945E+03  0.23011726945E+03  0.00000000000E+00 0. -1.
          1   -1    0    0  502    0 -0.00000000000E+00 -0.00000000000E+00 -0.23127466973E+03  0.23127466973E+03  0.00000000000E+00 0. -1.
         23    2    1    2    0    0 -0.60889841529E+02  0.23246587532E+02 -0.15168104289E+03  0.18926862448E+03  0.92560773582E+02 0.  0.
        -24    2    1    2    0    0  0.11856796580E+03 -0.60903054821E+02  0.11611270943E+03  0.19512404282E+03  0.82605606321E+02 0.  0.
         13    1    4    4    0    0  0.69215087442E+02 -0.78262193825E+02  0.75862823152E+02  0.12911571263E+03  0.00000000000E+00 0. -1.
        -14    1    4    4    0    0  0.49352878357E+02  0.17359139004E+02  0.40249886275E+02  0.66008330188E+02  0.00000000000E+00 0.  1.
        -13    1    3    3    0    0 -0.75924932912E+02  0.43375534632E+02 -0.12573972597E+03  0.15315518643E+03  0.00000000000E+00 0.  1.
         13    1    3    3    0    0  0.15035091384E+02 -0.20128947100E+02 -0.25941316915E+02  0.36113438047E+02  0.00000000000E+00 0. -1.
          2    1    1    2  501    0 -0.57678124270E+02  0.37656467289E+02  0.34410933184E+02  0.76999271884E+02  0.00000000000E+00 0. -1.
<scales pt_clust_5="13000.00000" pt_clust_6="13000.00000" pt_clust_7="13000.00000" pt_clust_8="13000.00000" pt_clust_9="68.88233"></scales>
<clustering>
<clus scale="   68.882">  1  9  2 -1</clus>
<clus scale="   82.606">  5  6 -1 -1</clus>
<clus scale="   92.561">  7  8 -1 -1</clus>
<clus scale="  109.874">  1  5  2 -1</clus>
<clus scale="   68.882">  1  5  2 -1</clus>
</clustering>
</event>
<event>
 9    1  0.6270443E-005  0.1154690E+03  0.7546771E-02  0.1251946E+00
          3   -1    0    0  502    0 -0.00000000000E+00  0.00000000000E+00  0.16056782002E+03  0.16056782002E+03  0.00000000000E+00 0. -1.
         21   -1    0    0  501  502  0.00000000000E+00 -0.00000000000E+00 -0.15410858766E+03  0.15410858766E+03  0.00000000000E+00 0.  1.
        -24    2    1    2    0    0  0.20851266140E+02  0.58438633391E+02  0.21903550384E+02  0.10343388289E+03  0.79805723088E+02 0.  0.
         23    2    1    2    0    0 -0.45011272888E+02 -0.89206074610E+02  0.46224197683E+02  0.13821275555E+03  0.83560462605E+02 0.  0.
         11    1    3    3    0    0  0.60120829582E+01  0.37916998572E+02  0.51657925766E+02  0.64361364316E+02  0.00000000000E+00 0. -1.
        -12    1    3    3    0    0  0.14839183182E+02  0.20521634819E+02 -0.29754375382E+02  0.39072518571E+02  0.00000000000E+00 0.  1.
        -11    1    4    4    0    0 -0.69830713036E+02 -0.64490287804E+02  0.30590737456E+02  0.99855490196E+02  0.00000000000E+00 0.  1.
         11    1    4    4    0    0  0.24819440148E+02 -0.24715786806E+02  0.15633460227E+02  0.38357265353E+02  0.00000000000E+00 0. -1.
          4    1    1    2  501    0  0.24160006748E+02  0.30767441220E+02 -0.61668515709E+02  0.73029769238E+02  0.00000000000E+00 0. -1.
<scales pt_clust_5="13000.00000" pt_clust_6="13000.00000" pt_clust_7="13000.00000" pt_clust_8="13000.00000" pt_clust_9="39.11958"></scales>
<clustering>
<clus scale="   39.120">  2  9  1 -1</clus>
<clus scale="   79.806">  5  6 -1 -1</clus>
<clus scale="   83.560">  7  8 -1 -1</clus>
<clus scale="  112.782">  1  5  2 -1</clus>
<clus scale="   39.120">  2  5  1 -1</clus>
</clustering>
</event>
<event>
 9    1  0.6270443E-005  0.9814723E+02  0.7546771E-02  0.1299069E+00
         -4   -1    0    0    0  501 -0.00000000000E+00  0.00000000000E+00  0.78782811841E+02  0.78782811841E+02  0.00000000000E+00 0.  1.
         21   -1    0    0  501  502  0.00000000000E+00 -0.00000000000E+00 -0.29847797667E+03  0.29847797667E+03  0.00000000000E+00 0. -1.
        -24    2    1    2    0    0 -0.42286208821E+01 -0.10294469287E+02  0.35905303126E+02  0.82599020006E+02  0.73549642969E+02 0.  0.
         23    2    1    2    0    0  0.38764191574E+02 -0.10905890427E+02 -0.19606732211E+03  0.22264540683E+03  0.97503750636E+02 0.  0.
         11    1    3    3    0    0 -0.19568341456E+02 -0.30489261918E+02  0.43036546080E+02  0.56255305333E+02  0.00000000000E+00 0. -1.
        -12    1    3    3    0    0  0.15339720574E+02  0.20194792631E+02 -0.71312429532E+01  0.26343714673E+02  0.00000000000E+00 0.  1.
        -11    1    4    4    0    0  0.57865533790E+02 -0.23133483700E+01 -0.19297008672E+03  0.20147264318E+03  0.00000000000E+00 0. -1.
         11    1    4    4    0    0 -0.19101342216E+02 -0.85925420570E+01 -0.30972353911E+01  0.21172763649E+02  0.00000000000E+00 0.  1.
         -3    1    1    2    0  502 -0.34535570692E+02  0.21200359714E+02 -0.59533145845E+02  0.72016361677E+02  0.00000000000E+00 0.  1.
<scales pt_clust_5="13000.00000" pt_clust_6="13000.00000" pt_clust_7="13000.00000" pt_clust_8="13000.00000" pt_clust_9="40.52358"></scales>
<clustering>
<clus scale="   40.524">  2  9  1 -1</clus>
<clus scale="   73.550">  5  6 -1 -1</clus>
<clus scale="   74.401">  1  5  2 -1</clus>
<clus scale="   97.504">  7  8 -1 -1</clus>
<clus scale="   40.524">  2  5  1 -1</clus>
</clustering>
</event>
<event>
 9    1  0.6270443E-005  0.9009990E+02  0.7546771E-02  0.1308344E+00
         21   -1    0    0  501  502  0.00000000000E+00  0.00000000000E+00  0.28264975479E+03  0.28264975479E+03  0.00000000000E+00 0.  1.
          3   -1    0    0  502    0 -0.00000000000E+00 -0.00000000000E+00 -0.43099700667E+02  0.43099700667E+02  0.00000000000E+00 0. -1.
         23    2    1    2    0    0 -0.16588043610E+01  0.13361973228E+02  0.39423111600E+02  0.98603376547E+02  0.89370857543E+02 0.  0.
        -24    2    1    2    0    0  0.20422812837E+02  0.17969403552E+01  0.16301789433E+03  0.18288591474E+03  0.80324987750E+02 0.  0.
         11    1    4    4    0    0  0.29347503369E+02  0.11377125652E+02  0.16041853935E+02  0.35327836330E+02  0.00000000000E+00 0. -1.
        -12    1    4    4    0    0 -0.89246905326E+01 -0.95801852972E+01  0.14697604040E+03  0.14755807840E+03  0.00000000000E+00 0.  1.
        -11    1    3    3    0    0 -0.38276064550E+02 -0.19503735781E+01  0.44342321454E+02  0.58609747879E+02  0.00000000000E+00 0.  1.
         11    1    3    3    0    0  0.36617260189E+02  0.15312346806E+02 -0.49192098540E+01  0.39993628668E+02  0.00000000000E+00 0. -1.
          4    1    1    2  501    0 -0.18764008476E+02 -0.15158913583E+02  0.37109048190E+02  0.44260164174E+02  0.00000000000E+00 0. -1.
<scales pt_clust_5="13000.00000" pt_clust_6="13000.00000" pt_clust_7="13000.00000" pt_clust_8="13000.00000" pt_clust_9="24.12220"></scales>
<clustering>
<clus scale="   24.122">  1  9  2 -1</clus>
<clus scale="   80.325">  5  6 -1 -1</clus>
<clus scale="   81.135">  1  5  2 -1</clus>
<clus scale="   89.371">  7  8 -1 -1</clus>
<clus scale="   24.122">  1  5  2 -1</clus>
</clustering>
</event>
<event>
 9    1  0.6270443E-005  0.1004875E+03  0.7546771E-02  0.1283056E+00
          1   -1    0    0  502    0 -0.00000000000E+00  0.00000000000E+00  0.11479686856E+03  0.11479686856E+03  0.00000000000E+00 0. -1.
         21   -1    0    0  501  502  0.00000000000E+00 -0.00000000000E+00 -0.35113401247E+03  0.35113401247E+03  0.00000000000E+00 0. -1.
        -24    2    1    2    0    0 -0.43185065449E+02 -0.14534072321E+02  0.71730388887E+02  0.11799636253E+03  0.81863934333E+02 0.  0.
         23    2    1    2    0    0  0.22413809519E+02  0.56592992185E+02 -0.25505144820E+03  0.27714537358E+03  0.89739463157E+02 0.  0.
         13    1    3    3    0    0 -0.67403240469E+02 -0.16491620351E+02  0.52804768038E+02  0.87198130112E+02  0.00000000000E+00 0. -1.
        -14    1    3    3    0    0  0.24218175020E+02  0.19575480298E+01  0.18925620848E+02  0.30798232418E+02  0.00000000000E+00 0.  1.
        -13    1    4    4    0    0  0.50672962421E+02  0.38915489308E+02 -0.10087314284E+03  0.11940500565E+03  0.00000000000E+00 0.  1.
         13    1    4    4    0    0 -0.28259152903E+02  0.17677502877E+02 -0.15417830536E+03  0.15774036793E+03  0.00000000000E+00 0. -1.
          2    1    1    2  501    0  0.20771255930E+02 -0.42058919864E+02 -0.53016084590E+02  0.70789144918E+02  0.00000000000E+00 0. -1.
<scales pt_clust_5="13000.00000" pt_clust_6="13000.00000" pt_clust_7="13000.00000" pt_clust_8="13000.00000" pt_clust_9="46.90840"></scales>
<clustering>
<clus scale="   46.908">  2  9  1 -1</clus>
<clus scale="   81.864">  5  6 -1 -1</clus>
<clus scale="   89.739">  7  8 -1 -1</clus>
<clus scale="   93.521">  1  5  2 -1</clus>
<clus scale="   46.908">  2  5  1 -1</clus>
</clustering>
</event>
<event>
 9    1  0.6270443E-005  0.1137956E+03  0.7546771E-02  0.1257316E+00
         -4   -1    0    0    0  501 -0.00000000000E+00  0.00000000000E+00  0.40589459667E+03  0.40589459667E+03  0.00000000000E+00 0.  1.
         21   -1    0    0  501  502  0.00000000000E+00 -0.00000000000E+00 -0.69370153413E+02  0.69370153413E+02  0.00000000000E+00 0.  1.
         23    2    1    2    0    0  0.38069326189E+02  0.78904224299E+01  0.12488431436E+03  0.15913498569E+03  0.90643915058E+02 0.  0.
        -24    2    1    2    0    0 -0.86842786047E+02 -0.59622721890E+02  0.20575856635E+03  0.24478781339E+03  0.80547796388E+02 0.  0.
         11    1    4    4    0    0 -0.37335887993E+02  0.24067827011E+01  0.19205467804E+02  0.42054858563E+02  0.00000000000E+00 0. -1.
        -12    1    4    4    0    0 -0.49506898054E+02 -0.62029504591E+02  0.18655309855E+03  0.20273295483E+03  0.00000000000E+00 0.  1.
        -11    1    3    3    0    0  0.36050043992E+02  0.28062550410E+02  0.13036178563E+03  0.13813510618E+03  0.00000000000E+00 0. -1.
         11    1    3    3    0    0  0.20192821973E+01 -0.20172127980E+02 -0.54774712763E+01  0.20999879509E+02  0.00000000000E+00 0.  1.
         -3    1    1    2    0  502  0.48773459857E+02  0.51732299460E+02  0.58815625441E+01  0.71341950995E+02  0.00000000000E+00 0.  1.
<scales pt_clust_5="13000.00000" pt_clust_6="13000.00000" pt_clust_7="13000.00000" pt_clust_8="13000.00000" pt_clust_9="71.09909"></scales>
<clustering>
<clus scale="   71.099">  2  9  1 -1</clus>
<clus scale="   80.548">  5  6 -1 -1</clus>
<clus scale="   90.644">  7  8 -1 -1</clus>
<clus scale="  105.930">  2  5  1 -1</clus>
<clus scale="   71.099">  2  5  1 -1</clus>
</clustering>
</event>
<event>
 9    1  0.6270443E-005  0.1054180E+03  0.7546771E-02  0.1274406E+00
          3   -1    0    0  502    0 -0.00000000000E+00  0.00000000000E+00  0.11479788371E+03  0.11479788371E+03  0.00000000000E+00 0. -1.
         21   -1    0    0  501  502  0.00000000000E+00 -0.00000000000E+00 -0.35461218639E+03  0.35461218639E+03  0.00000000000E+00 0. -1.
         23    2    1    2    0    0 -0.24112357346E+02  0.34504885571E+02  0.45804205302E+02  0.11034201995E+03  0.91133655899E+02 0.  0.
        -24    2    1    2    0    0  0.33365638373E+02 -0.84948171776E+02 -0.75198301691E+02  0.14248824604E+03  0.79489986600E+02 0.  0.
         11    1    4    4    0    0  0.29026083926E+02 -0.10010423772E+03 -0.71196210197E+02  0.12622310527E+03  0.00000000000E+00 0. -1.
        -12    1    4    4    0    0  0.43395544469E+01  0.15156065947E+02 -0.40020914938E+01  0.16265140765E+02  0.00000000000E+00 0.  1.
        -13    1    3    3    0    0 -0.26450195665E+02 -0.11436413250E+02  0.56221541098E+02  0.63176467788E+02  0.00000000000E+00 0. -1.
         13    1    3    3    0    0  0.23378383185E+01  0.45941298821E+02 -0.10417335796E+02  0.47165552159E+02  0.00000000000E+00 0.  1.
          4    1    1    2  501    0 -0.92532810271E+01  0.50443286205E+02 -0.21042020629E+03  0.21657980411E+03  0.00000000000E+00 0. -1.
<scales pt_clust_5="13000.00000" pt_clust_6="13000.00000" pt_clust_7="13000.00000" pt_clust_8="13000.00000" pt_clust_9="51.28497"></scales>
<clustering>
<clus scale="   51.285">  2  9  1 -1</clus>
<clus scale="   79.490">  5  6 -1 -1</clus>
<clus scale="   91.134">  7  8 -1 -1</clus>
<clus scale="   95.532">  2  5  1 -1</clus>
<clus scale="   51.285">  2  5  1 -1</clus>
</clustering>
</event>
<event>
 9    1  0.6270443E-005  0.1259241E+03  0.7546771E-02  0.1237401E+00
         -2   -1    0    0    0  501 -0.00000000000E+00  0.00000000000E+00  0.48492259808E+03  0.48492259808E+03  0.00000000000E+00 0.  1.
         21   -1    0    0  501  502  0.00000000000E+00 -0.00000000000E+00 -0.62385074520E+02  0.62385074520E+02  0.00000000000E+00 0.  1.
         23    2    1    2    0    0  0.51152455501E+01  0.85779257419E+02  0.21164851140E+03  0.24614452292E+03  0.91693985869E+02 0.  0.
        -24    2    1    2    0    0  0.72403966489E+02 -0.79282279016E+02  0.10303846218E+03  0.16818503082E+03  0.78366228541E+02 0.  0.
         11    1    4    4    0    0  0.18118224075E+02  0.90250841162E+01 -0.23303446484E+01  0.20375296148E+02  0.00000000000E+00 0. -1.
        -12    1    4    4    0    0  0.54285742414E+02 -0.88307363133E+02  0.10536880683E+03  0.14780973468E+03  0.00000000000E+00 0.  1.
        -13    1    3    3    0    0 -0.22757862588E+02  0.76431433623E+02  0.86762655428E+02  0.11784499451E+03  0.00000000000E+00 0.  1.
         13    1    3    3    0    0  0.27873108138E+02  0.93478237964E+01  0.12488585597E+03  0.12829952840E+03  0.00000000000E+00 0. -1.
         -1    1    1    2    0  502 -0.77519212039E+02 -0.64969784030E+01  0.10785054998E+03  0.13297811886E+03  0.00000000000E+00 0.  1.
<scales pt_clust_5="13000.00000" pt_clust_6="13000.00000" pt_clust_7="13000.00000" pt_clust_8="13000.00000" pt_clust_9="77.79103"></scales>
<clustering>
<clus scale="   77.791">  2  9  1 -1</clus>
<clus scale="   78.366">  5  6 -1 -1</clus>
<clus scale="   91.694">  7  8 -1 -1</clus>
<clus scale="  116.578">  2  5  1 -1</clus>
<clus scale="   77.791">  2  5  1 -1</clus>
</clustering>
</event>
<event>
 9    1  0.6270443E-005  0.1288884E+03  0.7546771E-02  0.1263287E+00
          1   -1    0    0  502    0 -0.00000000000E+00  0.00000000000E+00  0.23245609320E+03  0.23245609320E+03  0.00000000000E+00 0. -1.
         21   -1    0    0  501  502  0.00000000000E+00 -0.00000000000E+00 -0.13432075955E+03  0.13432075955E+03  0.00000000000E+00 0. -1.
         23    2    1    2    0    0  0.13583866986E+02  0.66078497085E+01  0.10500670374E+03  0.12340979497E+03  0.63050650632E+02 0.  0.
        -24    2    1    2    0    0  0.57443639913E+02 -0.79070244323E+02  0.37828607939E+02  0.13248967773E+03  0.81059458564E+02 0.  0.
         11    1    4    4    0    0  0.52117056484E+02 -0.84466081464E+02  0.55176800976E+02  0.11355697187E+03  0.00000000000E+00 0. -1.
        -12    1    4    4    0    0  0.53265834286E+01  0.53958371417E+01 -0.17348193037E+02  0.18932705859E+02  0.00000000000E+00 0.  1.
        -13    1    3    3    0    0 -0.23336290159E+02  0.11010645140E+02  0.57959124384E+02  0.63443493316E+02  0.00000000000E+00 0. -1.
         13    1    3    3    0    0  0.36920157145E+02 -0.44027954315E+01  0.47047579353E+02  0.59966301655E+02  0.00000000000E+00 0.  1.
          2    1    1    2  501    0 -0.71027506899E+02  0.72462394614E+02 -0.44699978030E+02  0.11087738004E+03  0.00000000000E+00 0. -1.
<scales pt_clust_5="13000.00000" pt_clust_6="13000.00000" pt_clust_7="13000.00000" pt_clust_8="13000.00000" pt_clust_9="100.20768"></scales>
<clustering>
<clus scale="   63.051">  7  8 -1 -1</clus>
<clus scale="   64.835">  1  7  2 -1</clus>
<clus scale="   81.059">  5  6 -1 -1</clus>
<clus scale="  100.208">  2  9  1 -1</clus>
<clus scale="  100.208">  2  5  1 -1</clus>
</clustering>
</event>
<event>
 9    1  0.6270443E-005  0.9698022E+02  0.7546771E-02  0.1291106E+00
         21   -1    0    0  501  502  0.00000000000E+00  0.00000000000E+00  0.29988441817E+02  0.29988441817E+02  0.00000000000E+00 0.  1.
          1   -1    0    0  502    0 -0.00000000000E+00 -0.00000000000E+00 -0.54388614758E+03  0.54388614758E+03  0.00000000000E+00 0. -1.
         23    2    1    2    0    0 -0.32539870035E+02 -0.88252501825E-01 -0.41314761176E+03  0.42458391981E+03  0.92313081040E+02 0.  0.
        -24    2    1    2    0    0  0.18435721397E+02  0.15143858540E+02 -0.69537512459E+02  0.11187645399E+03  0.84330676762E+02 0.  0.
         11    1    4    4    0    0 -0.23044926890E+01  0.27379157639E+02 -0.80762583736E+02  0.85308404576E+02  0.00000000000E+00 0. -1.
        -12    1    4    4    0    0  0.20740214086E+02 -0.12235299099E+02  0.11225071277E+02  0.26568049412E+02  0.00000000000E+00 0.  1.
        -13    1    3    3    0    0 -0.52122978147E+02 -0.31416631775E+02 -0.26511110611E+03  0.27200681643E+03  0.00000000000E+00 0.  1.
         13    1    3    3    0    0  0.19583108111E+02  0.31328379273E+02 -0.14803650565E+03  0.15257710338E+03  0.00000000000E+00 0. -1.
          2    1    1    2  501    0  0.14104148638E+02 -0.15055606039E+02 -0.31212581553E+02  0.37414215603E+02  0.00000000000E+00 0. -1.
<scales pt_clust_5="13000.00000" pt_clust_6="13000.00000" pt_clust_7="13000.00000" pt_clust_8="13000.00000" pt_clust_9="20.63003"></scales>
<clustering>
<clus scale="   20.630">  1  9  2 -1</clus>
<clus scale="   84.331">  5  6 -1 -1</clus>
<clus scale="   89.415">  1  5  2 -1</clus>
<clus scale="   92.313">  7  8 -1 -1</clus>
<clus scale="   20.630">  1  5  2 -1</clus>
</clustering>
</event>
<event>
 9    1  0.6270443E-005  0.1314812E+03  0.7546771E-02  0.1233079E+00
          3   -1    0    0  502    0 -0.00000000000E+00  0.00000000000E+00  0.25988058126E+03  0.25988058126E+03  0.00000000000E+00 0. -1.
         21   -1    0    0  501  502  0.00000000000E+00 -0.00000000000E+00 -0.16993848591E+03  0.16993848591E+03  0.00000000000E+00 0. -1.
         23    2    1    2    0    0  0.53238384107E+02  0.43650497221E+02  0.10476561227E+03  0.15327893483E+03  0.88198111657E+02 0.  0.
        -24    2    1    2    0    0  0.16849800615E+02  0.85909135676E+02 -0.44732346342E+02  0.12623181523E+03  0.79178235609E+02 0.  0.
         13    1    4    4    0    0  0.35330383342E+02  0.90554640283E+02 -0.28761695511E+02  0.10136870322E+03  0.00000000000E+00 0. -1.
        -14    1    4    4    0    0 -0.18480582727E+02 -0.46455046065E+01 -0.15970650831E+02  0.24863112012E+02  0.00000000000E+00 0.  1.
        -13    1    3    3    0    0  0.75444143228E+02  0.36831867593E+02  0.61152547128E+02  0.10386548627E+03  0.00000000000E+00 0. -1.
         13    1    3    3    0    0 -0.22205759121E+02  0.68186296284E+01  0.43613065137E+02  0.49413448562E+02  0.00000000000E+00 0.  1.
          4    1    1    2  501    0 -0.70088184723E+02 -0.12955963290E+03  0.29908829420E+02  0.15030831711E+03  0.00000000000E+00 0. -1.
<scales pt_clust_5="13000.00000" pt_clust_6="13000.00000" pt_clust_7="13000.00000" pt_clust_8="13000.00000" pt_clust_9="104.96727"></scales>
<clustering>
<clus scale="   79.178">  5  6 -1 -1</clus>
<clus scale="   88.198">  7  8 -1 -1</clus>
<clus scale="  111.887">  1  7  2 -1</clus>
<clus scale="  104.967">  2  9  1 -1</clus>
<clus scale="  104.967">  2  5  1 -1</clus>
</clustering>
</event>
<event>
 9    1  0.6270443E-005  0.9810869E+02  0.7546771E-02  0.1291086E+00
         21   -1    0    0  501  502  0.00000000000E+00  0.00000000000E+00  0.23359165198E+03  0.23359165198E+03  0.00000000000E+00 0. -1.
          1   -1    0    0  502    0 -0.00000000000E+00 -0.00000000000E+00 -0.11596698696E+03  0.11596698696E+03  0.00000000000E+00 0. -1.
        -24    2    1    2    0    0  0.53133438484E+01 -0.27115639803E+02 -0.32779876307E+02  0.90501772114E+02  0.79702954276E+02 0.  0.
         23    2    1    2    0    0  0.11350306398E+02  0.44014136431E+02 -0.39083226811E+01  0.10292968654E+03  0.92266850622E+02 0.  0.
         11    1    3    3    0    0  0.46239560136E+01 -0.44005778110E+02 -0.49728386967E+02  0.66564269294E+02  0.00000000000E+00 0. -1.
        -12    1    3    3    0    0  0.68938783483E+00  0.16890138308E+02  0.16948510660E+02  0.23937502820E+02  0.00000000000E+00 0.  1.
        -11    1    4    4    0    0 -0.33581103971E+02  0.31627368388E+02 -0.24204680988E+02  0.52094601992E+02  0.00000000000E+00 0.  1.
         11    1    4    4    0    0  0.44931410369E+02  0.12386768043E+02  0.20296358306E+02  0.50835084546E+02  0.00000000000E+00 0. -1.
          2    1    1    2  501    0 -0.16663650247E+02 -0.16898496628E+02  0.15431286401E+03  0.15612718029E+03  0.00000000000E+00 0. -1.
<scales pt_clust_5="13000.00000" pt_clust_6="13000.00000" pt_clust_7="13000.00000" pt_clust_8="13000.00000" pt_clust_9="23.73260"></scales>
<clustering>
<clus scale="   23.733">  1  9  2 -1</clus>
<clus scale="   79.703">  5  6 -1 -1</clus>
<clus scale="   86.399">  2  5  1 -1</clus>
<clus scale="   92.267">  7  8 -1 -1</clus>
<clus scale="   23.733">  1  5  2 -1</clus>
</clustering>
</event>
<event>
 9    1  0.6270443E-005  0.9102074E+02  0.7546771E-02  0.1307714E+00
          1   -1    0    0  502    0 -0.00000000000E+00  0.00000000000E+00  0.46408678049E+02  0.46408678049E+02  0.00000000000E+00 0. -1.
         21   -1    0    0  501  502  0.00000000000E+00 -0.00000000000E+00 -0.34882505929E+03  0.34882505929E+03  0.00000000000E+00 0. -1.
         23    2    1    2    0    0 -0.28170008805E+01  0.11691862777E+02 -0.23224289945E+02  0.94548058152E+02  0.90858860370E+02 0.  0.
        -24    2    1    2    0    0 -0.77598708090E+01  0.16363033979E+02 -0.19587089443E+03  0.21213417274E+03  0.79419994230E+02 0.  0.
         11    1    4    4    0    0 -0.57113962325E+01 -0.30892550113E+02 -0.10624862776E+03  0.11079594127E+03  0.00000000000E+00 0. -1.
        -12    1    4    4    0    0 -0.20484745766E+01  0.47255584092E+02 -0.89622266671E+02  0.10133823148E+03  0.00000000000E+00 0.  1.
        -13    1    3    3    0    0  0.31732750191E+02  0.70359912752E+01  0.20650879893E+02  0.38508848960E+02  0.00000000000E+00 0. -1.
         13    1    3    3    0    0 -0.34549751071E+02  0.46558715020E+01 -0.43875169838E+02  0.56039209192E+02  0.00000000000E+00 0.  1.
          2    1    1    2  501    0  0.10576871690E+02 -0.28054896757E+02 -0.83321196866E+02  0.88551506447E+02  0.00000000000E+00 0. -1.
<scales pt_clust_5="13000.00000" pt_clust_6="13000.00000" pt_clust_7="13000.00000" pt_clust_8="13000.00000" pt_clust_9="29.98245"></scales>
<clustering>
<clus scale="   29.982">  2  9  1 -1</clus>
<clus scale="   79.420">  5  6 -1 -1</clus>
<clus scale="   79.605">  2  5  1 -1</clus>
<clus scale="   90.859">  7  8 -1 -1</clus>
<clus scale="   29.982">  2  5  1 -1</clus>
</clustering>
</event>
<event>
 9    1  0.6270443E-005  0.9892370E+02  0.7546771E-02  0.1286794E+00
         21   -1    0    0  501  502  0.00000000000E+00  0.00000000000E+00  0.32850830330E+03  0.32850830330E+03  0.00000000000E+00 0. -1.
         -4   -1    0    0    0  501 -0.00000000000E+00 -0.00000000000E+00 -0.76741733417E+02  0.76741733417E+02  0.00000000000E+00 0.  1.
        -24    2    1    2    0    0 -0.26961219975E+02  0.25007703800E+02 -0.24238904310E+02  0.93407644679E+02  0.82372149241E+02 0.  0.
         23    2    1    2    0    0  0.57740268663E+02 -0.15748697474E+02  0.17645618842E+03  0.20723293103E+03  0.90701384614E+02 0.  0.
         13    1    3    3    0    0  0.10580259034E+02  0.41908898902E+02  0.41132333145E+01  0.43419078487E+02  0.00000000000E+00 0. -1.
        -14    1    3    3    0    0 -0.37541479009E+02 -0.16901195102E+02 -0.28352137625E+02  0.49988566192E+02  0.00000000000E+00 0.  1.
        -11    1    4    4    0    0 -0.64762450577E+01 -0.32521134366E+02  0.23932106657E+02  0.40893907365E+02  0.00000000000E+00 0.  1.
         11    1    4    4    0    0  0.64216513720E+02  0.16772436892E+02  0.15252408177E+03  0.16633902366E+03  0.00000000000E+00 0. -1.
         -3    1    1    2    0  502 -0.30779048688E+02 -0.92590063258E+01  0.99549285767E+02  0.10460946101E+03  0.00000000000E+00 0.  1.
<scales pt_clust_5="13000.00000" pt_clust_6="13000.00000" pt_clust_7="13000.00000" pt_clust_8="13000.00000" pt_clust_9="32.14155"></scales>
<clustering>
<clus scale="   32.142">  1  9  2 -1</clus>
<clus scale="   82.372">  5  6 -1 -1</clus>
<clus scale="   90.701">  7  8 -1 -1</clus>
<clus scale="   91.347">  2  5  1 -1</clus>
<clus scale="   32.142">  1  5  2 -1</clus>
</clustering>
</event>
<event>
 9    1  0.6270443E-005  0.1230567E+03  0.7546771E-02  0.1241581E+00
          1   -1    0    0  502    0 -0.00000000000E+00  0.00000000000E+00  0.11501875990E+04  0.11501875990E+04  0.00000000000E+00 0. -1.
         21   -1    0    0  501  502  0.00000000000E+00 -0.00000000000E+00 -0.21042063396E+02  0.21042063396E+02  0.00000000000E+00 0. -1.
        -24    2    1    2    0    0  0.83369980270E+02  0.45747379898E+02  0.61504067619E+03  0.62735599798E+03  0.79102076201E+02 0.  0.
         23    2    1    2    0    0 -0.52818804079E+02 -0.47956022391E+02  0.49382988399E+03  0.50714047647E+03  0.90740853002E+02 0.  0.
         11    1    3    3    0    0  0.48394605371E+02  0.67028060331E+02  0.40047408440E+03  0.40891844050E+03  0.00000000000E+00 0. -1.
        -12    1    3    3    0    0  0.34975374899E+02 -0.21280680433E+02  0.21456659179E+03  0.21843755748E+03  0.00000000000E+00 0.  1.
        -13    1    4    4    0    0 -0.51806719538E+02  0.13061428928E+02  0.26359570333E+03  0.26895581780E+03  0.00000000000E+00 0.  1.
         13    1    4    4    0    0 -0.10120845413E+01 -0.61017451319E+02  0.23023418066E+03  0.23818465867E+03  0.00000000000E+00 0. -1.
          2    1    1    2  501    0 -0.30551176191E+02  0.22086424931E+01  0.20274975431E+02  0.36733187951E+02  0.00000000000E+00 0. -1.
<scales pt_clust_5="13000.00000" pt_clust_6="13000.00000" pt_clust_7="13000.00000" pt_clust_8="13000.00000" pt_clust_9="30.63091"></scales>
<clustering>
<clus scale="   30.631">  2  9  1 -1</clus>
<clus scale="   79.102">  5  6 -1 -1</clus>
<clus scale="   90.741">  7  8 -1 -1</clus>
<clus scale="  114.744">  1  5  2 -1</clus>
<clus scale="   30.631">  2  5  1 -1</clus>
</clustering>
</event>
<event>
 9    1  0.6270443E-005  0.1298717E+03  0.7546771E-02  0.1241595E+00
          1   -1    0    0  502    0 -0.00000000000E+00  0.00000000000E+00  0.51454661959E+03  0.51454661959E+03  0.00000000000E+00 0. -1.
         21   -1    0    0  501  502  0.00000000000E+00 -0.00000000000E+00 -0.65468181323E+02  0.65468181323E+02  0.00000000000E+00 0. -1.
        -24    2    1    2    0    0  0.47187297434E+02  0.29839924174E+02  0.25816579314E+03  0.27599299163E+03  0.80034321172E+02 0.  0.
         23    2    1    2    0    0  0.24313543276E+02 -0.96379329850E+02  0.14201796652E+03  0.19479474155E+03  0.88858116753E+02 0.  0.
         11    1    3    3    0    0  0.56476459541E+02  0.48273898914E+02  0.22478724310E+03  0.23674725861E+03  0.00000000000E+00 0. -1.
        -12    1    3    3    0    0 -0.92891621062E+01 -0.18433974740E+02  0.33378550048E+02  0.39245733024E+02  0.00000000000E+00 0.  1.
        -13    1    4    4    0    0  0.52096376920E+02 -0.83900211600E+02  0.12687534417E+03  0.16078131407E+03  0.00000000000E+00 0. -1.
         13    1    4    4    0    0 -0.27782833645E+02 -0.12479118249E+02  0.15142622350E+02  0.34013427485E+02  0.00000000000E+00 0.  1.
          2    1    1    2  501    0 -0.71500840710E+02  0.66539405675E+02  0.48894678604E+02  0.10922706773E+03  0.00000000000E+00 0. -1.
<scales pt_clust_5="13000.00000" pt_clust_6="13000.00000" pt_clust_7="13000.00000" pt_clust_8="13000.00000" pt_clust_9="94.71473"></scales>
<clustering>
<clus scale="   80.034">  5  6 -1 -1</clus>
<clus scale="   88.858">  7  8 -1 -1</clus>
<clus scale="   97.584">  1  5  2 -1</clus>
<clus scale="   94.715">  2  9  1 -1</clus>
<clus scale="   94.715">  2  5  1 -1</clus>
</clustering>
</event>
<event>
 9    1  0.6270443E-005  0.1059352E+03  0.7546771E-02  0.1272862E+00
          3   -1    0    0  502    0 -0.00000000000E+00  0.00000000000E+00  0.11636439738E+02  0.11636439738E+02  0.00000000000E+00 0. -1.
         21   -1    0    0  501  502  0.00000000000E+00 -0.00000000000E+00 -0.20088472378E+04  0.20088472378E+04  0.00000000000E+00 0.  1.
         23    2    1    2    0    0  0.44898810605E+02  0.40279181161E+01 -0.40011108274E+03  0.41262233752E+03  0.90200818019E+02 0.  0.
        -24    2    1    2    0    0 -0.85622527092E+02  0.39122539551E+02 -0.12075429592E+04  0.12138120419E+04  0.79485121756E+02 0.  0.
         11    1    4    4    0    0 -0.24676539540E+02 -0.17884330824E+02 -0.15510636261E+03  0.15807202351E+03  0.00000000000E+00 0. -1.
        -12    1    4    4    0    0 -0.60945987551E+02  0.57006870376E+02 -0.10524365965E+04  0.10557400184E+04  0.00000000000E+00 0.  1.
        -13    1    3    3    0    0  0.34434766595E+02 -0.41479125581E+02 -0.20033778601E+03  0.20746445361E+03  0.00000000000E+00 0. -1.
         13    1    3    3    0    0  0.10464044010E+02  0.45507043697E+02 -0.19977329673E+03  0.20515788391E+03  0.00000000000E+00 0.  1.
          4    1    1    2  501    0  0.40723716487E+02 -0.43150457667E+02 -0.38955675616E+03  0.39404929812E+03  0.00000000000E+00 0. -1.
<scales pt_clust_5="13000.00000" pt_clust_6="13000.00000" pt_clust_7="13000.00000" pt_clust_8="13000.00000" pt_clust_9="59.33282"></scales>
<clustering>
<clus scale="   59.333">  2  9  1 -1</clus>
<clus scale="   79.485">  5  6 -1 -1</clus>
<clus scale="   90.201">  7  8 -1 -1</clus>
<clus scale="   96.974">  2  5  1 -1</clus>
<clus scale="   59.333">  2  5  1 -1</clus>
</clustering>
</event>
<event>
 9    1  0.6270443E-005  0.2612614E+03  0.7546771E-02  0.1122604E+00
          1   -1    0    0  502    0 -0.00000000000E+00  0.00000000000E+00  0.14581027923E+03  0.14581027923E+03  0.00000000000E+00 0. -1.
         21   -1    0    0  501  502  0.00000000000E+00 -0.00000000000E+00 -0.20420398281E+04  0.20420398281E+04  0.00000000000E+00 0. -1.
        -24    2    1    2    0    0  0.54822153292E+02 -0.14352879511E+03  0.38054021399E+02  0.17756663311E+03  0.80472461951E+02 0.  0.
         23    2    1    2    0    0 -0.70433825021E+02 -0.14944200771E+03 -0.33535298409E+03  0.38465909108E+03  0.90593349850E+02 0.  0.
         13    1    3    3    0    0 -0.19501863515E+01 -0.10020161973E+03  0.95602239564E+01  0.10067554671E+03  0.00000000000E+00 0. -1.
        -14    1    3    3    0    0  0.56772339644E+02 -0.43327175380E+02  0.28493797443E+02  0.76891086400E+02  0.00000000000E+00 0.  1.
        -13    1    4    4    0    0 -0.73568790972E+02 -0.51414369635E+02 -0.17542373517E+03  0.19705149396E+03  0.00000000000E+00 0.  1.
         13    1    4    4    0    0  0.31349659513E+01 -0.98027638071E+02 -0.15992924892E+03  0.18760759712E+03  0.00000000000E+00 0. -1.
          2    1    1    2  501    0  0.15611671728E+02  0.29297080282E+03 -0.15989305861E+04  0.16256243831E+04  0.00000000000E+00 0. -1.
<scales pt_clust_5="13000.00000" pt_clust_6="13000.00000" pt_clust_7="13000.00000" pt_clust_8="13000.00000" pt_clust_9="245.05173"></scales>
<clustering>
<clus scale="   80.472">  5  6 -1 -1</clus>
<clus scale="   90.593">  7  8 -1 -1</clus>
<clus scale="  173.441">  1  5  2 -1</clus>
<clus scale="  245.052">  2  9  1 -1</clus>
<clus scale="  245.052">  2  5  1 -1</clus>
</clustering>
</event>
<event>
 9    1  0.6270443E-005  0.9485985E+02  0.7546771E-02  0.1299202E+00
          1   -1    0    0  502    0 -0.00000000000E+00  0.00000000000E+00  0.36997110564E+03  0.36997110564E+03  0.00000000000E+00 0. -1.
         21   -1    0    0  501  502  0.00000000000E+00 -0.00000000000E+00 -0.36215442917E+02  0.36215442917E+02  0.00000000000E+00 0.  1.
         23    2    1    2    0    0 -0.22032117183E+02 -0.15836301677E+02  0.24144543825E+03  0.25988161468E+03  0.92229883217E+02 0.  0.
        -24    2    1    2    0    0 -0.64146762638E+01  0.21425883278E+02  0.54547609593E+02  0.98697386551E+02  0.79155011553E+02 0.  0.
         11    1    4    4    0    0 -0.22414141935E+02  0.22429003332E+02  0.69740655492E+02  0.76610788911E+02  0.00000000000E+00 0. -1.
        -12    1    4    4    0    0  0.15999465672E+02 -0.10031200542E+01 -0.15193045899E+02  0.22086597640E+02  0.00000000000E+00 0.  1.
        -13    1    3    3    0    0 -0.50583784587E+02  0.16204610400E+02  0.13957669430E+03  0.14934176326E+03  0.00000000000E+00 0.  1.
         13    1    3    3    0    0  0.28551667404E+02 -0.32040912078E+02  0.10186874395E+03  0.11053985142E+03  0.00000000000E+00 0. -1.
          2    1    1    2  501    0  0.28446793447E+02 -0.55895816002E+01  0.37762614876E+02  0.47607547323E+02  0.00000000000E+00 0. -1.
<scales pt_clust_5="13000.00000" pt_clust_6="13000.00000" pt_clust_7="13000.00000" pt_clust_8="13000.00000" pt_clust_9="28.99075"></scales>
<clustering>
<clus scale="   28.991">  2  9  1 -1</clus>
<clus scale="   79.155">  5  6 -1 -1</clus>
<clus scale="   82.204">  2  5  1 -1</clus>
<clus scale="   92.230">  7  8 -1 -1</clus>
<clus scale="   28.991">  2  5  1 -1</clus>
</clustering>
</event>
<event>
 9    1  0.6270443E-005  0.1524453E+03  0.7546771E-02  0.1220462E+00
         21   -1    0    0  501  502  0.00000000000E+00  0.00000000000E+00  0.35378252495E+03  0.35378252495E+03  0.00000000000E+00 0. -1.
          1   -1    0    0  502    0 -0.00000000000E+00 -0.00000000000E+00 -0.23695895422E+03  0.23695895422E+03  0.00000000000E+00 0. -1.
        -24    2    1    2    0    0 -0.41393875593E+01  0.46103892253E+02 -0.60842402901E+01  0.93477480540E+02  0.80983442617E+02 0.  0.
         23    2    1    2    0    0 -0.45177357452E+02  0.10788857379E+03  0.25051071845E+03  0.29128263315E+03  0.91700677954E+02 0.  0.
         13    1    3    3    0    0 -0.24417696435E+02  0.62493684477E+02 -0.23309102763E+01  0.67135070131E+02  0.00000000000E+00 0. -1.
        -14    1    3    3    0    0  0.20278308875E+02 -0.16389792225E+02 -0.37533300138E+01  0.26342410410E+02  0.00000000000E+00 0.  1.
        -11    1    4    4    0    0 -0.68944074378E+02  0.67234692891E+02  0.20141826592E+03  0.22325569907E+03  0.00000000000E+00 0. -1.
         11    1    4    4    0    0  0.23766716927E+02  0.40653880896E+02  0.49092452529E+02  0.68026934083E+02  0.00000000000E+00 0.  1.
          2    1    1    2  501    0  0.49316745011E+02 -0.15399246604E+03 -0.12760290743E+03  0.20598136547E+03  0.00000000000E+00 0. -1.
<scales pt_clust_5="13000.00000" pt_clust_6="13000.00000" pt_clust_7="13000.00000" pt_clust_8="13000.00000" pt_clust_9="121.78087"></scales>
<clustering>
<clus scale="   80.983">  5  6 -1 -1</clus>
<clus scale="   91.701">  7  8 -1 -1</clus>
<clus scale="   93.279">  2  5  1 -1</clus>
<clus scale="  121.781">  1  9  2 -1</clus>
<clus scale="  121.781">  1  5  2 -1</clus>
</clustering>
</event>
<event>
 9    1  0.6270443E-005  0.5617129E+03  0.7546771E-02  0.1014217E+00
          1   -1    0    0  502    0 -0.00000000000E+00  0.00000000000E+00  0.11912461127E+04  0.11912461127E+04  0.00000000000E+00 0. -1.
         21   -1    0    0  501  502  0.00000000000E+00 -0.00000000000E+00 -0.56873640759E+03  0.56873640759E+03  0.00000000000E+00 0.  1.
         23    2    1    2    0    0 -0.17111367064E+03  0.28849936776E+03  0.17377058846E+03  0.38892098533E+03  0.92474547530E+02 0.  0.
        -24    2    1    2    0    0 -0.42363270337E+03 -0.37522524268E+03 -0.71641899805E+02  0.57605145385E+03  0.80274937357E+02 0.  0.
         11    1    4    4    0    0 -0.23905052959E+03 -0.19568852482E+03 -0.59023430172E+00  0.30893284516E+03  0.00000000000E+00 0. -1.
        -12    1    4    4    0    0 -0.18458217378E+03 -0.17953671786E+03 -0.71051665503E+02  0.26711860869E+03  0.00000000000E+00 0.  1.
        -13    1    3    3    0    0 -0.18126100405E+03  0.26737704466E+03  0.17049567113E+03  0.36525992044E+03  0.00000000000E+00 0.  1.
         13    1    3    3    0    0  0.10147333415E+02  0.21122323096E+02  0.32749173281E+01  0.23661064894E+02  0.00000000000E+00 0. -1.
          2    1    1    2  501    0  0.59474637401E+03  0.86725874920E+02  0.52038101645E+03  0.79501008111E+03  0.00000000000E+00 0. -1.
<scales pt_clust_5="13000.00000" pt_clust_6="13000.00000" pt_clust_7="13000.00000" pt_clust_8="13000.00000" pt_clust_9="555.94747"></scales>
<clustering>
<clus scale="   80.275">  5  6 -1 -1</clus>
<clus scale="   92.475">  7  8 -1 -1</clus>
<clus scale="  347.942">  1  7  2 -1</clus>
<clus scale="  555.947">  2  9  1 -1</clus>
<clus scale="  555.947">  2  5  1 -1</clus>
</clustering>
</event>
<event>
 9    1  0.6270443E-005  0.2269662E+03  0.7546771E-02  0.1169962E+00
         21   -1    0    0  501  502  0.00000000000E+00  0.00000000000E+00  0.68454752735E+03  0.68454752735E+03  0.00000000000E+00 0. -1.
          1   -1    0    0  502    0 -0.00000000000E+00 -0.00000000000E+00 -0.26876276219E+03  0.26876276219E+03  0.00000000000E+00 0. -1.
        -24    2    1    2    0    0  0.23110559565E+02  0.57316812705E+01 -0.16676453885E+03  0.18738236652E+03  0.82065764666E+02 0.  0.
         23    2    1    2    0    0  0.29086549458E+02  0.19693805944E+03  0.10361740804E+03  0.24326615575E+03  0.93868145140E+02 0.  0.
         13    1    3    3    0    0  0.30541653687E+02  0.12216485131E+02 -0.17274438851E+03  0.17584839743E+03  0.00000000000E+00 0. -1.
        -14    1    3    3    0    0 -0.74310941220E+01 -0.64848038602E+01  0.59798496564E+01  0.11533969086E+02  0.00000000000E+00 0.  1.
        -11    1    4    4    0    0 -0.80032442096E+00  0.61264670572E+02 -0.12107591572E+02  0.62454736835E+02  0.00000000000E+00 0.  1.
         11    1    4    4    0    0  0.29886873879E+02  0.13567338887E+03  0.11572499961E+03  0.18081141892E+03  0.00000000000E+00 0. -1.
          2    1    1    2  501    0 -0.52197109022E+02 -0.20266974071E+03  0.47893189597E+03  0.52266176727E+03  0.00000000000E+00 0. -1.
<scales pt_clust_5="13000.00000" pt_clust_6="13000.00000" pt_clust_7="13000.00000" pt_clust_8="13000.00000" pt_clust_9="206.64570"></scales>
<clustering>
<clus scale="   82.066">  5  6 -1 -1</clus>
<clus scale="   85.450">  2  5  1 -1</clus>
<clus scale="   93.868">  7  8 -1 -1</clus>
<clus scale="  206.646">  1  9  2 -1</clus>
<clus scale="  206.646">  1  5  2 -1</clus>
</clustering>
</event>
<event>
 9    1  0.6270443E-005  0.1384894E+03  0.7546771E-02  0.1219531E+00
          1   -1    0    0  502    0 -0.00000000000E+00  0.00000000000E+00  0.30739601647E+02  0.30739601647E+02  0.00000000000E+00 0. -1.
         21   -1    0    0  501  502  0.00000000000E+00 -0.00000000000E+00 -0.68752833493E+03  0.68752833493E+03  0.00000000000E+00 0. -1.
        -24    2    1    2    0    0 -0.94378599091E+02 -0.29872652122E+02 -0.27008356621E+03  0.29848952233E+03  0.79694208640E+02 0.  0.
         23    2    1    2    0    0  0.99602991722E+02  0.73526441685E+01 -0.34550744860E+03  0.37253757340E+03  0.97128930926E+02 0.  0.
         13    1    3    3    0    0 -0.59349742112E+02 -0.28158280745E+02 -0.24910973758E+03  0.25762558495E+03  0.00000000000E+00 0. -1.
        -14    1    3    3    0    0 -0.35028856979E+02 -0.17143713774E+01 -0.20973828627E+02  0.40863937375E+02  0.00000000000E+00 0.  1.
        -13    1    4    4    0    0  0.10116320680E+03 -0.25534359769E+02 -0.23262569243E+03  0.25495236951E+03  0.00000000000E+00 0. -1.
         13    1    4    4    0    0 -0.15602150790E+01  0.32887003938E+02 -0.11288175617E+03  0.11758520390E+03  0.00000000000E+00 0.  1.
          2    1    1    2  501    0 -0.52243926311E+01  0.22520007954E+02 -0.41197718480E+02  0.47240840853E+02  0.00000000000E+00 0. -1.
<scales pt_clust_5="13000.00000" pt_clust_6="13000.00000" pt_clust_7="13000.00000" pt_clust_8="13000.00000" pt_clust_9="23.11808"></scales>
<clustering>
<clus scale="   23.118">  2  9  1 -1</clus>
<clus scale="   79.694">  5  6 -1 -1</clus>
<clus scale="   97.129">  7  8 -1 -1</clus>
<clus scale="  126.872">  1  5  2 -1</clus>
<clus scale="   23.118">  2  5  1 -1</clus>
</clustering>
</event>
<event>
 9    1  0.6270443E-005  0.1151409E+03  0.7546771E-02  0.1256218E+00
          1   -1    0    0  502    0 -0.00000000000E+00  0.00000000000E+00  0.21731735614E+03  0.21731735614E+03  0.00000000000E+00 0. -1.
         21   -1    0    0  501  502  0.00000000000E+00 -0.00000000000E+00 -0.14634347011E+03  0.14634347011E+03  0.00000000000E+00 0.  1.
         23    2    1    2    0    0 -0.91317363037E+02  0.96245868701E+01  0.13820055091E+03  0.18965583729E+03  0.91861041157E+02 0.  0.
        -24    2    1    2    0    0  0.20802598487E+02 -0.24567401142E+02 -0.17077875309E+02  0.86195417643E+02  0.78113320855E+02 0.  0.
         13    1    4    4    0    0 -0.12196793841E+02 -0.43405191092E+02 -0.14502544505E+01  0.45109595784E+02  0.00000000000E+00 0. -1.
        -14    1    4    4    0    0  0.32999392328E+02  0.18837789950E+02 -0.15627620858E+02  0.41085821860E+02  0.00000000000E+00 0.  1.
        -13    1    3    3    0    0  0.45116502649E+01 -0.24144654296E+02  0.47418719284E+02  0.53402755151E+02  0.00000000000E+00 0. -1.
         13    1    3    3    0    0 -0.95829013302E+02  0.33769241167E+02  0.90781831630E+02  0.13625308214E+03  0.00000000000E+00 0.  1.
          2    1    1    2  501    0  0.70514764551E+02  0.14942814272E+02 -0.50148789575E+02  0.87809571312E+02  0.00000000000E+00 0. -1.
<scales pt_clust_5="13000.00000" pt_clust_6="13000.00000" pt_clust_7="13000.00000" pt_clust_8="13000.00000" pt_clust_9="72.08065"></scales>
<clustering>
<clus scale="   72.081">  2  9  1 -1</clus>
<clus scale="   78.113">  5  6 -1 -1</clus>
<clus scale="   91.861">  7  8 -1 -1</clus>
<clus scale="  104.502">  2  5  1 -1</clus>
<clus scale="   72.081">  2  5  1 -1</clus>
</clustering>
</event>
<event>
 9    1  0.6270443E-005  0.1496403E+03  0.7546771E-02  0.1210602E+00
          1   -1    0    0  502    0 -0.00000000000E+00  0.00000000000E+00  0.52450822189E+03  0.52450822189E+03  0.00000000000E+00 0. -1.
         21   -1    0    0  501  502  0.00000000000E+00 -0.00000000000E+00 -0.11456996759E+03  0.11456996759E+03  0.00000000000E+00 0.  1.
         23    2    1    2    0    0  0.16449202384E+02 -0.80230781755E+02  0.17711213712E+03  0.21477972687E+03  0.89744455859E+02 0.  0.
        -24    2    1    2    0    0 -0.28649983979E+00 -0.10670240360E+03  0.13240299817E+02  0.13546775107E+03  0.82405831262E+02 0.  0.
         13    1    4    4    0    0  0.52984637061E+01 -0.80809623535E+02  0.46159723737E+02  0.93214747057E+02  0.00000000000E+00 0. -1.
        -14    1    4    4    0    0 -0.55849635459E+01 -0.25892780060E+02 -0.32919423919E+02  0.42253004014E+02  0.00000000000E+00 0.  1.
        -11    1    3    3    0    0 -0.31503314665E+02 -0.81172108575E+01  0.31035787182E+02  0.44961850863E+02  0.00000000000E+00 0. -1.
         11    1    3    3    0    0  0.47952517050E+02 -0.72113570897E+02  0.14607634994E+03  0.16981787601E+03  0.00000000000E+00 0.  1.
          2    1    1    2  501    0 -0.16162702545E+02  0.18693318535E+03  0.21958581737E+03  0.28883071154E+03  0.00000000000E+00 0. -1.
<scales pt_clust_5="13000.00000" pt_clust_6="13000.00000" pt_clust_7="13000.00000" pt_clust_8="13000.00000" pt_clust_9="124.90605"></scales>
<clustering>
<clus scale="   82.406">  5  6 -1 -1</clus>
<clus scale="   89.744">  7  8 -1 -1</clus>
<clus scale="  121.497">  1  7  2 -1</clus>
<clus scale="  124.906">  2  9  1 -1</clus>
<clus scale="  124.906">  2  5  1 -1</clus>
</clustering>
</event>
<event>
 9    1  0.6751606E-005  0.1006223E+03  0.7546771E-02  0.1281525E+00
         21   -1    0    0  501  502  0.00000000000E+00  0.00000000000E+00  0.11129042802E+03  0.11129042802E+03  0.00000000000E+00 0.  1.
         -4   -1    0    0    0  501 -0.00000000000E+00 -0.00000000000E+00 -0.40371383439E+03  0.40371383439E+03  0.00000000000E+00 0.  1.
        -24    2    1    2    0    0 -0.22198192517E+02  0.48281942091E+02 -0.33352090702E+03  0.34781996809E+03  0.83178297052E+02 0.  0.
         23    2    1    2    0    0  0.27988097151E+02 -0.65056696951E+01 -0.17722999839E+02  0.94805905215E+02  0.88591182519E+02 0.  0.
         13    1    3    3    0    0 -0.21861162530E+02 -0.20027383312E+02 -0.82297762357E+02  0.87475300505E+02  0.00000000000E+00 0. -1.
        -14    1    3    3    0    0 -0.33702998744E+00  0.68309325403E+02 -0.25122314466E+03  0.26034466759E+03  0.00000000000E+00 0.  1.
        -11    1    4    4    0    0 -0.20983812758E+02  0.20477057364E+02  0.11766490561E+02  0.31592413271E+02  0.00000000000E+00 0. -1.
         11    1    4    4    0    0  0.48971909909E+02 -0.26982727059E+02 -0.29489490400E+02  0.63213491944E+02  0.00000000000E+00 0.  1.
         -3    1    1    2    0  502 -0.57899046337E+01 -0.41776272396E+02  0.58820500494E+02  0.72378389105E+02  0.00000000000E+00 0.  1.
<scales pt_clust_5="13000.00000" pt_clust_6="13000.00000" pt_clust_7="13000.00000" pt_clust_8="13000.00000" pt_clust_9="42.17558"></scales>
<clustering>
<clus scale="   42.176">  1  9  2 -1</clus>
<clus scale="   83.178">  5  6 -1 -1</clus>
<clus scale="   88.591">  7  8 -1 -1</clus>
<clus scale="   95.891">  2  5  1 -1</clus>
<clus scale="   42.176">  1  5  2 -1</clus>
</clustering>
</event>
<event>
 9    1  0.6270443E-005  0.1950959E+03  0.7546771E-02  0.1154659E+00
         21   -1    0    0  501  502  0.00000000000E+00  0.00000000000E+00  0.36883608460E+03  0.36883608460E+03  0.00000000000E+00 0.  1.
         -4   -1    0    0    0  501 -0.00000000000E+00 -0.00000000000E+00 -0.34964939342E+03  0.34964939342E+03  0.00000000000E+00 0.  1.
         23    2    1    2    0    0 -0.52212529146E+02 -0.17977810887E+03 -0.27477896955E+03  0.34420017386E+03  0.89016633003E+02 0.  0.
        -24    2    1    2    0    0  0.22398921987E+02  0.81096614604E+02  0.21328442134E+03  0.24337941862E+03  0.81638988321E+02 0.  0.
         13    1    4    4    0    0  0.42981763335E+02  0.73215745762E+02  0.11671778662E+03  0.14432955040E+03  0.00000000000E+00 0. -1.
        -14    1    4    4    0    0 -0.20582841347E+02  0.78808688425E+01  0.96566634724E+02  0.99049868216E+02  0.00000000000E+00 0.  1.
        -13    1    3    3    0    0  0.11988853228E+02 -0.20672873190E+02 -0.48891288958E+01  0.24392701142E+02  0.00000000000E+00 0. -1.
         13    1    3    3    0    0 -0.64201382374E+02 -0.15910523568E+03 -0.26988984065E+03  0.31980747272E+03  0.00000000000E+00 0.  1.
         -3    1    1    2    0  502  0.29813607159E+02  0.98681494263E+02  0.80681239383E+02  0.13090588554E+03  0.00000000000E+00 0.  1.
<scales pt_clust_5="13000.00000" pt_clust_6="13000.00000" pt_clust_7="13000.00000" pt_clust_8="13000.00000" pt_clust_9="103.08680"></scales>
<clustering>
<clus scale="   81.639">  5  6 -1 -1</clus>
<clus scale="   89.017">  7  8 -1 -1</clus>
<clus scale="  103.087">  1  9  2 -1</clus>
<clus scale="  191.842">  1  5  2 -1</clus>
<clus scale="  103.087">  1  5  2 -1</clus>
</clustering>
</event>
<event>
 9    1  0.6270443E-005  0.1050224E+03  0.7546771E-02  0.1275988E+00
         21   -1    0    0  501  502  0.00000000000E+00  0.00000000000E+00  0.20191208724E+03  0.20191208724E+03  0.00000000000E+00 0. -1.
         -2   -1    0    0    0  501 -0.00000000000E+00 -0.00000000000E+00 -0.13358664540E+03  0.13358664540E+03  0.00000000000E+00 0.  1.
        -24    2    1    2    0    0  0.25565281957E+02 -0.28644173804E+02 -0.36081663965E+02  0.96413991022E+02  0.80744652181E+02 0.  0.
         23    2    1    2    0    0 -0.82845241197E+02  0.47793312056E+02  0.11656069250E+03  0.17747798147E+03  0.93618930801E+02 0.  0.
         11    1    3    3    0    0  0.45744102285E+02  0.85339654624E+01 -0.24333477980E+02  0.52511614058E+02  0.00000000000E+00 0. -1.
        -12    1    3    3    0    0 -0.20178820328E+02 -0.37178139267E+02 -0.11748185985E+02  0.43902376964E+02  0.00000000000E+00 0.  1.
        -13    1    4    4    0    0 -0.47868305782E+02  0.43095370340E+01  0.11153175100E+03  0.12144660674E+03  0.00000000000E+00 0. -1.
         13    1    4    4    0    0 -0.34976935414E+02  0.43483775022E+02  0.50289414987E+01  0.56031374727E+02  0.00000000000E+00 0.  1.
         -1    1    1    2    0  502  0.57279959240E+02 -0.19149138252E+02 -0.12153586701E+02  0.61606760149E+02  0.00000000000E+00 0.  1.
<scales pt_clust_5="13000.00000" pt_clust_6="13000.00000" pt_clust_7="13000.00000" pt_clust_8="13000.00000" pt_clust_9="60.39608"></scales>
<clustering>
<clus scale="   60.396">  1  9  2 -1</clus>
<clus scale="   80.745">  5  6 -1 -1</clus>
<clus scale="   93.619">  7  8 -1 -1</clus>
<clus scale="   93.728">  2  5  1 -1</clus>
<clus scale="   60.396">  1  5  2 -1</clus>
</clustering>
</event>
<event>
 9    1  0.6270443E-005  0.2012933E+03  0.7546771E-02  0.1149611E+00
         21   -1    0    0  501  502  0.00000000000E+00  0.00000000000E+00  0.40883650099E+02  0.40883650099E+02  0.00000000000E+00 0. -1.
          1   -1    0    0  502    0 -0.00000000000E+00 -0.00000000000E+00 -0.13901393574E+04  0.13901393574E+04  0.00000000000E+00 0. -1.
        -24    2    1    2    0    0 -0.16166590660E+03  0.82113022131E+02 -0.66996246700E+03  0.69831186384E+03  0.76885227628E+02 0.  0.
         23    2    1    2    0    0  0.14015475154E+03 -0.11918669986E+03 -0.38818211495E+03  0.43846146282E+03  0.87830952448E+02 0.  0.
         13    1    3    3    0    0 -0.89935324869E+02  0.83440353641E+02 -0.47436387580E+03  0.48997116440E+03  0.00000000000E+00 0. -1.
        -14    1    3    3    0    0 -0.71730581736E+02 -0.13273315096E+01 -0.19559859120E+03  0.20834069944E+03  0.00000000000E+00 0.  1.
        -11    1    4    4    0    0  0.40981220761E+02 -0.91354811436E+02 -0.21001645992E+03  0.23266300837E+03  0.00000000000E+00 0. -1.
         11    1    4    4    0    0  0.99173530777E+02 -0.27831888420E+02 -0.17816565503E+03  0.20579845445E+03  0.00000000000E+00 0.  1.
          2    1    1    2  501    0  0.21511155067E+02  0.37073677724E+02 -0.29111112530E+03  0.29424968080E+03  0.00000000000E+00 0. -1.
<scales pt_clust_5="13000.00000" pt_clust_6="13000.00000" pt_clust_7="13000.00000" pt_clust_8="13000.00000" pt_clust_9="42.86245"></scales>
<clustering>
<clus scale="   42.862">  1  9  2 -1</clus>
<clus scale="   76.885">  5  6 -1 -1</clus>
<clus scale="   87.831">  7  8 -1 -1</clus>
<clus scale="  196.764">  2  5  1 -1</clus>
<clus scale="   42.862">  1  5  2 -1</clus>
</clustering>
</event>
<event>
 9    1  0.6270443E-005  0.9548314E+02  0.7546771E-02  0.1296825E+00
         21   -1    0    0  501  502  0.00000000000E+00  0.00000000000E+00  0.32161861735E+03  0.32161861735E+03  0.00000000000E+00 0.  1.
          3   -1    0    0  502    0 -0.00000000000E+00 -0.00000000000E+00 -0.12893241726E+03  0.12893241726E+03  0.00000000000E+00 0. -1.
         23    2    1    2    0    0 -0.65361975177E+01  0.18794287757E+02 -0.76354633388E+02  0.12056757209E+03  0.91162285342E+02 0.  0.
        -24    2    1    2    0    0  0.33864136483E+01 -0.68584157899E+02  0.73260389592E+02  0.12794649929E+03  0.79296705386E+02 0.  0.
         11    1    4    4    0    0 -0.32926274680E+02 -0.56034239050E+02  0.56150765988E+02  0.85888788740E+02  0.00000000000E+00 0. -1.
        -12    1    4    4    0    0  0.36312688328E+02 -0.12549918849E+02  0.17109623603E+02  0.42057710548E+02  0.00000000000E+00 0.  1.
        -13    1    3    3    0    0  0.34939764900E+01  0.53292615895E+02 -0.27925355086E+02  0.60267206982E+02  0.00000000000E+00 0. -1.
         13    1    3    3    0    0 -0.10030174008E+02 -0.34498328138E+02 -0.48429278301E+02  0.60300365105E+02  0.00000000000E+00 0.  1.
          4    1    1    2  501    0  0.31497838693E+01  0.49789870142E+02  0.19578044388E+03  0.20203696324E+03  0.00000000000E+00 0. -1.
<scales pt_clust_5="13000.00000" pt_clust_6="13000.00000" pt_clust_7="13000.00000" pt_clust_8="13000.00000" pt_clust_9="49.88940"></scales>
<clustering>
<clus scale="   49.889">  1  9  2 -1</clus>
<clus scale="   79.297">  5  6 -1 -1</clus>
<clus scale="   84.228">  1  5  2 -1</clus>
<clus scale="   91.162">  7  8 -1 -1</clus>
<clus scale="   49.889">  1  5  2 -1</clus>
</clustering>
</event>
<event>
 9    1  0.6270443E-005  0.1357781E+03  0.7546771E-02  0.1239600E+00
         21   -1    0    0  501  502  0.00000000000E+00  0.00000000000E+00  0.16218301460E+03  0.16218301460E+03  0.00000000000E+00 0. -1.
          1   -1    0    0  502    0 -0.00000000000E+00 -0.00000000000E+00 -0.16728400486E+03  0.16728400486E+03  0.00000000000E+00 0. -1.
        -24    2    1    2    0    0 -0.29724562632E+02  0.10439753947E+02 -0.15852150493E+01  0.88937636499E+02  0.83155590270E+02 0.  0.
         23    2    1    2    0    0  0.10986240371E+03  0.36326234844E+02 -0.83855508994E+01  0.14761627304E+03  0.91273783279E+02 0.  0.
         13    1    3    3    0    0 -0.27458621781E+02  0.56801352867E+01 -0.40724937923E+02  0.49444518562E+02  0.00000000000E+00 0. -1.
        -14    1    3    3    0    0 -0.22659408508E+01  0.47596186605E+01  0.39139722874E+02  0.39493117937E+02  0.00000000000E+00 0.  1.
        -11    1    4    4    0    0  0.97586967932E+02 -0.88728744545E+01 -0.18448570467E+02  0.99711052364E+02  0.00000000000E+00 0. -1.
         11    1    4    4    0    0  0.12275435782E+02  0.45199109299E+02  0.10063019568E+02  0.47905220674E+02  0.00000000000E+00 0.  1.
          2    1    1    2  501    0 -0.80137841081E+02 -0.46765988792E+02  0.48697756921E+01  0.92913109926E+02  0.00000000000E+00 0. -1.
<scales pt_clust_5="13000.00000" pt_clust_6="13000.00000" pt_clust_7="13000.00000" pt_clust_8="13000.00000" pt_clust_9="100.52253"></scales>
<clustering>
<clus scale="   83.156">  5  6 -1 -1</clus>
<clus scale="   88.924">  2  5  1 -1</clus>
<clus scale="   91.274">  7  8 -1 -1</clus>
<clus scale="  100.523">  1  9  2 -1</clus>
<clus scale="  100.523">  1  5  2 -1</clus>
</clustering>
</event>
<event>
 9    1  0.6270443E-005  0.9269581E+02  0.7546771E-02  0.1305995E+00
         -2   -1    0    0    0  501 -0.00000000000E+00  0.00000000000E+00  0.61754510397E+02  0.61754510397E+02  0.00000000000E+00 0.  1.
         21   -1    0    0  501  502  0.00000000000E+00 -0.00000000000E+00 -0.39227942529E+03  0.39227942529E+03  0.00000000000E+00 0. -1.
        -24    2    1    2    0    0 -0.31343013459E+01  0.54170041908E+01  0.21348323905E+02  0.80431735288E+02  0.77293889335E+02 0.  0.
         23    2    1    2    0    0  0.12259943502E+01 -0.29985708907E+02 -0.23676377137E+03  0.25588451958E+03  0.92299285612E+02 0.  0.
         11    1    3    3    0    0  0.22373006604E+02  0.29644089755E+02  0.25437876263E+02  0.45015653174E+02  0.00000000000E+00 0. -1.
        -12    1    3    3    0    0 -0.25507307950E+02 -0.24227085564E+02 -0.40895523581E+01  0.35416082114E+02  0.00000000000E+00 0.  1.
        -13    1    4    4    0    0 -0.11323625338E+02 -0.61324979199E+02 -0.16986699615E+03  0.18095240796E+03  0.00000000000E+00 0. -1.
         13    1    4    4    0    0  0.12549619689E+02  0.31339270292E+02 -0.66896775216E+02  0.74932111615E+02  0.00000000000E+00 0.  1.
         -1    1    1    2    0  502  0.19083069957E+01  0.24568704716E+02 -0.11510946742E+03  0.11771768082E+03  0.00000000000E+00 0.  1.
<scales pt_clust_5="13000.00000" pt_clust_6="13000.00000" pt_clust_7="13000.00000" pt_clust_8="13000.00000" pt_clust_9="24.64270"></scales>
<clustering>
<clus scale="   24.643">  2  9  1 -1</clus>
<clus scale="   77.294">  5  6 -1 -1</clus>
<clus scale="   77.767">  1  5  2 -1</clus>
<clus scale="   92.299">  7  8 -1 -1</clus>
<clus scale="   24.643">  2  5  1 -1</clus>
</clustering>
</event>
<event>
 9    1  0.6270443E-005  0.8757324E+02  0.7546771E-02  0.1312643E+00
          1   -1    0    0  502    0 -0.00000000000E+00  0.00000000000E+00  0.19976601514E+03  0.19976601514E+03  0.00000000000E+00 0. -1.
         21   -1    0    0  501  502  0.00000000000E+00 -0.00000000000E+00 -0.12114960752E+03  0.12114960752E+03  0.00000000000E+00 0.  1.
         23    2    1    2    0    0  0.43321141234E+01  0.76419628725E+01  0.15237018133E+03  0.17575204086E+03  0.87148958087E+02 0.  0.
        -24    2    1    2    0    0  0.31509079495E+02 -0.14803738470E+02 -0.50121739976E+02  0.10163939074E+03  0.81279789420E+02 0.  0.
         13    1    4    4    0    0 -0.25800527666E+02 -0.17035181904E+02 -0.14743543228E+02  0.34252543224E+02  0.00000000000E+00 0. -1.
        -14    1    4    4    0    0  0.57309607161E+02  0.22314434347E+01 -0.35378196747E+02  0.67386847514E+02  0.00000000000E+00 0.  1.
        -11    1    3    3    0    0 -0.28135423753E+02 -0.26330673529E+02  0.87876406851E+02  0.95953995848E+02  0.00000000000E+00 0. -1.
         11    1    3    3    0    0  0.32467537877E+02  0.33972636401E+02  0.64493774484E+02  0.79798045008E+02  0.00000000000E+00 0.  1.
          2    1    1    2  501    0 -0.35841193619E+02  0.71617755971E+01 -0.23632033741E+02  0.43524191072E+02  0.00000000000E+00 0. -1.
<scales pt_clust_5="13000.00000" pt_clust_6="13000.00000" pt_clust_7="13000.00000" pt_clust_8="13000.00000" pt_clust_9="36.54972"></scales>
<clustering>
<clus scale="   36.550">  2  9  1 -1</clus>
<clus scale="   81.280">  5  6 -1 -1</clus>
<clus scale="   81.735">  2  5  1 -1</clus>
<clus scale="   87.149">  7  8 -1 -1</clus>
<clus scale="   36.550">  2  5  1 -1</clus>
</clustering>
</event>
<event>
 9    1  0.6270443E-005  0.1875061E+03  0.7546771E-02  0.1162139E+00
         -2   -1    0    0    0  501 -0.00000000000E+00  0.00000000000E+00  0.79655561442E+03  0.79655561442E+03  0.00000000000E+00 0.  1.
         21   -1    0    0  501  502  0.00000000000E+00 -0.00000000000E+00 -0.56906300708E+02  0.56906300708E+02  0.00000000000E+00 0.  1.
         23    2    1    2    0    0  0.75104550403E+02 -0.15553056060E+03  0.45907572089E+03  0.49879617428E+03  0.90645778664E+02 0.  0.
        -24    2    1    2    0    0 -0.54914366977E+02  0.13855143515E+03  0.16251601037E+03  0.23369662504E+03  0.77398779344E+02 0.  0.
         13    1    4    4    0    0  0.12281793610E+02  0.58387989235E+02  0.83396330054E+02  0.10254241858E+03  0.00000000000E+00 0. -1.
        -14    1    4    4    0    0 -0.67196160587E+02  0.80163445913E+02  0.79119680320E+02  0.13115420646E+03  0.00000000000E+00 0.  1.
        -13    1    3    3    0    0  0.20604538261E+01 -0.10158024872E+03  0.28295609928E+03  0.30064421917E+03  0.00000000000E+00 0. -1.
         13    1    3    3    0    0  0.73044096577E+02 -0.53950311879E+02  0.17611962161E+03  0.19815195511E+03  0.00000000000E+00 0.  1.
         -1    1    1    2    0  502 -0.20190183425E+02  0.16979125450E+02  0.11805758245E+03  0.12096911581E+03  0.00000000000E+00 0.  1.
<scales pt_clust_5="13000.00000" pt_clust_6="13000.00000" pt_clust_7="13000.00000" pt_clust_8="13000.00000" pt_clust_9="26.38058"></scales>
<clustering>
<clus scale="   26.381">  2  9  1 -1</clus>
<clus scale="   77.399">  5  6 -1 -1</clus>
<clus scale="   90.646">  7  8 -1 -1</clus>
<clus scale="  181.473">  2  5  1 -1</clus>
<clus scale="   26.381">  2  5  1 -1</clus>
</clustering>
</event>
<event>
 9    1  0.6270443E-005  0.2987468E+03  0.7546771E-02  0.1086299E+00
          1   -1    0    0  502    0 -0.00000000000E+00  0.00000000000E+00  0.57869879268E+03  0.57869879268E+03  0.00000000000E+00 0. -1.
         21   -1    0    0  501  502  0.00000000000E+00 -0.00000000000E+00 -0.42238457095E+03  0.42238457095E+03  0.00000000000E+00 0. -1.
         23    2    1    2    0    0 -0.19393923522E+03  0.20777859198E+03  0.43646139198E+03  0.52865066644E+03  0.90490939858E+02 0.  0.
        -24    2    1    2    0    0  0.21113958355E+03 -0.19558342088E+03 -0.13794695290E+03  0.32867778077E+03  0.78529761832E+02 0.  0.
         13    1    4    4    0    0  0.58870023784E+02 -0.46958056142E+02 -0.38936878691E+00  0.75305314188E+02  0.00000000000E+00 0. -1.
        -14    1    4    4    0    0  0.15226955976E+03 -0.14862536474E+03 -0.13755758412E+03  0.25337246658E+03  0.00000000000E+00 0.  1.
        -11    1    3    3    0    0 -0.13157871972E+03  0.15220399953E+03  0.37280123371E+03  0.42362693117E+03  0.00000000000E+00 0. -1.
         11    1    3    3    0    0 -0.62360515498E+02  0.55574592459E+02  0.63660158271E+02  0.10502373528E+03  0.00000000000E+00 0.  1.
          2    1    1    2  501    0 -0.17200348325E+02 -0.12195171105E+02 -0.14220021735E+03  0.14375491642E+03  0.00000000000E+00 0. -1.
<scales pt_clust_5="13000.00000" pt_clust_6="13000.00000" pt_clust_7="13000.00000" pt_clust_8="13000.00000" pt_clust_9="21.08493"></scales>
<clustering>
<clus scale="   21.085">  2  9  1 -1</clus>
<clus scale="   78.530">  5  6 -1 -1</clus>
<clus scale="   90.491">  7  8 -1 -1</clus>
<clus scale="  295.344">  2  5  1 -1</clus>
<clus scale="   21.085">  2  5  1 -1</clus>
</clustering>
</event>
<event>
 9    1  0.6270443E-005  0.1287850E+03  0.7546771E-02  0.1239690E+00
         21   -1    0    0  501  502  0.00000000000E+00  0.00000000000E+00  0.10280985246E+03  0.10280985246E+03  0.00000000000E+00 0. -1.
          1   -1    0    0  502    0 -0.00000000000E+00 -0.00000000000E+00 -0.32928006897E+03  0.32928006897E+03  0.00000000000E+00 0. -1.
        -24    2    1    2    0    0  0.63522675839E+02  0.61310499234E+01 -0.32036894740E+02  0.10883946189E+03  0.82139793773E+02 0.  0.
         23    2    1    2    0    0  0.24024795722E+02  0.53584334678E+02 -0.18976634648E+03  0.21717375336E+03  0.87776427128E+02 0.  0.
         13    1    3    3    0    0  0.72172540121E+02  0.25356200764E+02 -0.80721999524E+01  0.76921862150E+02  0.00000000000E+00 0. -1.
        -14    1    3    3    0    0 -0.86498642811E+01 -0.19225150840E+02 -0.23964694787E+02  0.31917599740E+02  0.00000000000E+00 0.  1.
        -13    1    4    4    0    0  0.29752666456E+02  0.17736200839E+02 -0.17430875863E+03  0.17771701471E+03  0.00000000000E+00 0. -1.
         13    1    4    4    0    0 -0.57278707337E+01  0.35848133839E+02 -0.15457587850E+02  0.39456738651E+02  0.00000000000E+00 0.  1.
          2    1    1    2  501    0 -0.87547471562E+02 -0.59715384602E+02 -0.46669752893E+01  0.10607670618E+03  0.00000000000E+00 0. -1.
<scales pt_clust_5="13000.00000" pt_clust_6="13000.00000" pt_clust_7="13000.00000" pt_clust_8="13000.00000" pt_clust_9="94.23843"></scales>
<clustering>
<clus scale="   82.140">  5  6 -1 -1</clus>
<clus scale="   87.776">  7  8 -1 -1</clus>
<clus scale="  104.018">  2  5  1 -1</clus>
<clus scale="   94.238">  1  9  2 -1</clus>
<clus scale="   94.238">  1  5  2 -1</clus>
</clustering>
</event>
<event>
 9    1  0.6270443E-005  0.1092976E+03  0.7546771E-02  0.1265997E+00
         21   -1    0    0  501  502  0.00000000000E+00  0.00000000000E+00  0.70198047830E+02  0.70198047830E+02  0.00000000000E+00 0.  1.
          1   -1    0    0  502    0 -0.00000000000E+00 -0.00000000000E+00 -0.35509892409E+03  0.35509892409E+03  0.00000000000E+00 0. -1.
        -24    2    1    2    0    0  0.38926047292E+02  0.57185110951E+02 -0.24074744732E+03  0.26336580931E+03  0.81343973675E+02 0.  0.
         23    2    1    2    0    0  0.13088428264E+02 -0.40499110932E+02 -0.32076912685E+02  0.10598681071E+03  0.91612175923E+02 0.  0.
         13    1    3    3    0    0  0.50242633984E+02  0.61941163987E+02 -0.13418143883E+03  0.15609512674E+03  0.00000000000E+00 0. -1.
        -14    1    3    3    0    0 -0.11316586692E+02 -0.47560530354E+01 -0.10656600848E+03  0.10727068257E+03  0.00000000000E+00 0.  1.
        -11    1    4    4    0    0 -0.31485280793E+02 -0.15914947160E+02  0.13389472944E+02  0.37734419770E+02  0.00000000000E+00 0.  1.
         11    1    4    4    0    0  0.44573709057E+02 -0.24584163772E+02 -0.45466385629E+02  0.68252390944E+02  0.00000000000E+00 0. -1.
          2    1    1    2  501    0 -0.52014475555E+02 -0.16686000019E+02 -0.12076516262E+02  0.55944351895E+02  0.00000000000E+00 0. -1.
<scales pt_clust_5="13000.00000" pt_clust_6="13000.00000" pt_clust_7="13000.00000" pt_clust_8="13000.00000" pt_clust_9="54.62534"></scales>
<clustering>
<clus scale="   54.625">  1  9  2 -1</clus>
<clus scale="   81.344">  5  6 -1 -1</clus>
<clus scale="   91.612">  7  8 -1 -1</clus>
<clus scale="  100.847">  2  5  1 -1</clus>
<clus scale="   54.625">  1  5  2 -1</clus>
</clustering>
</event>
<event>
 9    1  0.6270443E-005  0.2160074E+03  0.7546771E-02  0.1136895E+00
         21   -1    0    0  501  502  0.00000000000E+00  0.00000000000E+00  0.26345799546E+02  0.26345799546E+02  0.00000000000E+00 0.  1.
          1   -1    0    0  502    0 -0.00000000000E+00 -0.00000000000E+00 -0.11604128553E+04  0.11604128553E+04  0.00000000000E+00 0. -1.
        -24    2    1    2    0    0 -0.79204019415E+02  0.19848981613E+02 -0.22234324530E+03  0.24909113705E+03  0.77088371770E+02 0.  0.
         23    2    1    2    0    0 -0.28646505756E+02 -0.13819276138E+02 -0.29469430362E+03  0.31125431118E+03  0.94989046496E+02 0.  0.
         13    1    3    3    0    0 -0.30950654545E+02 -0.12377198740E+02 -0.16193085983E+03  0.16532616681E+03  0.00000000000E+00 0. -1.
        -14    1    3    3    0    0 -0.48253364870E+02  0.32226180352E+02 -0.60412385472E+02  0.83764970242E+02  0.00000000000E+00 0.  1.
        -13    1    4    4    0    0 -0.25787921753E+02 -0.52741258841E+02 -0.20904932501E+03  0.21713654132E+03  0.00000000000E+00 0. -1.
         13    1    4    4    0    0 -0.28585840024E+01  0.38921982703E+02 -0.85644978615E+02  0.94117769853E+02  0.00000000000E+00 0.  1.
          2    1    1    2  501    0  0.10785052517E+03 -0.60297054746E+01 -0.61702950679E+03  0.62641320658E+03  0.00000000000E+00 0. -1.
<scales pt_clust_5="13000.00000" pt_clust_6="13000.00000" pt_clust_7="13000.00000" pt_clust_8="13000.00000" pt_clust_9="108.01900"></scales>
<clustering>
<clus scale="   77.088">  5  6 -1 -1</clus>
<clus scale="   94.989">  7  8 -1 -1</clus>
<clus scale="   97.978">  5  7 -1 -1</clus>
<clus scale="  108.019">  1  9  2 -1</clus>
<clus scale="  108.019">  1  5  2 -1</clus>
</clustering>
</event>
<event>
 9    1  0.6270443E-005  0.1138820E+03  0.7546771E-02  0.1256964E+00
         21   -1    0    0  501  502  0.00000000000E+00  0.00000000000E+00  0.85646275105E+03  0.85646275105E+03  0.00000000000E+00 0.  1.
         -2   -1    0    0    0  501 -0.00000000000E+00 -0.00000000000E+00 -0.17731474624E+03  0.17731474624E+03  0.00000000000E+00 0.  1.
         23    2    1    2    0    0  0.30045758919E+02 -0.64063208797E+02 -0.13998032457E+03  0.18087682402E+03  0.90083804592E+02 0.  0.
        -24    2    1    2    0    0 -0.10478469596E+03  0.25480326800E+01  0.35516986595E+03  0.37895185599E+03  0.80452162842E+02 0.  0.
         13    1    4    4    0    0 -0.17867125557E+02 -0.32354023105E+02  0.12803720650E+03  0.13326493626E+03  0.00000000000E+00 0. -1.
        -14    1    4    4    0    0 -0.86917570404E+02  0.34902055785E+02  0.22713265945E+03  0.24568691974E+03  0.00000000000E+00 0.  1.
        -11    1    3    3    0    0 -0.14091376278E+02 -0.25441298400E+02 -0.11233471980E+03  0.11603842391E+03  0.00000000000E+00 0.  1.
         11    1    3    3    0    0  0.44137135197E+02 -0.38621910397E+02 -0.27645604770E+02  0.64838400113E+02  0.00000000000E+00 0. -1.
         -1    1    1    2    0  502  0.74738937042E+02  0.61515176117E+02  0.46395846343E+03  0.47394881727E+03  0.00000000000E+00 0.  1.
<scales pt_clust_5="13000.00000" pt_clust_6="13000.00000" pt_clust_7="13000.00000" pt_clust_8="13000.00000" pt_clust_9="96.79889"></scales>
<clustering>
<clus scale="   80.452">  5  6 -1 -1</clus>
<clus scale="   90.084">  7  8 -1 -1</clus>
<clus scale="   96.799">  1  9  2 -1</clus>
<clus scale="  106.426">  1  5  2 -1</clus>
<clus scale="   96.799">  1  5  2 -1</clus>
</clustering>
</event>
<event>
 9    1  0.6270443E-005  0.2173633E+03  0.7546771E-02  0.1136719E+00
          1   -1    0    0  502    0 -0.00000000000E+00  0.00000000000E+00  0.43156878766E+03  0.43156878766E+03  0.00000000000E+00 0. -1.
         21   -1    0    0  501  502  0.00000000000E+00 -0.00000000000E+00 -0.19475294068E+03  0.19475294068E+03  0.00000000000E+00 0. -1.
         23    2    1    2    0    0  0.14367097013E+03 -0.11388715266E+03  0.19423568574E+03  0.28302940354E+03  0.93629645168E+02 0.  0.
        -24    2    1    2    0    0 -0.12271231840E+03  0.19760865779E+03  0.62594199709E+02  0.25469708091E+03  0.82734965189E+02 0.  0.
         11    1    4    4    0    0 -0.11376118088E+03  0.10846351116E+03  0.36187160253E+02  0.16129305656E+03  0.00000000000E+00 0. -1.
        -12    1    4    4    0    0 -0.89511375168E+01  0.89145146628E+02  0.26407039456E+02  0.93404024341E+02  0.00000000000E+00 0.  1.
        -11    1    3    3    0    0  0.28120589773E+02 -0.80532868021E+02  0.88047256933E+02  0.12259131231E+03  0.00000000000E+00 0.  1.
         11    1    3    3    0    0  0.11555038035E+03 -0.33354284634E+02  0.10618842881E+03  0.16043809123E+03  0.00000000000E+00 0. -1.
          2    1    1    2  501    0 -0.20958651728E+02 -0.83721505133E+02 -0.20014038477E+02  0.88595243891E+02  0.00000000000E+00 0. -1.
<scales pt_clust_5="13000.00000" pt_clust_6="13000.00000" pt_clust_7="13000.00000" pt_clust_8="13000.00000" pt_clust_9="86.30501"></scales>
<clustering>
<clus scale="   82.735">  5  6 -1 -1</clus>
<clus scale="   86.305">  2  9  1 -1</clus>
<clus scale="   93.630">  7  8 -1 -1</clus>
<clus scale="  212.898">  2  5  1 -1</clus>
<clus scale="   86.305">  2  5  1 -1</clus>
</clustering>
</event>
<event>
 9    1  0.6270443E-005  0.2331437E+03  0.7546771E-02  0.1163020E+00
         -2   -1    0    0    0  501 -0.00000000000E+00  0.00000000000E+00  0.43549383538E+03  0.43549383538E+03  0.00000000000E+00 0.  1.
         21   -1    0    0  501  502  0.00000000000E+00 -0.00000000000E+00 -0.17206946039E+03  0.17206946039E+03  0.00000000000E+00 0. -1.
         23    2    1    2    0    0 -0.96040016492E+01  0.16631762990E+02  0.22026552536E+02  0.95081151542E+02  0.90478748743E+02 0.  0.
        -24    2    1    2    0    0 -0.43978099669E+02  0.20388883786E+03  0.11236803736E+03  0.25142839033E+03  0.84172015483E+02 0.  0.
         11    1    4    4    0    0 -0.13354238924E+02  0.19029179686E+03  0.88496322226E+02  0.21028766654E+03  0.00000000000E+00 0. -1.
        -12    1    4    4    0    0 -0.30623860745E+02  0.13597040995E+02  0.23871715132E+02  0.41140723792E+02  0.00000000000E+00 0.  1.
        -13    1    3    3    0    0  0.16032157437E+02 -0.31615156224E+02  0.19339302673E+02  0.40380153579E+02  0.00000000000E+00 0.  1.
         13    1    3    3    0    0 -0.25636159086E+02  0.48246919215E+02  0.26872498636E+01  0.54700997964E+02  0.00000000000E+00 0. -1.
         -1    1    1    2    0  502  0.53582101318E+02 -0.22052060085E+03  0.12902978509E+03  0.26105375389E+03  0.00000000000E+00 0.  1.
<scales pt_clust_5="13000.00000" pt_clust_6="13000.00000" pt_clust_7="13000.00000" pt_clust_8="13000.00000" pt_clust_9="217.41918"></scales>
<clustering>
<clus scale="   84.172">  5  6 -1 -1</clus>
<clus scale="   90.479">  7  8 -1 -1</clus>
<clus scale="   92.495">  1  7  2 -1</clus>
<clus scale="  217.419">  2  9  1 -1</clus>
<clus scale="  217.419">  2  5  1 -1</clus>
</clustering>
</event>
<event>
 9    1  0.6270443E-005  0.9231085E+02  0.7546771E-02  0.1311356E+00
         21   -1    0    0  501  502  0.00000000000E+00  0.00000000000E+00  0.80209824013E+02  0.80209824013E+02  0.00000000000E+00 0.  1.
          1   -1    0    0  502    0 -0.00000000000E+00 -0.00000000000E+00 -0.45325598411E+03  0.45325598411E+03  0.00000000000E+00 0. -1.
        -24    2    1    2    0    0  0.41468600627E+01 -0.17371580236E+02 -0.34729017475E+03  0.35460135169E+03  0.69373517277E+02 0.  0.
         23    2    1    2    0    0  0.51637495563E+02  0.10162409839E+02  0.19481133521E+02  0.10668230217E+03  0.90729782929E+02 0.  0.
         11    1    3    3    0    0  0.36046066563E+02 -0.91671978960E+01 -0.14766064917E+03  0.15227285951E+03  0.00000000000E+00 0. -1.
        -12    1    3    3    0    0 -0.31899206501E+02 -0.82043823399E+01 -0.19962952558E+03  0.20232849218E+03  0.00000000000E+00 0.  1.
        -13    1    4    4    0    0  0.47936869719E+02  0.33465760984E+02  0.43608152550E+02  0.72935393367E+02  0.00000000000E+00 0.  1.
         13    1    4    4    0    0  0.37006258439E+01 -0.23303351145E+02 -0.24127019030E+02  0.33746908799E+02  0.00000000000E+00 0. -1.
          2    1    1    2  501    0 -0.55784355626E+02  0.72091703965E+01 -0.45237118869E+02  0.72182154263E+02  0.00000000000E+00 0. -1.
<scales pt_clust_5="13000.00000" pt_clust_6="13000.00000" pt_clust_7="13000.00000" pt_clust_8="13000.00000" pt_clust_9="56.24826"></scales>
<clustering>
<clus scale="   56.248">  1  9  2 -1</clus>
<clus scale="   69.374">  5  6 -1 -1</clus>
<clus scale="   71.429">  2  5  1 -1</clus>
<clus scale="   90.730">  7  8 -1 -1</clus>
<clus scale="   56.248">  1  5  2 -1</clus>
</clustering>
</event>
<event>
 9    1  0.6270443E-005  0.1109372E+03  0.7546771E-02  0.1260697E+00
         21   -1    0    0  501  502  0.00000000000E+00  0.00000000000E+00  0.63897107279E+02  0.63897107279E+02  0.00000000000E+00 0. -1.
          3   -1    0    0  502    0 -0.00000000000E+00 -0.00000000000E+00 -0.34060029689E+03  0.34060029689E+03  0.00000000000E+00 0. -1.
         23    2    1    2    0    0  0.60190300953E+01 -0.64404906024E+02 -0.23020986668E+03  0.25426847453E+03  0.86438728462E+02 0.  0.
        -24    2    1    2    0    0 -0.16837317488E+02  0.85455631745E+02 -0.40278993915E+02  0.12575881970E+03  0.81281751479E+02 0.  0.
         13    1    4    4    0    0 -0.24859949503E+02  0.46337845350E+02  0.17590305875E+02  0.55449363041E+02  0.00000000000E+00 0. -1.
        -14    1    4    4    0    0  0.80226320146E+01  0.39117786395E+02 -0.57869299790E+02  0.70309456655E+02  0.00000000000E+00 0.  1.
        -13    1    3    3    0    0  0.42636539873E+02 -0.13395404617E+02 -0.10768929517E+03  0.11659457831E+03  0.00000000000E+00 0.  1.
         13    1    3    3    0    0 -0.36617509778E+02 -0.51009501407E+02 -0.12252057151E+03  0.13767389621E+03  0.00000000000E+00 0. -1.
          4    1    1    2  501    0  0.10818287393E+02 -0.21050725721E+02 -0.62143290115E+01  0.24470109942E+02  0.00000000000E+00 0. -1.
<scales pt_clust_5="13000.00000" pt_clust_6="13000.00000" pt_clust_7="13000.00000" pt_clust_8="13000.00000" pt_clust_9="23.66788"></scales>
<clustering>
<clus scale="   23.668">  1  9  2 -1</clus>
<clus scale="   81.282">  5  6 -1 -1</clus>
<clus scale="   86.439">  7  8 -1 -1</clus>
<clus scale="  106.968">  1  5  2 -1</clus>
<clus scale="   23.668">  1  5  2 -1</clus>
</clustering>
</event>
<event>
 9    1  0.6270443E-005  0.1816808E+03  0.7546771E-02  0.1168199E+00
         21   -1    0    0  501  502  0.00000000000E+00  0.00000000000E+00  0.54901509166E+02  0.54901509166E+02  0.00000000000E+00 0.  1.
          1   -1    0    0  502    0 -0.00000000000E+00 -0.00000000000E+00 -0.10041199218E+04  0.10041199218E+04  0.00000000000E+00 0. -1.
        -24    2    1    2    0    0  0.15533108102E+03  0.50131777907E+02 -0.77353188835E+03  0.79463881170E+03  0.80363666389E+02 0.  0.
         23    2    1    2    0    0 -0.11421369799E+03 -0.42645404504E+02 -0.13532002359E+03  0.20627806393E+03  0.96828361245E+02 0.  0.
         13    1    3    3    0    0  0.15301495870E+03  0.43180996582E+02 -0.77046132042E+03  0.78669487244E+03  0.00000000000E+00 0. -1.
        -14    1    3    3    0    0  0.23161223218E+01  0.69507813249E+01 -0.30705679328E+01  0.79439392663E+01  0.00000000000E+00 0.  1.
        -13    1    4    4    0    0  0.58868767172E+01 -0.23738705526E+02 -0.12795983943E+00  0.24458083148E+02  0.00000000000E+00 0. -1.
         13    1    4    4    0    0 -0.12010057471E+03 -0.18906698978E+02 -0.13519206375E+03  0.18181998079E+03  0.00000000000E+00 0.  1.
          2    1    1    2  501    0 -0.41117383023E+02 -0.74863734027E+01 -0.40366500731E+02  0.58104555369E+02  0.00000000000E+00 0. -1.
<scales pt_clust_5="13000.00000" pt_clust_6="13000.00000" pt_clust_7="13000.00000" pt_clust_8="13000.00000" pt_clust_9="41.79336"></scales>
<clustering>
<clus scale="   41.793">  1  9  2 -1</clus>
<clus scale="   80.364">  5  6 -1 -1</clus>
<clus scale="   96.828">  7  8 -1 -1</clus>
<clus scale="  173.466">  2  5  1 -1</clus>
<clus scale="   41.793">  1  5  2 -1</clus>
</clustering>
</event>
<event>
 9    1  0.6270443E-005  0.1056886E+03  0.7546771E-02  0.1274739E+00
          1   -1    0    0  502    0 -0.00000000000E+00  0.00000000000E+00  0.41063035201E+03  0.41063035201E+03  0.00000000000E+00 0. -1.
         21   -1    0    0  501  502  0.00000000000E+00 -0.00000000000E+00 -0.84170068332E+02  0.84170068332E+02  0.00000000000E+00 0. -1.
         23    2    1    2    0    0  0.14880835781E+02 -0.57822431865E+02  0.30614561208E+03  0.32500962204E+03  0.91330420590E+02 0.  0.
        -24    2    1    2    0    0 -0.31437316243E+02  0.15422220388E+01 -0.33372624030E+02  0.90267815614E+02  0.77742287076E+02 0.  0.
         11    1    4    4    0    0 -0.40374383760E+01 -0.36643330788E+02 -0.14040503847E+02  0.39448325036E+02  0.00000000000E+00 0. -1.
        -12    1    4    4    0    0 -0.27399877867E+02  0.38185552827E+02 -0.19332120183E+02  0.50819490578E+02  0.00000000000E+00 0.  1.
        -11    1    3    3    0    0  0.52167073505E+02 -0.43979657087E+02  0.21491242452E+03  0.22548384423E+03  0.00000000000E+00 0. -1.
         11    1    3    3    0    0 -0.37286237725E+02 -0.13842774778E+02  0.91233187563E+02  0.99525777817E+02  0.00000000000E+00 0.  1.
          2    1    1    2  501    0  0.16556480462E+02  0.56280209826E+02  0.53687295631E+02  0.79522982688E+02  0.00000000000E+00 0. -1.
<scales pt_clust_5="13000.00000" pt_clust_6="13000.00000" pt_clust_7="13000.00000" pt_clust_8="13000.00000" pt_clust_9="58.66500"></scales>
<clustering>
<clus scale="   58.665">  2  9  1 -1</clus>
<clus scale="   77.742">  5  6 -1 -1</clus>
<clus scale="   91.330">  7  8 -1 -1</clus>
<clus scale="   94.195">  2  5  1 -1</clus>
<clus scale="   58.665">  2  5  1 -1</clus>
</clustering>
</event>
<event>
 9    1  0.7295961E-005  0.1106426E+03  0.7546771E-02  0.1263770E+00
         21   -1    0    0  501  502  0.00000000000E+00  0.00000000000E+00  0.12506029753E+03  0.12506029753E+03  0.00000000000E+00 0. -1.
         -4   -1    0    0    0  501 -0.00000000000E+00 -0.00000000000E+00 -0.36906414293E+03  0.36906414293E+03  0.00000000000E+00 0.  1.
         23    2    1    2    0    0 -0.50255184773E+01 -0.62347479045E+02 -0.32203958290E+03  0.34076541681E+03  0.92190630535E+02 0.  0.
        -24    2    1    2    0    0 -0.13135245212E+02  0.52311230571E+02  0.31331781687E+02  0.10225325969E+03  0.81024990358E+02 0.  0.
         11    1    4    4    0    0  0.93113940615E+01  0.33794714419E+02  0.54676117215E+02  0.64948152982E+02  0.00000000000E+00 0. -1.
        -12    1    4    4    0    0 -0.22446639274E+02  0.18516516152E+02 -0.23344335528E+02  0.37305106706E+02  0.00000000000E+00 0.  1.
        -11    1    3    3    0    0 -0.39205046938E+02 -0.59506308471E+02 -0.16024075260E+03  0.17537142084E+03  0.00000000000E+00 0.  1.
         11    1    3    3    0    0  0.34179528461E+02 -0.28411705736E+01 -0.16179883030E+03  0.16539399597E+03  0.00000000000E+00 0. -1.
         -3    1    1    2    0  502  0.18160763690E+02  0.10036248474E+02  0.46703955813E+02  0.51105763959E+02  0.00000000000E+00 0.  1.
<scales pt_clust_5="13000.00000" pt_clust_6="13000.00000" pt_clust_7="13000.00000" pt_clust_8="13000.00000" pt_clust_9="20.74945"></scales>
<clustering>
<clus scale="   20.749">  1  9  2 -1</clus>
<clus scale="   81.025">  5  6 -1 -1</clus>
<clus scale="   92.191">  7  8 -1 -1</clus>
<clus scale="  101.527">  1  5  2 -1</clus>
<clus scale="   20.749">  1  5  2 -1</clus>
</clustering>
</event>
<event>
 9    1  0.6270443E-005  0.3928503E+03  0.7546771E-02  0.1046537E+00
         21   -1    0    0  501  502  0.00000000000E+00  0.00000000000E+00  0.11191953593E+03  0.11191953593E+03  0.00000000000E+00 0.  1.
          1   -1    0    0  502    0 -0.00000000000E+00 -0.00000000000E+00 -0.18342411283E+04  0.18342411283E+04  0.00000000000E+00 0. -1.
        -24    2    1    2    0    0  0.12066735550E+03  0.34003197910E+03 -0.99236812140E+03  0.10588611739E+04  0.78804439214E+02 0.  0.
         23    2    1    2    0    0 -0.13871992580E+03 -0.39753164122E+03 -0.69461607039E+03  0.81743649362E+03  0.91849399992E+02 0.  0.
         13    1    3    3    0    0 -0.74466724732E+00  0.84502840358E+02 -0.27624955441E+03  0.28888596516E+03  0.00000000000E+00 0. -1.
        -14    1    3    3    0    0  0.12141202275E+03  0.25552913874E+03 -0.71611856700E+03  0.76997520870E+03  0.00000000000E+00 0.  1.
        -13    1    4    4    0    0 -0.46891710500E+02 -0.13090474396E+03 -0.15259653187E+03  0.20644753823E+03  0.00000000000E+00 0.  1.
         13    1    4    4    0    0 -0.91828215302E+02 -0.26662689726E+03 -0.54201953852E+03  0.61098895539E+03  0.00000000000E+00 0. -1.
          2    1    1    2  501    0  0.18052570298E+02  0.57499662119E+02 -0.35337400630E+02  0.69862996797E+02  0.00000000000E+00 0. -1.
<scales pt_clust_5="13000.00000" pt_clust_6="13000.00000" pt_clust_7="13000.00000" pt_clust_8="13000.00000" pt_clust_9="60.26696"></scales>
<clustering>
<clus scale="   60.267">  1  9  2 -1</clus>
<clus scale="   78.804">  5  6 -1 -1</clus>
<clus scale="   91.849">  7  8 -1 -1</clus>
<clus scale="  390.007">  2  5  1 -1</clus>
<clus scale="   60.267">  1  5  2 -1</clus>
</clustering>
</event>
<event>
 9    1  0.6270443E-005  0.2730106E+03  0.7546771E-02  0.1137763E+00
          1   -1    0    0  502    0 -0.00000000000E+00  0.00000000000E+00  0.93384077046E+02  0.93384077046E+02  0.00000000000E+00 0. -1.
         21   -1    0    0  501  502  0.00000000000E+00 -0.00000000000E+00 -0.12224985086E+04  0.12224985086E+04  0.00000000000E+00 0. -1.
         23    2    1    2    0    0 -0.54000850763E+02  0.23115722254E+02 -0.15401015010E+03  0.18626407176E+03  0.86745314555E+02 0.  0.
        -24    2    1    2    0    0  0.12964401964E+03 -0.25880535730E+03 -0.37788552741E+03  0.48313438164E+03  0.82665434719E+02 0.  0.
         11    1    4    4    0    0  0.11254252259E+03 -0.25379315476E+03 -0.32558605564E+03  0.42788206836E+03  0.00000000000E+00 0. -1.
        -12    1    4    4    0    0  0.17101497052E+02 -0.50122025459E+01 -0.52299471768E+02  0.55252313281E+02  0.00000000000E+00 0.  1.
        -11    1    3    3    0    0  0.91302247369E+00  0.33571509293E+02 -0.15676241785E+02  0.37062439244E+02  0.00000000000E+00 0.  1.
         11    1    3    3    0    0 -0.54913873237E+02 -0.10455787039E+02 -0.13833390831E+03  0.14920163251E+03  0.00000000000E+00 0. -1.
          2    1    1    2  501    0 -0.75643168881E+02  0.23568963505E+03 -0.59721875409E+03  0.64648413229E+03  0.00000000000E+00 0. -1.
<scales pt_clust_5="13000.00000" pt_clust_6="13000.00000" pt_clust_7="13000.00000" pt_clust_8="13000.00000" pt_clust_9="260.19460"></scales>
<clustering>
<clus scale="   82.665">  5  6 -1 -1</clus>
<clus scale="   86.745">  7  8 -1 -1</clus>
<clus scale="  104.762">  1  7  2 -1</clus>
<clus scale="  260.195">  2  9  1 -1</clus>
<clus scale="  260.195">  2  5  1 -1</clus>
</clustering>
</event>
<event>
 9    1  0.6270443E-005  0.4645295E+03  0.7546771E-02  0.1040933E+00
          1   -1    0    0  502    0 -0.00000000000E+00  0.00000000000E+00  0.12851034341E+04  0.12851034341E+04  0.00000000000E+00 0. -1.
         21   -1    0    0  501  502  0.00000000000E+00 -0.00000000000E+00 -0.43931991301E+03  0.43931991301E+03  0.00000000000E+00 0. -1.
        -24    2    1    2    0    0 -0.23361369838E+02  0.26461688245E+03  0.62162858959E+03  0.68068765523E+03  0.79660106116E+02 0.  0.
         23    2    1    2    0    0  0.17368151049E+03  0.33709718130E+03  0.22090934501E+02  0.39144295229E+03  0.94550509170E+02 0.  0.
         11    1    3    3    0    0 -0.43945035253E+02  0.19527961547E+03  0.39539055427E+03  0.44316925068E+03  0.00000000000E+00 0. -1.
        -12    1    3    3    0    0  0.20583665415E+02  0.69337266980E+02  0.22623803532E+03  0.23751840455E+03  0.00000000000E+00 0.  1.
        -11    1    4    4    0    0  0.64355359274E+02  0.10830378986E+03  0.51641935160E+02  0.13615510505E+03  0.00000000000E+00 0.  1.
         11    1    4    4    0    0  0.10932615122E+03  0.22879339145E+03 -0.29551000659E+02  0.25528784724E+03  0.00000000000E+00 0. -1.
          2    1    1    2  501    0 -0.15032014065E+03 -0.60171406376E+03  0.20206399698E+03  0.65229273956E+03  0.00000000000E+00 0. -1.
<scales pt_clust_5="13000.00000" pt_clust_6="13000.00000" pt_clust_7="13000.00000" pt_clust_8="13000.00000" pt_clust_9="454.80549"></scales>
<clustering>
<clus scale="   79.660">  5  6 -1 -1</clus>
<clus scale="   94.551">  7  8 -1 -1</clus>
<clus scale="  277.333">  1  5  2 -1</clus>
<clus scale="  454.805">  2  9  1 -1</clus>
<clus scale="  454.805">  2  5  1 -1</clus>
</clustering>
</event>
<event>
 9    1  0.6270443E-005  0.1020532E+03  0.7546771E-02  0.1282987E+00
          3   -1    0    0  502    0 -0.00000000000E+00  0.00000000000E+00  0.32133504008E+03  0.32133504008E+03  0.00000000000E+00 0. -1.
         21   -1    0    0  501  502  0.00000000000E+00 -0.00000000000E+00 -0.11618635245E+03  0.11618635245E+03  0.00000000000E+00 0. -1.
         23    2    1    2    0    0  0.59936602867E+02  0.25190402735E+02  0.22256400075E+03  0.24992820508E+03  0.93286764911E+02 0.  0.
        -24    2    1    2    0    0  0.49226637432E+01 -0.14374708627E+02  0.48781591482E+02  0.94288665141E+02  0.79245465738E+02 0.  0.
         11    1    4    4    0    0  0.14815572289E+02 -0.44654176676E+02  0.38570951234E+02  0.60837611360E+02  0.00000000000E+00 0. -1.
        -12    1    4    4    0    0 -0.98929085458E+01  0.30279468048E+02  0.10210640248E+02  0.33451053781E+02  0.00000000000E+00 0.  1.
        -11    1    3    3    0    0  0.24005184986E+02 -0.27884112418E+02  0.14353492932E+03  0.14817573542E+03  0.00000000000E+00 0.  1.
         11    1    3    3    0    0  0.35931417881E+02  0.53074515153E+02  0.79029071430E+02  0.10175246965E+03  0.00000000000E+00 0. -1.
          4    1    1    2  501    0 -0.64859266610E+02 -0.10815694108E+02 -0.66196904605E+02  0.93304522310E+02  0.00000000000E+00 0. -1.
<scales pt_clust_5="13000.00000" pt_clust_6="13000.00000" pt_clust_7="13000.00000" pt_clust_8="13000.00000" pt_clust_9="65.75488"></scales>
<clustering>
<clus scale="   65.755">  2  9  1 -1</clus>
<clus scale="   79.245">  5  6 -1 -1</clus>
<clus scale="   89.400">  2  5  1 -1</clus>
<clus scale="   93.287">  7  8 -1 -1</clus>
<clus scale="   65.755">  2  5  1 -1</clus>
</clustering>
</event>
<event>
 9    1  0.6270443E-005  0.1104398E+03  0.7546771E-02  0.1264920E+00
         21   -1    0    0  501  502  0.00000000000E+00  0.00000000000E+00  0.18131418658E+03  0.18131418658E+03  0.00000000000E+00 0.  1.
         -2   -1    0    0    0  501 -0.00000000000E+00 -0.00000000000E+00 -0.13478063989E+03  0.13478063989E+03  0.00000000000E+00 0.  1.
        -24    2    1    2    0    0 -0.44601366749E+02 -0.52203792836E+02 -0.69000293533E+02  0.12557693359E+03  0.79334783286E+02 0.  0.
         23    2    1    2    0    0  0.42910352171E+02  0.26297681779E+01  0.75929531085E+02  0.12704392379E+03  0.92339866131E+02 0.  0.
         13    1    3    3    0    0  0.20873063020E+02 -0.24335503190E+01 -0.56422263734E+01  0.21758714242E+02  0.00000000000E+00 0. -1.
        -14    1    3    3    0    0 -0.65474429769E+02 -0.49770242517E+02 -0.63358067159E+02  0.10381821934E+03  0.00000000000E+00 0.  1.
        -13    1    4    4    0    0 -0.24862808703E+02  0.16577117235E+02  0.10112185071E+02  0.31547049931E+02  0.00000000000E+00 0. -1.
         13    1    4    4    0    0  0.67773160874E+02 -0.13947349057E+02  0.65817346014E+02  0.95496873860E+02  0.00000000000E+00 0.  1.
         -1    1    1    2    0  502  0.16910145774E+01  0.49574024658E+02  0.39604309136E+02  0.63473969099E+02  0.00000000000E+00 0.  1.
<scales pt_clust_5="13000.00000" pt_clust_6="13000.00000" pt_clust_7="13000.00000" pt_clust_8="13000.00000" pt_clust_9="49.60286"></scales>
<clustering>
<clus scale="   49.603">  1  9  2 -1</clus>
<clus scale="   79.335">  5  6 -1 -1</clus>
<clus scale="   92.340">  7  8 -1 -1</clus>
<clus scale="   99.821">  2  5  1 -1</clus>
<clus scale="   49.603">  1  5  2 -1</clus>
</clustering>
</event>
<event>
 9    1  0.6270443E-005  0.1084798E+03  0.7546771E-02  0.1267250E+00
         21   -1    0    0  501  502  0.00000000000E+00  0.00000000000E+00  0.43592613235E+03  0.43592613235E+03  0.00000000000E+00 0.  1.
         -4   -1    0    0    0  501 -0.00000000000E+00 -0.00000000000E+00 -0.21451827292E+03  0.21451827292E+03  0.00000000000E+00 0.  1.
        -24    2    1    2    0    0 -0.41259680884E+02 -0.53326973294E+02 -0.17857612401E+03  0.20490423412E+03  0.74499568755E+02 0.  0.
         23    2    1    2    0    0 -0.77599434835E+01  0.95876120103E+02  0.22587908851E+03  0.25972879394E+03  0.84765775207E+02 0.  0.
         11    1    3    3    0    0 -0.13988145535E+02  0.17551018259E+02 -0.60347694967E+02  0.64385951459E+02  0.00000000000E+00 0. -1.
        -12    1    3    3    0    0 -0.27271535349E+02 -0.70877991553E+02 -0.11822842904E+03  0.14051828266E+03  0.00000000000E+00 0.  1.
        -13    1    4    4    0    0  0.16163350388E+02  0.98457066483E+02  0.15022406834E+03  0.18033945366E+03  0.00000000000E+00 0.  1.
         13    1    4    4    0    0 -0.23923293871E+02 -0.25809463799E+01  0.75655020170E+02  0.79389340284E+02  0.00000000000E+00 0. -1.
         -3    1    1    2    0  502  0.49019624367E+02 -0.42549146809E+02  0.17410489492E+03  0.18581137721E+03  0.00000000000E+00 0.  1.
<scales pt_clust_5="13000.00000" pt_clust_6="13000.00000" pt_clust_7="13000.00000" pt_clust_8="13000.00000" pt_clust_9="64.91035"></scales>
<clustering>
<clus scale="   64.910">  1  9  2 -1</clus>
<clus scale="   74.500">  5  6 -1 -1</clus>
<clus scale="   84.766">  7  8 -1 -1</clus>
<clus scale="  100.662">  2  5  1 -1</clus>
<clus scale="   64.910">  1  5  2 -1</clus>
</clustering>
</event>
<event>
 9    1  0.6270443E-005  0.2455437E+03  0.7546771E-02  0.1116154E+00
         -2   -1    0    0    0  501 -0.00000000000E+00  0.00000000000E+00  0.13561447246E+03  0.13561447246E+03  0.00000000000E+00 0.  1.
         21   -1    0    0  501  502  0.00000000000E+00 -0.00000000000E+00 -0.37239777737E+03  0.37239777737E+03  0.00000000000E+00 0. -1.
        -24    2    1    2    0    0 -0.13075830259E+00  0.83306063580E+02 -0.19134891328E+03  0.22492593151E+03  0.83888918954E+02 0.  0.
         23    2    1    2    0    0 -0.10161404421E+01  0.65152559794E+02 -0.68793152805E+02  0.13279689769E+03  0.93041010174E+02 0.  0.
         11    1    3    3    0    0 -0.20494702229E+02  0.74350514599E+02 -0.18697141136E+03  0.20225315945E+03  0.00000000000E+00 0. -1.
        -12    1    3    3    0    0  0.20363943926E+02  0.89555489816E+01 -0.43775019216E+01  0.22672772060E+02  0.00000000000E+00 0.  1.
        -13    1    4    4    0    0 -0.17652966402E+02 -0.17786368122E+02 -0.31756559302E+02  0.40453197308E+02  0.00000000000E+00 0.  1.
         13    1    4    4    0    0  0.16636825960E+02  0.82938927916E+02 -0.37036593503E+02  0.92343700382E+02  0.00000000000E+00 0. -1.
         -1    1    1    2    0  502  0.11468987446E+01 -0.14845862337E+03  0.23358761168E+02  0.15028942063E+03  0.00000000000E+00 0.  1.
<scales pt_clust_5="13000.00000" pt_clust_6="13000.00000" pt_clust_7="13000.00000" pt_clust_8="13000.00000" pt_clust_9="148.46313"></scales>
<clustering>
<clus scale="   83.889">  5  6 -1 -1</clus>
<clus scale="   93.041">  7  8 -1 -1</clus>
<clus scale="  110.276">  5  7 -1 -1</clus>
<clus scale="  148.463">  2  9  1 -1</clus>
<clus scale="  148.463">  2  5  1 -1</clus>
</clustering>
</event>
<event>
 9    1  0.6270443E-005  0.1239771E+03  0.7546771E-02  0.1237543E+00
          1   -1    0    0  502    0 -0.00000000000E+00  0.00000000000E+00  0.40021706309E+03  0.40021706309E+03  0.00000000000E+00 0. -1.
         21   -1    0    0  501  502  0.00000000000E+00 -0.00000000000E+00 -0.73667251364E+02  0.73667251364E+02  0.00000000000E+00 0. -1.
         23    2    1    2    0    0 -0.84347244646E+02  0.40346001391E+02  0.31541275432E+03  0.34005426142E+03  0.86078090199E+02 0.  0.
        -24    2    1    2    0    0  0.60971862612E+02 -0.38600073015E+02  0.95835745699E+01  0.11033813826E+03  0.82916380686E+02 0.  0.
         11    1    4    4    0    0  0.26014681243E+01 -0.22133598880E+02 -0.30401336392E+02  0.37694894750E+02  0.00000000000E+00 0. -1.
        -12    1    4    4    0    0  0.58370394487E+02 -0.16466474136E+02  0.39984910962E+02  0.72643243510E+02  0.00000000000E+00 0.  1.
        -13    1    3    3    0    0  0.12336434511E+02  0.26375256559E+02  0.82367814866E+02  0.87363028226E+02  0.00000000000E+00 0.  1.
         13    1    3    3    0    0 -0.96683679157E+02  0.13970744832E+02  0.23304493945E+03  0.25269123319E+03  0.00000000000E+00 0. -1.
          2    1    1    2  501    0  0.23375382035E+02 -0.17459283757E+01  0.15534828410E+01  0.23491914781E+02  0.00000000000E+00 0. -1.
<scales pt_clust_5="13000.00000" pt_clust_6="13000.00000" pt_clust_7="13000.00000" pt_clust_8="13000.00000" pt_clust_9="23.44049"></scales>
<clustering>
<clus scale="   23.440">  2  9  1 -1</clus>
<clus scale="   82.916">  5  6 -1 -1</clus>
<clus scale="   86.078">  7  8 -1 -1</clus>
<clus scale="  121.803">  2  5  1 -1</clus>
<clus scale="   23.440">  2  5  1 -1</clus>
</clustering>
</event>
<event>
 9    1  0.6270443E-005  0.1201123E+03  0.7546771E-02  0.1245757E+00
         21   -1    0    0  501  502  0.00000000000E+00  0.00000000000E+00  0.32755011052E+03  0.32755011052E+03  0.00000000000E+00 0. -1.
         -4   -1    0    0    0  501 -0.00000000000E+00 -0.00000000000E+00 -0.68233236160E+02  0.68233236160E+02  0.00000000000E+00 0.  1.
        -24    2    1    2    0    0  0.41117514933E+02 -0.72357609504E+02  0.20732627018E+02  0.11698641746E+03  0.79559451728E+02 0.  0.
         23    2    1    2    0    0 -0.54449560438E+02  0.51993154794E+02  0.21695913784E+03  0.24623775519E+03  0.88846619570E+02 0.  0.
         13    1    3    3    0    0  0.25620228359E+02 -0.17448535535E+01  0.34888374215E+02  0.43320194719E+02  0.00000000000E+00 0. -1.
        -14    1    3    3    0    0  0.15497286575E+02 -0.70612755951E+02 -0.14155747197E+02  0.73666222740E+02  0.00000000000E+00 0.  1.
        -11    1    4    4    0    0  0.23156866984E+02  0.25374240500E+02  0.67616102065E+02  0.75842137548E+02  0.00000000000E+00 0.  1.
         11    1    4    4    0    0 -0.77606427421E+02  0.26618914294E+02  0.14934303578E+03  0.17039561764E+03  0.00000000000E+00 0. -1.
         -3    1    1    2    0  502  0.13332045504E+02  0.20364454710E+02  0.21625109500E+02  0.32559174035E+02  0.00000000000E+00 0.  1.
<scales pt_clust_5="13000.00000" pt_clust_6="13000.00000" pt_clust_7="13000.00000" pt_clust_8="13000.00000" pt_clust_9="24.34039"></scales>
<clustering>
<clus scale="   24.340">  1  9  2 -1</clus>
<clus scale="   79.559">  5  6 -1 -1</clus>
<clus scale="   88.847">  7  8 -1 -1</clus>
<clus scale="  113.415">  2  5  1 -1</clus>
<clus scale="   24.340">  1  5  2 -1</clus>
</clustering>
</event>
<event>
 9    1  0.6270443E-005  0.2712566E+03  0.7546771E-02  0.1100563E+00
         21   -1    0    0  501  502  0.00000000000E+00  0.00000000000E+00  0.15697303504E+03  0.15697303504E+03  0.00000000000E+00 0. -1.
          1   -1    0    0  502    0 -0.00000000000E+00 -0.00000000000E+00 -0.44923263205E+03  0.44923263205E+03  0.00000000000E+00 0. -1.
        -24    2    1    2    0    0  0.44003990640E+01 -0.92384147929E+02 -0.11160231762E+03  0.16630459135E+03  0.81534934265E+02 0.  0.
         23    2    1    2    0    0 -0.55051098039E+02 -0.99375801516E+02 -0.19251653911E+03  0.24121032719E+03  0.90629083581E+02 0.  0.
         13    1    3    3    0    0  0.19909543450E+02 -0.35291638655E+02 -0.97356208183E+02  0.10545198410E+03  0.00000000000E+00 0. -1.
        -14    1    3    3    0    0 -0.15509144386E+02 -0.57092509274E+02 -0.14246109437E+02  0.60852607248E+02  0.00000000000E+00 0.  1.
        -13    1    4    4    0    0 -0.38948968365E+02  0.35086816494E+01 -0.71997944223E+02  0.81933124900E+02  0.00000000000E+00 0.  1.
         13    1    4    4    0    0 -0.16102129674E+02 -0.10288448316E+03 -0.12051859489E+03  0.15927720229E+03  0.00000000000E+00 0. -1.
          2    1    1    2  501    0  0.50650698975E+02  0.19175994944E+03  0.11859259713E+02  0.19869074855E+03  0.00000000000E+00 0. -1.
<scales pt_clust_5="13000.00000" pt_clust_6="13000.00000" pt_clust_7="13000.00000" pt_clust_8="13000.00000" pt_clust_9="198.33651"></scales>
<clustering>
<clus scale="   81.535">  5  6 -1 -1</clus>
<clus scale="   90.629">  7  8 -1 -1</clus>
<clus scale="  108.126">  5  7 -1 -1</clus>
<clus scale="  198.337">  1  9  2 -1</clus>
<clus scale="  198.337">  1  5  2 -1</clus>
</clustering>
</event>
<event>
 9    1  0.6270443E-005  0.1463888E+03  0.7546771E-02  0.1232225E+00
          1   -1    0    0  502    0 -0.00000000000E+00  0.00000000000E+00  0.69127441761E+03  0.69127441761E+03  0.00000000000E+00 0. -1.
         21   -1    0    0  501  502  0.00000000000E+00 -0.00000000000E+00 -0.66954424237E+02  0.66954424237E+02  0.00000000000E+00 0. -1.
        -24    2    1    2    0    0 -0.15121129672E+02 -0.27467115013E+01  0.17783897085E+03  0.19604451481E+03  0.81058986233E+02 0.  0.
         23    2    1    2    0    0  0.54098674053E+02 -0.10266875493E+03  0.42152230686E+03  0.44705567284E+03  0.93328343316E+02 0.  0.
         11    1    3    3    0    0 -0.21238330431E+02 -0.79103036371E+01  0.52419296865E+01  0.23261930486E+02  0.00000000000E+00 0. -1.
        -12    1    3    3    0    0  0.61172007584E+01  0.51635921358E+01  0.17259704116E+03  0.17278258432E+03  0.00000000000E+00 0.  1.
        -11    1    4    4    0    0  0.47115309838E+02 -0.50404570972E+01  0.94722362742E+02  0.10591309944E+03  0.00000000000E+00 0. -1.
         11    1    4    4    0    0  0.69833642147E+01 -0.97628297837E+02  0.32679994411E+03  0.34114257340E+03  0.00000000000E+00 0.  1.
          2    1    1    2  501    0 -0.38977544381E+02  0.10541546644E+03  0.24958715673E+02  0.11512865420E+03  0.00000000000E+00 0. -1.
<scales pt_clust_5="13000.00000" pt_clust_6="13000.00000" pt_clust_7="13000.00000" pt_clust_8="13000.00000" pt_clust_9="112.78081"></scales>
<clustering>
<clus scale="   81.059">  5  6 -1 -1</clus>
<clus scale="   82.503">  1  5  2 -1</clus>
<clus scale="   93.328">  7  8 -1 -1</clus>
<clus scale="  112.781">  2  9  1 -1</clus>
<clus scale="  112.781">  2  5  1 -1</clus>
</clustering>
</event>
<event>
 9    1  0.6270443E-005  0.9647458E+02  0.7546771E-02  0.1287926E+00
         21   -1    0    0  501  502  0.00000000000E+00  0.00000000000E+00  0.17452206649E+03  0.17452206649E+03  0.00000000000E+00 0.  1.
          1   -1    0    0  502    0 -0.00000000000E+00 -0.00000000000E+00 -0.12037483730E+03  0.12037483730E+03  0.00000000000E+00 0. -1.
        -24    2    1    2    0    0  0.10607587567E-01 -0.23198876377E+02 -0.27106995091E+02  0.97976834724E+02  0.91249564284E+02 0.  0.
         23    2    1    2    0    0  0.23353627093E+02  0.38023775446E+02 -0.95805545635E+01  0.10196417328E+03  0.91179527363E+02 0.  0.
         13    1    3    3    0    0 -0.30103706051E+02  0.23611208514E+02 -0.14443847674E+02  0.40894339720E+02  0.00000000000E+00 0. -1.
        -14    1    3    3    0    0  0.30114313638E+02 -0.46810084891E+02 -0.12663147417E+02  0.57082495004E+02  0.00000000000E+00 0.  1.
        -13    1    4    4    0    0 -0.83642507475E+01 -0.26644144716E+02 -0.10758951588E+02  0.29927014176E+02  0.00000000000E+00 0. -1.
         13    1    4    4    0    0  0.31717877841E+02  0.64667920161E+02  0.11783970246E+01  0.72037159107E+02  0.00000000000E+00 0.  1.
          2    1    1    2  501    0 -0.23364234681E+02 -0.14824899068E+02  0.90834778847E+02  0.94955895777E+02  0.00000000000E+00 0. -1.
<scales pt_clust_5="13000.00000" pt_clust_6="13000.00000" pt_clust_7="13000.00000" pt_clust_8="13000.00000" pt_clust_9="27.67065"></scales>
<clustering>
<clus scale="   27.671">  1  9  2 -1</clus>
<clus scale="   91.180">  7  8 -1 -1</clus>
<clus scale="   91.250">  5  6 -1 -1</clus>
<clus scale="   96.408">  1  7  2 -1</clus>
<clus scale="   27.671">  1  5  2 -1</clus>
</clustering>
</event>
<event>
 9    1  0.6270443E-005  0.9918600E+02  0.7546771E-02  0.1288096E+00
          1   -1    0    0  502    0 -0.00000000000E+00  0.00000000000E+00  0.65242557989E+03  0.65242557989E+03  0.00000000000E+00 0. -1.
         21   -1    0    0  501  502  0.00000000000E+00 -0.00000000000E+00 -0.50138633044E+02  0.50138633044E+02  0.00000000000E+00 0. -1.
         23    2    1    2    0    0 -0.58153059805E+01  0.20935950604E+02  0.44283612936E+03  0.45319906131E+03  0.93879816206E+02 0.  0.
        -24    2    1    2    0    0  0.63543309085E+02 -0.55029459028E+02  0.13211227471E+03  0.17696152202E+03  0.82436239942E+02 0.  0.
         11    1    4    4    0    0  0.52763225162E+02 -0.28928788907E+02  0.13575022116E+03  0.14848890632E+03  0.00000000000E+00 0. -1.
        -12    1    4    4    0    0  0.10780083924E+02 -0.26100670121E+02 -0.36379464470E+01  0.28472615695E+02  0.00000000000E+00 0.  1.
        -13    1    3    3    0    0 -0.31989773741E+02 -0.26227941677E+02  0.22598520142E+03  0.22974020503E+03  0.00000000000E+00 0.  1.
         13    1    3    3    0    0  0.26174467760E+02  0.47163892281E+02  0.21685092795E+03  0.22345885628E+03  0.00000000000E+00 0. -1.
          2    1    1    2  501    0 -0.57728003105E+02  0.34093508424E+02  0.27338542773E+02  0.72403629606E+02  0.00000000000E+00 0. -1.
<scales pt_clust_5="13000.00000" pt_clust_6="13000.00000" pt_clust_7="13000.00000" pt_clust_8="13000.00000" pt_clust_9="67.04394"></scales>
<clustering>
<clus scale="   67.044">  2  9  1 -1</clus>
<clus scale="   82.436">  5  6 -1 -1</clus>
<clus scale="   88.432">  2  5  1 -1</clus>
<clus scale="   93.880">  7  8 -1 -1</clus>
<clus scale="   67.044">  2  5  1 -1</clus>
</clustering>
</event>
<event>
 9    1  0.6270443E-005  0.1734938E+03  0.7546771E-02  0.1176187E+00
          1   -1    0    0  502    0 -0.00000000000E+00  0.00000000000E+00  0.41264642236E+03  0.41264642236E+03  0.00000000000E+00 0. -1.
         21   -1    0    0  501  502  0.00000000000E+00 -0.00000000000E+00 -0.18943693434E+03  0.18943693434E+03  0.00000000000E+00 0. -1.
        -24    2    1    2    0    0  0.46313895576E+02 -0.15430002011E+03  0.30371745351E+03  0.35244045736E+03  0.77566173607E+02 0.  0.
         23    2    1    2    0    0 -0.28004898902E+02  0.65409339496E+02 -0.10358087838E+03  0.15599925691E+03  0.92434375299E+02 0.  0.
         11    1    3    3    0    0  0.66214959989E+02 -0.99540955796E+02  0.22098407169E+03  0.25125043830E+03  0.00000000000E+00 0. -1.
        -12    1    3    3    0    0 -0.19901064413E+02 -0.54759064309E+02  0.82733381824E+02  0.10119001906E+03  0.00000000000E+00 0.  1.
        -13    1    4    4    0    0 -0.52665724629E+02  0.43701538581E+02 -0.10235027543E+03  0.12312222344E+03  0.00000000000E+00 0. -1.
         13    1    4    4    0    0  0.24660825727E+02  0.21707800916E+02 -0.12306029439E+01  0.32877033470E+02  0.00000000000E+00 0.  1.
          2    1    1    2  501    0 -0.18308996675E+02  0.88890680609E+02  0.23072912888E+02  0.93643642429E+02  0.00000000000E+00 0. -1.
<scales pt_clust_5="13000.00000" pt_clust_6="13000.00000" pt_clust_7="13000.00000" pt_clust_8="13000.00000" pt_clust_9="90.75667"></scales>
<clustering>
<clus scale="   77.566">  5  6 -1 -1</clus>
<clus scale="   90.757">  2  9  1 -1</clus>
<clus scale="   92.434">  7  8 -1 -1</clus>
<clus scale="  166.050">  1  5  2 -1</clus>
<clus scale="   90.757">  2  5  1 -1</clus>
</clustering>
</event>
<event>
 9    1  0.6270443E-005  0.1205074E+03  0.7546771E-02  0.1245684E+00
         21   -1    0    0  501  502  0.00000000000E+00  0.00000000000E+00  0.14109878799E+03  0.14109878799E+03  0.00000000000E+00 0. -1.
          1   -1    0    0  502    0 -0.00000000000E+00 -0.00000000000E+00 -0.26244492741E+03  0.26244492741E+03  0.00000000000E+00 0. -1.
         23    2    1    2    0    0  0.93943532097E+02  0.12291238643E+02 -0.14143002507E+03  0.19298877338E+03  0.90916186063E+02 0.  0.
        -24    2    1    2    0    0 -0.61834030271E+02  0.20166550556E+02 -0.59349687814E+02  0.11893496178E+03  0.79956254466E+02 0.  0.
         11    1    4    4    0    0 -0.55594008359E+02  0.45057479488E+02 -0.59819119263E+02  0.93269487254E+02  0.00000000000E+00 0. -1.
        -12    1    4    4    0    0 -0.62400219125E+01 -0.24890928932E+02  0.46943144964E+00  0.25665474522E+02  0.00000000000E+00 0.  1.
        -11    1    3    3    0    0  0.26517256410E+02  0.39028238987E+02 -0.19374266064E+02  0.51007161375E+02  0.00000000000E+00 0.  1.
         11    1    3    3    0    0  0.67426275687E+02 -0.26737000344E+02 -0.12205575901E+03  0.14198161200E+03  0.00000000000E+00 0. -1.
          2    1    1    2  501    0 -0.32109501826E+02 -0.32457789199E+02  0.79433573467E+02  0.91619980250E+02  0.00000000000E+00 0. -1.
<scales pt_clust_5="13000.00000" pt_clust_6="13000.00000" pt_clust_7="13000.00000" pt_clust_8="13000.00000" pt_clust_9="45.65663"></scales>
<clustering>
<clus scale="   45.657">  1  9  2 -1</clus>
<clus scale="   79.956">  5  6 -1 -1</clus>
<clus scale="   90.916">  7  8 -1 -1</clus>
<clus scale="  112.469">  1  5  2 -1</clus>
<clus scale="   45.657">  1  5  2 -1</clus>
</clustering>
</event>
<event>
 9    1  0.6270443E-005  0.1224921E+03  0.7546771E-02  0.1242786E+00
         -4   -1    0    0    0  501 -0.00000000000E+00  0.00000000000E+00  0.15105470234E+03  0.15105470234E+03  0.00000000000E+00 0.  1.
         21   -1    0    0  501  502  0.00000000000E+00 -0.00000000000E+00 -0.14797064828E+03  0.14797064828E+03  0.00000000000E+00 0. -1.
        -24    2    1    2    0    0 -0.90488142558E+01  0.68203591588E+02  0.14016075497E+02  0.10537007297E+03  0.78567111187E+02 0.  0.
         23    2    1    2    0    0 -0.67766594252E+00 -0.10853848900E+03 -0.34685748719E+02  0.14584578147E+03  0.91032016244E+02 0.  0.
         11    1    3    3    0    0  0.29518482441E+02  0.56798389008E+02  0.11809989096E+02  0.65091271626E+02  0.00000000000E+00 0. -1.
        -12    1    3    3    0    0 -0.38567296697E+02  0.11405202580E+02  0.22060864004E+01  0.40278801342E+02  0.00000000000E+00 0.  1.
        -13    1    4    4    0    0  0.18981064068E+02  0.70262532844E+01  0.70204472224E+01  0.21422784777E+02  0.00000000000E+00 0.  1.
         13    1    4    4    0    0 -0.19658730011E+02 -0.11556474229E+03 -0.41706195942E+02  0.12442299669E+03  0.00000000000E+00 0. -1.
         -3    1    1    2    0  502  0.97264801983E+01  0.40334897414E+02  0.23753727280E+02  0.47809496192E+02  0.00000000000E+00 0.  1.
<scales pt_clust_5="13000.00000" pt_clust_6="13000.00000" pt_clust_7="13000.00000" pt_clust_8="13000.00000" pt_clust_9="41.49108"></scales>
<clustering>
<clus scale="   41.491">  2  9  1 -1</clus>
<clus scale="   78.567">  5  6 -1 -1</clus>
<clus scale="   91.032">  7  8 -1 -1</clus>
<clus scale="  113.535">  1  5  2 -1</clus>
<clus scale="   41.491">  2  5  1 -1</clus>
</clustering>
</event>
<event>
 9    1  0.8344179E-005  0.9252367E+02  0.7546771E-02  0.1303583E+00
         21   -1    0    0  501  502  0.00000000000E+00  0.00000000000E+00  0.34341192227E+03  0.34341192227E+03  0.00000000000E+00 0.  1.
          1   -1    0    0  502    0 -0.00000000000E+00 -0.00000000000E+00 -0.18070485015E+03  0.18070485015E+03  0.00000000000E+00 0. -1.
         23    2    1    2    0    0  0.17320504363E+01 -0.15176083769E+02 -0.89657036751E+02  0.12872899004E+03  0.91101345321E+02 0.  0.
        -24    2    1    2    0    0 -0.21064333796E+02  0.27994158157E+02  0.31588487264E+03  0.32776435714E+03  0.80117675940E+02 0.  0.
         11    1    4    4    0    0  0.30796915858E+00  0.38011616585E+02  0.61588196556E+02  0.72374607394E+02  0.00000000000E+00 0. -1.
        -12    1    4    4    0    0 -0.21372302954E+02 -0.10017458428E+02  0.25429667609E+03  0.25538974975E+03  0.00000000000E+00 0.  1.
        -13    1    3    3    0    0  0.50590609059E+01 -0.47752711843E+02 -0.20503299791E+02  0.52213991305E+02  0.00000000000E+00 0.  1.
         13    1    3    3    0    0 -0.33270104695E+01  0.32576628074E+02 -0.69153736960E+02  0.76514998731E+02  0.00000000000E+00 0. -1.
          2    1    1    2  501    0  0.19332283359E+02 -0.12818074387E+02 -0.63520763776E+02  0.67623425243E+02  0.00000000000E+00 0. -1.
<scales pt_clust_5="13000.00000" pt_clust_6="13000.00000" pt_clust_7="13000.00000" pt_clust_8="13000.00000" pt_clust_9="23.19571"></scales>
<clustering>
<clus scale="   23.196">  1  9  2 -1</clus>
<clus scale="   80.118">  5  6 -1 -1</clus>
<clus scale="   81.731">  1  5  2 -1</clus>
<clus scale="   91.101">  7  8 -1 -1</clus>
<clus scale="   23.196">  1  5  2 -1</clus>
</clustering>
</event>
<event>
 9    1  0.6270443E-005  0.1350598E+03  0.7546771E-02  0.1221047E+00
         21   -1    0    0  501  502  0.00000000000E+00  0.00000000000E+00  0.73175948396E+02  0.73175948396E+02  0.00000000000E+00 0. -1.
          3   -1    0    0  502    0 -0.00000000000E+00 -0.00000000000E+00 -0.46591981243E+03  0.46591981243E+03  0.00000000000E+00 0. -1.
         23    2    1    2    0    0 -0.36863469460E+02  0.92611186987E+02 -0.11984241952E+03  0.17697369149E+03  0.83795791238E+02 0.  0.
        -24    2    1    2    0    0 -0.18969977736E+02 -0.12213801242E+03 -0.99364450966E+02  0.17744858619E+03  0.79606234005E+02 0.  0.
         13    1    4    4    0    0  0.24211310677E+02 -0.84881282453E+02 -0.73338011207E+02  0.11475837034E+03  0.00000000000E+00 0. -1.
        -14    1    4    4    0    0 -0.43181288413E+02 -0.37256729963E+02 -0.26026439759E+02  0.62690215848E+02  0.00000000000E+00 0.  1.
        -11    1    3    3    0    0 -0.28207060732E+02 -0.87196392259E-01 -0.42109353780E+01  0.28519780068E+02  0.00000000000E+00 0.  1.
         11    1    3    3    0    0 -0.86564087275E+01  0.92698383379E+02 -0.11563148414E+03  0.14845391142E+03  0.00000000000E+00 0. -1.
          4    1    1    2  501    0  0.55833447196E+02  0.29526825430E+02 -0.17353699356E+03  0.18467348315E+03  0.00000000000E+00 0. -1.
<scales pt_clust_5="13000.00000" pt_clust_6="13000.00000" pt_clust_7="13000.00000" pt_clust_8="13000.00000" pt_clust_9="63.16020"></scales>
<clustering>
<clus scale="   63.160">  1  9  2 -1</clus>
<clus scale="   79.606">  5  6 -1 -1</clus>
<clus scale="   83.796">  7  8 -1 -1</clus>
<clus scale="  132.501">  1  5  2 -1</clus>
<clus scale="   63.160">  1  5  2 -1</clus>
</clustering>
</event>
<event>
 9    1  0.6270443E-005  0.1198238E+03  0.7546771E-02  0.1244377E+00
         21   -1    0    0  501  502  0.00000000000E+00  0.00000000000E+00  0.20907135093E+03  0.20907135093E+03  0.00000000000E+00 0. -1.
          1   -1    0    0  502    0 -0.00000000000E+00 -0.00000000000E+00 -0.44128128600E+03  0.44128128600E+03  0.00000000000E+00 0. -1.
         23    2    1    2    0    0 -0.64852698468E+02 -0.28561068904E+02 -0.22581459695E+03  0.25086781789E+03  0.83191482163E+02 0.  0.
        -24    2    1    2    0    0  0.11125794956E+03  0.37670013278E+02 -0.17444014605E+03  0.22491254842E+03  0.79742890864E+02 0.  0.
         13    1    4    4    0    0  0.47265388760E+02  0.54667333951E+02 -0.11562247830E+03  0.13634915425E+03  0.00000000000E+00 0. -1.
        -14    1    4    4    0    0  0.63992560804E+02 -0.16997320673E+02 -0.58817667744E+02  0.88563394172E+02  0.00000000000E+00 0.  1.
        -11    1    3    3    0    0 -0.36273275173E+01 -0.40707717903E+02 -0.13202960914E+03  0.13821032339E+03  0.00000000000E+00 0. -1.
         11    1    3    3    0    0 -0.61225370951E+02  0.12146648998E+02 -0.93784987812E+02  0.11265749451E+03  0.00000000000E+00 0.  1.
          2    1    1    2  501    0 -0.46405251096E+02 -0.91089443739E+01  0.16804480792E+03  0.17457227061E+03  0.00000000000E+00 0. -1.
<scales pt_clust_5="13000.00000" pt_clust_6="13000.00000" pt_clust_7="13000.00000" pt_clust_8="13000.00000" pt_clust_9="47.29080"></scales>
<clustering>
<clus scale="   47.291">  1  9  2 -1</clus>
<clus scale="   79.743">  5  6 -1 -1</clus>
<clus scale="   83.191">  7  8 -1 -1</clus>
<clus scale="  117.456">  1  5  2 -1</clus>
<clus scale="   47.291">  1  5  2 -1</clus>
</clustering>
</event>
<event>
 9    1  0.6270443E-005  0.1446172E+03  0.7546771E-02  0.1233597E+00
         21   -1    0    0  501  502  0.00000000000E+00  0.00000000000E+00  0.37551666670E+02  0.37551666670E+02  0.00000000000E+00 0.  1.
         -2   -1    0    0    0  501 -0.00000000000E+00 -0.00000000000E+00 -0.79434087983E+03  0.79434087983E+03  0.00000000000E+00 0.  1.
        -24    2    1    2    0    0 -0.31800310440E+02 -0.20346163159E+02 -0.33323597037E+03  0.34346389032E+03  0.74135051820E+02 0.  0.
         23    2    1    2    0    0 -0.47076089021E+02 -0.57204565717E+02 -0.25448382903E+03  0.28638888631E+03  0.10848066401E+03 0.  0.
         13    1    3    3    0    0 -0.52459750112E+02  0.20685203662E+01 -0.22236547470E+03  0.22847912048E+03  0.00000000000E+00 0. -1.
        -14    1    3    3    0    0  0.20659439672E+02 -0.22414683525E+02 -0.11087049567E+03  0.11498476984E+03  0.00000000000E+00 0.  1.
        -13    1    4    4    0    0 -0.19949960523E+02 -0.87655364835E+02 -0.18812763627E+03  0.20850292909E+03  0.00000000000E+00 0.  1.
         13    1    4    4    0    0 -0.27126128498E+02  0.30450799117E+02 -0.66356192761E+02  0.77885957219E+02  0.00000000000E+00 0. -1.
         -1    1    1    2    0  502  0.78876399460E+02  0.77550728876E+02 -0.16906941376E+03  0.20203976988E+03  0.00000000000E+00 0.  1.
<scales pt_clust_5="13000.00000" pt_clust_6="13000.00000" pt_clust_7="13000.00000" pt_clust_8="13000.00000" pt_clust_9="95.63518"></scales>
<clustering>
<clus scale="   74.135">  5  6 -1 -1</clus>
<clus scale="   83.194">  2  5  1 -1</clus>
<clus scale="   95.635">  1  9  2 -1</clus>
<clus scale="  108.481">  7  8 -1 -1</clus>
<clus scale="   95.635">  1  5  2 -1</clus>
</clustering>
</event>
<event>
 9    1  0.6270443E-005  0.1051325E+03  0.7546771E-02  0.1272752E+00
         21   -1    0    0  501  502  0.00000000000E+00  0.00000000000E+00  0.11104640634E+03  0.11104640634E+03  0.00000000000E+00 0.  1.
         -2   -1    0    0    0  501 -0.00000000000E+00 -0.00000000000E+00 -0.20321840885E+03  0.20321840885E+03  0.00000000000E+00 0.  1.
        -24    2    1    2    0    0  0.19709136515E+01 -0.62749585708E+02 -0.79505517212E+02  0.12972798701E+03  0.81035969424E+02 0.  0.
         23    2    1    2    0    0 -0.45493182216E+02  0.41867885300E+02 -0.54617117274E+02  0.12058302613E+03  0.87947070692E+02 0.  0.
         13    1    3    3    0    0  0.38925370059E+02 -0.49052550047E+02 -0.54804679029E+02  0.83215923619E+02  0.00000000000E+00 0. -1.
        -14    1    3    3    0    0 -0.36954456408E+02 -0.13697035661E+02 -0.24700838182E+02  0.46512063394E+02  0.00000000000E+00 0.  1.
        -11    1    4    4    0    0  0.21261742635E+01  0.40458295302E+02  0.86081071463E+01  0.41418519823E+02  0.00000000000E+00 0. -1.
         11    1    4    4    0    0 -0.47619356479E+02  0.14095899983E+01 -0.63225224420E+02  0.79164506305E+02  0.00000000000E+00 0.  1.
         -1    1    1    2    0  502  0.43522268564E+02  0.20881700408E+02  0.41950631983E+02  0.63953802050E+02  0.00000000000E+00 0.  1.
<scales pt_clust_5="13000.00000" pt_clust_6="13000.00000" pt_clust_7="13000.00000" pt_clust_8="13000.00000" pt_clust_9="48.27249"></scales>
<clustering>
<clus scale="   48.272">  1  9  2 -1</clus>
<clus scale="   81.036">  5  6 -1 -1</clus>
<clus scale="   87.947">  7  8 -1 -1</clus>
<clus scale="   99.423">  2  5  1 -1</clus>
<clus scale="   48.272">  1  5  2 -1</clus>
</clustering>
</event>
<event>
 9    1  0.6270443E-005  0.3207113E+03  0.7546771E-02  0.1128658E+00
          1   -1    0    0  502    0 -0.00000000000E+00  0.00000000000E+00  0.55414310205E+03  0.55414310205E+03  0.00000000000E+00 0. -1.
         21   -1    0    0  501  502  0.00000000000E+00 -0.00000000000E+00 -0.22683884746E+03  0.22683884746E+03  0.00000000000E+00 0.  1.
        -24    2    1    2    0    0 -0.67364013423E+01  0.13038569318E+02  0.48286117491E+02  0.94054387628E+02  0.79368099996E+02 0.  0.
         23    2    1    2    0    0 -0.17769835843E+03  0.24074950158E+03  0.15257620672E+03  0.34867894430E+03  0.93597426494E+02 0.  0.
         11    1    3    3    0    0 -0.26974322588E+00  0.32218901536E+02  0.61815090596E+02  0.69708219049E+02  0.00000000000E+00 0. -1.
        -12    1    3    3    0    0 -0.64666581164E+01 -0.19180332218E+02 -0.13528973106E+02  0.24346168579E+02  0.00000000000E+00 0.  1.
        -11    1    4    4    0    0 -0.13374556875E+03  0.22291157682E+03  0.15221661620E+03  0.30124300239E+03  0.00000000000E+00 0.  1.
         11    1    4    4    0    0 -0.43952789672E+02  0.17837924754E+02  0.35959051769E+00  0.47435941910E+02  0.00000000000E+00 0. -1.
          2    1    1    2  501    0  0.18443475977E+03 -0.25378807089E+03  0.12644193038E+03  0.33824861758E+03  0.00000000000E+00 0. -1.
<scales pt_clust_5="13000.00000" pt_clust_6="13000.00000" pt_clust_7="13000.00000" pt_clust_8="13000.00000" pt_clust_9="306.74948"></scales>
<clustering>
<clus scale="   79.368">  5  6 -1 -1</clus>
<clus scale="   80.714">  1  5  2 -1</clus>
<clus scale="   93.597">  7  8 -1 -1</clus>
<clus scale="  306.749">  2  9  1 -1</clus>
<clus scale="  306.749">  2  5  1 -1</clus>
</clustering>
</event>
<event>
 9    1  0.6270443E-005  0.1401545E+03  0.7546771E-02  0.1228405E+00
         21   -1    0    0  501  502  0.00000000000E+00  0.00000000000E+00  0.72499969673E+02  0.72499969673E+02  0.00000000000E+00 0. -1.
         -2   -1    0    0    0  501 -0.00000000000E+00 -0.00000000000E+00 -0.28039894836E+03  0.28039894836E+03  0.00000000000E+00 0.  1.
        -24    2    1    2    0    0  0.66619029219E+02 -0.19921977964E+02 -0.85585290724E+02  0.13670132205E+03  0.80792507087E+02 0.  0.
         23    2    1    2    0    0 -0.40100019682E+02  0.31800001621E+02 -0.62079483587E+02  0.14932080861E+03  0.12579185156E+03 0.  0.
         13    1    3    3    0    0 -0.11816037198E+02 -0.24436436870E+02 -0.14615729445E+02  0.30828196983E+02  0.00000000000E+00 0. -1.
        -14    1    3    3    0    0  0.78435066417E+02  0.45144589068E+01 -0.70969561278E+02  0.10587312507E+03  0.00000000000E+00 0.  1.
        -11    1    4    4    0    0 -0.58462321360E+01 -0.45821102834E+02 -0.41316041660E+02  0.61973923497E+02  0.00000000000E+00 0.  1.
         11    1    4    4    0    0 -0.34253787546E+02  0.77621104455E+02 -0.20763441927E+02  0.87346885112E+02  0.00000000000E+00 0. -1.
         -1    1    1    2    0  502 -0.26519009536E+02 -0.11878023657E+02 -0.60234204380E+02  0.66876787378E+02  0.00000000000E+00 0.  1.
<scales pt_clust_5="13000.00000" pt_clust_6="13000.00000" pt_clust_7="13000.00000" pt_clust_8="13000.00000" pt_clust_9="29.05764"></scales>
<clustering>
<clus scale="   29.058">  1  9  2 -1</clus>
<clus scale="   80.793">  5  6 -1 -1</clus>
<clus scale="  101.721">  2  5  1 -1</clus>
<clus scale="  125.792">  7  8 -1 -1</clus>
<clus scale="   29.058">  1  5  2 -1</clus>
</clustering>
</event>
<event>
 9    1  0.6270443E-005  0.9560037E+02  0.7546771E-02  0.1295262E+00
         21   -1    0    0  501  502  0.00000000000E+00  0.00000000000E+00  0.41888607936E+02  0.41888607936E+02  0.00000000000E+00 0. -1.
         -4   -1    0    0    0  501 -0.00000000000E+00 -0.00000000000E+00 -0.58117813815E+03  0.58117813815E+03  0.00000000000E+00 0.  1.
         23    2    1    2    0    0  0.11856442965E+02 -0.15284688204E+02 -0.14524949189E+03  0.17241251233E+03  0.90854072990E+02 0.  0.
        -24    2    1    2    0    0 -0.55188931509E+02 -0.51958358652E+02 -0.11281560453E+03  0.15827346477E+03  0.81102649951E+02 0.  0.
         13    1    4    4    0    0  0.59416238390E+01 -0.37804416215E+02 -0.13081934159E+02  0.40442722220E+02  0.00000000000E+00 0. -1.
        -14    1    4    4    0    0 -0.61130555348E+02 -0.14153942437E+02 -0.99733670370E+02  0.11783074255E+03  0.00000000000E+00 0.  1.
        -11    1    3    3    0    0  0.81637002060E+00 -0.47564201618E+02 -0.12248719229E+03  0.13140065453E+03  0.00000000000E+00 0. -1.
         11    1    3    3    0    0  0.11040072944E+02  0.32279513414E+02 -0.22762299601E+02  0.41011857797E+02  0.00000000000E+00 0.  1.
         -3    1    1    2    0  502  0.43332488544E+02  0.67243046857E+02 -0.28122443379E+03  0.29238076899E+03  0.00000000000E+00 0.  1.
<scales pt_clust_5="13000.00000" pt_clust_6="13000.00000" pt_clust_7="13000.00000" pt_clust_8="13000.00000" pt_clust_9="79.99586"></scales>
<clustering>
<clus scale="   79.996">  1  9  2 -1</clus>
<clus scale="   81.103">  5  6 -1 -1</clus>
<clus scale="   86.386">  1  5  2 -1</clus>
<clus scale="   90.854">  7  8 -1 -1</clus>
<clus scale="   79.996">  1  5  2 -1</clus>
</clustering>
</event>
<event>
 9    1  0.6270443E-005  0.1383535E+03  0.7546771E-02  0.1218897E+00
         21   -1    0    0  501  502  0.00000000000E+00  0.00000000000E+00  0.37723964834E+03  0.37723964834E+03  0.00000000000E+00 0.  1.
         -4   -1    0    0    0  501 -0.00000000000E+00 -0.00000000000E+00 -0.70994281490E+02  0.70994281490E+02  0.00000000000E+00 0.  1.
        -24    2    1    2    0    0  0.11332369726E+03  0.39877865665E+01  0.63227205767E+02  0.15119399735E+03  0.77484078911E+02 0.  0.
         23    2    1    2    0    0 -0.79889227948E+02  0.82347849552E+01  0.22728898245E+03  0.25812127303E+03  0.92283311708E+02 0.  0.
         13    1    3    3    0    0  0.28633737900E+02 -0.46559229253E+01  0.59250634959E+02  0.65971253644E+02  0.00000000000E+00 0. -1.
        -14    1    3    3    0    0  0.84689959360E+02  0.86437094919E+01  0.39765708088E+01  0.85222743710E+02  0.00000000000E+00 0.  1.
        -11    1    4    4    0    0 -0.55576672039E+02 -0.35414910086E+02  0.16873380796E+03  0.18114657126E+03  0.00000000000E+00 0.  1.
         11    1    4    4    0    0 -0.24312555909E+02  0.43649695041E+02  0.58555174492E+02  0.76974701765E+02  0.00000000000E+00 0. -1.
         -3    1    1    2    0  502 -0.33434469311E+02 -0.12222571522E+02  0.15729178629E+02  0.38918659446E+02  0.00000000000E+00 0.  1.
<scales pt_clust_5="13000.00000" pt_clust_6="13000.00000" pt_clust_7="13000.00000" pt_clust_8="13000.00000" pt_clust_9="35.59854"></scales>
<clustering>
<clus scale="   35.599">  1  9  2 -1</clus>
<clus scale="   77.484">  5  6 -1 -1</clus>
<clus scale="   92.283">  7  8 -1 -1</clus>
<clus scale="  128.955">  2  5  1 -1</clus>
<clus scale="   35.599">  1  5  2 -1</clus>
</clustering>
</event>
<event>
 9    1  0.6270443E-005  0.1746381E+03  0.7546771E-02  0.1194305E+00
         21   -1    0    0  501  502  0.00000000000E+00  0.00000000000E+00  0.33010795120E+03  0.33010795120E+03  0.00000000000E+00 0. -1.
          3   -1    0    0  502    0 -0.00000000000E+00 -0.00000000000E+00 -0.17760270425E+03  0.17760270425E+03  0.00000000000E+00 0. -1.
         23    2    1    2    0    0  0.41328288032E+02  0.35918462713E+02 -0.44935162862E+02  0.11765916585E+03  0.93948640710E+02 0.  0.
        -24    2    1    2    0    0 -0.42359209637E+01  0.13778863987E+03  0.75918806004E+02  0.17483647765E+03  0.76160859423E+02 0.  0.
         13    1    4    4    0    0  0.45276384906E+01  0.13866126753E+03  0.50012936125E+02  0.14747454154E+03  0.00000000000E+00 0. -1.
        -14    1    4    4    0    0 -0.87635594543E+01 -0.87262765972E+00  0.25905869879E+02  0.27361936107E+02  0.00000000000E+00 0.  1.
        -13    1    3    3    0    0 -0.81506504317E+01  0.54543530309E+02 -0.16164078760E+02  0.57469185162E+02  0.00000000000E+00 0.  1.
         13    1    3    3    0    0  0.49478938464E+02 -0.18625067597E+02 -0.28771084102E+02  0.60189980685E+02  0.00000000000E+00 0. -1.
          4    1    1    2  501    0 -0.37092367068E+02 -0.17370710258E+03  0.12152160381E+03  0.21521501196E+03  0.00000000000E+00 0. -1.
<scales pt_clust_5="13000.00000" pt_clust_6="13000.00000" pt_clust_7="13000.00000" pt_clust_8="13000.00000" pt_clust_9="157.15601"></scales>
<clustering>
<clus scale="   76.161">  5  6 -1 -1</clus>
<clus scale="   93.949">  7  8 -1 -1</clus>
<clus scale="  108.741">  2  7  1 -1</clus>
<clus scale="  157.156">  1  9  2 -1</clus>
<clus scale="  157.156">  1  5  2 -1</clus>
</clustering>
</event>
<event>
 9    1  0.6270443E-005  0.1996073E+03  0.7546771E-02  0.1164210E+00
          1   -1    0    0  502    0 -0.00000000000E+00  0.00000000000E+00  0.16447553956E+04  0.16447553956E+04  0.00000000000E+00 0. -1.
         21   -1    0    0  501  502  0.00000000000E+00 -0.00000000000E+00 -0.14288640483E+03  0.14288640483E+03  0.00000000000E+00 0.  1.
         23    2    1    2    0    0 -0.10134294522E+03 -0.73549444409E+02  0.47705368585E+03  0.49813603614E+03  0.69852544734E+02 0.  0.
        -24    2    1    2    0    0 -0.72033418526E+02  0.16915307761E+03 -0.41077281642E+02  0.20538103702E+03  0.81807397272E+02 0.  0.
         13    1    4    4    0    0 -0.60071835203E+01  0.39848544458E+02  0.23313222043E+02  0.46556407415E+02  0.00000000000E+00 0. -1.
        -14    1    4    4    0    0 -0.66026235006E+02  0.12930453316E+03 -0.64390503686E+02  0.15882462960E+03  0.00000000000E+00 0.  1.
        -11    1    3    3    0    0 -0.54606216704E+02 -0.78025981345E+02  0.34843907774E+03  0.36121971647E+03  0.00000000000E+00 0. -1.
         11    1    3    3    0    0 -0.46736728519E+02  0.44765369366E+01  0.12861460811E+03  0.13691631968E+03  0.00000000000E+00 0.  1.
          2    1    1    2  501    0  0.17337636375E+03 -0.95603633206E+02  0.10658925865E+04  0.10841247273E+04  0.00000000000E+00 0. -1.
<scales pt_clust_5="13000.00000" pt_clust_6="13000.00000" pt_clust_7="13000.00000" pt_clust_8="13000.00000" pt_clust_9="182.07326"></scales>
<clustering>
<clus scale="   69.853">  7  8 -1 -1</clus>
<clus scale="   81.807">  5  6 -1 -1</clus>
<clus scale="  143.385">  1  7  2 -1</clus>
<clus scale="  182.073">  2  9  1 -1</clus>
<clus scale="  182.073">  2  5  1 -1</clus>
</clustering>
</event>
<event>
 9    1  0.6270443E-005  0.1305818E+03  0.7546771E-02  0.1242539E+00
         21   -1    0    0  501  502  0.00000000000E+00  0.00000000000E+00  0.26594792402E+02  0.26594792402E+02  0.00000000000E+00 0. -1.
          1   -1    0    0  502    0 -0.00000000000E+00 -0.00000000000E+00 -0.12356636634E+04  0.12356636634E+04  0.00000000000E+00 0. -1.
        -24    2    1    2    0    0  0.44672428857E+02  0.19656912812E+02 -0.59447904655E+03  0.60189376831E+03  0.80552786592E+02 0.  0.
         23    2    1    2    0    0  0.57067405700E+02  0.41595114299E+01 -0.46720538483E+03  0.47969817416E+03  0.92495818010E+02 0.  0.
         13    1    3    3    0    0  0.43347844993E+02 -0.24507955584E+02 -0.29516367663E+03  0.29933471492E+03  0.00000000000E+00 0. -1.
        -14    1    3    3    0    0  0.13245838638E+01  0.44164868396E+02 -0.29931536992E+03  0.30255905340E+03  0.00000000000E+00 0.  1.
        -11    1    4    4    0    0 -0.22287801757E+02 -0.85893820411E+01 -0.58925906525E+02  0.63582906907E+02  0.00000000000E+00 0.  1.
         11    1    4    4    0    0  0.79355207457E+02  0.12748893471E+02 -0.40827947830E+03  0.41611526725E+03  0.00000000000E+00 0. -1.
          2    1    1    2  501    0 -0.10173983456E+03 -0.23816424242E+02 -0.14738443966E+03  0.18066651337E+03  0.00000000000E+00 0. -1.
<scales pt_clust_5="13000.00000" pt_clust_6="13000.00000" pt_clust_7="13000.00000" pt_clust_8="13000.00000" pt_clust_9="92.17443"></scales>
<clustering>
<clus scale="   80.553">  5  6 -1 -1</clus>
<clus scale="   92.496">  7  8 -1 -1</clus>
<clus scale="   94.185">  2  5  1 -1</clus>
<clus scale="   92.174">  1  9  2 -1</clus>
<clus scale="   92.174">  1  5  2 -1</clus>
</clustering>
</event>
<event>
 9    1  0.6270443E-005  0.1212115E+03  0.7546771E-02  0.1247338E+00
          1   -1    0    0  502    0 -0.00000000000E+00  0.00000000000E+00  0.25359312047E+03  0.25359312047E+03  0.00000000000E+00 0. -1.
         21   -1    0    0  501  502  0.00000000000E+00 -0.00000000000E+00 -0.12066689717E+03  0.12066689717E+03  0.00000000000E+00 0. -1.
        -24    2    1    2    0    0  0.20765134106E+02  0.63638245132E+02  0.15035413814E+03  0.18344934402E+03  0.81032573250E+02 0.  0.
         23    2    1    2    0    0 -0.59688231973E+02 -0.69167771116E+02 -0.45735424895E+02  0.14236587688E+03  0.99143573737E+02 0.  0.
         11    1    3    3    0    0  0.53849431515E+01  0.70060873612E+02  0.62541512842E+02  0.94068934578E+02  0.00000000000E+00 0. -1.
        -12    1    3    3    0    0  0.15380190955E+02 -0.64226284798E+01  0.87812625295E+02  0.89380409440E+02  0.00000000000E+00 0.  1.
        -13    1    4    4    0    0 -0.32021078392E+02 -0.65737219381E+02  0.15800637018E+02  0.74809034238E+02  0.00000000000E+00 0.  1.
         13    1    4    4    0    0 -0.27667153581E+02 -0.34305517344E+01 -0.61536061913E+02  0.67556842645E+02  0.00000000000E+00 0. -1.
          2    1    1    2  501    0  0.38923097867E+02  0.55295259836E+01  0.28307510062E+02  0.48444796738E+02  0.00000000000E+00 0. -1.
<scales pt_clust_5="13000.00000" pt_clust_6="13000.00000" pt_clust_7="13000.00000" pt_clust_8="13000.00000" pt_clust_9="39.31393"></scales>
<clustering>
<clus scale="   39.314">  2  9  1 -1</clus>
<clus scale="   81.033">  5  6 -1 -1</clus>
<clus scale="   99.144">  7  8 -1 -1</clus>
<clus scale="  106.907">  1  5  2 -1</clus>
<clus scale="   39.314">  2  5  1 -1</clus>
</clustering>
</event>
<event>
 9    1  0.6270443E-005  0.1760400E+03  0.7546771E-02  0.1172813E+00
          3   -1    0    0  502    0 -0.00000000000E+00  0.00000000000E+00  0.11223197100E+04  0.11223197100E+04  0.00000000000E+00 0. -1.
         21   -1    0    0  501  502  0.00000000000E+00 -0.00000000000E+00 -0.39070895155E+02  0.39070895155E+02  0.00000000000E+00 0.  1.
         23    2    1    2    0    0  0.14122614232E+03 -0.68165926147E+02  0.71105200636E+03  0.73388663149E+03  0.91669053479E+02 0.  0.
        -24    2    1    2    0    0 -0.11926643848E+03  0.75170605615E+02  0.36979504364E+03  0.40432936254E+03  0.82817605714E+02 0.  0.
         13    1    4    4    0    0 -0.88998870242E+02  0.26258465361E+02  0.29925191030E+03  0.31330817373E+03  0.00000000000E+00 0. -1.
        -14    1    4    4    0    0 -0.30267568237E+02  0.48912140254E+02  0.70543133339E+02  0.91021188811E+02  0.00000000000E+00 0.  1.
        -11    1    3    3    0    0  0.15272358296E+02 -0.41864222265E+02  0.10070651646E+03  0.11012565773E+03  0.00000000000E+00 0.  1.
         11    1    3    3    0    0  0.12595378402E+03 -0.26301703881E+02  0.61034548990E+03  0.62376097376E+03  0.00000000000E+00 0. -1.
          4    1    1    2  501    0 -0.21959703837E+02 -0.70046794683E+01  0.24017648579E+01  0.23174611141E+02  0.00000000000E+00 0. -1.
<scales pt_clust_5="13000.00000" pt_clust_6="13000.00000" pt_clust_7="13000.00000" pt_clust_8="13000.00000" pt_clust_9="23.04982"></scales>
<clustering>
<clus scale="   23.050">  2  9  1 -1</clus>
<clus scale="   82.818">  5  6 -1 -1</clus>
<clus scale="   91.669">  7  8 -1 -1</clus>
<clus scale="  171.597">  2  5  1 -1</clus>
<clus scale="   23.050">  2  5  1 -1</clus>
</clustering>
</event>
<event>
 9    1  0.6270443E-005  0.9068092E+02  0.7546771E-02  0.1313611E+00
         21   -1    0    0  501  502  0.00000000000E+00  0.00000000000E+00  0.47778914181E+02  0.47778914181E+02  0.00000000000E+00 0. -1.
         -2   -1    0    0    0  501 -0.00000000000E+00 -0.00000000000E+00 -0.32807135117E+03  0.32807135117E+03  0.00000000000E+00 0.  1.
         23    2    1    2    0    0  0.93308332370E+01 -0.97665756682E+01 -0.22888385487E+03  0.24639490247E+03  0.90222937757E+02 0.  0.
        -24    2    1    2    0    0  0.63026953147E+01 -0.68852672864E+01  0.90221280295E+00  0.72375503430E+02  0.71765372116E+02 0.  0.
         11    1    4    4    0    0  0.15772184338E+02 -0.35351002096E+02  0.11783387176E+02  0.40463605392E+02  0.00000000000E+00 0. -1.
        -12    1    4    4    0    0 -0.94694890234E+01  0.28465734810E+02 -0.10881174373E+02  0.31911898038E+02  0.00000000000E+00 0.  1.
        -13    1    3    3    0    0  0.37969910693E+02 -0.33599364280E+02 -0.98376496291E+02  0.11067324166E+03  0.00000000000E+00 0. -1.
         13    1    3    3    0    0 -0.28639077456E+02  0.23832788612E+02 -0.13050735858E+03  0.13572166081E+03  0.00000000000E+00 0.  1.
         -1    1    1    2    0  502 -0.15633528552E+02  0.16651842955E+02 -0.52310794926E+02  0.57079859447E+02  0.00000000000E+00 0.  1.
<scales pt_clust_5="13000.00000" pt_clust_6="13000.00000" pt_clust_7="13000.00000" pt_clust_8="13000.00000" pt_clust_9="22.84057"></scales>
<clustering>
<clus scale="   22.841">  1  9  2 -1</clus>
<clus scale="   71.765">  5  6 -1 -1</clus>
<clus scale="   72.340">  1  5  2 -1</clus>
<clus scale="   90.223">  7  8 -1 -1</clus>
<clus scale="   22.841">  1  5  2 -1</clus>
</clustering>
</event>
<event>
 9    1  0.6270443E-005  0.9990300E+02  0.7546771E-02  0.1285051E+00
          1   -1    0    0  502    0 -0.00000000000E+00  0.00000000000E+00  0.43986310740E+03  0.43986310740E+03  0.00000000000E+00 0. -1.
         21   -1    0    0  501  502  0.00000000000E+00 -0.00000000000E+00 -0.13324027288E+03  0.13324027288E+03  0.00000000000E+00 0. -1.
         23    2    1    2    0    0 -0.42152706479E+02 -0.64000371591E+01  0.37433988933E+03  0.38765085515E+03  0.91241556423E+02 0.  0.
        -24    2    1    2    0    0  0.26630702484E+02  0.23180752079E+02  0.22669378263E+02  0.92220383219E+02  0.82122815273E+02 0.  0.
         11    1    4    4    0    0 -0.26473777218E+02 -0.81645667164E+01  0.61007630094E+01  0.28367945628E+02  0.00000000000E+00 0. -1.
        -12    1    4    4    0    0  0.53104479702E+02  0.31345318795E+02  0.16568615254E+02  0.63852437591E+02  0.00000000000E+00 0.  1.
        -13    1    3    3    0    0  0.28772096364E+02  0.14739689483E+01  0.12670441723E+03  0.12993850645E+03  0.00000000000E+00 0. -1.
         13    1    3    3    0    0 -0.70924802843E+02 -0.78740061074E+01  0.24763547210E+03  0.25771234871E+03  0.00000000000E+00 0.  1.
          2    1    1    2  501    0  0.15522003994E+02 -0.16780714920E+02 -0.90386433071E+02  0.93232141906E+02  0.00000000000E+00 0. -1.
<scales pt_clust_5="13000.00000" pt_clust_6="13000.00000" pt_clust_7="13000.00000" pt_clust_8="13000.00000" pt_clust_9="22.85881"></scales>
<clustering>
<clus scale="   22.859">  2  9  1 -1</clus>
<clus scale="   82.123">  5  6 -1 -1</clus>
<clus scale="   91.242">  7  8 -1 -1</clus>
<clus scale="   91.650">  2  5  1 -1</clus>
<clus scale="   22.859">  2  5  1 -1</clus>
</clustering>
</event>
<event>
 9    1  0.6270443E-005  0.1143546E+03  0.7546771E-02  0.1257770E+00
          1   -1    0    0  502    0 -0.00000000000E+00  0.00000000000E+00  0.48644396476E+03  0.48644396476E+03  0.00000000000E+00 0. -1.
         21   -1    0    0  501  502  0.00000000000E+00 -0.00000000000E+00 -0.14411619657E+03  0.14411619657E+03  0.00000000000E+00 0. -1.
         23    2    1    2    0    0 -0.63519344246E+02 -0.16078702874E+02  0.44133474183E+03  0.45592868396E+03  0.93815663563E+02 0.  0.
        -24    2    1    2    0    0  0.67540957764E+02 -0.77903994179E+01 -0.42914417510E+02  0.11353906972E+03  0.80168583768E+02 0.  0.
         11    1    4    4    0    0  0.82752544179E+02 -0.13824100802E+02 -0.47671732137E+02  0.96497064080E+02  0.00000000000E+00 0. -1.
        -12    1    4    4    0    0 -0.15211586416E+02  0.60337013844E+01  0.47573146267E+01  0.17042005637E+02  0.00000000000E+00 0.  1.
        -11    1    3    3    0    0 -0.38334317570E+02  0.36576194722E+02  0.26303563472E+03  0.26831899496E+03  0.00000000000E+00 0.  1.
         11    1    3    3    0    0 -0.25185026677E+02 -0.52654897596E+02  0.17829910711E+03  0.18760968899E+03  0.00000000000E+00 0. -1.
          2    1    1    2  501    0 -0.40216135171E+01  0.23869102292E+02 -0.56092556133E+02  0.61092407655E+02  0.00000000000E+00 0. -1.
<scales pt_clust_5="13000.00000" pt_clust_6="13000.00000" pt_clust_7="13000.00000" pt_clust_8="13000.00000" pt_clust_9="24.20552"></scales>
<clustering>
<clus scale="   24.206">  2  9  1 -1</clus>
<clus scale="   80.169">  5  6 -1 -1</clus>
<clus scale="   93.816">  7  8 -1 -1</clus>
<clus scale="  103.453">  2  5  1 -1</clus>
<clus scale="   24.206">  2  5  1 -1</clus>
</clustering>
</event>
<event>
 9    1  0.6270443E-005  0.1057521E+03  0.7546771E-02  0.1284419E+00
         -2   -1    0    0    0  501 -0.00000000000E+00  0.00000000000E+00  0.46612693479E+03  0.46612693479E+03  0.00000000000E+00 0.  1.
         21   -1    0    0  501  502  0.00000000000E+00 -0.00000000000E+00 -0.26885010440E+02  0.26885010440E+02  0.00000000000E+00 0.  1.
        -24    2    1    2    0    0 -0.65120811404E+02 -0.44711578993E+01  0.17507550937E+03  0.19551825082E+03  0.57578130350E+02 0.  0.
         23    2    1    2    0    0  0.34732938506E+02  0.63642519065E+01  0.14934246029E+03  0.17870166102E+03  0.91565454660E+02 0.  0.
         13    1    3    3    0    0 -0.60882184739E+01  0.19139328754E+02  0.22134610063E+02  0.29888480590E+02  0.00000000000E+00 0. -1.
        -14    1    3    3    0    0 -0.59032592930E+02 -0.23610486654E+02  0.15294089930E+03  0.16562977023E+03  0.00000000000E+00 0.  1.
        -11    1    4    4    0    0  0.46497248477E+02  0.38707424286E+02  0.11575632876E+03  0.13061311748E+03  0.00000000000E+00 0.  1.
         11    1    4    4    0    0 -0.11764309971E+02 -0.32343172379E+02  0.33586131537E+02  0.48088543545E+02  0.00000000000E+00 0. -1.
         -1    1    1    2    0  502  0.30387872897E+02 -0.18930940072E+01  0.11482395469E+03  0.11879203338E+03  0.00000000000E+00 0.  1.
<scales pt_clust_5="13000.00000" pt_clust_6="13000.00000" pt_clust_7="13000.00000" pt_clust_8="13000.00000" pt_clust_9="30.44680"></scales>
<clustering>
<clus scale="   30.447">  2  9  1 -1</clus>
<clus scale="   57.578">  5  6 -1 -1</clus>
<clus scale="   78.195">  1  5  2 -1</clus>
<clus scale="   91.565">  7  8 -1 -1</clus>
<clus scale="   30.447">  2  5  1 -1</clus>
</clustering>
</event>
<event>
 9    1  0.6270443E-005  0.1719895E+03  0.7546771E-02  0.1177941E+00
          1   -1    0    0  502    0 -0.00000000000E+00  0.00000000000E+00  0.48398192671E+03  0.48398192671E+03  0.00000000000E+00 0. -1.
         21   -1    0    0  501  502  0.00000000000E+00 -0.00000000000E+00 -0.19105787238E+03  0.19105787238E+03  0.00000000000E+00 0.  1.
         23    2    1    2    0    0  0.12237144526E+03  0.93589096666E+02  0.34478291650E+03  0.38955103872E+03  0.95608904566E+02 0.  0.
        -24    2    1    2    0    0 -0.42940971762E+02 -0.57282000472E+02 -0.12979365710E+03  0.16843647456E+03  0.79995611776E+02 0.  0.
         13    1    4    4    0    0 -0.22828949266E+02 -0.31984390719E+02 -0.51031320884E+01  0.39625801334E+02  0.00000000000E+00 0. -1.
        -14    1    4    4    0    0 -0.20112022496E+02 -0.25297609753E+02 -0.12469052501E+03  0.12881067322E+03  0.00000000000E+00 0.  1.
        -11    1    3    3    0    0  0.75194987567E+02  0.80823863260E+02  0.31133709299E+03  0.33032948476E+03  0.00000000000E+00 0. -1.
         11    1    3    3    0    0  0.47176457689E+02  0.12765233406E+02  0.33445823504E+02  0.59221553964E+02  0.00000000000E+00 0.  1.
          2    1    1    2  501    0 -0.79430473493E+02 -0.36307096194E+02  0.77934794937E+02  0.11705228582E+03  0.00000000000E+00 0. -1.
<scales pt_clust_5="13000.00000" pt_clust_6="13000.00000" pt_clust_7="13000.00000" pt_clust_8="13000.00000" pt_clust_9="87.33506"></scales>
<clustering>
<clus scale="   79.996">  5  6 -1 -1</clus>
<clus scale="   87.335">  2  9  1 -1</clus>
<clus scale="   95.609">  7  8 -1 -1</clus>
<clus scale="  163.825">  2  5  1 -1</clus>
<clus scale="   87.335">  2  5  1 -1</clus>
</clustering>
</event>
<event>
 9    1  0.6270443E-005  0.1206069E+03  0.7546771E-02  0.1248606E+00
         21   -1    0    0  501  502  0.00000000000E+00  0.00000000000E+00  0.50850904948E+02  0.50850904948E+02  0.00000000000E+00 0. -1.
          1   -1    0    0  502    0 -0.00000000000E+00 -0.00000000000E+00 -0.58676726254E+03  0.58676726254E+03  0.00000000000E+00 0. -1.
        -24    2    1    2    0    0 -0.25650636472E+01  0.67102601596E+02 -0.20110167350E+03  0.22723429462E+03  0.81756974490E+02 0.  0.
         23    2    1    2    0    0  0.44288481195E+02  0.45038929340E+02 -0.10685815388E+03  0.15293339957E+03  0.89330761386E+02 0.  0.
         11    1    3    3    0    0  0.88442321284E+01  0.76576132116E+02 -0.10645909700E+03  0.13143691941E+03  0.00000000000E+00 0. -1.
        -12    1    3    3    0    0 -0.11409295776E+02 -0.94735305200E+01 -0.94642576499E+02  0.95797375209E+02  0.00000000000E+00 0.  1.
        -11    1    4    4    0    0  0.18085507558E+02  0.53674791888E+02 -0.17301529356E+02  0.59223405727E+02  0.00000000000E+00 0.  1.
         11    1    4    4    0    0  0.26202973637E+02 -0.86358625480E+01 -0.89556624524E+02  0.93709993840E+02  0.00000000000E+00 0. -1.
          2    1    1    2  501    0 -0.41723417548E+02 -0.11214153094E+03 -0.22795653021E+03  0.25745047329E+03  0.00000000000E+00 0. -1.
<scales pt_clust_5="13000.00000" pt_clust_6="13000.00000" pt_clust_7="13000.00000" pt_clust_8="13000.00000" pt_clust_9="81.03113"></scales>
<clustering>
<clus scale="   81.757">  5  6 -1 -1</clus>
<clus scale="   89.331">  7  8 -1 -1</clus>
<clus scale="  105.800">  2  5  1 -1</clus>
<clus scale="   81.031">  1  9  2 -1</clus>
<clus scale="   81.031">  1  5  2 -1</clus>
</clustering>
</event>
<event>
 9    1  0.6274002E-005  0.9776568E+02  0.7546771E-02  0.1289052E+00
         21   -1    0    0  501  502  0.00000000000E+00  0.00000000000E+00  0.21166460426E+03  0.21166460426E+03  0.00000000000E+00 0. -1.
          1   -1    0    0  502    0 -0.00000000000E+00 -0.00000000000E+00 -0.42449810760E+03  0.42449810760E+03  0.00000000000E+00 0. -1.
         23    2    1    2    0    0  0.14792896217E+02 -0.28831416341E+02 -0.37527377701E+03  0.38763704996E+03  0.91553232837E+02 0.  0.
        -24    2    1    2    0    0 -0.28558656024E+02  0.43669576164E+02  0.15343907477E+02  0.10004331253E+03  0.83967851994E+02 0.  0.
         13    1    4    4    0    0 -0.19866501568E+02  0.46209594565E+02 -0.26761379248E+02  0.56975222103E+02  0.00000000000E+00 0. -1.
        -14    1    4    4    0    0 -0.86921544554E+01 -0.25400184013E+01  0.42105286725E+02  0.43068090424E+02  0.00000000000E+00 0.  1.
        -13    1    3    3    0    0 -0.35230370913E+02  0.31380248897E+01 -0.18375724676E+03  0.18713030746E+03  0.00000000000E+00 0. -1.
         13    1    3    3    0    0  0.50023267130E+02 -0.31969441231E+02 -0.19151653025E+03  0.20050674250E+03  0.00000000000E+00 0.  1.
          2    1    1    2  501    0  0.13765759807E+02 -0.14838159823E+02  0.14709636619E+03  0.14848234938E+03  0.00000000000E+00 0. -1.
<scales pt_clust_5="13000.00000" pt_clust_6="13000.00000" pt_clust_7="13000.00000" pt_clust_8="13000.00000" pt_clust_9="20.24024"></scales>
<clustering>
<clus scale="   20.240">  1  9  2 -1</clus>
<clus scale="   83.968">  5  6 -1 -1</clus>
<clus scale="   90.701">  1  5  2 -1</clus>
<clus scale="   91.553">  7  8 -1 -1</clus>
<clus scale="   20.240">  1  5  2 -1</clus>
</clustering>
</event>
<event>
 9    1  0.6270443E-005  0.1077413E+03  0.7546771E-02  0.1268951E+00
          1   -1    0    0  502    0 -0.00000000000E+00  0.00000000000E+00  0.74464416114E+03  0.74464416114E+03  0.00000000000E+00 0. -1.
         21   -1    0    0  501  502  0.00000000000E+00 -0.00000000000E+00 -0.34854732856E+02  0.34854732856E+02  0.00000000000E+00 0. -1.
        -24    2    1    2    0    0 -0.57392625098E+02  0.28074557655E+02  0.53040261478E+03  0.54038430639E+03  0.81278352733E+02 0.  0.
         23    2    1    2    0    0  0.12564671621E+02 -0.25720150737E+02  0.63452058047E+02  0.11479260175E+03  0.91278587954E+02 0.  0.
         13    1    3    3    0    0 -0.29177947400E+02  0.55909387385E+02  0.29466474728E+03  0.30133789258E+03  0.00000000000E+00 0. -1.
        -14    1    3    3    0    0 -0.28214677697E+02 -0.27834829730E+02  0.23573786750E+03  0.23904641381E+03  0.00000000000E+00 0.  1.
        -11    1    4    4    0    0 -0.20996836738E+02 -0.37384801957E+02  0.66506967608E+02  0.79130697651E+02  0.00000000000E+00 0.  1.
         11    1    4    4    0    0  0.33561508359E+02  0.11664651220E+02 -0.30549095616E+01  0.35661904097E+02  0.00000000000E+00 0. -1.
          2    1    1    2  501    0  0.44827953477E+02 -0.23544069180E+01  0.11593475545E+03  0.12432198585E+03  0.00000000000E+00 0. -1.
<scales pt_clust_5="13000.00000" pt_clust_6="13000.00000" pt_clust_7="13000.00000" pt_clust_8="13000.00000" pt_clust_9="44.88976"></scales>
<clustering>
<clus scale="   44.890">  2  9  1 -1</clus>
<clus scale="   81.278">  5  6 -1 -1</clus>
<clus scale="   91.279">  7  8 -1 -1</clus>
<clus scale="   99.411">  1  5  2 -1</clus>
<clus scale="   44.890">  2  5  1 -1</clus>
</clustering>
</event>
<event>
 9    1  0.6270443E-005  0.1851095E+03  0.7546771E-02  0.1164055E+00
          3   -1    0    0  502    0 -0.00000000000E+00  0.00000000000E+00  0.40831523132E+03  0.40831523132E+03  0.00000000000E+00 0. -1.
         21   -1    0    0  501  502  0.00000000000E+00 -0.00000000000E+00 -0.66566467203E+03  0.66566467203E+03  0.00000000000E+00 0.  1.
        -24    2    1    2    0    0 -0.55872643407E+02 -0.15272751471E+03  0.37102430505E+03  0.41280964262E+03  0.79406045559E+02 0.  0.
         23    2    1    2    0    0  0.37339999255E+02  0.14393569888E+03 -0.46188951641E+03  0.49342714299E+03  0.89535797973E+02 0.  0.
         11    1    3    3    0    0 -0.76011373088E+02 -0.12617465638E+03  0.31207897302E+03  0.34509572317E+03  0.00000000000E+00 0. -1.
        -12    1    3    3    0    0  0.20138729681E+02 -0.26552858334E+02  0.58945332026E+02  0.67713919444E+02  0.00000000000E+00 0.  1.
        -11    1    4    4    0    0  0.52257130287E+02  0.73396663732E+02 -0.16594786280E+03  0.18882947620E+03  0.00000000000E+00 0. -1.
         11    1    4    4    0    0 -0.14917131032E+02  0.70539035149E+02 -0.29594165361E+03  0.30459766680E+03  0.00000000000E+00 0.  1.
          4    1    1    2  501    0  0.18532644152E+02  0.87918158314E+01 -0.16648422935E+03  0.16774311774E+03  0.00000000000E+00 0. -1.
<scales pt_clust_5="13000.00000" pt_clust_6="13000.00000" pt_clust_7="13000.00000" pt_clust_8="13000.00000" pt_clust_9="20.51231"></scales>
<clustering>
<clus scale="   20.512">  2  9  1 -1</clus>
<clus scale="   79.406">  5  6 -1 -1</clus>
<clus scale="   89.536">  7  8 -1 -1</clus>
<clus scale="  180.428">  1  5  2 -1</clus>
<clus scale="   20.512">  2  5  1 -1</clus>
</clustering>
</event>
<event>
 9    1  0.6270443E-005  0.1195750E+03  0.7546771E-02  0.1247806E+00
         21   -1    0    0  501  502  0.00000000000E+00  0.00000000000E+00  0.70757330378E+02  0.70757330378E+02  0.00000000000E+00 0. -1.
          1   -1    0    0  502    0 -0.00000000000E+00 -0.00000000000E+00 -0.29485847200E+03  0.29485847200E+03  0.00000000000E+00 0. -1.
         23    2    1    2    0    0  0.64509897425E+02  0.37591394424E+02 -0.87894157745E+02  0.14754635191E+03  0.92032076986E+02 0.  0.
        -24    2    1    2    0    0 -0.85481433677E+02  0.63010747958E+01 -0.71496551921E+02  0.13711394300E+03  0.79634774943E+02 0.  0.
         13    1    4    4    0    0 -0.16064560247E+02  0.15598290056E+02 -0.62637182682E+02  0.66519120582E+02  0.00000000000E+00 0. -1.
        -14    1    4    4    0    0 -0.69416873430E+02 -0.92972152597E+01 -0.88593692392E+01  0.70594822415E+02  0.00000000000E+00 0.  1.
        -11    1    3    3    0    0  0.29902231679E+02  0.70840250884E-01  0.14426424865E+02  0.33200454999E+02  0.00000000000E+00 0. -1.
         11    1    3    3    0    0  0.34607665746E+02  0.37520554173E+02 -0.10232058261E+03  0.11434589691E+03  0.00000000000E+00 0.  1.
          2    1    1    2  501    0  0.20971536252E+02 -0.43892469219E+02 -0.64710431955E+02  0.80955507477E+02  0.00000000000E+00 0. -1.
<scales pt_clust_5="13000.00000" pt_clust_6="13000.00000" pt_clust_7="13000.00000" pt_clust_8="13000.00000" pt_clust_9="48.64521"></scales>
<clustering>
<clus scale="   48.645">  1  9  2 -1</clus>
<clus scale="   79.635">  5  6 -1 -1</clus>
<clus scale="   92.032">  7  8 -1 -1</clus>
<clus scale="  110.318">  1  5  2 -1</clus>
<clus scale="   48.645">  1  5  2 -1</clus>
</clustering>
</event>
<event>
 9    1  0.6270443E-005  0.1579309E+03  0.7546771E-02  0.1212009E+00
          1   -1    0    0  502    0 -0.00000000000E+00  0.00000000000E+00  0.20744835508E+03  0.20744835508E+03  0.00000000000E+00 0. -1.
         21   -1    0    0  501  502  0.00000000000E+00 -0.00000000000E+00 -0.25508984885E+03  0.25508984885E+03  0.00000000000E+00 0.  1.
         23    2    1    2    0    0  0.35071284167E+02  0.22517411464E+02 -0.10134505526E+03  0.14258517523E+03  0.91228740955E+02 0.  0.
        -24    2    1    2    0    0 -0.12909983163E+03 -0.76662652761E+02 -0.41147516070E+02  0.17583570911E+03  0.81738299862E+02 0.  0.
         13    1    4    4    0    0 -0.40678900088E+02 -0.71338218400E+02 -0.15038400969E+02  0.83486932035E+02  0.00000000000E+00 0. -1.
        -14    1    4    4    0    0 -0.88420931540E+02 -0.53244343606E+01 -0.26109115101E+02  0.92348777073E+02  0.00000000000E+00 0.  1.
        -11    1    3    3    0    0  0.14986790299E+02 -0.27451380432E+02 -0.42613841993E+01  0.31564878684E+02  0.00000000000E+00 0. -1.
         11    1    3    3    0    0  0.20084493869E+02  0.49968791895E+02 -0.97083671060E+02  0.11102029654E+03  0.00000000000E+00 0.  1.
          2    1    1    2  501    0  0.94028547460E+02  0.54145241297E+02  0.94851077565E+02  0.14411731960E+03  0.00000000000E+00 0. -1.
<scales pt_clust_5="13000.00000" pt_clust_6="13000.00000" pt_clust_7="13000.00000" pt_clust_8="13000.00000" pt_clust_9="135.13346"></scales>
<clustering>
<clus scale="   81.738">  5  6 -1 -1</clus>
<clus scale="   91.229">  7  8 -1 -1</clus>
<clus scale="  100.298">  1  7  2 -1</clus>
<clus scale="  135.133">  2  9  1 -1</clus>
<clus scale="  135.133">  2  5  1 -1</clus>
</clustering>
</event>
<event>
 9    1  0.6270443E-005  0.1776474E+03  0.7546771E-02  0.1171481E+00
         21   -1    0    0  501  502  0.00000000000E+00  0.00000000000E+00  0.12418347151E+03  0.12418347151E+03  0.00000000000E+00 0. -1.
          1   -1    0    0  502    0 -0.00000000000E+00 -0.00000000000E+00 -0.53107368591E+03  0.53107368591E+03  0.00000000000E+00 0. -1.
         23    2    1    2    0    0  0.85007148718E+02 -0.10790448716E+03 -0.30343091707E+03  0.34524874802E+03  0.90866841539E+02 0.  0.
        -24    2    1    2    0    0 -0.12895980488E+03  0.16145747104E+03 -0.92080280780E+02  0.23979986231E+03  0.79536467283E+02 0.  0.
         11    1    4    4    0    0 -0.79565284168E+02  0.50938119112E+02 -0.67926307177E+02  0.11635853914E+03  0.00000000000E+00 0. -1.
        -12    1    4    4    0    0 -0.49394520715E+02  0.11051935193E+03 -0.24153973603E+02  0.12344132318E+03  0.00000000000E+00 0.  1.
        -13    1    3    3    0    0  0.53501635584E+02 -0.11781637130E+03 -0.26245862266E+03  0.29262202748E+03  0.00000000000E+00 0. -1.
         13    1    3    3    0    0  0.31505513134E+02  0.99118841497E+01 -0.40972294411E+02  0.52626720538E+02  0.00000000000E+00 0.  1.
          2    1    1    2  501    0  0.43952656165E+02 -0.53552983883E+02 -0.11379016548E+02  0.70208547089E+02  0.00000000000E+00 0. -1.
<scales pt_clust_5="13000.00000" pt_clust_6="13000.00000" pt_clust_7="13000.00000" pt_clust_8="13000.00000" pt_clust_9="69.28029"></scales>
<clustering>
<clus scale="   69.280">  1  9  2 -1</clus>
<clus scale="   79.536">  5  6 -1 -1</clus>
<clus scale="   90.867">  7  8 -1 -1</clus>
<clus scale="  172.127">  1  5  2 -1</clus>
<clus scale="   69.280">  1  5  2 -1</clus>
</clustering>
</event>
<event>
 9    1  0.6270443E-005  0.1121104E+03  0.7546771E-02  0.1264032E+00
          3   -1    0    0  502    0 -0.00000000000E+00  0.00000000000E+00  0.38616011915E+02  0.38616011915E+02  0.00000000000E+00 0. -1.
         21   -1    0    0  501  502  0.00000000000E+00 -0.00000000000E+00 -0.55471616106E+03  0.55471616106E+03  0.00000000000E+00 0.  1.
         23    2    1    2    0    0  0.37921478435E+02 -0.46489241960E+02 -0.77383670745E+02  0.13797223631E+03  0.97205027386E+02 0.  0.
        -24    2    1    2    0    0 -0.11894068826E+02  0.46301745643E+02 -0.29223175563E+03  0.30658078755E+03  0.79416999285E+02 0.  0.
         11    1    4    4    0    0 -0.39671409611E+02  0.15258112501E+02 -0.83086601384E+02  0.93327456127E+02  0.00000000000E+00 0. -1.
        -12    1    4    4    0    0  0.27777340785E+02  0.31043633143E+02 -0.20914515425E+03  0.21325333143E+03  0.00000000000E+00 0.  1.
        -11    1    3    3    0    0  0.58011129731E+02 -0.63901937338E+02 -0.49714316733E+02  0.99600512330E+02  0.00000000000E+00 0. -1.
         11    1    3    3    0    0 -0.20089651296E+02  0.17412695379E+02 -0.27669354012E+02  0.38371723977E+02  0.00000000000E+00 0.  1.
          4    1    1    2  501    0 -0.26027409609E+02  0.18749631671E+00 -0.14648472277E+03  0.14877914911E+03  0.00000000000E+00 0. -1.
<scales pt_clust_5="13000.00000" pt_clust_6="13000.00000" pt_clust_7="13000.00000" pt_clust_8="13000.00000" pt_clust_9="26.02808"></scales>
<clustering>
<clus scale="   26.028">  2  9  1 -1</clus>
<clus scale="   79.417">  5  6 -1 -1</clus>
<clus scale="   97.093">  2  5  1 -1</clus>
<clus scale="   97.205">  7  8 -1 -1</clus>
<clus scale="   26.028">  2  5  1 -1</clus>
</clustering>
</event>
<event>
 9    1  0.6270443E-005  0.1514476E+03  0.7546771E-02  0.1226539E+00
         21   -1    0    0  501  502  0.00000000000E+00  0.00000000000E+00  0.29197259525E+03  0.29197259525E+03  0.00000000000E+00 0.  1.
          1   -1    0    0  502    0 -0.00000000000E+00 -0.00000000000E+00 -0.11818834897E+03  0.11818834897E+03  0.00000000000E+00 0. -1.
        -24    2    1    2    0    0  0.33094551899E+01 -0.18693500971E+02  0.80059923726E+02  0.11589710098E+03  0.81621977163E+02 0.  0.
         23    2    1    2    0    0  0.78054672191E+02 -0.81800088197E+02  0.18064883596E+02  0.14445251726E+03  0.88070445909E+02 0.  0.
         13    1    3    3    0    0  0.22180466586E+02  0.23068376906E+02  0.55084341855E+02  0.63705634199E+02  0.00000000000E+00 0. -1.
        -14    1    3    3    0    0 -0.18871011396E+02 -0.41761877876E+02  0.24975581871E+02  0.52191466780E+02  0.00000000000E+00 0.  1.
        -13    1    4    4    0    0  0.65142272532E+02 -0.12953416362E+02 -0.13246507257E+02  0.67725745626E+02  0.00000000000E+00 0.  1.
         13    1    4    4    0    0  0.12912399659E+02 -0.68846671835E+02  0.31311390853E+02  0.76726771630E+02  0.00000000000E+00 0. -1.
          2    1    1    2  501    0 -0.81364127381E+02  0.10049358917E+03  0.75659438963E+02  0.14981132598E+03  0.00000000000E+00 0. -1.
<scales pt_clust_5="13000.00000" pt_clust_6="13000.00000" pt_clust_7="13000.00000" pt_clust_8="13000.00000" pt_clust_9="123.20703"></scales>
<clustering>
<clus scale="   81.622">  5  6 -1 -1</clus>
<clus scale="   83.801">  2  5  1 -1</clus>
<clus scale="   88.070">  7  8 -1 -1</clus>
<clus scale="  123.207">  1  9  2 -1</clus>
<clus scale="  123.207">  1  5  2 -1</clus>
</clustering>
</event>
<event>
 9    1  0.6270443E-005  0.9166947E+02  0.7546771E-02  0.1304387E+00
         21   -1    0    0  501  502  0.00000000000E+00  0.00000000000E+00  0.36990021225E+02  0.36990021225E+02  0.00000000000E+00 0. -1.
         -2   -1    0    0    0  501 -0.00000000000E+00 -0.00000000000E+00 -0.65722480342E+03  0.65722480342E+03  0.00000000000E+00 0.  1.
        -24    2    1    2    0    0  0.52229649405E+02 -0.14349626198E+02 -0.17019591323E+03  0.19572090049E+03  0.80038577938E+02 0.  0.
         23    2    1    2    0    0  0.38809484090E+02  0.16922332044E+02 -0.11627628070E+03  0.15252830741E+03  0.89174938924E+02 0.  0.
         11    1    3    3    0    0  0.56165555871E+02 -0.25964607883E+02 -0.64740556360E+02  0.89554844462E+02  0.00000000000E+00 0. -1.
        -12    1    3    3    0    0 -0.39359064658E+01  0.11614981685E+02 -0.10545535687E+03  0.10616605603E+03  0.00000000000E+00 0.  1.
        -13    1    4    4    0    0 -0.12973262200E+00  0.35225574712E+02 -0.81507786370E+01  0.36156508912E+02  0.00000000000E+00 0. -1.
         13    1    4    4    0    0  0.38939216712E+02 -0.18303242669E+02 -0.10812550206E+03  0.11637179850E+03  0.00000000000E+00 0.  1.
         -1    1    1    2    0  502 -0.91039133496E+02 -0.25727058456E+01 -0.33376258826E+03  0.34596561674E+03  0.00000000000E+00 0.  1.
<scales pt_clust_5="13000.00000" pt_clust_6="13000.00000" pt_clust_7="13000.00000" pt_clust_8="13000.00000" pt_clust_9="91.07552"></scales>
<clustering>
<clus scale="   80.039">  5  6 -1 -1</clus>
<clus scale="   89.175">  7  8 -1 -1</clus>
<clus scale="   91.076">  1  9  2 -1</clus>
<clus scale="   82.809">  2  5  1 -1</clus>
<clus scale="   91.076">  1  5  2 -1</clus>
</clustering>
</event>
<event>
 9    1  0.6270443E-005  0.9833682E+02  0.7546771E-02  0.1288350E+00
          1   -1    0    0  502    0 -0.00000000000E+00  0.00000000000E+00  0.19850989375E+03  0.19850989375E+03  0.00000000000E+00 0. -1.
         21   -1    0    0  501  502  0.00000000000E+00 -0.00000000000E+00 -0.15194438135E+03  0.15194438135E+03  0.00000000000E+00 0. -1.
        -24    2    1    2    0    0 -0.27857005236E+02 -0.67029593648E+01  0.11388818680E+03  0.14381971273E+03  0.83021974628E+02 0.  0.
         23    2    1    2    0    0  0.52845352681E+02  0.69945092265E+02 -0.36682294420E+02  0.13205026263E+03  0.91688243008E+02 0.  0.
         13    1    3    3    0    0 -0.10003136574E+02 -0.42564138749E+02  0.37661048432E+02  0.57707219806E+02  0.00000000000E+00 0. -1.
        -14    1    3    3    0    0 -0.17853868662E+02  0.35861179384E+02  0.76227138371E+02  0.86112492922E+02  0.00000000000E+00 0.  1.
        -13    1    4    4    0    0  0.30417342213E+02  0.40071140926E+02 -0.67108147923E+02  0.83871416824E+02  0.00000000000E+00 0.  1.
         13    1    4    4    0    0  0.22428010468E+02  0.29873951339E+02  0.30425853504E+02  0.48178845810E+02  0.00000000000E+00 0. -1.
          2    1    1    2  501    0 -0.24988347445E+02 -0.63242132900E+02 -0.30640379979E+02  0.74584299735E+02  0.00000000000E+00 0. -1.
<scales pt_clust_5="13000.00000" pt_clust_6="13000.00000" pt_clust_7="13000.00000" pt_clust_8="13000.00000" pt_clust_9="67.99989"></scales>
<clustering>
<clus scale="   68.000">  2  9  1 -1</clus>
<clus scale="   83.022">  5  6 -1 -1</clus>
<clus scale="   90.311">  1  5  2 -1</clus>
<clus scale="   91.688">  7  8 -1 -1</clus>
<clus scale="   68.000">  2  5  1 -1</clus>
</clustering>
</event>
<event>
 9    1  0.6270443E-005  0.1130178E+03  0.7546771E-02  0.1260099E+00
          1   -1    0    0  502    0 -0.00000000000E+00  0.00000000000E+00  0.50647240978E+03  0.50647240978E+03  0.00000000000E+00 0. -1.
         21   -1    0    0  501  502  0.00000000000E+00 -0.00000000000E+00 -0.34429550179E+02  0.34429550179E+02  0.00000000000E+00 0.  1.
         23    2    1    2    0    0  0.53145456233E+02 -0.20495600883E+02  0.27280211631E+03  0.29333093906E+03  0.91528880543E+02 0.  0.
        -24    2    1    2    0    0 -0.74580305069E+02  0.28477661483E+02  0.19444901678E+03  0.22420166749E+03  0.77992105187E+02 0.  0.
         11    1    4    4    0    0 -0.18254896421E+02  0.48449543338E+02  0.86301007806E+02  0.10064026749E+03  0.00000000000E+00 0. -1.
        -12    1    4    4    0    0 -0.56325408648E+02 -0.19971881855E+02  0.10814800897E+03  0.12356139999E+03  0.00000000000E+00 0.  1.
        -13    1    3    3    0    0  0.56224429181E+01  0.30185915801E+02  0.14136214602E+03  0.14465841733E+03  0.00000000000E+00 0.  1.
         13    1    3    3    0    0  0.47523013315E+02 -0.50681516684E+02  0.13143997029E+03  0.14867252173E+03  0.00000000000E+00 0. -1.
          2    1    1    2  501    0  0.21434848836E+02 -0.79820605995E+01  0.47917265226E+01  0.23369353416E+02  0.00000000000E+00 0. -1.
<scales pt_clust_5="13000.00000" pt_clust_6="13000.00000" pt_clust_7="13000.00000" pt_clust_8="13000.00000" pt_clust_9="22.87282"></scales>
<clustering>
<clus scale="   22.873">  2  9  1 -1</clus>
<clus scale="   77.992">  5  6 -1 -1</clus>
<clus scale="   91.529">  7  8 -1 -1</clus>
<clus scale="  102.363">  2  5  1 -1</clus>
<clus scale="   22.873">  2  5  1 -1</clus>
</clustering>
</event>
<event>
 9    1  0.1164585E-004  0.1300343E+03  0.7546771E-02  0.1229895E+00
         -2   -1    0    0    0  501 -0.00000000000E+00  0.00000000000E+00  0.45704012064E+03  0.45704012064E+03  0.00000000000E+00 0.  1.
         21   -1    0    0  501  502  0.00000000000E+00 -0.00000000000E+00 -0.22504803708E+03  0.22504803708E+03  0.00000000000E+00 0.  1.
        -24    2    1    2    0    0  0.86687131448E+02  0.23397553650E+02  0.25197226718E+03  0.27995662885E+03  0.82605001875E+02 0.  0.
         23    2    1    2    0    0 -0.12475764244E+03 -0.45242941749E+01 -0.17938674332E+03  0.23715875838E+03  0.92085473399E+02 0.  0.
         13    1    3    3    0    0  0.56888956072E+01  0.33842033927E+02  0.39476252592E+02  0.52306991046E+02  0.00000000000E+00 0. -1.
        -14    1    3    3    0    0  0.80998235841E+02 -0.10444480277E+02  0.21249601459E+03  0.22764963781E+03  0.00000000000E+00 0.  1.
        -11    1    4    4    0    0 -0.77181155622E+02  0.37463271318E+02 -0.70117432471E+02  0.11080109123E+03  0.00000000000E+00 0.  1.
         11    1    4    4    0    0 -0.47576486816E+02 -0.41987565493E+02 -0.10926931085E+03  0.12635766715E+03  0.00000000000E+00 0. -1.
         -1    1    1    2    0  502  0.38070510990E+02 -0.18873259475E+02  0.15940655970E+03  0.16497277049E+03  0.00000000000E+00 0.  1.
<scales pt_clust_5="13000.00000" pt_clust_6="13000.00000" pt_clust_7="13000.00000" pt_clust_8="13000.00000" pt_clust_9="42.49195"></scales>
<clustering>
<clus scale="   42.492">  2  9  1 -1</clus>
<clus scale="   82.605">  5  6 -1 -1</clus>
<clus scale="   92.085">  7  8 -1 -1</clus>
<clus scale="  123.502">  1  5  2 -1</clus>
<clus scale="   42.492">  2  5  1 -1</clus>
</clustering>
</event>
<event>
 9    1  0.6270443E-005  0.1097597E+03  0.7546771E-02  0.1263221E+00
          1   -1    0    0  502    0 -0.00000000000E+00  0.00000000000E+00  0.75385590174E+02  0.75385590174E+02  0.00000000000E+00 0. -1.
         21   -1    0    0  501  502  0.00000000000E+00 -0.00000000000E+00 -0.19878507716E+03  0.19878507716E+03  0.00000000000E+00 0. -1.
         23    2    1    2    0    0 -0.99597785229E+01  0.70807897994E+02 -0.45543012483E+02  0.12073728224E+03  0.85967259643E+02 0.  0.
        -24    2    1    2    0    0 -0.15817473289E+02 -0.65499044815E+02 -0.52979665462E+02  0.11721866072E+03  0.79956564058E+02 0.  0.
         11    1    4    4    0    0 -0.38200294400E+02 -0.27762239399E+02 -0.55983594550E+02  0.73240475745E+02  0.00000000000E+00 0. -1.
        -12    1    4    4    0    0  0.22382821111E+02 -0.37736805416E+02  0.30039290880E+01  0.43978184977E+02  0.00000000000E+00 0.  1.
        -11    1    3    3    0    0 -0.15178110648E+02  0.32288342254E+02 -0.67313855146E+02  0.76184428744E+02  0.00000000000E+00 0.  1.
         11    1    3    3    0    0  0.52183321248E+01  0.38519555740E+02  0.21770842663E+02  0.44552853498E+02  0.00000000000E+00 0. -1.
          2    1    1    2  501    0  0.25777251812E+02 -0.53088531787E+01 -0.24876809037E+02  0.36214724366E+02  0.00000000000E+00 0. -1.
<scales pt_clust_5="13000.00000" pt_clust_6="13000.00000" pt_clust_7="13000.00000" pt_clust_8="13000.00000" pt_clust_9="26.31826"></scales>
<clustering>
<clus scale="   26.318">  2  9  1 -1</clus>
<clus scale="   79.957">  5  6 -1 -1</clus>
<clus scale="   85.967">  7  8 -1 -1</clus>
<clus scale="  105.118">  2  5  1 -1</clus>
<clus scale="   26.318">  2  5  1 -1</clus>
</clustering>
</event>
<event>
 9    1  0.6270443E-005  0.1692738E+03  0.7546771E-02  0.1193609E+00
          1   -1    0    0  502    0 -0.00000000000E+00  0.00000000000E+00  0.39787866081E+03  0.39787866081E+03  0.00000000000E+00 0. -1.
         21   -1    0    0  501  502  0.00000000000E+00 -0.00000000000E+00 -0.17241919474E+03  0.17241919474E+03  0.00000000000E+00 0. -1.
        -24    2    1    2    0    0  0.24517647736E+02 -0.88907131990E+02  0.20835089437E+03  0.24106199383E+03  0.78709570687E+02 0.  0.
         23    2    1    2    0    0 -0.14081249150E+03 -0.10123821432E+02  0.43205962958E+02  0.17427556278E+03  0.92598958006E+02 0.  0.
         13    1    3    3    0    0  0.40906920277E+02 -0.79798690737E+02  0.20242430654E+03  0.22139739621E+03  0.00000000000E+00 0. -1.
        -14    1    3    3    0    0 -0.16389272541E+02 -0.91084412529E+01  0.59265878286E+01  0.19664597625E+02  0.00000000000E+00 0.  1.
        -11    1    4    4    0    0 -0.10072637747E+02  0.25643633372E+02  0.25571099190E+02  0.37589028685E+02  0.00000000000E+00 0.  1.
         11    1    4    4    0    0 -0.13073985375E+03 -0.35767454804E+02  0.17634863768E+02  0.13668653409E+03  0.00000000000E+00 0. -1.
          2    1    1    2  501    0  0.11629484376E+03  0.99030953423E+02 -0.26097391253E+02  0.15496029895E+03  0.00000000000E+00 0. -1.
<scales pt_clust_5="13000.00000" pt_clust_6="13000.00000" pt_clust_7="13000.00000" pt_clust_8="13000.00000" pt_clust_9="141.70056"></scales>
<clustering>
<clus scale="   78.710">  5  6 -1 -1</clus>
<clus scale="   92.599">  7  8 -1 -1</clus>
<clus scale="  121.247">  1  5  2 -1</clus>
<clus scale="  141.701">  2  9  1 -1</clus>
<clus scale="  141.701">  2  5  1 -1</clus>
</clustering>
</event>
<event>
 9    1  0.6270443E-005  0.1109273E+03  0.7546771E-02  0.1266034E+00
         21   -1    0    0  501  502  0.00000000000E+00  0.00000000000E+00  0.17848705153E+03  0.17848705153E+03  0.00000000000E+00 0. -1.
         -4   -1    0    0    0  501 -0.00000000000E+00 -0.00000000000E+00 -0.15867263883E+03  0.15867263883E+03  0.00000000000E+00 0.  1.
        -24    2    1    2    0    0  0.45235823237E+02  0.29092373331E+02 -0.10753972610E+03  0.14353128419E+03  0.78382338314E+02 0.  0.
         23    2    1    2    0    0 -0.66077524758E+02 -0.28675763757E+02  0.86425856486E+02  0.14769721439E+03  0.95689601121E+02 0.  0.
         11    1    3    3    0    0  0.26476688340E+02  0.17246550782E+02  0.21011696818E+01  0.31668177297E+02  0.00000000000E+00 0. -1.
        -12    1    3    3    0    0  0.18759134898E+02  0.11845822549E+02 -0.10964089579E+03  0.11186310689E+03  0.00000000000E+00 0.  1.
        -13    1    4    4    0    0 -0.29784454724E+02 -0.45444259207E+02  0.21018165792E+01  0.54375656971E+02  0.00000000000E+00 0.  1.
         13    1    4    4    0    0 -0.36293070035E+02  0.16768495450E+02  0.84324039907E+02  0.93321557415E+02  0.00000000000E+00 0. -1.
         -3    1    1    2    0  502  0.20841701521E+02 -0.41660957347E+00  0.40928282319E+02  0.45931191792E+02  0.00000000000E+00 0.  1.
<scales pt_clust_5="13000.00000" pt_clust_6="13000.00000" pt_clust_7="13000.00000" pt_clust_8="13000.00000" pt_clust_9="20.84586"></scales>
<clustering>
<clus scale="   20.846">  1  9  2 -1</clus>
<clus scale="   78.382">  5  6 -1 -1</clus>
<clus scale="   95.690">  7  8 -1 -1</clus>
<clus scale="   96.396">  2  5  1 -1</clus>
<clus scale="   20.846">  1  5  2 -1</clus>
</clustering>
</event>
<event>
 9    1  0.6270443E-005  0.1619596E+03  0.7546771E-02  0.1189588E+00
         21   -1    0    0  501  502  0.00000000000E+00  0.00000000000E+00  0.42831686938E+03  0.42831686938E+03  0.00000000000E+00 0. -1.
         -4   -1    0    0    0  501 -0.00000000000E+00 -0.00000000000E+00 -0.13831977126E+03  0.13831977126E+03  0.00000000000E+00 0.  1.
         23    2    1    2    0    0  0.18150258596E+02  0.13041543494E+03  0.82196123589E+02  0.18363656014E+03  0.98125256333E+02 0.  0.
        -24    2    1    2    0    0 -0.46438285966E+02 -0.11627126125E+03  0.27295736335E+03  0.31057339243E+03  0.79212305142E+02 0.  0.
         13    1    4    4    0    0 -0.63691385710E+02 -0.73341765670E+02  0.14519507492E+03  0.17469177710E+03  0.00000000000E+00 0. -1.
        -14    1    4    4    0    0  0.17253099744E+02 -0.42929495578E+02  0.12776228842E+03  0.13588161533E+03  0.00000000000E+00 0.  1.
        -11    1    3    3    0    0  0.52823600725E+02  0.40521294751E+02  0.44996144273E+02  0.80355218383E+02  0.00000000000E+00 0.  1.
         11    1    3    3    0    0 -0.34673342129E+02  0.89894140191E+02  0.37199979317E+02  0.10328134176E+03  0.00000000000E+00 0. -1.
         -3    1    1    2    0  502  0.28288027369E+02 -0.14144173694E+02 -0.65156388812E+02  0.72426688071E+02  0.00000000000E+00 0.  1.
<scales pt_clust_5="13000.00000" pt_clust_6="13000.00000" pt_clust_7="13000.00000" pt_clust_8="13000.00000" pt_clust_9="31.62706"></scales>
<clustering>
<clus scale="   31.627">  1  9  2 -1</clus>
<clus scale="   79.212">  5  6 -1 -1</clus>
<clus scale="   98.125">  7  8 -1 -1</clus>
<clus scale="  151.251">  1  5  2 -1</clus>
<clus scale="   31.627">  1  5  2 -1</clus>
</clustering>
</event>
<event>
 9    1  0.6270443E-005  0.9531192E+02  0.7546771E-02  0.1294073E+00
         21   -1    0    0  501  502  0.00000000000E+00  0.00000000000E+00  0.60695968365E+02  0.60695968365E+02  0.00000000000E+00 0. -1.
          1   -1    0    0  502    0 -0.00000000000E+00 -0.00000000000E+00 -0.42225306659E+03  0.42225306659E+03  0.00000000000E+00 0. -1.
        -24    2    1    2    0    0 -0.38447008362E+01  0.19191153592E+02 -0.18246287131E+03  0.20175035031E+03  0.83829722316E+02 0.  0.
         23    2    1    2    0    0 -0.12572554574E+02 -0.42696192769E+02 -0.21370077439E+03  0.23625843242E+03  0.90382475685E+02 0.  0.
         11    1    3    3    0    0  0.26163305469E+02  0.39064500130E+02 -0.12900105131E+03  0.13730194814E+03  0.00000000000E+00 0. -1.
        -12    1    3    3    0    0 -0.30008006305E+02 -0.19873346538E+02 -0.53461820000E+02  0.64448402173E+02  0.00000000000E+00 0.  1.
        -13    1    4    4    0    0  0.25391201480E+02 -0.34690558353E+02 -0.41542444368E+02  0.59782293662E+02  0.00000000000E+00 0. -1.
         13    1    4    4    0    0 -0.37963756054E+02 -0.80056344153E+01 -0.17215833002E+03  0.17647613876E+03  0.00000000000E+00 0.  1.
          2    1    1    2  501    0  0.16417255410E+02  0.23505039177E+02  0.34606547471E+02  0.44940252222E+02  0.00000000000E+00 0. -1.
<scales pt_clust_5="13000.00000" pt_clust_6="13000.00000" pt_clust_7="13000.00000" pt_clust_8="13000.00000" pt_clust_9="28.67077"></scales>
<clustering>
<clus scale="   28.671">  1  9  2 -1</clus>
<clus scale="   83.830">  5  6 -1 -1</clus>
<clus scale="   89.122">  2  5  1 -1</clus>
<clus scale="   90.382">  7  8 -1 -1</clus>
<clus scale="   28.671">  1  5  2 -1</clus>
</clustering>
</event>
<event>
 9    1  0.6270443E-005  0.9114611E+02  0.7546771E-02  0.1305536E+00
          3   -1    0    0  502    0 -0.00000000000E+00  0.00000000000E+00  0.20957396455E+03  0.20957396455E+03  0.00000000000E+00 0. -1.
         21   -1    0    0  501  502  0.00000000000E+00 -0.00000000000E+00 -0.11162560947E+03  0.11162560947E+03  0.00000000000E+00 0.  1.
         23    2    1    2    0    0  0.10041424993E+02 -0.16890164243E+01  0.90549358011E+02  0.12887214936E+03  0.91132659639E+02 0.  0.
        -24    2    1    2    0    0  0.38620471859E+02 -0.13950705265E+02 -0.58344328173E+02  0.10905218276E+03  0.82475177538E+02 0.  0.
         11    1    4    4    0    0  0.38444270928E+02 -0.44159507936E+02 -0.23906203059E+02  0.63241842581E+02  0.00000000000E+00 0. -1.
        -12    1    4    4    0    0  0.17620093080E+00  0.30208802671E+02 -0.34438125115E+02  0.45810340176E+02  0.00000000000E+00 0.  1.
        -11    1    3    3    0    0  0.21123374632E+01 -0.45920038759E+02  0.37313882399E+02  0.59206737361E+02  0.00000000000E+00 0. -1.
         11    1    3    3    0    0  0.79290875295E+01  0.44231022335E+02  0.53235475611E+02  0.69665412002E+02  0.00000000000E+00 0.  1.
          4    1    1    2  501    0 -0.48661896852E+02  0.15639721689E+02  0.65743325245E+02  0.83275241902E+02  0.00000000000E+00 0. -1.
<scales pt_clust_5="13000.00000" pt_clust_6="13000.00000" pt_clust_7="13000.00000" pt_clust_8="13000.00000" pt_clust_9="51.11344"></scales>
<clustering>
<clus scale="   51.113">  2  9  1 -1</clus>
<clus scale="   82.475">  5  6 -1 -1</clus>
<clus scale="   82.490">  2  5  1 -1</clus>
<clus scale="   91.133">  7  8 -1 -1</clus>
<clus scale="   51.113">  2  5  1 -1</clus>
</clustering>
</event>
<event>
 9    1  0.6270443E-005  0.1249046E+03  0.7546771E-02  0.1239884E+00
         21   -1    0    0  501  502  0.00000000000E+00  0.00000000000E+00  0.14721834695E+03  0.14721834695E+03  0.00000000000E+00 0. -1.
          3   -1    0    0  502    0 -0.00000000000E+00 -0.00000000000E+00 -0.16017761288E+03  0.16017761288E+03  0.00000000000E+00 0. -1.
        -24    2    1    2    0    0  0.12282577304E+01  0.96086137357E+02 -0.39673183949E+02  0.13508716981E+03  0.86258492410E+02 0.  0.
         23    2    1    2    0    0 -0.40985803728E+01 -0.38712846115E+02  0.36614498292E+02  0.11401681125E+03  0.10071608088E+03 0.  0.
         11    1    3    3    0    0 -0.35033895739E+02  0.83619629854E+02 -0.30557667801E+02  0.95673336980E+02  0.00000000000E+00 0. -1.
        -12    1    3    3    0    0  0.36262153469E+02  0.12466507503E+02 -0.91155161476E+01  0.39413832828E+02  0.00000000000E+00 0.  1.
        -13    1    4    4    0    0 -0.46398825483E+02 -0.44757090827E+02  0.28668186930E+02  0.70554327488E+02  0.00000000000E+00 0. -1.
         13    1    4    4    0    0  0.42300245110E+02  0.60442447120E+01  0.79463113622E+01  0.43462483762E+02  0.00000000000E+00 0.  1.
          4    1    1    2  501    0  0.28703226423E+01 -0.57373291242E+02 -0.99005802711E+01  0.58291978777E+02  0.00000000000E+00 0. -1.
<scales pt_clust_5="13000.00000" pt_clust_6="13000.00000" pt_clust_7="13000.00000" pt_clust_8="13000.00000" pt_clust_9="57.44507"></scales>
<clustering>
<clus scale="   57.445">  1  9  2 -1</clus>
<clus scale="   86.258">  5  6 -1 -1</clus>
<clus scale="  100.716">  7  8 -1 -1</clus>
<clus scale="  113.569">  2  5  1 -1</clus>
<clus scale="   57.445">  1  5  2 -1</clus>
</clustering>
</event>
<event>
 9    1  0.6270443E-005  0.1438191E+03  0.7546771E-02  0.1210408E+00
          1   -1    0    0  502    0 -0.00000000000E+00  0.00000000000E+00  0.45396474379E+03  0.45396474379E+03  0.00000000000E+00 0. -1.
         21   -1    0    0  501  502  0.00000000000E+00 -0.00000000000E+00 -0.10956090230E+03  0.10956090230E+03  0.00000000000E+00 0. -1.
        -24    2    1    2    0    0  0.57665726940E+02 -0.10988441057E+03  0.12898391608E+03  0.19639139989E+03  0.80825810173E+02 0.  0.
         23    2    1    2    0    0 -0.71148407238E+02  0.54464968553E+02 -0.15898524153E+02  0.12888789821E+03  0.91273208464E+02 0.  0.
         13    1    3    3    0    0  0.68569337809E+02 -0.11658773827E+03  0.11909848814E+03  0.18021904638E+03  0.00000000000E+00 0. -1.
        -14    1    3    3    0    0 -0.10903610869E+02  0.67033276955E+01  0.98854279489E+01  0.16172353505E+02  0.00000000000E+00 0.  1.
        -13    1    4    4    0    0 -0.76302241856E+02  0.12032217700E+02 -0.31450150600E+02  0.83402148341E+02  0.00000000000E+00 0.  1.
         13    1    4    4    0    0  0.51538346187E+01  0.42432750854E+02  0.15551626446E+02  0.45485749872E+02  0.00000000000E+00 0. -1.
          2    1    1    2  501    0  0.13482680298E+02  0.55419442020E+02  0.23131844956E+03  0.23824634798E+03  0.00000000000E+00 0. -1.
<scales pt_clust_5="13000.00000" pt_clust_6="13000.00000" pt_clust_7="13000.00000" pt_clust_8="13000.00000" pt_clust_9="57.03596"></scales>
<clustering>
<clus scale="   57.036">  2  9  1 -1</clus>
<clus scale="   80.826">  5  6 -1 -1</clus>
<clus scale="   91.273">  7  8 -1 -1</clus>
<clus scale="  137.426">  1  5  2 -1</clus>
<clus scale="   57.036">  2  5  1 -1</clus>
</clustering>
</event>
<event>
 9    1  0.6270443E-005  0.1710249E+03  0.7546771E-02  0.1177989E+00
         21   -1    0    0  501  502  0.00000000000E+00  0.00000000000E+00  0.32483858011E+03  0.32483858011E+03  0.00000000000E+00 0. -1.
          1   -1    0    0  502    0 -0.00000000000E+00 -0.00000000000E+00 -0.16560133956E+03  0.16560133956E+03  0.00000000000E+00 0. -1.
         23    2    1    2    0    0 -0.96134401647E+02 -0.11918779229E+03 -0.75240596474E+02  0.19232127558E+03  0.88762450809E+02 0.  0.
        -24    2    1    2    0    0  0.84770570897E+02  0.84173456269E+02  0.20824558108E+03  0.25291608190E+03  0.79555653572E+02 0.  0.
         13    1    4    4    0    0  0.66079807988E+02  0.81988895187E+02  0.20905740782E+03  0.23408058383E+03  0.00000000000E+00 0. -1.
        -14    1    4    4    0    0  0.18690762909E+02  0.21845610827E+01 -0.81182674237E+00  0.18835498079E+02  0.00000000000E+00 0.  1.
        -11    1    3    3    0    0 -0.14315211918E+02 -0.36652154723E+02 -0.64570224005E+02  0.75614942744E+02  0.00000000000E+00 0.  1.
         11    1    3    3    0    0 -0.81819189729E+02 -0.82535637563E+02 -0.10670372468E+02  0.11670633284E+03  0.00000000000E+00 0. -1.
          2    1    1    2  501    0  0.11363830750E+02  0.35014336017E+02  0.26232255947E+02  0.45202562185E+02  0.00000000000E+00 0. -1.
<scales pt_clust_5="13000.00000" pt_clust_6="13000.00000" pt_clust_7="13000.00000" pt_clust_8="13000.00000" pt_clust_9="36.81223"></scales>
<clustering>
<clus scale="   36.812">  1  9  2 -1</clus>
<clus scale="   79.556">  5  6 -1 -1</clus>
<clus scale="   88.762">  7  8 -1 -1</clus>
<clus scale="  166.433">  1  5  2 -1</clus>
<clus scale="   36.812">  1  5  2 -1</clus>
</clustering>
</event>
<event>
 9    1  0.6270443E-005  0.1168133E+03  0.7546771E-02  0.1251627E+00
         21   -1    0    0  501  502  0.00000000000E+00  0.00000000000E+00  0.15299458833E+03  0.15299458833E+03  0.00000000000E+00 0.  1.
         -4   -1    0    0    0  501 -0.00000000000E+00 -0.00000000000E+00 -0.19101137000E+03  0.19101137000E+03  0.00000000000E+00 0.  1.
        -24    2    1    2    0    0  0.44442685024E+02  0.56195938921E+02 -0.67133452284E+02  0.12628804820E+03  0.79426915463E+02 0.  0.
         23    2    1    2    0    0 -0.42602062734E+02 -0.82465049268E+02  0.86195430038E+02  0.15485743904E+03  0.89082850006E+02 0.  0.
         11    1    3    3    0    0  0.40704321525E+02  0.70194847486E+02 -0.74390991264E+02  0.11008259620E+03  0.00000000000E+00 0. -1.
        -12    1    3    3    0    0  0.37383634986E+01 -0.13998908565E+02  0.72575389796E+01  0.16205452005E+02  0.00000000000E+00 0.  1.
        -13    1    4    4    0    0  0.36188882619E-01 -0.74379882366E+02  0.82836673264E+02  0.11132961263E+03  0.00000000000E+00 0.  1.
         13    1    4    4    0    0 -0.42638251616E+02 -0.80851669021E+01  0.33587567746E+01  0.43527826408E+02  0.00000000000E+00 0. -1.
         -3    1    1    2    0  502 -0.18406222902E+01  0.26269110347E+02 -0.57078759424E+02  0.62860471095E+02  0.00000000000E+00 0.  1.
<scales pt_clust_5="13000.00000" pt_clust_6="13000.00000" pt_clust_7="13000.00000" pt_clust_8="13000.00000" pt_clust_9="26.33353"></scales>
<clustering>
<clus scale="   26.334">  1  9  2 -1</clus>
<clus scale="   79.427">  5  6 -1 -1</clus>
<clus scale="   89.083">  7  8 -1 -1</clus>
<clus scale="  109.628">  2  5  1 -1</clus>
<clus scale="   26.334">  1  5  2 -1</clus>
</clustering>
</event>
<event>
 9    1  0.6270443E-005  0.2671947E+03  0.7546771E-02  0.1132113E+00
          1   -1    0    0  502    0 -0.00000000000E+00  0.00000000000E+00  0.27041152486E+04  0.27041152486E+04  0.00000000000E+00 0. -1.
         21   -1    0    0  501  502  0.00000000000E+00 -0.00000000000E+00 -0.55104706876E+02  0.55104706876E+02  0.00000000000E+00 0. -1.
         23    2    1    2    0    0  0.35973130184E+02 -0.82010081584E+02  0.15358446209E+03  0.20007770462E+03  0.91777891210E+02 0.  0.
        -24    2    1    2    0    0 -0.25108602841E+03  0.11574600708E+03  0.80665962727E+03  0.85639629145E+03  0.79205567438E+02 0.  0.
         11    1    4    4    0    0 -0.16849368964E+03  0.46120248187E+02  0.57168763151E+03  0.59778252631E+03  0.00000000000E+00 0. -1.
        -12    1    4    4    0    0 -0.82592338769E+02  0.69625758889E+02  0.23497199577E+03  0.25861376514E+03  0.00000000000E+00 0.  1.
        -11    1    3    3    0    0  0.42278124832E+02 -0.39370532973E+01  0.24316485263E+02  0.48930886805E+02  0.00000000000E+00 0.  1.
         11    1    3    3    0    0 -0.63049946490E+01 -0.78073028286E+02  0.12926797683E+03  0.15114681782E+03  0.00000000000E+00 0. -1.
          2    1    1    2  501    0  0.21511289823E+03 -0.33735925492E+02  0.16887664524E+04  0.17027459594E+04  0.00000000000E+00 0. -1.
<scales pt_clust_5="13000.00000" pt_clust_6="13000.00000" pt_clust_7="13000.00000" pt_clust_8="13000.00000" pt_clust_9="255.18536"></scales>
<clustering>
<clus scale="   79.206">  5  6 -1 -1</clus>
<clus scale="   91.778">  7  8 -1 -1</clus>
<clus scale="  128.230">  1  7  2 -1</clus>
<clus scale="  255.185">  2  9  1 -1</clus>
<clus scale="  255.185">  2  5  1 -1</clus>
</clustering>
</event>
<event>
 9    1  0.6270443E-005  0.1842691E+03  0.7546771E-02  0.1188646E+00
          1   -1    0    0  502    0 -0.00000000000E+00  0.00000000000E+00  0.14520955241E+03  0.14520955241E+03  0.00000000000E+00 0. -1.
         21   -1    0    0  501  502  0.00000000000E+00 -0.00000000000E+00 -0.11259232715E+04  0.11259232715E+04  0.00000000000E+00 0. -1.
         23    2    1    2    0    0  0.41030054026E+02  0.37826975579E+02  0.69081404053E+02  0.12557009278E+03  0.88776474360E+02 0.  0.
        -24    2    1    2    0    0  0.15512103508E+02 -0.17085224857E+03 -0.95261537632E+03  0.97138855960E+03  0.81783631201E+02 0.  0.
         13    1    4    4    0    0  0.17581640980E+02 -0.17654066825E+03 -0.83608288143E+03  0.85469895651E+03  0.00000000000E+00 0. -1.
        -14    1    4    4    0    0 -0.20695374727E+01  0.56884196860E+01 -0.11653249489E+03  0.11668960309E+03  0.00000000000E+00 0.  1.
        -13    1    3    3    0    0 -0.15070222330E+02  0.35269212901E+02  0.56055103515E+02  0.67920568386E+02  0.00000000000E+00 0.  1.
         13    1    3    3    0    0  0.56100276356E+02  0.25577626778E+01  0.13026300538E+02  0.57649524394E+02  0.00000000000E+00 0. -1.
          2    1    1    2  501    0 -0.56542157533E+02  0.13302527299E+03 -0.97179746828E+02  0.17417417152E+03  0.00000000000E+00 0. -1.
<scales pt_clust_5="13000.00000" pt_clust_6="13000.00000" pt_clust_7="13000.00000" pt_clust_8="13000.00000" pt_clust_9="165.12587"></scales>
<clustering>
<clus scale="   81.784">  5  6 -1 -1</clus>
<clus scale="   88.776">  7  8 -1 -1</clus>
<clus scale="  104.860">  1  7  2 -1</clus>
<clus scale="  165.126">  2  9  1 -1</clus>
<clus scale="  165.126">  2  5  1 -1</clus>
</clustering>
</event>
<event>
 9    1  0.6270443E-005  0.1693161E+03  0.7546771E-02  0.1180041E+00
          1   -1    0    0  502    0 -0.00000000000E+00  0.00000000000E+00  0.69259819514E+03  0.69259819514E+03  0.00000000000E+00 0. -1.
         21   -1    0    0  501  502  0.00000000000E+00 -0.00000000000E+00 -0.23125625217E+03  0.23125625217E+03  0.00000000000E+00 0. -1.
        -24    2    1    2    0    0 -0.27856375731E+02 -0.14741174453E+03  0.47583391174E+03  0.50518512379E+03  0.79296264992E+02 0.  0.
         23    2    1    2    0    0  0.13093096293E+03  0.88846443791E+02  0.13584894927E+03  0.22721004164E+03  0.90182361778E+02 0.  0.
         11    1    3    3    0    0 -0.14556740370E+02 -0.82253426251E+02  0.37643486765E+03  0.38559140862E+03  0.00000000000E+00 0. -1.
        -12    1    3    3    0    0 -0.13299635361E+02 -0.65158318277E+02  0.99399044092E+02  0.11959371517E+03  0.00000000000E+00 0.  1.
        -13    1    4    4    0    0 -0.37108943101E+01  0.26048658602E+02  0.47659980743E+02  0.54440583355E+02  0.00000000000E+00 0.  1.
         13    1    4    4    0    0  0.13464185724E+03  0.62797785190E+02  0.88188968524E+02  0.17276945829E+03  0.00000000000E+00 0. -1.
          2    1    1    2  501    0 -0.10307458720E+03  0.58565300737E+02 -0.15034091805E+03  0.19145928188E+03  0.00000000000E+00 0. -1.
<scales pt_clust_5="13000.00000" pt_clust_6="13000.00000" pt_clust_7="13000.00000" pt_clust_8="13000.00000" pt_clust_9="118.55069"></scales>
<clustering>
<clus scale="   79.296">  5  6 -1 -1</clus>
<clus scale="   90.182">  7  8 -1 -1</clus>
<clus scale="  118.551">  2  9  1 -1</clus>
<clus scale="  163.777">  1  5  2 -1</clus>
<clus scale="  118.551">  2  5  1 -1</clus>
</clustering>
</event>
<event>
 9    1  0.6270443E-005  0.2281668E+03  0.7546771E-02  0.1160236E+00
          1   -1    0    0  502    0 -0.00000000000E+00  0.00000000000E+00  0.17007199817E+04  0.17007199817E+04  0.00000000000E+00 0. -1.
         21   -1    0    0  501  502  0.00000000000E+00 -0.00000000000E+00 -0.59798461099E+02  0.59798461099E+02  0.00000000000E+00 0. -1.
         23    2    1    2    0    0 -0.20989192076E+02  0.49269881243E+02  0.17400709460E+03  0.20337080283E+03  0.90626414982E+02 0.  0.
        -24    2    1    2    0    0 -0.18587955456E+02 -0.24915661949E+03  0.11563366323E+04  0.11856915528E+04  0.79533125857E+02 0.  0.
         11    1    4    4    0    0  0.17285994085E+01 -0.23853401757E+03  0.10775317927E+04  0.11036196038E+04  0.00000000000E+00 0. -1.
        -12    1    4    4    0    0 -0.20316554865E+02 -0.10622601918E+02  0.78804839615E+02  0.82071949044E+02  0.00000000000E+00 0.  1.
        -13    1    3    3    0    0 -0.47056658193E+02  0.27323292235E+02  0.47096483779E+02  0.71965062101E+02  0.00000000000E+00 0.  1.
         13    1    3    3    0    0  0.26067466116E+02  0.21946589008E+02  0.12691061082E+03  0.13140574073E+03  0.00000000000E+00 0. -1.
          2    1    1    2  501    0  0.39577147533E+02  0.19988673825E+03  0.31057779368E+03  0.37145608712E+03  0.00000000000E+00 0. -1.
<scales pt_clust_5="13000.00000" pt_clust_6="13000.00000" pt_clust_7="13000.00000" pt_clust_8="13000.00000" pt_clust_9="213.85643"></scales>
<clustering>
<clus scale="   79.533">  5  6 -1 -1</clus>
<clus scale="   90.626">  7  8 -1 -1</clus>
<clus scale="  105.267">  1  7  2 -1</clus>
<clus scale="  213.856">  2  9  1 -1</clus>
<clus scale="  213.856">  2  5  1 -1</clus>
</clustering>
</event>
<event>
 9    1  0.6270443E-005  0.1170442E+03  0.7546771E-02  0.1253951E+00
         21   -1    0    0  501  502  0.00000000000E+00  0.00000000000E+00  0.21916625270E+03  0.21916625270E+03  0.00000000000E+00 0.  1.
          1   -1    0    0  502    0 -0.00000000000E+00 -0.00000000000E+00 -0.25366054355E+03  0.25366054355E+03  0.00000000000E+00 0. -1.
         23    2    1    2    0    0 -0.31847128384E+02  0.70698806955E+02 -0.21974271540E+03  0.24987176012E+03  0.90202409303E+02 0.  0.
        -24    2    1    2    0    0  0.35618513600E+02 -0.36487244895E+02  0.12038374885E+03  0.14952424912E+03  0.72562087472E+02 0.  0.
         11    1    4    4    0    0 -0.45775527725E+01 -0.37704458790E+02  0.23594890082E+02  0.44713521892E+02  0.00000000000E+00 0. -1.
        -12    1    4    4    0    0  0.40196066373E+02  0.12172138956E+01  0.96788858767E+02  0.10481072723E+03  0.00000000000E+00 0.  1.
        -13    1    3    3    0    0  0.94378520831E+01  0.73238981518E+02 -0.16883936886E+03  0.18428172438E+03  0.00000000000E+00 0. -1.
         13    1    3    3    0    0 -0.41284980467E+02 -0.25401745628E+01 -0.50903346546E+02  0.65590035742E+02  0.00000000000E+00 0.  1.
          2    1    1    2  501    0 -0.37713852161E+01 -0.34211562061E+02  0.64864675707E+02  0.73430787001E+02  0.00000000000E+00 0. -1.
<scales pt_clust_5="13000.00000" pt_clust_6="13000.00000" pt_clust_7="13000.00000" pt_clust_8="13000.00000" pt_clust_9="34.41881"></scales>
<clustering>
<clus scale="   34.419">  1  9  2 -1</clus>
<clus scale="   72.562">  5  6 -1 -1</clus>
<clus scale="   90.202">  7  8 -1 -1</clus>
<clus scale="  104.058">  1  5  2 -1</clus>
<clus scale="   34.419">  1  5  2 -1</clus>
</clustering>
</event>
<event>
 9    1  0.6270443E-005  0.1940217E+03  0.7546771E-02  0.1173019E+00
         21   -1    0    0  501  502  0.00000000000E+00  0.00000000000E+00  0.38221154866E+03  0.38221154866E+03  0.00000000000E+00 0. -1.
          3   -1    0    0  502    0 -0.00000000000E+00 -0.00000000000E+00 -0.17919932557E+03  0.17919932557E+03  0.00000000000E+00 0. -1.
        -24    2    1    2    0    0 -0.61789691736E+02  0.77918205832E+02  0.10891341089E+03  0.16774141118E+03  0.79911433163E+02 0.  0.
         23    2    1    2    0    0 -0.10244809479E+03  0.54014873134E+02 -0.29041762969E+02  0.14965309248E+03  0.90218653549E+02 0.  0.
         13    1    3    3    0    0 -0.36551109956E+02  0.90620015548E+02  0.72607844087E+02  0.12173688792E+03  0.00000000000E+00 0. -1.
        -14    1    3    3    0    0 -0.25238581780E+02 -0.12701809716E+02  0.36305566800E+02  0.46004523267E+02  0.00000000000E+00 0.  1.
        -13    1    4    4    0    0  0.14568469627E+01  0.27179276176E+02 -0.32363225341E+02  0.42287277176E+02  0.00000000000E+00 0.  1.
         13    1    4    4    0    0 -0.10390494175E+03  0.26835596959E+02  0.33214623716E+01  0.10736581531E+03  0.00000000000E+00 0. -1.
          4    1    1    2  501    0  0.16423778653E+03 -0.13193307897E+03  0.12314057517E+03  0.24401637056E+03  0.00000000000E+00 0. -1.
<scales pt_clust_5="13000.00000" pt_clust_6="13000.00000" pt_clust_7="13000.00000" pt_clust_8="13000.00000" pt_clust_9="171.77028"></scales>
<clustering>
<clus scale="   79.911">  5  6 -1 -1</clus>
<clus scale="   90.219">  7  8 -1 -1</clus>
<clus scale="  127.574">  2  5  1 -1</clus>
<clus scale="  171.770">  1  9  2 -1</clus>
<clus scale="  171.770">  1  5  2 -1</clus>
</clustering>
</event>
<event>
 9    1  0.6270443E-005  0.1677396E+03  0.7546771E-02  0.1199330E+00
          1   -1    0    0  502    0 -0.00000000000E+00  0.00000000000E+00  0.10374316206E+04  0.10374316206E+04  0.00000000000E+00 0. -1.
         21   -1    0    0  501  502  0.00000000000E+00 -0.00000000000E+00 -0.58946739869E+02  0.58946739869E+02  0.00000000000E+00 0. -1.
        -24    2    1    2    0    0 -0.45277151640E+02 -0.52466709720E+02  0.95962371010E+02  0.14594680313E+03  0.85375152143E+02 0.  0.
         23    2    1    2    0    0 -0.83970551744E+02  0.11578097515E+03  0.68693708978E+03  0.70759967819E+03  0.91424567217E+02 0.  0.
         13    1    3    3    0    0 -0.32123072934E+02 -0.75104472934E+02  0.83974930905E+02  0.11715102513E+03  0.00000000000E+00 0. -1.
        -14    1    3    3    0    0 -0.13154078706E+02  0.22637763214E+02  0.11987440106E+02  0.28795777993E+02  0.00000000000E+00 0.  1.
        -11    1    4    4    0    0 -0.92038239230E+02  0.59656130486E+02  0.51514975731E+03  0.52669646272E+03  0.00000000000E+00 0. -1.
         11    1    4    4    0    0  0.80676874861E+01  0.56124844664E+02  0.17178733247E+03  0.18090321547E+03  0.00000000000E+00 0.  1.
          2    1    1    2  501    0  0.12924770338E+03 -0.63314265429E+02  0.19558541991E+03  0.24283187912E+03  0.00000000000E+00 0. -1.
<scales pt_clust_5="13000.00000" pt_clust_6="13000.00000" pt_clust_7="13000.00000" pt_clust_8="13000.00000" pt_clust_9="140.63468"></scales>
<clustering>
<clus scale="   85.375">  5  6 -1 -1</clus>
<clus scale="   91.425">  7  8 -1 -1</clus>
<clus scale="  109.962">  1  5  2 -1</clus>
<clus scale="  140.635">  2  9  1 -1</clus>
<clus scale="  140.635">  2  5  1 -1</clus>
</clustering>
</event>
<event>
 9    1  0.6270443E-005  0.1231910E+03  0.7546771E-02  0.1244269E+00
         21   -1    0    0  501  502  0.00000000000E+00  0.00000000000E+00  0.44920904571E+02  0.44920904571E+02  0.00000000000E+00 0. -1.
          3   -1    0    0  502    0 -0.00000000000E+00 -0.00000000000E+00 -0.79693697552E+03  0.79693697552E+03  0.00000000000E+00 0. -1.
        -24    2    1    2    0    0 -0.58809913463E+02 -0.82212548588E+02 -0.43825468239E+03  0.45492993137E+03  0.68385427991E+02 0.  0.
         23    2    1    2    0    0  0.48095892888E+02 -0.68018262226E+01 -0.61997448296E+02  0.11967632425E+03  0.90106932245E+02 0.  0.
         13    1    3    3    0    0  0.10877932874E+02 -0.37960945890E+02 -0.14300622757E+03  0.14835816108E+03  0.00000000000E+00 0. -1.
        -14    1    3    3    0    0 -0.69687846337E+02 -0.44251602698E+02 -0.29524845481E+03  0.30657177029E+03  0.00000000000E+00 0.  1.
        -13    1    4    4    0    0  0.44673782502E+02 -0.27021155030E+02 -0.77863961919E+02  0.93747993194E+02  0.00000000000E+00 0.  1.
         13    1    4    4    0    0  0.34221103862E+01  0.20219328807E+02  0.15866513623E+02  0.25928331058E+02  0.00000000000E+00 0. -1.
          4    1    1    2  501    0  0.10714020574E+02  0.89014374811E+02 -0.25176394027E+03  0.26725162447E+03  0.00000000000E+00 0. -1.
<scales pt_clust_5="13000.00000" pt_clust_6="13000.00000" pt_clust_7="13000.00000" pt_clust_8="13000.00000" pt_clust_9="89.65689"></scales>
<clustering>
<clus scale="   68.385">  5  6 -1 -1</clus>
<clus scale="   89.657">  1  9  2 -1</clus>
<clus scale="   90.107">  7  8 -1 -1</clus>
<clus scale="  108.320">  2  5  1 -1</clus>
<clus scale="   89.657">  1  5  2 -1</clus>
</clustering>
</event>
<event>
 9    1  0.6270443E-005  0.1722546E+03  0.7546771E-02  0.1206527E+00
         21   -1    0    0  501  502  0.00000000000E+00  0.00000000000E+00  0.12295264457E+03  0.12295264457E+03  0.00000000000E+00 0. -1.
          1   -1    0    0  502    0 -0.00000000000E+00 -0.00000000000E+00 -0.51183735330E+03  0.51183735330E+03  0.00000000000E+00 0. -1.
        -24    2    1    2    0    0 -0.22817618769E+02  0.23164446609E+02 -0.47281604255E+02  0.98941188503E+02  0.80601323615E+02 0.  0.
         23    2    1    2    0    0 -0.64101251978E+02  0.98113898543E+02 -0.35550997396E+03  0.38599311840E+03  0.94170262185E+02 0.  0.
         11    1    3    3    0    0 -0.30137292151E+02  0.49894113143E+02 -0.38551595968E+02  0.69884937263E+02  0.00000000000E+00 0. -1.
        -12    1    3    3    0    0  0.73196733818E+01 -0.26729666534E+02 -0.87300082869E+01  0.29056251240E+02  0.00000000000E+00 0.  1.
        -13    1    4    4    0    0 -0.74226790325E+02  0.53014239080E+02 -0.15173297997E+03  0.17703960901E+03  0.00000000000E+00 0.  1.
         13    1    4    4    0    0  0.10125538347E+02  0.45099659463E+02 -0.20377699399E+03  0.20895350940E+03  0.00000000000E+00 0. -1.
          2    1    1    2  501    0  0.86918870747E+02 -0.12127834515E+03  0.13906869474E+02  0.14985569096E+03  0.00000000000E+00 0. -1.
<scales pt_clust_5="13000.00000" pt_clust_6="13000.00000" pt_clust_7="13000.00000" pt_clust_8="13000.00000" pt_clust_9="144.23455"></scales>
<clustering>
<clus scale="   80.601">  5  6 -1 -1</clus>
<clus scale="   86.913">  2  5  1 -1</clus>
<clus scale="   94.170">  7  8 -1 -1</clus>
<clus scale="  144.235">  1  9  2 -1</clus>
<clus scale="  144.235">  1  5  2 -1</clus>
</clustering>
</event>
<event>
 9    1  0.6270443E-005  0.2348418E+03  0.7546771E-02  0.1123921E+00
          1   -1    0    0  502    0 -0.00000000000E+00  0.00000000000E+00  0.52114082085E+03  0.52114082085E+03  0.00000000000E+00 0. -1.
         21   -1    0    0  501  502  0.00000000000E+00 -0.00000000000E+00 -0.24175660635E+03  0.24175660635E+03  0.00000000000E+00 0. -1.
        -24    2    1    2    0    0 -0.37194531791E+02  0.22300332017E+03  0.29643413209E+03  0.38132731889E+03  0.80146213044E+02 0.  0.
         23    2    1    2    0    0 -0.99517981941E+02 -0.19963431187E+03  0.72165008219E+01  0.24076783196E+03  0.90329307643E+02 0.  0.
         11    1    3    3    0    0 -0.51227947854E+02  0.91819417217E+02  0.10302331548E+03  0.14720363974E+03  0.00000000000E+00 0. -1.
        -12    1    3    3    0    0  0.14033416064E+02  0.13118390295E+03  0.19341081661E+03  0.23412367916E+03  0.00000000000E+00 0.  1.
        -11    1    4    4    0    0 -0.27042678808E+02 -0.38735073686E+02  0.39245494151E+02  0.61415968784E+02  0.00000000000E+00 0.  1.
         11    1    4    4    0    0 -0.72475303133E+02 -0.16089923818E+03 -0.32028993329E+02  0.17935186318E+03  0.00000000000E+00 0. -1.
          2    1    1    2  501    0  0.13671251373E+03 -0.23369008297E+02 -0.24266418416E+02  0.14080227634E+03  0.00000000000E+00 0. -1.
<scales pt_clust_5="13000.00000" pt_clust_6="13000.00000" pt_clust_7="13000.00000" pt_clust_8="13000.00000" pt_clust_9="138.69543"></scales>
<clustering>
<clus scale="   80.146">  5  6 -1 -1</clus>
<clus scale="   90.329">  7  8 -1 -1</clus>
<clus scale="  138.695">  2  9  1 -1</clus>
<clus scale="  231.116">  1  5  2 -1</clus>
<clus scale="  138.695">  2  5  1 -1</clus>
</clustering>
</event>
<event>
 9    1  0.6270443E-005  0.1011277E+03  0.7546771E-02  0.1283425E+00
         -4   -1    0    0    0  501 -0.00000000000E+00  0.00000000000E+00  0.25439284727E+03  0.25439284727E+03  0.00000000000E+00 0.  1.
         21   -1    0    0  501  502  0.00000000000E+00 -0.00000000000E+00 -0.77824257351E+02  0.77824257351E+02  0.00000000000E+00 0.  1.
        -24    2    1    2    0    0 -0.13722486793E+02  0.28397511965E+02  0.87726002428E+02  0.12391395865E+03  0.81633891955E+02 0.  0.
         23    2    1    2    0    0  0.19233980383E+02 -0.65790331664E+02  0.39041921052E+01  0.11533470758E+03  0.92674367088E+02 0.  0.
         13    1    3    3    0    0  0.15661618104E+02 -0.14991860271E+02 -0.55609056910E-01  0.21680526940E+02  0.00000000000E+00 0. -1.
        -14    1    3    3    0    0 -0.29384104897E+02  0.43389372236E+02  0.87781611484E+02  0.10223343171E+03  0.00000000000E+00 0.  1.
        -11    1    4    4    0    0 -0.31766263139E+02 -0.52910896401E+02  0.94816966462E+01  0.62438457725E+02  0.00000000000E+00 0.  1.
         11    1    4    4    0    0  0.51000243522E+02 -0.12879435263E+02 -0.55775045410E+01  0.52896249857E+02  0.00000000000E+00 0. -1.
         -3    1    1    2    0  502 -0.55114935902E+01  0.37392819699E+02  0.84938395386E+02  0.92968438394E+02  0.00000000000E+00 0.  1.
<scales pt_clust_5="13000.00000" pt_clust_6="13000.00000" pt_clust_7="13000.00000" pt_clust_8="13000.00000" pt_clust_9="37.79684"></scales>
<clustering>
<clus scale="   37.797">  2  9  1 -1</clus>
<clus scale="   81.634">  5  6 -1 -1</clus>
<clus scale="   91.117">  1  5  2 -1</clus>
<clus scale="   92.674">  7  8 -1 -1</clus>
<clus scale="   37.797">  2  5  1 -1</clus>
</clustering>
</event>
<event>
 9    1  0.6270443E-005  0.1517628E+03  0.7546771E-02  0.1223287E+00
         -2   -1    0    0    0  501 -0.00000000000E+00  0.00000000000E+00  0.27759388233E+03  0.27759388233E+03  0.00000000000E+00 0.  1.
         21   -1    0    0  501  502  0.00000000000E+00 -0.00000000000E+00 -0.17510388055E+03  0.17510388055E+03  0.00000000000E+00 0.  1.
        -24    2    1    2    0    0 -0.26113338900E+02 -0.25623855817E+02  0.14843329806E+03  0.17312984201E+03  0.81258905767E+02 0.  0.
         23    2    1    2    0    0 -0.10632211147E+03  0.15550606241E+02 -0.66321171124E+01  0.14105442811E+03  0.91138103836E+02 0.  0.
         11    1    3    3    0    0 -0.21296724856E+02  0.27396351425E+02  0.45269898543E+02  0.57039234524E+02  0.00000000000E+00 0. -1.
        -12    1    3    3    0    0 -0.48166140435E+01 -0.53020207242E+02  0.10316339951E+03  0.11609060748E+03  0.00000000000E+00 0.  1.
        -11    1    4    4    0    0 -0.41928381361E+02 -0.36733018042E+02 -0.14890574830E+02  0.57697772893E+02  0.00000000000E+00 0.  1.
         11    1    4    4    0    0 -0.64393730105E+02  0.52283624283E+02  0.82584577173E+01  0.83356655216E+02  0.00000000000E+00 0. -1.
         -1    1    1    2    0  502  0.13243545037E+03  0.10073249576E+02 -0.39311179162E+02  0.13851349276E+03  0.00000000000E+00 0.  1.
<scales pt_clust_5="13000.00000" pt_clust_6="13000.00000" pt_clust_7="13000.00000" pt_clust_8="13000.00000" pt_clust_9="121.34982"></scales>
<clustering>
<clus scale="   81.259">  5  6 -1 -1</clus>
<clus scale="   89.115">  1  5  2 -1</clus>
<clus scale="   91.138">  7  8 -1 -1</clus>
<clus scale="  121.350">  2  9  1 -1</clus>
<clus scale="  121.350">  2  5  1 -1</clus>
</clustering>
</event>
<event>
 9    1  0.6270443E-005  0.9406254E+02  0.7546771E-02  0.1299671E+00
         21   -1    0    0  501  502  0.00000000000E+00  0.00000000000E+00  0.16443696355E+02  0.16443696355E+02  0.00000000000E+00 0.  1.
         -4   -1    0    0    0  501 -0.00000000000E+00 -0.00000000000E+00 -0.80251086030E+03  0.80251086030E+03  0.00000000000E+00 0.  1.
        -24    2    1    2    0    0 -0.25411189347E+02  0.37510715483E+01 -0.48898814144E+03  0.49619230772E+03  0.80234685117E+02 0.  0.
         23    2    1    2    0    0  0.95503745364E+01 -0.26323958836E+02 -0.19533789878E+03  0.21734708425E+03  0.91097200123E+02 0.  0.
         11    1    3    3    0    0 -0.13861297156E+02  0.36791484008E+02 -0.13884504503E+03  0.14430417660E+03  0.00000000000E+00 0. -1.
        -12    1    3    3    0    0 -0.11549892191E+02 -0.33040412460E+02 -0.35014309640E+03  0.35188813112E+03  0.00000000000E+00 0.  1.
        -11    1    4    4    0    0  0.41742423079E+02 -0.40375257261E+02 -0.14271384540E+03  0.15407736028E+03  0.00000000000E+00 0. -1.
         11    1    4    4    0    0 -0.32192048542E+02  0.14051298424E+02 -0.52624053380E+02  0.63269723967E+02  0.00000000000E+00 0.  1.
         -3    1    1    2    0  502  0.15860814811E+02  0.22572887288E+02 -0.10174112373E+03  0.10541516468E+03  0.00000000000E+00 0.  1.
<scales pt_clust_5="13000.00000" pt_clust_6="13000.00000" pt_clust_7="13000.00000" pt_clust_8="13000.00000" pt_clust_9="27.58807"></scales>
<clustering>
<clus scale="   27.588">  1  9  2 -1</clus>
<clus scale="   80.235">  5  6 -1 -1</clus>
<clus scale="   83.586">  2  5  1 -1</clus>
<clus scale="   91.097">  7  8 -1 -1</clus>
<clus scale="   27.588">  1  5  2 -1</clus>
</clustering>
</event>
<event>
 9    1  0.6270443E-005  0.9632382E+02  0.7546771E-02  0.1298424E+00
          3   -1    0    0  502    0 -0.00000000000E+00  0.00000000000E+00  0.20201678628E+03  0.20201678628E+03  0.00000000000E+00 0. -1.
         21   -1    0    0  501  502  0.00000000000E+00 -0.00000000000E+00 -0.62161366795E+02  0.62161366795E+02  0.00000000000E+00 0. -1.
        -24    2    1    2    0    0 -0.15539909711E+02 -0.47561429677E+01  0.84084273774E+02  0.11532123521E+03  0.77231551232E+02 0.  0.
         23    2    1    2    0    0  0.24107592431E+02 -0.29359933853E+02  0.49588049092E+02  0.11314217904E+03  0.94334491770E+02 0.  0.
         11    1    3    3    0    0 -0.21387348971E+02  0.32593767781E+02  0.29337789687E+02  0.48790145500E+02  0.00000000000E+00 0. -1.
        -12    1    3    3    0    0  0.58474392606E+01 -0.37349910748E+02  0.54746484086E+02  0.66531089715E+02  0.00000000000E+00 0.  1.
        -13    1    4    4    0    0  0.55352453760E+02 -0.50595080371E+01  0.48142426359E+02  0.73533570392E+02  0.00000000000E+00 0.  1.
         13    1    4    4    0    0 -0.31244861329E+02 -0.24300425815E+02  0.14456227332E+01  0.39608608653E+02  0.00000000000E+00 0. -1.
          4    1    1    2  501    0 -0.85676827201E+01  0.34116076820E+02  0.61830966175E+01  0.35714738814E+02  0.00000000000E+00 0. -1.
<scales pt_clust_5="13000.00000" pt_clust_6="13000.00000" pt_clust_7="13000.00000" pt_clust_8="13000.00000" pt_clust_9="35.17544"></scales>
<clustering>
<clus scale="   35.175">  2  9  1 -1</clus>
<clus scale="   77.232">  5  6 -1 -1</clus>
<clus scale="   79.649">  1  5  2 -1</clus>
<clus scale="   94.334">  7  8 -1 -1</clus>
<clus scale="   35.175">  2  5  1 -1</clus>
</clustering>
</event>
<event>
 9    1  0.6270443E-005  0.1846669E+03  0.7546771E-02  0.1198341E+00
         -2   -1    0    0    0  501 -0.00000000000E+00  0.00000000000E+00  0.10346447368E+03  0.10346447368E+03  0.00000000000E+00 0.  1.
         21   -1    0    0  501  502  0.00000000000E+00 -0.00000000000E+00 -0.77002848755E+03  0.77002848755E+03  0.00000000000E+00 0.  1.
        -24    2    1    2    0    0 -0.53542904677E+01 -0.23714254401E+02 -0.40394472788E+02  0.93391745303E+02  0.80618052387E+02 0.  0.
         23    2    1    2    0    0 -0.64522922990E+02  0.15139057345E+03 -0.60442278164E+03  0.63293807872E+03  0.90561576857E+02 0.  0.
         11    1    3    3    0    0 -0.26364977340E+02  0.50740539361E+01 -0.49760340739E+02  0.56541573767E+02  0.00000000000E+00 0. -1.
        -12    1    3    3    0    0  0.21010686872E+02 -0.28788308337E+02  0.93658679513E+01  0.36850171536E+02  0.00000000000E+00 0.  1.
        -13    1    4    4    0    0 -0.85823610020E+02  0.13850746971E+03 -0.52574517001E+03  0.55041620160E+03  0.00000000000E+00 0.  1.
         13    1    4    4    0    0  0.21300687030E+02  0.12883103743E+02 -0.78677611638E+02  0.82521877118E+02  0.00000000000E+00 0. -1.
         -1    1    1    2    0  502  0.69877213458E+02 -0.12767631905E+03 -0.21746759434E+02  0.14716313721E+03  0.00000000000E+00 0.  1.
<scales pt_clust_5="13000.00000" pt_clust_6="13000.00000" pt_clust_7="13000.00000" pt_clust_8="13000.00000" pt_clust_9="160.93634"></scales>
<clustering>
<clus scale="   80.618">  5  6 -1 -1</clus>
<clus scale="   84.204">  1  5  2 -1</clus>
<clus scale="   90.562">  7  8 -1 -1</clus>
<clus scale="  160.936">  2  9  1 -1</clus>
<clus scale="  160.936">  2  5  1 -1</clus>
</clustering>
</event>
<event>
 9    1  0.6270443E-005  0.2195401E+03  0.7546771E-02  0.1134226E+00
         21   -1    0    0  501  502  0.00000000000E+00  0.00000000000E+00  0.20659526939E+03  0.20659526939E+03  0.00000000000E+00 0. -1.
          3   -1    0    0  502    0 -0.00000000000E+00 -0.00000000000E+00 -0.13602187656E+03  0.13602187656E+03  0.00000000000E+00 0. -1.
        -24    2    1    2    0    0  0.29838684126E+02 -0.95007452727E+02  0.32290531902E+02  0.13140629015E+03  0.79423998232E+02 0.  0.
         23    2    1    2    0    0  0.49930531432E+01 -0.14208825888E+02  0.27132513586E+02  0.96033706673E+02  0.90881671480E+02 0.  0.
         11    1    3    3    0    0  0.33932704513E+02 -0.70796914960E+02  0.56654104953E+02  0.96815903711E+02  0.00000000000E+00 0. -1.
        -12    1    3    3    0    0 -0.40940203871E+01 -0.24210537768E+02 -0.24363573050E+02  0.34590386435E+02  0.00000000000E+00 0.  1.
        -11    1    4    4    0    0  0.34554532420E+02 -0.56499630145E+01  0.47587462956E+02  0.59080491056E+02  0.00000000000E+00 0.  1.
         11    1    4    4    0    0 -0.29561479277E+02 -0.85588628738E+01 -0.20454949369E+02  0.36953215617E+02  0.00000000000E+00 0. -1.
          4    1    1    2  501    0 -0.34831737269E+02  0.10921627862E+03  0.11150347341E+02  0.11517714913E+03  0.00000000000E+00 0. -1.
<scales pt_clust_5="13000.00000" pt_clust_6="13000.00000" pt_clust_7="13000.00000" pt_clust_8="13000.00000" pt_clust_9="114.63620"></scales>
<clustering>
<clus scale="   79.424">  5  6 -1 -1</clus>
<clus scale="   90.882">  7  8 -1 -1</clus>
<clus scale="   91.113">  5  7 -1 -1</clus>
<clus scale="  114.636">  1  9  2 -1</clus>
<clus scale="  114.636">  1  5  2 -1</clus>
</clustering>
</event>
<event>
 9    1  0.6270443E-005  0.1339579E+03  0.7546771E-02  0.1241609E+00
         21   -1    0    0  501  502  0.00000000000E+00  0.00000000000E+00  0.53026354090E+02  0.53026354090E+02  0.00000000000E+00 0. -1.
          1   -1    0    0  502    0 -0.00000000000E+00 -0.00000000000E+00 -0.65218187171E+03  0.65218187171E+03  0.00000000000E+00 0. -1.
        -24    2    1    2    0    0  0.33953022464E+02  0.13257418131E+02 -0.29676364061E+03  0.30979303763E+03  0.81083296107E+02 0.  0.
         23    2    1    2    0    0  0.39222410922E+01  0.81932624607E+02 -0.25315726468E+03  0.28175021169E+03  0.92553996021E+02 0.  0.
         11    1    3    3    0    0  0.48969055357E+02  0.24455835411E+02 -0.27778740656E+03  0.28312876843E+03  0.00000000000E+00 0. -1.
        -12    1    3    3    0    0 -0.15016032893E+02 -0.11198417280E+02 -0.18976234045E+02  0.26664269199E+02  0.00000000000E+00 0.  1.
        -13    1    4    4    0    0 -0.31819296131E+02 -0.77479141155E+00 -0.88564669394E+02  0.94110406294E+02  0.00000000000E+00 0.  1.
         13    1    4    4    0    0  0.35741537223E+02  0.82707416019E+02 -0.16459259528E+03  0.18763980540E+03  0.00000000000E+00 0. -1.
          2    1    1    2  501    0 -0.37875263556E+02 -0.95190042738E+02 -0.49234612337E+02  0.11366497648E+03  0.00000000000E+00 0. -1.
<scales pt_clust_5="13000.00000" pt_clust_6="13000.00000" pt_clust_7="13000.00000" pt_clust_8="13000.00000" pt_clust_9="96.84249"></scales>
<clustering>
<clus scale="   81.083">  5  6 -1 -1</clus>
<clus scale="   88.899">  2  5  1 -1</clus>
<clus scale="   92.554">  7  8 -1 -1</clus>
<clus scale="   96.842">  1  9  2 -1</clus>
<clus scale="   96.842">  1  5  2 -1</clus>
</clustering>
</event>
<event>
 9    1  0.6270443E-005  0.1060867E+03  0.7546771E-02  0.1274021E+00
          1   -1    0    0  502    0 -0.00000000000E+00  0.00000000000E+00  0.16344427271E+03  0.16344427271E+03  0.00000000000E+00 0. -1.
         21   -1    0    0  501  502  0.00000000000E+00 -0.00000000000E+00 -0.18261130500E+03  0.18261130500E+03  0.00000000000E+00 0.  1.
        -24    2    1    2    0    0 -0.52745735289E+02 -0.47403868839E+01  0.84295196712E+02  0.12879213319E+03  0.81713827003E+02 0.  0.
         23    2    1    2    0    0  0.27856967155E+02  0.35075755650E+02  0.17279361779E+01  0.10499298435E+03  0.94943255399E+02 0.  0.
         13    1    3    3    0    0 -0.41424430581E+02 -0.36565593136E+02  0.76081670924E+02  0.94028967350E+02  0.00000000000E+00 0. -1.
        -14    1    3    3    0    0 -0.11321304708E+02  0.31825206252E+02  0.82135257883E+01  0.34763165839E+02  0.00000000000E+00 0.  1.
        -11    1    4    4    0    0  0.30220467992E+02 -0.28374984055E+02  0.19143759629E+01  0.41497966710E+02  0.00000000000E+00 0. -1.
         11    1    4    4    0    0 -0.23635008368E+01  0.63450739705E+02 -0.18643978500E+00  0.63495017640E+02  0.00000000000E+00 0.  1.
          2    1    1    2  501    0  0.24888768134E+02 -0.30335368766E+02 -0.10519016517E+03  0.11227046017E+03  0.00000000000E+00 0. -1.
<scales pt_clust_5="13000.00000" pt_clust_6="13000.00000" pt_clust_7="13000.00000" pt_clust_8="13000.00000" pt_clust_9="39.23882"></scales>
<clustering>
<clus scale="   39.239">  2  9  1 -1</clus>
<clus scale="   81.714">  5  6 -1 -1</clus>
<clus scale="   94.432">  1  5  2 -1</clus>
<clus scale="   94.943">  7  8 -1 -1</clus>
<clus scale="   39.239">  2  5  1 -1</clus>
</clustering>
</event>
<event>
 9    1  0.6270443E-005  0.1007497E+03  0.7546771E-02  0.1284510E+00
          1   -1    0    0  502    0 -0.00000000000E+00  0.00000000000E+00  0.78372845930E+02  0.78372845930E+02  0.00000000000E+00 0. -1.
         21   -1    0    0  501  502  0.00000000000E+00 -0.00000000000E+00 -0.28038548828E+03  0.28038548828E+03  0.00000000000E+00 0. -1.
        -24    2    1    2    0    0 -0.13994882570E+02 -0.36979961001E+02 -0.74747279502E+02  0.11713054185E+03  0.81049576114E+02 0.  0.
         23    2    1    2    0    0 -0.67426254973E+02  0.29775245824E+02 -0.10156830123E+03  0.15594437193E+03  0.92572469985E+02 0.  0.
         11    1    3    3    0    0  0.93997855352E+01 -0.52909674849E+02 -0.23637042727E+02  0.58706894396E+02  0.00000000000E+00 0. -1.
        -12    1    3    3    0    0 -0.23394668106E+02  0.15929713848E+02 -0.51110236775E+02  0.58423647458E+02  0.00000000000E+00 0.  1.
        -13    1    4    4    0    0 -0.37528211331E+02  0.21800782220E+02  0.61820082359E+01  0.43839000638E+02  0.00000000000E+00 0.  1.
         13    1    4    4    0    0 -0.29898043642E+02  0.79744636042E+01 -0.10775030946E+03  0.11210537129E+03  0.00000000000E+00 0. -1.
          2    1    1    2  501    0  0.81421137544E+02  0.72047151768E+01 -0.25697061619E+02  0.85683420424E+02  0.00000000000E+00 0. -1.
<scales pt_clust_5="13000.00000" pt_clust_6="13000.00000" pt_clust_7="13000.00000" pt_clust_8="13000.00000" pt_clust_9="81.73932"></scales>
<clustering>
<clus scale="   81.050">  5  6 -1 -1</clus>
<clus scale="   81.739">  2  9  1 -1</clus>
<clus scale="   90.277">  1  5  2 -1</clus>
<clus scale="   92.572">  7  8 -1 -1</clus>
<clus scale="   81.739">  2  5  1 -1</clus>
</clustering>
</event>
<event>
 9    1  0.6270443E-005  0.1766363E+03  0.7546771E-02  0.1172459E+00
          1   -1    0    0  502    0 -0.00000000000E+00  0.00000000000E+00  0.40836248173E+03  0.40836248173E+03  0.00000000000E+00 0. -1.
         21   -1    0    0  501  502  0.00000000000E+00 -0.00000000000E+00 -0.10435117639E+03  0.10435117639E+03  0.00000000000E+00 0. -1.
         23    2    1    2    0    0 -0.11548872864E+03  0.67353074369E+02  0.81314501314E+02  0.18132467560E+03  0.91610625955E+02 0.  0.
        -24    2    1    2    0    0  0.14507630331E+03 -0.86399565290E+02  0.11875738955E+03  0.22165477968E+03  0.80718678877E+02 0.  0.
         11    1    4    4    0    0  0.13974193018E+03 -0.58865050590E+02  0.12031057367E+03  0.19356532584E+03  0.00000000000E+00 0. -1.
        -12    1    4    4    0    0  0.53343731363E+01 -0.27534514700E+02 -0.15531841195E+01  0.28089453847E+02  0.00000000000E+00 0.  1.
        -13    1    3    3    0    0 -0.48657391890E+02 -0.18044168309E+02  0.14225752723E+02  0.53809904628E+02  0.00000000000E+00 0. -1.
         13    1    3    3    0    0 -0.66831336750E+02  0.85397242678E+02  0.67088748591E+02  0.12751477097E+03  0.00000000000E+00 0.  1.
          2    1    1    2  501    0 -0.29587574673E+02  0.19046490920E+02  0.10393941447E+03  0.10973420284E+03  0.00000000000E+00 0. -1.
<scales pt_clust_5="13000.00000" pt_clust_6="13000.00000" pt_clust_7="13000.00000" pt_clust_8="13000.00000" pt_clust_9="35.18799"></scales>
<clustering>
<clus scale="   35.188">  2  9  1 -1</clus>
<clus scale="   80.719">  5  6 -1 -1</clus>
<clus scale="   91.611">  7  8 -1 -1</clus>
<clus scale="  171.241">  2  5  1 -1</clus>
<clus scale="   35.188">  2  5  1 -1</clus>
</clustering>
</event>
<event>
 9    1  0.6270443E-005  0.1794259E+03  0.7546771E-02  0.1190440E+00
          1   -1    0    0  502    0 -0.00000000000E+00  0.00000000000E+00  0.96955196985E+03  0.96955196985E+03  0.00000000000E+00 0. -1.
         21   -1    0    0  501  502  0.00000000000E+00 -0.00000000000E+00 -0.53161696712E+02  0.53161696712E+02  0.00000000000E+00 0. -1.
         23    2    1    2    0    0 -0.26535325820E+02 -0.52008400741E+02  0.16738095937E+03  0.19983381169E+03  0.92239739099E+02 0.  0.
        -24    2    1    2    0    0  0.16591835184E+03 -0.56687378980E+00  0.45704736657E+03  0.49510925515E+03  0.93336265317E+02 0.  0.
         11    1    4    4    0    0  0.12908562297E+03 -0.25245461869E+01  0.21903146157E+03  0.25425234031E+03  0.00000000000E+00 0. -1.
        -12    1    4    4    0    0  0.36832728867E+02  0.19576723970E+01  0.23801590500E+03  0.24085691485E+03  0.00000000000E+00 0.  1.
        -11    1    3    3    0    0 -0.40943599435E+02 -0.29430815049E+02  0.27546493791E+02  0.57457467133E+02  0.00000000000E+00 0.  1.
         11    1    3    3    0    0  0.14408273615E+02 -0.22577585692E+02  0.13983446558E+03  0.14237634455E+03  0.00000000000E+00 0. -1.
          2    1    1    2  501    0 -0.13938302602E+03  0.52575274531E+02  0.29196194719E+03  0.32777059972E+03  0.00000000000E+00 0. -1.
<scales pt_clust_5="13000.00000" pt_clust_6="13000.00000" pt_clust_7="13000.00000" pt_clust_8="13000.00000" pt_clust_9="153.23834"></scales>
<clustering>
<clus scale="   92.240">  7  8 -1 -1</clus>
<clus scale="   93.336">  5  6 -1 -1</clus>
<clus scale="  109.166">  1  7  2 -1</clus>
<clus scale="  153.238">  2  9  1 -1</clus>
<clus scale="  153.238">  2  5  1 -1</clus>
</clustering>
</event>
<event>
 9    1  0.6270443E-005  0.1007739E+03  0.7546771E-02  0.1281265E+00
         21   -1    0    0  501  502  0.00000000000E+00  0.00000000000E+00  0.13847260665E+03  0.13847260665E+03  0.00000000000E+00 0. -1.
          3   -1    0    0  502    0 -0.00000000000E+00 -0.00000000000E+00 -0.93496865406E+02  0.93496865406E+02  0.00000000000E+00 0. -1.
        -24    2    1    2    0    0  0.23756868303E+01 -0.41313553952E+02  0.17935324240E-01  0.92473332081E+02  0.82697419527E+02 0.  0.
         23    2    1    2    0    0 -0.30866077290E+01  0.61701504169E+02  0.49544774240E+02  0.11858647233E+03  0.88269269856E+02 0.  0.
         13    1    3    3    0    0 -0.29101449074E+02  0.44905066617E+01  0.17447988412E+02  0.34227054912E+02  0.00000000000E+00 0. -1.
        -14    1    3    3    0    0  0.31477135905E+02 -0.45804060613E+02 -0.17430053088E+02  0.58246277169E+02  0.00000000000E+00 0.  1.
        -13    1    4    4    0    0  0.34756513894E+02  0.47309717174E+01  0.16989942634E+01  0.35118142505E+02  0.00000000000E+00 0.  1.
         13    1    4    4    0    0 -0.37843121623E+02  0.56970532451E+02  0.47845779977E+02  0.83468329824E+02  0.00000000000E+00 0. -1.
          4    1    1    2  501    0  0.71092089869E+00 -0.20387950217E+02 -0.45869683235E+01  0.20909667644E+02  0.00000000000E+00 0. -1.
<scales pt_clust_5="13000.00000" pt_clust_6="13000.00000" pt_clust_7="13000.00000" pt_clust_8="13000.00000" pt_clust_9="20.40035"></scales>
<clustering>
<clus scale="   20.400">  1  9  2 -1</clus>
<clus scale="   82.697">  5  6 -1 -1</clus>
<clus scale="   88.269">  7  8 -1 -1</clus>
<clus scale="   95.931">  2  5  1 -1</clus>
<clus scale="   20.400">  1  5  2 -1</clus>
</clustering>
</event>
<event>
 9    1  0.6270443E-005  0.2134489E+03  0.7546771E-02  0.1158863E+00
          1   -1    0    0  502    0 -0.00000000000E+00  0.00000000000E+00  0.23234468326E+04  0.23234468326E+04  0.00000000000E+00 0. -1.
         21   -1    0    0  501  502  0.00000000000E+00 -0.00000000000E+00 -0.36706972532E+02  0.36706972532E+02  0.00000000000E+00 0.  1.
        -24    2    1    2    0    0 -0.10531419004E+03 -0.13818277844E+01  0.50299967758E+03  0.52022442232E+03  0.80819464658E+02 0.  0.
         23    2    1    2    0    0  0.11722580875E+03  0.17535428000E+03  0.58297492015E+03  0.62656813568E+03  0.90757134011E+02 0.  0.
         13    1    3    3    0    0 -0.25839727489E+02 -0.36962580564E+02  0.19544015902E+03  0.20057611931E+03  0.00000000000E+00 0. -1.
        -14    1    3    3    0    0 -0.79474462553E+02  0.35580752780E+02  0.30755951856E+03  0.31964830302E+03  0.00000000000E+00 0.  1.
        -13    1    4    4    0    0  0.66999146087E+02  0.59845861627E+02  0.35416169119E+03  0.36537777195E+03  0.00000000000E+00 0. -1.
         13    1    4    4    0    0  0.50226662660E+02  0.11550841837E+03  0.22881322896E+03  0.26119036373E+03  0.00000000000E+00 0.  1.
          2    1    1    2  501    0 -0.11911618704E+02 -0.17397245221E+03  0.12007652624E+04  0.12133612472E+04  0.00000000000E+00 0. -1.
<scales pt_clust_5="13000.00000" pt_clust_6="13000.00000" pt_clust_7="13000.00000" pt_clust_8="13000.00000" pt_clust_9="193.19316"></scales>
<clustering>
<clus scale="   80.819">  5  6 -1 -1</clus>
<clus scale="   90.757">  7  8 -1 -1</clus>
<clus scale="  132.758">  1  5  2 -1</clus>
<clus scale="  193.193">  2  9  1 -1</clus>
<clus scale="  193.193">  2  5  1 -1</clus>
</clustering>
</event>
<event>
 9    1  0.6270443E-005  0.1305631E+03  0.7546771E-02  0.1227392E+00
          3   -1    0    0  502    0 -0.00000000000E+00  0.00000000000E+00  0.21714547084E+03  0.21714547084E+03  0.00000000000E+00 0. -1.
         21   -1    0    0  501  502  0.00000000000E+00 -0.00000000000E+00 -0.11863426291E+03  0.11863426291E+03  0.00000000000E+00 0. -1.
         23    2    1    2    0    0  0.83451706115E+02 -0.65944269608E+02  0.11261864884E+03  0.17616177416E+03  0.83887881492E+02 0.  0.
        -24    2    1    2    0    0 -0.47495388256E+02  0.77058576660E+02 -0.13565619147E+02  0.12197917393E+03  0.80629130633E+02 0.  0.
         11    1    4    4    0    0 -0.24101086137E+02  0.15632499033E+02 -0.41571454721E+02  0.50531408318E+02  0.00000000000E+00 0. -1.
        -12    1    4    4    0    0 -0.23394302119E+02  0.61426077627E+02  0.28005835574E+02  0.71447765609E+02  0.00000000000E+00 0.  1.
        -11    1    3    3    0    0  0.58195766331E+02 -0.15032556013E+02  0.13036100666E+02  0.61503372914E+02  0.00000000000E+00 0.  1.
         11    1    3    3    0    0  0.25255939784E+02 -0.50911713595E+02  0.99582548178E+02  0.11465840125E+03  0.00000000000E+00 0. -1.
          4    1    1    2  501    0 -0.35956317859E+02 -0.11114307052E+02 -0.54182176521E+00  0.37638785661E+02  0.00000000000E+00 0. -1.
<scales pt_clust_5="13000.00000" pt_clust_6="13000.00000" pt_clust_7="13000.00000" pt_clust_8="13000.00000" pt_clust_9="37.63489"></scales>
<clustering>
<clus scale="   37.635">  2  9  1 -1</clus>
<clus scale="   80.629">  5  6 -1 -1</clus>
<clus scale="   83.888">  7  8 -1 -1</clus>
<clus scale="  128.494">  2  5  1 -1</clus>
<clus scale="   37.635">  2  5  1 -1</clus>
</clustering>
</event>
<event>
 9    1  0.6270443E-005  0.1070506E+03  0.7546771E-02  0.1271288E+00
         21   -1    0    0  501  502  0.00000000000E+00  0.00000000000E+00  0.19776941294E+03  0.19776941294E+03  0.00000000000E+00 0.  1.
         -2   -1    0    0    0  501 -0.00000000000E+00 -0.00000000000E+00 -0.13468799285E+03  0.13468799285E+03  0.00000000000E+00 0.  1.
        -24    2    1    2    0    0  0.17902476309E+01 -0.47027303346E+02  0.47515207721E+02  0.10106457177E+03  0.75773217266E+02 0.  0.
         23    2    1    2    0    0 -0.89691503070E+02  0.40327363293E+02  0.43012150994E+02  0.13906299350E+03  0.88417244214E+02 0.  0.
         11    1    3    3    0    0 -0.12980101523E+01 -0.34123214908E+02 -0.14898222400E+02  0.37256350555E+02  0.00000000000E+00 0. -1.
        -12    1    3    3    0    0  0.30882577832E+01 -0.12904088438E+02  0.62413430121E+02  0.63808221210E+02  0.00000000000E+00 0.  1.
        -13    1    4    4    0    0 -0.18007024064E+02  0.56011419647E+02  0.17694061062E+02  0.61437869783E+02  0.00000000000E+00 0. -1.
         13    1    4    4    0    0 -0.71684479005E+02 -0.15684056354E+02  0.25318089932E+02  0.77625123715E+02  0.00000000000E+00 0.  1.
         -1    1    1    2    0  502  0.87901255439E+02  0.66999400525E+01 -0.27445938632E+02  0.92329840527E+02  0.00000000000E+00 0.  1.
<scales pt_clust_5="13000.00000" pt_clust_6="13000.00000" pt_clust_7="13000.00000" pt_clust_8="13000.00000" pt_clust_9="88.15627"></scales>
<clustering>
<clus scale="   75.773">  5  6 -1 -1</clus>
<clus scale="   88.156">  1  9  2 -1</clus>
<clus scale="   88.417">  7  8 -1 -1</clus>
<clus scale="   96.870">  2  5  1 -1</clus>
<clus scale="   88.156">  1  5  2 -1</clus>
</clustering>
</event>
<event>
 9    1  0.6270443E-005  0.1464238E+03  0.7546771E-02  0.1215269E+00
         -2   -1    0    0    0  501 -0.00000000000E+00  0.00000000000E+00  0.87423903439E+02  0.87423903439E+02  0.00000000000E+00 0.  1.
         21   -1    0    0  501  502  0.00000000000E+00 -0.00000000000E+00 -0.41474885727E+03  0.41474885727E+03  0.00000000000E+00 0. -1.
        -24    2    1    2    0    0  0.81802916989E+02  0.24493164452E+02 -0.11698120680E+03  0.16576110271E+03  0.80625728488E+02 0.  0.
         23    2    1    2    0    0  0.51268177396E+02 -0.43464856873E+02 -0.77321342913E+02  0.14730110496E+03  0.10583669333E+03 0.  0.
         11    1    3    3    0    0  0.91907192492E+02  0.28980764505E+02 -0.12037328955E+03  0.15419645126E+03  0.00000000000E+00 0. -1.
        -12    1    3    3    0    0 -0.10104275503E+02 -0.44876000531E+01  0.33920827565E+01  0.11564651448E+02  0.00000000000E+00 0.  1.
        -11    1    4    4    0    0  0.30324818208E+02  0.28845877902E+02 -0.37208209969E+01  0.42018136324E+02  0.00000000000E+00 0.  1.
         11    1    4    4    0    0  0.20943359188E+02 -0.72310734776E+02 -0.73600521916E+02  0.10528296863E+03  0.00000000000E+00 0. -1.
         -1    1    1    2    0  502 -0.13307109439E+03  0.18971692421E+02 -0.13302240412E+03  0.18911055304E+03  0.00000000000E+00 0.  1.
<scales pt_clust_5="13000.00000" pt_clust_6="13000.00000" pt_clust_7="13000.00000" pt_clust_8="13000.00000" pt_clust_9="101.18560"></scales>
<clustering>
<clus scale="   80.626">  5  6 -1 -1</clus>
<clus scale="  105.837">  7  8 -1 -1</clus>
<clus scale="  117.440">  1  5  2 -1</clus>
<clus scale="  101.186">  2  9  1 -1</clus>
<clus scale="  101.186">  2  5  1 -1</clus>
</clustering>
</event>
<event>
 9    1  0.6270443E-005  0.2473803E+03  0.7546771E-02  0.1115810E+00
          1   -1    0    0  502    0 -0.00000000000E+00  0.00000000000E+00  0.15247123200E+04  0.15247123200E+04  0.00000000000E+00 0. -1.
         21   -1    0    0  501  502  0.00000000000E+00 -0.00000000000E+00 -0.52109645814E+02  0.52109645814E+02  0.00000000000E+00 0. -1.
        -24    2    1    2    0    0  0.75145522308E+02  0.23720231592E+03  0.84479586306E+03  0.88439909614E+03  0.81055060291E+02 0.  0.
         23    2    1    2    0    0 -0.33500042947E+02 -0.19679225545E+03  0.39761357695E+03  0.45502816881E+03  0.95418201393E+02 0.  0.
         13    1    3    3    0    0  0.42496562471E+02  0.21030425325E+03  0.75898249782E+03  0.78872572467E+03  0.00000000000E+00 0. -1.
        -14    1    3    3    0    0  0.32648959837E+02  0.26898062672E+02  0.85813365246E+02  0.95673371472E+02  0.00000000000E+00 0.  1.
        -13    1    4    4    0    0  0.28927111128E+02 -0.35083712007E+02  0.11270294453E+03  0.12153023620E+03  0.00000000000E+00 0. -1.
         13    1    4    4    0    0 -0.62427154075E+02 -0.16170854345E+03  0.28491063242E+03  0.33349793261E+03  0.00000000000E+00 0.  1.
          2    1    1    2  501    0 -0.41645479361E+02 -0.40410060469E+02  0.23019323420E+03  0.23739470089E+03  0.00000000000E+00 0. -1.
<scales pt_clust_5="13000.00000" pt_clust_6="13000.00000" pt_clust_7="13000.00000" pt_clust_8="13000.00000" pt_clust_9="58.02863"></scales>
<clustering>
<clus scale="   58.029">  2  9  1 -1</clus>
<clus scale="   81.055">  5  6 -1 -1</clus>
<clus scale="   95.418">  7  8 -1 -1</clus>
<clus scale="  242.203">  1  5  2 -1</clus>
<clus scale="   58.029">  2  5  1 -1</clus>
</clustering>
</event>
<event>
 9    1  0.6270443E-005  0.1331136E+03  0.7546771E-02  0.1225774E+00
         21   -1    0    0  501  502  0.00000000000E+00  0.00000000000E+00  0.70161464537E+02  0.70161464537E+02  0.00000000000E+00 0.  1.
          3   -1    0    0  502    0 -0.00000000000E+00 -0.00000000000E+00 -0.43377202792E+03  0.43377202792E+03  0.00000000000E+00 0. -1.
         23    2    1    2    0    0  0.17858458601E+02  0.10404769392E+03 -0.32647490981E+03  0.35529361503E+03  0.92210839885E+02 0.  0.
        -24    2    1    2    0    0 -0.19477156671E+02 -0.66613174708E+02 -0.29077983118E+02  0.11031378364E+03  0.80665525980E+02 0.  0.
         11    1    4    4    0    0 -0.50308752925E+02 -0.33067944235E+02 -0.22543630541E+02  0.64285883635E+02  0.00000000000E+00 0. -1.
        -12    1    4    4    0    0  0.30831596254E+02 -0.33545230473E+02 -0.65343525763E+01  0.46027900003E+02  0.00000000000E+00 0.  1.
        -13    1    3    3    0    0  0.36896193234E+02  0.53688176515E+02 -0.80806721726E+02  0.10379535466E+03  0.00000000000E+00 0.  1.
         13    1    3    3    0    0 -0.19037734634E+02  0.50359517404E+02 -0.24566818809E+03  0.25149826037E+03  0.00000000000E+00 0. -1.
          4    1    1    2  501    0  0.16186980703E+01 -0.37434519211E+02 -0.80576704568E+01  0.38326093790E+02  0.00000000000E+00 0. -1.
<scales pt_clust_5="13000.00000" pt_clust_6="13000.00000" pt_clust_7="13000.00000" pt_clust_8="13000.00000" pt_clust_9="37.46950"></scales>
<clustering>
<clus scale="   37.469">  1  9  2 -1</clus>
<clus scale="   80.666">  5  6 -1 -1</clus>
<clus scale="   92.211">  7  8 -1 -1</clus>
<clus scale="  125.393">  1  5  2 -1</clus>
<clus scale="   37.469">  1  5  2 -1</clus>
</clustering>
</event>
<event>
 9    1  0.6270443E-005  0.1786315E+03  0.7546771E-02  0.1196100E+00
         21   -1    0    0  501  502  0.00000000000E+00  0.00000000000E+00  0.11125477531E+03  0.11125477531E+03  0.00000000000E+00 0.  1.
          1   -1    0    0  502    0 -0.00000000000E+00 -0.00000000000E+00 -0.47317375356E+03  0.47317375356E+03  0.00000000000E+00 0. -1.
        -24    2    1    2    0    0  0.48265103505E+02  0.17195050080E+02 -0.17913831822E+03  0.20404465423E+03  0.83177484339E+02 0.  0.
         23    2    1    2    0    0 -0.16850863576E+03 -0.37179265607E+02 -0.61925767530E+02  0.20873370435E+03  0.99787276387E+02 0.  0.
         11    1    3    3    0    0  0.64620670114E+02  0.24662445064E+02 -0.92164007890E+02  0.11523138267E+03  0.00000000000E+00 0. -1.
        -12    1    3    3    0    0 -0.16355566609E+02 -0.74673949839E+01 -0.86974310331E+02  0.88813271556E+02  0.00000000000E+00 0.  1.
        -13    1    4    4    0    0 -0.40429108845E+01 -0.34552556490E+02 -0.12788671795E+02  0.37064462962E+02  0.00000000000E+00 0. -1.
         13    1    4    4    0    0 -0.16446572488E+03 -0.26267091173E+01 -0.49137095735E+02  0.17166924139E+03  0.00000000000E+00 0.  1.
          2    1    1    2  501    0  0.12024353226E+03  0.19984215527E+02 -0.12085489250E+03  0.17165017029E+03  0.00000000000E+00 0. -1.
<scales pt_clust_5="13000.00000" pt_clust_6="13000.00000" pt_clust_7="13000.00000" pt_clust_8="13000.00000" pt_clust_9="148.16123"></scales>
<clustering>
<clus scale="   83.177">  5  6 -1 -1</clus>
<clus scale="   97.692">  2  5  1 -1</clus>
<clus scale="   99.787">  7  8 -1 -1</clus>
<clus scale="  148.161">  1  9  2 -1</clus>
<clus scale="  148.161">  1  5  2 -1</clus>
</clustering>
</event>
<event>
 9    1  0.6270443E-005  0.1202815E+03  0.7546771E-02  0.1247946E+00
         21   -1    0    0  501  502  0.00000000000E+00  0.00000000000E+00  0.14765478394E+03  0.14765478394E+03  0.00000000000E+00 0. -1.
          1   -1    0    0  502    0 -0.00000000000E+00 -0.00000000000E+00 -0.19648428735E+03  0.19648428735E+03  0.00000000000E+00 0. -1.
         23    2    1    2    0    0 -0.41608697834E+01 -0.79717880244E+02 -0.55607102904E+02  0.13584409682E+03  0.94811473356E+02 0.  0.
        -24    2    1    2    0    0  0.75678450161E+02  0.46117105348E+02  0.36219049772E+02  0.12397074680E+03  0.78758563164E+02 0.  0.
         13    1    4    4    0    0  0.41584392843E+02  0.65604782446E+02  0.33548857662E+02  0.84609544724E+02  0.00000000000E+00 0. -1.
        -14    1    4    4    0    0  0.34094057318E+02 -0.19487677098E+02  0.26701921098E+01  0.39361202077E+02  0.00000000000E+00 0.  1.
        -11    1    3    3    0    0  0.13467981498E+02 -0.66823504331E+02 -0.78660188278E+02  0.10408742708E+03  0.00000000000E+00 0.  1.
         11    1    3    3    0    0 -0.17628851281E+02 -0.12894375913E+02  0.23053085374E+02  0.31756669739E+02  0.00000000000E+00 0. -1.
          2    1    1    2  501    0 -0.71517580378E+02  0.33600774895E+02 -0.29441450283E+02  0.84324227666E+02  0.00000000000E+00 0. -1.
<scales pt_clust_5="13000.00000" pt_clust_6="13000.00000" pt_clust_7="13000.00000" pt_clust_8="13000.00000" pt_clust_9="79.01761"></scales>
<clustering>
<clus scale="   78.759">  5  6 -1 -1</clus>
<clus scale="   79.018">  1  9  2 -1</clus>
<clus scale="   94.811">  7  8 -1 -1</clus>
<clus scale="  108.080">  1  5  2 -1</clus>
<clus scale="   79.018">  1  5  2 -1</clus>
</clustering>
</event>
<event>
 9    1  0.6989842E-005  0.4146574E+03  0.7546771E-02  0.1039077E+00
         21   -1    0    0  501  502  0.00000000000E+00  0.00000000000E+00  0.11322114646E+03  0.11322114646E+03  0.00000000000E+00 0. -1.
          1   -1    0    0  502    0 -0.00000000000E+00 -0.00000000000E+00 -0.26549590169E+04  0.26549590169E+04  0.00000000000E+00 0. -1.
        -24    2    1    2    0    0 -0.63190700281E+02  0.28575677766E+03 -0.53075034818E+03  0.61108485614E+03  0.77966459000E+02 0.  0.
         23    2    1    2    0    0  0.11526349137E+03 -0.50896936450E+03 -0.16124970145E+04  0.16973887494E+04  0.92986334894E+02 0.  0.
         13    1    3    3    0    0 -0.75012969591E+02  0.19408504668E+03 -0.33073217407E+03  0.39074252638E+03  0.00000000000E+00 0. -1.
        -14    1    3    3    0    0  0.11822269310E+02  0.91671730984E+02 -0.20001817411E+03  0.22034232977E+03  0.00000000000E+00 0.  1.
        -13    1    4    4    0    0  0.88656880131E+01 -0.88591751070E+02 -0.18198942984E+03  0.20260121262E+03  0.00000000000E+00 0.  1.
         13    1    4    4    0    0  0.10639780336E+03 -0.42037761343E+03 -0.14305075846E+04  0.14947875368E+04  0.00000000000E+00 0. -1.
          2    1    1    2  501    0 -0.52072791092E+02  0.22321258683E+03 -0.39849050775E+03  0.45970655778E+03  0.00000000000E+00 0. -1.
<scales pt_clust_5="13000.00000" pt_clust_6="13000.00000" pt_clust_7="13000.00000" pt_clust_8="13000.00000" pt_clust_9="229.20610"></scales>
<clustering>
<clus scale="   77.966">  5  6 -1 -1</clus>
<clus scale="   92.986">  7  8 -1 -1</clus>
<clus scale="  229.206">  1  9  2 -1</clus>
<clus scale="  411.550">  2  5  1 -1</clus>
<clus scale="  229.206">  1  5  2 -1</clus>
</clustering>
</event>
<event>
 9    1  0.6270443E-005  0.1927008E+03  0.7546771E-02  0.1170773E+00
         21   -1    0    0  501  502  0.00000000000E+00  0.00000000000E+00  0.46249915967E+02  0.46249915967E+02  0.00000000000E+00 0.  1.
         -2   -1    0    0    0  501 -0.00000000000E+00 -0.00000000000E+00 -0.15497587175E+04  0.15497587175E+04  0.00000000000E+00 0.  1.
        -24    2    1    2    0    0 -0.93810305341E+02  0.67902448294E+02 -0.58768199781E+03  0.60345256361E+03  0.73305866808E+02 0.  0.
         23    2    1    2    0    0 -0.10838932113E+03 -0.10649080785E+03 -0.46004601969E+03  0.49244620840E+03  0.88161163998E+02 0.  0.
         13    1    3    3    0    0 -0.17001318106E+02 -0.15530847169E+02 -0.12260872155E+03  0.12475235722E+03  0.00000000000E+00 0. -1.
        -14    1    3    3    0    0 -0.76808987235E+02  0.83433295463E+02 -0.46507327626E+03  0.47870020639E+03  0.00000000000E+00 0.  1.
        -13    1    4    4    0    0 -0.35681748425E+02 -0.87299987759E+02 -0.18989970486E+03  0.21202917946E+03  0.00000000000E+00 0.  1.
         13    1    4    4    0    0 -0.72707572700E+02 -0.19190820092E+02 -0.27014631483E+03  0.28041702894E+03  0.00000000000E+00 0. -1.
         -1    1    1    2    0  502  0.20219962647E+03  0.38588359557E+02 -0.45578078402E+03  0.50010986145E+03  0.00000000000E+00 0.  1.
<scales pt_clust_5="13000.00000" pt_clust_6="13000.00000" pt_clust_7="13000.00000" pt_clust_8="13000.00000" pt_clust_9="171.35120"></scales>
<clustering>
<clus scale="   73.306">  5  6 -1 -1</clus>
<clus scale="   88.161">  7  8 -1 -1</clus>
<clus scale="  137.058">  2  5  1 -1</clus>
<clus scale="  171.351">  1  9  2 -1</clus>
<clus scale="  171.351">  1  5  2 -1</clus>
</clustering>
</event>
<event>
 9    1  0.6270443E-005  0.1003231E+03  0.7546771E-02  0.1285897E+00
          1   -1    0    0  502    0 -0.00000000000E+00  0.00000000000E+00  0.15854256418E+03  0.15854256418E+03  0.00000000000E+00 0. -1.
         21   -1    0    0  501  502  0.00000000000E+00 -0.00000000000E+00 -0.13196500362E+03  0.13196500362E+03  0.00000000000E+00 0. -1.
         23    2    1    2    0    0  0.40497821700E+02 -0.31367467517E+02  0.69417906621E+02  0.12641280589E+03  0.92397836302E+02 0.  0.
        -24    2    1    2    0    0  0.21159573238E+02  0.40383083001E+02 -0.74005451010E+01  0.92408674242E+02  0.80037953966E+02 0.  0.
         11    1    4    4    0    0  0.44303152189E+02  0.25106646643E+02  0.18776740209E+02  0.54274109596E+02  0.00000000000E+00 0. -1.
        -12    1    4    4    0    0 -0.23143578952E+02  0.15276436358E+02 -0.26177285311E+02  0.38134564646E+02  0.00000000000E+00 0.  1.
        -11    1    3    3    0    0  0.58187573786E+02  0.85422572634E+01  0.54774039393E+02  0.80367650791E+02  0.00000000000E+00 0.  1.
         11    1    3    3    0    0 -0.17689752086E+02 -0.39909724781E+02  0.14643867228E+02  0.46045155102E+02  0.00000000000E+00 0. -1.
          2    1    1    2  501    0 -0.61657394937E+02 -0.90156154837E+01 -0.35439800962E+02  0.71686087669E+02  0.00000000000E+00 0. -1.
<scales pt_clust_5="13000.00000" pt_clust_6="13000.00000" pt_clust_7="13000.00000" pt_clust_8="13000.00000" pt_clust_9="62.31305"></scales>
<clustering>
<clus scale="   62.313">  2  9  1 -1</clus>
<clus scale="   80.038">  5  6 -1 -1</clus>
<clus scale="   89.070">  2  5  1 -1</clus>
<clus scale="   92.398">  7  8 -1 -1</clus>
<clus scale="   62.313">  2  5  1 -1</clus>
</clustering>
</event>
<event>
 9    1  0.6270443E-005  0.1843598E+03  0.7546771E-02  0.1194060E+00
         -2   -1    0    0    0  501 -0.00000000000E+00  0.00000000000E+00  0.15279351962E+03  0.15279351962E+03  0.00000000000E+00 0.  1.
         21   -1    0    0  501  502  0.00000000000E+00 -0.00000000000E+00 -0.38122164643E+03  0.38122164643E+03  0.00000000000E+00 0. -1.
        -24    2    1    2    0    0 -0.14154249534E+02 -0.42748068492E+02 -0.10759965176E+03  0.14217210208E+03  0.81286415922E+02 0.  0.
         23    2    1    2    0    0 -0.94616144069E+02  0.15143320227E+03 -0.75261993215E+01  0.20084342387E+03  0.91636279748E+02 0.  0.
         11    1    3    3    0    0 -0.37629511529E+02 -0.72594238355E+01 -0.86644797488E+02  0.94741755864E+02  0.00000000000E+00 0. -1.
        -12    1    3    3    0    0  0.23475261995E+02 -0.35488644656E+02 -0.20954854267E+02  0.47430346221E+02  0.00000000000E+00 0.  1.
        -11    1    4    4    0    0  0.37248881071E+01  0.44264949429E+02 -0.30089221190E+02  0.53652789034E+02  0.00000000000E+00 0.  1.
         11    1    4    4    0    0 -0.98341032176E+02  0.10716825284E+03  0.22563021869E+02  0.14719063483E+03  0.00000000000E+00 0. -1.
         -1    1    1    2    0  502  0.10877039360E+03 -0.10868513378E+03 -0.11330227574E+03  0.19099964010E+03  0.00000000000E+00 0.  1.
<scales pt_clust_5="13000.00000" pt_clust_6="13000.00000" pt_clust_7="13000.00000" pt_clust_8="13000.00000" pt_clust_9="159.97293"></scales>
<clustering>
<clus scale="   81.286">  5  6 -1 -1</clus>
<clus scale="   91.636">  7  8 -1 -1</clus>
<clus scale="   92.926">  1  5  2 -1</clus>
<clus scale="  159.973">  2  9  1 -1</clus>
<clus scale="  159.973">  2  5  1 -1</clus>
</clustering>
</event>
<event>
 9    1  0.6270443E-005  0.2552711E+03  0.7546771E-02  0.1143572E+00
         21   -1    0    0  501  502  0.00000000000E+00  0.00000000000E+00  0.16534700284E+03  0.16534700284E+03  0.00000000000E+00 0. -1.
          1   -1    0    0  502    0 -0.00000000000E+00 -0.00000000000E+00 -0.85790837046E+03  0.85790837046E+03  0.00000000000E+00 0. -1.
        -24    2    1    2    0    0 -0.47391105651E+02 -0.66285527026E+02 -0.26374460131E+03  0.28631326631E+03  0.75989366068E+02 0.  0.
         23    2    1    2    0    0 -0.45532137581E+02  0.27593586022E+03 -0.41308339876E+03  0.50708230147E+03  0.90998855101E+02 0.  0.
         13    1    3    3    0    0 -0.50989442550E+01 -0.44985499089E+02 -0.20937345739E+03  0.21421236897E+03  0.00000000000E+00 0. -1.
        -14    1    3    3    0    0 -0.42292161396E+02 -0.21300027937E+02 -0.54371143925E+02  0.72100897340E+02  0.00000000000E+00 0.  1.
        -13    1    4    4    0    0 -0.22245323027E+02  0.10349678423E+03 -0.23680511395E+03  0.25938986244E+03  0.00000000000E+00 0.  1.
         13    1    4    4    0    0 -0.23286814554E+02  0.17243907599E+03 -0.17627828480E+03  0.24769243903E+03  0.00000000000E+00 0. -1.
          2    1    1    2  501    0  0.92923243231E+02 -0.20965033319E+03 -0.15733367552E+02  0.22985980552E+03  0.00000000000E+00 0. -1.
<scales pt_clust_5="13000.00000" pt_clust_6="13000.00000" pt_clust_7="13000.00000" pt_clust_8="13000.00000" pt_clust_9="238.50058"></scales>
<clustering>
<clus scale="   75.989">  5  6 -1 -1</clus>
<clus scale="   90.999">  7  8 -1 -1</clus>
<clus scale="  111.418">  2  5  1 -1</clus>
<clus scale="  238.501">  1  9  2 -1</clus>
<clus scale="  238.501">  1  5  2 -1</clus>
</clustering>
</event>
<event>
 9    1  0.7044964E-005  0.1936416E+03  0.7546771E-02  0.1185512E+00
         -2   -1    0    0    0  501 -0.00000000000E+00  0.00000000000E+00  0.24716991851E+03  0.24716991851E+03  0.00000000000E+00 0.  1.
         21   -1    0    0  501  502  0.00000000000E+00 -0.00000000000E+00 -0.10730607780E+04  0.10730607780E+04  0.00000000000E+00 0.  1.
         23    2    1    2    0    0 -0.27955075699E+02  0.13050132563E+02 -0.15626154523E+02  0.98123180617E+02  0.91826954932E+02 0.  0.
        -24    2    1    2    0    0 -0.11847760729E+03 -0.13136814765E+03 -0.96143569745E+03  0.98066528205E+03  0.77789854342E+02 0.  0.
         13    1    4    4    0    0 -0.92800092570E+01 -0.61619388828E+02 -0.36910950957E+03  0.37433260305E+03  0.00000000000E+00 0. -1.
        -14    1    4    4    0    0 -0.10919759803E+03 -0.69748758821E+02 -0.59232618789E+03  0.60633267901E+03  0.00000000000E+00 0.  1.
        -11    1    3    3    0    0  0.94575357719E+01 -0.33950099688E+02 -0.14306821342E+02  0.38036027509E+02  0.00000000000E+00 0. -1.
         11    1    3    3    0    0 -0.37412611471E+02  0.47000232251E+02 -0.13193331804E+01  0.60087153109E+02  0.00000000000E+00 0.  1.
         -1    1    1    2    0  502  0.14643268299E+03  0.11831801509E+03  0.15117099245E+03  0.24144223388E+03  0.00000000000E+00 0.  1.
<scales pt_clust_5="13000.00000" pt_clust_6="13000.00000" pt_clust_7="13000.00000" pt_clust_8="13000.00000" pt_clust_9="177.32974"></scales>
<clustering>
<clus scale="   77.790">  5  6 -1 -1</clus>
<clus scale="   91.827">  7  8 -1 -1</clus>
<clus scale="   96.871">  1  7  2 -1</clus>
<clus scale="  177.330">  2  9  1 -1</clus>
<clus scale="  177.330">  2  5  1 -1</clus>
</clustering>
</event>
<event>
 9    1  0.6270443E-005  0.9747666E+02  0.7546771E-02  0.1290555E+00
         21   -1    0    0  501  502  0.00000000000E+00  0.00000000000E+00  0.71885454415E+02  0.71885454415E+02  0.00000000000E+00 0.  1.
          1   -1    0    0  502    0 -0.00000000000E+00 -0.00000000000E+00 -0.26717473106E+03  0.26717473106E+03  0.00000000000E+00 0. -1.
        -24    2    1    2    0    0 -0.17534305809E+02  0.26019957048E+01 -0.18495982746E+03  0.20477364261E+03  0.86069069193E+02 0.  0.
         23    2    1    2    0    0  0.45969173437E+02 -0.28381858316E+01 -0.91481113604E+01  0.10582616617E+03  0.94838121555E+02 0.  0.
         11    1    3    3    0    0 -0.30574252359E+02  0.38343274969E+02 -0.90364728865E+02  0.10281427851E+03  0.00000000000E+00 0. -1.
        -12    1    3    3    0    0  0.13039946550E+02 -0.35741279264E+02 -0.94595098593E+02  0.10195936410E+03  0.00000000000E+00 0.  1.
        -13    1    4    4    0    0  0.64622390359E+01 -0.35638322423E+02  0.25133624146E+02  0.44085707675E+02  0.00000000000E+00 0.  1.
         13    1    4    4    0    0  0.39506934401E+02  0.32800136591E+02 -0.34281735507E+02  0.61740458498E+02  0.00000000000E+00 0. -1.
          2    1    1    2  501    0 -0.28434867628E+02  0.23619012682E+00 -0.11813378304E+01  0.28460376699E+02  0.00000000000E+00 0. -1.
<scales pt_clust_5="13000.00000" pt_clust_6="13000.00000" pt_clust_7="13000.00000" pt_clust_8="13000.00000" pt_clust_9="28.43585"></scales>
<clustering>
<clus scale="   28.436">  1  9  2 -1</clus>
<clus scale="   86.069">  5  6 -1 -1</clus>
<clus scale="   88.968">  2  5  1 -1</clus>
<clus scale="   94.838">  7  8 -1 -1</clus>
<clus scale="   28.436">  1  5  2 -1</clus>
</clustering>
</event>
<event>
 9    1  0.6270443E-005  0.9975488E+02  0.7546771E-02  0.1286229E+00
         21   -1    0    0  501  502  0.00000000000E+00  0.00000000000E+00  0.25900099146E+03  0.25900099146E+03  0.00000000000E+00 0.  1.
         -2   -1    0    0    0  501 -0.00000000000E+00 -0.00000000000E+00 -0.11355838143E+03  0.11355838143E+03  0.00000000000E+00 0.  1.
         23    2    1    2    0    0 -0.50616925094E+02 -0.17643028110E+02 -0.48956694240E+02  0.11661316886E+03  0.91260745638E+02 0.  0.
        -24    2    1    2    0    0  0.17316654672E+02  0.18019607085E+01  0.30339564792E+02  0.87793162006E+02  0.80523515273E+02 0.  0.
         13    1    4    4    0    0  0.49401826164E+01  0.29813311421E+02  0.44710249642E+02  0.53965223666E+02  0.00000000000E+00 0. -1.
        -14    1    4    4    0    0  0.12376472056E+02 -0.28011350713E+02 -0.14370684850E+02  0.33827938341E+02  0.00000000000E+00 0.  1.
        -11    1    3    3    0    0 -0.17452396973E+02 -0.34395260396E+02  0.16019212558E+02  0.41764042773E+02  0.00000000000E+00 0.  1.
         11    1    3    3    0    0 -0.33164528122E+02  0.16752232286E+02 -0.64975906797E+02  0.74849126089E+02  0.00000000000E+00 0. -1.
         -1    1    1    2    0  502  0.33300270422E+02  0.15841067402E+02  0.16405973947E+03  0.16815304203E+03  0.00000000000E+00 0.  1.
<scales pt_clust_5="13000.00000" pt_clust_6="13000.00000" pt_clust_7="13000.00000" pt_clust_8="13000.00000" pt_clust_9="36.87611"></scales>
<clustering>
<clus scale="   36.876">  1  9  2 -1</clus>
<clus scale="   80.524">  5  6 -1 -1</clus>
<clus scale="   90.036">  1  5  2 -1</clus>
<clus scale="   91.261">  7  8 -1 -1</clus>
<clus scale="   36.876">  1  5  2 -1</clus>
</clustering>
</event>
<event>
 9    1  0.6270443E-005  0.2183463E+03  0.7546771E-02  0.1135122E+00
          1   -1    0    0  502    0 -0.00000000000E+00  0.00000000000E+00  0.72275090980E+03  0.72275090980E+03  0.00000000000E+00 0. -1.
         21   -1    0    0  501  502  0.00000000000E+00 -0.00000000000E+00 -0.42837919778E+02  0.42837919778E+02  0.00000000000E+00 0. -1.
        -24    2    1    2    0    0 -0.32416749147E+02 -0.59449790091E+02  0.17734787385E+03  0.20586499552E+03  0.79642983705E+02 0.  0.
         23    2    1    2    0    0 -0.34202985788E+02 -0.50472850342E+02  0.31050908986E+03  0.32862495219E+03  0.88662909114E+02 0.  0.
         13    1    3    3    0    0 -0.50186395168E+02 -0.31141882606E+02  0.61402280833E+02  0.85198187795E+02  0.00000000000E+00 0. -1.
        -14    1    3    3    0    0  0.17769646021E+02 -0.28307907486E+02  0.11594559302E+03  0.12066680772E+03  0.00000000000E+00 0.  1.
        -13    1    4    4    0    0 -0.30459857857E+02 -0.72586335458E+02  0.18381985874E+03  0.19996579583E+03  0.00000000000E+00 0. -1.
         13    1    4    4    0    0 -0.37431279304E+01  0.22113485116E+02  0.12668923112E+03  0.12865915635E+03  0.00000000000E+00 0.  1.
          2    1    1    2  501    0  0.66619734935E+02  0.10992264043E+03  0.19205602631E+03  0.23109888188E+03  0.00000000000E+00 0. -1.
<scales pt_clust_5="13000.00000" pt_clust_6="13000.00000" pt_clust_7="13000.00000" pt_clust_8="13000.00000" pt_clust_9="128.53473"></scales>
<clustering>
<clus scale="   79.643">  5  6 -1 -1</clus>
<clus scale="   88.663">  7  8 -1 -1</clus>
<clus scale="  101.988">  5  7 -1 -1</clus>
<clus scale="  128.535">  2  9  1 -1</clus>
<clus scale="  128.535">  2  5  1 -1</clus>
</clustering>
</event>
<event>
 9    1  0.6270443E-005  0.1152803E+03  0.7546771E-02  0.1262038E+00
         21   -1    0    0  501  502  0.00000000000E+00  0.00000000000E+00  0.43998194333E+03  0.43998194333E+03  0.00000000000E+00 0.  1.
          3   -1    0    0  502    0 -0.00000000000E+00 -0.00000000000E+00 -0.22342124155E+03  0.22342124155E+03  0.00000000000E+00 0. -1.
         23    2    1    2    0    0 -0.33401240089E+02  0.29731001896E+02  0.27998165333E+02  0.96983185955E+02  0.81377305084E+02 0.  0.
        -24    2    1    2    0    0 -0.73858485847E+02 -0.35864031267E+02  0.35235003231E+03  0.37054093763E+03  0.80054584631E+02 0.  0.
         11    1    4    4    0    0 -0.25500514506E+02 -0.54550083531E+02  0.14951257034E+03  0.16118311495E+03  0.00000000000E+00 0. -1.
        -12    1    4    4    0    0 -0.48357971341E+02  0.18686052264E+02  0.20283746196E+03  0.20935782268E+03  0.00000000000E+00 0.  1.
        -13    1    3    3    0    0 -0.29267458446E+02  0.56650708169E+02  0.10531318505E+02  0.64628132646E+02  0.00000000000E+00 0. -1.
         13    1    3    3    0    0 -0.41337816437E+01 -0.26919706273E+02  0.17466846828E+02  0.32355053309E+02  0.00000000000E+00 0.  1.
          4    1    1    2  501    0  0.10725972594E+03  0.61330293714E+01 -0.16378749586E+03  0.19587906130E+03  0.00000000000E+00 0. -1.
<scales pt_clust_5="13000.00000" pt_clust_6="13000.00000" pt_clust_7="13000.00000" pt_clust_8="13000.00000" pt_clust_9="82.95065"></scales>
<clustering>
<clus scale="   80.055">  5  6 -1 -1</clus>
<clus scale="   81.377">  7  8 -1 -1</clus>
<clus scale="   92.854">  2  7  1 -1</clus>
<clus scale="   82.951">  1  9  2 -1</clus>
<clus scale="   82.951">  1  5  2 -1</clus>
</clustering>
</event>
<event>
 9    1  0.6270443E-005  0.1291623E+03  0.7546771E-02  0.1231804E+00
         -2   -1    0    0    0  501 -0.00000000000E+00  0.00000000000E+00  0.94012798793E+03  0.94012798793E+03  0.00000000000E+00 0.  1.
         21   -1    0    0  501  502  0.00000000000E+00 -0.00000000000E+00 -0.29273387579E+02  0.29273387579E+02  0.00000000000E+00 0. -1.
        -24    2    1    2    0    0 -0.69319339809E+02  0.77204941175E+02  0.60853306303E+03  0.62230287295E+03  0.78629530552E+02 0.  0.
         23    2    1    2    0    0  0.15583358787E+02 -0.71074906903E+02  0.19590603715E+03  0.22772768680E+03  0.90477845253E+02 0.  0.
         13    1    3    3    0    0 -0.77705035231E+02  0.35451261263E+02  0.45631900623E+03  0.46424336277E+03  0.00000000000E+00 0. -1.
        -14    1    3    3    0    0  0.83856954220E+01  0.41753679912E+02  0.15221405680E+03  0.15805951018E+03  0.00000000000E+00 0.  1.
        -13    1    4    4    0    0  0.35487366657E+02 -0.55115616750E+02  0.19075047946E+03  0.20169985081E+03  0.00000000000E+00 0.  1.
         13    1    4    4    0    0 -0.19904007869E+02 -0.15959290154E+02  0.51555576928E+01  0.26027835995E+02  0.00000000000E+00 0. -1.
         -1    1    1    2    0  502  0.53735981022E+02 -0.61300342719E+01  0.10641550017E+03  0.11937081575E+03  0.00000000000E+00 0.  1.
<scales pt_clust_5="13000.00000" pt_clust_6="13000.00000" pt_clust_7="13000.00000" pt_clust_8="13000.00000" pt_clust_9="54.08450"></scales>
<clustering>
<clus scale="   54.084">  2  9  1 -1</clus>
<clus scale="   78.630">  5  6 -1 -1</clus>
<clus scale="   90.478">  7  8 -1 -1</clus>
<clus scale="  121.158">  1  5  2 -1</clus>
<clus scale="   54.084">  2  5  1 -1</clus>
</clustering>
</event>
<event>
 9    1  0.6270443E-005  0.8996706E+02  0.7546771E-02  0.1309046E+00
         21   -1    0    0  501  502  0.00000000000E+00  0.00000000000E+00  0.15456454108E+03  0.15456454108E+03  0.00000000000E+00 0. -1.
          3   -1    0    0  502    0 -0.00000000000E+00 -0.00000000000E+00 -0.89536702127E+02  0.89536702127E+02  0.00000000000E+00 0. -1.
        -24    2    1    2    0    0  0.80513100400E+01 -0.19061098119E+02 -0.14182873078E+02  0.83871831492E+02  0.80032375787E+02 0.  0.
         23    2    1    2    0    0  0.18350007028E+02 -0.18057299044E+02  0.59608944994E+02  0.11064076159E+03  0.89584390351E+02 0.  0.
         11    1    3    3    0    0 -0.26937191755E+01 -0.35025606428E+02  0.23010902303E+02  0.41994652677E+02  0.00000000000E+00 0. -1.
        -12    1    3    3    0    0  0.10745029216E+02  0.15964508309E+02 -0.37193775381E+02  0.41877178815E+02  0.00000000000E+00 0.  1.
        -11    1    4    4    0    0 -0.93930137664E+01 -0.30410819559E+02 -0.11082022377E+02  0.33702490617E+02  0.00000000000E+00 0.  1.
         11    1    4    4    0    0  0.27743020794E+02  0.12353520515E+02  0.70690967371E+02  0.76938270969E+02  0.00000000000E+00 0. -1.
          4    1    1    2  501    0 -0.26401317068E+02  0.37118397163E+02  0.19601767040E+02  0.49588650132E+02  0.00000000000E+00 0. -1.
<scales pt_clust_5="13000.00000" pt_clust_6="13000.00000" pt_clust_7="13000.00000" pt_clust_8="13000.00000" pt_clust_9="45.55003"></scales>
<clustering>
<clus scale="   45.550">  1  9  2 -1</clus>
<clus scale="   80.032">  5  6 -1 -1</clus>
<clus scale="   80.460">  2  5  1 -1</clus>
<clus scale="   89.584">  7  8 -1 -1</clus>
<clus scale="   45.550">  1  5  2 -1</clus>
</clustering>
</event>
<event>
 9    1  0.6270443E-005  0.1583304E+03  0.7546771E-02  0.1205888E+00
          1   -1    0    0  502    0 -0.00000000000E+00  0.00000000000E+00  0.85375698222E+03  0.85375698222E+03  0.00000000000E+00 0. -1.
         21   -1    0    0  501  502  0.00000000000E+00 -0.00000000000E+00 -0.80748505016E+02  0.80748505016E+02  0.00000000000E+00 0. -1.
         23    2    1    2    0    0 -0.45346770514E+02  0.47262799061E+02  0.23039636061E+02  0.11578185841E+03  0.92652642359E+02 0.  0.
        -24    2    1    2    0    0 -0.12374413196E+02 -0.16295501301E+03  0.56008356567E+03  0.58900022719E+03  0.80747784667E+02 0.  0.
         13    1    4    4    0    0 -0.43522202258E+02 -0.56399307412E+02  0.21371263575E+03  0.22527351075E+03  0.00000000000E+00 0. -1.
        -14    1    4    4    0    0  0.31147789062E+02 -0.10655570560E+03  0.34637092992E+03  0.36372671644E+03  0.00000000000E+00 0.  1.
        -13    1    3    3    0    0 -0.15632796090E+02  0.70693406371E+02  0.27980728634E+02  0.77619992224E+02  0.00000000000E+00 0.  1.
         13    1    3    3    0    0 -0.29713974425E+02 -0.23430607310E+02 -0.49410925732E+01  0.38161866187E+02  0.00000000000E+00 0. -1.
          2    1    1    2  501    0  0.57721183710E+02  0.11569221395E+03  0.18988527547E+03  0.22972340163E+03  0.00000000000E+00 0. -1.
<scales pt_clust_5="13000.00000" pt_clust_6="13000.00000" pt_clust_7="13000.00000" pt_clust_8="13000.00000" pt_clust_9="136.19223"></scales>
<clustering>
<clus scale="   80.748">  5  6 -1 -1</clus>
<clus scale="   92.653">  7  8 -1 -1</clus>
<clus scale="  113.466">  1  7  2 -1</clus>
<clus scale="  136.192">  2  9  1 -1</clus>
<clus scale="  136.192">  2  5  1 -1</clus>
</clustering>
</event>
<event>
 9    1  0.6270443E-005  0.9752314E+02  0.7546771E-02  0.1293231E+00
         21   -1    0    0  501  502  0.00000000000E+00  0.00000000000E+00  0.22815533908E+03  0.22815533908E+03  0.00000000000E+00 0. -1.
         -4   -1    0    0    0  501 -0.00000000000E+00 -0.00000000000E+00 -0.17027825762E+03  0.17027825762E+03  0.00000000000E+00 0.  1.
        -24    2    1    2    0    0  0.15640568544E+02  0.18403338221E+02 -0.13819113610E+03  0.16219155401E+03  0.81400244804E+02 0.  0.
         23    2    1    2    0    0 -0.19685543763E+02  0.86956744145E+01  0.11466946043E+03  0.15035562949E+03  0.94839837495E+02 0.  0.
         11    1    3    3    0    0 -0.32957308169E+02  0.28001590309E+00 -0.50250560103E+02  0.60094769834E+02  0.00000000000E+00 0. -1.
        -12    1    3    3    0    0  0.48597876713E+02  0.18123322318E+02 -0.87940576000E+02  0.10209678418E+03  0.00000000000E+00 0.  1.
        -13    1    4    4    0    0  0.17489027106E+02  0.19860228136E+02  0.10772076523E+03  0.11092365840E+03  0.00000000000E+00 0. -1.
         13    1    4    4    0    0 -0.37174570869E+02 -0.11164553721E+02  0.69486952032E+01  0.39431971091E+02  0.00000000000E+00 0.  1.
         -3    1    1    2    0  502  0.40449752192E+01 -0.27099012636E+02  0.81398757134E+02  0.85886413205E+02  0.00000000000E+00 0.  1.
<scales pt_clust_5="13000.00000" pt_clust_6="13000.00000" pt_clust_7="13000.00000" pt_clust_8="13000.00000" pt_clust_9="27.39924"></scales>
<clustering>
<clus scale="   27.399">  1  9  2 -1</clus>
<clus scale="   81.400">  5  6 -1 -1</clus>
<clus scale="   84.511">  2  5  1 -1</clus>
<clus scale="   94.840">  7  8 -1 -1</clus>
<clus scale="   27.399">  1  5  2 -1</clus>
</clustering>
</event>
<event>
 9    1  0.6270443E-005  0.1198896E+03  0.7546771E-02  0.1248862E+00
         -4   -1    0    0    0  501 -0.00000000000E+00  0.00000000000E+00  0.10008717763E+03  0.10008717763E+03  0.00000000000E+00 0.  1.
         21   -1    0    0  501  502  0.00000000000E+00 -0.00000000000E+00 -0.23739779564E+03  0.23739779564E+03  0.00000000000E+00 0.  1.
        -24    2    1    2    0    0 -0.59904911131E+02  0.48262824997E+02  0.55466181556E+01  0.10784841515E+03  0.75383134879E+02 0.  0.
         23    2    1    2    0    0  0.25282097951E+02 -0.80073834736E+02 -0.70970914020E+02  0.14373939376E+03  0.92591247937E+02 0.  0.
         11    1    3    3    0    0  0.11678884151E+02  0.27459582945E+02 -0.10429829653E+02  0.31610225831E+02  0.00000000000E+00 0. -1.
        -12    1    3    3    0    0 -0.71583795281E+02  0.20803242052E+02  0.15976447809E+02  0.76238189324E+02  0.00000000000E+00 0.  1.
        -13    1    4    4    0    0 -0.88188356836E+01 -0.81633781292E+02 -0.72546292611E+02  0.10956646696E+03  0.00000000000E+00 0.  1.
         13    1    4    4    0    0  0.34100933635E+02  0.15599465558E+01  0.15753785910E+01  0.34172926795E+02  0.00000000000E+00 0. -1.
         -3    1    1    2    0  502  0.34622813179E+02  0.31811009739E+02 -0.71886322145E+02  0.85897164357E+02  0.00000000000E+00 0.  1.
<scales pt_clust_5="13000.00000" pt_clust_6="13000.00000" pt_clust_7="13000.00000" pt_clust_8="13000.00000" pt_clust_9="47.01786"></scales>
<clustering>
<clus scale="   47.018">  2  9  1 -1</clus>
<clus scale="   75.383">  5  6 -1 -1</clus>
<clus scale="   92.591">  7  8 -1 -1</clus>
<clus scale="  107.159">  1  5  2 -1</clus>
<clus scale="   47.018">  2  5  1 -1</clus>
</clustering>
</event>
<event>
 9    1  0.6270443E-005  0.9102519E+02  0.7546771E-02  0.1306546E+00
          3   -1    0    0  502    0 -0.00000000000E+00  0.00000000000E+00  0.27254371011E+03  0.27254371011E+03  0.00000000000E+00 0. -1.
         21   -1    0    0  501  502  0.00000000000E+00 -0.00000000000E+00 -0.92485600459E+02  0.92485600459E+02  0.00000000000E+00 0. -1.
         23    2    1    2    0    0  0.48555862869E+01  0.36772427095E+01  0.22699441635E+03  0.24459822886E+03  0.90910558661E+02 0.  0.
        -24    2    1    2    0    0 -0.25810218074E+01  0.21458342559E+02 -0.26904235407E+02  0.88209114512E+02  0.81178124278E+02 0.  0.
         13    1    4    4    0    0  0.23890948676E+02  0.32892759641E+01  0.20025804035E+02  0.31346923170E+02  0.00000000000E+00 0. -1.
        -14    1    4    4    0    0 -0.26471970484E+02  0.18169066595E+02 -0.46930039441E+02  0.56862191342E+02  0.00000000000E+00 0.  1.
        -11    1    3    3    0    0 -0.21428757877E+02 -0.35062781338E+02  0.13871673414E+03  0.14467523157E+03  0.00000000000E+00 0.  1.
         11    1    3    3    0    0  0.26284344164E+02  0.38740024048E+02  0.88277682204E+02  0.99922997286E+02  0.00000000000E+00 0. -1.
          4    1    1    2  501    0 -0.22745644795E+01 -0.25135585268E+02 -0.20032071285E+02  0.32221967201E+02  0.00000000000E+00 0. -1.
<scales pt_clust_5="13000.00000" pt_clust_6="13000.00000" pt_clust_7="13000.00000" pt_clust_8="13000.00000" pt_clust_9="25.23829"></scales>
<clustering>
<clus scale="   25.238">  2  9  1 -1</clus>
<clus scale="   81.178">  5  6 -1 -1</clus>
<clus scale="   81.306">  2  5  1 -1</clus>
<clus scale="   90.911">  7  8 -1 -1</clus>
<clus scale="   25.238">  2  5  1 -1</clus>
</clustering>
</event>
<event>
 9    1  0.6270443E-005  0.1341551E+03  0.7546771E-02  0.1224949E+00
          3   -1    0    0  502    0 -0.00000000000E+00  0.00000000000E+00  0.23850963224E+03  0.23850963224E+03  0.00000000000E+00 0. -1.
         21   -1    0    0  501  502  0.00000000000E+00 -0.00000000000E+00 -0.29597648346E+03  0.29597648346E+03  0.00000000000E+00 0. -1.
         23    2    1    2    0    0 -0.10692089091E+03  0.15000694273E+02  0.16972088634E+03  0.22283276339E+03  0.95875770880E+02 0.  0.
        -24    2    1    2    0    0  0.13877849621E+02 -0.66548116001E+02 -0.10347052201E+03  0.14849669863E+03  0.81999232474E+02 0.  0.
         11    1    4    4    0    0  0.35953419851E+02 -0.46466499156E+02 -0.23745077897E+02  0.63368861968E+02  0.00000000000E+00 0. -1.
        -12    1    4    4    0    0 -0.22075570230E+02 -0.20081616845E+02 -0.79725444115E+02  0.85127836666E+02  0.00000000000E+00 0.  1.
        -13    1    3    3    0    0 -0.77722803967E+02  0.53341685497E+02  0.12879687799E+03  0.15960828753E+03  0.00000000000E+00 0. -1.
         13    1    3    3    0    0 -0.29198086939E+02 -0.38340991225E+02  0.40924008342E+02  0.63224475860E+02  0.00000000000E+00 0.  1.
          4    1    1    2  501    0  0.93043041285E+02  0.51547421729E+02 -0.12371721554E+03  0.16315665368E+03  0.00000000000E+00 0. -1.
<scales pt_clust_5="13000.00000" pt_clust_6="13000.00000" pt_clust_7="13000.00000" pt_clust_8="13000.00000" pt_clust_9="106.36797"></scales>
<clustering>
<clus scale="   81.999">  5  6 -1 -1</clus>
<clus scale="   95.876">  7  8 -1 -1</clus>
<clus scale="  106.368">  2  9  1 -1</clus>
<clus scale="  124.617">  2  5  1 -1</clus>
<clus scale="  106.368">  2  5  1 -1</clus>
</clustering>
</event>
<event>
 9    1  0.6270443E-005  0.2859367E+03  0.7546771E-02  0.1092849E+00
         21   -1    0    0  501  502  0.00000000000E+00  0.00000000000E+00  0.76788434531E+02  0.76788434531E+02  0.00000000000E+00 0. -1.
          1   -1    0    0  502    0 -0.00000000000E+00 -0.00000000000E+00 -0.17275615136E+04  0.17275615136E+04  0.00000000000E+00 0. -1.
         23    2    1    2    0    0  0.33236631694E+03 -0.88566740533E+01 -0.10770562922E+04  0.11306556951E+04  0.88239645473E+02 0.  0.
        -24    2    1    2    0    0 -0.20920546912E+03 -0.73277943291E+01 -0.42152837655E+03  0.47724618435E+03  0.79101980739E+02 0.  0.
         13    1    4    4    0    0 -0.86416790147E+02  0.25604675644E+01 -0.96010673764E+02  0.12919933084E+03  0.00000000000E+00 0. -1.
        -14    1    4    4    0    0 -0.12278867898E+03 -0.98882618935E+01 -0.32551770279E+03  0.34804685351E+03  0.00000000000E+00 0.  1.
        -11    1    3    3    0    0  0.20742943559E+03  0.22737351906E+02 -0.55510554998E+03  0.59303130570E+03  0.00000000000E+00 0. -1.
         11    1    3    3    0    0  0.12493688134E+03 -0.31594025960E+02 -0.52195074220E+03  0.53762438940E+03  0.00000000000E+00 0.  1.
          2    1    1    2  501    0 -0.12316084781E+03  0.16184468382E+02 -0.15218841038E+03  0.19644806872E+03  0.00000000000E+00 0. -1.
<scales pt_clust_5="13000.00000" pt_clust_6="13000.00000" pt_clust_7="13000.00000" pt_clust_8="13000.00000" pt_clust_9="124.21969"></scales>
<clustering>
<clus scale="   79.102">  5  6 -1 -1</clus>
<clus scale="   88.240">  7  8 -1 -1</clus>
<clus scale="  124.220">  1  9  2 -1</clus>
<clus scale="  283.250">  1  5  2 -1</clus>
<clus scale="  124.220">  1  5  2 -1</clus>
</clustering>
</event>
<event>
 9    1  0.6270443E-005  0.9755195E+02  0.7546771E-02  0.1292160E+00
         21   -1    0    0  501  502  0.00000000000E+00  0.00000000000E+00  0.12810785772E+04  0.12810785772E+04  0.00000000000E+00 0.  1.
          3   -1    0    0  502    0 -0.00000000000E+00 -0.00000000000E+00 -0.26650641350E+02  0.26650641350E+02  0.00000000000E+00 0. -1.
         23    2    1    2    0    0  0.17805785021E+02 -0.81428606714E+01  0.12509733032E+03  0.15689863664E+03  0.92652511929E+02 0.  0.
        -24    2    1    2    0    0 -0.97368572419E+02  0.20690014584E+02  0.86723840985E+03  0.87664088982E+03  0.80548585259E+02 0.  0.
         13    1    4    4    0    0 -0.13117609900E+02  0.38154104170E+02  0.21513178630E+03  0.21888237213E+03  0.00000000000E+00 0. -1.
        -14    1    4    4    0    0 -0.84250962520E+02 -0.17464089587E+02  0.65210662355E+03  0.65775851769E+03  0.00000000000E+00 0.  1.
        -11    1    3    3    0    0 -0.54549648256E+00  0.41612949658E+02  0.52482395501E+02  0.66980123792E+02  0.00000000000E+00 0.  1.
         11    1    3    3    0    0  0.18351281503E+02 -0.49755810329E+02  0.72614934814E+02  0.89918512846E+02  0.00000000000E+00 0. -1.
          4    1    1    2  501    0  0.79562787399E+02 -0.12547153912E+02  0.26209219564E+03  0.27418969205E+03  0.00000000000E+00 0. -1.
<scales pt_clust_5="13000.00000" pt_clust_6="13000.00000" pt_clust_7="13000.00000" pt_clust_8="13000.00000" pt_clust_9="80.54610"></scales>
<clustering>
<clus scale="   80.546">  1  9  2 -1</clus>
<clus scale="   80.549">  5  6 -1 -1</clus>
<clus scale="   86.139">  1  5  2 -1</clus>
<clus scale="   92.653">  7  8 -1 -1</clus>
<clus scale="   80.546">  1  5  2 -1</clus>
</clustering>
</event>
<event>
 9    1  0.6270443E-005  0.8694649E+02  0.7546771E-02  0.1311789E+00
         21   -1    0    0  501  502  0.00000000000E+00  0.00000000000E+00  0.82796477731E+03  0.82796477731E+03  0.00000000000E+00 0.  1.
          1   -1    0    0  502    0 -0.00000000000E+00 -0.00000000000E+00 -0.16378155790E+02  0.16378155790E+02  0.00000000000E+00 0. -1.
         23    2    1    2    0    0 -0.35310457071E+00 -0.29425067530E+02  0.15623445411E+03  0.17955611164E+03  0.83457973212E+02 0.  0.
        -24    2    1    2    0    0  0.18052875094E+02  0.82260740726E+01  0.46844322491E+03  0.47584865172E+03  0.81236135954E+02 0.  0.
         13    1    4    4    0    0 -0.33403422293E+01  0.42815443323E+02  0.23743701274E+03  0.24128956690E+03  0.00000000000E+00 0. -1.
        -14    1    4    4    0    0  0.21393217323E+02 -0.34589369250E+02  0.23100621217E+03  0.23455908482E+03  0.00000000000E+00 0.  1.
        -13    1    3    3    0    0  0.37424575812E+02 -0.19367484323E+02  0.44990358502E+02  0.61642766663E+02  0.00000000000E+00 0.  1.
         13    1    3    3    0    0 -0.37777680382E+02 -0.10057583206E+02  0.11124409561E+03  0.11791334497E+03  0.00000000000E+00 0. -1.
          2    1    1    2  501    0 -0.17699770523E+02  0.21198993457E+02  0.18690894250E+03  0.18893816974E+03  0.00000000000E+00 0. -1.
<scales pt_clust_5="13000.00000" pt_clust_6="13000.00000" pt_clust_7="13000.00000" pt_clust_8="13000.00000" pt_clust_9="27.61665"></scales>
<clustering>
<clus scale="   27.617">  1  9  2 -1</clus>
<clus scale="   81.236">  5  6 -1 -1</clus>
<clus scale="   83.458">  7  8 -1 -1</clus>
<clus scale="   84.816">  1  5  2 -1</clus>
<clus scale="   27.617">  1  5  2 -1</clus>
</clustering>
</event>
<event>
 9    1  0.6270443E-005  0.1569717E+03  0.7546771E-02  0.1214779E+00
         21   -1    0    0  501  502  0.00000000000E+00  0.00000000000E+00  0.60793223802E+02  0.60793223802E+02  0.00000000000E+00 0. -1.
          1   -1    0    0  502    0 -0.00000000000E+00 -0.00000000000E+00 -0.75750743423E+03  0.75750743423E+03  0.00000000000E+00 0. -1.
         23    2    1    2    0    0 -0.34557758374E+02  0.33211130417E+02 -0.53188723303E+02  0.11002481832E+03  0.83541621432E+02 0.  0.
        -24    2    1    2    0    0  0.15331714194E+03 -0.31909417495E+02 -0.35484897532E+03  0.39612264959E+03  0.80442534099E+02 0.  0.
         11    1    4    4    0    0  0.14264444109E+03 -0.52730003386E+02 -0.31764108390E+03  0.35217005553E+03  0.00000000000E+00 0. -1.
        -12    1    4    4    0    0  0.10672700848E+02  0.20820585892E+02 -0.37207891414E+02  0.43952594050E+02  0.00000000000E+00 0.  1.
        -11    1    3    3    0    0 -0.39865162846E+02 -0.86888198339E+01 -0.54123595593E+02  0.67779719672E+02  0.00000000000E+00 0.  1.
         11    1    3    3    0    0  0.53074044716E+01  0.41899950251E+02  0.93487229074E+00  0.42245098644E+02  0.00000000000E+00 0. -1.
          2    1    1    2  501    0 -0.11875938356E+03 -0.13017129217E+01 -0.28867651181E+03  0.31215319013E+03  0.00000000000E+00 0. -1.
<scales pt_clust_5="13000.00000" pt_clust_6="13000.00000" pt_clust_7="13000.00000" pt_clust_8="13000.00000" pt_clust_9="134.79280"></scales>
<clustering>
<clus scale="   80.443">  5  6 -1 -1</clus>
<clus scale="   83.542">  7  8 -1 -1</clus>
<clus scale="   96.314">  2  7  1 -1</clus>
<clus scale="  134.793">  1  9  2 -1</clus>
<clus scale="  134.793">  1  5  2 -1</clus>
</clustering>
</event>
<event>
 9    1  0.6270443E-005  0.9248982E+02  0.7546771E-02  0.1299412E+00
         21   -1    0    0  501  502  0.00000000000E+00  0.00000000000E+00  0.41988397024E+02  0.41988397024E+02  0.00000000000E+00 0.  1.
          1   -1    0    0  502    0 -0.00000000000E+00 -0.00000000000E+00 -0.80681935242E+03  0.80681935242E+03  0.00000000000E+00 0. -1.
         23    2    1    2    0    0 -0.18033849747E+02 -0.15633802955E+02 -0.38233453796E+03  0.39373339933E+03  0.90976124906E+02 0.  0.
        -24    2    1    2    0    0 -0.16962151604E+02 -0.21664264762E+02 -0.25623087657E+02  0.94554670379E+02  0.86758216410E+02 0.  0.
         11    1    4    4    0    0 -0.29876989472E+02 -0.11194271526E+02 -0.53386565144E+02  0.62193822465E+02  0.00000000000E+00 0. -1.
        -12    1    4    4    0    0  0.12914837868E+02 -0.10469993236E+02  0.27763477487E+02  0.32360847914E+02  0.00000000000E+00 0.  1.
        -11    1    3    3    0    0 -0.30072930327E+02  0.28479637779E+02 -0.10906831579E+03  0.11666776940E+03  0.00000000000E+00 0. -1.
         11    1    3    3    0    0  0.12039080580E+02 -0.44113440734E+02 -0.27326622216E+03  0.27706562993E+03  0.00000000000E+00 0.  1.
          2    1    1    2  501    0  0.34996001351E+02  0.37298067717E+02 -0.35687332979E+03  0.36051967974E+03  0.00000000000E+00 0. -1.
<scales pt_clust_5="13000.00000" pt_clust_6="13000.00000" pt_clust_7="13000.00000" pt_clust_8="13000.00000" pt_clust_9="51.14556"></scales>
<clustering>
<clus scale="   51.146">  1  9  2 -1</clus>
<clus scale="   86.758">  5  6 -1 -1</clus>
<clus scale="   88.344">  1  5  2 -1</clus>
<clus scale="   90.976">  7  8 -1 -1</clus>
<clus scale="   51.146">  1  5  2 -1</clus>
</clustering>
</event>
<event>
 9    1  0.6270443E-005  0.1010263E+03  0.7546771E-02  0.1287859E+00
          1   -1    0    0  502    0 -0.00000000000E+00  0.00000000000E+00  0.50498835699E+03  0.50498835699E+03  0.00000000000E+00 0. -1.
         21   -1    0    0  501  502  0.00000000000E+00 -0.00000000000E+00 -0.58999174180E+02  0.58999174180E+02  0.00000000000E+00 0. -1.
        -24    2    1    2    0    0 -0.76789754719E+00 -0.21267795777E+02  0.17662264917E+03  0.19520998193E+03  0.80364594466E+02 0.  0.
         23    2    1    2    0    0 -0.40799600574E+02  0.37463678323E+02  0.18599840757E+02  0.11407360782E+03  0.97972952007E+02 0.  0.
         11    1    3    3    0    0  0.22712547749E+02 -0.44440973598E+02  0.11343346183E+03  0.12392743934E+03  0.00000000000E+00 0. -1.
        -12    1    3    3    0    0 -0.23480445297E+02  0.23173177821E+02  0.63189187337E+02  0.71282542589E+02  0.00000000000E+00 0.  1.
        -13    1    4    4    0    0 -0.18521065608E+02  0.66464622022E+02 -0.71218428223E+01  0.69363509837E+02  0.00000000000E+00 0. -1.
         13    1    4    4    0    0 -0.22278534965E+02 -0.29000943699E+02  0.25721683580E+02  0.44710097985E+02  0.00000000000E+00 0.  1.
          2    1    1    2  501    0  0.41567498121E+02 -0.16195882546E+02  0.25076669288E+03  0.25470394141E+03  0.00000000000E+00 0. -1.
<scales pt_clust_5="13000.00000" pt_clust_6="13000.00000" pt_clust_7="13000.00000" pt_clust_8="13000.00000" pt_clust_9="44.61127"></scales>
<clustering>
<clus scale="   44.611">  2  9  1 -1</clus>
<clus scale="   80.365">  5  6 -1 -1</clus>
<clus scale="   84.060">  1  5  2 -1</clus>
<clus scale="   97.973">  7  8 -1 -1</clus>
<clus scale="   44.611">  2  5  1 -1</clus>
</clustering>
</event>
<event>
 9    1  0.6270443E-005  0.1062820E+03  0.7546771E-02  0.1272752E+00
         21   -1    0    0  501  502  0.00000000000E+00  0.00000000000E+00  0.27475086877E+02  0.27475086877E+02  0.00000000000E+00 0. -1.
          3   -1    0    0  502    0 -0.00000000000E+00 -0.00000000000E+00 -0.62261128140E+03  0.62261128140E+03  0.00000000000E+00 0. -1.
        -24    2    1    2    0    0  0.55062571341E+02 -0.19384392512E+02 -0.37991005342E+03  0.39267549562E+03  0.80341488270E+02 0.  0.
         23    2    1    2    0    0 -0.24680860927E+02  0.40544511050E+02 -0.14838834340E+03  0.18100347677E+03  0.92142041833E+02 0.  0.
         11    1    3    3    0    0  0.50921767619E+02 -0.45623182111E+02 -0.21411552530E+03  0.22476645510E+03  0.00000000000E+00 0. -1.
        -12    1    3    3    0    0  0.41408037223E+01  0.26238789599E+02 -0.16579452812E+03  0.16790904052E+03  0.00000000000E+00 0.  1.
        -11    1    4    4    0    0 -0.50474439569E+02  0.53472075119E+02 -0.11850830382E+03  0.13946737949E+03  0.00000000000E+00 0.  1.
         11    1    4    4    0    0  0.25793578642E+02 -0.12927564069E+02 -0.29880039582E+02  0.41536097281E+02  0.00000000000E+00 0. -1.
          4    1    1    2  501    0 -0.30381710414E+02 -0.21160118538E+02 -0.66837797713E+02  0.76407395895E+02  0.00000000000E+00 0. -1.
<scales pt_clust_5="13000.00000" pt_clust_6="13000.00000" pt_clust_7="13000.00000" pt_clust_8="13000.00000" pt_clust_9="37.02430"></scales>
<clustering>
<clus scale="   37.024">  1  9  2 -1</clus>
<clus scale="   80.341">  5  6 -1 -1</clus>
<clus scale="   92.142">  7  8 -1 -1</clus>
<clus scale="   96.231">  2  5  1 -1</clus>
<clus scale="   37.024">  1  5  2 -1</clus>
</clustering>
</event>
<event>
 9    1  0.6270443E-005  0.2309928E+03  0.7546771E-02  0.1139619E+00
         21   -1    0    0  501  502  0.00000000000E+00  0.00000000000E+00  0.68734906413E+02  0.68734906413E+02  0.00000000000E+00 0. -1.
          1   -1    0    0  502    0 -0.00000000000E+00 -0.00000000000E+00 -0.17328568036E+04  0.17328568036E+04  0.00000000000E+00 0. -1.
         23    2    1    2    0    0 -0.94514630062E+02  0.10348618912E+03 -0.25348130704E+03  0.30265483012E+03  0.87776799563E+02 0.  0.
        -24    2    1    2    0    0 -0.32510345846E+01 -0.24725681902E+03 -0.42464899370E+03  0.49773382982E+03  0.79156135085E+02 0.  0.
         13    1    4    4    0    0 -0.11871295054E+02 -0.20086782113E+03 -0.39113866304E+03  0.43986164067E+03  0.00000000000E+00 0. -1.
        -14    1    4    4    0    0  0.86202604698E+01 -0.46388997897E+02 -0.33510330665E+02  0.57872189156E+02  0.00000000000E+00 0.  1.
        -13    1    3    3    0    0  0.13094004081E+02  0.19461631987E+02 -0.70857199821E+02  0.74638802435E+02  0.00000000000E+00 0.  1.
         13    1    3    3    0    0 -0.10760863414E+03  0.84024557131E+02 -0.18262410722E+03  0.22801602769E+03  0.00000000000E+00 0. -1.
          2    1    1    2  501    0  0.97765664647E+02  0.14377062990E+03 -0.98599159646E+03  0.10012030501E+04  0.00000000000E+00 0. -1.
<scales pt_clust_5="13000.00000" pt_clust_6="13000.00000" pt_clust_7="13000.00000" pt_clust_8="13000.00000" pt_clust_9="217.00694"></scales>
<clustering>
<clus scale="   79.156">  5  6 -1 -1</clus>
<clus scale="   87.777">  7  8 -1 -1</clus>
<clus scale="  165.370">  2  7  1 -1</clus>
<clus scale="  217.007">  1  9  2 -1</clus>
<clus scale="  217.007">  1  5  2 -1</clus>
</clustering>
</event>
<event>
 9    1  0.6270443E-005  0.9736215E+02  0.7546771E-02  0.1291946E+00
          1   -1    0    0  502    0 -0.00000000000E+00  0.00000000000E+00  0.10556305876E+03  0.10556305876E+03  0.00000000000E+00 0. -1.
         21   -1    0    0  501  502  0.00000000000E+00 -0.00000000000E+00 -0.24442708667E+03  0.24442708667E+03  0.00000000000E+00 0. -1.
        -24    2    1    2    0    0  0.22367662643E+02 -0.18193905083E+02  0.46235592672E+02  0.97519241909E+02  0.80876090400E+02 0.  0.
         23    2    1    2    0    0 -0.45888197147E+01  0.55492114073E+02 -0.65349055136E+02  0.12579240663E+03  0.91939102501E+02 0.  0.
         13    1    3    3    0    0  0.93383838442E+01 -0.50013213821E+02  0.33178439971E+02  0.60739903263E+02  0.00000000000E+00 0. -1.
        -14    1    3    3    0    0  0.13029278799E+02  0.31819308738E+02  0.13057152701E+02  0.36779338646E+02  0.00000000000E+00 0.  1.
        -11    1    4    4    0    0  0.37364043802E+02  0.12039805007E+02 -0.49821061243E+02  0.63428438553E+02  0.00000000000E+00 0.  1.
         11    1    4    4    0    0 -0.41952863516E+02  0.43452309066E+02 -0.15527993893E+02  0.62363968080E+02  0.00000000000E+00 0. -1.
          2    1    1    2  501    0 -0.17778842928E+02 -0.37298208990E+02 -0.11975056544E+03  0.12667849689E+03  0.00000000000E+00 0. -1.
<scales pt_clust_5="13000.00000" pt_clust_6="13000.00000" pt_clust_7="13000.00000" pt_clust_8="13000.00000" pt_clust_9="41.31881"></scales>
<clustering>
<clus scale="   41.319">  2  9  1 -1</clus>
<clus scale="   80.876">  5  6 -1 -1</clus>
<clus scale="   86.992">  1  5  2 -1</clus>
<clus scale="   91.939">  7  8 -1 -1</clus>
<clus scale="   41.319">  2  5  1 -1</clus>
</clustering>
</event>
<event>
 9    1  0.6270443E-005  0.1977885E+03  0.7546771E-02  0.1183919E+00
          1   -1    0    0  502    0 -0.00000000000E+00  0.00000000000E+00  0.33627306566E+03  0.33627306566E+03  0.00000000000E+00 0. -1.
         21   -1    0    0  501  502  0.00000000000E+00 -0.00000000000E+00 -0.33403924602E+03  0.33403924602E+03  0.00000000000E+00 0. -1.
         23    2    1    2    0    0  0.23836663471E+02  0.81479911473E+00  0.12173971755E+03  0.15392419640E+03  0.91122165173E+02 0.  0.
        -24    2    1    2    0    0 -0.20014283185E+03 -0.11833756844E+02  0.96962050146E+02  0.23698937696E+03  0.81025518683E+02 0.  0.
         11    1    4    4    0    0 -0.18278554274E+03  0.14594567210E+02  0.73203399729E+02  0.19743934197E+03  0.00000000000E+00 0. -1.
        -12    1    4    4    0    0 -0.17357289119E+02 -0.26428324055E+02  0.23758650417E+02  0.39550034988E+02  0.00000000000E+00 0.  1.
        -11    1    3    3    0    0 -0.41086186017E+01 -0.22338130636E+02  0.11473803768E+03  0.11696448229E+03  0.00000000000E+00 0.  1.
         11    1    3    3    0    0  0.27945282073E+02  0.23152929750E+02  0.70016798694E+01  0.36959714111E+02  0.00000000000E+00 0. -1.
          2    1    1    2  501    0  0.17630616838E+03  0.11018957730E+02 -0.21646794806E+03  0.27939873832E+03  0.00000000000E+00 0. -1.
<scales pt_clust_5="13000.00000" pt_clust_6="13000.00000" pt_clust_7="13000.00000" pt_clust_8="13000.00000" pt_clust_9="180.43051"></scales>
<clustering>
<clus scale="   81.026">  5  6 -1 -1</clus>
<clus scale="   91.122">  7  8 -1 -1</clus>
<clus scale="   94.192">  1  7  2 -1</clus>
<clus scale="  180.431">  2  9  1 -1</clus>
<clus scale="  180.431">  2  5  1 -1</clus>
</clustering>
</event>
<event>
 9    1  0.6270443E-005  0.1471171E+03  0.7546771E-02  0.1205821E+00
         21   -1    0    0  501  502  0.00000000000E+00  0.00000000000E+00  0.10644868752E+03  0.10644868752E+03  0.00000000000E+00 0.  1.
         -2   -1    0    0    0  501 -0.00000000000E+00 -0.00000000000E+00 -0.40365414273E+03  0.40365414273E+03  0.00000000000E+00 0.  1.
         23    2    1    2    0    0  0.20298312857E+02 -0.10080916731E+03 -0.21193437159E+03  0.25241379740E+03  0.90675451703E+02 0.  0.
        -24    2    1    2    0    0 -0.70900596677E+02  0.13680590118E+03 -0.88526915133E+02  0.19550417604E+03  0.81499195928E+02 0.  0.
         11    1    4    4    0    0  0.18556510324E+02  0.24318864064E+02 -0.15771647365E+02  0.34416508907E+02  0.00000000000E+00 0. -1.
        -12    1    4    4    0    0 -0.89457107002E+02  0.11248703712E+03 -0.72755267768E+02  0.16108766713E+03  0.00000000000E+00 0.  1.
        -11    1    3    3    0    0 -0.65723067961E+01 -0.85995728063E+02 -0.20283466899E+03  0.22040953566E+03  0.00000000000E+00 0.  1.
         11    1    3    3    0    0  0.26870619653E+02 -0.14813439244E+02 -0.90997025934E+01  0.32004261749E+02  0.00000000000E+00 0. -1.
         -1    1    1    2    0  502  0.50602283820E+02 -0.35996733875E+02  0.32558315108E+01  0.62184856809E+02  0.00000000000E+00 0.  1.
<scales pt_clust_5="13000.00000" pt_clust_6="13000.00000" pt_clust_7="13000.00000" pt_clust_8="13000.00000" pt_clust_9="62.09957"></scales>
<clustering>
<clus scale="   62.100">  1  9  2 -1</clus>
<clus scale="   81.499">  5  6 -1 -1</clus>
<clus scale="   90.675">  7  8 -1 -1</clus>
<clus scale="  141.646">  1  5  2 -1</clus>
<clus scale="   62.100">  1  5  2 -1</clus>
</clustering>
</event>
<event>
 9    1  0.6270443E-005  0.9637466E+02  0.7546771E-02  0.1294509E+00
          3   -1    0    0  502    0 -0.00000000000E+00  0.00000000000E+00  0.24570928966E+03  0.24570928966E+03  0.00000000000E+00 0. -1.
         21   -1    0    0  501  502  0.00000000000E+00 -0.00000000000E+00 -0.62173263065E+02  0.62173263065E+02  0.00000000000E+00 0. -1.
         23    2    1    2    0    0 -0.15220374332E+02  0.28265626671E+02  0.75575449912E+02  0.12192401516E+03  0.90128859953E+02 0.  0.
        -24    2    1    2    0    0 -0.40396963966E+02 -0.35988503077E+02  0.68097063628E+02  0.11709613264E+03  0.78404127144E+02 0.  0.
         13    1    4    4    0    0 -0.43972703932E+02 -0.43934417513E+02  0.15878708245E+02  0.64155787804E+02  0.00000000000E+00 0. -1.
        -14    1    4    4    0    0  0.35757399655E+01  0.79459144358E+01  0.52218355382E+02  0.52940344836E+02  0.00000000000E+00 0.  1.
        -13    1    3    3    0    0 -0.21007037445E+02 -0.28525769395E+02  0.44660252831E+02  0.57004853519E+02  0.00000000000E+00 0.  1.
         13    1    3    3    0    0  0.57866631138E+01  0.56791396066E+02  0.30915197081E+02  0.64919161637E+02  0.00000000000E+00 0. -1.
          4    1    1    2  501    0  0.55617338298E+02  0.77228764065E+01  0.39863513053E+02  0.68862404926E+02  0.00000000000E+00 0. -1.
<scales pt_clust_5="13000.00000" pt_clust_6="13000.00000" pt_clust_7="13000.00000" pt_clust_8="13000.00000" pt_clust_9="56.15097"></scales>
<clustering>
<clus scale="   56.151">  2  9  1 -1</clus>
<clus scale="   78.404">  5  6 -1 -1</clus>
<clus scale="   85.511">  2  5  1 -1</clus>
<clus scale="   90.129">  7  8 -1 -1</clus>
<clus scale="   56.151">  2  5  1 -1</clus>
</clustering>
</event>
<event>
 9    1  0.6270443E-005  0.9685076E+02  0.7546771E-02  0.1294201E+00
          1   -1    0    0  502    0 -0.00000000000E+00  0.00000000000E+00  0.34059794832E+03  0.34059794832E+03  0.00000000000E+00 0. -1.
         21   -1    0    0  501  502  0.00000000000E+00 -0.00000000000E+00 -0.10263963914E+03  0.10263963914E+03  0.00000000000E+00 0.  1.
        -24    2    1    2    0    0  0.38464201516E+01 -0.28658778267E+02  0.28774373187E+03  0.29995918910E+03  0.79642572637E+02 0.  0.
         23    2    1    2    0    0 -0.24322237135E+02  0.25441160888E+02 -0.11270104872E+02  0.99540064501E+02  0.92425025239E+02 0.  0.
         11    1    3    3    0    0  0.63082566974E+01 -0.55873518583E+02  0.21566602895E+03  0.22287548143E+03  0.00000000000E+00 0. -1.
        -12    1    3    3    0    0 -0.24618365458E+01  0.27214740315E+02  0.72077702924E+02  0.77083707672E+02  0.00000000000E+00 0.  1.
        -11    1    4    4    0    0  0.15161582925E+02  0.33835229693E+02 -0.36426404449E+02  0.51976718887E+02  0.00000000000E+00 0.  1.
         11    1    4    4    0    0 -0.39483820060E+02 -0.83940688051E+01  0.25156299577E+02  0.47563345614E+02  0.00000000000E+00 0. -1.
          2    1    1    2  501    0  0.20475816984E+02  0.32176173794E+01 -0.38515317818E+02  0.43738333866E+02  0.00000000000E+00 0. -1.
<scales pt_clust_5="13000.00000" pt_clust_6="13000.00000" pt_clust_7="13000.00000" pt_clust_8="13000.00000" pt_clust_9="20.72709"></scales>
<clustering>
<clus scale="   20.727">  2  9  1 -1</clus>
<clus scale="   79.643">  5  6 -1 -1</clus>
<clus scale="   84.739">  1  5  2 -1</clus>
<clus scale="   92.425">  7  8 -1 -1</clus>
<clus scale="   20.727">  2  5  1 -1</clus>
</clustering>
</event>
<event>
 9    1  0.6270443E-005  0.2366006E+03  0.7546771E-02  0.1122078E+00
         -2   -1    0    0    0  501 -0.00000000000E+00  0.00000000000E+00  0.62939573423E+03  0.62939573423E+03  0.00000000000E+00 0.  1.
         21   -1    0    0  501  502  0.00000000000E+00 -0.00000000000E+00 -0.13391811661E+03  0.13391811661E+03  0.00000000000E+00 0.  1.
        -24    2    1    2    0    0  0.32936078213E+02  0.63255884043E+02  0.28305038974E+03  0.30274571349E+03  0.80320307469E+02 0.  0.
         23    2    1    2    0    0  0.96029445043E+01  0.84761375251E+02  0.26791136095E+03  0.29686973623E+03  0.95280825385E+02 0.  0.
         13    1    3    3    0    0  0.52487194045E+02  0.60158080418E+02  0.16800341903E+03  0.18600819601E+03  0.00000000000E+00 0. -1.
        -14    1    3    3    0    0 -0.19551115832E+02  0.30978036245E+01  0.11504697071E+03  0.11673751748E+03  0.00000000000E+00 0.  1.
        -11    1    4    4    0    0 -0.21742937980E+02  0.47214208894E+02  0.22767905450E+03  0.23353733905E+03  0.00000000000E+00 0.  1.
         11    1    4    4    0    0  0.31345882484E+02  0.37547166356E+02  0.40232306451E+02  0.63332397180E+02  0.00000000000E+00 0. -1.
         -1    1    1    2    0  502 -0.42539022717E+02 -0.14801725929E+03 -0.55484133080E+02  0.16369840111E+03  0.00000000000E+00 0.  1.
<scales pt_clust_5="13000.00000" pt_clust_6="13000.00000" pt_clust_7="13000.00000" pt_clust_8="13000.00000" pt_clust_9="154.00869"></scales>
<clustering>
<clus scale="   80.320">  5  6 -1 -1</clus>
<clus scale="   95.281">  7  8 -1 -1</clus>
<clus scale="  100.470">  5  7 -1 -1</clus>
<clus scale="  154.009">  2  9  1 -1</clus>
<clus scale="  154.009">  2  5  1 -1</clus>
</clustering>
</event>
<event>
 9    1  0.6270443E-005  0.2212078E+03  0.7546771E-02  0.1133672E+00
         21   -1    0    0  501  502  0.00000000000E+00  0.00000000000E+00  0.18122173472E+03  0.18122173472E+03  0.00000000000E+00 0. -1.
          1   -1    0    0  502    0 -0.00000000000E+00 -0.00000000000E+00 -0.58987942333E+03  0.58987942333E+03  0.00000000000E+00 0. -1.
         23    2    1    2    0    0  0.75116093143E+02 -0.22216951590E+03 -0.19060914071E+03  0.31577523945E+03  0.91544721746E+02 0.  0.
        -24    2    1    2    0    0  0.84196742197E+02  0.17268861998E+03 -0.42718045404E+02  0.21331409313E+03  0.82265545991E+02 0.  0.
         11    1    4    4    0    0  0.87758607138E+02  0.17728955646E+03 -0.49952171740E+02  0.20403033946E+03  0.00000000000E+00 0. -1.
        -12    1    4    4    0    0 -0.35618649405E+01 -0.46009364830E+01  0.72341263370E+01  0.92837536715E+01  0.00000000000E+00 0.  1.
        -11    1    3    3    0    0  0.68034737773E+02 -0.75863122119E+02 -0.10402983458E+03  0.14562329939E+03  0.00000000000E+00 0. -1.
         11    1    3    3    0    0  0.70813553698E+01 -0.14630639378E+03 -0.86579306130E+02  0.17015194006E+03  0.00000000000E+00 0.  1.
          2    1    1    2  501    0 -0.15931283534E+03  0.49480895922E+02 -0.17533050249E+03  0.24201182547E+03  0.00000000000E+00 0. -1.
<scales pt_clust_5="13000.00000" pt_clust_6="13000.00000" pt_clust_7="13000.00000" pt_clust_8="13000.00000" pt_clust_9="166.82016"></scales>
<clustering>
<clus scale="   82.266">  5  6 -1 -1</clus>
<clus scale="   91.545">  7  8 -1 -1</clus>
<clus scale="  166.820">  1  9  2 -1</clus>
<clus scale="  217.532">  1  5  2 -1</clus>
<clus scale="  166.820">  1  5  2 -1</clus>
</clustering>
</event>
<event>
 9    1  0.6270443E-005  0.1549313E+03  0.7546771E-02  0.1203632E+00
          1   -1    0    0  502    0 -0.00000000000E+00  0.00000000000E+00  0.72778474379E+03  0.72778474379E+03  0.00000000000E+00 0. -1.
         21   -1    0    0  501  502  0.00000000000E+00 -0.00000000000E+00 -0.89951077417E+02  0.89951077417E+02  0.00000000000E+00 0. -1.
         23    2    1    2    0    0 -0.88402637926E+02 -0.12363484004E+02  0.75510876582E+02  0.14786631347E+03  0.90524427905E+02 0.  0.
        -24    2    1    2    0    0  0.13562143431E+03 -0.10854017547E+03  0.48004083891E+03  0.51618922583E+03  0.76406588126E+02 0.  0.
         11    1    4    4    0    0  0.11831695628E+03 -0.11942477452E+03  0.44390893420E+03  0.47467496329E+03  0.00000000000E+00 0. -1.
        -12    1    4    4    0    0  0.17304478031E+02  0.10884599052E+02  0.36131904716E+02  0.41514262547E+02  0.00000000000E+00 0.  1.
        -13    1    3    3    0    0 -0.77672015444E+02  0.64144946379E+01  0.96335202880E+01  0.78529564100E+02  0.00000000000E+00 0. -1.
         13    1    3    3    0    0 -0.10730622482E+02 -0.18777978642E+02  0.65877356294E+02  0.69336749369E+02  0.00000000000E+00 0.  1.
          2    1    1    2  501    0 -0.47218796384E+02  0.12090365948E+03  0.82281950884E+02  0.15368028191E+03  0.00000000000E+00 0. -1.
<scales pt_clust_5="13000.00000" pt_clust_6="13000.00000" pt_clust_7="13000.00000" pt_clust_8="13000.00000" pt_clust_9="134.78031"></scales>
<clustering>
<clus scale="   76.407">  5  6 -1 -1</clus>
<clus scale="   90.524">  7  8 -1 -1</clus>
<clus scale="  127.132">  1  7  2 -1</clus>
<clus scale="  134.780">  2  9  1 -1</clus>
<clus scale="  134.780">  2  5  1 -1</clus>
</clustering>
</event>
<event>
 9    1  0.6270443E-005  0.3490557E+03  0.7546771E-02  0.1113062E+00
         21   -1    0    0  501  502  0.00000000000E+00  0.00000000000E+00  0.52943342301E+02  0.52943342301E+02  0.00000000000E+00 0. -1.
          1   -1    0    0  502    0 -0.00000000000E+00 -0.00000000000E+00 -0.30305048151E+04  0.30305048151E+04  0.00000000000E+00 0. -1.
        -24    2    1    2    0    0  0.14890332335E+02 -0.43513635332E+02 -0.48570921639E+03  0.49442313085E+03  0.80160033556E+02 0.  0.
         23    2    1    2    0    0 -0.33640466632E+03 -0.47151840508E+02 -0.99709937160E+03  0.10573991316E+04  0.92164912262E+02 0.  0.
         11    1    3    3    0    0  0.28823199177E+02  0.14547391454E+02 -0.19362124273E+03  0.19629464854E+03  0.00000000000E+00 0. -1.
        -12    1    3    3    0    0 -0.13932866842E+02 -0.58061026787E+02 -0.29208797366E+03  0.29812848231E+03  0.00000000000E+00 0.  1.
        -13    1    4    4    0    0 -0.38793708092E+02 -0.34330068909E+02 -0.19524644193E+03  0.20200167946E+03  0.00000000000E+00 0.  1.
         13    1    4    4    0    0 -0.29761095823E+03 -0.12821771598E+02 -0.80185292967E+03  0.85539745213E+03  0.00000000000E+00 0. -1.
          2    1    1    2  501    0  0.32151433398E+03  0.90665475840E+02 -0.14947528848E+04  0.15316258949E+04  0.00000000000E+00 0. -1.
<scales pt_clust_5="13000.00000" pt_clust_6="13000.00000" pt_clust_7="13000.00000" pt_clust_8="13000.00000" pt_clust_9="336.66842"></scales>
<clustering>
<clus scale="   80.160">  5  6 -1 -1</clus>
<clus scale="   92.165">  7  8 -1 -1</clus>
<clus scale="   92.416">  2  5  1 -1</clus>
<clus scale="  336.668">  1  9  2 -1</clus>
<clus scale="  336.668">  1  5  2 -1</clus>
</clustering>
</event>
<event>
 9    1  0.6270443E-005  0.1396765E+03  0.7546771E-02  0.1226199E+00
          1   -1    0    0  502    0 -0.00000000000E+00  0.00000000000E+00  0.35057531274E+03  0.35057531274E+03  0.00000000000E+00 0. -1.
         21   -1    0    0  501  502  0.00000000000E+00 -0.00000000000E+00 -0.17071216563E+03  0.17071216563E+03  0.00000000000E+00 0. -1.
         23    2    1    2    0    0 -0.24148559241E+02  0.47861955756E+02  0.38044087589E+02  0.11410803709E+03  0.93270422994E+02 0.  0.
        -24    2    1    2    0    0  0.10078043976E+03 -0.12877386012E+03  0.20983540976E+03  0.27662138798E+03  0.75822747338E+02 0.  0.
         13    1    4    4    0    0  0.11087895284E+03 -0.12492192612E+03  0.20587235430E+03  0.26510951713E+03  0.00000000000E+00 0. -1.
        -14    1    4    4    0    0 -0.10098513082E+02 -0.38519339967E+01  0.39630554641E+01  0.11511870856E+02  0.00000000000E+00 0.  1.
        -11    1    3    3    0    0  0.32392690001E+02  0.22419984935E+02 -0.33832994709E+01  0.39539711751E+02  0.00000000000E+00 0.  1.
         11    1    3    3    0    0 -0.56541249242E+02  0.25441970821E+02  0.41427387060E+02  0.74568325339E+02  0.00000000000E+00 0. -1.
          2    1    1    2  501    0 -0.76631880521E+02  0.80911904359E+02 -0.68016350240E+02  0.13055805329E+03  0.00000000000E+00 0. -1.
<scales pt_clust_5="13000.00000" pt_clust_6="13000.00000" pt_clust_7="13000.00000" pt_clust_8="13000.00000" pt_clust_9="117.30489"></scales>
<clustering>
<clus scale="   75.823">  5  6 -1 -1</clus>
<clus scale="   93.270">  7  8 -1 -1</clus>
<clus scale="  107.579">  1  7  2 -1</clus>
<clus scale="  117.305">  2  9  1 -1</clus>
<clus scale="  117.305">  2  5  1 -1</clus>
</clustering>
</event>
<event>
 9    1  0.6270443E-005  0.1017070E+03  0.7546771E-02  0.1279181E+00
         21   -1    0    0  501  502  0.00000000000E+00  0.00000000000E+00  0.18373995032E+03  0.18373995032E+03  0.00000000000E+00 0.  1.
          1   -1    0    0  502    0 -0.00000000000E+00 -0.00000000000E+00 -0.12150323887E+03  0.12150323887E+03  0.00000000000E+00 0. -1.
        -24    2    1    2    0    0 -0.29383469248E+02  0.48395682722E+02 -0.63242586757E+02  0.11830047792E+03  0.82400533532E+02 0.  0.
         23    2    1    2    0    0 -0.70424096749E+01 -0.41347491301E+02  0.68671914508E+02  0.11909287339E+03  0.87795615379E+02 0.  0.
         11    1    3    3    0    0  0.17593527763E+02  0.46294005367E+02 -0.17032424737E+02  0.52371467847E+02  0.00000000000E+00 0. -1.
        -12    1    3    3    0    0 -0.46976997011E+02  0.21016773547E+01 -0.46210162020E+02  0.65929010077E+02  0.00000000000E+00 0.  1.
        -11    1    4    4    0    0  0.22358032496E+01 -0.62484459354E+02  0.72453261881E+02  0.95701523678E+02  0.00000000000E+00 0.  1.
         11    1    4    4    0    0 -0.92782129244E+01  0.21136968053E+02 -0.37813473728E+01  0.23391349715E+02  0.00000000000E+00 0. -1.
          2    1    1    2  501    0  0.36425878923E+02 -0.70481914210E+01  0.56807383697E+02  0.67849837878E+02  0.00000000000E+00 0. -1.
<scales pt_clust_5="13000.00000" pt_clust_6="13000.00000" pt_clust_7="13000.00000" pt_clust_8="13000.00000" pt_clust_9="37.10150"></scales>
<clustering>
<clus scale="   37.102">  1  9  2 -1</clus>
<clus scale="   82.401">  5  6 -1 -1</clus>
<clus scale="   87.796">  7  8 -1 -1</clus>
<clus scale="   97.088">  2  5  1 -1</clus>
<clus scale="   37.102">  1  5  2 -1</clus>
</clustering>
</event>
<event>
 9    1  0.6270443E-005  0.1264450E+03  0.7546771E-02  0.1234061E+00
          1   -1    0    0  502    0 -0.00000000000E+00  0.00000000000E+00  0.51326891699E+03  0.51326891699E+03  0.00000000000E+00 0. -1.
         21   -1    0    0  501  502  0.00000000000E+00 -0.00000000000E+00 -0.86690939298E+02  0.86690939298E+02  0.00000000000E+00 0. -1.
        -24    2    1    2    0    0 -0.77217682011E+01 -0.81555617867E+02  0.29060194514E+03  0.31386425117E+03  0.85734083860E+02 0.  0.
         23    2    1    2    0    0 -0.85785769551E+00  0.10159926369E+03  0.18668510239E+03  0.23089807362E+03  0.90218881870E+02 0.  0.
         11    1    3    3    0    0 -0.18443638618E+01 -0.47858368931E+02  0.26939167530E+03  0.27361597153E+03  0.00000000000E+00 0. -1.
        -12    1    3    3    0    0 -0.58774043393E+01 -0.33697248936E+02  0.21210269840E+02  0.40248279644E+02  0.00000000000E+00 0.  1.
        -13    1    4    4    0    0  0.40688302387E+02  0.56900589703E+02  0.68594079887E+02  0.97971234836E+02  0.00000000000E+00 0. -1.
         13    1    4    4    0    0 -0.41546160083E+02  0.44698673984E+02  0.11809102250E+03  0.13292683879E+03  0.00000000000E+00 0.  1.
          2    1    1    2  501    0  0.85796258966E+01 -0.20043645820E+02 -0.50709069843E+02  0.55197531490E+02  0.00000000000E+00 0. -1.
<scales pt_clust_5="13000.00000" pt_clust_6="13000.00000" pt_clust_7="13000.00000" pt_clust_8="13000.00000" pt_clust_9="21.80270"></scales>
<clustering>
<clus scale="   21.803">  2  9  1 -1</clus>
<clus scale="   85.734">  5  6 -1 -1</clus>
<clus scale="   90.219">  7  8 -1 -1</clus>
<clus scale="  123.285">  1  5  2 -1</clus>
<clus scale="   21.803">  2  5  1 -1</clus>
</clustering>
</event>
<event>
 9    1  0.6270443E-005  0.9757503E+02  0.7546771E-02  0.1285738E+00
         21   -1    0    0  501  502  0.00000000000E+00  0.00000000000E+00  0.46450962069E+02  0.46450962069E+02  0.00000000000E+00 0. -1.
          1   -1    0    0  502    0 -0.00000000000E+00 -0.00000000000E+00 -0.35589124233E+03  0.35589124233E+03  0.00000000000E+00 0. -1.
         23    2    1    2    0    0  0.17660744441E+02  0.55148473847E+02 -0.20557547094E+03  0.23133162103E+03  0.88880754812E+02 0.  0.
        -24    2    1    2    0    0 -0.59385072973E+01 -0.12142344059E+02 -0.82249462326E+02  0.12147109136E+03  0.88360339485E+02 0.  0.
         11    1    4    4    0    0 -0.35494240814E+02  0.12876124143E+02 -0.93075381976E+01  0.38887864061E+02  0.00000000000E+00 0. -1.
        -12    1    4    4    0    0  0.29555733516E+02 -0.25018468202E+02 -0.72941924128E+02  0.82583227295E+02  0.00000000000E+00 0.  1.
        -13    1    3    3    0    0  0.34713511453E+02 -0.11387140586E+02 -0.57872727057E+02  0.68439370139E+02  0.00000000000E+00 0.  1.
         13    1    3    3    0    0 -0.17052767012E+02  0.66535614433E+02 -0.14770274388E+03  0.16289225089E+03  0.00000000000E+00 0. -1.
          2    1    1    2  501    0 -0.11722237143E+02 -0.43006129788E+02 -0.21615346998E+02  0.49539492013E+02  0.00000000000E+00 0. -1.
<scales pt_clust_5="13000.00000" pt_clust_6="13000.00000" pt_clust_7="13000.00000" pt_clust_8="13000.00000" pt_clust_9="44.57508"></scales>
<clustering>
<clus scale="   44.575">  1  9  2 -1</clus>
<clus scale="   88.360">  5  6 -1 -1</clus>
<clus scale="   88.881">  7  8 -1 -1</clus>
<clus scale="   97.101">  1  5  2 -1</clus>
<clus scale="   44.575">  1  5  2 -1</clus>
</clustering>
</event>
<event>
 9    1  0.6270443E-005  0.1724263E+03  0.7546771E-02  0.1203126E+00
          1   -1    0    0  502    0 -0.00000000000E+00  0.00000000000E+00  0.56737908141E+03  0.56737908141E+03  0.00000000000E+00 0. -1.
         21   -1    0    0  501  502  0.00000000000E+00 -0.00000000000E+00 -0.12201199528E+03  0.12201199528E+03  0.00000000000E+00 0. -1.
         23    2    1    2    0    0  0.67798308227E+01  0.15755919751E+02  0.90026843327E+01  0.93675300616E+02  0.91650414659E+02 0.  0.
        -24    2    1    2    0    0  0.28451370522E+02 -0.16059974784E+03  0.40370951643E+03  0.44311396211E+03  0.82260867180E+02 0.  0.
         11    1    4    4    0    0  0.47576403589E+01 -0.14070766174E+03  0.37632469976E+03  0.40179791048E+03  0.00000000000E+00 0. -1.
        -12    1    4    4    0    0  0.23693730163E+02 -0.19892086102E+02  0.27384816671E+02  0.41316051634E+02  0.00000000000E+00 0.  1.
        -11    1    3    3    0    0 -0.51614430555E+01 -0.24168963682E+02 -0.28422313014E+02  0.37664401986E+02  0.00000000000E+00 0. -1.
         11    1    3    3    0    0  0.11941273878E+02  0.39924883433E+02  0.37424997347E+02  0.56010898631E+02  0.00000000000E+00 0.  1.
          2    1    1    2  501    0 -0.35231201345E+02  0.14484382809E+03  0.32654885367E+02  0.15260181396E+03  0.00000000000E+00 0. -1.
<scales pt_clust_5="13000.00000" pt_clust_6="13000.00000" pt_clust_7="13000.00000" pt_clust_8="13000.00000" pt_clust_9="151.53872"></scales>
<clustering>
<clus scale="   82.261">  5  6 -1 -1</clus>
<clus scale="   91.650">  7  8 -1 -1</clus>
<clus scale="   93.242">  1  7  2 -1</clus>
<clus scale="  151.539">  2  9  1 -1</clus>
<clus scale="  151.539">  2  5  1 -1</clus>
</clustering>
</event>
<event>
 9    1  0.6270443E-005  0.1310884E+03  0.7546771E-02  0.1227319E+00
         21   -1    0    0  501  502  0.00000000000E+00  0.00000000000E+00  0.34229266050E+02  0.34229266050E+02  0.00000000000E+00 0. -1.
          1   -1    0    0  502    0 -0.00000000000E+00 -0.00000000000E+00 -0.68395665740E+03  0.68395665740E+03  0.00000000000E+00 0. -1.
        -24    2    1    2    0    0 -0.91134989391E+02  0.62861533799E+02 -0.32627733087E+03  0.35387421567E+03  0.80702572160E+02 0.  0.
         23    2    1    2    0    0  0.70041869440E+02 -0.41191226196E+02 -0.16715791900E+03  0.20512076762E+03  0.86776603032E+02 0.  0.
         11    1    3    3    0    0 -0.79923795623E+02  0.70354466721E+02 -0.19733804127E+03  0.22423172529E+03  0.00000000000E+00 0. -1.
        -12    1    3    3    0    0 -0.11211193769E+02 -0.74929329214E+01 -0.12893928959E+03  0.12964249037E+03  0.00000000000E+00 0.  1.
        -13    1    4    4    0    0  0.42630595051E+02  0.13562796708E+02 -0.11927786581E+03  0.12739123345E+03  0.00000000000E+00 0.  1.
         13    1    4    4    0    0  0.27411274389E+02 -0.54754022903E+02 -0.47880053187E+02  0.77729534161E+02  0.00000000000E+00 0. -1.
          2    1    1    2  501    0  0.21093119951E+02 -0.21670307604E+02 -0.15629214149E+03  0.15919094017E+03  0.00000000000E+00 0. -1.
<scales pt_clust_5="13000.00000" pt_clust_6="13000.00000" pt_clust_7="13000.00000" pt_clust_8="13000.00000" pt_clust_9="30.24108"></scales>
<clustering>
<clus scale="   30.241">  1  9  2 -1</clus>
<clus scale="   80.703">  5  6 -1 -1</clus>
<clus scale="   86.777">  7  8 -1 -1</clus>
<clus scale="  127.149">  2  5  1 -1</clus>
<clus scale="   30.241">  1  5  2 -1</clus>
</clustering>
</event>
<event>
 9    1  0.6270443E-005  0.2103180E+03  0.7546771E-02  0.1141884E+00
         21   -1    0    0  501  502  0.00000000000E+00  0.00000000000E+00  0.12182462473E+03  0.12182462473E+03  0.00000000000E+00 0. -1.
          1   -1    0    0  502    0 -0.00000000000E+00 -0.00000000000E+00 -0.46368569036E+03  0.46368569036E+03  0.00000000000E+00 0. -1.
        -24    2    1    2    0    0 -0.20436590331E+03 -0.16738458926E+02 -0.16759734595E+03  0.27691122442E+03  0.80903383097E+02 0.  0.
         23    2    1    2    0    0  0.17377638606E+03  0.15254088894E+02 -0.82895170730E+02  0.21223450350E+03  0.87982700390E+02 0.  0.
         13    1    3    3    0    0 -0.20721528717E+03 -0.40457006094E+01 -0.15501399472E+03  0.25881244462E+03  0.00000000000E+00 0. -1.
        -14    1    3    3    0    0  0.28493838598E+01 -0.12692758317E+02 -0.12583351232E+02  0.18098779801E+02  0.00000000000E+00 0.  1.
        -11    1    4    4    0    0  0.94987397856E+02 -0.32413773300E+02 -0.24903437337E+02  0.10340908878E+03  0.00000000000E+00 0. -1.
         11    1    4    4    0    0  0.78788988201E+02  0.47667862194E+02 -0.57991733393E+02  0.10882541472E+03  0.00000000000E+00 0.  1.
          2    1    1    2  501    0  0.30589517258E+02  0.14843700323E+01 -0.91368548951E+02  0.96364587156E+02  0.00000000000E+00 0. -1.
<scales pt_clust_5="13000.00000" pt_clust_6="13000.00000" pt_clust_7="13000.00000" pt_clust_8="13000.00000" pt_clust_9="30.62553"></scales>
<clustering>
<clus scale="   30.626">  1  9  2 -1</clus>
<clus scale="   80.903">  5  6 -1 -1</clus>
<clus scale="   87.983">  7  8 -1 -1</clus>
<clus scale="  207.456">  2  5  1 -1</clus>
<clus scale="   30.626">  1  5  2 -1</clus>
</clustering>
</event>
<event>
 9    1  0.6270443E-005  0.2365471E+03  0.7546771E-02  0.1122726E+00
          1   -1    0    0  502    0 -0.00000000000E+00  0.00000000000E+00  0.11527208652E+03  0.11527208652E+03  0.00000000000E+00 0. -1.
         21   -1    0    0  501  502  0.00000000000E+00 -0.00000000000E+00 -0.71447786199E+03  0.71447786199E+03  0.00000000000E+00 0. -1.
        -24    2    1    2    0    0  0.20265458242E+03  0.74562629028E+02 -0.75004793224E+02  0.24277022806E+03  0.81750836080E+02 0.  0.
         23    2    1    2    0    0 -0.20510832106E+03 -0.94719903553E+02 -0.48770001262E+03  0.54521062502E+03  0.91444189693E+02 0.  0.
         13    1    3    3    0    0  0.67215303652E+02 -0.13025919745E+02 -0.33500794462E+02  0.76222535118E+02  0.00000000000E+00 0. -1.
        -14    1    3    3    0    0  0.13543927877E+03  0.87588548773E+02 -0.41503998762E+02  0.16654769294E+03  0.00000000000E+00 0.  1.
        -13    1    4    4    0    0 -0.17022668809E+03 -0.71899086830E+02 -0.29533382896E+03  0.34838007198E+03  0.00000000000E+00 0.  1.
         13    1    4    4    0    0 -0.34881632970E+02 -0.22820816723E+02 -0.19236618365E+03  0.19683055303E+03  0.00000000000E+00 0. -1.
          2    1    1    2  501    0  0.24537386322E+01  0.20157274524E+02 -0.36500969626E+02  0.41769095431E+02  0.00000000000E+00 0. -1.
<scales pt_clust_5="13000.00000" pt_clust_6="13000.00000" pt_clust_7="13000.00000" pt_clust_8="13000.00000" pt_clust_9="20.30607"></scales>
<clustering>
<clus scale="   20.306">  2  9  1 -1</clus>
<clus scale="   81.751">  5  6 -1 -1</clus>
<clus scale="   91.444">  7  8 -1 -1</clus>
<clus scale="  232.971">  1  5  2 -1</clus>
<clus scale="   20.306">  2  5  1 -1</clus>
</clustering>
</event>
<event>
 9    1  0.6270443E-005  0.1039665E+03  0.7546771E-02  0.1276548E+00
          1   -1    0    0  502    0 -0.00000000000E+00  0.00000000000E+00  0.97371359917E+03  0.97371359917E+03  0.00000000000E+00 0. -1.
         21   -1    0    0  501  502  0.00000000000E+00 -0.00000000000E+00 -0.36380016796E+02  0.36380016796E+02  0.00000000000E+00 0. -1.
         23    2    1    2    0    0  0.10976722701E+02 -0.37270060934E+02  0.31543395574E+03  0.33046267715E+03  0.90539796048E+02 0.  0.
        -24    2    1    2    0    0 -0.77135314385E+02  0.68037408826E+02  0.13748064738E+03  0.18974795646E+03  0.80773837660E+02 0.  0.
         13    1    4    4    0    0  0.38977659322E+01  0.44540541798E+02  0.33643548888E+02  0.55954810559E+02  0.00000000000E+00 0. -1.
        -14    1    4    4    0    0 -0.81033080317E+02  0.23496867028E+02  0.10383709849E+03  0.13379314590E+03  0.00000000000E+00 0.  1.
        -11    1    3    3    0    0 -0.34626932866E+02  0.15298024050E+01  0.16396810885E+03  0.16759148396E+03  0.00000000000E+00 0. -1.
         11    1    3    3    0    0  0.45603655567E+02 -0.38799863339E+02  0.15146584689E+03  0.16287119319E+03  0.00000000000E+00 0.  1.
          2    1    1    2  501    0  0.66158591684E+02 -0.30767347893E+02  0.48441897924E+03  0.48988298236E+03  0.00000000000E+00 0. -1.
<scales pt_clust_5="13000.00000" pt_clust_6="13000.00000" pt_clust_7="13000.00000" pt_clust_8="13000.00000" pt_clust_9="72.96297"></scales>
<clustering>
<clus scale="   72.963">  2  9  1 -1</clus>
<clus scale="   80.774">  5  6 -1 -1</clus>
<clus scale="   90.540">  7  8 -1 -1</clus>
<clus scale="   95.582">  2  5  1 -1</clus>
<clus scale="   72.963">  2  5  1 -1</clus>
</clustering>
</event>
<event>
 9    1  0.6270443E-005  0.1726253E+03  0.7546771E-02  0.1205907E+00
          1   -1    0    0  502    0 -0.00000000000E+00  0.00000000000E+00  0.39115009234E+03  0.39115009234E+03  0.00000000000E+00 0. -1.
         21   -1    0    0  501  502  0.00000000000E+00 -0.00000000000E+00 -0.47975916294E+03  0.47975916294E+03  0.00000000000E+00 0. -1.
        -24    2    1    2    0    0  0.25090438071E+02 -0.18592531505E+02  0.30585261796E+03  0.31812625348E+03  0.81751311486E+02 0.  0.
         23    2    1    2    0    0 -0.56434032245E+02 -0.13247134266E+03 -0.35426200760E+03  0.39335047900E+03  0.92138877134E+02 0.  0.
         11    1    3    3    0    0 -0.21230047880E+02 -0.32670288606E+02  0.14531436747E+03  0.15044709397E+03  0.00000000000E+00 0. -1.
        -12    1    3    3    0    0  0.46320485951E+02  0.14077757101E+02  0.16053825050E+03  0.16767915952E+03  0.00000000000E+00 0.  1.
        -13    1    4    4    0    0  0.18209613626E+02 -0.42732052185E+02 -0.16106906887E+03  0.16763312101E+03  0.00000000000E+00 0.  1.
         13    1    4    4    0    0 -0.74643645871E+02 -0.89739290478E+02 -0.19319293874E+03  0.22571735800E+03  0.00000000000E+00 0. -1.
          2    1    1    2  501    0  0.31343594174E+02  0.15106387417E+03 -0.40199680958E+02  0.15943252279E+03  0.00000000000E+00 0. -1.
<scales pt_clust_5="13000.00000" pt_clust_6="13000.00000" pt_clust_7="13000.00000" pt_clust_8="13000.00000" pt_clust_9="145.97921"></scales>
<clustering>
<clus scale="   81.751">  5  6 -1 -1</clus>
<clus scale="   87.513">  1  5  2 -1</clus>
<clus scale="   92.139">  7  8 -1 -1</clus>
<clus scale="  145.979">  2  9  1 -1</clus>
<clus scale="  145.979">  2  5  1 -1</clus>
</clustering>
</event>
<event>
 9    1  0.6270443E-005  0.2213814E+03  0.7546771E-02  0.1168207E+00
         21   -1    0    0  501  502  0.00000000000E+00  0.00000000000E+00  0.64012293117E+02  0.64012293117E+02  0.00000000000E+00 0. -1.
          1   -1    0    0  502    0 -0.00000000000E+00 -0.00000000000E+00 -0.11745932548E+04  0.11745932548E+04  0.00000000000E+00 0. -1.
        -24    2    1    2    0    0  0.16712845112E+02 -0.40545929175E+02 -0.19564559228E+03  0.21786754189E+03  0.85239524085E+02 0.  0.
         23    2    1    2    0    0 -0.79660253359E+02 -0.17127633486E+03 -0.29999096279E+03  0.36729506975E+03  0.96071596529E+02 0.  0.
         11    1    3    3    0    0 -0.25890180947E+02  0.66908149360E+01 -0.28765259285E+02  0.39274783458E+02  0.00000000000E+00 0. -1.
        -12    1    3    3    0    0  0.42603026060E+02 -0.47236744111E+02 -0.16688033299E+03  0.17859275843E+03  0.00000000000E+00 0.  1.
        -11    1    4    4    0    0  0.21993411805E+02 -0.42321591542E+02 -0.65247308749E+02  0.80821028034E+02  0.00000000000E+00 0.  1.
         11    1    4    4    0    0 -0.10165366516E+03 -0.12895474332E+03 -0.23474365404E+03  0.28647404172E+03  0.00000000000E+00 0. -1.
          2    1    1    2  501    0  0.62947408247E+02  0.21182226403E+03 -0.61494440659E+03  0.65344293626E+03  0.00000000000E+00 0. -1.
<scales pt_clust_5="13000.00000" pt_clust_6="13000.00000" pt_clust_7="13000.00000" pt_clust_8="13000.00000" pt_clust_9="199.44932"></scales>
<clustering>
<clus scale="   85.240">  5  6 -1 -1</clus>
<clus scale="   95.860">  2  5  1 -1</clus>
<clus scale="   96.072">  7  8 -1 -1</clus>
<clus scale="  199.449">  1  9  2 -1</clus>
<clus scale="  199.449">  1  5  2 -1</clus>
</clustering>
</event>
<event>
 9    1  0.6270443E-005  0.9315394E+02  0.7546771E-02  0.1300543E+00
         21   -1    0    0  501  502  0.00000000000E+00  0.00000000000E+00  0.47999118959E+03  0.47999118959E+03  0.00000000000E+00 0. -1.
          3   -1    0    0  502    0 -0.00000000000E+00 -0.00000000000E+00 -0.30295107397E+02  0.30295107397E+02  0.00000000000E+00 0. -1.
         23    2    1    2    0    0 -0.16889520870E+02  0.21083268135E+02  0.15594908126E+03  0.18215268033E+03  0.90164975999E+02 0.  0.
        -24    2    1    2    0    0  0.32204106078E+02  0.20514577388E+02  0.25075497222E+03  0.26638224577E+03  0.81384841576E+02 0.  0.
         13    1    4    4    0    0  0.40605202881E+02  0.46653445848E+02  0.15893186827E+03  0.17054226826E+03  0.00000000000E+00 0. -1.
        -14    1    4    4    0    0 -0.84010968034E+01 -0.26138868461E+02  0.91823103947E+02  0.95839977516E+02  0.00000000000E+00 0.  1.
        -13    1    3    3    0    0 -0.41086478351E+02  0.23678148232E+02  0.14969447156E+03  0.15702607498E+03  0.00000000000E+00 0. -1.
         13    1    3    3    0    0  0.24196957481E+02 -0.25948800966E+01  0.62546096917E+01  0.25126605351E+02  0.00000000000E+00 0.  1.
          4    1    1    2  501    0 -0.15314585207E+02 -0.41597845523E+02  0.42992028718E+02  0.61751370880E+02  0.00000000000E+00 0. -1.
<scales pt_clust_5="13000.00000" pt_clust_6="13000.00000" pt_clust_7="13000.00000" pt_clust_8="13000.00000" pt_clust_9="44.32741"></scales>
<clustering>
<clus scale="   44.327">  1  9  2 -1</clus>
<clus scale="   81.385">  5  6 -1 -1</clus>
<clus scale="   84.684">  1  5  2 -1</clus>
<clus scale="   90.165">  7  8 -1 -1</clus>
<clus scale="   44.327">  1  5  2 -1</clus>
</clustering>
</event>
<event>
 9    1  0.6270443E-005  0.9516807E+02  0.7546771E-02  0.1297464E+00
         21   -1    0    0  501  502  0.00000000000E+00  0.00000000000E+00  0.22523524797E+03  0.22523524797E+03  0.00000000000E+00 0. -1.
          1   -1    0    0  502    0 -0.00000000000E+00 -0.00000000000E+00 -0.13733529132E+03  0.13733529132E+03  0.00000000000E+00 0. -1.
         23    2    1    2    0    0  0.31781672542E+02 -0.19547580549E+02 -0.93437453269E+02  0.13431011462E+03  0.88974527815E+02 0.  0.
        -24    2    1    2    0    0 -0.29357480287E+02 -0.15766049901E+02  0.63469346833E+02  0.10519211235E+03  0.76984365524E+02 0.  0.
         11    1    4    4    0    0 -0.35633779318E+02 -0.41789846800E+02  0.53370990629E+02  0.76580808071E+02  0.00000000000E+00 0. -1.
        -12    1    4    4    0    0  0.62762990308E+01  0.26023796899E+02  0.10098356204E+02  0.28611304280E+02  0.00000000000E+00 0.  1.
        -11    1    3    3    0    0 -0.16555012152E+02 -0.12480078314E+02  0.76013266426E+01  0.22081688088E+02  0.00000000000E+00 0.  1.
         11    1    3    3    0    0  0.48336684693E+02 -0.70675022351E+01 -0.10103877991E+03  0.11222842653E+03  0.00000000000E+00 0. -1.
          2    1    1    2  501    0 -0.24241922545E+01  0.35313630450E+02  0.11786806308E+03  0.12306831232E+03  0.00000000000E+00 0. -1.
<scales pt_clust_5="13000.00000" pt_clust_6="13000.00000" pt_clust_7="13000.00000" pt_clust_8="13000.00000" pt_clust_9="35.39674"></scales>
<clustering>
<clus scale="   35.397">  1  9  2 -1</clus>
<clus scale="   76.984">  5  6 -1 -1</clus>
<clus scale="   84.066">  1  5  2 -1</clus>
<clus scale="   88.975">  7  8 -1 -1</clus>
<clus scale="   35.397">  1  5  2 -1</clus>
</clustering>
</event>
<event>
 9    1  0.6270443E-005  0.1983036E+03  0.7546771E-02  0.1181174E+00
         21   -1    0    0  501  502  0.00000000000E+00  0.00000000000E+00  0.23390515534E+03  0.23390515534E+03  0.00000000000E+00 0. -1.
          3   -1    0    0  502    0 -0.00000000000E+00 -0.00000000000E+00 -0.31612996205E+03  0.31612996205E+03  0.00000000000E+00 0. -1.
        -24    2    1    2    0    0 -0.57662820061E+02 -0.25294166871E+01 -0.12932639150E+03  0.16310181125E+03  0.80904181150E+02 0.  0.
         23    2    1    2    0    0 -0.10902156932E+03  0.11798041405E+03  0.20516427572E+02  0.18243541119E+03  0.84004016461E+02 0.  0.
         13    1    3    3    0    0  0.17264086106E+02 -0.15030150081E+02 -0.23204994185E+02  0.32594874377E+02  0.00000000000E+00 0. -1.
        -14    1    3    3    0    0 -0.74926906167E+02  0.12500733394E+02 -0.10612139731E+03  0.13050693687E+03  0.00000000000E+00 0.  1.
        -11    1    4    4    0    0 -0.19275198847E+01  0.58967406269E+02  0.70977781361E+01  0.59424311435E+02  0.00000000000E+00 0.  1.
         11    1    4    4    0    0 -0.10709404943E+03  0.59013007778E+02  0.13418649436E+02  0.12301109976E+03  0.00000000000E+00 0. -1.
          4    1    1    2  501    0  0.16668438938E+03 -0.11545099736E+03  0.26585157222E+02  0.20449789495E+03  0.00000000000E+00 0. -1.
<scales pt_clust_5="13000.00000" pt_clust_6="13000.00000" pt_clust_7="13000.00000" pt_clust_8="13000.00000" pt_clust_9="179.63202"></scales>
<clustering>
<clus scale="   80.904">  5  6 -1 -1</clus>
<clus scale="   84.004">  7  8 -1 -1</clus>
<clus scale="   99.383">  2  5  1 -1</clus>
<clus scale="  179.632">  1  9  2 -1</clus>
<clus scale="  179.632">  1  5  2 -1</clus>
</clustering>
</event>
<event>
 9    1  0.6270443E-005  0.2403132E+03  0.7546771E-02  0.1120250E+00
         21   -1    0    0  501  502  0.00000000000E+00  0.00000000000E+00  0.82223922249E+03  0.82223922249E+03  0.00000000000E+00 0. -1.
          3   -1    0    0  502    0 -0.00000000000E+00 -0.00000000000E+00 -0.11512444855E+03  0.11512444855E+03  0.00000000000E+00 0. -1.
         23    2    1    2    0    0  0.21172513857E+03 -0.12950612717E+03  0.16217914152E+03  0.31019933869E+03  0.91226007809E+02 0.  0.
        -24    2    1    2    0    0 -0.18681360380E+03  0.27617441693E+02  0.37537186159E+03  0.42778087975E+03  0.80189780889E+02 0.  0.
         11    1    4    4    0    0 -0.48219742617E+02  0.33839127626E+02  0.17020432012E+03  0.18011035707E+03  0.00000000000E+00 0. -1.
        -12    1    4    4    0    0 -0.13859386118E+03 -0.62216859337E+01  0.20516754147E+03  0.24767052268E+03  0.00000000000E+00 0.  1.
        -11    1    3    3    0    0  0.74444994732E+02 -0.60640549713E+02  0.11439992645E+03  0.14935419875E+03  0.00000000000E+00 0.  1.
         11    1    3    3    0    0  0.13728014384E+03 -0.68865577459E+02  0.47779215068E+02  0.16084513995E+03  0.00000000000E+00 0. -1.
          4    1    1    2  501    0 -0.24911534773E+02  0.10188868548E+03  0.16956377083E+03  0.19938345260E+03  0.00000000000E+00 0. -1.
<scales pt_clust_5="13000.00000" pt_clust_6="13000.00000" pt_clust_7="13000.00000" pt_clust_8="13000.00000" pt_clust_9="104.88989"></scales>
<clustering>
<clus scale="   80.190">  5  6 -1 -1</clus>
<clus scale="   91.226">  7  8 -1 -1</clus>
<clus scale="  104.890">  1  9  2 -1</clus>
<clus scale="  236.344">  1  5  2 -1</clus>
<clus scale="  104.890">  1  5  2 -1</clus>
</clustering>
</event>
<event>
 9    1  0.6270443E-005  0.2519179E+03  0.7546771E-02  0.1112709E+00
         21   -1    0    0  501  502  0.00000000000E+00  0.00000000000E+00  0.12926420812E+03  0.12926420812E+03  0.00000000000E+00 0.  1.
          1   -1    0    0  502    0 -0.00000000000E+00 -0.00000000000E+00 -0.83090443806E+03  0.83090443806E+03  0.00000000000E+00 0. -1.
        -24    2    1    2    0    0 -0.39797197204E+02  0.24377104835E+03 -0.48148547516E+03  0.54711757820E+03  0.80630271423E+02 0.  0.
         23    2    1    2    0    0  0.90464437144E+02 -0.20143132625E+03 -0.24512039632E+03  0.34245995999E+03  0.91849996856E+02 0.  0.
         11    1    3    3    0    0 -0.47703512695E+02  0.17971588975E+03 -0.41346200097E+03  0.45334782717E+03  0.00000000000E+00 0. -1.
        -12    1    3    3    0    0  0.79063154913E+01  0.64055158602E+02 -0.68023474183E+02  0.93769751029E+02  0.00000000000E+00 0.  1.
        -13    1    4    4    0    0  0.73201857718E+02 -0.95363285403E+02 -0.18110457982E+03  0.21737418662E+03  0.00000000000E+00 0.  1.
         13    1    4    4    0    0  0.17262579426E+02 -0.10606804085E+03 -0.64015816491E+02  0.12508577336E+03  0.00000000000E+00 0. -1.
          2    1    1    2  501    0 -0.50667239940E+02 -0.42339722103E+02  0.24965641523E+02  0.70591107992E+02  0.00000000000E+00 0. -1.
<scales pt_clust_5="13000.00000" pt_clust_6="13000.00000" pt_clust_7="13000.00000" pt_clust_8="13000.00000" pt_clust_9="66.02894"></scales>
<clustering>
<clus scale="   66.029">  1  9  2 -1</clus>
<clus scale="   80.630">  5  6 -1 -1</clus>
<clus scale="   91.850">  7  8 -1 -1</clus>
<clus scale="  248.047">  2  5  1 -1</clus>
<clus scale="   66.029">  1  5  2 -1</clus>
</clustering>
</event>
<event>
 9    1  0.6270443E-005  0.2319225E+03  0.7546771E-02  0.1125888E+00
          1   -1    0    0  502    0 -0.00000000000E+00  0.00000000000E+00  0.23761298141E+04  0.23761298141E+04  0.00000000000E+00 0. -1.
         21   -1    0    0  501  502  0.00000000000E+00 -0.00000000000E+00 -0.28264798599E+02  0.28264798599E+02  0.00000000000E+00 0. -1.
        -24    2    1    2    0    0 -0.92536427658E+02  0.19820503719E+03  0.14073935087E+04  0.14267085915E+04  0.83022224031E+02 0.  0.
         23    2    1    2    0    0  0.50826997003E+02 -0.19943793923E+03  0.79945061383E+03  0.83062110722E+03  0.91930759697E+02 0.  0.
         13    1    3    3    0    0 -0.99555916543E+02  0.12622495693E+03  0.91129340940E+03  0.92536468394E+03  0.00000000000E+00 0. -1.
        -14    1    3    3    0    0  0.70194888857E+01  0.71980080261E+02  0.49610009926E+03  0.50134390758E+03  0.00000000000E+00 0.  1.
        -11    1    4    4    0    0 -0.57095222046E+01 -0.94679433020E+02  0.22871475124E+03  0.24760297073E+03  0.00000000000E+00 0.  1.
         11    1    4    4    0    0  0.56536519207E+02 -0.10475850621E+03  0.57073586259E+03  0.58301813649E+03  0.00000000000E+00 0. -1.
          2    1    1    2  501    0  0.41709430655E+02  0.12329020381E+01  0.14102089304E+03  0.14706491399E+03  0.00000000000E+00 0. -1.
<scales pt_clust_5="13000.00000" pt_clust_6="13000.00000" pt_clust_7="13000.00000" pt_clust_8="13000.00000" pt_clust_9="41.72765"></scales>
<clustering>
<clus scale="   41.728">  2  9  1 -1</clus>
<clus scale="   83.022">  5  6 -1 -1</clus>
<clus scale="   91.931">  7  8 -1 -1</clus>
<clus scale="  228.538">  1  5  2 -1</clus>
<clus scale="   41.728">  2  5  1 -1</clus>
</clustering>
</event>
<event>
 9    1  0.6270443E-005  0.1352743E+03  0.7546771E-02  0.1226419E+00
         21   -1    0    0  501  502  0.00000000000E+00  0.00000000000E+00  0.11765600383E+03  0.11765600383E+03  0.00000000000E+00 0.  1.
          3   -1    0    0  502    0 -0.00000000000E+00 -0.00000000000E+00 -0.57319940531E+03  0.57319940531E+03  0.00000000000E+00 0. -1.
         23    2    1    2    0    0  0.68851686547E+02  0.32713723493E+02  0.43626074149E+02  0.12570168036E+03  0.89927391008E+02 0.  0.
        -24    2    1    2    0    0  0.29278284443E+02 -0.10581252278E+03 -0.19939836975E+03  0.24137040372E+03  0.80289812650E+02 0.  0.
         13    1    4    4    0    0  0.56587002848E+02 -0.73842599755E+02 -0.12369977290E+03  0.15477872026E+03  0.00000000000E+00 0. -1.
        -14    1    4    4    0    0 -0.27308718404E+02 -0.31969923028E+02 -0.75698596854E+02  0.86591683463E+02  0.00000000000E+00 0.  1.
        -11    1    3    3    0    0 -0.20305748689E+02  0.65938994745E+01  0.21287660087E+02  0.30149086422E+02  0.00000000000E+00 0. -1.
         11    1    3    3    0    0  0.89157435236E+02  0.26119824019E+02  0.22338414062E+02  0.95552593934E+02  0.00000000000E+00 0.  1.
          4    1    1    2  501    0 -0.98129970990E+02  0.73098799289E+02 -0.29977110588E+03  0.32378332505E+03  0.00000000000E+00 0. -1.
<scales pt_clust_5="13000.00000" pt_clust_6="13000.00000" pt_clust_7="13000.00000" pt_clust_8="13000.00000" pt_clust_9="108.87011"></scales>
<clustering>
<clus scale="   80.290">  5  6 -1 -1</clus>
<clus scale="   89.927">  7  8 -1 -1</clus>
<clus scale="  117.888">  2  7  1 -1</clus>
<clus scale="  108.870">  1  9  2 -1</clus>
<clus scale="  108.870">  1  5  2 -1</clus>
</clustering>
</event>
<event>
 9    1  0.6270443E-005  0.1067691E+03  0.7546771E-02  0.1276332E+00
         21   -1    0    0  501  502  0.00000000000E+00  0.00000000000E+00  0.11120629967E+03  0.11120629967E+03  0.00000000000E+00 0. -1.
         -2   -1    0    0    0  501 -0.00000000000E+00 -0.00000000000E+00 -0.19864321128E+03  0.19864321128E+03  0.00000000000E+00 0.  1.
        -24    2    1    2    0    0  0.41454140725E+02 -0.34143064759E+01 -0.13235638270E+03  0.15919001177E+03  0.78058596788E+02 0.  0.
         23    2    1    2    0    0 -0.39755097080E+02  0.30470820640E+02  0.16615637177E+02  0.11146704172E+03  0.98182907557E+02 0.  0.
         11    1    3    3    0    0  0.30112673047E+02 -0.39133519661E+02 -0.89830528791E+02  0.10250721605E+03  0.00000000000E+00 0. -1.
        -12    1    3    3    0    0  0.11341467678E+02  0.35719213185E+02 -0.42525853912E+02  0.56682795720E+02  0.00000000000E+00 0.  1.
        -11    1    4    4    0    0  0.30136742561E+02  0.93221101123E+00 -0.88617239622E+01  0.31426460525E+02  0.00000000000E+00 0.  1.
         11    1    4    4    0    0 -0.69891839641E+02  0.29538609629E+02  0.25477361140E+02  0.80040581194E+02  0.00000000000E+00 0. -1.
         -1    1    1    2    0  502 -0.16990436445E+01 -0.27056514164E+02  0.28303833917E+02  0.39192457469E+02  0.00000000000E+00 0.  1.
<scales pt_clust_5="13000.00000" pt_clust_6="13000.00000" pt_clust_7="13000.00000" pt_clust_8="13000.00000" pt_clust_9="27.10981"></scales>
<clustering>
<clus scale="   27.110">  1  9  2 -1</clus>
<clus scale="   78.059">  5  6 -1 -1</clus>
<clus scale="   88.617">  2  5  1 -1</clus>
<clus scale="   98.183">  7  8 -1 -1</clus>
<clus scale="   27.110">  1  5  2 -1</clus>
</clustering>
</event>
<event>
 9    1  0.6270443E-005  0.9519290E+02  0.7546771E-02  0.1291283E+00
         21   -1    0    0  501  502  0.00000000000E+00  0.00000000000E+00  0.10250281183E+03  0.10250281183E+03  0.00000000000E+00 0. -1.
          1   -1    0    0  502    0 -0.00000000000E+00 -0.00000000000E+00 -0.25187642303E+03  0.25187642303E+03  0.00000000000E+00 0. -1.
         23    2    1    2    0    0  0.35679470785E+02 -0.53828312852E+01 -0.83964491270E+02  0.13084539526E+03  0.93640173850E+02 0.  0.
        -24    2    1    2    0    0  0.53515453121E+02  0.35789730946E+02  0.69475711112E+01  0.10472388743E+03  0.82304406264E+02 0.  0.
         11    1    4    4    0    0  0.42148135974E+02  0.39044764577E+02 -0.30785120993E+02  0.65181919898E+02  0.00000000000E+00 0. -1.
        -12    1    4    4    0    0  0.11367317147E+02 -0.32550336314E+01  0.37732692104E+02  0.39541967534E+02  0.00000000000E+00 0.  1.
        -13    1    3    3    0    0 -0.20859230017E+02 -0.51264656993E+01  0.79746938197E+01  0.22912526464E+02  0.00000000000E+00 0.  1.
         13    1    3    3    0    0  0.56538700802E+02 -0.25636558591E+00 -0.91939185090E+02  0.10793286880E+03  0.00000000000E+00 0. -1.
          2    1    1    2  501    0 -0.89194923906E+02 -0.30406899661E+02 -0.72356691040E+02  0.11880995218E+03  0.00000000000E+00 0. -1.
<scales pt_clust_5="13000.00000" pt_clust_6="13000.00000" pt_clust_7="13000.00000" pt_clust_8="13000.00000" pt_clust_9="94.23547"></scales>
<clustering>
<clus scale="   82.304">  5  6 -1 -1</clus>
<clus scale="   93.640">  7  8 -1 -1</clus>
<clus scale="   94.235">  1  9  2 -1</clus>
<clus scale="   94.235">  1  5  2 -1</clus>
<clus scale="   94.235">  1  5  2 -1</clus>
</clustering>
</event>
<event>
 9    1  0.6270443E-005  0.9323020E+02  0.7546771E-02  0.1300961E+00
         21   -1    0    0  501  502  0.00000000000E+00  0.00000000000E+00  0.86136495169E+02  0.86136495169E+02  0.00000000000E+00 0.  1.
         -4   -1    0    0    0  501 -0.00000000000E+00 -0.00000000000E+00 -0.20507980582E+03  0.20507980582E+03  0.00000000000E+00 0.  1.
         23    2    1    2    0    0  0.56336665060E+01 -0.15551388061E+02 -0.13308113947E+03  0.16215697298E+03  0.91163097436E+02 0.  0.
        -24    2    1    2    0    0  0.10198453039E+02  0.36269390280E+02  0.34261360066E+02  0.96122295125E+02  0.81524092824E+02 0.  0.
         13    1    4    4    0    0  0.15536137182E+02 -0.22085889671E+02 -0.22221610028E+01  0.27094207510E+02  0.00000000000E+00 0. -1.
        -14    1    4    4    0    0 -0.53376841430E+01  0.58355279951E+02  0.36483521069E+02  0.69028087615E+02  0.00000000000E+00 0.  1.
        -11    1    3    3    0    0  0.20314347714E+02  0.34136407010E+02 -0.45521523739E+02  0.60416687513E+02  0.00000000000E+00 0. -1.
         11    1    3    3    0    0 -0.14680681208E+02 -0.49687795070E+02 -0.87559615729E+02  0.10174028546E+03  0.00000000000E+00 0.  1.
         -3    1    1    2    0  502 -0.15832119545E+02 -0.20718002220E+02 -0.20123531245E+02  0.32937032881E+02  0.00000000000E+00 0.  1.
<scales pt_clust_5="13000.00000" pt_clust_6="13000.00000" pt_clust_7="13000.00000" pt_clust_8="13000.00000" pt_clust_9="26.07474"></scales>
<clustering>
<clus scale="   26.075">  1  9  2 -1</clus>
<clus scale="   81.524">  5  6 -1 -1</clus>
<clus scale="   83.829">  1  5  2 -1</clus>
<clus scale="   91.163">  7  8 -1 -1</clus>
<clus scale="   26.075">  1  5  2 -1</clus>
</clustering>
</event>
<event>
 9    1  0.6270443E-005  0.1226509E+03  0.7546771E-02  0.1239490E+00
         -4   -1    0    0    0  501 -0.00000000000E+00  0.00000000000E+00  0.11077850697E+03  0.11077850697E+03  0.00000000000E+00 0.  1.
         21   -1    0    0  501  502  0.00000000000E+00 -0.00000000000E+00 -0.19685221273E+03  0.19685221273E+03  0.00000000000E+00 0.  1.
        -24    2    1    2    0    0  0.41039992905E+01 -0.66920514290E+02 -0.26314484337E+02  0.11271954146E+03  0.86706660055E+02 0.  0.
         23    2    1    2    0    0 -0.20684085983E+02  0.10204700884E+03 -0.18587388568E+02  0.13830826563E+03  0.89119368844E+02 0.  0.
         13    1    3    3    0    0  0.71630635209E+01 -0.76178900140E+02 -0.47037741501E+02  0.89816944008E+02  0.00000000000E+00 0. -1.
        -14    1    3    3    0    0 -0.30590642304E+01  0.92583858496E+01  0.20723257164E+02  0.22902597451E+02  0.00000000000E+00 0.  1.
        -13    1    4    4    0    0  0.10306074544E+02  0.96718964630E+02  0.73536920955E+01  0.97544092999E+02  0.00000000000E+00 0.  1.
         13    1    4    4    0    0 -0.30990160527E+02  0.53280442074E+01 -0.25941080664E+02  0.40764172634E+02  0.00000000000E+00 0. -1.
         -3    1    1    2    0  502  0.16580086692E+02 -0.35126494547E+02 -0.41171832856E+02  0.56602912598E+02  0.00000000000E+00 0.  1.
<scales pt_clust_5="13000.00000" pt_clust_6="13000.00000" pt_clust_7="13000.00000" pt_clust_8="13000.00000" pt_clust_9="38.84289"></scales>
<clustering>
<clus scale="   38.843">  2  9  1 -1</clus>
<clus scale="   86.707">  5  6 -1 -1</clus>
<clus scale="   89.119">  7  8 -1 -1</clus>
<clus scale="  120.909">  1  5  2 -1</clus>
<clus scale="   38.843">  2  5  1 -1</clus>
</clustering>
</event>
<event>
 9    1  0.6270443E-005  0.1262842E+03  0.7546771E-02  0.1233520E+00
          3   -1    0    0  502    0 -0.00000000000E+00  0.00000000000E+00  0.13651223434E+03  0.13651223434E+03  0.00000000000E+00 0. -1.
         21   -1    0    0  501  502  0.00000000000E+00 -0.00000000000E+00 -0.16241283305E+03  0.16241283305E+03  0.00000000000E+00 0. -1.
         23    2    1    2    0    0 -0.64581422269E+01  0.87592537687E+02 -0.14624175459E+02  0.11835370027E+03  0.77971607652E+02 0.  0.
        -24    2    1    2    0    0  0.45177297505E+02 -0.10306458829E+03 -0.14697910104E+02  0.13873521161E+03  0.79800581509E+02 0.  0.
         13    1    4    4    0    0 -0.88583665621E+01 -0.30422298165E+02 -0.33667871857E+02  0.46233239981E+02  0.00000000000E+00 0. -1.
        -14    1    4    4    0    0  0.54035664067E+02 -0.72642290129E+02  0.18969961753E+02  0.92501971629E+02  0.00000000000E+00 0.  1.
        -13    1    3    3    0    0  0.19580315867E+02 -0.51439334290E+01  0.28954418319E+01  0.20450731136E+02  0.00000000000E+00 0.  1.
         13    1    3    3    0    0 -0.26038458094E+02  0.92736471116E+02 -0.17519617291E+02  0.97902969133E+02  0.00000000000E+00 0. -1.
          4    1    1    2  501    0 -0.38719155278E+02  0.15472050606E+02  0.34214868492E+01  0.41836155508E+02  0.00000000000E+00 0. -1.
<scales pt_clust_5="13000.00000" pt_clust_6="13000.00000" pt_clust_7="13000.00000" pt_clust_8="13000.00000" pt_clust_9="41.69603"></scales>
<clustering>
<clus scale="   41.696">  2  9  1 -1</clus>
<clus scale="   77.972">  7  8 -1 -1</clus>
<clus scale="   79.801">  5  6 -1 -1</clus>
<clus scale="  125.137">  1  7  2 -1</clus>
<clus scale="   41.696">  2  5  1 -1</clus>
</clustering>
</event>
<event>
 9    1  0.6270443E-005  0.1197409E+03  0.7546771E-02  0.1246017E+00
         21   -1    0    0  501  502  0.00000000000E+00  0.00000000000E+00  0.84131179515E+02  0.84131179515E+02  0.00000000000E+00 0. -1.
          1   -1    0    0  502    0 -0.00000000000E+00 -0.00000000000E+00 -0.36558430678E+03  0.36558430678E+03  0.00000000000E+00 0. -1.
        -24    2    1    2    0    0  0.99684150554E+02  0.20412197576E+02 -0.16531457852E+03  0.21080020157E+03  0.82184106913E+02 0.  0.
         23    2    1    2    0    0 -0.21703936781E+02 -0.31862437092E+02  0.63319694603E+00  0.98033553061E+02  0.90132684516E+02 0.  0.
         13    1    3    3    0    0  0.72398170323E+02 -0.22581224480E+02 -0.72406918688E+02  0.10485308121E+03  0.00000000000E+00 0. -1.
        -14    1    3    3    0    0  0.27285980230E+02  0.42993422056E+02 -0.92907659829E+02  0.10594712036E+03  0.00000000000E+00 0.  1.
        -13    1    4    4    0    0  0.14210774346E+02 -0.29720659934E+02 -0.34530994384E+02  0.47724766187E+02  0.00000000000E+00 0.  1.
         13    1    4    4    0    0 -0.35914711128E+02 -0.21417771576E+01  0.35164191330E+02  0.50308786874E+02  0.00000000000E+00 0. -1.
          2    1    1    2  501    0 -0.77980213772E+02  0.11450239516E+02 -0.11677174569E+03  0.14088173167E+03  0.00000000000E+00 0. -1.
<scales pt_clust_5="13000.00000" pt_clust_6="13000.00000" pt_clust_7="13000.00000" pt_clust_8="13000.00000" pt_clust_9="78.81642"></scales>
<clustering>
<clus scale="   78.816">  1  9  2 -1</clus>
<clus scale="   82.184">  5  6 -1 -1</clus>
<clus scale="   90.133">  7  8 -1 -1</clus>
<clus scale="  113.878">  2  5  1 -1</clus>
<clus scale="   78.816">  1  5  2 -1</clus>
</clustering>
</event>
<event>
 9    1  0.6270443E-005  0.2822335E+03  0.7546771E-02  0.1118727E+00
          3   -1    0    0  502    0 -0.00000000000E+00  0.00000000000E+00  0.35554688516E+03  0.35554688516E+03  0.00000000000E+00 0. -1.
         21   -1    0    0  501  502  0.00000000000E+00 -0.00000000000E+00 -0.45159912550E+03  0.45159912550E+03  0.00000000000E+00 0. -1.
         23    2    1    2    0    0 -0.98555597003E+02  0.69038336247E+02  0.12601134475E+03  0.19710911388E+03  0.92160979800E+02 0.  0.
        -24    2    1    2    0    0 -0.10429913757E+03 -0.25742302424E+03 -0.14136029642E+03  0.32167626352E+03  0.79674096186E+02 0.  0.
         11    1    4    4    0    0 -0.83058938177E+02 -0.24379723407E+03 -0.10665720162E+03  0.27876807064E+03  0.00000000000E+00 0. -1.
        -12    1    4    4    0    0 -0.21240199392E+02 -0.13625790174E+02 -0.34703094797E+02  0.42908192884E+02  0.00000000000E+00 0.  1.
        -13    1    3    3    0    0 -0.42879753267E+02 -0.64143662714E+01  0.83640503500E+02  0.94210143618E+02  0.00000000000E+00 0.  1.
         13    1    3    3    0    0 -0.55675843736E+02  0.75452702519E+02  0.42370841246E+02  0.10289897026E+03  0.00000000000E+00 0. -1.
          4    1    1    2  501    0  0.20285473457E+03  0.18838468799E+03 -0.80703288664E+02  0.28836063325E+03  0.00000000000E+00 0. -1.
<scales pt_clust_5="13000.00000" pt_clust_6="13000.00000" pt_clust_7="13000.00000" pt_clust_8="13000.00000" pt_clust_9="270.75429"></scales>
<clustering>
<clus scale="   79.674">  5  6 -1 -1</clus>
<clus scale="   92.161">  7  8 -1 -1</clus>
<clus scale="  151.569">  1  7  2 -1</clus>
<clus scale="  270.754">  2  9  1 -1</clus>
<clus scale="  270.754">  2  5  1 -1</clus>
</clustering>
</event>
<event>
 9    1  0.6270443E-005  0.1730351E+03  0.7546771E-02  0.1198943E+00
         21   -1    0    0  501  502  0.00000000000E+00  0.00000000000E+00  0.11274003343E+04  0.11274003343E+04  0.00000000000E+00 0. -1.
          3   -1    0    0  502    0 -0.00000000000E+00 -0.00000000000E+00 -0.11108054229E+03  0.11108054229E+03  0.00000000000E+00 0. -1.
        -24    2    1    2    0    0 -0.35814448302E+02  0.48377965529E+02 -0.16884676951E+02  0.10242033789E+03  0.81127868464E+02 0.  0.
         23    2    1    2    0    0  0.14415354661E+03  0.51208609310E+02  0.12965881706E+03  0.22061005332E+03  0.91950095798E+02 0.  0.
         11    1    3    3    0    0 -0.51976342253E+02  0.23569169140E+02  0.14897755569E+02  0.58982955241E+02  0.00000000000E+00 0. -1.
        -12    1    3    3    0    0  0.16161893951E+02  0.24808796389E+02 -0.31782432520E+02  0.43437382647E+02  0.00000000000E+00 0.  1.
        -13    1    4    4    0    0  0.62201424833E+02  0.35034526860E+02  0.11565178234E+03  0.13591089023E+03  0.00000000000E+00 0.  1.
         13    1    4    4    0    0  0.81952121777E+02  0.16174082450E+02  0.14007034715E+02  0.84699163091E+02  0.00000000000E+00 0. -1.
          4    1    1    2  501    0 -0.10833909831E+03 -0.99586574839E+02  0.90354565187E+03  0.91545048534E+03  0.00000000000E+00 0. -1.
<scales pt_clust_5="13000.00000" pt_clust_6="13000.00000" pt_clust_7="13000.00000" pt_clust_8="13000.00000" pt_clust_9="146.58213"></scales>
<clustering>
<clus scale="   81.128">  5  6 -1 -1</clus>
<clus scale="   91.950">  7  8 -1 -1</clus>
<clus scale="  101.019">  2  5  1 -1</clus>
<clus scale="  146.582">  1  9  2 -1</clus>
<clus scale="  146.582">  1  5  2 -1</clus>
</clustering>
</event>
<event>
 9    1  0.6270443E-005  0.1206339E+03  0.7546771E-02  0.1249498E+00
          1   -1    0    0  502    0 -0.00000000000E+00  0.00000000000E+00  0.97793584523E+02  0.97793584523E+02  0.00000000000E+00 0. -1.
         21   -1    0    0  501  502  0.00000000000E+00 -0.00000000000E+00 -0.29859138994E+03  0.29859138994E+03  0.00000000000E+00 0.  1.
         23    2    1    2    0    0 -0.63690157997E+02  0.23853896718E+02  0.30449896043E+02  0.12478885753E+03  0.10009804284E+03 0.  0.
        -24    2    1    2    0    0  0.46948004165E+02 -0.53593546899E+02 -0.19244461436E+03  0.21991995147E+03  0.79078897915E+02 0.  0.
         11    1    4    4    0    0  0.29395674954E+02 -0.36344665807E+02 -0.29824948338E+02  0.55448787020E+02  0.00000000000E+00 0. -1.
        -12    1    4    4    0    0  0.17552329212E+02 -0.17248881092E+02 -0.16261966602E+03  0.16447116445E+03  0.00000000000E+00 0.  1.
        -13    1    3    3    0    0  0.22567569639E+02  0.75851607464E+01 -0.12693656559E+02  0.26980711255E+02  0.00000000000E+00 0.  1.
         13    1    3    3    0    0 -0.86257727636E+02  0.16268735972E+02  0.43143552602E+02  0.97808146277E+02  0.00000000000E+00 0. -1.
          2    1    1    2  501    0  0.16742153831E+02  0.29739650181E+02 -0.38803087101E+02  0.51676165457E+02  0.00000000000E+00 0. -1.
<scales pt_clust_5="13000.00000" pt_clust_6="13000.00000" pt_clust_7="13000.00000" pt_clust_8="13000.00000" pt_clust_9="34.12838"></scales>
<clustering>
<clus scale="   34.128">  2  9  1 -1</clus>
<clus scale="   79.079">  5  6 -1 -1</clus>
<clus scale="  100.098">  7  8 -1 -1</clus>
<clus scale="  103.858">  2  5  1 -1</clus>
<clus scale="   34.128">  2  5  1 -1</clus>
</clustering>
</event>
<event>
 9    1  0.6270443E-005  0.1256623E+03  0.7546771E-02  0.1238824E+00
          1   -1    0    0  502    0 -0.00000000000E+00  0.00000000000E+00  0.32694578797E+03  0.32694578797E+03  0.00000000000E+00 0. -1.
         21   -1    0    0  501  502  0.00000000000E+00 -0.00000000000E+00 -0.45374753403E+03  0.45374753403E+03  0.00000000000E+00 0.  1.
        -24    2    1    2    0    0  0.57275681340E+01 -0.80743450070E+02  0.30188983156E+03  0.32269556627E+03  0.80266109456E+02 0.  0.
         23    2    1    2    0    0  0.16248279198E+02  0.79989558160E+02 -0.41055584524E+03  0.42949493117E+03  0.96163703382E+02 0.  0.
         13    1    3    3    0    0  0.37213981476E+02 -0.37930456266E+02  0.20927813968E+03  0.21591882660E+03  0.00000000000E+00 0. -1.
        -14    1    3    3    0    0 -0.31486413342E+02 -0.42812993804E+02  0.92611691876E+02  0.10677673968E+03  0.00000000000E+00 0.  1.
        -11    1    4    4    0    0  0.26824964773E+02 -0.10905948410E+02 -0.16332557854E+03  0.16587273149E+03  0.00000000000E+00 0. -1.
         11    1    4    4    0    0 -0.10576685575E+02  0.90895506570E+02 -0.24723026670E+03  0.26362219968E+03  0.00000000000E+00 0.  1.
          2    1    1    2  501    0 -0.21975847332E+02  0.75389191062E+00 -0.18135732375E+02  0.28502824557E+02  0.00000000000E+00 0. -1.
<scales pt_clust_5="13000.00000" pt_clust_6="13000.00000" pt_clust_7="13000.00000" pt_clust_8="13000.00000" pt_clust_9="21.98877"></scales>
<clustering>
<clus scale="   21.989">  2  9  1 -1</clus>
<clus scale="   80.266">  5  6 -1 -1</clus>
<clus scale="   96.164">  7  8 -1 -1</clus>
<clus scale="  113.957">  1  5  2 -1</clus>
<clus scale="   21.989">  2  5  1 -1</clus>
</clustering>
</event>
<event>
 9    1  0.6270443E-005  0.1024212E+03  0.7546771E-02  0.1286691E+00
         -2   -1    0    0    0  501 -0.00000000000E+00  0.00000000000E+00  0.10094259663E+03  0.10094259663E+03  0.00000000000E+00 0.  1.
         21   -1    0    0  501  502  0.00000000000E+00 -0.00000000000E+00 -0.18857771379E+03  0.18857771379E+03  0.00000000000E+00 0.  1.
         23    2    1    2    0    0  0.12752096582E+02 -0.14500030505E+02  0.33806562940E+02  0.10820197408E+03  0.10095502288E+03 0.  0.
        -24    2    1    2    0    0  0.29797121716E+02  0.23906191106E+02 -0.66991539931E+02  0.11157789184E+03  0.80637367828E+02 0.  0.
         13    1    4    4    0    0  0.78584320550E+01  0.19678271492E+02 -0.81979714920E+02  0.84673862447E+02  0.00000000000E+00 0. -1.
        -14    1    4    4    0    0  0.21938689661E+02  0.42279196146E+01  0.14988174989E+02  0.26904029397E+02  0.00000000000E+00 0.  1.
        -13    1    3    3    0    0 -0.37557669941E+02 -0.15801471152E+02 -0.94639875591E+01  0.41830994759E+02  0.00000000000E+00 0.  1.
         13    1    3    3    0    0  0.50309766523E+02  0.13014406466E+01  0.43270550499E+02  0.66370979320E+02  0.00000000000E+00 0. -1.
         -1    1    1    2    0  502 -0.42549218297E+02 -0.94061606010E+01 -0.54450140168E+02  0.69740444501E+02  0.00000000000E+00 0.  1.
<scales pt_clust_5="13000.00000" pt_clust_6="13000.00000" pt_clust_7="13000.00000" pt_clust_8="13000.00000" pt_clust_9="43.57651"></scales>
<clustering>
<clus scale="   43.577">  2  9  1 -1</clus>
<clus scale="   80.637">  5  6 -1 -1</clus>
<clus scale="   82.466">  2  5  1 -1</clus>
<clus scale="  100.955">  7  8 -1 -1</clus>
<clus scale="   43.577">  2  5  1 -1</clus>
</clustering>
</event>
<event>
 9    1  0.6270443E-005  0.2217408E+03  0.7546771E-02  0.1160417E+00
          1   -1    0    0  502    0 -0.00000000000E+00  0.00000000000E+00  0.14826759897E+04  0.14826759897E+04  0.00000000000E+00 0. -1.
         21   -1    0    0  501  502  0.00000000000E+00 -0.00000000000E+00 -0.62601701038E+02  0.62601701038E+02  0.00000000000E+00 0. -1.
         23    2    1    2    0    0  0.63158528404E+02  0.29336519249E+02  0.93708884693E+02  0.14772964978E+03  0.90515541662E+02 0.  0.
        -24    2    1    2    0    0  0.14144241119E+03  0.84978640573E+02  0.80948465317E+03  0.83001371531E+03  0.80187522928E+02 0.  0.
         11    1    4    4    0    0  0.14726733594E+03  0.85632199226E+02  0.80444124627E+03  0.82228113227E+03  0.00000000000E+00 0. -1.
        -12    1    4    4    0    0 -0.58249247492E+01 -0.65355865237E+00  0.50434068994E+01  0.77325830353E+01  0.00000000000E+00 0.  1.
        -13    1    3    3    0    0  0.52954296130E+02 -0.25006364474E+02  0.42413330997E+02  0.72307443525E+02  0.00000000000E+00 0.  1.
         13    1    3    3    0    0  0.10204232274E+02  0.54342883723E+02  0.51295553695E+02  0.75422206256E+02  0.00000000000E+00 0. -1.
          2    1    1    2  501    0 -0.20460093960E+03 -0.11431515982E+03  0.51688075081E+03  0.56753432566E+03  0.00000000000E+00 0. -1.
<scales pt_clust_5="13000.00000" pt_clust_6="13000.00000" pt_clust_7="13000.00000" pt_clust_8="13000.00000" pt_clust_9="206.73400"></scales>
<clustering>
<clus scale="   80.188">  5  6 -1 -1</clus>
<clus scale="   90.516">  7  8 -1 -1</clus>
<clus scale="  114.205">  1  7  2 -1</clus>
<clus scale="  206.734">  2  9  1 -1</clus>
<clus scale="  206.734">  2  5  1 -1</clus>
</clustering>
</event>
<event>
 9    1  0.6270443E-005  0.1187364E+03  0.7546771E-02  0.1250269E+00
          1   -1    0    0  502    0 -0.00000000000E+00  0.00000000000E+00  0.10230543567E+04  0.10230543567E+04  0.00000000000E+00 0. -1.
         21   -1    0    0  501  502  0.00000000000E+00 -0.00000000000E+00 -0.18169509035E+02  0.18169509035E+02  0.00000000000E+00 0.  1.
        -24    2    1    2    0    0  0.15163633831E+02 -0.70735969065E+02  0.55313576318E+03  0.56316858213E+03  0.77240962419E+02 0.  0.
         23    2    1    2    0    0 -0.36206592015E+02  0.72786545515E+02  0.29200700230E+03  0.31692011124E+03  0.92528206527E+02 0.  0.
         11    1    3    3    0    0 -0.27176808768E+02 -0.53196627236E+02  0.29317458241E+03  0.29919858932E+03  0.00000000000E+00 0. -1.
        -12    1    3    3    0    0  0.42340442599E+02 -0.17539341829E+02  0.25996118077E+03  0.26396999280E+03  0.00000000000E+00 0.  1.
        -11    1    4    4    0    0 -0.44258151456E+02  0.80714102437E+01  0.54743788526E+02  0.70857702586E+02  0.00000000000E+00 0.  1.
         11    1    4    4    0    0  0.80515594404E+01  0.64715135272E+02  0.23726321377E+03  0.24606240865E+03  0.00000000000E+00 0. -1.
          2    1    1    2  501    0  0.21042958184E+02 -0.20505764498E+01  0.15974208215E+03  0.16113517233E+03  0.00000000000E+00 0. -1.
<scales pt_clust_5="13000.00000" pt_clust_6="13000.00000" pt_clust_7="13000.00000" pt_clust_8="13000.00000" pt_clust_9="21.14264"></scales>
<clustering>
<clus scale="   21.143">  2  9  1 -1</clus>
<clus scale="   77.241">  5  6 -1 -1</clus>
<clus scale="   92.528">  7  8 -1 -1</clus>
<clus scale="  107.252">  1  5  2 -1</clus>
<clus scale="   21.143">  2  5  1 -1</clus>
</clustering>
</event>
<event>
 9    1  0.6270443E-005  0.1495053E+03  0.7546771E-02  0.1203225E+00
         21   -1    0    0  501  502  0.00000000000E+00  0.00000000000E+00  0.43304796791E+03  0.43304796791E+03  0.00000000000E+00 0. -1.
          3   -1    0    0  502    0 -0.00000000000E+00 -0.00000000000E+00 -0.90485493698E+02  0.90485493698E+02  0.00000000000E+00 0. -1.
        -24    2    1    2    0    0  0.80173316463E+02  0.81414893197E+02  0.11626623197E+02  0.13983530850E+03  0.79765842499E+02 0.  0.
         23    2    1    2    0    0 -0.80393834515E+02 -0.11040076451E+03  0.29343921549E+03  0.33630377539E+03  0.91335418769E+02 0.  0.
         13    1    3    3    0    0  0.56852773811E+02  0.54712432506E+02  0.45264221938E+02  0.90964487292E+02  0.00000000000E+00 0. -1.
        -14    1    3    3    0    0  0.23320542652E+02  0.26702460691E+02 -0.33637598741E+02  0.48870821208E+02  0.00000000000E+00 0.  1.
        -13    1    4    4    0    0 -0.72498629060E+02 -0.32637990932E+02  0.10059269983E+03  0.12821926894E+03  0.00000000000E+00 0.  1.
         13    1    4    4    0    0 -0.78952054547E+01 -0.77762773574E+02  0.19284651566E+03  0.20808450645E+03  0.00000000000E+00 0. -1.
          4    1    1    2  501    0  0.22051805181E+00  0.28985871308E+02  0.37496635521E+02  0.47394377716E+02  0.00000000000E+00 0. -1.
<scales pt_clust_5="13000.00000" pt_clust_6="13000.00000" pt_clust_7="13000.00000" pt_clust_8="13000.00000" pt_clust_9="28.98671"></scales>
<clustering>
<clus scale="   28.987">  1  9  2 -1</clus>
<clus scale="   79.766">  5  6 -1 -1</clus>
<clus scale="   91.335">  7  8 -1 -1</clus>
<clus scale="  142.731">  2  5  1 -1</clus>
<clus scale="   28.987">  1  5  2 -1</clus>
</clustering>
</event>
<event>
 9    1  0.6270443E-005  0.9187678E+02  0.7546771E-02  0.1304335E+00
          1   -1    0    0  502    0 -0.00000000000E+00  0.00000000000E+00  0.93755710144E+02  0.93755710144E+02  0.00000000000E+00 0. -1.
         21   -1    0    0  501  502  0.00000000000E+00 -0.00000000000E+00 -0.32096066883E+03  0.32096066883E+03  0.00000000000E+00 0. -1.
         23    2    1    2    0    0 -0.11563473096E+02 -0.27043387978E+02  0.36354749661E+02  0.10173277421E+03  0.90348385612E+02 0.  0.
        -24    2    1    2    0    0 -0.38454881187E+02 -0.24254922537E+02 -0.11164063699E+03  0.14501707039E+03  0.80617862306E+02 0.  0.
         13    1    4    4    0    0 -0.39367197474E+02 -0.50703724074E+02 -0.91446461603E+02  0.11172779069E+03  0.00000000000E+00 0. -1.
        -14    1    4    4    0    0  0.91231628676E+00  0.26448801537E+02 -0.20194175392E+02  0.33289279708E+02  0.00000000000E+00 0.  1.
        -11    1    3    3    0    0 -0.22367949313E+02  0.11244269271E+02  0.52994309674E+02  0.58610200526E+02  0.00000000000E+00 0. -1.
         11    1    3    3    0    0  0.10804476217E+02 -0.38287657248E+02 -0.16639560013E+02  0.43122573686E+02  0.00000000000E+00 0.  1.
          2    1    1    2  501    0  0.50018354284E+02  0.51298310515E+02 -0.15191907136E+03  0.16796653437E+03  0.00000000000E+00 0. -1.
<scales pt_clust_5="13000.00000" pt_clust_6="13000.00000" pt_clust_7="13000.00000" pt_clust_8="13000.00000" pt_clust_9="71.64742"></scales>
<clustering>
<clus scale="   71.647">  2  9  1 -1</clus>
<clus scale="   80.618">  5  6 -1 -1</clus>
<clus scale="   82.327">  2  5  1 -1</clus>
<clus scale="   90.348">  7  8 -1 -1</clus>
<clus scale="   71.647">  2  5  1 -1</clus>
</clustering>
</event>
<event>
 9    1  0.6270443E-005  0.2315075E+03  0.7546771E-02  0.1159354E+00
          1   -1    0    0  502    0 -0.00000000000E+00  0.00000000000E+00  0.72686227106E+03  0.72686227106E+03  0.00000000000E+00 0. -1.
         21   -1    0    0  501  502  0.00000000000E+00 -0.00000000000E+00 -0.12087814689E+03  0.12087814689E+03  0.00000000000E+00 0. -1.
         23    2    1    2    0    0  0.36884294085E+02  0.32360098890E+02  0.21823894540E+03  0.24126739138E+03  0.90410672510E+02 0.  0.
        -24    2    1    2    0    0 -0.14851808259E+03  0.15547902380E+03  0.11954994063E+03  0.26053325651E+03  0.85755709687E+02 0.  0.
         11    1    4    4    0    0 -0.12124559750E+03  0.16107876070E+03  0.11563363895E+03  0.23241772850E+03  0.00000000000E+00 0. -1.
        -12    1    4    4    0    0 -0.27272485095E+02 -0.55997368998E+01  0.39163016714E+01  0.28115528012E+02  0.00000000000E+00 0.  1.
        -11    1    3    3    0    0 -0.10778353122E+02 -0.17431619739E+02  0.11852267943E+02  0.23675103340E+02  0.00000000000E+00 0.  1.
         11    1    3    3    0    0  0.47662647207E+02  0.49791718629E+02  0.20638667745E+03  0.21759228804E+03  0.00000000000E+00 0. -1.
          2    1    1    2  501    0  0.11163378851E+03 -0.18783912269E+03  0.26819523814E+03  0.34593977007E+03  0.00000000000E+00 0. -1.
<scales pt_clust_5="13000.00000" pt_clust_6="13000.00000" pt_clust_7="13000.00000" pt_clust_8="13000.00000" pt_clust_9="215.03895"></scales>
<clustering>
<clus scale="   85.756">  5  6 -1 -1</clus>
<clus scale="   90.411">  7  8 -1 -1</clus>
<clus scale="  102.867">  1  7  2 -1</clus>
<clus scale="  215.039">  2  9  1 -1</clus>
<clus scale="  215.039">  2  5  1 -1</clus>
</clustering>
</event>
<event>
 9    1  0.6270443E-005  0.1054901E+03  0.7546771E-02  0.1274073E+00
          1   -1    0    0  502    0 -0.00000000000E+00  0.00000000000E+00  0.50388444704E+03  0.50388444704E+03  0.00000000000E+00 0. -1.
         21   -1    0    0  501  502  0.00000000000E+00 -0.00000000000E+00 -0.32200946601E+02  0.32200946601E+02  0.00000000000E+00 0.  1.
        -24    2    1    2    0    0  0.50879548185E+02 -0.13532779737E+02  0.32911638393E+03  0.34287337545E+03  0.80453047598E+02 0.  0.
         23    2    1    2    0    0 -0.42291009649E+02  0.35080239538E+02  0.11128519990E+03  0.15426828539E+03  0.91625080939E+02 0.  0.
         13    1    3    3    0    0 -0.16816733176E+02 -0.17217262356E+02  0.13812219055E+03  0.14020333862E+03  0.00000000000E+00 0. -1.
        -14    1    3    3    0    0  0.67696281362E+02  0.36844826186E+01  0.19099419338E+03  0.20267003682E+03  0.00000000000E+00 0.  1.
        -13    1    4    4    0    0  0.17373703733E+02  0.31055365372E+02  0.78223287959E+02  0.85936977366E+02  0.00000000000E+00 0.  1.
         13    1    4    4    0    0 -0.59664713382E+02  0.40248741660E+01  0.33061911945E+02  0.68331308026E+02  0.00000000000E+00 0. -1.
          2    1    1    2  501    0 -0.85885385364E+01 -0.21547459801E+02  0.31281916604E+02  0.38943732801E+02  0.00000000000E+00 0. -1.
<scales pt_clust_5="13000.00000" pt_clust_6="13000.00000" pt_clust_7="13000.00000" pt_clust_8="13000.00000" pt_clust_9="23.19603"></scales>
<clustering>
<clus scale="   23.196">  2  9  1 -1</clus>
<clus scale="   80.453">  5  6 -1 -1</clus>
<clus scale="   91.625">  7  8 -1 -1</clus>
<clus scale="   95.946">  1  5  2 -1</clus>
<clus scale="   23.196">  2  5  1 -1</clus>
</clustering>
</event>
<event>
 9    1  0.6270443E-005  0.2031097E+03  0.7546771E-02  0.1148082E+00
         -2   -1    0    0    0  501 -0.00000000000E+00  0.00000000000E+00  0.48554255636E+02  0.48554255636E+02  0.00000000000E+00 0.  1.
         21   -1    0    0  501  502  0.00000000000E+00 -0.00000000000E+00 -0.12881838887E+04  0.12881838887E+04  0.00000000000E+00 0.  1.
         23    2    1    2    0    0 -0.98569477001E+02 -0.17186625563E+03 -0.36968093313E+03  0.42955143535E+03  0.92717267397E+02 0.  0.
        -24    2    1    2    0    0  0.74680649237E+02  0.12435725759E+03 -0.81021481317E+03  0.82721222420E+03  0.82402023634E+02 0.  0.
         11    1    4    4    0    0  0.76166048600E+02  0.79450454906E+02 -0.41117256849E+03  0.42564835584E+03  0.00000000000E+00 0. -1.
        -12    1    4    4    0    0 -0.14853993636E+01  0.44906802684E+02 -0.39904224468E+03  0.40156386837E+03  0.00000000000E+00 0.  1.
        -13    1    3    3    0    0 -0.35677094211E+02 -0.29387656979E+02 -0.27978907541E+02  0.54030627437E+02  0.00000000000E+00 0.  1.
         13    1    3    3    0    0 -0.62892382790E+02 -0.14247859865E+03 -0.34170202559E+03  0.37552080792E+03  0.00000000000E+00 0. -1.
         -1    1    1    2    0  502  0.23888827764E+02  0.47508998043E+02 -0.59733886735E+02  0.79974484753E+02  0.00000000000E+00 0.  1.
<scales pt_clust_5="13000.00000" pt_clust_6="13000.00000" pt_clust_7="13000.00000" pt_clust_8="13000.00000" pt_clust_9="53.17691"></scales>
<clustering>
<clus scale="   53.177">  2  9  1 -1</clus>
<clus scale="   82.402">  5  6 -1 -1</clus>
<clus scale="   92.717">  7  8 -1 -1</clus>
<clus scale="  198.613">  2  5  1 -1</clus>
<clus scale="   53.177">  2  5  1 -1</clus>
</clustering>
</event>
<event>
 9    1  0.6270443E-005  0.9594564E+02  0.7546771E-02  0.1295784E+00
         21   -1    0    0  501  502  0.00000000000E+00  0.00000000000E+00  0.36742760519E+03  0.36742760519E+03  0.00000000000E+00 0. -1.
          3   -1    0    0  502    0 -0.00000000000E+00 -0.00000000000E+00 -0.56213427691E+02  0.56213427691E+02  0.00000000000E+00 0. -1.
         23    2    1    2    0    0  0.18224708754E+02  0.27705218336E+01  0.69788896153E+02  0.11937472763E+03  0.95079018564E+02 0.  0.
        -24    2    1    2    0    0  0.36948197054E+02 -0.36183914323E+02  0.21132274451E+03  0.23308578082E+03  0.83649470737E+02 0.  0.
         13    1    4    4    0    0  0.14565028103E+02 -0.33098434092E+02  0.20693255640E+03  0.21006839192E+03  0.00000000000E+00 0. -1.
        -14    1    4    4    0    0  0.22383168951E+02 -0.30854802317E+01  0.43901881067E+01  0.23017388909E+02  0.00000000000E+00 0.  1.
        -13    1    3    3    0    0 -0.23987212641E+02 -0.33074601205E+02  0.36332116178E+02  0.54674841391E+02  0.00000000000E+00 0.  1.
         13    1    3    3    0    0  0.42211921395E+02  0.35845123039E+02  0.33456779975E+02  0.64699886243E+02  0.00000000000E+00 0. -1.
          4    1    1    2  501    0 -0.55172905808E+02  0.33413392490E+02  0.30102536838E+02  0.71180524423E+02  0.00000000000E+00 0. -1.
<scales pt_clust_5="13000.00000" pt_clust_6="13000.00000" pt_clust_7="13000.00000" pt_clust_8="13000.00000" pt_clust_9="64.50200"></scales>
<clustering>
<clus scale="   64.502">  1  9  2 -1</clus>
<clus scale="   83.649">  5  6 -1 -1</clus>
<clus scale="   84.633">  1  5  2 -1</clus>
<clus scale="   95.079">  7  8 -1 -1</clus>
<clus scale="   64.502">  1  5  2 -1</clus>
</clustering>
</event>
<event>
 9    1  0.6270443E-005  0.1780549E+03  0.7546771E-02  0.1200490E+00
         -2   -1    0    0    0  501 -0.00000000000E+00  0.00000000000E+00  0.21448262203E+03  0.21448262203E+03  0.00000000000E+00 0.  1.
         21   -1    0    0  501  502  0.00000000000E+00 -0.00000000000E+00 -0.26334143057E+03  0.26334143057E+03  0.00000000000E+00 0.  1.
        -24    2    1    2    0    0 -0.70663976013E+01 -0.14373680490E+02 -0.10878309641E+03  0.14096258180E+03  0.88205162760E+02 0.  0.
         23    2    1    2    0    0  0.11990461578E+03 -0.91958629797E+02  0.30791300711E+02  0.17910293812E+03  0.91083762342E+02 0.  0.
         13    1    3    3    0    0  0.39211122087E+02 -0.17287152934E+02 -0.59123306842E+02  0.73020018925E+02  0.00000000000E+00 0. -1.
        -14    1    3    3    0    0 -0.46277519688E+02  0.29134724440E+01 -0.49659789571E+02  0.67942562878E+02  0.00000000000E+00 0.  1.
        -11    1    4    4    0    0  0.28724100359E+02 -0.30099743144E+02  0.52309125289E+02  0.66837961274E+02  0.00000000000E+00 0. -1.
         11    1    4    4    0    0  0.91180515422E+02 -0.61858886654E+02 -0.21517824578E+02  0.11226497684E+03  0.00000000000E+00 0.  1.
         -1    1    1    2    0  502 -0.11283821818E+03  0.10633231029E+03  0.29132987159E+02  0.15775853268E+03  0.00000000000E+00 0.  1.
<scales pt_clust_5="13000.00000" pt_clust_6="13000.00000" pt_clust_7="13000.00000" pt_clust_8="13000.00000" pt_clust_9="152.99449"></scales>
<clustering>
<clus scale="   88.205">  5  6 -1 -1</clus>
<clus scale="   89.648">  1  5  2 -1</clus>
<clus scale="   91.084">  7  8 -1 -1</clus>
<clus scale="  152.994">  2  9  1 -1</clus>
<clus scale="  152.994">  2  5  1 -1</clus>
</clustering>
</event>
<event>
 9    1  0.6270443E-005  0.2107600E+03  0.7546771E-02  0.1159823E+00
         -2   -1    0    0    0  501 -0.00000000000E+00  0.00000000000E+00  0.59191032084E+03  0.59191032084E+03  0.00000000000E+00 0.  1.
         21   -1    0    0  501  502  0.00000000000E+00 -0.00000000000E+00 -0.13148015070E+03  0.13148015070E+03  0.00000000000E+00 0.  1.
         23    2    1    2    0    0 -0.98787599310E+02  0.11175614223E+02  0.82529974934E+02  0.15810373511E+03  0.91113721045E+02 0.  0.
        -24    2    1    2    0    0  0.22887558441E+03 -0.98414853196E+02  0.20663722633E+03  0.33319931067E+03  0.79077941653E+02 0.  0.
         13    1    4    4    0    0  0.38057385912E+02 -0.36081788446E+02  0.80638297422E+02  0.96191450197E+02  0.00000000000E+00 0. -1.
        -14    1    4    4    0    0  0.19081819850E+03 -0.62333064749E+02  0.12599892891E+03  0.23700786048E+03  0.00000000000E+00 0.  1.
        -13    1    3    3    0    0 -0.53386408189E+02 -0.39630931585E+02  0.45366751829E+02  0.80491375247E+02  0.00000000000E+00 0. -1.
         13    1    3    3    0    0 -0.45401191120E+02  0.50806545808E+02  0.37163223105E+02  0.77612359864E+02  0.00000000000E+00 0.  1.
         -1    1    1    2    0  502 -0.13008798511E+03  0.87239238973E+02  0.17126296887E+03  0.23208742575E+03  0.00000000000E+00 0.  1.
<scales pt_clust_5="13000.00000" pt_clust_6="13000.00000" pt_clust_7="13000.00000" pt_clust_8="13000.00000" pt_clust_9="195.36235"></scales>
<clustering>
<clus scale="   79.078">  5  6 -1 -1</clus>
<clus scale="   91.114">  7  8 -1 -1</clus>
<clus scale="  134.854">  1  7  2 -1</clus>
<clus scale="  195.362">  2  9  1 -1</clus>
<clus scale="  195.362">  2  5  1 -1</clus>
</clustering>
</event>
<event>
 9    1  0.6270443E-005  0.1221621E+03  0.7546771E-02  0.1243958E+00
         -2   -1    0    0    0  501 -0.00000000000E+00  0.00000000000E+00  0.46470725688E+03  0.46470725688E+03  0.00000000000E+00 0.  1.
         21   -1    0    0  501  502  0.00000000000E+00 -0.00000000000E+00 -0.81375050652E+02  0.81375050652E+02  0.00000000000E+00 0. -1.
        -24    2    1    2    0    0 -0.60079020762E+02 -0.71960647878E+02  0.23210387140E+03  0.26185290009E+03  0.76856428411E+02 0.  0.
         23    2    1    2    0    0  0.53395953553E+02 -0.55106516957E+01 -0.88351890611E+01  0.10627773612E+03  0.91298419985E+02 0.  0.
         13    1    3    3    0    0 -0.73498842642E+02 -0.70670602939E+02  0.16942352985E+03  0.19773908682E+03  0.00000000000E+00 0. -1.
        -14    1    3    3    0    0  0.13419821880E+02 -0.12900449389E+01  0.62680341553E+02  0.64113813273E+02  0.00000000000E+00 0.  1.
        -11    1    4    4    0    0 -0.60837209457E+01 -0.36332824312E+02  0.68611005854E+01  0.37472129433E+02  0.00000000000E+00 0. -1.
         11    1    4    4    0    0  0.59479674499E+02  0.30822172616E+02 -0.15696289646E+02  0.68805606690E+02  0.00000000000E+00 0.  1.
         -1    1    1    2    0  502  0.66830672087E+01  0.77471299574E+02  0.16006352389E+03  0.17795167132E+03  0.00000000000E+00 0.  1.
<scales pt_clust_5="13000.00000" pt_clust_6="13000.00000" pt_clust_7="13000.00000" pt_clust_8="13000.00000" pt_clust_9="77.75906"></scales>
<clustering>
<clus scale="   76.856">  5  6 -1 -1</clus>
<clus scale="   77.759">  2  9  1 -1</clus>
<clus scale="   91.298">  7  8 -1 -1</clus>
<clus scale="  111.781">  1  5  2 -1</clus>
<clus scale="   77.759">  2  5  1 -1</clus>
</clustering>
</event>
<event>
 9    1  0.6270443E-005  0.1886994E+03  0.7546771E-02  0.1160782E+00
         21   -1    0    0  501  502  0.00000000000E+00  0.00000000000E+00  0.19766227279E+03  0.19766227279E+03  0.00000000000E+00 0. -1.
         -2   -1    0    0    0  501 -0.00000000000E+00 -0.00000000000E+00 -0.61064857039E+03  0.61064857039E+03  0.00000000000E+00 0.  1.
        -24    2    1    2    0    0 -0.78806293563E+02 -0.14183205701E+03 -0.43737118705E+03  0.47345934235E+03  0.80891466112E+02 0.  0.
         23    2    1    2    0    0 -0.35088675126E+01  0.20305557275E+03 -0.18746861577E+02  0.22356604550E+03  0.91577585157E+02 0.  0.
         13    1    3    3    0    0 -0.86568324510E+02 -0.13277042901E+03 -0.33735259638E+03  0.37273158695E+03  0.00000000000E+00 0. -1.
        -14    1    3    3    0    0  0.77620309474E+01 -0.90616280019E+01 -0.10001859067E+03  0.10072775539E+03  0.00000000000E+00 0.  1.
        -13    1    4    4    0    0  0.29798712009E+02  0.32295155136E+02 -0.22872205847E+02  0.49538652414E+02  0.00000000000E+00 0.  1.
         13    1    4    4    0    0 -0.33307579522E+02  0.17076041761E+03  0.41253442695E+01  0.17402739308E+03  0.00000000000E+00 0. -1.
         -1    1    1    2    0  502  0.82315161075E+02 -0.61223515736E+02  0.43131751032E+02  0.11128545534E+03  0.00000000000E+00 0.  1.
<scales pt_clust_5="13000.00000" pt_clust_6="13000.00000" pt_clust_7="13000.00000" pt_clust_8="13000.00000" pt_clust_9="102.58706"></scales>
<clustering>
<clus scale="   80.891">  5  6 -1 -1</clus>
<clus scale="   91.578">  7  8 -1 -1</clus>
<clus scale="  102.587">  1  9  2 -1</clus>
<clus scale="  183.751">  2  5  1 -1</clus>
<clus scale="  102.587">  1  5  2 -1</clus>
</clustering>
</event>
<event>
 9    1  0.6270443E-005  0.1873821E+03  0.7546771E-02  0.1162152E+00
         21   -1    0    0  501  502  0.00000000000E+00  0.00000000000E+00  0.81361006154E+02  0.81361006154E+02  0.00000000000E+00 0. -1.
          3   -1    0    0  502    0 -0.00000000000E+00 -0.00000000000E+00 -0.77274900771E+03  0.77274900771E+03  0.00000000000E+00 0. -1.
        -24    2    1    2    0    0  0.53745060481E+01  0.16730083299E+03 -0.51235603809E+03  0.54477420846E+03  0.79068163023E+02 0.  0.
         23    2    1    2    0    0  0.13619531866E+02 -0.14939380045E+03 -0.57073539600E+02  0.18461494731E+03  0.91221108230E+02 0.  0.
         11    1    3    3    0    0 -0.13352805171E+02  0.14438057747E+03 -0.33598852214E+03  0.36594034427E+03  0.00000000000E+00 0. -1.
        -12    1    3    3    0    0  0.18727311219E+02  0.22920255521E+02 -0.17636751595E+03  0.17883386419E+03  0.00000000000E+00 0.  1.
        -13    1    4    4    0    0  0.32155655440E+02 -0.12627943948E+02  0.17393883450E+01  0.34590123113E+02  0.00000000000E+00 0.  1.
         13    1    4    4    0    0 -0.18536123574E+02 -0.13676585651E+03 -0.58812927945E+02  0.15002482420E+03  0.00000000000E+00 0. -1.
          4    1    1    2  501    0 -0.18994037914E+02 -0.17907032537E+02 -0.12195842386E+03  0.12472085808E+03  0.00000000000E+00 0. -1.
<scales pt_clust_5="13000.00000" pt_clust_6="13000.00000" pt_clust_7="13000.00000" pt_clust_8="13000.00000" pt_clust_9="26.10433"></scales>
<clustering>
<clus scale="   26.104">  1  9  2 -1</clus>
<clus scale="   79.068">  5  6 -1 -1</clus>
<clus scale="   91.221">  7  8 -1 -1</clus>
<clus scale="  181.776">  2  5  1 -1</clus>
<clus scale="   26.104">  1  5  2 -1</clus>
</clustering>
</event>
<event>
 9    1  0.6270443E-005  0.1401729E+03  0.7546771E-02  0.1216378E+00
         21   -1    0    0  501  502  0.00000000000E+00  0.00000000000E+00  0.17175351561E+03  0.17175351561E+03  0.00000000000E+00 0.  1.
          1   -1    0    0  502    0 -0.00000000000E+00 -0.00000000000E+00 -0.46722891353E+03  0.46722891353E+03  0.00000000000E+00 0. -1.
        -24    2    1    2    0    0  0.11984850052E+03 -0.39204196043E+02 -0.73474830525E+02  0.16697994222E+03  0.81136417953E+02 0.  0.
         23    2    1    2    0    0 -0.53306958144E+02 -0.34007884423E+02  0.89350956128E+02  0.14531064928E+03  0.95568946023E+02 0.  0.
         13    1    3    3    0    0  0.13119275885E+02 -0.41158376470E+02 -0.21133648421E+02  0.48091147304E+02  0.00000000000E+00 0. -1.
        -14    1    3    3    0    0  0.10672922463E+03  0.19541804268E+01 -0.52341182104E+02  0.11888879491E+03  0.00000000000E+00 0.  1.
        -13    1    4    4    0    0 -0.43341161419E+02 -0.64888989255E+02  0.79504733099E+02  0.11140035810E+03  0.00000000000E+00 0.  1.
         13    1    4    4    0    0 -0.99657967250E+01  0.30881104832E+02  0.98462230287E+01  0.33910291180E+02  0.00000000000E+00 0. -1.
          2    1    1    2  501    0 -0.66541542374E+02  0.73212080466E+02 -0.31135152352E+03  0.32669183765E+03  0.00000000000E+00 0. -1.
<scales pt_clust_5="13000.00000" pt_clust_6="13000.00000" pt_clust_7="13000.00000" pt_clust_8="13000.00000" pt_clust_9="98.93329"></scales>
<clustering>
<clus scale="   81.136">  5  6 -1 -1</clus>
<clus scale="   95.569">  7  8 -1 -1</clus>
<clus scale="   98.933">  1  9  2 -1</clus>
<clus scale="  130.760">  2  5  1 -1</clus>
<clus scale="   98.933">  1  5  2 -1</clus>
</clustering>
</event>
<event>
 9    1  0.6270443E-005  0.1209644E+03  0.7546771E-02  0.1259041E+00
         -4   -1    0    0    0  501 -0.00000000000E+00  0.00000000000E+00  0.85622839968E+02  0.85622839968E+02  0.00000000000E+00 0.  1.
         21   -1    0    0  501  502  0.00000000000E+00 -0.00000000000E+00 -0.18281336018E+03  0.18281336018E+03  0.00000000000E+00 0.  1.
         23    2    1    2    0    0 -0.20653736975E+02 -0.26215068892E+02 -0.32218888182E+02  0.12656791299E+03  0.11776066047E+03 0.  0.
        -24    2    1    2    0    0 -0.17534719560E+02  0.28983185934E+02 -0.50111957082E+02  0.10079724354E+03  0.80631163984E+02 0.  0.
         11    1    4    4    0    0  0.29009080646E+02  0.79345144472E+01 -0.12374480682E+01  0.30100075701E+02  0.00000000000E+00 0. -1.
        -12    1    4    4    0    0 -0.46543800206E+02  0.21048671487E+02 -0.48874509013E+02  0.70697167838E+02  0.00000000000E+00 0.  1.
        -13    1    3    3    0    0  0.42819073822E+02 -0.38498058088E+02 -0.11880459409E+02  0.58793867667E+02  0.00000000000E+00 0.  1.
         13    1    3    3    0    0 -0.63472810797E+02  0.12282989197E+02 -0.20338428774E+02  0.67774045320E+02  0.00000000000E+00 0. -1.
         -3    1    1    2    0  502  0.38188456535E+02 -0.27681170423E+01 -0.14859674945E+02  0.41071043619E+02  0.00000000000E+00 0.  1.
<scales pt_clust_5="13000.00000" pt_clust_6="13000.00000" pt_clust_7="13000.00000" pt_clust_8="13000.00000" pt_clust_9="38.28867"></scales>
<clustering>
<clus scale="   38.289">  2  9  1 -1</clus>
<clus scale="   80.631">  5  6 -1 -1</clus>
<clus scale="   85.242">  2  5  1 -1</clus>
<clus scale="  117.761">  7  8 -1 -1</clus>
<clus scale="   38.289">  2  5  1 -1</clus>
</clustering>
</event>
<event>
 9    1  0.6270443E-005  0.9964630E+02  0.7546771E-02  0.1286802E+00
         21   -1    0    0  501  502  0.00000000000E+00  0.00000000000E+00  0.49575687518E+02  0.49575687518E+02  0.00000000000E+00 0.  1.
          1   -1    0    0  502    0 -0.00000000000E+00 -0.00000000000E+00 -0.28923778429E+03  0.28923778429E+03  0.00000000000E+00 0. -1.
         23    2    1    2    0    0 -0.32348533566E+02 -0.17807219113E+01 -0.15354699025E+03  0.18137728755E+03  0.90947477328E+02 0.  0.
        -24    2    1    2    0    0  0.52615190626E+02  0.27276011149E+02 -0.66299833886E+02  0.11931280309E+03  0.79545822886E+02 0.  0.
         11    1    4    4    0    0  0.22920355816E+02 -0.23942179960E+02 -0.46058090338E+02  0.56744324629E+02  0.00000000000E+00 0. -1.
        -12    1    4    4    0    0  0.29694834810E+02  0.51218191109E+02 -0.20241743548E+02  0.62568478459E+02  0.00000000000E+00 0.  1.
        -11    1    3    3    0    0  0.27406204470E+02  0.14629815488E+02 -0.30132881720E+02  0.43279580698E+02  0.00000000000E+00 0.  1.
         11    1    3    3    0    0 -0.59754738035E+02 -0.16410537400E+02 -0.12341410853E+03  0.13809770686E+03  0.00000000000E+00 0. -1.
          2    1    1    2  501    0 -0.20266657061E+02 -0.25495289238E+02 -0.19815272639E+02  0.38123381165E+02  0.00000000000E+00 0. -1.
<scales pt_clust_5="13000.00000" pt_clust_6="13000.00000" pt_clust_7="13000.00000" pt_clust_8="13000.00000" pt_clust_9="32.56911"></scales>
<clustering>
<clus scale="   32.569">  1  9  2 -1</clus>
<clus scale="   79.546">  5  6 -1 -1</clus>
<clus scale="   89.362">  1  5  2 -1</clus>
<clus scale="   90.947">  7  8 -1 -1</clus>
<clus scale="   32.569">  1  5  2 -1</clus>
</clustering>
</event>
<event>
 9    1  0.6270443E-005  0.9228091E+02  0.7546771E-02  0.1304078E+00
         21   -1    0    0  501  502  0.00000000000E+00  0.00000000000E+00  0.38955741823E+02  0.38955741823E+02  0.00000000000E+00 0.  1.
          1   -1    0    0  502    0 -0.00000000000E+00 -0.00000000000E+00 -0.34192531895E+03  0.34192531895E+03  0.00000000000E+00 0. -1.
         23    2    1    2    0    0  0.89416434072E+01  0.80547156631E+01 -0.15041791042E+03  0.17625921563E+03  0.91087495780E+02 0.  0.
        -24    2    1    2    0    0  0.81842722678E+01 -0.26667182501E+02 -0.49165976082E+02  0.98187255207E+02  0.80282768673E+02 0.  0.
         13    1    4    4    0    0  0.22482158501E+02 -0.39307164794E+02 -0.60820227730E+02  0.75826121859E+02  0.00000000000E+00 0. -1.
        -14    1    4    4    0    0 -0.14297886233E+02  0.12639982293E+02  0.11654251648E+02  0.22361133348E+02  0.00000000000E+00 0.  1.
        -11    1    3    3    0    0  0.45388470037E+02  0.10273711410E+02 -0.45155716590E+02  0.64843666608E+02  0.00000000000E+00 0.  1.
         11    1    3    3    0    0 -0.36446826630E+02 -0.22189957471E+01 -0.10526219383E+03  0.11141554902E+03  0.00000000000E+00 0. -1.
          2    1    1    2  501    0 -0.17125915675E+02  0.18612466838E+02 -0.10338569063E+03  0.10643458994E+03  0.00000000000E+00 0. -1.
<scales pt_clust_5="13000.00000" pt_clust_6="13000.00000" pt_clust_7="13000.00000" pt_clust_8="13000.00000" pt_clust_9="25.29272"></scales>
<clustering>
<clus scale="   25.293">  1  9  2 -1</clus>
<clus scale="   80.283">  5  6 -1 -1</clus>
<clus scale="   81.634">  1  5  2 -1</clus>
<clus scale="   91.087">  7  8 -1 -1</clus>
<clus scale="   25.293">  1  5  2 -1</clus>
</clustering>
</event>
<event>
 9    1  0.6270443E-005  0.1253250E+03  0.7546771E-02  0.1254436E+00
          1   -1    0    0  502    0 -0.00000000000E+00  0.00000000000E+00  0.25240537029E+02  0.25240537029E+02  0.00000000000E+00 0. -1.
         21   -1    0    0  501  502  0.00000000000E+00 -0.00000000000E+00 -0.87413777501E+03  0.87413777501E+03  0.00000000000E+00 0. -1.
        -24    2    1    2    0    0 -0.18848065932E+02 -0.12708293183E+02 -0.22653280369E+03  0.24158847788E+03  0.80815414326E+02 0.  0.
         23    2    1    2    0    0 -0.65451342681E+02  0.47639029492E+02 -0.35161945896E+03  0.37208126183E+03  0.90856293669E+02 0.  0.
         13    1    3    3    0    0  0.17099506145E+02  0.25996035281E+02 -0.86046368121E+02  0.91499532390E+02  0.00000000000E+00 0. -1.
        -14    1    3    3    0    0 -0.35947572077E+02 -0.38704328464E+02 -0.14048643557E+03  0.15008894549E+03  0.00000000000E+00 0.  1.
        -13    1    4    4    0    0 -0.64599450843E+02 -0.52522534654E+01 -0.23941453311E+03  0.24803224363E+03  0.00000000000E+00 0. -1.
         13    1    4    4    0    0 -0.85189183790E+00  0.52891282957E+02 -0.11220492585E+03  0.12404901820E+03  0.00000000000E+00 0.  1.
          2    1    1    2  501    0  0.84299408613E+02 -0.34930736308E+02 -0.27074497533E+03  0.28570857232E+03  0.00000000000E+00 0. -1.
<scales pt_clust_5="13000.00000" pt_clust_6="13000.00000" pt_clust_7="13000.00000" pt_clust_8="13000.00000" pt_clust_9="86.32200"></scales>
<clustering>
<clus scale="   80.815">  5  6 -1 -1</clus>
<clus scale="   83.952">  1  5  2 -1</clus>
<clus scale="   86.322">  2  9  1 -1</clus>
<clus scale="   90.856">  7  8 -1 -1</clus>
<clus scale="   86.322">  2  5  1 -1</clus>
</clustering>
</event>
<event>
 9    1  0.6270443E-005  0.1646528E+03  0.7546771E-02  0.1203079E+00
         -2   -1    0    0    0  501 -0.00000000000E+00  0.00000000000E+00  0.22462662913E+03  0.22462662913E+03  0.00000000000E+00 0.  1.
         21   -1    0    0  501  502  0.00000000000E+00 -0.00000000000E+00 -0.10881127983E+04  0.10881127983E+04  0.00000000000E+00 0.  1.
         23    2    1    2    0    0  0.48107592416E+02 -0.30643723617E+02  0.16666053789E+03  0.19815406606E+03  0.90751973855E+02 0.  0.
        -24    2    1    2    0    0  0.15198071236E+02  0.14463989526E+03 -0.17122716719E+03  0.24582445631E+03  0.99795991228E+02 0.  0.
         11    1    4    4    0    0  0.29885779706E+01  0.14224785697E+03 -0.18084058254E+03  0.23010150087E+03  0.00000000000E+00 0. -1.
        -12    1    4    4    0    0  0.12209493265E+02  0.23920382884E+01  0.96134153477E+01  0.15722955435E+02  0.00000000000E+00 0.  1.
        -11    1    3    3    0    0  0.16317328987E+02  0.32497513129E+02  0.52026589928E+02  0.63475267975E+02  0.00000000000E+00 0. -1.
         11    1    3    3    0    0  0.31790263429E+02 -0.63141236747E+02  0.11463394797E+03  0.13467879808E+03  0.00000000000E+00 0.  1.
         -1    1    1    2    0  502 -0.63305663652E+02 -0.11399617164E+03 -0.85891953988E+03  0.86876090507E+03  0.00000000000E+00 0.  1.
<scales pt_clust_5="13000.00000" pt_clust_6="13000.00000" pt_clust_7="13000.00000" pt_clust_8="13000.00000" pt_clust_9="130.96300"></scales>
<clustering>
<clus scale="   90.752">  7  8 -1 -1</clus>
<clus scale="   99.796">  5  6 -1 -1</clus>
<clus scale="  107.188">  1  7  2 -1</clus>
<clus scale="  130.963">  2  9  1 -1</clus>
<clus scale="  130.963">  2  5  1 -1</clus>
</clustering>
</event>
<event>
 9    1  0.6270443E-005  0.1274900E+03  0.7546771E-02  0.1246009E+00
          3   -1    0    0  502    0 -0.00000000000E+00  0.00000000000E+00  0.30951808637E+03  0.30951808637E+03  0.00000000000E+00 0. -1.
         21   -1    0    0  501  502  0.00000000000E+00 -0.00000000000E+00 -0.14718046285E+03  0.14718046285E+03  0.00000000000E+00 0. -1.
        -24    2    1    2    0    0  0.52531857754E+02  0.99051020986E+01  0.20072805297E+03  0.22180183344E+03  0.77759854297E+02 0.  0.
         23    2    1    2    0    0  0.46836106432E+02  0.20977190118E+02  0.31848745003E+02  0.10935289910E+03  0.91159479006E+02 0.  0.
         13    1    3    3    0    0  0.42096898585E+02 -0.29854248525E+02  0.90829541143E+02  0.10446736605E+03  0.00000000000E+00 0. -1.
        -14    1    3    3    0    0  0.10434959170E+02  0.39759350624E+02  0.10989851183E+03  0.11733446739E+03  0.00000000000E+00 0.  1.
        -11    1    4    4    0    0 -0.84268293163E+01  0.42458720088E+02  0.24138960250E+02  0.49562523803E+02  0.00000000000E+00 0. -1.
         11    1    4    4    0    0  0.55262935748E+02 -0.21481529970E+02  0.77097847530E+01  0.59790375298E+02  0.00000000000E+00 0.  1.
          4    1    1    2  501    0 -0.99367964186E+02 -0.30882292216E+02 -0.70239174457E+02  0.12554381668E+03  0.00000000000E+00 0. -1.
<scales pt_clust_5="13000.00000" pt_clust_6="13000.00000" pt_clust_7="13000.00000" pt_clust_8="13000.00000" pt_clust_9="89.12722"></scales>
<clustering>
<clus scale="   77.760">  5  6 -1 -1</clus>
<clus scale="   91.159">  7  8 -1 -1</clus>
<clus scale="   94.363">  1  5  2 -1</clus>
<clus scale="   89.127">  2  9  1 -1</clus>
<clus scale="   89.127">  2  5  1 -1</clus>
</clustering>
</event>
<event>
 9    1  0.6270443E-005  0.5483971E+03  0.7546771E-02  0.1015658E+00
         21   -1    0    0  501  502  0.00000000000E+00  0.00000000000E+00  0.68309556057E+03  0.68309556057E+03  0.00000000000E+00 0. -1.
          1   -1    0    0  502    0 -0.00000000000E+00 -0.00000000000E+00 -0.19834962526E+04  0.19834962526E+04  0.00000000000E+00 0. -1.
         23    2    1    2    0    0  0.32221045482E+03 -0.12819578449E+03 -0.10111508221E+04  0.10725867428E+04  0.88105615638E+02 0.  0.
        -24    2    1    2    0    0  0.36422252201E+03  0.36960969250E+03  0.34461667675E+03  0.62898812454E+03  0.87155244136E+02 0.  0.
         13    1    4    4    0    0  0.25343566894E+03  0.25728358775E+03  0.18994398291E+03  0.40804803573E+03  0.00000000000E+00 0. -1.
        -14    1    4    4    0    0  0.11078685306E+03  0.11232610476E+03  0.15467269385E+03  0.22094008881E+03  0.00000000000E+00 0.  1.
        -13    1    3    3    0    0  0.17906530547E+03 -0.10374045244E+03 -0.49809058963E+03  0.53937065231E+03  0.00000000000E+00 0.  1.
         13    1    3    3    0    0  0.14314514936E+03 -0.24455332052E+02 -0.51306023249E+03  0.53321609054E+03  0.00000000000E+00 0. -1.
          2    1    1    2  501    0 -0.68643297683E+03 -0.24141390801E+03 -0.63386654666E+03  0.96501694578E+03  0.00000000000E+00 0. -1.
<scales pt_clust_5="13000.00000" pt_clust_6="13000.00000" pt_clust_7="13000.00000" pt_clust_8="13000.00000" pt_clust_9="541.42745"></scales>
<clustering>
<clus scale="   87.155">  5  6 -1 -1</clus>
<clus scale="   88.106">  7  8 -1 -1</clus>
<clus scale="  357.794">  2  7  1 -1</clus>
<clus scale="  541.427">  1  9  2 -1</clus>
<clus scale="  541.427">  1  5  2 -1</clus>
</clustering>
</event>
<event>
 9    1  0.6270443E-005  0.1099099E+03  0.7546771E-02  0.1264339E+00
          3   -1    0    0  502    0 -0.00000000000E+00  0.00000000000E+00  0.25476128797E+02  0.25476128797E+02  0.00000000000E+00 0. -1.
         21   -1    0    0  501  502  0.00000000000E+00 -0.00000000000E+00 -0.61372949934E+03  0.61372949934E+03  0.00000000000E+00 0.  1.
         23    2    1    2    0    0 -0.53870418478E+02  0.46228843886E+02 -0.17787730121E+03  0.21162392071E+03  0.90029003862E+02 0.  0.
        -24    2    1    2    0    0  0.32247785900E+02 -0.39731317575E+02 -0.29771237617E+03  0.31267799189E+03  0.80724038522E+02 0.  0.
         13    1    4    4    0    0  0.49201399731E+02 -0.11975411757E+01 -0.11340927871E+03  0.12362797555E+03  0.00000000000E+00 0. -1.
        -14    1    4    4    0    0 -0.16953613831E+02 -0.38533776399E+02 -0.18430309746E+03  0.18905001634E+03  0.00000000000E+00 0.  1.
        -13    1    3    3    0    0 -0.55744145432E+02 -0.46950216632E+01 -0.13074727646E+03  0.14221217698E+03  0.00000000000E+00 0.  1.
         13    1    3    3    0    0  0.18737269537E+01  0.50923865549E+02 -0.47130024750E+02  0.69411743733E+02  0.00000000000E+00 0. -1.
          4    1    1    2  501    0  0.21622632578E+02 -0.64975263112E+01 -0.11266369316E+03  0.11490371554E+03  0.00000000000E+00 0. -1.
<scales pt_clust_5="13000.00000" pt_clust_6="13000.00000" pt_clust_7="13000.00000" pt_clust_8="13000.00000" pt_clust_9="22.57778"></scales>
<clustering>
<clus scale="   22.578">  2  9  1 -1</clus>
<clus scale="   80.724">  5  6 -1 -1</clus>
<clus scale="   90.029">  7  8 -1 -1</clus>
<clus scale="  102.427">  2  5  1 -1</clus>
<clus scale="   22.578">  2  5  1 -1</clus>
</clustering>
</event>
<event>
 9    1  0.6270443E-005  0.1264939E+03  0.7546771E-02  0.1250675E+00
          1   -1    0    0  502    0 -0.00000000000E+00  0.00000000000E+00  0.40271929237E+03  0.40271929237E+03  0.00000000000E+00 0. -1.
         21   -1    0    0  501  502  0.00000000000E+00 -0.00000000000E+00 -0.10459702069E+03  0.10459702069E+03  0.00000000000E+00 0. -1.
        -24    2    1    2    0    0  0.31559704368E+02  0.14287659462E+02 -0.37057092195E+02  0.95474148235E+02  0.80882215268E+02 0.  0.
         23    2    1    2    0    0  0.57829068912E+02  0.43320792728E+02  0.10608975253E+03  0.15927309194E+03  0.94297348481E+02 0.  0.
         13    1    3    3    0    0  0.16081677588E+02 -0.29784296363E+02 -0.35041308506E+02  0.48719790288E+02  0.00000000000E+00 0. -1.
        -14    1    3    3    0    0  0.15478026780E+02  0.44071955825E+02 -0.20157836887E+01  0.46754357947E+02  0.00000000000E+00 0.  1.
        -13    1    4    4    0    0  0.37569496913E+02 -0.25237049279E+02  0.27168011855E+02  0.52787087652E+02  0.00000000000E+00 0.  1.
         13    1    4    4    0    0  0.20259571999E+02  0.68557842007E+02  0.78921740680E+02  0.10648600429E+03  0.00000000000E+00 0. -1.
          2    1    1    2  501    0 -0.89388773280E+02 -0.57608452190E+02  0.22908961134E+03  0.25256907288E+03  0.00000000000E+00 0. -1.
<scales pt_clust_5="13000.00000" pt_clust_6="13000.00000" pt_clust_7="13000.00000" pt_clust_8="13000.00000" pt_clust_9="84.31317"></scales>
<clustering>
<clus scale="   80.882">  5  6 -1 -1</clus>
<clus scale="   87.989">  1  5  2 -1</clus>
<clus scale="   84.313">  2  9  1 -1</clus>
<clus scale="   94.297">  7  8 -1 -1</clus>
<clus scale="   84.313">  2  5  1 -1</clus>
</clustering>
</event>
<event>
 9    1  0.6270443E-005  0.2011906E+03  0.7546771E-02  0.1149026E+00
         -2   -1    0    0    0  501 -0.00000000000E+00  0.00000000000E+00  0.66054226857E+02  0.66054226857E+02  0.00000000000E+00 0.  1.
         21   -1    0    0  501  502  0.00000000000E+00 -0.00000000000E+00 -0.82236630063E+03  0.82236630063E+03  0.00000000000E+00 0.  1.
         23    2    1    2    0    0  0.13262542834E+03 -0.12718126047E+03 -0.24177731173E+03  0.31515981195E+03  0.84290339569E+02 0.  0.
        -24    2    1    2    0    0 -0.98987547721E+02  0.15540785631E+03 -0.35811874446E+03  0.41079774043E+03  0.80966733910E+02 0.  0.
         11    1    4    4    0    0 -0.55166106764E+02  0.21000845811E+02 -0.12344035894E+03  0.13682783736E+03  0.00000000000E+00 0. -1.
        -12    1    4    4    0    0 -0.43821440958E+02  0.13440701050E+03 -0.23467838552E+03  0.27396990307E+03  0.00000000000E+00 0.  1.
        -13    1    3    3    0    0  0.11423404950E+03 -0.53825380825E+02 -0.14346726738E+03  0.19112678121E+03  0.00000000000E+00 0. -1.
         13    1    3    3    0    0  0.18391378833E+02 -0.73355879650E+02 -0.98310044344E+02  0.12403303074E+03  0.00000000000E+00 0.  1.
         -1    1    1    2    0  502 -0.33637880614E+02 -0.28226595833E+02 -0.15641601758E+03  0.16246297511E+03  0.00000000000E+00 0.  1.
<scales pt_clust_5="13000.00000" pt_clust_6="13000.00000" pt_clust_7="13000.00000" pt_clust_8="13000.00000" pt_clust_9="43.91182"></scales>
<clustering>
<clus scale="   43.912">  2  9  1 -1</clus>
<clus scale="   80.967">  5  6 -1 -1</clus>
<clus scale="   84.290">  7  8 -1 -1</clus>
<clus scale="  199.821">  2  5  1 -1</clus>
<clus scale="   43.912">  2  5  1 -1</clus>
</clustering>
</event>
<event>
 9    1  0.6270443E-005  0.2705868E+03  0.7546771E-02  0.1146751E+00
         21   -1    0    0  501  502  0.00000000000E+00  0.00000000000E+00  0.12133373146E+04  0.12133373146E+04  0.00000000000E+00 0. -1.
          3   -1    0    0  502    0 -0.00000000000E+00 -0.00000000000E+00 -0.79045443904E+02  0.79045443904E+02  0.00000000000E+00 0. -1.
         23    2    1    2    0    0 -0.14408304130E+02 -0.16864544651E+02  0.20807477284E+03  0.22541691412E+03  0.83819222059E+02 0.  0.
        -24    2    1    2    0    0 -0.12853370018E+03  0.22865284485E+03  0.48114206612E+03  0.55376170900E+03  0.79695087785E+02 0.  0.
         11    1    4    4    0    0 -0.13342238210E+03  0.17911503041E+03  0.37386742983E+03  0.43550038031E+03  0.00000000000E+00 0. -1.
        -12    1    4    4    0    0  0.48886819199E+01  0.49537814442E+02  0.10727463629E+03  0.11826132868E+03  0.00000000000E+00 0.  1.
        -13    1    3    3    0    0  0.18693845832E+02  0.25350298945E+02  0.57353606945E+02  0.65433429975E+02  0.00000000000E+00 0.  1.
         13    1    3    3    0    0 -0.33102149962E+02 -0.42214843596E+02  0.15072116589E+03  0.15998348415E+03  0.00000000000E+00 0. -1.
          4    1    1    2  501    0  0.14294200431E+03 -0.21178830020E+03  0.44507503172E+03  0.51320413537E+03  0.00000000000E+00 0. -1.
<scales pt_clust_5="13000.00000" pt_clust_6="13000.00000" pt_clust_7="13000.00000" pt_clust_8="13000.00000" pt_clust_9="258.58441"></scales>
<clustering>
<clus scale="   79.695">  5  6 -1 -1</clus>
<clus scale="   83.819">  7  8 -1 -1</clus>
<clus scale="   86.705">  2  7  1 -1</clus>
<clus scale="  258.584">  1  9  2 -1</clus>
<clus scale="  258.584">  1  5  2 -1</clus>
</clustering>
</event>
<event>
 9    1  0.6270443E-005  0.1550248E+03  0.7546771E-02  0.1223242E+00
         21   -1    0    0  501  502  0.00000000000E+00  0.00000000000E+00  0.21236316256E+03  0.21236316256E+03  0.00000000000E+00 0. -1.
          1   -1    0    0  502    0 -0.00000000000E+00 -0.00000000000E+00 -0.18923309973E+03  0.18923309973E+03  0.00000000000E+00 0. -1.
        -24    2    1    2    0    0 -0.21533773743E+02 -0.53708685129E-01 -0.40177536774E+02  0.92829994588E+02  0.80866971860E+02 0.  0.
         23    2    1    2    0    0  0.86853999195E+01 -0.12557658705E+03  0.90337971514E+02  0.17962025374E+03  0.90871178444E+02 0.  0.
         11    1    3    3    0    0  0.30159608882E+02  0.38054049007E+01 -0.23344467514E+02  0.38328152550E+02  0.00000000000E+00 0. -1.
        -12    1    3    3    0    0 -0.51693382625E+02 -0.38591135859E+01 -0.16833069260E+02  0.54501842038E+02  0.00000000000E+00 0.  1.
        -11    1    4    4    0    0  0.16738002361E+02 -0.10547024427E+03  0.10784407882E+03  0.15177113851E+03  0.00000000000E+00 0. -1.
         11    1    4    4    0    0 -0.80526024420E+01 -0.20106342777E+02 -0.17506107308E+02  0.27849115229E+02  0.00000000000E+00 0.  1.
          2    1    1    2  501    0  0.12848373823E+02  0.12563029573E+03 -0.27030371917E+02  0.12914601396E+03  0.00000000000E+00 0. -1.
<scales pt_clust_5="13000.00000" pt_clust_6="13000.00000" pt_clust_7="13000.00000" pt_clust_8="13000.00000" pt_clust_9="125.59908"></scales>
<clustering>
<clus scale="   80.867">  5  6 -1 -1</clus>
<clus scale="   83.685">  2  5  1 -1</clus>
<clus scale="   90.871">  7  8 -1 -1</clus>
<clus scale="  125.599">  1  9  2 -1</clus>
<clus scale="  125.599">  1  5  2 -1</clus>
</clustering>
</event>
<event>
 9    1  0.6270443E-005  0.2651933E+03  0.7546771E-02  0.1104522E+00
         21   -1    0    0  501  502  0.00000000000E+00  0.00000000000E+00  0.23066607064E+03  0.23066607064E+03  0.00000000000E+00 0. -1.
          1   -1    0    0  502    0 -0.00000000000E+00 -0.00000000000E+00 -0.52108127128E+03  0.52108127128E+03  0.00000000000E+00 0. -1.
        -24    2    1    2    0    0 -0.19868275575E+03  0.13655331050E+03 -0.22847591017E+03  0.34179654355E+03  0.80634928011E+02 0.  0.
         23    2    1    2    0    0  0.22486874960E+03 -0.15731296665E+03  0.49948352142E+02  0.29317959402E+03  0.90255816692E+02 0.  0.
         13    1    3    3    0    0 -0.53441989377E+02  0.83802928195E+02 -0.97531749591E+02  0.13925307602E+03  0.00000000000E+00 0. -1.
        -14    1    3    3    0    0 -0.14524076638E+03  0.52750382300E+02 -0.13094416058E+03  0.20254346753E+03  0.00000000000E+00 0.  1.
        -11    1    4    4    0    0  0.20179244133E+03 -0.13301525315E+03  0.11194807100E+02  0.24194745432E+03  0.00000000000E+00 0. -1.
         11    1    4    4    0    0  0.23076308271E+02 -0.24297713496E+02  0.38753545042E+02  0.51232139697E+02  0.00000000000E+00 0.  1.
          2    1    1    2  501    0 -0.26185993845E+02  0.20759656155E+02 -0.11188764261E+03  0.11677120436E+03  0.00000000000E+00 0. -1.
<scales pt_clust_5="13000.00000" pt_clust_6="13000.00000" pt_clust_7="13000.00000" pt_clust_8="13000.00000" pt_clust_9="33.41662"></scales>
<clustering>
<clus scale="   33.417">  1  9  2 -1</clus>
<clus scale="   80.635">  5  6 -1 -1</clus>
<clus scale="   90.256">  7  8 -1 -1</clus>
<clus scale="  262.075">  2  5  1 -1</clus>
<clus scale="   33.417">  1  5  2 -1</clus>
</clustering>
</event>
<event>
 9    1  0.6270443E-005  0.1222631E+03  0.7546771E-02  0.1243096E+00
         21   -1    0    0  501  502  0.00000000000E+00  0.00000000000E+00  0.83366814126E+02  0.83366814126E+02  0.00000000000E+00 0. -1.
          1   -1    0    0  502    0 -0.00000000000E+00 -0.00000000000E+00 -0.83500658225E+03  0.83500658225E+03  0.00000000000E+00 0. -1.
         23    2    1    2    0    0 -0.40399518711E+02 -0.85548925153E+02 -0.71591085454E+03  0.72791614641E+03  0.91557767821E+02 0.  0.
        -24    2    1    2    0    0  0.25104442363E+02  0.28117122070E+02 -0.77996512675E+02  0.11752645195E+03  0.79424211285E+02 0.  0.
         13    1    4    4    0    0  0.13339415070E+02  0.54822796513E+02 -0.63488030487E+02  0.84936499969E+02  0.00000000000E+00 0. -1.
        -14    1    4    4    0    0  0.11765027293E+02 -0.26705674442E+02 -0.14508482188E+02  0.32589951979E+02  0.00000000000E+00 0.  1.
        -11    1    3    3    0    0  0.24226174753E+02 -0.28267689740E+01 -0.89195608706E+02  0.92470291328E+02  0.00000000000E+00 0.  1.
         11    1    3    3    0    0 -0.64625693463E+02 -0.82722156179E+02 -0.62671524584E+03  0.63544585508E+03  0.00000000000E+00 0. -1.
          2    1    1    2  501    0  0.15295076348E+02  0.57431803082E+02  0.42267599095E+02  0.72930798014E+02  0.00000000000E+00 0. -1.
<scales pt_clust_5="13000.00000" pt_clust_6="13000.00000" pt_clust_7="13000.00000" pt_clust_8="13000.00000" pt_clust_9="59.43359"></scales>
<clustering>
<clus scale="   59.434">  1  9  2 -1</clus>
<clus scale="   79.424">  5  6 -1 -1</clus>
<clus scale="   91.558">  7  8 -1 -1</clus>
<clus scale="  113.462">  1  5  2 -1</clus>
<clus scale="   59.434">  1  5  2 -1</clus>
</clustering>
</event>
<event>
 9    1  0.6270443E-005  0.1064480E+03  0.7546771E-02  0.1271418E+00
         -4   -1    0    0    0  501 -0.00000000000E+00  0.00000000000E+00  0.12105167090E+03  0.12105167090E+03  0.00000000000E+00 0.  1.
         21   -1    0    0  501  502  0.00000000000E+00 -0.00000000000E+00 -0.12744024920E+03  0.12744024920E+03  0.00000000000E+00 0.  1.
        -24    2    1    2    0    0  0.88395681185E+01 -0.60537444973E+02  0.34373692017E+02  0.10819276161E+03  0.82348058587E+02 0.  0.
         23    2    1    2    0    0 -0.22628711446E+02  0.33986749988E+02 -0.44767229735E+02  0.11011440111E+03  0.91945194095E+02 0.  0.
         13    1    3    3    0    0 -0.73386670189E+01 -0.76156594172E+02  0.37980373079E+02  0.85417747621E+02  0.00000000000E+00 0. -1.
        -14    1    3    3    0    0  0.16178235137E+02  0.15619149198E+02 -0.36066810622E+01  0.22775013987E+02  0.00000000000E+00 0.  1.
        -11    1    4    4    0    0 -0.41768910848E+02  0.55290812499E+02 -0.42714212211E+02  0.81401595716E+02  0.00000000000E+00 0.  1.
         11    1    4    4    0    0  0.19140199402E+02 -0.21304062511E+02 -0.20530175245E+01  0.28712805394E+02  0.00000000000E+00 0. -1.
         -3    1    1    2    0  502  0.13789143327E+02  0.26550694986E+02  0.40049594225E+01  0.30184757377E+02  0.00000000000E+00 0.  1.
<scales pt_clust_5="13000.00000" pt_clust_6="13000.00000" pt_clust_7="13000.00000" pt_clust_8="13000.00000" pt_clust_9="29.91790"></scales>
<clustering>
<clus scale="   29.918">  2  9  1 -1</clus>
<clus scale="   82.348">  5  6 -1 -1</clus>
<clus scale="   91.945">  7  8 -1 -1</clus>
<clus scale="   98.277">  1  5  2 -1</clus>
<clus scale="   29.918">  2  5  1 -1</clus>
</clustering>
</event>
<event>
 9    1  0.6270443E-005  0.1118922E+03  0.7546771E-02  0.1260620E+00
          1   -1    0    0  502    0 -0.00000000000E+00  0.00000000000E+00  0.73656301293E+02  0.73656301293E+02  0.00000000000E+00 0. -1.
         21   -1    0    0  501  502  0.00000000000E+00 -0.00000000000E+00 -0.42531734823E+03  0.42531734823E+03  0.00000000000E+00 0.  1.
         23    2    1    2    0    0 -0.32844181145E+02 -0.56559999195E+02  0.59397408362E+01  0.11170055568E+03  0.90354633941E+02 0.  0.
        -24    2    1    2    0    0  0.89275903108E+01  0.74416459310E+02 -0.32437002549E+03  0.34260610327E+03  0.80904371172E+02 0.  0.
         13    1    4    4    0    0 -0.18896803031E+02 -0.73029024862E+01 -0.10352199034E+03  0.10548565795E+03  0.00000000000E+00 0. -1.
        -14    1    4    4    0    0  0.27824393342E+02  0.81719361796E+02 -0.22084803516E+03  0.23712044532E+03  0.00000000000E+00 0.  1.
        -11    1    3    3    0    0 -0.58026456011E+02 -0.20789782626E+02  0.21484611924E+02  0.65275364483E+02  0.00000000000E+00 0. -1.
         11    1    3    3    0    0  0.25182274866E+02 -0.35770216569E+02 -0.15544871088E+02  0.46425191200E+02  0.00000000000E+00 0.  1.
          2    1    1    2  501    0  0.23916590834E+02 -0.17856460115E+02 -0.33230762283E+02  0.44666990573E+02  0.00000000000E+00 0. -1.
<scales pt_clust_5="13000.00000" pt_clust_6="13000.00000" pt_clust_7="13000.00000" pt_clust_8="13000.00000" pt_clust_9="29.84722"></scales>
<clustering>
<clus scale="   29.847">  2  9  1 -1</clus>
<clus scale="   80.904">  5  6 -1 -1</clus>
<clus scale="   90.355">  7  8 -1 -1</clus>
<clus scale="  104.410">  2  5  1 -1</clus>
<clus scale="   29.847">  2  5  1 -1</clus>
</clustering>
</event>
<event>
 9    1  0.6270443E-005  0.1484099E+03  0.7546771E-02  0.1205021E+00
         21   -1    0    0  501  502  0.00000000000E+00  0.00000000000E+00  0.41301714400E+03  0.41301714400E+03  0.00000000000E+00 0. -1.
          1   -1    0    0  502    0 -0.00000000000E+00 -0.00000000000E+00 -0.18123967119E+03  0.18123967119E+03  0.00000000000E+00 0. -1.
        -24    2    1    2    0    0 -0.13102178986E+03  0.68167661949E+02 -0.58098978556E+02  0.17722709510E+03  0.78869590935E+02 0.  0.
         23    2    1    2    0    0  0.30588192107E+02 -0.86617876757E+02  0.24373192684E+02  0.13256654434E+03  0.92420463571E+02 0.  0.
         11    1    3    3    0    0 -0.91919901047E+02  0.49443046898E+02  0.44927256674E+00  0.10437473325E+03  0.00000000000E+00 0. -1.
        -12    1    3    3    0    0 -0.39101888814E+02  0.18724615051E+02 -0.58548251123E+02  0.72852361850E+02  0.00000000000E+00 0.  1.
        -11    1    4    4    0    0  0.50518990551E+02 -0.83129186916E+02 -0.44181812185E+01  0.97376334132E+02  0.00000000000E+00 0. -1.
         11    1    4    4    0    0 -0.19930798444E+02 -0.34886898405E+01  0.28791373902E+02  0.35190210209E+02  0.00000000000E+00 0.  1.
          2    1    1    2  501    0  0.10043359775E+03  0.18450214808E+02  0.26550325869E+03  0.28446317575E+03  0.00000000000E+00 0. -1.
<scales pt_clust_5="13000.00000" pt_clust_6="13000.00000" pt_clust_7="13000.00000" pt_clust_8="13000.00000" pt_clust_9="102.11424"></scales>
<clustering>
<clus scale="   78.870">  5  6 -1 -1</clus>
<clus scale="   92.420">  7  8 -1 -1</clus>
<clus scale="  102.114">  1  9  2 -1</clus>
<clus scale="  140.372">  2  5  1 -1</clus>
<clus scale="  102.114">  1  5  2 -1</clus>
</clustering>
</event>
<event>
 9    1  0.6270443E-005  0.1975253E+03  0.7546771E-02  0.1152609E+00
         21   -1    0    0  501  502  0.00000000000E+00  0.00000000000E+00  0.12256578899E+03  0.12256578899E+03  0.00000000000E+00 0. -1.
         -2   -1    0    0    0  501 -0.00000000000E+00 -0.00000000000E+00 -0.40570741670E+03  0.40570741670E+03  0.00000000000E+00 0.  1.
        -24    2    1    2    0    0  0.70364517537E+02  0.15115676206E+03 -0.14544258585E+03  0.23587621501E+03  0.81758858741E+02 0.  0.
         23    2    1    2    0    0 -0.11591876452E+03 -0.15268422785E+03 -0.10506440680E+03  0.23633861062E+03  0.89820798766E+02 0.  0.
         13    1    3    3    0    0  0.54214576552E+02  0.12772834067E+03 -0.70349445310E+02  0.15557247114E+03  0.00000000000E+00 0. -1.
        -14    1    3    3    0    0  0.16149940985E+02  0.23428421387E+02 -0.75093140540E+02  0.80303743865E+02  0.00000000000E+00 0.  1.
        -13    1    4    4    0    0 -0.15937664128E+02 -0.45931032015E+02 -0.71187189208E+02  0.86204899786E+02  0.00000000000E+00 0.  1.
         13    1    4    4    0    0 -0.99981100393E+02 -0.10675319583E+03 -0.33877217593E+02  0.15013371083E+03  0.00000000000E+00 0. -1.
         -1    1    1    2    0  502  0.45554246984E+02  0.15274657876E+01 -0.32634635056E+02  0.56058380063E+02  0.00000000000E+00 0.  1.
<scales pt_clust_5="13000.00000" pt_clust_6="13000.00000" pt_clust_7="13000.00000" pt_clust_8="13000.00000" pt_clust_9="45.57987"></scales>
<clustering>
<clus scale="   45.580">  1  9  2 -1</clus>
<clus scale="   81.759">  5  6 -1 -1</clus>
<clus scale="   89.821">  7  8 -1 -1</clus>
<clus scale="  193.992">  2  5  1 -1</clus>
<clus scale="   45.580">  1  5  2 -1</clus>
</clustering>
</event>
<event>
 9    1  0.6270443E-005  0.1507561E+03  0.7546771E-02  0.1201413E+00
         21   -1    0    0  501  502  0.00000000000E+00  0.00000000000E+00  0.75976694156E+02  0.75976694156E+02  0.00000000000E+00 0. -1.
          1   -1    0    0  502    0 -0.00000000000E+00 -0.00000000000E+00 -0.60698923831E+03  0.60698923831E+03  0.00000000000E+00 0. -1.
         23    2    1    2    0    0  0.10601751490E+03  0.27530154665E+02 -0.28176786835E+03  0.31555117271E+03  0.90453236974E+02 0.  0.
        -24    2    1    2    0    0 -0.15541231418E+03 -0.25093321230E+02 -0.85244173003E+02  0.19611984077E+03  0.80085958475E+02 0.  0.
         11    1    4    4    0    0 -0.95224073722E+02 -0.42149172252E+01 -0.75060616755E+01  0.95612398283E+02  0.00000000000E+00 0. -1.
        -12    1    4    4    0    0 -0.60188240456E+02 -0.20878404005E+02 -0.77738111327E+02  0.10050744249E+03  0.00000000000E+00 0.  1.
        -11    1    3    3    0    0  0.27446292927E+02 -0.12554327637E+02 -0.17251940159E+03  0.17513952742E+03  0.00000000000E+00 0.  1.
         11    1    3    3    0    0  0.78571221969E+02  0.40084482303E+02 -0.10924846676E+03  0.14041164529E+03  0.00000000000E+00 0. -1.
          2    1    1    2  501    0  0.49394799282E+02 -0.24368334351E+01 -0.16400050280E+03  0.17129491899E+03  0.00000000000E+00 0. -1.
<scales pt_clust_5="13000.00000" pt_clust_6="13000.00000" pt_clust_7="13000.00000" pt_clust_8="13000.00000" pt_clust_9="49.45490"></scales>
<clustering>
<clus scale="   49.455">  1  9  2 -1</clus>
<clus scale="   80.086">  5  6 -1 -1</clus>
<clus scale="   90.453">  7  8 -1 -1</clus>
<clus scale="  144.774">  1  5  2 -1</clus>
<clus scale="   49.455">  1  5  2 -1</clus>
</clustering>
</event>
<event>
 9    1  0.6270443E-005  0.1504709E+03  0.7546771E-02  0.1212524E+00
         21   -1    0    0  501  502  0.00000000000E+00  0.00000000000E+00  0.33315364660E+03  0.33315364660E+03  0.00000000000E+00 0. -1.
          3   -1    0    0  502    0 -0.00000000000E+00 -0.00000000000E+00 -0.11936468623E+03  0.11936468623E+03  0.00000000000E+00 0. -1.
        -24    2    1    2    0    0 -0.38162472854E+02 -0.72495649726E+02  0.34753118375E+02  0.11985403668E+03  0.80282110768E+02 0.  0.
         23    2    1    2    0    0  0.53355960035E+02 -0.73420519965E+02  0.60101785640E+02  0.14380540599E+03  0.93969883115E+02 0.  0.
         13    1    3    3    0    0 -0.47515084729E+02 -0.70972588531E+02  0.16543561792E+01  0.85425572834E+02  0.00000000000E+00 0. -1.
        -14    1    3    3    0    0  0.93526118745E+01 -0.15230611948E+01  0.33098762196E+02  0.34428463851E+02  0.00000000000E+00 0.  1.
        -11    1    4    4    0    0 -0.13321582977E+02 -0.59545503484E+02  0.17518006080E+02  0.63482376257E+02  0.00000000000E+00 0.  1.
         11    1    4    4    0    0  0.66677543012E+02 -0.13875016481E+02  0.42583779560E+02  0.80323029737E+02  0.00000000000E+00 0. -1.
          4    1    1    2  501    0 -0.15193487181E+02  0.14591616969E+03  0.11893405635E+03  0.18885889016E+03  0.00000000000E+00 0. -1.
<scales pt_clust_5="13000.00000" pt_clust_6="13000.00000" pt_clust_7="13000.00000" pt_clust_8="13000.00000" pt_clust_9="117.52094"></scales>
<clustering>
<clus scale="   80.282">  5  6 -1 -1</clus>
<clus scale="   93.970">  7  8 -1 -1</clus>
<clus scale="  114.705">  2  5  1 -1</clus>
<clus scale="  117.521">  1  9  2 -1</clus>
<clus scale="  117.521">  1  5  2 -1</clus>
</clustering>
</event>
<event>
 9    1  0.6270443E-005  0.1622717E+03  0.7546771E-02  0.1187129E+00
          1   -1    0    0  502    0 -0.00000000000E+00  0.00000000000E+00  0.33228828503E+03  0.33228828503E+03  0.00000000000E+00 0. -1.
         21   -1    0    0  501  502  0.00000000000E+00 -0.00000000000E+00 -0.15704573383E+03  0.15704573383E+03  0.00000000000E+00 0. -1.
         23    2    1    2    0    0  0.36169889174E+01  0.14032978542E+03  0.23972874276E+03  0.29185591418E+03  0.89467721840E+02 0.  0.
        -24    2    1    2    0    0  0.13957115341E+02 -0.11251426177E+03 -0.79354737357E+02  0.16137234128E+03  0.83003602449E+02 0.  0.
         11    1    4    4    0    0 -0.69864879534E+01 -0.11163205263E+03 -0.43845117702E+02  0.12013709059E+03  0.00000000000E+00 0. -1.
        -12    1    4    4    0    0  0.20943603295E+02 -0.88220914109E+00 -0.35509619655E+02  0.41235250696E+02  0.00000000000E+00 0.  1.
        -13    1    3    3    0    0 -0.41999207294E+02  0.59206483391E+02  0.11940635959E+03  0.13973982897E+03  0.00000000000E+00 0.  1.
         13    1    3    3    0    0  0.45616196212E+02  0.81123302033E+02  0.12032238317E+03  0.15211608522E+03  0.00000000000E+00 0. -1.
          2    1    1    2  501    0 -0.17574104259E+02 -0.27815523654E+02  0.14868545797E+02  0.36105763400E+02  0.00000000000E+00 0. -1.
<scales pt_clust_5="13000.00000" pt_clust_6="13000.00000" pt_clust_7="13000.00000" pt_clust_8="13000.00000" pt_clust_9="32.90218"></scales>
<clustering>
<clus scale="   32.902">  2  9  1 -1</clus>
<clus scale="   83.004">  5  6 -1 -1</clus>
<clus scale="   89.468">  7  8 -1 -1</clus>
<clus scale="  158.799">  2  5  1 -1</clus>
<clus scale="   32.902">  2  5  1 -1</clus>
</clustering>
</event>
<event>
 9    1  0.6270443E-005  0.1147705E+03  0.7546771E-02  0.1262727E+00
         21   -1    0    0  501  502  0.00000000000E+00  0.00000000000E+00  0.23151641844E+03  0.23151641844E+03  0.00000000000E+00 0. -1.
         -4   -1    0    0    0  501 -0.00000000000E+00 -0.00000000000E+00 -0.11296596244E+03  0.11296596244E+03  0.00000000000E+00 0.  1.
        -24    2    1    2    0    0 -0.40696640735E+01 -0.87409263315E+02  0.44235221342E+02  0.12102716244E+03  0.70949825672E+02 0.  0.
         23    2    1    2    0    0 -0.85464989937E+01  0.17841042604E+02  0.10628451063E+03  0.14586050529E+03  0.97916006641E+02 0.  0.
         13    1    3    3    0    0  0.41722393455E+01 -0.91056597935E+02  0.55408775134E+02  0.10667166433E+03  0.00000000000E+00 0. -1.
        -14    1    3    3    0    0 -0.82419034191E+01  0.36473346200E+01 -0.11173553792E+02  0.14355498115E+02  0.00000000000E+00 0.  1.
        -11    1    4    4    0    0 -0.48981468256E+02 -0.18617580019E+01  0.30495181417E+02  0.57728731712E+02  0.00000000000E+00 0.  1.
         11    1    4    4    0    0  0.40434969262E+02  0.19702800606E+02  0.75789329212E+02  0.88131773575E+02  0.00000000000E+00 0. -1.
         -3    1    1    2    0  502  0.12616163067E+02  0.69568220711E+02 -0.31969275962E+02  0.77594713151E+02  0.00000000000E+00 0.  1.
<scales pt_clust_5="13000.00000" pt_clust_6="13000.00000" pt_clust_7="13000.00000" pt_clust_8="13000.00000" pt_clust_9="70.70297"></scales>
<clustering>
<clus scale="   70.703">  1  9  2 -1</clus>
<clus scale="   70.950">  5  6 -1 -1</clus>
<clus scale="   92.836">  2  5  1 -1</clus>
<clus scale="   97.916">  7  8 -1 -1</clus>
<clus scale="   70.703">  1  5  2 -1</clus>
</clustering>
</event>
<event>
 9    1  0.6270443E-005  0.1219462E+03  0.7546771E-02  0.1245977E+00
          1   -1    0    0  502    0 -0.00000000000E+00  0.00000000000E+00  0.16816942380E+03  0.16816942380E+03  0.00000000000E+00 0. -1.
         21   -1    0    0  501  502  0.00000000000E+00 -0.00000000000E+00 -0.11254477332E+03  0.11254477332E+03  0.00000000000E+00 0. -1.
        -24    2    1    2    0    0  0.20800427997E+02 -0.78621083057E+02  0.79950877981E+02  0.13863887628E+03  0.78833131483E+02 0.  0.
         23    2    1    2    0    0 -0.11219603379E+02  0.56751139566E+02 -0.84671125183E+01  0.11341178728E+03  0.97180091361E+02 0.  0.
         13    1    3    3    0    0  0.23873537718E+02 -0.94209579247E+02  0.71397494977E+02  0.12059433201E+03  0.00000000000E+00 0. -1.
        -14    1    3    3    0    0 -0.30731097203E+01  0.15588496190E+02  0.85533830041E+01  0.18044544262E+02  0.00000000000E+00 0.  1.
        -13    1    4    4    0    0 -0.18641550448E+02  0.25516750104E+02  0.42630542698E+02  0.53065762123E+02  0.00000000000E+00 0.  1.
         13    1    4    4    0    0  0.74219470692E+01  0.31234389462E+02 -0.51097655216E+02  0.60346025154E+02  0.00000000000E+00 0. -1.
          2    1    1    2  501    0 -0.95808246184E+01  0.21869943491E+02 -0.15859114975E+02  0.28663533565E+02  0.00000000000E+00 0. -1.
<scales pt_clust_5="13000.00000" pt_clust_6="13000.00000" pt_clust_7="13000.00000" pt_clust_8="13000.00000" pt_clust_9="23.87649"></scales>
<clustering>
<clus scale="   23.876">  2  9  1 -1</clus>
<clus scale="   78.833">  5  6 -1 -1</clus>
<clus scale="   97.180">  7  8 -1 -1</clus>
<clus scale="  107.896">  1  5  2 -1</clus>
<clus scale="   23.876">  2  5  1 -1</clus>
</clustering>
</event>
<event>
 9    1  0.6270443E-005  0.1240759E+03  0.7546771E-02  0.1239522E+00
         21   -1    0    0  501  502  0.00000000000E+00  0.00000000000E+00  0.25818108478E+03  0.25818108478E+03  0.00000000000E+00 0. -1.
         -2   -1    0    0    0  501 -0.00000000000E+00 -0.00000000000E+00 -0.73626992916E+02  0.73626992916E+02  0.00000000000E+00 0.  1.
        -24    2    1    2    0    0  0.81591272220E+00 -0.93292008436E+02  0.52949864449E+02  0.13459595228E+03  0.81291559670E+02 0.  0.
         23    2    1    2    0    0  0.77942029660E+01  0.72159678313E+02  0.82366026559E+02  0.14294325872E+03  0.91546950298E+02 0.  0.
         13    1    3    3    0    0  0.10174947554E+02 -0.65996621263E+02  0.73398871281E+02  0.99229420441E+02  0.00000000000E+00 0. -1.
        -14    1    3    3    0    0 -0.93590348319E+01 -0.27295387173E+02 -0.20449006832E+02  0.35366531839E+02  0.00000000000E+00 0.  1.
        -11    1    4    4    0    0 -0.38505637783E+02  0.11419692132E+02  0.33232533457E+02  0.52129596099E+02  0.00000000000E+00 0.  1.
         11    1    4    4    0    0  0.46299840749E+02  0.60739986181E+02  0.49133493102E+02  0.90813662624E+02  0.00000000000E+00 0. -1.
         -1    1    1    2    0  502 -0.86101156882E+01  0.21132330123E+02  0.49238200854E+02  0.54268866691E+02  0.00000000000E+00 0.  1.
<scales pt_clust_5="13000.00000" pt_clust_6="13000.00000" pt_clust_7="13000.00000" pt_clust_8="13000.00000" pt_clust_9="22.81906"></scales>
<clustering>
<clus scale="   22.819">  1  9  2 -1</clus>
<clus scale="   81.292">  5  6 -1 -1</clus>
<clus scale="   91.547">  7  8 -1 -1</clus>
<clus scale="  116.715">  2  5  1 -1</clus>
<clus scale="   22.819">  1  5  2 -1</clus>
</clustering>
</event>
<event>
 9    1  0.6270443E-005  0.9209204E+02  0.7546771E-02  0.1303651E+00
         21   -1    0    0  501  502  0.00000000000E+00  0.00000000000E+00  0.55497514773E+03  0.55497514773E+03  0.00000000000E+00 0. -1.
         -2   -1    0    0    0  501 -0.00000000000E+00 -0.00000000000E+00 -0.46447202101E+02  0.46447202101E+02  0.00000000000E+00 0.  1.
         23    2    1    2    0    0 -0.10278246615E+02 -0.47081427917E+01  0.54166389163E+02  0.10572926055E+03  0.90093672699E+02 0.  0.
        -24    2    1    2    0    0 -0.34336023709E+02  0.74438623106E+02  0.29843295852E+03  0.31915272375E+03  0.77949722349E+02 0.  0.
         13    1    4    4    0    0 -0.55799822285E+02  0.71494898528E+02  0.25431648577E+03  0.27000373260E+03  0.00000000000E+00 0. -1.
        -14    1    4    4    0    0  0.21463798576E+02  0.29437245777E+01  0.44116472748E+02  0.49148991154E+02  0.00000000000E+00 0.  1.
        -11    1    3    3    0    0 -0.39136597556E+02  0.66578968364E+01 -0.39086294457E+01  0.39890829055E+02  0.00000000000E+00 0. -1.
         11    1    3    3    0    0  0.28858350942E+02 -0.11366039628E+02  0.58075018608E+02  0.65838431499E+02  0.00000000000E+00 0.  1.
         -1    1    1    2    0  502  0.44614270324E+02 -0.69730480314E+02  0.15592859795E+03  0.17654036553E+03  0.00000000000E+00 0.  1.
<scales pt_clust_5="13000.00000" pt_clust_6="13000.00000" pt_clust_7="13000.00000" pt_clust_8="13000.00000" pt_clust_9="82.78148"></scales>
<clustering>
<clus scale="   77.950">  5  6 -1 -1</clus>
<clus scale="   82.781">  1  9  2 -1</clus>
<clus scale="   82.781">  1  5  2 -1</clus>
<clus scale="   90.094">  7  8 -1 -1</clus>
<clus scale="   82.781">  1  5  2 -1</clus>
</clustering>
</event>
<event>
 9    1  0.6270443E-005  0.1578851E+03  0.7546771E-02  0.1219192E+00
         21   -1    0    0  501  502  0.00000000000E+00  0.00000000000E+00  0.10282005550E+03  0.10282005550E+03  0.00000000000E+00 0. -1.
          1   -1    0    0  502    0 -0.00000000000E+00 -0.00000000000E+00 -0.64219483172E+03  0.64219483172E+03  0.00000000000E+00 0. -1.
        -24    2    1    2    0    0 -0.12471015501E+02 -0.17543058040E+02 -0.42326371441E+03  0.43195934290E+03  0.83506986932E+02 0.  0.
         23    2    1    2    0    0  0.76619055839E+02  0.11843258682E+03 -0.85795538175E+02  0.18971577348E+03  0.93458241996E+02 0.  0.
         13    1    3    3    0    0  0.27515753904E+02 -0.31491665501E+02 -0.16335364420E+03  0.16862163201E+03  0.00000000000E+00 0. -1.
        -14    1    3    3    0    0 -0.39986769404E+02  0.13948607461E+02 -0.25991007021E+03  0.26333771088E+03  0.00000000000E+00 0.  1.
        -11    1    4    4    0    0  0.31112367673E+02  0.49923575919E+02  0.13928910692E+02  0.60451281276E+02  0.00000000000E+00 0.  1.
         11    1    4    4    0    0  0.45506688165E+02  0.68509010903E+02 -0.99724448867E+02  0.12926449220E+03  0.00000000000E+00 0. -1.
          2    1    1    2  501    0 -0.64148040338E+02 -0.10088952878E+03 -0.30315523638E+02  0.12333977084E+03  0.00000000000E+00 0. -1.
<scales pt_clust_5="13000.00000" pt_clust_6="13000.00000" pt_clust_7="13000.00000" pt_clust_8="13000.00000" pt_clust_9="127.25277"></scales>
<clustering>
<clus scale="   83.507">  5  6 -1 -1</clus>
<clus scale="   86.236">  2  5  1 -1</clus>
<clus scale="   93.458">  7  8 -1 -1</clus>
<clus scale="  127.253">  1  9  2 -1</clus>
<clus scale="  127.253">  1  5  2 -1</clus>
</clustering>
</event>
<event>
 9    1  0.6270443E-005  0.1617143E+03  0.7546771E-02  0.1188075E+00
         21   -1    0    0  501  502  0.00000000000E+00  0.00000000000E+00  0.40235578395E+03  0.40235578395E+03  0.00000000000E+00 0.  1.
         -2   -1    0    0    0  501 -0.00000000000E+00 -0.00000000000E+00 -0.10912606258E+03  0.10912606258E+03  0.00000000000E+00 0.  1.
         23    2    1    2    0    0 -0.69611398930E+02 -0.12614268967E+03  0.44717305418E+02  0.17618583482E+03  0.91016954301E+02 0.  0.
        -24    2    1    2    0    0  0.81999308996E+02  0.77247251685E+02  0.24826252386E+03  0.28485508966E+03  0.82565833023E+02 0.  0.
         11    1    4    4    0    0  0.53291004957E+02  0.11070140669E+02  0.50118870029E+02  0.73989055655E+02  0.00000000000E+00 0. -1.
        -12    1    4    4    0    0  0.28708304040E+02  0.66177111017E+02  0.19814365383E+03  0.21086603400E+03  0.00000000000E+00 0.  1.
        -11    1    3    3    0    0 -0.13530803612E+02 -0.80465975400E+02  0.61207996697E+02  0.10200134658E+03  0.00000000000E+00 0. -1.
         11    1    3    3    0    0 -0.56080595318E+02 -0.45676714265E+02 -0.16490691279E+02  0.74184488245E+02  0.00000000000E+00 0.  1.
         -1    1    1    2    0  502 -0.12387910066E+02  0.48895437980E+02  0.24989209303E+00  0.50440922048E+02  0.00000000000E+00 0.  1.
<scales pt_clust_5="13000.00000" pt_clust_6="13000.00000" pt_clust_7="13000.00000" pt_clust_8="13000.00000" pt_clust_9="50.44033"></scales>
<clustering>
<clus scale="   50.440">  1  9  2 -1</clus>
<clus scale="   82.566">  5  6 -1 -1</clus>
<clus scale="   91.017">  7  8 -1 -1</clus>
<clus scale="  157.113">  1  5  2 -1</clus>
<clus scale="   50.440">  1  5  2 -1</clus>
</clustering>
</event>
<event>
 9    1  0.6270443E-005  0.1122045E+03  0.7546771E-02  0.1260112E+00
          1   -1    0    0  502    0 -0.00000000000E+00  0.00000000000E+00  0.17750454619E+03  0.17750454619E+03  0.00000000000E+00 0. -1.
         21   -1    0    0  501  502  0.00000000000E+00 -0.00000000000E+00 -0.10237906182E+03  0.10237906182E+03  0.00000000000E+00 0. -1.
        -24    2    1    2    0    0 -0.48745432953E+02  0.46322542090E+01  0.29373830705E+02  0.99453176025E+02  0.81428111107E+02 0.  0.
         23    2    1    2    0    0  0.91706150363E+02 -0.32972425391E+01  0.21323619234E+02  0.13099224469E+03  0.91013084826E+02 0.  0.
         13    1    3    3    0    0 -0.39040031051E+02 -0.47210578508E+01 -0.22875024766E+02  0.45493726708E+02  0.00000000000E+00 0. -1.
        -14    1    3    3    0    0 -0.97054019011E+01  0.93533120598E+01  0.52248855471E+02  0.53959449317E+02  0.00000000000E+00 0.  1.
        -11    1    4    4    0    0  0.93605375882E+02  0.21839300915E+02 -0.27178222736E+01  0.96157724684E+02  0.00000000000E+00 0. -1.
         11    1    4    4    0    0 -0.18992255194E+01 -0.25136543454E+02  0.24041441508E+02  0.34834520008E+02  0.00000000000E+00 0.  1.
          2    1    1    2  501    0 -0.42960717410E+02 -0.13350116699E+01  0.24428034426E+02  0.49438187290E+02  0.00000000000E+00 0. -1.
<scales pt_clust_5="13000.00000" pt_clust_6="13000.00000" pt_clust_7="13000.00000" pt_clust_8="13000.00000" pt_clust_9="42.98148"></scales>
<clustering>
<clus scale="   42.981">  2  9  1 -1</clus>
<clus scale="   81.428">  5  6 -1 -1</clus>
<clus scale="   91.013">  7  8 -1 -1</clus>
<clus scale="  104.580">  1  5  2 -1</clus>
<clus scale="   42.981">  2  5  1 -1</clus>
</clustering>
</event>
<event>
 9    1  0.6270443E-005  0.1195112E+03  0.7546771E-02  0.1253994E+00
         21   -1    0    0  501  502  0.00000000000E+00  0.00000000000E+00  0.21264347875E+02  0.21264347875E+02  0.00000000000E+00 0.  1.
          1   -1    0    0  502    0 -0.00000000000E+00 -0.00000000000E+00 -0.11517435353E+04  0.11517435353E+04  0.00000000000E+00 0. -1.
        -24    2    1    2    0    0 -0.52462319785E+02 -0.28508525282E+02 -0.44321237901E+03  0.45454850804E+03  0.81314834128E+02 0.  0.
         23    2    1    2    0    0  0.52756560316E+02 -0.25661895087E+02 -0.25191128911E+03  0.27974654285E+03  0.10656942872E+03 0.  0.
         11    1    3    3    0    0 -0.58633194294E+02 -0.44428856323E+02 -0.41576950871E+03  0.42222749687E+03  0.00000000000E+00 0. -1.
        -12    1    3    3    0    0  0.61708745098E+01  0.15920331041E+02 -0.27442870302E+02  0.32321011170E+02  0.00000000000E+00 0.  1.
        -13    1    4    4    0    0  0.84468611352E+02 -0.24106156325E+02 -0.20578869274E+03  0.22375218242E+03  0.00000000000E+00 0.  1.
         13    1    4    4    0    0 -0.31712051035E+02 -0.15557387614E+01 -0.46122596372E+02  0.55994360430E+02  0.00000000000E+00 0. -1.
          2    1    1    2  501    0 -0.29424053178E+00  0.54170420369E+02 -0.43535551935E+03  0.43871283233E+03  0.00000000000E+00 0. -1.
<scales pt_clust_5="13000.00000" pt_clust_6="13000.00000" pt_clust_7="13000.00000" pt_clust_8="13000.00000" pt_clust_9="54.17125"></scales>
<clustering>
<clus scale="   54.171">  1  9  2 -1</clus>
<clus scale="   81.315">  5  6 -1 -1</clus>
<clus scale="   97.663">  2  5  1 -1</clus>
<clus scale="  106.569">  7  8 -1 -1</clus>
<clus scale="   54.171">  1  5  2 -1</clus>
</clustering>
</event>
<event>
 9    1  0.6270443E-005  0.1001477E+03  0.7546771E-02  0.1285294E+00
          1   -1    0    0  502    0 -0.00000000000E+00  0.00000000000E+00  0.32389428479E+03  0.32389428479E+03  0.00000000000E+00 0. -1.
         21   -1    0    0  501  502  0.00000000000E+00 -0.00000000000E+00 -0.94550488233E+02  0.94550488233E+02  0.00000000000E+00 0. -1.
        -24    2    1    2    0    0 -0.28698376669E+02  0.40917726135E+02  0.18951541563E+03  0.21151234582E+03  0.79520579335E+02 0.  0.
         23    2    1    2    0    0 -0.31088015108E+02 -0.18920946425E+02 -0.39619851344E+02  0.10509779375E+03  0.90284808984E+02 0.  0.
         11    1    3    3    0    0 -0.14241924622E+02  0.62748440304E+02  0.15761113746E+03  0.17023944851E+03  0.00000000000E+00 0. -1.
        -12    1    3    3    0    0 -0.14456452047E+02 -0.21830714169E+02  0.31904278173E+02  0.41272897314E+02  0.00000000000E+00 0.  1.
        -13    1    4    4    0    0  0.31459557998E+02 -0.14436577679E+02 -0.13028651839E+02  0.36984649968E+02  0.00000000000E+00 0.  1.
         13    1    4    4    0    0 -0.62547573106E+02 -0.44843687462E+01 -0.26591199505E+02  0.68113143781E+02  0.00000000000E+00 0. -1.
          2    1    1    2  501    0  0.59786391777E+02 -0.21996779709E+02  0.79448232265E+02  0.10183463345E+03  0.00000000000E+00 0. -1.
<scales pt_clust_5="13000.00000" pt_clust_6="13000.00000" pt_clust_7="13000.00000" pt_clust_8="13000.00000" pt_clust_9="63.70459"></scales>
<clustering>
<clus scale="   63.705">  2  9  1 -1</clus>
<clus scale="   79.521">  5  6 -1 -1</clus>
<clus scale="   90.285">  7  8 -1 -1</clus>
<clus scale="   90.563">  1  5  2 -1</clus>
<clus scale="   63.705">  2  5  1 -1</clus>
</clustering>
</event>
<event>
 9    1  0.6270443E-005  0.1123776E+03  0.7546771E-02  0.1259897E+00
         -4   -1    0    0    0  501 -0.00000000000E+00  0.00000000000E+00  0.40680214366E+02  0.40680214366E+02  0.00000000000E+00 0.  1.
         21   -1    0    0  501  502  0.00000000000E+00 -0.00000000000E+00 -0.52492281748E+03  0.52492281748E+03  0.00000000000E+00 0. -1.
         23    2    1    2    0    0 -0.57024364569E+02 -0.45812448990E+01 -0.18069517759E+03  0.21051970782E+03  0.91624419321E+02 0.  0.
        -24    2    1    2    0    0  0.70633334663E+02  0.40459511237E+02 -0.29355934897E+03  0.31543214831E+03  0.81818755839E+02 0.  0.
         11    1    4    4    0    0  0.65830662972E+02  0.62020836647E+02 -0.25975109012E+03  0.27504706721E+03  0.00000000000E+00 0. -1.
        -12    1    4    4    0    0  0.48026716912E+01 -0.21561325410E+02 -0.33808258854E+02  0.40385081102E+02  0.00000000000E+00 0.  1.
        -11    1    3    3    0    0 -0.47714798230E+01  0.34500815190E+02 -0.28771918171E+02  0.45176282978E+02  0.00000000000E+00 0.  1.
         11    1    3    3    0    0 -0.52252884746E+02 -0.39082060089E+02 -0.15192325942E+03  0.16534342484E+03  0.00000000000E+00 0. -1.
         -3    1    1    2    0  502 -0.13608970093E+02 -0.35878266338E+02 -0.99880765542E+01  0.39651175716E+02  0.00000000000E+00 0.  1.
<scales pt_clust_5="13000.00000" pt_clust_6="13000.00000" pt_clust_7="13000.00000" pt_clust_8="13000.00000" pt_clust_9="38.37259"></scales>
<clustering>
<clus scale="   38.373">  2  9  1 -1</clus>
<clus scale="   81.819">  5  6 -1 -1</clus>
<clus scale="   91.624">  7  8 -1 -1</clus>
<clus scale="  104.537">  2  5  1 -1</clus>
<clus scale="   38.373">  2  5  1 -1</clus>
</clustering>
</event>
<event>
 9    1  0.6270443E-005  0.9021290E+02  0.7546771E-02  0.1311884E+00
         -4   -1    0    0    0  501 -0.00000000000E+00  0.00000000000E+00  0.48558350520E+03  0.48558350520E+03  0.00000000000E+00 0.  1.
         21   -1    0    0  501  502  0.00000000000E+00 -0.00000000000E+00 -0.79637591322E+02  0.79637591322E+02  0.00000000000E+00 0.  1.
         23    2    1    2    0    0  0.15554976999E+02  0.38474325443E+02  0.21832890154E+03  0.23186349227E+03  0.66113075658E+02 0.  0.
        -24    2    1    2    0    0  0.21932847466E+02  0.75679058938E+00 -0.43756999485E+02  0.95705861577E+02  0.82239372604E+02 0.  0.
         11    1    4    4    0    0  0.15676468657E+02 -0.40474986146E+02 -0.21633084934E+02  0.48497077611E+02  0.00000000000E+00 0. -1.
        -12    1    4    4    0    0  0.62563788084E+01  0.41231776735E+02 -0.22123914551E+02  0.47208783966E+02  0.00000000000E+00 0.  1.
        -11    1    3    3    0    0 -0.14802606158E+02  0.42692544646E+02  0.10192179750E+03  0.11148911751E+03  0.00000000000E+00 0.  1.
         11    1    3    3    0    0  0.30357583157E+02 -0.42182192025E+01  0.11640710404E+03  0.12037437476E+03  0.00000000000E+00 0. -1.
         -3    1    1    2    0  502 -0.37487824465E+02 -0.39231116033E+02  0.23137401183E+03  0.23765174268E+03  0.00000000000E+00 0.  1.
<scales pt_clust_5="13000.00000" pt_clust_6="13000.00000" pt_clust_7="13000.00000" pt_clust_8="13000.00000" pt_clust_9="54.26251"></scales>
<clustering>
<clus scale="   54.263">  2  9  1 -1</clus>
<clus scale="   66.113">  7  8 -1 -1</clus>
<clus scale="   75.802">  1  7  2 -1</clus>
<clus scale="   82.239">  5  6 -1 -1</clus>
<clus scale="   54.263">  2  5  1 -1</clus>
</clustering>
</event>
<event>
 9    1  0.6270443E-005  0.1750018E+03  0.7546771E-02  0.1211161E+00
         21   -1    0    0  501  502  0.00000000000E+00  0.00000000000E+00  0.14808614170E+03  0.14808614170E+03  0.00000000000E+00 0.  1.
         -4   -1    0    0    0  501 -0.00000000000E+00 -0.00000000000E+00 -0.26241184554E+03  0.26241184554E+03  0.00000000000E+00 0.  1.
        -24    2    1    2    0    0 -0.98610187901E+01 -0.18412944696E+02  0.11021393163E+01  0.75068357942E+02  0.72095543753E+02 0.  0.
         23    2    1    2    0    0 -0.11520933329E+03  0.77094168207E+02 -0.49492166262E+02  0.18234928291E+03  0.10763403369E+03 0.  0.
         13    1    3    3    0    0  0.81453635875E+01  0.25171579436E+02  0.74495731418E+01  0.27485477971E+02  0.00000000000E+00 0. -1.
        -14    1    3    3    0    0 -0.18006382378E+02 -0.43584524133E+02 -0.63474338254E+01  0.47582879971E+02  0.00000000000E+00 0.  1.
        -11    1    4    4    0    0 -0.75568248529E+02 -0.13353311400E+02 -0.20568792336E+02  0.79447758491E+02  0.00000000000E+00 0. -1.
         11    1    4    4    0    0 -0.39641084761E+02  0.90447479606E+02 -0.28923373926E+02  0.10290152442E+03  0.00000000000E+00 0.  1.
         -3    1    1    2    0  502  0.12507035208E+03 -0.58681223510E+02 -0.65935676890E+02  0.15308034638E+03  0.00000000000E+00 0.  1.
<scales pt_clust_5="13000.00000" pt_clust_6="13000.00000" pt_clust_7="13000.00000" pt_clust_8="13000.00000" pt_clust_9="137.98757"></scales>
<clustering>
<clus scale="   72.096">  5  6 -1 -1</clus>
<clus scale="   75.060">  2  5  1 -1</clus>
<clus scale="  107.634">  7  8 -1 -1</clus>
<clus scale="  137.988">  1  9  2 -1</clus>
<clus scale="  137.988">  1  5  2 -1</clus>
</clustering>
</event>
<event>
 9    1  0.6270443E-005  0.2020858E+03  0.7546771E-02  0.1149411E+00
         -4   -1    0    0    0  501 -0.00000000000E+00  0.00000000000E+00  0.49630631351E+03  0.49630631351E+03  0.00000000000E+00 0.  1.
         21   -1    0    0  501  502  0.00000000000E+00 -0.00000000000E+00 -0.14165057051E+03  0.14165057051E+03  0.00000000000E+00 0. -1.
         23    2    1    2    0    0 -0.12658820860E+03 -0.13646159591E+03  0.31039852433E+03  0.37436117250E+03  0.95669754148E+02 0.  0.
        -24    2    1    2    0    0  0.15135525924E+03  0.73939392085E+02  0.56833568400E+02  0.19518082029E+03  0.80560846011E+02 0.  0.
         11    1    4    4    0    0  0.57685645595E+02  0.80726962203E+01 -0.14816292980E+02  0.60102617827E+02  0.00000000000E+00 0. -1.
        -12    1    4    4    0    0  0.93669613647E+02  0.65866695864E+02  0.71649861381E+02  0.13507820246E+03  0.00000000000E+00 0.  1.
        -11    1    3    3    0    0 -0.45704260305E+02 -0.36731240608E+02  0.18812224958E+03  0.19704832969E+03  0.00000000000E+00 0.  1.
         11    1    3    3    0    0 -0.80883948297E+02 -0.99730355305E+02  0.12227627475E+03  0.17731284282E+03  0.00000000000E+00 0. -1.
         -3    1    1    2    0  502 -0.24767050640E+02  0.62522203829E+02 -0.12576349734E+02  0.68414891227E+02  0.00000000000E+00 0.  1.
<scales pt_clust_5="13000.00000" pt_clust_6="13000.00000" pt_clust_7="13000.00000" pt_clust_8="13000.00000" pt_clust_9="67.24904"></scales>
<clustering>
<clus scale="   67.249">  2  9  1 -1</clus>
<clus scale="   80.561">  5  6 -1 -1</clus>
<clus scale="   95.670">  7  8 -1 -1</clus>
<clus scale="  195.387">  2  5  1 -1</clus>
<clus scale="   67.249">  2  5  1 -1</clus>
</clustering>
</event>
<event>
 9    1  0.6270443E-005  0.1126704E+03  0.7546771E-02  0.1259451E+00
         21   -1    0    0  501  502  0.00000000000E+00  0.00000000000E+00  0.58939242806E+03  0.58939242806E+03  0.00000000000E+00 0. -1.
          1   -1    0    0  502    0 -0.00000000000E+00 -0.00000000000E+00 -0.61277204876E+02  0.61277204876E+02  0.00000000000E+00 0. -1.
         23    2    1    2    0    0  0.24129815838E+02 -0.62312458487E+02  0.41550337086E+02  0.12049621893E+03  0.91256877927E+02 0.  0.
        -24    2    1    2    0    0  0.57657677848E+02  0.78100173449E+02  0.27110867673E+03  0.29917595900E+03  0.81131343727E+02 0.  0.
         13    1    4    4    0    0  0.30282002859E+02  0.49750905770E+02  0.57079956848E+02  0.81549210884E+02  0.00000000000E+00 0. -1.
        -14    1    4    4    0    0  0.27375674989E+02  0.28349267679E+02  0.21402871989E+03  0.21762674811E+03  0.00000000000E+00 0.  1.
        -11    1    3    3    0    0 -0.18163683705E+02 -0.66329482765E+02  0.36080844610E+02  0.77661747581E+02  0.00000000000E+00 0. -1.
         11    1    3    3    0    0  0.42293499543E+02  0.40170242778E+01  0.54694924757E+01  0.42834471347E+02  0.00000000000E+00 0.  1.
          2    1    1    2  501    0 -0.81787493685E+02 -0.15787714962E+02  0.21545620936E+03  0.23099745501E+03  0.00000000000E+00 0. -1.
<scales pt_clust_5="13000.00000" pt_clust_6="13000.00000" pt_clust_7="13000.00000" pt_clust_8="13000.00000" pt_clust_9="83.29734"></scales>
<clustering>
<clus scale="   81.131">  5  6 -1 -1</clus>
<clus scale="   83.297">  1  9  2 -1</clus>
<clus scale="   91.257">  7  8 -1 -1</clus>
<clus scale="  104.638">  1  5  2 -1</clus>
<clus scale="   83.297">  1  5  2 -1</clus>
</clustering>
</event>
<event>
 9    1  0.6270443E-005  0.5359472E+03  0.7546771E-02  0.1004800E+00
         -4   -1    0    0    0  501 -0.00000000000E+00  0.00000000000E+00  0.55435657319E+03  0.55435657319E+03  0.00000000000E+00 0.  1.
         21   -1    0    0  501  502  0.00000000000E+00 -0.00000000000E+00 -0.49047587545E+03  0.49047587545E+03  0.00000000000E+00 0. -1.
        -24    2    1    2    0    0  0.32630394970E+03 -0.82594757858E+02 -0.10450306617E+03  0.36180931882E+03  0.81785883444E+02 0.  0.
         23    2    1    2    0    0  0.14998201255E+03 -0.10700064946E+02  0.32327547788E+02  0.17897597355E+03  0.91532689706E+02 0.  0.
         13    1    3    3    0    0  0.21696255286E+03 -0.63942044984E+02 -0.10839457459E+03  0.25082009142E+03  0.00000000000E+00 0. -1.
        -14    1    3    3    0    0  0.10934139684E+03 -0.18652712873E+02  0.38915084220E+01  0.11098922739E+03  0.00000000000E+00 0.  1.
        -13    1    4    4    0    0  0.20437048686E+01  0.23664079512E+02  0.85757260480E+01  0.25252890251E+02  0.00000000000E+00 0.  1.
         13    1    4    4    0    0  0.14793830768E+03 -0.34364144459E+02  0.23751821740E+02  0.15372308330E+03  0.00000000000E+00 0. -1.
         -3    1    1    2    0  502 -0.47628596225E+03  0.93294822804E+02  0.13605621612E+03  0.50404715627E+03  0.00000000000E+00 0.  1.
<scales pt_clust_5="13000.00000" pt_clust_6="13000.00000" pt_clust_7="13000.00000" pt_clust_8="13000.00000" pt_clust_9="485.33749"></scales>
<clustering>
<clus scale="   81.786">  5  6 -1 -1</clus>
<clus scale="   91.533">  7  8 -1 -1</clus>
<clus scale="  122.897">  5  7 -1 -1</clus>
<clus scale="  485.337">  2  9  1 -1</clus>
<clus scale="  485.337">  2  5  1 -1</clus>
</clustering>
</event>
<event>
 9    1  0.6270443E-005  0.1212958E+03  0.7546771E-02  0.1243435E+00
         21   -1    0    0  501  502  0.00000000000E+00  0.00000000000E+00  0.38361180980E+03  0.38361180980E+03  0.00000000000E+00 0. -1.
          3   -1    0    0  502    0 -0.00000000000E+00 -0.00000000000E+00 -0.20503941516E+03  0.20503941516E+03  0.00000000000E+00 0. -1.
        -24    2    1    2    0    0 -0.43787299215E+02  0.59942671229E+02 -0.10761154442E+03  0.15779291447E+03  0.88362367310E+02 0.  0.
         23    2    1    2    0    0 -0.71194867959E+02  0.26837818633E+01  0.27607652839E+03  0.29953759186E+03  0.91807447937E+02 0.  0.
         11    1    3    3    0    0 -0.33566093667E+02  0.54946509576E+02 -0.12289450380E+03  0.13874026317E+03  0.00000000000E+00 0. -1.
        -12    1    3    3    0    0 -0.10221205548E+02  0.49961616531E+01  0.15282959381E+02  0.19052651300E+02  0.00000000000E+00 0.  1.
        -13    1    4    4    0    0  0.60944372329E+01 -0.26011456280E+02  0.30781307856E+02  0.40758151777E+02  0.00000000000E+00 0.  1.
         13    1    4    4    0    0 -0.77289305192E+02  0.28695238143E+02  0.24529522054E+03  0.25877944008E+03  0.00000000000E+00 0. -1.
          4    1    1    2  501    0  0.11498216717E+03 -0.62626453092E+02  0.10107410671E+02  0.13132071865E+03  0.00000000000E+00 0. -1.
<scales pt_clust_5="13000.00000" pt_clust_6="13000.00000" pt_clust_7="13000.00000" pt_clust_8="13000.00000" pt_clust_9="79.27218"></scales>
<clustering>
<clus scale="   88.362">  5  6 -1 -1</clus>
<clus scale="   91.807">  7  8 -1 -1</clus>
<clus scale="  115.405">  2  5  1 -1</clus>
<clus scale="   79.272">  1  9  2 -1</clus>
<clus scale="   79.272">  1  5  2 -1</clus>
</clustering>
</event>
<event>
 9    1  0.6270443E-005  0.3047878E+03  0.7546771E-02  0.1125893E+00
         21   -1    0    0  501  502  0.00000000000E+00  0.00000000000E+00  0.27546566598E+03  0.27546566598E+03  0.00000000000E+00 0. -1.
          1   -1    0    0  502    0 -0.00000000000E+00 -0.00000000000E+00 -0.70519418244E+03  0.70519418244E+03  0.00000000000E+00 0. -1.
         23    2    1    2    0    0 -0.41876006653E+02 -0.12394134307E+02  0.94738849349E+02  0.13824487184E+03  0.90713728382E+02 0.  0.
        -24    2    1    2    0    0  0.26976770812E+03 -0.16000077245E+03 -0.43563934324E+03  0.54317418880E+03  0.82956003260E+02 0.  0.
         11    1    4    4    0    0  0.25668920666E+03 -0.12469192067E+03 -0.39972969929E+03  0.49114280651E+03  0.00000000000E+00 0. -1.
        -12    1    4    4    0    0  0.13078501460E+02 -0.35308851782E+02 -0.35909643953E+02  0.52031382294E+02  0.00000000000E+00 0.  1.
        -13    1    3    3    0    0 -0.42512615935E+02  0.31378672604E+02  0.70818964632E+02  0.88358753723E+02  0.00000000000E+00 0. -1.
         13    1    3    3    0    0  0.63660928236E+00 -0.43772806912E+02  0.23919884718E+02  0.49886118121E+02  0.00000000000E+00 0.  1.
          2    1    1    2  501    0 -0.22789170147E+03  0.17239490675E+03 -0.88828022568E+02  0.29924078777E+03  0.00000000000E+00 0. -1.
<scales pt_clust_5="13000.00000" pt_clust_6="13000.00000" pt_clust_7="13000.00000" pt_clust_8="13000.00000" pt_clust_9="293.28125"></scales>
<clustering>
<clus scale="   82.956">  5  6 -1 -1</clus>
<clus scale="   90.714">  7  8 -1 -1</clus>
<clus scale="  100.679">  2  7  1 -1</clus>
<clus scale="  293.281">  1  9  2 -1</clus>
<clus scale="  293.281">  1  5  2 -1</clus>
</clustering>
</event>
<event>
 9    1  0.6270443E-005  0.9667282E+02  0.7546771E-02  0.1293694E+00
          1   -1    0    0  502    0 -0.00000000000E+00  0.00000000000E+00  0.38164352919E+03  0.38164352919E+03  0.00000000000E+00 0. -1.
         21   -1    0    0  501  502  0.00000000000E+00 -0.00000000000E+00 -0.41807981032E+02  0.41807981032E+02  0.00000000000E+00 0. -1.
        -24    2    1    2    0    0 -0.86873293011E+01 -0.20763637231E+02  0.12795925546E+03  0.15308227252E+03  0.80956857525E+02 0.  0.
         23    2    1    2    0    0  0.23883984518E+02  0.37244177091E+02  0.63648972113E+02  0.12045631267E+03  0.92200640820E+02 0.  0.
         11    1    3    3    0    0 -0.25804215019E+02  0.18692988719E+02  0.90852371739E+02  0.96277924732E+02  0.00000000000E+00 0. -1.
        -12    1    3    3    0    0  0.17116885718E+02 -0.39456625949E+02  0.37106883716E+02  0.56804347783E+02  0.00000000000E+00 0.  1.
        -11    1    4    4    0    0  0.33188170682E+02  0.64946442104E+02  0.42898276000E+02  0.84615347892E+02  0.00000000000E+00 0. -1.
         11    1    4    4    0    0 -0.93041861644E+01 -0.27702265013E+02  0.20750696113E+02  0.35840964778E+02  0.00000000000E+00 0.  1.
          2    1    1    2  501    0 -0.15196655216E+02 -0.16480539860E+02  0.14822732059E+03  0.14991292504E+03  0.00000000000E+00 0. -1.
<scales pt_clust_5="13000.00000" pt_clust_6="13000.00000" pt_clust_7="13000.00000" pt_clust_8="13000.00000" pt_clust_9="22.41756"></scales>
<clustering>
<clus scale="   22.418">  2  9  1 -1</clus>
<clus scale="   80.957">  5  6 -1 -1</clus>
<clus scale="   86.016">  1  5  2 -1</clus>
<clus scale="   92.201">  7  8 -1 -1</clus>
<clus scale="   22.418">  2  5  1 -1</clus>
</clustering>
</event>
<event>
 9    1  0.6270443E-005  0.1411011E+03  0.7546771E-02  0.1214786E+00
         21   -1    0    0  501  502  0.00000000000E+00  0.00000000000E+00  0.41006781379E+03  0.41006781379E+03  0.00000000000E+00 0.  1.
          1   -1    0    0  502    0 -0.00000000000E+00 -0.00000000000E+00 -0.19829132941E+03  0.19829132941E+03  0.00000000000E+00 0. -1.
         23    2    1    2    0    0 -0.14108242962E+02 -0.10349876521E+03 -0.14998775758E+03  0.20504719545E+03  0.92935397017E+02 0.  0.
        -24    2    1    2    0    0  0.33155177737E+02  0.12069789654E+03  0.26987915041E+03  0.30791034455E+03  0.79415215292E+02 0.  0.
         13    1    4    4    0    0  0.21936342094E+02  0.97656270727E+02  0.12188960161E+03  0.15771818315E+03  0.00000000000E+00 0. -1.
        -14    1    4    4    0    0  0.11218835643E+02  0.23041625813E+02  0.14798954880E+03  0.15019216140E+03  0.00000000000E+00 0.  1.
        -11    1    3    3    0    0 -0.45851457497E+02 -0.24014362471E+02 -0.75770350718E+02  0.91761603122E+02  0.00000000000E+00 0.  1.
         11    1    3    3    0    0  0.31743214535E+02 -0.79484402741E+02 -0.74217406857E+02  0.11328559233E+03  0.00000000000E+00 0. -1.
          2    1    1    2  501    0 -0.19046934775E+02 -0.17199131328E+02  0.91885091548E+02  0.95401603192E+02  0.00000000000E+00 0. -1.
<scales pt_clust_5="13000.00000" pt_clust_6="13000.00000" pt_clust_7="13000.00000" pt_clust_8="13000.00000" pt_clust_9="25.66312"></scales>
<clustering>
<clus scale="   25.663">  1  9  2 -1</clus>
<clus scale="   79.415">  5  6 -1 -1</clus>
<clus scale="   92.935">  7  8 -1 -1</clus>
<clus scale="  132.587">  1  5  2 -1</clus>
<clus scale="   25.663">  1  5  2 -1</clus>
</clustering>
</event>
<event>
 9    1  0.6270443E-005  0.1384431E+03  0.7546771E-02  0.1230366E+00
         21   -1    0    0  501  502  0.00000000000E+00  0.00000000000E+00  0.20159368162E+03  0.20159368162E+03  0.00000000000E+00 0.  1.
          1   -1    0    0  502    0 -0.00000000000E+00 -0.00000000000E+00 -0.23742591073E+03  0.23742591073E+03  0.00000000000E+00 0. -1.
        -24    2    1    2    0    0  0.57648814749E+02 -0.17012676132E+02  0.10471420364E+03  0.14572750656E+03  0.81600396646E+02 0.  0.
         23    2    1    2    0    0  0.27469451744E+02 -0.82593470160E+02 -0.56768606660E+02  0.13777608078E+03  0.90461713667E+02 0.  0.
         11    1    3    3    0    0  0.36779137436E+02  0.21320585702E+02  0.13492265266E+02  0.44601721348E+02  0.00000000000E+00 0. -1.
        -12    1    3    3    0    0  0.20869677313E+02 -0.38333261834E+02  0.91221938371E+02  0.10112578521E+03  0.00000000000E+00 0.  1.
        -13    1    4    4    0    0 -0.20598280726E+02 -0.66329293823E+02 -0.12781517934E+02  0.70620334102E+02  0.00000000000E+00 0. -1.
         13    1    4    4    0    0  0.48067732470E+02 -0.16264176337E+02 -0.43987088727E+02  0.67155746674E+02  0.00000000000E+00 0.  1.
          2    1    1    2  501    0 -0.85118266493E+02  0.99606146292E+02 -0.83777826087E+02  0.15551600501E+03  0.00000000000E+00 0. -1.
<scales pt_clust_5="13000.00000" pt_clust_6="13000.00000" pt_clust_7="13000.00000" pt_clust_8="13000.00000" pt_clust_9="104.80072"></scales>
<clustering>
<clus scale="   81.600">  5  6 -1 -1</clus>
<clus scale="   90.462">  7  8 -1 -1</clus>
<clus scale="  101.348">  2  5  1 -1</clus>
<clus scale="  104.801">  1  9  2 -1</clus>
<clus scale="  104.801">  1  5  2 -1</clus>
</clustering>
</event>
<event>
 9    1  0.6270443E-005  0.1411757E+03  0.7546771E-02  0.1235149E+00
         21   -1    0    0  501  502  0.00000000000E+00  0.00000000000E+00  0.17364952293E+03  0.17364952293E+03  0.00000000000E+00 0.  1.
         -2   -1    0    0    0  501 -0.00000000000E+00 -0.00000000000E+00 -0.30557860373E+03  0.30557860373E+03  0.00000000000E+00 0.  1.
        -24    2    1    2    0    0  0.19309136848E+02  0.30149855114E+02 -0.18677138173E+01  0.86646063727E+02  0.78880894235E+02 0.  0.
         23    2    1    2    0    0  0.10576105644E+02  0.75848561472E+02 -0.21985149512E+03  0.25048681619E+03  0.92434338262E+02 0.  0.
         13    1    3    3    0    0 -0.15898726643E+02 -0.19853813824E+02 -0.16808582784E+01  0.25490561327E+02  0.00000000000E+00 0. -1.
        -14    1    3    3    0    0  0.35207863490E+02  0.50003668938E+02 -0.18685553892E+00  0.61155502400E+02  0.00000000000E+00 0.  1.
        -13    1    4    4    0    0  0.37804229604E+02 -0.16996271326E+01 -0.68195796754E+02  0.77991763688E+02  0.00000000000E+00 0. -1.
         13    1    4    4    0    0 -0.27228123960E+02  0.77548188604E+02 -0.15165569837E+03  0.17249505250E+03  0.00000000000E+00 0.  1.
         -1    1    1    2    0  502 -0.29885242492E+02 -0.10599841659E+03  0.89790128136E+02  0.14209524675E+03  0.00000000000E+00 0.  1.
<scales pt_clust_5="13000.00000" pt_clust_6="13000.00000" pt_clust_7="13000.00000" pt_clust_8="13000.00000" pt_clust_9="106.70737"></scales>
<clustering>
<clus scale="   78.881">  5  6 -1 -1</clus>
<clus scale="   86.626">  2  5  1 -1</clus>
<clus scale="   92.434">  7  8 -1 -1</clus>
<clus scale="  106.707">  1  9  2 -1</clus>
<clus scale="  106.707">  1  5  2 -1</clus>
</clustering>
</event>
<event>
 9    1  0.6270443E-005  0.9917964E+02  0.7546771E-02  0.1286723E+00
          1   -1    0    0  502    0 -0.00000000000E+00  0.00000000000E+00  0.18376329511E+03  0.18376329511E+03  0.00000000000E+00 0. -1.
         21   -1    0    0  501  502  0.00000000000E+00 -0.00000000000E+00 -0.20462716238E+03  0.20462716238E+03  0.00000000000E+00 0. -1.
        -24    2    1    2    0    0 -0.32096823768E+02  0.27065793009E+02  0.13574670713E+03  0.16345520586E+03  0.80794013258E+02 0.  0.
         23    2    1    2    0    0 -0.18286285510E+01 -0.55086749222E+02 -0.67023514994E+02  0.12512567537E+03  0.90146487741E+02 0.  0.
         11    1    3    3    0    0 -0.11037913630E+02  0.41442045201E+02  0.13057530761E+03  0.13743794820E+03  0.00000000000E+00 0. -1.
        -12    1    3    3    0    0 -0.21058910139E+02 -0.14376252192E+02  0.51713995254E+01  0.26017257664E+02  0.00000000000E+00 0.  1.
        -13    1    4    4    0    0 -0.38803416954E+02 -0.52048840603E+02 -0.26325602835E+02  0.70055865851E+02  0.00000000000E+00 0. -1.
         13    1    4    4    0    0  0.36974788403E+02 -0.30379086185E+01 -0.40697912158E+02  0.55069809517E+02  0.00000000000E+00 0.  1.
          2    1    1    2  501    0  0.33925452319E+02  0.28020956213E+02 -0.89587059402E+02  0.99809576266E+02  0.00000000000E+00 0. -1.
<scales pt_clust_5="13000.00000" pt_clust_6="13000.00000" pt_clust_7="13000.00000" pt_clust_8="13000.00000" pt_clust_9="44.00125"></scales>
<clustering>
<clus scale="   44.001">  2  9  1 -1</clus>
<clus scale="   80.794">  5  6 -1 -1</clus>
<clus scale="   90.146">  7  8 -1 -1</clus>
<clus scale="   90.763">  1  5  2 -1</clus>
<clus scale="   44.001">  2  5  1 -1</clus>
</clustering>
</event>
<event>
 9    1  0.6270443E-005  0.1536347E+03  0.7546771E-02  0.1197968E+00
         -4   -1    0    0    0  501 -0.00000000000E+00  0.00000000000E+00  0.98272793597E+02  0.98272793597E+02  0.00000000000E+00 0.  1.
         21   -1    0    0  501  502  0.00000000000E+00 -0.00000000000E+00 -0.56282532919E+03  0.56282532919E+03  0.00000000000E+00 0.  1.
         23    2    1    2    0    0 -0.15487825116E+03 -0.10136984936E+02 -0.31742995763E+02  0.18286820247E+03  0.91340738701E+02 0.  0.
        -24    2    1    2    0    0  0.70406909171E+02 -0.92380567185E+01 -0.16569359034E+03  0.19740661230E+03  0.80452036318E+02 0.  0.
         13    1    4    4    0    0  0.80422402552E+02 -0.28411564536E+02 -0.13852617022E+03  0.16267906954E+03  0.00000000000E+00 0. -1.
        -14    1    4    4    0    0 -0.10015493381E+02  0.19173507818E+02 -0.27167420122E+02  0.34727542755E+02  0.00000000000E+00 0.  1.
        -11    1    3    3    0    0 -0.15735973156E+03  0.10383766512E+02 -0.19652903623E+02  0.15892181834E+03  0.00000000000E+00 0.  1.
         11    1    3    3    0    0  0.24814803938E+01 -0.20520751448E+02 -0.12090092140E+02  0.23946384130E+02  0.00000000000E+00 0. -1.
         -3    1    1    2    0  502  0.84471341993E+02  0.19375041655E+02 -0.26711594948E+03  0.28082330802E+03  0.00000000000E+00 0.  1.
<scales pt_clust_5="13000.00000" pt_clust_6="13000.00000" pt_clust_7="13000.00000" pt_clust_8="13000.00000" pt_clust_9="86.66487"></scales>
<clustering>
<clus scale="   80.452">  5  6 -1 -1</clus>
<clus scale="   86.665">  2  9  1 -1</clus>
<clus scale="   91.341">  7  8 -1 -1</clus>
<clus scale="  147.421">  2  5  1 -1</clus>
<clus scale="   86.665">  2  5  1 -1</clus>
</clustering>
</event>
<event>
 9    1  0.8794331E-005  0.1190790E+03  0.7546771E-02  0.1248228E+00
         -4   -1    0    0    0  501 -0.00000000000E+00  0.00000000000E+00  0.12799920083E+04  0.12799920083E+04  0.00000000000E+00 0.  1.
         21   -1    0    0  501  502  0.00000000000E+00 -0.00000000000E+00 -0.37067251013E+02  0.37067251013E+02  0.00000000000E+00 0. -1.
        -24    2    1    2    0    0  0.53893873877E+02 -0.70459847527E+02  0.10880843733E+04  0.10944072922E+04  0.77010246612E+02 0.  0.
         23    2    1    2    0    0 -0.32154946181E+02  0.11221009753E+02  0.10985079033E+03  0.14515432575E+03  0.88559192213E+02 0.  0.
         11    1    3    3    0    0  0.49046816207E+01 -0.44331581965E+02  0.21597756800E+03  0.22053492908E+03  0.00000000000E+00 0. -1.
        -12    1    3    3    0    0  0.48989192256E+02 -0.26128265561E+02  0.87210680531E+03  0.87387236316E+03  0.00000000000E+00 0.  1.
        -13    1    4    4    0    0 -0.19723760010E+02 -0.32709633845E+02  0.17251020893E+02  0.41911150987E+02  0.00000000000E+00 0. -1.
         13    1    4    4    0    0 -0.12431186171E+02  0.43930643598E+02  0.92599769432E+02  0.10324317476E+03  0.00000000000E+00 0.  1.
         -3    1    1    2    0  502 -0.21738927696E+02  0.59238837773E+02  0.44989593690E+02  0.77497641374E+02  0.00000000000E+00 0.  1.
<scales pt_clust_5="13000.00000" pt_clust_6="13000.00000" pt_clust_7="13000.00000" pt_clust_8="13000.00000" pt_clust_9="63.10167"></scales>
<clustering>
<clus scale="   63.102">  2  9  1 -1</clus>
<clus scale="   77.010">  5  6 -1 -1</clus>
<clus scale="   88.559">  7  8 -1 -1</clus>
<clus scale="  110.759">  1  5  2 -1</clus>
<clus scale="   63.102">  2  5  1 -1</clus>
</clustering>
</event>
<event>
 9    1  0.6270443E-005  0.1342833E+03  0.7546771E-02  0.1224142E+00
         21   -1    0    0  501  502  0.00000000000E+00  0.00000000000E+00  0.41241069211E+02  0.41241069211E+02  0.00000000000E+00 0. -1.
          1   -1    0    0  502    0 -0.00000000000E+00 -0.00000000000E+00 -0.94360642527E+03  0.94360642527E+03  0.00000000000E+00 0. -1.
         23    2    1    2    0    0 -0.69813625874E+02  0.97542360746E+02 -0.39335050941E+03  0.42162105611E+03  0.93012027222E+02 0.  0.
        -24    2    1    2    0    0  0.30848262060E+02 -0.47198509946E+02 -0.73704215714E+02  0.12328536470E+03  0.81164371020E+02 0.  0.
         13    1    4    4    0    0  0.58485092888E+02 -0.36769151274E+02 -0.47924521604E+02  0.84078750862E+02  0.00000000000E+00 0. -1.
        -14    1    4    4    0    0 -0.27636830829E+02 -0.10429358673E+02 -0.25779694109E+02  0.39206613842E+02  0.00000000000E+00 0.  1.
        -11    1    3    3    0    0 -0.88189155498E+02  0.69267826277E+02 -0.24436864849E+03  0.26887059205E+03  0.00000000000E+00 0. -1.
         11    1    3    3    0    0  0.18375529624E+02  0.28274534469E+02 -0.14898186092E+03  0.15275046407E+03  0.00000000000E+00 0.  1.
          2    1    1    2  501    0  0.38965363815E+02 -0.50343850800E+02 -0.43531063094E+03  0.43994107367E+03  0.00000000000E+00 0. -1.
<scales pt_clust_5="13000.00000" pt_clust_6="13000.00000" pt_clust_7="13000.00000" pt_clust_8="13000.00000" pt_clust_9="63.66166"></scales>
<clustering>
<clus scale="   63.662">  1  9  2 -1</clus>
<clus scale="   81.164">  5  6 -1 -1</clus>
<clus scale="   93.012">  7  8 -1 -1</clus>
<clus scale="  126.366">  1  5  2 -1</clus>
<clus scale="   63.662">  1  5  2 -1</clus>
</clustering>
</event>
<event>
 9    1  0.7645619E-005  0.9366268E+02  0.7546771E-02  0.1299178E+00
         21   -1    0    0  501  502  0.00000000000E+00  0.00000000000E+00  0.28868957302E+03  0.28868957302E+03  0.00000000000E+00 0. -1.
          1   -1    0    0  502    0 -0.00000000000E+00 -0.00000000000E+00 -0.97530640151E+03  0.97530640151E+03  0.00000000000E+00 0. -1.
        -24    2    1    2    0    0 -0.28621048078E+02  0.88168888004E+00 -0.93524091822E+03  0.93912470682E+03  0.80372246930E+02 0.  0.
         23    2    1    2    0    0  0.75500560115E+02  0.14102747071E+02  0.24930079803E+03  0.27565054134E+03  0.89068013284E+02 0.  0.
         13    1    3    3    0    0 -0.26420664427E+02 -0.22950334496E+02 -0.17280198483E+03  0.17631022467E+03  0.00000000000E+00 0. -1.
        -14    1    3    3    0    0 -0.22003836511E+01  0.23832023376E+02 -0.76243893339E+03  0.76281448215E+03  0.00000000000E+00 0.  1.
        -13    1    4    4    0    0  0.93229480213E+02 -0.11264723687E+01  0.21251266875E+03  0.23206602358E+03  0.00000000000E+00 0. -1.
         13    1    4    4    0    0 -0.17728920098E+02  0.15229219439E+02  0.36788129280E+02  0.43584517761E+02  0.00000000000E+00 0.  1.
          2    1    1    2  501    0 -0.46879512037E+02 -0.14984435951E+02 -0.67670829413E+00  0.49220726363E+02  0.00000000000E+00 0. -1.
<scales pt_clust_5="13000.00000" pt_clust_6="13000.00000" pt_clust_7="13000.00000" pt_clust_8="13000.00000" pt_clust_9="49.21607"></scales>
<clustering>
<clus scale="   49.216">  1  9  2 -1</clus>
<clus scale="   80.372">  5  6 -1 -1</clus>
<clus scale="   85.436">  2  5  1 -1</clus>
<clus scale="   89.068">  7  8 -1 -1</clus>
<clus scale="   49.216">  1  5  2 -1</clus>
</clustering>
</event>
<event>
 9    1  0.6270443E-005  0.1688121E+03  0.7546771E-02  0.1179139E+00
         21   -1    0    0  501  502  0.00000000000E+00  0.00000000000E+00  0.13677156143E+03  0.13677156143E+03  0.00000000000E+00 0.  1.
          1   -1    0    0  502    0 -0.00000000000E+00 -0.00000000000E+00 -0.50280525489E+03  0.50280525489E+03  0.00000000000E+00 0. -1.
         23    2    1    2    0    0 -0.13331333504E+03  0.58884022447E+02 -0.39273073718E+03  0.42923102300E+03  0.93605906740E+02 0.  0.
        -24    2    1    2    0    0  0.12134297542E+03 -0.15516431475E+02 -0.66050480803E+01  0.15437198897E+03  0.93926604268E+02 0.  0.
         11    1    4    4    0    0  0.28244469810E+02  0.61645521564E+01 -0.43230366698E+02  0.52005926422E+02  0.00000000000E+00 0. -1.
        -12    1    4    4    0    0  0.93098505607E+02 -0.21680983632E+02  0.36625318618E+02  0.10236606255E+03  0.00000000000E+00 0.  1.
        -13    1    3    3    0    0 -0.91825995581E+02  0.82868824508E+02 -0.30763092655E+03  0.33156604547E+03  0.00000000000E+00 0. -1.
         13    1    3    3    0    0 -0.41487339462E+02 -0.23984802061E+02 -0.85099810631E+02  0.97664977525E+02  0.00000000000E+00 0.  1.
          2    1    1    2  501    0  0.11970359626E+02 -0.43367590972E+02  0.33302091796E+02  0.55973804358E+02  0.00000000000E+00 0. -1.
<scales pt_clust_5="13000.00000" pt_clust_6="13000.00000" pt_clust_7="13000.00000" pt_clust_8="13000.00000" pt_clust_9="44.98930"></scales>
<clustering>
<clus scale="   44.989">  1  9  2 -1</clus>
<clus scale="   93.606">  7  8 -1 -1</clus>
<clus scale="   93.927">  5  6 -1 -1</clus>
<clus scale="  168.634">  2  7  1 -1</clus>
<clus scale="   44.989">  1  5  2 -1</clus>
</clustering>
</event>
<event>
 9    1  0.6270443E-005  0.1401360E+03  0.7546771E-02  0.1215604E+00
         21   -1    0    0  501  502  0.00000000000E+00  0.00000000000E+00  0.25708521501E+03  0.25708521501E+03  0.00000000000E+00 0. -1.
          3   -1    0    0  502    0 -0.00000000000E+00 -0.00000000000E+00 -0.16712647765E+03  0.16712647765E+03  0.00000000000E+00 0. -1.
        -24    2    1    2    0    0  0.94159555720E+02  0.56426124807E+02 -0.10319456831E+03  0.17073572596E+03  0.80322099671E+02 0.  0.
         23    2    1    2    0    0 -0.87147445558E+02 -0.21379599681E+02  0.15547784291E+03  0.20154457824E+03  0.91624739198E+02 0.  0.
         11    1    3    3    0    0  0.53348639137E+02  0.35488944329E+02 -0.10699153304E+03  0.12471058740E+03  0.00000000000E+00 0. -1.
        -12    1    3    3    0    0  0.40810916583E+02  0.20937180478E+02  0.37969647218E+01  0.46025138564E+02  0.00000000000E+00 0.  1.
        -11    1    4    4    0    0 -0.38839270424E+02 -0.32843841475E+02  0.14089834634E+03  0.14979836732E+03  0.00000000000E+00 0. -1.
         11    1    4    4    0    0 -0.48308175134E+02  0.11464241794E+02  0.14579496569E+02  0.51746210923E+02  0.00000000000E+00 0.  1.
          4    1    1    2  501    0 -0.70121101618E+01 -0.35046525126E+02  0.37675462760E+02  0.51931388452E+02  0.00000000000E+00 0. -1.
<scales pt_clust_5="13000.00000" pt_clust_6="13000.00000" pt_clust_7="13000.00000" pt_clust_8="13000.00000" pt_clust_9="35.74113"></scales>
<clustering>
<clus scale="   35.741">  1  9  2 -1</clus>
<clus scale="   80.322">  5  6 -1 -1</clus>
<clus scale="   91.625">  7  8 -1 -1</clus>
<clus scale="  133.021">  2  5  1 -1</clus>
<clus scale="   35.741">  1  5  2 -1</clus>
</clustering>
</event>
<event>
 9    1  0.6475124E-005  0.1338792E+03  0.7546771E-02  0.1224052E+00
          1   -1    0    0  502    0 -0.00000000000E+00  0.00000000000E+00  0.63179332810E+03  0.63179332810E+03  0.00000000000E+00 0. -1.
         21   -1    0    0  501  502  0.00000000000E+00 -0.00000000000E+00 -0.59144539103E+03  0.59144539103E+03  0.00000000000E+00 0. -1.
        -24    2    1    2    0    0 -0.19362314940E+02  0.97005203308E+02  0.60045137659E+03  0.61417728894E+03  0.82987817696E+02 0.  0.
         23    2    1    2    0    0 -0.35566260547E+02 -0.63976792441E+02 -0.13472108009E+03  0.17887754386E+03  0.92138034589E+02 0.  0.
         13    1    3    3    0    0 -0.72986608179E+00  0.10025168982E+03  0.56659592696E+03  0.57539714846E+03  0.00000000000E+00 0. -1.
        -14    1    3    3    0    0 -0.18632448859E+02 -0.32464865109E+01  0.33855449636E+02  0.38780140474E+02  0.00000000000E+00 0.  1.
        -11    1    4    4    0    0  0.17068555106E+02 -0.27669615712E+02 -0.10198683273E+03  0.10704324947E+03  0.00000000000E+00 0.  1.
         11    1    4    4    0    0 -0.52634815653E+02 -0.36307176729E+02 -0.32734247360E+02  0.71834294394E+02  0.00000000000E+00 0. -1.
          2    1    1    2  501    0  0.54928575487E+02 -0.33028410867E+02 -0.42538235944E+03  0.43018388633E+03  0.00000000000E+00 0. -1.
<scales pt_clust_5="13000.00000" pt_clust_6="13000.00000" pt_clust_7="13000.00000" pt_clust_8="13000.00000" pt_clust_9="64.09387"></scales>
<clustering>
<clus scale="   64.094">  2  9  1 -1</clus>
<clus scale="   82.988">  5  6 -1 -1</clus>
<clus scale="   92.138">  7  8 -1 -1</clus>
<clus scale="  127.754">  1  5  2 -1</clus>
<clus scale="   64.094">  2  5  1 -1</clus>
</clustering>
</event>
<event>
 9    1  0.6270443E-005  0.1712088E+03  0.7546771E-02  0.1179244E+00
          1   -1    0    0  502    0 -0.00000000000E+00  0.00000000000E+00  0.71394788203E+03  0.71394788203E+03  0.00000000000E+00 0. -1.
         21   -1    0    0  501  502  0.00000000000E+00 -0.00000000000E+00 -0.87247257039E+02  0.87247257039E+02  0.00000000000E+00 0. -1.
        -24    2    1    2    0    0 -0.14295369460E+03 -0.20000248108E+02  0.52893382328E+03  0.55358837547E+03  0.76507067108E+02 0.  0.
         23    2    1    2    0    0  0.13527231838E+03 -0.12428325972E+01  0.12834022221E+03  0.20959352827E+03  0.95697908558E+02 0.  0.
         13    1    3    3    0    0 -0.12541434919E+03  0.46931183298E+01  0.47916031472E+03  0.49532352210E+03  0.00000000000E+00 0. -1.
        -14    1    3    3    0    0 -0.17539345416E+02 -0.24693366437E+02  0.49773508559E+02  0.58264853368E+02  0.00000000000E+00 0.  1.
        -13    1    4    4    0    0  0.42793715526E+02 -0.45643730539E+02  0.40424541635E+02  0.74490239578E+02  0.00000000000E+00 0. -1.
         13    1    4    4    0    0  0.92478602857E+02  0.44400897942E+02  0.87915680578E+02  0.13510328869E+03  0.00000000000E+00 0.  1.
          2    1    1    2  501    0  0.76813762210E+01  0.21243080705E+02 -0.30573420506E+02  0.38013235326E+02  0.00000000000E+00 0. -1.
<scales pt_clust_5="13000.00000" pt_clust_6="13000.00000" pt_clust_7="13000.00000" pt_clust_8="13000.00000" pt_clust_9="22.58920"></scales>
<clustering>
<clus scale="   22.589">  2  9  1 -1</clus>
<clus scale="   76.507">  5  6 -1 -1</clus>
<clus scale="   95.698">  7  8 -1 -1</clus>
<clus scale="  161.269">  1  5  2 -1</clus>
<clus scale="   22.589">  2  5  1 -1</clus>
</clustering>
</event>
<event>
 9    1  0.6270443E-005  0.1322806E+03  0.7546771E-02  0.1243049E+00
          1   -1    0    0  502    0 -0.00000000000E+00  0.00000000000E+00  0.19789191654E+03  0.19789191654E+03  0.00000000000E+00 0. -1.
         21   -1    0    0  501  502  0.00000000000E+00 -0.00000000000E+00 -0.22987834616E+03  0.22987834616E+03  0.00000000000E+00 0. -1.
        -24    2    1    2    0    0 -0.36604948762E+01 -0.42514780100E+02  0.98837543060E+02  0.13345407176E+03  0.78868394191E+02 0.  0.
         23    2    1    2    0    0  0.17254040683E+02 -0.60352026362E+02  0.18454703807E+02  0.11251826022E+03  0.91540776619E+02 0.  0.
         13    1    3    3    0    0  0.13313455484E+02 -0.61244216945E+02  0.57808028906E+02  0.85263535067E+02  0.00000000000E+00 0. -1.
        -14    1    3    3    0    0 -0.16973950360E+02  0.18729436844E+02  0.41029514154E+02  0.48190536696E+02  0.00000000000E+00 0.  1.
        -13    1    4    4    0    0  0.36589231182E+02  0.46223753863E+01  0.24782613438E+02  0.44433277186E+02  0.00000000000E+00 0.  1.
         13    1    4    4    0    0 -0.19335190499E+02 -0.64974401749E+02 -0.63279096313E+01  0.68084983032E+02  0.00000000000E+00 0. -1.
          2    1    1    2  501    0 -0.13593545807E+02  0.10286680646E+03 -0.14927867648E+03  0.18179793072E+03  0.00000000000E+00 0. -1.
<scales pt_clust_5="13000.00000" pt_clust_6="13000.00000" pt_clust_7="13000.00000" pt_clust_8="13000.00000" pt_clust_9="95.49053"></scales>
<clustering>
<clus scale="   78.868">  5  6 -1 -1</clus>
<clus scale="   89.672">  1  5  2 -1</clus>
<clus scale="   91.541">  7  8 -1 -1</clus>
<clus scale="   95.491">  2  9  1 -1</clus>
<clus scale="   95.491">  2  5  1 -1</clus>
</clustering>
</event>
<event>
 9    1  0.6270443E-005  0.1144688E+03  0.7546771E-02  0.1257814E+00
          1   -1    0    0  502    0 -0.00000000000E+00  0.00000000000E+00  0.42420850995E+03  0.42420850995E+03  0.00000000000E+00 0. -1.
         21   -1    0    0  501  502  0.00000000000E+00 -0.00000000000E+00 -0.44028993705E+02  0.44028993705E+02  0.00000000000E+00 0.  1.
        -24    2    1    2    0    0 -0.85082910644E+02  0.11224944644E+02  0.24880468938E+03  0.27368782730E+03  0.75074311769E+02 0.  0.
         23    2    1    2    0    0  0.41948741746E+02 -0.57050736152E+01  0.84183622108E+02  0.13037775641E+03  0.90106782972E+02 0.  0.
         13    1    3    3    0    0 -0.46866035659E+02  0.42504838989E+02  0.11839771040E+03  0.13424270731E+03  0.00000000000E+00 0. -1.
        -14    1    3    3    0    0 -0.38216874986E+02 -0.31279894346E+02  0.13040697898E+03  0.13944512000E+03  0.00000000000E+00 0.  1.
        -11    1    4    4    0    0 -0.41109016244E+01  0.35992124873E+02  0.21527677433E+02  0.42139927156E+02  0.00000000000E+00 0. -1.
         11    1    4    4    0    0  0.46059643371E+02 -0.41697198488E+02  0.62655944675E+02  0.88237829259E+02  0.00000000000E+00 0.  1.
          2    1    1    2  501    0  0.43134168898E+02 -0.55198710284E+01  0.47191204754E+02  0.64171919941E+02  0.00000000000E+00 0. -1.
<scales pt_clust_5="13000.00000" pt_clust_6="13000.00000" pt_clust_7="13000.00000" pt_clust_8="13000.00000" pt_clust_9="43.48592"></scales>
<clustering>
<clus scale="   43.486">  2  9  1 -1</clus>
<clus scale="   75.074">  5  6 -1 -1</clus>
<clus scale="   90.107">  7  8 -1 -1</clus>
<clus scale="  103.053">  1  5  2 -1</clus>
<clus scale="   43.486">  2  5  1 -1</clus>
</clustering>
</event>
<event>
 9    1  0.6270443E-005  0.9505503E+02  0.7546771E-02  0.1297709E+00
          1   -1    0    0  502    0 -0.00000000000E+00  0.00000000000E+00  0.99975932847E+03  0.99975932847E+03  0.00000000000E+00 0. -1.
         21   -1    0    0  501  502  0.00000000000E+00 -0.00000000000E+00 -0.14702748827E+02  0.14702748827E+02  0.00000000000E+00 0. -1.
        -24    2    1    2    0    0  0.14900418995E+02 -0.32654637839E+02  0.60177446269E+03  0.60813718284E+03  0.80062359164E+02 0.  0.
         23    2    1    2    0    0  0.25624733913E+01 -0.36878179771E+01  0.22471911134E+03  0.24271574601E+03  0.91608340712E+02 0.  0.
         13    1    3    3    0    0  0.46618802186E+02 -0.20837284480E+02  0.28293118680E+03  0.28750228104E+03  0.00000000000E+00 0. -1.
        -14    1    3    3    0    0 -0.31718383191E+02 -0.11817353359E+02  0.31884327589E+03  0.32063490180E+03  0.00000000000E+00 0.  1.
        -11    1    4    4    0    0 -0.32587735358E+02  0.23643679263E+02  0.15376003739E+03  0.15894380505E+03  0.00000000000E+00 0.  1.
         11    1    4    4    0    0  0.35150208749E+02 -0.27331497240E+02  0.70959073944E+02  0.83771940956E+02  0.00000000000E+00 0. -1.
          2    1    1    2  501    0 -0.17462892386E+02  0.36342455816E+02  0.15856300562E+03  0.16360914845E+03  0.00000000000E+00 0. -1.
<scales pt_clust_5="13000.00000" pt_clust_6="13000.00000" pt_clust_7="13000.00000" pt_clust_8="13000.00000" pt_clust_9="40.32030"></scales>
<clustering>
<clus scale="   40.320">  2  9  1 -1</clus>
<clus scale="   80.062">  5  6 -1 -1</clus>
<clus scale="   83.984">  1  5  2 -1</clus>
<clus scale="   91.608">  7  8 -1 -1</clus>
<clus scale="   40.320">  2  5  1 -1</clus>
</clustering>
</event>
<event>
 9    1  0.6270443E-005  0.2129398E+03  0.7546771E-02  0.1140073E+00
          3   -1    0    0  502    0 -0.00000000000E+00  0.00000000000E+00  0.88954966464E+02  0.88954966464E+02  0.00000000000E+00 0. -1.
         21   -1    0    0  501  502  0.00000000000E+00 -0.00000000000E+00 -0.93341207871E+03  0.93341207871E+03  0.00000000000E+00 0.  1.
        -24    2    1    2    0    0  0.15966543018E+03 -0.82077303478E+02 -0.17789468148E+03  0.26532325699E+03  0.80747629451E+02 0.  0.
         23    2    1    2    0    0 -0.20935130504E+03  0.48045343613E+02 -0.27375187141E+03  0.35964349126E+03  0.90923207922E+02 0.  0.
         13    1    3    3    0    0  0.34779937773E+02 -0.16405662192E-01 -0.78480483648E+02  0.85841893352E+02  0.00000000000E+00 0. -1.
        -14    1    3    3    0    0  0.12488549240E+03 -0.82060897816E+02 -0.99414197830E+02  0.17948136364E+03  0.00000000000E+00 0.  1.
        -13    1    4    4    0    0 -0.14498959835E+02  0.25033670152E+02 -0.93679542998E+01  0.30408272647E+02  0.00000000000E+00 0.  1.
         13    1    4    4    0    0 -0.19485234521E+03  0.23011673461E+02 -0.26438391711E+03  0.32923521862E+03  0.00000000000E+00 0. -1.
          4    1    1    2  501    0  0.49685874867E+02  0.34031959865E+02 -0.39281055935E+03  0.39740029692E+03  0.00000000000E+00 0. -1.
<scales pt_clust_5="13000.00000" pt_clust_6="13000.00000" pt_clust_7="13000.00000" pt_clust_8="13000.00000" pt_clust_9="60.22342"></scales>
<clustering>
<clus scale="   60.223">  2  9  1 -1</clus>
<clus scale="   80.748">  5  6 -1 -1</clus>
<clus scale="   90.923">  7  8 -1 -1</clus>
<clus scale="  208.798">  1  5  2 -1</clus>
<clus scale="   60.223">  2  5  1 -1</clus>
</clustering>
</event>
<event>
 9    1  0.6270443E-005  0.9409762E+02  0.7546771E-02  0.1300206E+00
         21   -1    0    0  501  502  0.00000000000E+00  0.00000000000E+00  0.11254943361E+03  0.11254943361E+03  0.00000000000E+00 0. -1.
          1   -1    0    0  502    0 -0.00000000000E+00 -0.00000000000E+00 -0.32750935036E+03  0.32750935036E+03  0.00000000000E+00 0. -1.
         23    2    1    2    0    0  0.41838796630E+01  0.13556856012E+02 -0.20437189306E+03  0.22425437832E+03  0.91218760844E+02 0.  0.
        -24    2    1    2    0    0 -0.20168092050E+01 -0.39337589661E+02 -0.93575886890E+02  0.12887726455E+03  0.79381290184E+02 0.  0.
         11    1    4    4    0    0  0.27178389123E+02  0.97822988099E+01 -0.46963600443E+02  0.55135632507E+02  0.00000000000E+00 0. -1.
        -12    1    4    4    0    0 -0.29195198328E+02 -0.49119888471E+02 -0.46612286447E+02  0.73741632045E+02  0.00000000000E+00 0.  1.
        -13    1    3    3    0    0  0.10568686375E+02  0.50797038405E+02 -0.91001417586E+02  0.10475349276E+03  0.00000000000E+00 0. -1.
         13    1    3    3    0    0 -0.63848067123E+01 -0.37240182393E+02 -0.11337047547E+03  0.11950088556E+03  0.00000000000E+00 0.  1.
          2    1    1    2  501    0 -0.21670704580E+01  0.25780733649E+02  0.82987863201E+02  0.86927141104E+02  0.00000000000E+00 0. -1.
<scales pt_clust_5="13000.00000" pt_clust_6="13000.00000" pt_clust_7="13000.00000" pt_clust_8="13000.00000" pt_clust_9="25.87165"></scales>
<clustering>
<clus scale="   25.872">  1  9  2 -1</clus>
<clus scale="   79.381">  5  6 -1 -1</clus>
<clus scale="   82.673">  1  5  2 -1</clus>
<clus scale="   91.219">  7  8 -1 -1</clus>
<clus scale="   25.872">  1  5  2 -1</clus>
</clustering>
</event>
<event>
 9    1  0.6270443E-005  0.8878095E+02  0.7546771E-02  0.1311137E+00
         21   -1    0    0  501  502  0.00000000000E+00  0.00000000000E+00  0.62282290884E+03  0.62282290884E+03  0.00000000000E+00 0.  1.
          1   -1    0    0  502    0 -0.00000000000E+00 -0.00000000000E+00 -0.45669031396E+02  0.45669031396E+02  0.00000000000E+00 0. -1.
        -24    2    1    2    0    0  0.15672892192E+01  0.39130138752E+01  0.18837825707E+02  0.82257930963E+02  0.79960837013E+02 0.  0.
         23    2    1    2    0    0  0.14561558837E+02 -0.64203201173E+02  0.42523966539E+03  0.43924975493E+03  0.88190045589E+02 0.  0.
         13    1    3    3    0    0 -0.18810487132E+02  0.22223503721E+02  0.38692903999E+02  0.48423747931E+02  0.00000000000E+00 0. -1.
        -14    1    3    3    0    0  0.20377776352E+02 -0.18310489846E+02 -0.19855078292E+02  0.33834183032E+02  0.00000000000E+00 0.  1.
        -13    1    4    4    0    0 -0.37128852412E+02 -0.30662760075E+02  0.20222347449E+03  0.20787758458E+03  0.00000000000E+00 0. -1.
         13    1    4    4    0    0  0.51690411249E+02 -0.33540441098E+02  0.22301619090E+03  0.23137217034E+03  0.00000000000E+00 0.  1.
          2    1    1    2  501    0 -0.16128848056E+02  0.60290187298E+02  0.13307638634E+03  0.14698425435E+03  0.00000000000E+00 0. -1.
<scales pt_clust_5="13000.00000" pt_clust_6="13000.00000" pt_clust_7="13000.00000" pt_clust_8="13000.00000" pt_clust_9="62.41031"></scales>
<clustering>
<clus scale="   62.410">  1  9  2 -1</clus>
<clus scale="   79.961">  5  6 -1 -1</clus>
<clus scale="   80.612">  2  5  1 -1</clus>
<clus scale="   88.190">  7  8 -1 -1</clus>
<clus scale="   62.410">  1  5  2 -1</clus>
</clustering>
</event>
<event>
 9    1  0.6270443E-005  0.1278554E+03  0.7546771E-02  0.1250134E+00
          1   -1    0    0  502    0 -0.00000000000E+00  0.00000000000E+00  0.41274480225E+03  0.41274480225E+03  0.00000000000E+00 0. -1.
         21   -1    0    0  501  502  0.00000000000E+00 -0.00000000000E+00 -0.31039661135E+03  0.31039661135E+03  0.00000000000E+00 0. -1.
        -24    2    1    2    0    0 -0.87710153271E+01 -0.24810346662E+02 -0.31269796578E+02  0.91633278270E+02  0.82014471267E+02 0.  0.
         23    2    1    2    0    0  0.94692852167E+02  0.39481171625E+02  0.36168356141E+03  0.38735305928E+03  0.93283947033E+02 0.  0.
         11    1    3    3    0    0  0.33270635995E+02 -0.27725655794E+02 -0.10093591446E+02  0.44469402931E+02  0.00000000000E+00 0. -1.
        -12    1    3    3    0    0 -0.42041651322E+02  0.29153091319E+01 -0.21176205131E+02  0.47163875339E+02  0.00000000000E+00 0.  1.
        -11    1    4    4    0    0  0.32035087211E+02  0.63485209076E+02  0.17039261994E+03  0.18463548823E+03  0.00000000000E+00 0. -1.
         11    1    4    4    0    0  0.62657764956E+02 -0.24004037452E+02  0.19129094147E+03  0.20271757105E+03  0.00000000000E+00 0.  1.
          2    1    1    2  501    0 -0.85921836840E+02 -0.14670824962E+02 -0.22806557393E+03  0.24415507605E+03  0.00000000000E+00 0. -1.
<scales pt_clust_5="13000.00000" pt_clust_6="13000.00000" pt_clust_7="13000.00000" pt_clust_8="13000.00000" pt_clust_9="87.43629"></scales>
<clustering>
<clus scale="   82.014">  5  6 -1 -1</clus>
<clus scale="   86.133">  1  5  2 -1</clus>
<clus scale="   87.436">  2  9  1 -1</clus>
<clus scale="   93.284">  7  8 -1 -1</clus>
<clus scale="   87.436">  2  5  1 -1</clus>
</clustering>
</event>
<event>
 9    1  0.6270443E-005  0.2072597E+03  0.7546771E-02  0.1163685E+00
          1   -1    0    0  502    0 -0.00000000000E+00  0.00000000000E+00  0.95334138290E+03  0.95334138290E+03  0.00000000000E+00 0. -1.
         21   -1    0    0  501  502  0.00000000000E+00 -0.00000000000E+00 -0.12319933801E+03  0.12319933801E+03  0.00000000000E+00 0. -1.
        -24    2    1    2    0    0  0.86000224962E+02  0.53856576139E+02 -0.22676271370E+02  0.13161496966E+03  0.80695213419E+02 0.  0.
         23    2    1    2    0    0  0.78175525788E+02 -0.16841031830E+03  0.45555342048E+03  0.50007112959E+03  0.89826319110E+02 0.  0.
         11    1    3    3    0    0  0.30186757237E+02 -0.93488451395E+01 -0.34136884845E+02  0.46518470793E+02  0.00000000000E+00 0. -1.
        -12    1    3    3    0    0  0.55813467725E+02  0.63205421279E+02  0.11460613476E+02  0.85096498869E+02  0.00000000000E+00 0.  1.
        -13    1    4    4    0    0 -0.11464425028E+02 -0.51480780019E+02  0.72461549754E+02  0.89623545708E+02  0.00000000000E+00 0.  1.
         13    1    4    4    0    0  0.89639950816E+02 -0.11692953828E+03  0.38309187072E+03  0.41044758389E+03  0.00000000000E+00 0. -1.
          2    1    1    2  501    0 -0.16417575075E+03  0.11455374216E+03  0.39726489579E+03  0.44485462165E+03  0.00000000000E+00 0. -1.
<scales pt_clust_5="13000.00000" pt_clust_6="13000.00000" pt_clust_7="13000.00000" pt_clust_8="13000.00000" pt_clust_9="186.78285"></scales>
<clustering>
<clus scale="   80.695">  5  6 -1 -1</clus>
<clus scale="   89.826">  7  8 -1 -1</clus>
<clus scale="  129.647">  1  5  2 -1</clus>
<clus scale="  186.783">  2  9  1 -1</clus>
<clus scale="  186.783">  2  5  1 -1</clus>
</clustering>
</event>
<event>
 9    1  0.6270443E-005  0.1047467E+03  0.7546771E-02  0.1275401E+00
          1   -1    0    0  502    0 -0.00000000000E+00  0.00000000000E+00  0.11365011509E+03  0.11365011509E+03  0.00000000000E+00 0. -1.
         21   -1    0    0  501  502  0.00000000000E+00 -0.00000000000E+00 -0.32800971813E+03  0.32800971813E+03  0.00000000000E+00 0.  1.
         23    2    1    2    0    0  0.34530896860E+02 -0.30294786265E+02 -0.88279651276E+02  0.13609124712E+03  0.92829810947E+02 0.  0.
        -24    2    1    2    0    0 -0.16472167445E+02  0.56712530279E+02 -0.20045878961E+03  0.22459805797E+03  0.82297739463E+02 0.  0.
         13    1    4    4    0    0 -0.10219555425E+02  0.68260162641E+02 -0.90289724679E+02  0.11364912450E+03  0.00000000000E+00 0. -1.
        -14    1    4    4    0    0 -0.62526120200E+01 -0.11547632362E+02 -0.11016906493E+03  0.11094893347E+03  0.00000000000E+00 0.  1.
        -11    1    3    3    0    0 -0.31557334711E+02 -0.15105456800E+02 -0.22369215776E+02  0.41526160594E+02  0.00000000000E+00 0.  1.
         11    1    3    3    0    0  0.66088231571E+02 -0.15189329465E+02 -0.65910435500E+02  0.94565086526E+02  0.00000000000E+00 0. -1.
          2    1    1    2  501    0 -0.18058729415E+02 -0.26417744014E+02  0.74378837842E+02  0.80970528130E+02  0.00000000000E+00 0. -1.
<scales pt_clust_5="13000.00000" pt_clust_6="13000.00000" pt_clust_7="13000.00000" pt_clust_8="13000.00000" pt_clust_9="32.00025"></scales>
<clustering>
<clus scale="   32.000">  2  9  1 -1</clus>
<clus scale="   82.298">  5  6 -1 -1</clus>
<clus scale="   92.830">  7  8 -1 -1</clus>
<clus scale="   95.538">  2  5  1 -1</clus>
<clus scale="   32.000">  2  5  1 -1</clus>
</clustering>
</event>
<event>
 9    1  0.6270443E-005  0.1072035E+03  0.7546771E-02  0.1269348E+00
          1   -1    0    0  502    0 -0.00000000000E+00  0.00000000000E+00  0.85144518558E+03  0.85144518558E+03  0.00000000000E+00 0. -1.
         21   -1    0    0  501  502  0.00000000000E+00 -0.00000000000E+00 -0.23736283673E+02  0.23736283673E+02  0.00000000000E+00 0.  1.
         23    2    1    2    0    0  0.53075278992E+02 -0.14610269915E+02  0.54069484143E+03  0.55084676162E+03  0.89726239243E+02 0.  0.
        -24    2    1    2    0    0 -0.55631759564E+02  0.39178929505E+02  0.27890556478E+03  0.29833658598E+03  0.81157398196E+02 0.  0.
         11    1    4    4    0    0 -0.61374722507E+02  0.15536801489E+02  0.25979730771E+03  0.26740024281E+03  0.00000000000E+00 0. -1.
        -12    1    4    4    0    0  0.57429629421E+01  0.23642128015E+02  0.19108257066E+02  0.30936343167E+02  0.00000000000E+00 0.  1.
        -13    1    3    3    0    0  0.14597125028E+02 -0.50535906026E+02  0.26445294515E+03  0.26963366639E+03  0.00000000000E+00 0. -1.
         13    1    3    3    0    0  0.38478153964E+02  0.35925636111E+02  0.27624189629E+03  0.28121309523E+03  0.00000000000E+00 0.  1.
          2    1    1    2  501    0  0.25564805727E+01 -0.24568659589E+02  0.81084956975E+01  0.25998121651E+02  0.00000000000E+00 0. -1.
<scales pt_clust_5="13000.00000" pt_clust_6="13000.00000" pt_clust_7="13000.00000" pt_clust_8="13000.00000" pt_clust_9="24.70131"></scales>
<clustering>
<clus scale="   24.701">  2  9  1 -1</clus>
<clus scale="   81.157">  5  6 -1 -1</clus>
<clus scale="   89.726">  7  8 -1 -1</clus>
<clus scale="  100.141">  2  5  1 -1</clus>
<clus scale="   24.701">  2  5  1 -1</clus>
</clustering>
</event>
<event>
 9    1  0.6270443E-005  0.2673589E+03  0.7546771E-02  0.1103085E+00
         -2   -1    0    0    0  501 -0.00000000000E+00  0.00000000000E+00  0.21273941859E+04  0.21273941859E+04  0.00000000000E+00 0.  1.
         21   -1    0    0  501  502  0.00000000000E+00 -0.00000000000E+00 -0.46085869524E+02  0.46085869524E+02  0.00000000000E+00 0. -1.
         23    2    1    2    0    0 -0.19596971840E+03 -0.19542231909E+03  0.12636882461E+04  0.12969293180E+04  0.92323665363E+02 0.  0.
        -24    2    1    2    0    0  0.13150380008E+03  0.17947287402E+03  0.71951202716E+03  0.75807952767E+03  0.86505786474E+02 0.  0.
         13    1    4    4    0    0  0.48962054444E+01  0.62250084993E+02  0.25569313378E+03  0.26320718944E+03  0.00000000000E+00 0. -1.
        -14    1    4    4    0    0  0.12660759464E+03  0.11722278902E+03  0.46381889338E+03  0.49487233823E+03  0.00000000000E+00 0.  1.
        -11    1    3    3    0    0 -0.40354038683E+02 -0.95247166427E+02  0.54947848805E+03  0.55913064661E+03  0.00000000000E+00 0.  1.
         11    1    3    3    0    0 -0.15561567972E+03 -0.10017515266E+03  0.71420975805E+03  0.73779867138E+03  0.00000000000E+00 0. -1.
         -1    1    1    2    0  502  0.64465918316E+02  0.15949445075E+02  0.98108043146E+02  0.11847120980E+03  0.00000000000E+00 0.  1.
<scales pt_clust_5="13000.00000" pt_clust_6="13000.00000" pt_clust_7="13000.00000" pt_clust_8="13000.00000" pt_clust_9="66.40963"></scales>
<clustering>
<clus scale="   66.410">  2  9  1 -1</clus>
<clus scale="   86.506">  5  6 -1 -1</clus>
<clus scale="   92.324">  7  8 -1 -1</clus>
<clus scale="  265.406">  2  5  1 -1</clus>
<clus scale="   66.410">  2  5  1 -1</clus>
</clustering>
</event>
<event>
 9    1  0.6270443E-005  0.9729238E+02  0.7546771E-02  0.1292081E+00
         -2   -1    0    0    0  501 -0.00000000000E+00  0.00000000000E+00  0.17401057296E+03  0.17401057296E+03  0.00000000000E+00 0.  1.
         21   -1    0    0  501  502  0.00000000000E+00 -0.00000000000E+00 -0.96406267693E+02  0.96406267693E+02  0.00000000000E+00 0.  1.
         23    2    1    2    0    0  0.19969297399E+02  0.10301368792E+01  0.55877796096E+02  0.10888939430E+03  0.91294786670E+02 0.  0.
        -24    2    1    2    0    0 -0.47120417944E+02  0.47091633631E+02  0.77900963125E+01  0.10454401238E+03  0.80192326186E+02 0.  0.
         13    1    4    4    0    0 -0.35931891541E+01  0.57465559999E+02 -0.55677676352E+01  0.57846362295E+02  0.00000000000E+00 0. -1.
        -14    1    4    4    0    0 -0.43527228789E+02 -0.10373926368E+02  0.13357863948E+02  0.46697650087E+02  0.00000000000E+00 0.  1.
        -13    1    3    3    0    0  0.64136908766E+00 -0.27648450150E+02  0.67063200856E+02  0.72541857290E+02  0.00000000000E+00 0. -1.
         13    1    3    3    0    0  0.19327928312E+02  0.28678587029E+02 -0.11185404761E+02  0.36347537007E+02  0.00000000000E+00 0.  1.
         -1    1    1    2    0  502  0.27151120544E+02 -0.48121770511E+02  0.13936412855E+02  0.56983433971E+02  0.00000000000E+00 0.  1.
<scales pt_clust_5="13000.00000" pt_clust_6="13000.00000" pt_clust_7="13000.00000" pt_clust_8="13000.00000" pt_clust_9="55.25295"></scales>
<clustering>
<clus scale="   55.253">  2  9  1 -1</clus>
<clus scale="   80.192">  5  6 -1 -1</clus>
<clus scale="   86.959">  2  5  1 -1</clus>
<clus scale="   91.295">  7  8 -1 -1</clus>
<clus scale="   55.253">  2  5  1 -1</clus>
</clustering>
</event>
<event>
 9    1  0.6270443E-005  0.1045277E+03  0.7546771E-02  0.1277764E+00
          1   -1    0    0  502    0 -0.00000000000E+00  0.00000000000E+00  0.10508852851E+04  0.10508852851E+04  0.00000000000E+00 0. -1.
         21   -1    0    0  501  502  0.00000000000E+00 -0.00000000000E+00 -0.13252635132E+02  0.13252635132E+02  0.00000000000E+00 0. -1.
        -24    2    1    2    0    0 -0.33751877464E+02 -0.21354015710E+02  0.38595255642E+03  0.39609149153E+03  0.79585869570E+02 0.  0.
         23    2    1    2    0    0  0.22287709732E+02  0.54581506067E+02  0.46020362761E+03  0.47337046648E+03  0.93895350600E+02 0.  0.
         13    1    3    3    0    0 -0.44147151351E+02 -0.44993994254E+02  0.28506346881E+03  0.29194967330E+03  0.00000000000E+00 0. -1.
        -14    1    3    3    0    0  0.10395273887E+02  0.23639978544E+02  0.10088908762E+03  0.10414181823E+03  0.00000000000E+00 0.  1.
        -13    1    4    4    0    0 -0.20773174400E+02 -0.11775934733E+02  0.47616351430E+02  0.53268323956E+02  0.00000000000E+00 0.  1.
         13    1    4    4    0    0  0.43060884132E+02  0.66357440800E+02  0.41258727618E+03  0.42010214253E+03  0.00000000000E+00 0. -1.
          2    1    1    2  501    0  0.11464167732E+02 -0.33227490358E+02  0.19147646590E+03  0.19467596218E+03  0.00000000000E+00 0. -1.
<scales pt_clust_5="13000.00000" pt_clust_6="13000.00000" pt_clust_7="13000.00000" pt_clust_8="13000.00000" pt_clust_9="35.14960"></scales>
<clustering>
<clus scale="   35.150">  2  9  1 -1</clus>
<clus scale="   79.586">  5  6 -1 -1</clus>
<clus scale="   91.889">  1  5  2 -1</clus>
<clus scale="   93.895">  7  8 -1 -1</clus>
<clus scale="   35.150">  2  5  1 -1</clus>
</clustering>
</event>
<event>
 9    1  0.6270443E-005  0.1437615E+03  0.7546771E-02  0.1227543E+00
          3   -1    0    0  502    0 -0.00000000000E+00  0.00000000000E+00  0.34945828814E+03  0.34945828814E+03  0.00000000000E+00 0. -1.
         21   -1    0    0  501  502  0.00000000000E+00 -0.00000000000E+00 -0.20236821562E+03  0.20236821562E+03  0.00000000000E+00 0. -1.
        -24    2    1    2    0    0 -0.17446362275E+02 -0.55588109132E+02 -0.65803050457E+01  0.96178536977E+02  0.76240390392E+02 0.  0.
         23    2    1    2    0    0  0.12540683268E+03  0.24378271509E+02  0.25855017522E+03  0.30192975351E+03  0.89399156288E+02 0.  0.
         11    1    3    3    0    0 -0.19037717404E+02 -0.60004630877E+02  0.22401271296E+02  0.66819214051E+02  0.00000000000E+00 0. -1.
        -12    1    3    3    0    0  0.15913551293E+01  0.44165217447E+01 -0.28981576342E+02  0.29359322927E+02  0.00000000000E+00 0.  1.
        -13    1    4    4    0    0  0.10775348092E+03  0.53157931604E+02  0.17984663260E+03  0.21629005895E+03  0.00000000000E+00 0. -1.
         13    1    4    4    0    0  0.17653351754E+02 -0.28779660095E+02  0.78703542621E+02  0.85639694560E+02  0.00000000000E+00 0.  1.
          4    1    1    2  501    0 -0.10796047040E+03  0.31209837624E+02 -0.10487979766E+03  0.15371821327E+03  0.00000000000E+00 0. -1.
<scales pt_clust_5="13000.00000" pt_clust_6="13000.00000" pt_clust_7="13000.00000" pt_clust_8="13000.00000" pt_clust_9="112.58396"></scales>
<clustering>
<clus scale="   76.240">  5  6 -1 -1</clus>
<clus scale="   89.399">  7  8 -1 -1</clus>
<clus scale="   95.953">  1  5  2 -1</clus>
<clus scale="  112.584">  2  9  1 -1</clus>
<clus scale="  112.584">  2  5  1 -1</clus>
</clustering>
</event>
<event>
 9    1  0.6270443E-005  0.1318543E+03  0.7546771E-02  0.1235019E+00
          1   -1    0    0  502    0 -0.00000000000E+00  0.00000000000E+00  0.75700806904E+02  0.75700806904E+02  0.00000000000E+00 0. -1.
         21   -1    0    0  501  502  0.00000000000E+00 -0.00000000000E+00 -0.75856540550E+03  0.75856540550E+03  0.00000000000E+00 0. -1.
        -24    2    1    2    0    0 -0.56486832589E+02 -0.40979062282E+02 -0.55037072721E+03  0.56060146773E+03  0.80597905981E+02 0.  0.
         23    2    1    2    0    0  0.33418775748E+02 -0.69466435191E+02 -0.33946359132E+02  0.12385835185E+03  0.90808236603E+02 0.  0.
         13    1    3    3    0    0 -0.71566801253E+02 -0.11126910940E+02 -0.34441404405E+03  0.35194694050E+03  0.00000000000E+00 0. -1.
        -14    1    3    3    0    0  0.15079968664E+02 -0.29852151342E+02 -0.20595668316E+03  0.20865452723E+03  0.00000000000E+00 0.  1.
        -13    1    4    4    0    0  0.53029221498E+02 -0.64071765327E+02  0.12821243601E+01  0.83180125557E+02  0.00000000000E+00 0. -1.
         13    1    4    4    0    0 -0.19610445751E+02 -0.53946698644E+01 -0.35228483492E+02  0.40678226297E+02  0.00000000000E+00 0.  1.
          2    1    1    2  501    0  0.23068056842E+02  0.11044549747E+03 -0.98547512253E+02  0.14980639282E+03  0.00000000000E+00 0. -1.
<scales pt_clust_5="13000.00000" pt_clust_6="13000.00000" pt_clust_7="13000.00000" pt_clust_8="13000.00000" pt_clust_9="95.60030"></scales>
<clustering>
<clus scale="   80.598">  5  6 -1 -1</clus>
<clus scale="   90.808">  7  8 -1 -1</clus>
<clus scale="  106.612">  1  5  2 -1</clus>
<clus scale="   95.600">  2  9  1 -1</clus>
<clus scale="   95.600">  2  5  1 -1</clus>
</clustering>
</event>
<event>
 9    1  0.6270443E-005  0.1565710E+03  0.7546771E-02  0.1194394E+00
         21   -1    0    0  501  502  0.00000000000E+00  0.00000000000E+00  0.66526528020E+03  0.66526528020E+03  0.00000000000E+00 0. -1.
         -2   -1    0    0    0  501 -0.00000000000E+00 -0.00000000000E+00 -0.29135685146E+03  0.29135685146E+03  0.00000000000E+00 0.  1.
         23    2    1    2    0    0 -0.16169293921E+02  0.13221899201E+03 -0.25263872128E+03  0.29746709691E+03  0.83168758191E+02 0.  0.
        -24    2    1    2    0    0  0.61753673310E+02 -0.11225179781E+03  0.53757981190E+03  0.55721479862E+03  0.71290219261E+02 0.  0.
         11    1    4    4    0    0  0.77713178596E+02 -0.86458674007E+02  0.42147369149E+03  0.43721220598E+03  0.00000000000E+00 0. -1.
        -12    1    4    4    0    0 -0.15959505286E+02 -0.25793123804E+02  0.11610612041E+03  0.12000259264E+03  0.00000000000E+00 0.  1.
        -13    1    3    3    0    0 -0.40658190886E+01  0.26760607349E+02 -0.43187057828E+01  0.27410074976E+02  0.00000000000E+00 0. -1.
         13    1    3    3    0    0 -0.12103474832E+02  0.10545838466E+03 -0.24832001550E+03  0.27005702193E+03  0.00000000000E+00 0.  1.
         -1    1    1    2    0  502 -0.45584379389E+02 -0.19967194198E+02  0.88967338131E+02  0.10194023613E+03  0.00000000000E+00 0.  1.
<scales pt_clust_5="13000.00000" pt_clust_6="13000.00000" pt_clust_7="13000.00000" pt_clust_8="13000.00000" pt_clust_9="49.76570"></scales>
<clustering>
<clus scale="   49.766">  1  9  2 -1</clus>
<clus scale="   71.290">  5  6 -1 -1</clus>
<clus scale="   83.169">  7  8 -1 -1</clus>
<clus scale="  150.598">  1  5  2 -1</clus>
<clus scale="   49.766">  1  5  2 -1</clus>
</clustering>
</event>
<event>
 9    1  0.6270443E-005  0.9611373E+02  0.7546771E-02  0.1295361E+00
          1   -1    0    0  502    0 -0.00000000000E+00  0.00000000000E+00  0.57869731955E+03  0.57869731955E+03  0.00000000000E+00 0. -1.
         21   -1    0    0  501  502  0.00000000000E+00 -0.00000000000E+00 -0.43840307620E+02  0.43840307620E+02  0.00000000000E+00 0. -1.
        -24    2    1    2    0    0 -0.26133311755E+02 -0.15929928529E+02  0.47466326438E+03  0.48237645994E+03  0.80281516821E+02 0.  0.
         23    2    1    2    0    0  0.13390520034E+02 -0.11123381491E+02  0.57889808283E+02  0.11016836042E+03  0.92102128602E+02 0.  0.
         11    1    3    3    0    0 -0.26813964616E+02 -0.40528606342E+02  0.17254689786E+03  0.17925955649E+03  0.00000000000E+00 0. -1.
        -12    1    3    3    0    0  0.68065286088E+00  0.24598677813E+02  0.30211636652E+03  0.30311690345E+03  0.00000000000E+00 0.  1.
        -11    1    4    4    0    0  0.20095078007E+02  0.37829463394E+02  0.17196661819E+02  0.46158483927E+02  0.00000000000E+00 0.  1.
         11    1    4    4    0    0 -0.67045579731E+01 -0.48952844885E+02  0.40693146464E+02  0.64009876497E+02  0.00000000000E+00 0. -1.
          2    1    1    2  501    0  0.12742791722E+02  0.27053310020E+02  0.23039392629E+01  0.29992806805E+02  0.00000000000E+00 0. -1.
<scales pt_clust_5="13000.00000" pt_clust_6="13000.00000" pt_clust_7="13000.00000" pt_clust_8="13000.00000" pt_clust_9="29.90419"></scales>
<clustering>
<clus scale="   29.904">  2  9  1 -1</clus>
<clus scale="   80.282">  5  6 -1 -1</clus>
<clus scale="   84.854">  1  5  2 -1</clus>
<clus scale="   92.102">  7  8 -1 -1</clus>
<clus scale="   29.904">  2  5  1 -1</clus>
</clustering>
</event>
<event>
 9    1  0.6270443E-005  0.3103610E+03  0.7546771E-02  0.1097163E+00
         21   -1    0    0  501  502  0.00000000000E+00  0.00000000000E+00  0.16349507740E+03  0.16349507740E+03  0.00000000000E+00 0. -1.
          1   -1    0    0  502    0 -0.00000000000E+00 -0.00000000000E+00 -0.10637589001E+04  0.10637589001E+04  0.00000000000E+00 0. -1.
        -24    2    1    2    0    0  0.68888942036E+02  0.16721918112E+03 -0.21471423929E+03  0.29196240620E+03  0.80199134749E+02 0.  0.
         23    2    1    2    0    0 -0.33389783433E+03 -0.65610446620E+02 -0.38637905629E+03  0.52291182856E+03  0.91408483383E+02 0.  0.
         13    1    3    3    0    0  0.18873151929E+02  0.13720160411E+03 -0.13715105901E+03  0.19491251633E+03  0.00000000000E+00 0. -1.
        -14    1    3    3    0    0  0.50015790107E+02  0.30017577003E+02 -0.77563180277E+02  0.97049889870E+02  0.00000000000E+00 0.  1.
        -13    1    4    4    0    0 -0.26652448028E+03 -0.23967668284E+02 -0.33389503162E+03  0.42789676307E+03  0.00000000000E+00 0.  1.
         13    1    4    4    0    0 -0.67373354051E+02 -0.41642778336E+02 -0.52484024670E+02  0.95015065485E+02  0.00000000000E+00 0. -1.
          2    1    1    2  501    0  0.26500889230E+03 -0.10160873450E+03 -0.29917052715E+03  0.41237974276E+03  0.00000000000E+00 0. -1.
<scales pt_clust_5="13000.00000" pt_clust_6="13000.00000" pt_clust_7="13000.00000" pt_clust_8="13000.00000" pt_clust_9="296.59478"></scales>
<clustering>
<clus scale="   80.199">  5  6 -1 -1</clus>
<clus scale="   91.408">  7  8 -1 -1</clus>
<clus scale="  197.838">  2  5  1 -1</clus>
<clus scale="  296.595">  1  9  2 -1</clus>
<clus scale="  296.595">  1  5  2 -1</clus>
</clustering>
</event>
<event>
 9    1  0.6270443E-005  0.1661163E+03  0.7546771E-02  0.1183817E+00
          3   -1    0    0  502    0 -0.00000000000E+00  0.00000000000E+00  0.86324832094E+03  0.86324832094E+03  0.00000000000E+00 0. -1.
         21   -1    0    0  501  502  0.00000000000E+00 -0.00000000000E+00 -0.49555038907E+02  0.49555038907E+02  0.00000000000E+00 0. -1.
         23    2    1    2    0    0 -0.86619157985E+01  0.16847780870E+03  0.47315265890E+03  0.51082957405E+03  0.92809559275E+02 0.  0.
        -24    2    1    2    0    0 -0.34638404705E+02 -0.10391552459E+03  0.20923035637E+03  0.24937761139E+03  0.80084928080E+02 0.  0.
         11    1    4    4    0    0 -0.18828687607E+02 -0.67372226722E+02  0.51945789344E+02  0.87131518069E+02  0.00000000000E+00 0. -1.
        -12    1    4    4    0    0 -0.15809717098E+02 -0.36543297865E+02  0.15728456703E+03  0.16224609332E+03  0.00000000000E+00 0.  1.
        -11    1    3    3    0    0 -0.21043334536E+02  0.10688044261E+03  0.39917557331E+03  0.41377214656E+03  0.00000000000E+00 0. -1.
         11    1    3    3    0    0  0.12381418737E+02  0.61597366089E+02  0.73977085588E+02  0.97057427491E+02  0.00000000000E+00 0.  1.
          4    1    1    2  501    0  0.43300320504E+02 -0.64562284111E+02  0.13131026676E+03  0.15259617441E+03  0.00000000000E+00 0. -1.
<scales pt_clust_5="13000.00000" pt_clust_6="13000.00000" pt_clust_7="13000.00000" pt_clust_8="13000.00000" pt_clust_9="77.73806"></scales>
<clustering>
<clus scale="   77.738">  2  9  1 -1</clus>
<clus scale="   80.085">  5  6 -1 -1</clus>
<clus scale="   92.810">  7  8 -1 -1</clus>
<clus scale="  159.357">  2  5  1 -1</clus>
<clus scale="   77.738">  2  5  1 -1</clus>
</clustering>
</event>
<event>
 9    1  0.6270443E-005  0.9520569E+02  0.7546771E-02  0.1294929E+00
          1   -1    0    0  502    0 -0.00000000000E+00  0.00000000000E+00  0.16999337577E+03  0.16999337577E+03  0.00000000000E+00 0. -1.
         21   -1    0    0  501  502  0.00000000000E+00 -0.00000000000E+00 -0.36810282719E+03  0.36810282719E+03  0.00000000000E+00 0. -1.
         23    2    1    2    0    0 -0.39842044324E+02 -0.51169170420E+01  0.10146719000E+03  0.14107529139E+03  0.89404003584E+02 0.  0.
        -24    2    1    2    0    0 -0.11518966906E+02  0.58874462265E+02 -0.14476572110E+02  0.10238575301E+03  0.81696893289E+02 0.  0.
         11    1    4    4    0    0  0.34295194057E+01  0.69067415901E+02  0.12131939435E+02  0.70208642609E+02  0.00000000000E+00 0. -1.
        -12    1    4    4    0    0 -0.14948486312E+02 -0.10192953636E+02 -0.26608511546E+02  0.32177110397E+02  0.00000000000E+00 0.  1.
        -11    1    3    3    0    0  0.13636208923E+02 -0.24731684198E+02  0.44759489849E+01  0.28594344132E+02  0.00000000000E+00 0.  1.
         11    1    3    3    0    0 -0.53478253247E+02  0.19614767156E+02  0.96991241019E+02  0.11248094726E+03  0.00000000000E+00 0. -1.
          2    1    1    2  501    0  0.51361011230E+02 -0.53757545223E+02 -0.28510006932E+03  0.29463515857E+03  0.00000000000E+00 0. -1.
<scales pt_clust_5="13000.00000" pt_clust_6="13000.00000" pt_clust_7="13000.00000" pt_clust_8="13000.00000" pt_clust_9="74.34936"></scales>
<clustering>
<clus scale="   74.349">  2  9  1 -1</clus>
<clus scale="   81.697">  5  6 -1 -1</clus>
<clus scale="   88.008">  2  5  1 -1</clus>
<clus scale="   89.404">  7  8 -1 -1</clus>
<clus scale="   74.349">  2  5  1 -1</clus>
</clustering>
</event>
<event>
 9    1  0.6270443E-005  0.1295797E+03  0.7546771E-02  0.1247820E+00
          1   -1    0    0  502    0 -0.00000000000E+00  0.00000000000E+00  0.29959758443E+03  0.29959758443E+03  0.00000000000E+00 0. -1.
         21   -1    0    0  501  502  0.00000000000E+00 -0.00000000000E+00 -0.40177135333E+03  0.40177135333E+03  0.00000000000E+00 0. -1.
        -24    2    1    2    0    0  0.16672331567E+02  0.29894149978E+02  0.23336469391E+03  0.24893681800E+03  0.79616783109E+02 0.  0.
         23    2    1    2    0    0  0.76704987869E+02 -0.38250237410E+02 -0.24329339883E+02  0.12740863418E+03  0.91073088551E+02 0.  0.
         13    1    3    3    0    0  0.37545903819E+02  0.28940978695E+02  0.21775322388E+03  0.22285363280E+03  0.00000000000E+00 0. -1.
        -14    1    3    3    0    0 -0.20873572252E+02  0.95317128307E+00  0.15611470030E+02  0.26083185207E+02  0.00000000000E+00 0.  1.
        -13    1    4    4    0    0  0.58480596603E+02 -0.63347392726E+02 -0.37111033502E+02  0.93862139075E+02  0.00000000000E+00 0.  1.
         13    1    4    4    0    0  0.18224391266E+02  0.25097155316E+02  0.12781693619E+02  0.33546495104E+02  0.00000000000E+00 0. -1.
          2    1    1    2  501    0 -0.93377319436E+02  0.83560874316E+01 -0.31120912292E+03  0.32502348557E+03  0.00000000000E+00 0. -1.
<scales pt_clust_5="13000.00000" pt_clust_6="13000.00000" pt_clust_7="13000.00000" pt_clust_8="13000.00000" pt_clust_9="92.17693"></scales>
<clustering>
<clus scale="   79.617">  5  6 -1 -1</clus>
<clus scale="   86.663">  1  5  2 -1</clus>
<clus scale="   91.073">  7  8 -1 -1</clus>
<clus scale="   92.177">  2  9  1 -1</clus>
<clus scale="   92.177">  2  5  1 -1</clus>
</clustering>
</event>
<event>
 9    1  0.6270443E-005  0.1398379E+03  0.7546771E-02  0.1222408E+00
         21   -1    0    0  501  502  0.00000000000E+00  0.00000000000E+00  0.51292933808E+02  0.51292933808E+02  0.00000000000E+00 0. -1.
          1   -1    0    0  502    0 -0.00000000000E+00 -0.00000000000E+00 -0.57144921500E+03  0.57144921500E+03  0.00000000000E+00 0. -1.
         23    2    1    2    0    0  0.77500712881E+01 -0.11565056678E+03 -0.31492269528E+03  0.35373136065E+03  0.11186802182E+03 0.  0.
        -24    2    1    2    0    0  0.16888313833E+02  0.47354466505E+02 -0.78394767165E+02  0.12286191448E+03  0.80135197445E+02 0.  0.
         11    1    4    4    0    0 -0.24071470447E+02  0.24133838857E+02 -0.33247461021E+01  0.34248091978E+02  0.00000000000E+00 0. -1.
        -12    1    4    4    0    0  0.40959784280E+02  0.23220627648E+02 -0.75070021063E+02  0.88613822506E+02  0.00000000000E+00 0.  1.
        -11    1    3    3    0    0 -0.87274765495E+00 -0.13644307156E+03 -0.28763767616E+03  0.31835971198E+03  0.00000000000E+00 0. -1.
         11    1    3    3    0    0  0.86228189431E+01  0.20792504781E+02 -0.27285019116E+02  0.35371648671E+02  0.00000000000E+00 0.  1.
          2    1    1    2  501    0 -0.24638385121E+02  0.68296100272E+02 -0.12683881875E+03  0.14614887367E+03  0.00000000000E+00 0. -1.
<scales pt_clust_5="13000.00000" pt_clust_6="13000.00000" pt_clust_7="13000.00000" pt_clust_8="13000.00000" pt_clust_9="72.60449"></scales>
<clustering>
<clus scale="   72.604">  1  9  2 -1</clus>
<clus scale="   80.135">  5  6 -1 -1</clus>
<clus scale="  111.868">  7  8 -1 -1</clus>
<clus scale="  116.025">  1  5  2 -1</clus>
<clus scale="   72.604">  1  5  2 -1</clus>
</clustering>
</event>
<event>
 9    1  0.6270443E-005  0.1226031E+03  0.7546771E-02  0.1242341E+00
          3   -1    0    0  502    0 -0.00000000000E+00  0.00000000000E+00  0.14089002969E+03  0.14089002969E+03  0.00000000000E+00 0. -1.
         21   -1    0    0  501  502  0.00000000000E+00 -0.00000000000E+00 -0.17797741225E+03  0.17797741225E+03  0.00000000000E+00 0.  1.
         23    2    1    2    0    0  0.35112053990E+02 -0.51957887420E+02 -0.28149676134E+02  0.11465187661E+03  0.91761485070E+02 0.  0.
        -24    2    1    2    0    0  0.40181874799E+01  0.10841336984E+03 -0.11805165012E+02  0.13546514998E+03  0.80261076172E+02 0.  0.
         13    1    4    4    0    0  0.21342454724E+02  0.81946322932E+00  0.11150917479E+02  0.24093875866E+02  0.00000000000E+00 0. -1.
        -14    1    4    4    0    0 -0.17324267244E+02  0.10759390661E+03 -0.22956082491E+02  0.11137127411E+03  0.00000000000E+00 0.  1.
        -11    1    3    3    0    0 -0.31032896266E+02 -0.15188076557E+02 -0.20928275745E+01  0.34613555833E+02  0.00000000000E+00 0.  1.
         11    1    3    3    0    0  0.66144950256E+02 -0.36769810862E+02 -0.26056848559E+02  0.80038320773E+02  0.00000000000E+00 0. -1.
          4    1    1    2  501    0 -0.39130241470E+02 -0.56455482416E+02  0.28674585882E+01  0.68750415352E+02  0.00000000000E+00 0. -1.
<scales pt_clust_5="13000.00000" pt_clust_6="13000.00000" pt_clust_7="13000.00000" pt_clust_8="13000.00000" pt_clust_9="68.69063"></scales>
<clustering>
<clus scale="   68.691">  2  9  1 -1</clus>
<clus scale="   80.261">  5  6 -1 -1</clus>
<clus scale="   91.761">  7  8 -1 -1</clus>
<clus scale="  114.251">  2  5  1 -1</clus>
<clus scale="   68.691">  2  5  1 -1</clus>
</clustering>
</event>
<event>
 9    1  0.6270443E-005  0.1164840E+03  0.7546771E-02  0.1254199E+00
         -2   -1    0    0    0  501 -0.00000000000E+00  0.00000000000E+00  0.97832312297E+02  0.97832312297E+02  0.00000000000E+00 0.  1.
         21   -1    0    0  501  502  0.00000000000E+00 -0.00000000000E+00 -0.27451583253E+03  0.27451583253E+03  0.00000000000E+00 0.  1.
         23    2    1    2    0    0  0.32349385273E+02  0.53396131450E+02 -0.40951241463E+02  0.12078589676E+03  0.94945242631E+02 0.  0.
        -24    2    1    2    0    0  0.44362107517E+02 -0.88265061840E+02 -0.85538264621E+02  0.15348098335E+03  0.80504035981E+02 0.  0.
         13    1    4    4    0    0 -0.31475659134E+01 -0.31439996075E+02  0.94941700721E+01  0.32992723284E+02  0.00000000000E+00 0. -1.
        -14    1    4    4    0    0  0.47509673430E+02 -0.56825065765E+02 -0.95032434694E+02  0.12048826006E+03  0.00000000000E+00 0.  1.
        -13    1    3    3    0    0  0.54486717236E+02  0.82103792777E+01 -0.43798370209E+02  0.70388279678E+02  0.00000000000E+00 0. -1.
         13    1    3    3    0    0 -0.22137331963E+02  0.45185752172E+02  0.28471287456E+01  0.50397617085E+02  0.00000000000E+00 0.  1.
         -1    1    1    2    0  502 -0.76711492790E+02  0.34868930390E+02 -0.50194014151E+02  0.98081264721E+02  0.00000000000E+00 0.  1.
<scales pt_clust_5="13000.00000" pt_clust_6="13000.00000" pt_clust_7="13000.00000" pt_clust_8="13000.00000" pt_clust_9="84.26444"></scales>
<clustering>
<clus scale="   80.504">  5  6 -1 -1</clus>
<clus scale="   84.264">  2  9  1 -1</clus>
<clus scale="   94.945">  7  8 -1 -1</clus>
<clus scale="  105.047">  2  5  1 -1</clus>
<clus scale="   84.264">  2  5  1 -1</clus>
</clustering>
</event>
<event>
 9    1  0.6270443E-005  0.5004205E+03  0.7546771E-02  0.1037004E+00
          1   -1    0    0  502    0 -0.00000000000E+00  0.00000000000E+00  0.61051656906E+03  0.61051656906E+03  0.00000000000E+00 0. -1.
         21   -1    0    0  501  502  0.00000000000E+00 -0.00000000000E+00 -0.69295768391E+03  0.69295768391E+03  0.00000000000E+00 0.  1.
        -24    2    1    2    0    0  0.22083693537E+03  0.70377062330E+02 -0.11902217420E+03  0.27577114537E+03  0.90341373365E+02 0.  0.
         23    2    1    2    0    0  0.15196533459E+03 -0.45563161783E+03 -0.18255041210E+02  0.48880645430E+03  0.88909331085E+02 0.  0.
         11    1    3    3    0    0  0.43875378190E+02  0.20260393796E+02  0.12191899178E+02  0.49841496503E+02  0.00000000000E+00 0. -1.
        -12    1    3    3    0    0  0.17696155718E+03  0.50116668534E+02 -0.13121407338E+03  0.22592964886E+03  0.00000000000E+00 0.  1.
        -13    1    4    4    0    0  0.13040071505E+03 -0.42731425830E+03  0.40775656969E+01  0.44678680416E+03  0.00000000000E+00 0.  1.
         13    1    4    4    0    0  0.21564619539E+02 -0.28317359534E+02 -0.22332606907E+02  0.42019650142E+02  0.00000000000E+00 0. -1.
          2    1    1    2  501    0 -0.37280226996E+03  0.38525455550E+03  0.54836100559E+02  0.53889665331E+03  0.00000000000E+00 0. -1.
<scales pt_clust_5="13000.00000" pt_clust_6="13000.00000" pt_clust_7="13000.00000" pt_clust_8="13000.00000" pt_clust_9="492.45916"></scales>
<clustering>
<clus scale="   88.909">  7  8 -1 -1</clus>
<clus scale="   90.341">  5  6 -1 -1</clus>
<clus scale="  248.764">  1  5  2 -1</clus>
<clus scale="  492.459">  2  9  1 -1</clus>
<clus scale="  492.459">  2  5  1 -1</clus>
</clustering>
</event>
<event>
 9    1  0.6270443E-005  0.1049961E+03  0.7546771E-02  0.1274342E+00
         21   -1    0    0  501  502  0.00000000000E+00  0.00000000000E+00  0.35357061718E+02  0.35357061718E+02  0.00000000000E+00 0. -1.
          1   -1    0    0  502    0 -0.00000000000E+00 -0.00000000000E+00 -0.49749141405E+03  0.49749141405E+03  0.00000000000E+00 0. -1.
        -24    2    1    2    0    0 -0.19688116904E+02  0.51348287864E+02 -0.18826122468E+03  0.21216495942E+03  0.80916084140E+02 0.  0.
         23    2    1    2    0    0  0.37159558497E+02 -0.37305013243E+02 -0.98189844810E+02  0.14357597641E+03  0.90555610417E+02 0.  0.
         13    1    3    3    0    0 -0.36778722059E+02  0.29264817663E+02 -0.41281483347E+02  0.62556093360E+02  0.00000000000E+00 0. -1.
        -14    1    3    3    0    0  0.17090605154E+02  0.22083470201E+02 -0.14697974133E+03  0.14960886606E+03  0.00000000000E+00 0.  1.
        -11    1    4    4    0    0  0.38660978244E+01 -0.35869725119E+02 -0.10370235042E+03  0.10979873121E+03  0.00000000000E+00 0.  1.
         11    1    4    4    0    0  0.33293460673E+02 -0.14352881245E+01  0.55125056074E+01  0.33777245205E+02  0.00000000000E+00 0. -1.
          2    1    1    2  501    0 -0.17471441593E+02 -0.14043274621E+02 -0.17568328285E+03  0.17710753995E+03  0.00000000000E+00 0. -1.
<scales pt_clust_5="13000.00000" pt_clust_6="13000.00000" pt_clust_7="13000.00000" pt_clust_8="13000.00000" pt_clust_9="22.41574"></scales>
<clustering>
<clus scale="   22.416">  1  9  2 -1</clus>
<clus scale="   80.916">  5  6 -1 -1</clus>
<clus scale="   90.556">  7  8 -1 -1</clus>
<clus scale="   96.805">  2  5  1 -1</clus>
<clus scale="   22.416">  1  5  2 -1</clus>
</clustering>
</event>
<event>
 9    1  0.6270443E-005  0.9112861E+02  0.7546771E-02  0.1305258E+00
         21   -1    0    0  501  502  0.00000000000E+00  0.00000000000E+00  0.87869110969E+01  0.87869110969E+01  0.00000000000E+00 0.  1.
         -2   -1    0    0    0  501 -0.00000000000E+00 -0.00000000000E+00 -0.15041217940E+04  0.15041217940E+04  0.00000000000E+00 0.  1.
        -24    2    1    2    0    0 -0.13179270042E+02  0.47868292340E+01 -0.69818911890E+03  0.70296006524E+03  0.80549367940E+02 0.  0.
         23    2    1    2    0    0  0.28088545394E+02  0.34855567790E+02 -0.50201634538E+03  0.51179569275E+03  0.88941233969E+02 0.  0.
         13    1    3    3    0    0  0.28188657169E+02 -0.14247143300E+02 -0.17790047229E+03  0.18068248262E+03  0.00000000000E+00 0. -1.
        -14    1    3    3    0    0 -0.41367927211E+02  0.19033972534E+02 -0.52028864661E+03  0.52227758261E+03  0.00000000000E+00 0.  1.
        -13    1    4    4    0    0  0.43606795858E+02  0.57383745001E+02 -0.35132487402E+03  0.35864134444E+03  0.00000000000E+00 0.  1.
         13    1    4    4    0    0 -0.15518250464E+02 -0.22528177212E+02 -0.15069147136E+03  0.15315434831E+03  0.00000000000E+00 0. -1.
         -1    1    1    2    0  502 -0.14909275352E+02 -0.39642397024E+02 -0.29512941858E+03  0.29815294707E+03  0.00000000000E+00 0.  1.
<scales pt_clust_5="13000.00000" pt_clust_6="13000.00000" pt_clust_7="13000.00000" pt_clust_8="13000.00000" pt_clust_9="42.35337"></scales>
<clustering>
<clus scale="   42.353">  1  9  2 -1</clus>
<clus scale="   80.549">  5  6 -1 -1</clus>
<clus scale="   82.958">  2  5  1 -1</clus>
<clus scale="   88.941">  7  8 -1 -1</clus>
<clus scale="   42.353">  1  5  2 -1</clus>
</clustering>
</event>
<event>
 9    1  0.6270443E-005  0.1423454E+03  0.7546771E-02  0.1212354E+00
         21   -1    0    0  501  502  0.00000000000E+00  0.00000000000E+00  0.27070744291E+02  0.27070744291E+02  0.00000000000E+00 0. -1.
          1   -1    0    0  502    0 -0.00000000000E+00 -0.00000000000E+00 -0.16706588717E+04  0.16706588717E+04  0.00000000000E+00 0. -1.
         23    2    1    2    0    0 -0.13581847269E+03 -0.47910580140E+00 -0.91331943712E+03  0.92772294957E+03  0.89836461850E+02 0.  0.
        -24    2    1    2    0    0  0.50709696621E+02 -0.84152514881E+01 -0.11531227912E+03  0.14912503439E+03  0.79366645235E+02 0.  0.
         11    1    4    4    0    0  0.21836991432E+02  0.84328892889E+00  0.71279511994E+01  0.22986365944E+02  0.00000000000E+00 0. -1.
        -12    1    4    4    0    0  0.28872705190E+02 -0.92585404170E+01 -0.12244023032E+03  0.12613866845E+03  0.00000000000E+00 0.  1.
        -11    1    3    3    0    0 -0.12325257412E+03 -0.32434656917E+02 -0.75934142283E+03  0.76996272665E+03  0.00000000000E+00 0. -1.
         11    1    3    3    0    0 -0.12565898576E+02  0.31955551115E+02 -0.15397801428E+03  0.15776022292E+03  0.00000000000E+00 0.  1.
          2    1    1    2  501    0  0.85108776073E+02  0.88943572895E+01 -0.61495641115E+03  0.62088163201E+03  0.00000000000E+00 0. -1.
<scales pt_clust_5="13000.00000" pt_clust_6="13000.00000" pt_clust_7="13000.00000" pt_clust_8="13000.00000" pt_clust_9="85.57231"></scales>
<clustering>
<clus scale="   79.367">  5  6 -1 -1</clus>
<clus scale="   85.572">  1  9  2 -1</clus>
<clus scale="   89.836">  7  8 -1 -1</clus>
<clus scale="  135.980">  1  5  2 -1</clus>
<clus scale="   85.572">  1  5  2 -1</clus>
</clustering>
</event>
<event>
 9    1  0.6270443E-005  0.4053195E+03  0.7546771E-02  0.1041953E+00
          3   -1    0    0  502    0 -0.00000000000E+00  0.00000000000E+00  0.86845440273E+03  0.86845440273E+03  0.00000000000E+00 0. -1.
         21   -1    0    0  501  502  0.00000000000E+00 -0.00000000000E+00 -0.20016650731E+03  0.20016650731E+03  0.00000000000E+00 0. -1.
        -24    2    1    2    0    0  0.20381309095E+03  0.19761087038E+03  0.53881848090E+03  0.61437125329E+03  0.80850784571E+02 0.  0.
         23    2    1    2    0    0  0.13790493571E+02  0.30610098205E+02  0.93730689682E+02  0.13689593146E+03  0.93956894567E+02 0.  0.
         13    1    3    3    0    0  0.16958894488E+03  0.16387839496E+03  0.49915805086E+03  0.55206457801E+03  0.00000000000E+00 0. -1.
        -14    1    3    3    0    0  0.34224146073E+02  0.33732475418E+02  0.39660430047E+02  0.62306675275E+02  0.00000000000E+00 0.  1.
        -11    1    4    4    0    0 -0.33059090444E+01  0.52263251570E+02  0.95853219608E+02  0.10922552911E+03  0.00000000000E+00 0.  1.
         11    1    4    4    0    0  0.17096402615E+02 -0.21653153366E+02 -0.21225299257E+01  0.27670402352E+02  0.00000000000E+00 0. -1.
          4    1    1    2  501    0 -0.21760358453E+03 -0.22822096859E+03  0.35738724831E+02  0.31735372529E+03  0.00000000000E+00 0. -1.
<scales pt_clust_5="13000.00000" pt_clust_6="13000.00000" pt_clust_7="13000.00000" pt_clust_8="13000.00000" pt_clust_9="315.33495"></scales>
<clustering>
<clus scale="   80.851">  5  6 -1 -1</clus>
<clus scale="   93.957">  7  8 -1 -1</clus>
<clus scale="   95.513">  5  7 -1 -1</clus>
<clus scale="  315.335">  2  9  1 -1</clus>
<clus scale="  315.335">  2  5  1 -1</clus>
</clustering>
</event>
<event>
 9    1  0.6270443E-005  0.1350193E+03  0.7546771E-02  0.1222609E+00
         21   -1    0    0  501  502  0.00000000000E+00  0.00000000000E+00  0.40355784034E+02  0.40355784034E+02  0.00000000000E+00 0. -1.
          1   -1    0    0  502    0 -0.00000000000E+00 -0.00000000000E+00 -0.77208671791E+03  0.77208671791E+03  0.00000000000E+00 0. -1.
        -24    2    1    2    0    0 -0.93953905686E+02 -0.14414284008E+02 -0.36334950596E+03  0.38391245814E+03  0.79566349988E+02 0.  0.
         23    2    1    2    0    0  0.98711742202E+02  0.51656765372E+02 -0.36348616702E+03  0.39066709351E+03  0.89923049761E+02 0.  0.
         11    1    3    3    0    0 -0.98635810283E+02  0.49027596679E+01 -0.24938066479E+03  0.26822336977E+03  0.00000000000E+00 0. -1.
        -12    1    3    3    0    0  0.46819045974E+01 -0.19317043676E+02 -0.11396884118E+03  0.11568908836E+03  0.00000000000E+00 0.  1.
        -13    1    4    4    0    0  0.16492123075E+02 -0.24350824329E+02 -0.53074831715E+02  0.60678583788E+02  0.00000000000E+00 0.  1.
         13    1    4    4    0    0  0.82219619127E+02  0.76007589701E+02 -0.31041133530E+03  0.32998850972E+03  0.00000000000E+00 0. -1.
          2    1    1    2  501    0 -0.47578365164E+01 -0.37242481364E+02 -0.48952608962E+01  0.37862950304E+02  0.00000000000E+00 0. -1.
<scales pt_clust_5="13000.00000" pt_clust_6="13000.00000" pt_clust_7="13000.00000" pt_clust_8="13000.00000" pt_clust_9="37.54517"></scales>
<clustering>
<clus scale="   37.545">  1  9  2 -1</clus>
<clus scale="   79.566">  5  6 -1 -1</clus>
<clus scale="   89.923">  7  8 -1 -1</clus>
<clus scale="  128.354">  2  5  1 -1</clus>
<clus scale="   37.545">  1  5  2 -1</clus>
</clustering>
</event>
<event>
 9    1  0.6270443E-005  0.1785175E+03  0.7546771E-02  0.1197082E+00
          1   -1    0    0  502    0 -0.00000000000E+00  0.00000000000E+00  0.16064384850E+04  0.16064384850E+04  0.00000000000E+00 0. -1.
         21   -1    0    0  501  502  0.00000000000E+00 -0.00000000000E+00 -0.33429015824E+02  0.33429015824E+02  0.00000000000E+00 0. -1.
         23    2    1    2    0    0  0.29639379270E+02 -0.30335450793E+01  0.35867133992E+03  0.37124547364E+03  0.91051504215E+02 0.  0.
        -24    2    1    2    0    0  0.63441609170E+01  0.16006122951E+03  0.39478996120E+03  0.43339049725E+03  0.79425210539E+02 0.  0.
         13    1    4    4    0    0  0.11969123547E+02  0.10919555644E+03  0.16676582439E+03  0.19969419032E+03  0.00000000000E+00 0. -1.
        -14    1    4    4    0    0 -0.56249626302E+01  0.50865673070E+02  0.22802413681E+03  0.23369630693E+03  0.00000000000E+00 0.  1.
        -11    1    3    3    0    0  0.13386658545E+02  0.40096153661E+02  0.24440688486E+03  0.24803554087E+03  0.00000000000E+00 0.  1.
         11    1    3    3    0    0  0.16252720724E+02 -0.43129698741E+02  0.11426445506E+03  0.12320993277E+03  0.00000000000E+00 0. -1.
          2    1    1    2  501    0 -0.35983540187E+02 -0.15702768443E+03  0.81954816806E+03  0.83523152994E+03  0.00000000000E+00 0. -1.
<scales pt_clust_5="13000.00000" pt_clust_6="13000.00000" pt_clust_7="13000.00000" pt_clust_8="13000.00000" pt_clust_9="159.87545"></scales>
<clustering>
<clus scale="   79.425">  5  6 -1 -1</clus>
<clus scale="   91.052">  7  8 -1 -1</clus>
<clus scale="   95.802">  1  7  2 -1</clus>
<clus scale="  159.875">  2  9  1 -1</clus>
<clus scale="  159.875">  2  5  1 -1</clus>
</clustering>
</event>
<event>
 9    1  0.6270443E-005  0.1658881E+03  0.7546771E-02  0.1183670E+00
          1   -1    0    0  502    0 -0.00000000000E+00  0.00000000000E+00  0.89878810884E+03  0.89878810884E+03  0.00000000000E+00 0. -1.
         21   -1    0    0  501  502  0.00000000000E+00 -0.00000000000E+00 -0.57824715567E+02  0.57824715567E+02  0.00000000000E+00 0.  1.
        -24    2    1    2    0    0  0.70404797338E+02  0.99718695537E+02  0.22358582598E+03  0.26742236801E+03  0.81384566147E+02 0.  0.
         23    2    1    2    0    0 -0.63440336687E+02 -0.15328858067E+03  0.22960934851E+03  0.29767745814E+03  0.91484156427E+02 0.  0.
         13    1    3    3    0    0  0.74774436536E+01  0.31982399907E+02  0.13655080116E+03  0.14044538926E+03  0.00000000000E+00 0. -1.
        -14    1    3    3    0    0  0.62927353684E+02  0.67736295630E+02  0.87035024817E+02  0.12697697875E+03  0.00000000000E+00 0.  1.
        -13    1    4    4    0    0 -0.47072623639E+02 -0.21193696325E+02  0.96470159778E+02  0.10941433356E+03  0.00000000000E+00 0.  1.
         13    1    4    4    0    0 -0.16367713048E+02 -0.13209488435E+03  0.13313918874E+03  0.18826312459E+03  0.00000000000E+00 0. -1.
          2    1    1    2  501    0 -0.69644606515E+01  0.53569885135E+02  0.38776821878E+03  0.39151299825E+03  0.00000000000E+00 0. -1.
<scales pt_clust_5="13000.00000" pt_clust_6="13000.00000" pt_clust_7="13000.00000" pt_clust_8="13000.00000" pt_clust_9="54.02073"></scales>
<clustering>
<clus scale="   54.021">  2  9  1 -1</clus>
<clus scale="   81.385">  5  6 -1 -1</clus>
<clus scale="   91.484">  7  8 -1 -1</clus>
<clus scale="  160.540">  1  5  2 -1</clus>
<clus scale="   54.021">  2  5  1 -1</clus>
</clustering>
</event>
<event>
 9    1  0.6270443E-005  0.9790648E+02  0.7546771E-02  0.1291044E+00
         21   -1    0    0  501  502  0.00000000000E+00  0.00000000000E+00  0.10837977753E+03  0.10837977753E+03  0.00000000000E+00 0. -1.
          3   -1    0    0  502    0 -0.00000000000E+00 -0.00000000000E+00 -0.32491205188E+03  0.32491205188E+03  0.00000000000E+00 0. -1.
         23    2    1    2    0    0  0.67714940464E+01  0.32543476160E+02 -0.27148054021E+03  0.28884218975E+03  0.92861164607E+02 0.  0.
        -24    2    1    2    0    0  0.14428574682E+02 -0.22446564284E+02  0.93875077571E+00  0.85556361074E+02  0.81283317180E+02 0.  0.
         11    1    4    4    0    0  0.19795832596E+02 -0.43167067141E+02  0.24738949499E+02  0.53547047501E+02  0.00000000000E+00 0. -1.
        -12    1    4    4    0    0 -0.53672579142E+01  0.20720502857E+02 -0.23800198723E+02  0.32009313573E+02  0.00000000000E+00 0.  1.
        -13    1    3    3    0    0 -0.21795596865E+02  0.46924326285E+02 -0.84018142163E+02  0.98671113567E+02  0.00000000000E+00 0.  1.
         13    1    3    3    0    0  0.28567090911E+02 -0.14380850125E+02 -0.18746239805E+03  0.19017107618E+03  0.00000000000E+00 0. -1.
          4    1    1    2  501    0 -0.21200068729E+02 -0.10096911876E+02  0.54009515080E+02  0.58893278587E+02  0.00000000000E+00 0. -1.
<scales pt_clust_5="13000.00000" pt_clust_6="13000.00000" pt_clust_7="13000.00000" pt_clust_8="13000.00000" pt_clust_9="23.48171"></scales>
<clustering>
<clus scale="   23.482">  1  9  2 -1</clus>
<clus scale="   81.283">  5  6 -1 -1</clus>
<clus scale="   87.003">  1  5  2 -1</clus>
<clus scale="   92.861">  7  8 -1 -1</clus>
<clus scale="   23.482">  1  5  2 -1</clus>
</clustering>
</event>
<event>
 9    1  0.6270443E-005  0.1114654E+03  0.7546771E-02  0.1262069E+00
         21   -1    0    0  501  502  0.00000000000E+00  0.00000000000E+00  0.15965932926E+03  0.15965932926E+03  0.00000000000E+00 0. -1.
          1   -1    0    0  502    0 -0.00000000000E+00 -0.00000000000E+00 -0.32592921411E+03  0.32592921411E+03  0.00000000000E+00 0. -1.
         23    2    1    2    0    0  0.50881886099E+02  0.33232015847E+02 -0.23985324764E+03  0.26372638157E+03  0.91261660749E+02 0.  0.
        -24    2    1    2    0    0 -0.47872238108E+02 -0.63462987642E+02 -0.27538615409E+02  0.11627511660E+03  0.80263475003E+02 0.  0.
         13    1    4    4    0    0 -0.70195081327E+02 -0.53440750035E+02 -0.24865956459E+02  0.91660127632E+02  0.00000000000E+00 0. -1.
        -14    1    4    4    0    0  0.22322843219E+02 -0.10022237607E+02 -0.26726589505E+01  0.24614988968E+02  0.00000000000E+00 0.  1.
        -13    1    3    3    0    0  0.63170488024E+02  0.10597307135E+02 -0.22511897741E+03  0.23405419771E+03  0.00000000000E+00 0.  1.
         13    1    3    3    0    0 -0.12288601925E+02  0.22634708713E+02 -0.14734270229E+02  0.29672183859E+02  0.00000000000E+00 0. -1.
          2    1    1    2  501    0 -0.30096479902E+01  0.30230971795E+02  0.10112197820E+03  0.10558704519E+03  0.00000000000E+00 0. -1.
<scales pt_clust_5="13000.00000" pt_clust_6="13000.00000" pt_clust_7="13000.00000" pt_clust_8="13000.00000" pt_clust_9="30.38042"></scales>
<clustering>
<clus scale="   30.380">  1  9  2 -1</clus>
<clus scale="   80.263">  5  6 -1 -1</clus>
<clus scale="   91.262">  7  8 -1 -1</clus>
<clus scale="  102.655">  1  5  2 -1</clus>
<clus scale="   30.380">  1  5  2 -1</clus>
</clustering>
</event>
<event>
 9    1  0.6270443E-005  0.1023738E+03  0.7546771E-02  0.1279571E+00
          3   -1    0    0  502    0 -0.00000000000E+00  0.00000000000E+00  0.39467756844E+03  0.39467756844E+03  0.00000000000E+00 0. -1.
         21   -1    0    0  501  502  0.00000000000E+00 -0.00000000000E+00 -0.11305095503E+03  0.11305095503E+03  0.00000000000E+00 0. -1.
         23    2    1    2    0    0 -0.51624135282E+02  0.19362607148E+02  0.30334084959E+03  0.32173298613E+03  0.91959129160E+02 0.  0.
        -24    2    1    2    0    0  0.16939617252E+02 -0.95911767845E+01  0.54793506488E+02  0.10142644529E+03  0.83102672316E+02 0.  0.
         13    1    4    4    0    0 -0.44995803126E+01  0.29914638849E+02 -0.38997614513E+00  0.30253659644E+02  0.00000000000E+00 0. -1.
        -14    1    4    4    0    0  0.21439197565E+02 -0.39505815633E+02  0.55183482633E+02  0.71172785646E+02  0.00000000000E+00 0.  1.
        -11    1    3    3    0    0  0.17881312443E+02 -0.12102088828E+02  0.24565363002E+02  0.32705640922E+02  0.00000000000E+00 0.  1.
         11    1    3    3    0    0 -0.69505447725E+02  0.31464695975E+02  0.27877548659E+03  0.28902734521E+03  0.00000000000E+00 0. -1.
          4    1    1    2  501    0  0.34684518030E+02 -0.97714303631E+01 -0.76507742661E+02  0.84569092046E+02  0.00000000000E+00 0. -1.
<scales pt_clust_5="13000.00000" pt_clust_6="13000.00000" pt_clust_7="13000.00000" pt_clust_8="13000.00000" pt_clust_9="36.03466"></scales>
<clustering>
<clus scale="   36.035">  2  9  1 -1</clus>
<clus scale="   83.103">  5  6 -1 -1</clus>
<clus scale="   91.959">  7  8 -1 -1</clus>
<clus scale="   94.498">  2  5  1 -1</clus>
<clus scale="   36.035">  2  5  1 -1</clus>
</clustering>
</event>
<event>
 9    1  0.6270443E-005  0.9444548E+02  0.7546771E-02  0.1300649E+00
          1   -1    0    0  502    0 -0.00000000000E+00  0.00000000000E+00  0.23171031632E+03  0.23171031632E+03  0.00000000000E+00 0. -1.
         21   -1    0    0  501  502  0.00000000000E+00 -0.00000000000E+00 -0.18781384908E+03  0.18781384908E+03  0.00000000000E+00 0.  1.
        -24    2    1    2    0    0 -0.98228452088E+01  0.36663318194E+01  0.18567239328E+03  0.20260659566E+03  0.80406869754E+02 0.  0.
         23    2    1    2    0    0 -0.13564213753E+02 -0.42971402125E+02 -0.52477097210E+02  0.11658749494E+03  0.93852378503E+02 0.  0.
         11    1    3    3    0    0  0.17813449027E+02  0.21585981112E+02  0.15530442696E+03  0.15780601566E+03  0.00000000000E+00 0. -1.
        -12    1    3    3    0    0 -0.27636294235E+02 -0.17919649293E+02  0.30367966317E+02  0.44800579997E+02  0.00000000000E+00 0.  1.
        -11    1    4    4    0    0 -0.12086747515E+02 -0.69955526954E+02 -0.54482581711E+02  0.89488641328E+02  0.00000000000E+00 0.  1.
         11    1    4    4    0    0 -0.14774662380E+01  0.26984124829E+02  0.20054845012E+01  0.27098853617E+02  0.00000000000E+00 0. -1.
          2    1    1    2  501    0  0.23387058962E+02  0.39305070306E+02 -0.89298828828E+02  0.10033007480E+03  0.00000000000E+00 0. -1.
<scales pt_clust_5="13000.00000" pt_clust_6="13000.00000" pt_clust_7="13000.00000" pt_clust_8="13000.00000" pt_clust_9="45.73667"></scales>
<clustering>
<clus scale="   45.737">  2  9  1 -1</clus>
<clus scale="   80.407">  5  6 -1 -1</clus>
<clus scale="   81.098">  1  5  2 -1</clus>
<clus scale="   93.852">  7  8 -1 -1</clus>
<clus scale="   45.737">  2  5  1 -1</clus>
</clustering>
</event>
<event>
 9    1  0.6270443E-005  0.9434940E+02  0.7546771E-02  0.1301231E+00
         21   -1    0    0  501  502  0.00000000000E+00  0.00000000000E+00  0.18169923613E+03  0.18169923613E+03  0.00000000000E+00 0. -1.
          1   -1    0    0  502    0 -0.00000000000E+00 -0.00000000000E+00 -0.25960975648E+03  0.25960975648E+03  0.00000000000E+00 0. -1.
         23    2    1    2    0    0 -0.26944206514E+01 -0.18492321918E+02 -0.18792689611E+03  0.21090848170E+03  0.93896983429E+02 0.  0.
        -24    2    1    2    0    0 -0.39197406003E+01 -0.13688450315E+02 -0.30007865047E+02  0.86573749696E+02  0.79948759424E+02 0.  0.
         13    1    4    4    0    0 -0.12832231868E+02 -0.43665030150E+02 -0.36205801403E+01  0.45655335212E+02  0.00000000000E+00 0. -1.
        -14    1    4    4    0    0  0.89124912681E+01  0.29976579835E+02 -0.26387284907E+02  0.40918414485E+02  0.00000000000E+00 0.  1.
        -11    1    3    3    0    0  0.11798877116E+02  0.25859173390E+02 -0.15696913217E+02  0.32470039023E+02  0.00000000000E+00 0.  1.
         11    1    3    3    0    0 -0.14493297767E+02 -0.44351495308E+02 -0.17222998289E+03  0.17843844267E+03  0.00000000000E+00 0. -1.
          2    1    1    2  501    0  0.66141612517E+01  0.32180772233E+02  0.14002424080E+03  0.14382676122E+03  0.00000000000E+00 0. -1.
<scales pt_clust_5="13000.00000" pt_clust_6="13000.00000" pt_clust_7="13000.00000" pt_clust_8="13000.00000" pt_clust_9="32.85345"></scales>
<clustering>
<clus scale="   32.853">  1  9  2 -1</clus>
<clus scale="   79.949">  5  6 -1 -1</clus>
<clus scale="   80.480">  1  5  2 -1</clus>
<clus scale="   93.897">  7  8 -1 -1</clus>
<clus scale="   32.853">  1  5  2 -1</clus>
</clustering>
</event>
<event>
 9    1  0.6270443E-005  0.1096214E+03  0.7546771E-02  0.1263956E+00
         -2   -1    0    0    0  501 -0.00000000000E+00  0.00000000000E+00  0.75900285488E+02  0.75900285488E+02  0.00000000000E+00 0.  1.
         21   -1    0    0  501  502  0.00000000000E+00 -0.00000000000E+00 -0.55063103949E+03  0.55063103949E+03  0.00000000000E+00 0. -1.
        -24    2    1    2    0    0  0.32268540437E+02 -0.65295261390E+02 -0.19284230326E+02  0.11143367936E+03  0.82102700894E+02 0.  0.
         23    2    1    2    0    0 -0.69775401304E+02 -0.26619925103E+02 -0.35632499183E+03  0.37481135194E+03  0.89100071259E+02 0.  0.
         13    1    3    3    0    0 -0.31034419078E+01 -0.73310952835E+02 -0.15213011361E+02  0.74937059402E+02  0.00000000000E+00 0. -1.
        -14    1    3    3    0    0  0.35371982345E+02  0.80156914450E+01 -0.40712189652E+01  0.36496619956E+02  0.00000000000E+00 0.  1.
        -13    1    4    4    0    0 -0.28522599829E+02 -0.53099857931E+02 -0.13079608839E+03  0.14401649333E+03  0.00000000000E+00 0.  1.
         13    1    4    4    0    0 -0.41252801476E+02  0.26479932827E+02 -0.22552890344E+03  0.23079485860E+03  0.00000000000E+00 0. -1.
         -1    1    1    2    0  502  0.37506860867E+02  0.91915186493E+02 -0.99121531847E+02  0.14028629368E+03  0.00000000000E+00 0.  1.
<scales pt_clust_5="13000.00000" pt_clust_6="13000.00000" pt_clust_7="13000.00000" pt_clust_8="13000.00000" pt_clust_9="99.27324"></scales>
<clustering>
<clus scale="   82.103">  5  6 -1 -1</clus>
<clus scale="   89.100">  7  8 -1 -1</clus>
<clus scale="   99.273">  2  9  1 -1</clus>
<clus scale="  104.014">  1  5  2 -1</clus>
<clus scale="   99.273">  2  5  1 -1</clus>
</clustering>
</event>
<event>
 9    1  0.6270443E-005  0.5159070E+03  0.7546771E-02  0.1009708E+00
          1   -1    0    0  502    0 -0.00000000000E+00  0.00000000000E+00  0.18021968135E+03  0.18021968135E+03  0.00000000000E+00 0. -1.
         21   -1    0    0  501  502  0.00000000000E+00 -0.00000000000E+00 -0.16040741494E+04  0.16040741494E+04  0.00000000000E+00 0. -1.
        -24    2    1    2    0    0 -0.13291670959E+03 -0.74383733302E+02 -0.52855195930E+02  0.17677508786E+03  0.72498058490E+02 0.  0.
         23    2    1    2    0    0 -0.20216080090E+03 -0.24455455329E+03 -0.32166403633E+03  0.46073933699E+03  0.90205684022E+02 0.  0.
         11    1    3    3    0    0 -0.12820780399E+03 -0.82189837950E+02 -0.61473574049E+02  0.16422974996E+03  0.00000000000E+00 0. -1.
        -12    1    3    3    0    0 -0.47089056027E+01  0.78061046482E+01  0.86183781194E+01  0.12545337905E+02  0.00000000000E+00 0.  1.
        -13    1    4    4    0    0 -0.79492933754E+02 -0.13121320341E+03 -0.99721337882E+02  0.18297643699E+03  0.00000000000E+00 0.  1.
         13    1    4    4    0    0 -0.12266786715E+03 -0.11334134989E+03 -0.22194269844E+03  0.27776290000E+03  0.00000000000E+00 0. -1.
          2    1    1    2  501    0  0.33507751049E+03  0.31893828660E+03 -0.10493352358E+04  0.11467794059E+04  0.00000000000E+00 0. -1.
<scales pt_clust_5="13000.00000" pt_clust_6="13000.00000" pt_clust_7="13000.00000" pt_clust_8="13000.00000" pt_clust_9="462.59979"></scales>
<clustering>
<clus scale="   72.498">  5  6 -1 -1</clus>
<clus scale="   90.206">  7  8 -1 -1</clus>
<clus scale="  142.598">  5  7 -1 -1</clus>
<clus scale="  462.600">  2  9  1 -1</clus>
<clus scale="  462.600">  2  5  1 -1</clus>
</clustering>
</event>
<event>
 9    1  0.6270443E-005  0.1136408E+03  0.7546771E-02  0.1260615E+00
         21   -1    0    0  501  502  0.00000000000E+00  0.00000000000E+00  0.32481029289E+02  0.32481029289E+02  0.00000000000E+00 0.  1.
          1   -1    0    0  502    0 -0.00000000000E+00 -0.00000000000E+00 -0.66354001958E+03  0.66354001958E+03  0.00000000000E+00 0. -1.
         23    2    1    2    0    0  0.65871705857E+02  0.10726130669E+02 -0.45030971968E+03  0.46537189740E+03  0.96633471074E+02 0.  0.
        -24    2    1    2    0    0 -0.37210427223E+02 -0.10062626955E+02 -0.61067216319E+02  0.10758127082E+03  0.79741159804E+02 0.  0.
         13    1    4    4    0    0 -0.34701330527E+02 -0.15882375140E+01 -0.79709528698E+02  0.86950065003E+02  0.00000000000E+00 0. -1.
        -14    1    4    4    0    0 -0.25090966961E+01 -0.84743894412E+01  0.18642312379E+02  0.20631205817E+02  0.00000000000E+00 0.  1.
        -13    1    3    3    0    0  0.70297051294E+02  0.43776070627E+02 -0.28786300696E+03  0.29953819549E+03  0.00000000000E+00 0.  1.
         13    1    3    3    0    0 -0.44253454370E+01 -0.33049939958E+02 -0.16244671272E+03  0.16583370191E+03  0.00000000000E+00 0. -1.
          2    1    1    2  501    0 -0.28661278634E+02 -0.66350371373E+00 -0.11968205428E+03  0.12306788065E+03  0.00000000000E+00 0. -1.
<scales pt_clust_5="13000.00000" pt_clust_6="13000.00000" pt_clust_7="13000.00000" pt_clust_8="13000.00000" pt_clust_9="28.66897"></scales>
<clustering>
<clus scale="   28.669">  1  9  2 -1</clus>
<clus scale="   79.741">  5  6 -1 -1</clus>
<clus scale="   96.633">  7  8 -1 -1</clus>
<clus scale="   99.674">  1  5  2 -1</clus>
<clus scale="   28.669">  1  5  2 -1</clus>
</clustering>
</event>
<event>
 9    1  0.6270443E-005  0.1442583E+03  0.7546771E-02  0.1209317E+00
          1   -1    0    0  502    0 -0.00000000000E+00  0.00000000000E+00  0.33375241200E+03  0.33375241200E+03  0.00000000000E+00 0. -1.
         21   -1    0    0  501  502  0.00000000000E+00 -0.00000000000E+00 -0.35046271550E+03  0.35046271550E+03  0.00000000000E+00 0. -1.
         23    2    1    2    0    0 -0.62349326862E+02 -0.78643070276E+02  0.14404407988E+03  0.19648207604E+03  0.88228896583E+02 0.  0.
        -24    2    1    2    0    0  0.15364229663E+03  0.40697411749E+02  0.10331614876E+03  0.20576226348E+03  0.80010298333E+02 0.  0.
         13    1    4    4    0    0  0.14920825070E+03  0.13499712229E+02  0.93010868693E+02  0.17634161733E+03  0.00000000000E+00 0. -1.
        -14    1    4    4    0    0  0.44340459323E+01  0.27197699521E+02  0.10305280066E+02  0.29420646148E+02  0.00000000000E+00 0.  1.
        -13    1    3    3    0    0 -0.77552494262E+02 -0.50970341870E+02  0.70812292506E+02  0.11673365362E+03  0.00000000000E+00 0. -1.
         13    1    3    3    0    0  0.15203167400E+02 -0.27672728405E+02  0.73231787377E+02  0.79748422422E+02  0.00000000000E+00 0.  1.
          2    1    1    2  501    0 -0.91292969768E+02  0.37945658527E+02 -0.26407053214E+03  0.28197078798E+03  0.00000000000E+00 0. -1.
<scales pt_clust_5="13000.00000" pt_clust_6="13000.00000" pt_clust_7="13000.00000" pt_clust_8="13000.00000" pt_clust_9="98.86496"></scales>
<clustering>
<clus scale="   80.010">  5  6 -1 -1</clus>
<clus scale="   88.229">  7  8 -1 -1</clus>
<clus scale="   98.865">  2  9  1 -1</clus>
<clus scale="  139.384">  2  5  1 -1</clus>
<clus scale="   98.865">  2  5  1 -1</clus>
</clustering>
</event>
<event>
 9    1  0.6270443E-005  0.9139192E+02  0.7546771E-02  0.1313704E+00
          1   -1    0    0  502    0 -0.00000000000E+00  0.00000000000E+00  0.12603005932E+03  0.12603005932E+03  0.00000000000E+00 0. -1.
         21   -1    0    0  501  502  0.00000000000E+00 -0.00000000000E+00 -0.10848257845E+03  0.10848257845E+03  0.00000000000E+00 0.  1.
         23    2    1    2    0    0 -0.17523189989E+01 -0.21064370992E+02  0.65545921846E+02  0.11407338223E+03  0.90937837642E+02 0.  0.
        -24    2    1    2    0    0 -0.57121641606E+00 -0.11971230072E+02 -0.12821717325E+02  0.72126196840E+02  0.69958238956E+02 0.  0.
         13    1    4    4    0    0 -0.27925557118E+02  0.12571247427E+02  0.54149467940E+01  0.31099753231E+02  0.00000000000E+00 0. -1.
        -14    1    4    4    0    0  0.27354340702E+02 -0.24542477499E+02 -0.18236664119E+02  0.41026443610E+02  0.00000000000E+00 0.  1.
        -13    1    3    3    0    0  0.28220425483E+02 -0.26638842254E+02 -0.31312037660E+01  0.38933594338E+02  0.00000000000E+00 0. -1.
         13    1    3    3    0    0 -0.29972744482E+02  0.55744712618E+01  0.68677125612E+02  0.75139787889E+02  0.00000000000E+00 0.  1.
          2    1    1    2  501    0  0.23235354150E+01  0.33035601065E+02 -0.35176723648E+02  0.48313058702E+02  0.00000000000E+00 0. -1.
<scales pt_clust_5="13000.00000" pt_clust_6="13000.00000" pt_clust_7="13000.00000" pt_clust_8="13000.00000" pt_clust_9="33.11721"></scales>
<clustering>
<clus scale="   33.117">  2  9  1 -1</clus>
<clus scale="   69.958">  5  6 -1 -1</clus>
<clus scale="   70.547">  2  5  1 -1</clus>
<clus scale="   90.938">  7  8 -1 -1</clus>
<clus scale="   33.117">  2  5  1 -1</clus>
</clustering>
</event>
<event>
 9    1  0.6270443E-005  0.3883003E+03  0.7546771E-02  0.1096373E+00
          1   -1    0    0  502    0 -0.00000000000E+00  0.00000000000E+00  0.19783474973E+03  0.19783474973E+03  0.00000000000E+00 0. -1.
         21   -1    0    0  501  502  0.00000000000E+00 -0.00000000000E+00 -0.13313277422E+04  0.13313277422E+04  0.00000000000E+00 0. -1.
         23    2    1    2    0    0 -0.44776494058E+02  0.20838555291E+02 -0.39965826958E+03  0.41274859868E+03  0.90528964737E+02 0.  0.
        -24    2    1    2    0    0 -0.29499693731E+03 -0.22791093432E+03 -0.57064821528E+03  0.68635018742E+03  0.80440084317E+02 0.  0.
         13    1    4    4    0    0 -0.24318646918E+03 -0.21931404725E+03 -0.51044202983E+03  0.60645640893E+03  0.00000000000E+00 0. -1.
        -14    1    4    4    0    0 -0.51810468134E+02 -0.85968870680E+01 -0.60206185454E+02  0.79893778496E+02  0.00000000000E+00 0.  1.
        -13    1    3    3    0    0 -0.62901789157E+02  0.38955541337E+02 -0.33749899553E+03  0.34551373527E+03  0.00000000000E+00 0. -1.
         13    1    3    3    0    0  0.18125295098E+02 -0.18116986046E+02 -0.62159274053E+02  0.67234863402E+02  0.00000000000E+00 0.  1.
          2    1    1    2  501    0  0.33977343137E+03  0.20707237903E+03 -0.16318650763E+03  0.43006370585E+03  0.00000000000E+00 0. -1.
<scales pt_clust_5="13000.00000" pt_clust_6="13000.00000" pt_clust_7="13000.00000" pt_clust_8="13000.00000" pt_clust_9="379.87712"></scales>
<clustering>
<clus scale="   80.440">  5  6 -1 -1</clus>
<clus scale="   90.529">  7  8 -1 -1</clus>
<clus scale="  103.125">  1  7  2 -1</clus>
<clus scale="  379.877">  2  9  1 -1</clus>
<clus scale="  379.877">  2  5  1 -1</clus>
</clustering>
</event>
<event>
 9    1  0.6270443E-005  0.2870266E+03  0.7546771E-02  0.1092444E+00
         21   -1    0    0  501  502  0.00000000000E+00  0.00000000000E+00  0.28460415631E+03  0.28460415631E+03  0.00000000000E+00 0.  1.
          1   -1    0    0  502    0 -0.00000000000E+00 -0.00000000000E+00 -0.74994133532E+03  0.74994133532E+03  0.00000000000E+00 0. -1.
         23    2    1    2    0    0  0.16693338014E+03 -0.20500789097E+03 -0.42815220726E+03  0.51182300766E+03  0.93560086690E+02 0.  0.
        -24    2    1    2    0    0 -0.22825625576E+03  0.17858144864E+03 -0.19012966643E+03  0.35583650026E+03  0.80486475654E+02 0.  0.
         13    1    4    4    0    0 -0.69110965972E+02  0.10306051799E+03 -0.68143964534E+02  0.14156763715E+03  0.00000000000E+00 0. -1.
        -14    1    4    4    0    0 -0.15914528979E+03  0.75520930651E+02 -0.12198570190E+03  0.21426886311E+03  0.00000000000E+00 0.  1.
        -13    1    3    3    0    0  0.10988997169E+03 -0.63925587191E+02 -0.21793548282E+03  0.25230569008E+03  0.00000000000E+00 0.  1.
         13    1    3    3    0    0  0.57043408452E+02 -0.14108230378E+03 -0.21021672444E+03  0.25951731758E+03  0.00000000000E+00 0. -1.
          2    1    1    2  501    0  0.61322875617E+02  0.26426442334E+02  0.15294469468E+03  0.16688598371E+03  0.00000000000E+00 0. -1.
<scales pt_clust_5="13000.00000" pt_clust_6="13000.00000" pt_clust_7="13000.00000" pt_clust_8="13000.00000" pt_clust_9="66.77464"></scales>
<clustering>
<clus scale="   66.775">  1  9  2 -1</clus>
<clus scale="   80.486">  5  6 -1 -1</clus>
<clus scale="   93.560">  7  8 -1 -1</clus>
<clus scale="  283.035">  1  5  2 -1</clus>
<clus scale="   66.775">  1  5  2 -1</clus>
</clustering>
</event>
<event>
 9    1  0.6270443E-005  0.1946227E+03  0.7546771E-02  0.1174612E+00
         21   -1    0    0  501  502  0.00000000000E+00  0.00000000000E+00  0.54721552061E+02  0.54721552061E+02  0.00000000000E+00 0. -1.
          1   -1    0    0  502    0 -0.00000000000E+00 -0.00000000000E+00 -0.18732856587E+04  0.18732856587E+04  0.00000000000E+00 0. -1.
        -24    2    1    2    0    0  0.29340096565E+02  0.89243945406E+02 -0.21450881672E+03  0.24672735754E+03  0.77685477737E+02 0.  0.
         23    2    1    2    0    0 -0.13252899825E+03 -0.21043673468E+03 -0.13874013956E+04  0.14124405862E+04  0.90874760808E+02 0.  0.
         13    1    3    3    0    0  0.11487565267E+02  0.10011901602E+03 -0.17176401516E+03  0.19914481773E+03  0.00000000000E+00 0. -1.
        -14    1    3    3    0    0  0.17852531298E+02 -0.10875070615E+02 -0.42744801562E+02  0.47582539814E+02  0.00000000000E+00 0.  1.
        -11    1    4    4    0    0 -0.82667774585E+02 -0.51695846162E+02 -0.56957938887E+03  0.57786425888E+03  0.00000000000E+00 0.  1.
         11    1    4    4    0    0 -0.49861223666E+02 -0.15874088852E+03 -0.81782200676E+03  0.83457632728E+03  0.00000000000E+00 0. -1.
          2    1    1    2  501    0  0.10318890169E+03  0.12119278928E+03 -0.21665389430E+03  0.26883926707E+03  0.00000000000E+00 0. -1.
<scales pt_clust_5="13000.00000" pt_clust_6="13000.00000" pt_clust_7="13000.00000" pt_clust_8="13000.00000" pt_clust_9="172.10397"></scales>
<clustering>
<clus scale="   77.685">  5  6 -1 -1</clus>
<clus scale="   90.875">  7  8 -1 -1</clus>
<clus scale="  121.903">  2  5  1 -1</clus>
<clus scale="  172.104">  1  9  2 -1</clus>
<clus scale="  172.104">  1  5  2 -1</clus>
</clustering>
</event>
<event>
 9    1  0.8459308E-005  0.1723118E+03  0.7546771E-02  0.1177407E+00
         -4   -1    0    0    0  501 -0.00000000000E+00  0.00000000000E+00  0.58969028674E+03  0.58969028674E+03  0.00000000000E+00 0.  1.
         21   -1    0    0  501  502  0.00000000000E+00 -0.00000000000E+00 -0.21574361342E+03  0.21574361342E+03  0.00000000000E+00 0.  1.
         23    2    1    2    0    0 -0.14095506866E+03  0.40382591277E+02  0.51933846876E+03  0.54779921608E+03  0.94193688465E+02 0.  0.
        -24    2    1    2    0    0  0.11667361226E+03 -0.51285195277E+01 -0.15891371673E+03  0.21274280224E+03  0.79792838211E+02 0.  0.
         13    1    4    4    0    0  0.55902054633E+02 -0.32049758991E+02 -0.38118626008E+02  0.74868260380E+02  0.00000000000E+00 0. -1.
        -14    1    4    4    0    0  0.60771557626E+02  0.26921239464E+02 -0.12079509072E+03  0.13787454186E+03  0.00000000000E+00 0.  1.
        -13    1    3    3    0    0 -0.62373736941E+02  0.54925579080E+01  0.37180602136E+03  0.37704160085E+03  0.00000000000E+00 0.  1.
         13    1    3    3    0    0 -0.78581331723E+02  0.34890033369E+02  0.14753244740E+03  0.17075761523E+03  0.00000000000E+00 0. -1.
         -3    1    1    2    0  502  0.24281456405E+02 -0.35254071749E+02  0.13521921281E+02  0.44891881840E+02  0.00000000000E+00 0.  1.
<scales pt_clust_5="13000.00000" pt_clust_6="13000.00000" pt_clust_7="13000.00000" pt_clust_8="13000.00000" pt_clust_9="42.80699"></scales>
<clustering>
<clus scale="   42.807">  2  9  1 -1</clus>
<clus scale="   79.793">  5  6 -1 -1</clus>
<clus scale="   94.194">  7  8 -1 -1</clus>
<clus scale="  164.881">  2  5  1 -1</clus>
<clus scale="   42.807">  2  5  1 -1</clus>
</clustering>
</event>
<event>
 9    1  0.6270443E-005  0.1332561E+03  0.7546771E-02  0.1243998E+00
          1   -1    0    0  502    0 -0.00000000000E+00  0.00000000000E+00  0.49856828442E+03  0.49856828442E+03  0.00000000000E+00 0. -1.
         21   -1    0    0  501  502  0.00000000000E+00 -0.00000000000E+00 -0.12638843321E+03  0.12638843321E+03  0.00000000000E+00 0.  1.
        -24    2    1    2    0    0  0.21351916522E+02 -0.23688773756E+02 -0.63844855905E+02  0.10714989467E+03  0.79924163818E+02 0.  0.
         23    2    1    2    0    0 -0.51651940957E+02 -0.71132398184E+02  0.38618961078E+03  0.40648439504E+03  0.91429791971E+02 0.  0.
         13    1    3    3    0    0  0.41399980314E+02 -0.25665635289E+02 -0.10090123140E+02  0.49744283991E+02  0.00000000000E+00 0. -1.
        -14    1    3    3    0    0 -0.20048063792E+02  0.19768615330E+01 -0.53754732765E+02  0.57405610683E+02  0.00000000000E+00 0.  1.
        -13    1    4    4    0    0  0.18219140117E+02 -0.36936559706E+02  0.20825543578E+03  0.21228889053E+03  0.00000000000E+00 0.  1.
         13    1    4    4    0    0 -0.69871081074E+02 -0.34195838478E+02  0.17793417501E+03  0.19419550452E+03  0.00000000000E+00 0. -1.
          2    1    1    2  501    0  0.30300024435E+02  0.94821171941E+02  0.49835096336E+02  0.11132242791E+03  0.00000000000E+00 0. -1.
<scales pt_clust_5="13000.00000" pt_clust_6="13000.00000" pt_clust_7="13000.00000" pt_clust_8="13000.00000" pt_clust_9="96.94211"></scales>
<clustering>
<clus scale="   79.924">  5  6 -1 -1</clus>
<clus scale="   86.052">  1  5  2 -1</clus>
<clus scale="   91.430">  7  8 -1 -1</clus>
<clus scale="   96.942">  2  9  1 -1</clus>
<clus scale="   96.942">  2  5  1 -1</clus>
</clustering>
</event>
<event>
 9    1  0.6270443E-005  0.9326065E+02  0.7546771E-02  0.1301821E+00
          1   -1    0    0  502    0 -0.00000000000E+00  0.00000000000E+00  0.71486939218E+03  0.71486939218E+03  0.00000000000E+00 0. -1.
         21   -1    0    0  501  502  0.00000000000E+00 -0.00000000000E+00 -0.16049198477E+02  0.16049198477E+02  0.00000000000E+00 0. -1.
        -24    2    1    2    0    0 -0.79483489617E+01 -0.12693286117E+02  0.37583818649E+03  0.38450617869E+03  0.79789493412E+02 0.  0.
         23    2    1    2    0    0  0.78386364395E+00  0.36625274898E+02  0.22765150800E+03  0.24786306384E+03  0.90933294883E+02 0.  0.
         11    1    3    3    0    0 -0.25164385857E+02 -0.27871380737E+02  0.87004410081E+02  0.94761952034E+02  0.00000000000E+00 0. -1.
        -12    1    3    3    0    0  0.17216036895E+02  0.15178094620E+02  0.28883377641E+03  0.28974422665E+03  0.00000000000E+00 0.  1.
        -13    1    4    4    0    0 -0.43861067305E+02  0.71990459125E+01  0.10938745823E+03  0.11807300922E+03  0.00000000000E+00 0.  1.
         13    1    4    4    0    0  0.44644930948E+02  0.29426228986E+02  0.11826404977E+03  0.12979005462E+03  0.00000000000E+00 0. -1.
          2    1    1    2  501    0  0.71644853178E+01 -0.23931988781E+02  0.95330499210E+02  0.98549348129E+02  0.00000000000E+00 0. -1.
<scales pt_clust_5="13000.00000" pt_clust_6="13000.00000" pt_clust_7="13000.00000" pt_clust_8="13000.00000" pt_clust_9="24.98140"></scales>
<clustering>
<clus scale="   24.981">  2  9  1 -1</clus>
<clus scale="   79.789">  5  6 -1 -1</clus>
<clus scale="   82.432">  1  5  2 -1</clus>
<clus scale="   90.933">  7  8 -1 -1</clus>
<clus scale="   24.981">  2  5  1 -1</clus>
</clustering>
</event>
<event>
 9    1  0.6270443E-005  0.1225262E+03  0.7546771E-02  0.1244425E+00
         21   -1    0    0  501  502  0.00000000000E+00  0.00000000000E+00  0.90908713647E+02  0.90908713647E+02  0.00000000000E+00 0.  1.
         -2   -1    0    0    0  501 -0.00000000000E+00 -0.00000000000E+00 -0.34365342920E+03  0.34365342920E+03  0.00000000000E+00 0.  1.
        -24    2    1    2    0    0  0.79481139061E+02  0.54485979315E+01 -0.11211485200E+03  0.15894238516E+03  0.79661804362E+02 0.  0.
         23    2    1    2    0    0 -0.54644065576E+02  0.85580523133E+02 -0.63755709283E+02  0.15391184219E+03  0.96509402945E+02 0.  0.
         13    1    3    3    0    0  0.18112475416E+02  0.37476727049E+02 -0.56321315611E+02  0.70033259443E+02  0.00000000000E+00 0. -1.
        -14    1    3    3    0    0  0.61368663645E+02 -0.32028129118E+02 -0.55793536389E+02  0.88909125713E+02  0.00000000000E+00 0.  1.
        -11    1    4    4    0    0 -0.94779986485E+01  0.92564981181E+02 -0.32577566279E+02  0.98587047953E+02  0.00000000000E+00 0.  1.
         11    1    4    4    0    0 -0.45166066928E+02 -0.69844580474E+01 -0.31178143004E+02  0.55324794234E+02  0.00000000000E+00 0. -1.
         -1    1    1    2    0  502 -0.24837073485E+02 -0.91029121065E+02 -0.76874154269E+02  0.12170791550E+03  0.00000000000E+00 0.  1.
<scales pt_clust_5="13000.00000" pt_clust_6="13000.00000" pt_clust_7="13000.00000" pt_clust_8="13000.00000" pt_clust_9="94.35672"></scales>
<clustering>
<clus scale="   79.662">  5  6 -1 -1</clus>
<clus scale="   94.357">  1  9  2 -1</clus>
<clus scale="   96.509">  7  8 -1 -1</clus>
<clus scale="  109.748">  2  5  1 -1</clus>
<clus scale="   94.357">  1  5  2 -1</clus>
</clustering>
</event>
<event>
 9    1  0.6270443E-005  0.1359440E+03  0.7546771E-02  0.1221365E+00
          1   -1    0    0  502    0 -0.00000000000E+00  0.00000000000E+00  0.42929460636E+03  0.42929460636E+03  0.00000000000E+00 0. -1.
         21   -1    0    0  501  502  0.00000000000E+00 -0.00000000000E+00 -0.10696061026E+03  0.10696061026E+03  0.00000000000E+00 0. -1.
        -24    2    1    2    0    0  0.47320174291E+02 -0.11289914343E+03  0.24413169759E+03  0.28428562893E+03  0.78946928805E+02 0.  0.
         23    2    1    2    0    0 -0.40307954841E+02  0.68475062641E+02  0.13433709956E+03  0.18004055277E+03  0.89747305783E+02 0.  0.
         11    1    3    3    0    0  0.38339230071E+02 -0.98011139115E+02  0.24523479500E+03  0.26686360679E+03  0.00000000000E+00 0. -1.
        -12    1    3    3    0    0  0.89809442200E+01 -0.14888004313E+02 -0.11030974086E+01  0.17422022139E+02  0.00000000000E+00 0.  1.
        -13    1    4    4    0    0 -0.14574245097E+02  0.68372183452E+02  0.13736331668E+03  0.15412931213E+03  0.00000000000E+00 0.  1.
         13    1    4    4    0    0 -0.25733709744E+02  0.10287918826E+00 -0.30262171129E+01  0.25911240636E+02  0.00000000000E+00 0. -1.
          2    1    1    2  501    0 -0.70122194506E+01  0.44424080788E+02 -0.56134801056E+02  0.71929034924E+02  0.00000000000E+00 0. -1.
<scales pt_clust_5="13000.00000" pt_clust_6="13000.00000" pt_clust_7="13000.00000" pt_clust_8="13000.00000" pt_clust_9="44.97411"></scales>
<clustering>
<clus scale="   44.974">  2  9  1 -1</clus>
<clus scale="   78.947">  5  6 -1 -1</clus>
<clus scale="   89.747">  7  8 -1 -1</clus>
<clus scale="  129.069">  1  5  2 -1</clus>
<clus scale="   44.974">  2  5  1 -1</clus>
</clustering>
</event>
<event>
 9    1  0.6270443E-005  0.1122851E+03  0.7546771E-02  0.1259656E+00
          1   -1    0    0  502    0 -0.00000000000E+00  0.00000000000E+00  0.73274382634E+02  0.73274382634E+02  0.00000000000E+00 0. -1.
         21   -1    0    0  501  502  0.00000000000E+00 -0.00000000000E+00 -0.36158827047E+03  0.36158827047E+03  0.00000000000E+00 0. -1.
         23    2    1    2    0    0 -0.66918126450E+02 -0.17401593621E+02 -0.10217896736E+03  0.14281277987E+03  0.71931200568E+02 0.  0.
        -24    2    1    2    0    0  0.75092645575E+02  0.59720160847E+02 -0.20836803873E+03  0.24355249762E+03  0.81824058234E+02 0.  0.
         13    1    4    4    0    0  0.41782063677E+02  0.76349326439E+02 -0.16373852503E+03  0.18543264295E+03  0.00000000000E+00 0. -1.
        -14    1    4    4    0    0  0.33310581898E+02 -0.16629165592E+02 -0.44629513697E+02  0.58119854675E+02  0.00000000000E+00 0.  1.
        -13    1    3    3    0    0  0.16167259945E-01 -0.29051299861E+02 -0.16309639124E+02  0.33316401566E+02  0.00000000000E+00 0.  1.
         13    1    3    3    0    0 -0.66934293710E+02  0.11649706240E+02 -0.85869328231E+02  0.10949637830E+03  0.00000000000E+00 0. -1.
          2    1    1    2  501    0 -0.81745191253E+01 -0.42318567226E+02  0.22233118241E+02  0.48497375617E+02  0.00000000000E+00 0. -1.
<scales pt_clust_5="13000.00000" pt_clust_6="13000.00000" pt_clust_7="13000.00000" pt_clust_8="13000.00000" pt_clust_9="43.10088"></scales>
<clustering>
<clus scale="   43.101">  2  9  1 -1</clus>
<clus scale="   71.931">  7  8 -1 -1</clus>
<clus scale="   81.824">  5  6 -1 -1</clus>
<clus scale="  105.294">  1  7  2 -1</clus>
<clus scale="   43.101">  2  5  1 -1</clus>
</clustering>
</event>
<event>
 9    1  0.6270443E-005  0.1146387E+03  0.7546771E-02  0.1256093E+00
         21   -1    0    0  501  502  0.00000000000E+00  0.00000000000E+00  0.74514156431E+02  0.74514156431E+02  0.00000000000E+00 0. -1.
          1   -1    0    0  502    0 -0.00000000000E+00 -0.00000000000E+00 -0.44958323988E+03  0.44958323988E+03  0.00000000000E+00 0. -1.
        -24    2    1    2    0    0  0.18333682084E+02 -0.10529136973E+03 -0.26604746212E+03  0.29789528362E+03  0.80857599924E+02 0.  0.
         23    2    1    2    0    0  0.51393514970E+01  0.26218869440E+02 -0.10734555697E+03  0.14370209572E+03  0.91724487819E+02 0.  0.
         11    1    3    3    0    0 -0.94808263832E+01 -0.70895298120E+02 -0.82947330438E+02  0.10952757183E+03  0.00000000000E+00 0. -1.
        -12    1    3    3    0    0  0.27814508467E+02 -0.34396071609E+02 -0.18310013168E+03  0.18836771179E+03  0.00000000000E+00 0.  1.
        -11    1    4    4    0    0  0.46045378587E+02  0.14417515104E+01 -0.39433807457E+02  0.60640586304E+02  0.00000000000E+00 0. -1.
         11    1    4    4    0    0 -0.40906027090E+02  0.24777117930E+02 -0.67911749514E+02  0.83061509421E+02  0.00000000000E+00 0.  1.
          2    1    1    2  501    0 -0.23473033581E+02  0.79072500288E+02 -0.16760643574E+01  0.82500016964E+02  0.00000000000E+00 0. -1.
<scales pt_clust_5="13000.00000" pt_clust_6="13000.00000" pt_clust_7="13000.00000" pt_clust_8="13000.00000" pt_clust_9="82.48299"></scales>
<clustering>
<clus scale="   80.858">  5  6 -1 -1</clus>
<clus scale="   82.483">  1  9  2 -1</clus>
<clus scale="   91.724">  7  8 -1 -1</clus>
<clus scale="  106.144">  2  5  1 -1</clus>
<clus scale="   82.483">  1  5  2 -1</clus>
</clustering>
</event>
<event>
 9    1  0.6270443E-005  0.1066841E+03  0.7546771E-02  0.1269870E+00
         21   -1    0    0  501  502  0.00000000000E+00  0.00000000000E+00  0.92371174836E+03  0.92371174836E+03  0.00000000000E+00 0. -1.
          3   -1    0    0  502    0 -0.00000000000E+00 -0.00000000000E+00 -0.38912521596E+02  0.38912521596E+02  0.00000000000E+00 0. -1.
        -24    2    1    2    0    0  0.47489464639E+02  0.17437568932E+02  0.81486327368E+02  0.12558626421E+03  0.81071389211E+02 0.  0.
         23    2    1    2    0    0 -0.71498129500E+02 -0.98301626739E+02  0.53985866096E+03  0.56040910707E+03  0.88520060601E+02 0.  0.
         13    1    3    3    0    0 -0.13090399442E+02 -0.17939584695E+02  0.34924503810E+02  0.41387295429E+02  0.00000000000E+00 0. -1.
        -14    1    3    3    0    0  0.60579864081E+02  0.35377153628E+02  0.46561823558E+02  0.84198968782E+02  0.00000000000E+00 0.  1.
        -11    1    4    4    0    0 -0.67392521012E+02 -0.19402680012E+02  0.28988647617E+03  0.29824886411E+03  0.00000000000E+00 0.  1.
         11    1    4    4    0    0 -0.41056084874E+01 -0.78898946727E+02  0.24997218480E+03  0.26216024296E+03  0.00000000000E+00 0. -1.
          4    1    1    2  501    0  0.24008664860E+02  0.80864057807E+02  0.26345423843E+03  0.27662889867E+03  0.00000000000E+00 0. -1.
<scales pt_clust_5="13000.00000" pt_clust_6="13000.00000" pt_clust_7="13000.00000" pt_clust_8="13000.00000" pt_clust_9="84.35290"></scales>
<clustering>
<clus scale="   81.071">  5  6 -1 -1</clus>
<clus scale="   84.353">  1  9  2 -1</clus>
<clus scale="   88.520">  7  8 -1 -1</clus>
<clus scale="  100.590">  2  5  1 -1</clus>
<clus scale="   84.353">  1  5  2 -1</clus>
</clustering>
</event>
<event>
 9    1  0.6270443E-005  0.1093051E+03  0.7546771E-02  0.1266133E+00
          3   -1    0    0  502    0 -0.00000000000E+00  0.00000000000E+00  0.15278943250E+03  0.15278943250E+03  0.00000000000E+00 0. -1.
         21   -1    0    0  501  502  0.00000000000E+00 -0.00000000000E+00 -0.11608224067E+03  0.11608224067E+03  0.00000000000E+00 0. -1.
        -24    2    1    2    0    0 -0.16518670816E+02  0.47768717868E+02  0.31961010566E+02  0.99731228425E+02  0.79812873865E+02 0.  0.
         23    2    1    2    0    0  0.60129403105E+02 -0.57408564407E+02  0.13288248735E+02  0.12366749093E+03  0.90585773577E+02 0.  0.
         11    1    3    3    0    0 -0.19919153700E+02  0.46772786145E+02  0.55883617283E+02  0.75547633242E+02  0.00000000000E+00 0. -1.
        -12    1    3    3    0    0  0.34004828838E+01  0.99593172301E+00 -0.23922606717E+02  0.24183595183E+02  0.00000000000E+00 0.  1.
        -11    1    4    4    0    0  0.15739253473E+02 -0.68803729870E+02 -0.11581684206E+02  0.71524910017E+02  0.00000000000E+00 0.  1.
         11    1    4    4    0    0  0.44390149632E+02  0.11395165463E+02  0.24869932941E+02  0.52142580918E+02  0.00000000000E+00 0. -1.
          4    1    1    2  501    0 -0.43610732289E+02  0.96398465391E+01 -0.85420674706E+01  0.45472953816E+02  0.00000000000E+00 0. -1.
<scales pt_clust_5="13000.00000" pt_clust_6="13000.00000" pt_clust_7="13000.00000" pt_clust_8="13000.00000" pt_clust_9="44.66344"></scales>
<clustering>
<clus scale="   44.663">  2  9  1 -1</clus>
<clus scale="   79.813">  5  6 -1 -1</clus>
<clus scale="   90.586">  7  8 -1 -1</clus>
<clus scale="  100.558">  1  5  2 -1</clus>
<clus scale="   44.663">  2  5  1 -1</clus>
</clustering>
</event>
<event>
 9    1  0.6270443E-005  0.1079715E+03  0.7546771E-02  0.1272351E+00
         21   -1    0    0  501  502  0.00000000000E+00  0.00000000000E+00  0.35970460543E+02  0.35970460543E+02  0.00000000000E+00 0. -1.
         -4   -1    0    0    0  501 -0.00000000000E+00 -0.00000000000E+00 -0.91291119992E+03  0.91291119992E+03  0.00000000000E+00 0.  1.
        -24    2    1    2    0    0 -0.56278215479E+02 -0.92242479047E+00 -0.62863736418E+03  0.63542151319E+03  0.73535538219E+02 0.  0.
         23    2    1    2    0    0  0.53274480192E+02  0.30094078026E+02 -0.25945770849E+03  0.28208456873E+03  0.92247372043E+02 0.  0.
         11    1    3    3    0    0  0.10597244556E+02 -0.17263886188E+02 -0.81946716564E+02  0.84413314792E+02  0.00000000000E+00 0. -1.
        -12    1    3    3    0    0 -0.66875460035E+02  0.16341461397E+02 -0.54669064761E+03  0.55100819840E+03  0.00000000000E+00 0.  1.
        -11    1    4    4    0    0  0.58333666008E+01 -0.31615707304E+02 -0.91030138056E+02  0.96540494864E+02  0.00000000000E+00 0.  1.
         11    1    4    4    0    0  0.47441113592E+02  0.61709785330E+02 -0.16842757043E+03  0.18554407386E+03  0.00000000000E+00 0. -1.
         -3    1    1    2    0  502  0.30037352869E+01 -0.29171653235E+02  0.11154333284E+02  0.31375578547E+02  0.00000000000E+00 0.  1.
<scales pt_clust_5="13000.00000" pt_clust_6="13000.00000" pt_clust_7="13000.00000" pt_clust_8="13000.00000" pt_clust_9="29.32589"></scales>
<clustering>
<clus scale="   29.326">  1  9  2 -1</clus>
<clus scale="   73.536">  5  6 -1 -1</clus>
<clus scale="   92.247">  7  8 -1 -1</clus>
<clus scale="   92.497">  2  5  1 -1</clus>
<clus scale="   29.326">  1  5  2 -1</clus>
</clustering>
</event>
<event>
 9    1  0.6270443E-005  0.1013159E+03  0.7546771E-02  0.1282938E+00
          1   -1    0    0  502    0 -0.00000000000E+00  0.00000000000E+00  0.43329823527E+03  0.43329823527E+03  0.00000000000E+00 0. -1.
         21   -1    0    0  501  502  0.00000000000E+00 -0.00000000000E+00 -0.58184792963E+02  0.58184792963E+02  0.00000000000E+00 0.  1.
         23    2    1    2    0    0  0.28603213572E+02 -0.32543245724E+02  0.34375527040E+03  0.35822873783E+03  0.91010636783E+02 0.  0.
        -24    2    1    2    0    0 -0.11848007300E+02  0.54101890122E+02  0.39254725008E+02  0.10483127796E+03  0.79882874327E+02 0.  0.
         13    1    4    4    0    0  0.23164671316E+02  0.22001707839E+02  0.46871325413E+02  0.56723877609E+02  0.00000000000E+00 0. -1.
        -14    1    4    4    0    0 -0.35012678617E+02  0.32100182283E+02 -0.76166004043E+01  0.48107400348E+02  0.00000000000E+00 0.  1.
        -13    1    3    3    0    0 -0.22173028008E+02 -0.38533443663E+02  0.10436659413E+03  0.11344097770E+03  0.00000000000E+00 0.  1.
         13    1    3    3    0    0  0.50776241581E+02  0.59901979390E+01  0.23938867627E+03  0.24478776012E+03  0.00000000000E+00 0. -1.
          2    1    1    2  501    0 -0.16755206272E+02 -0.21558644398E+02 -0.78965531072E+01  0.28423012445E+02  0.00000000000E+00 0. -1.
<scales pt_clust_5="13000.00000" pt_clust_6="13000.00000" pt_clust_7="13000.00000" pt_clust_8="13000.00000" pt_clust_9="27.30407"></scales>
<clustering>
<clus scale="   27.304">  2  9  1 -1</clus>
<clus scale="   79.883">  5  6 -1 -1</clus>
<clus scale="   91.011">  7  8 -1 -1</clus>
<clus scale="   91.451">  2  5  1 -1</clus>
<clus scale="   27.304">  2  5  1 -1</clus>
</clustering>
</event>
<event>
 9    1  0.6270443E-005  0.9796616E+02  0.7546771E-02  0.1291278E+00
         21   -1    0    0  501  502  0.00000000000E+00  0.00000000000E+00  0.22032015023E+03  0.22032015023E+03  0.00000000000E+00 0.  1.
          1   -1    0    0  502    0 -0.00000000000E+00 -0.00000000000E+00 -0.10656061995E+03  0.10656061995E+03  0.00000000000E+00 0. -1.
         23    2    1    2    0    0  0.29244213363E+02  0.32970753399E+02 -0.55048931598E+02  0.11492554934E+03  0.90748016101E+02 0.  0.
        -24    2    1    2    0    0 -0.85111159950E+00 -0.20673905931E+02  0.65398199066E+02  0.10401513032E+03  0.78192634675E+02 0.  0.
         11    1    4    4    0    0 -0.21652785099E+01  0.22626197053E+02  0.54931869795E+02  0.59448663091E+02  0.00000000000E+00 0. -1.
        -12    1    4    4    0    0  0.13141669104E+01 -0.43300102983E+02  0.10466329271E+02  0.44566467231E+02  0.00000000000E+00 0.  1.
        -11    1    3    3    0    0  0.39641432375E+02 -0.14398731609E+02 -0.83256354235E+00  0.42183643687E+02  0.00000000000E+00 0.  1.
         11    1    3    3    0    0 -0.10397219011E+02  0.47369485007E+02 -0.54216368056E+02  0.72741905654E+02  0.00000000000E+00 0. -1.
          2    1    1    2  501    0 -0.28393101764E+02 -0.12296847468E+02  0.10341026281E+03  0.10794009051E+03  0.00000000000E+00 0. -1.
<scales pt_clust_5="13000.00000" pt_clust_6="13000.00000" pt_clust_7="13000.00000" pt_clust_8="13000.00000" pt_clust_9="30.94157"></scales>
<clustering>
<clus scale="   30.942">  1  9  2 -1</clus>
<clus scale="   78.193">  5  6 -1 -1</clus>
<clus scale="   86.465">  1  5  2 -1</clus>
<clus scale="   90.748">  7  8 -1 -1</clus>
<clus scale="   30.942">  1  5  2 -1</clus>
</clustering>
</event>
<event>
 9    1  0.6270443E-005  0.1944560E+03  0.7546771E-02  0.1155908E+00
          1   -1    0    0  502    0 -0.00000000000E+00  0.00000000000E+00  0.64695501670E+03  0.64695501670E+03  0.00000000000E+00 0. -1.
         21   -1    0    0  501  502  0.00000000000E+00 -0.00000000000E+00 -0.14094073188E+03  0.14094073188E+03  0.00000000000E+00 0. -1.
        -24    2    1    2    0    0  0.80187611248E+02 -0.15921199297E+03  0.30267844420E+03  0.36011966010E+03  0.79331061435E+02 0.  0.
         23    2    1    2    0    0 -0.15649340082E+03  0.74683912543E+02  0.25338241545E+01  0.19693194252E+03  0.93316120928E+02 0.  0.
         13    1    3    3    0    0  0.76288478079E+02 -0.10552561226E+03  0.26225806741E+03  0.29280519232E+03  0.00000000000E+00 0. -1.
        -14    1    3    3    0    0  0.38991331696E+01 -0.53686380706E+02  0.40420376792E+02  0.67314467782E+02  0.00000000000E+00 0.  1.
        -11    1    4    4    0    0 -0.48068630601E+02  0.68034933046E+02  0.22939537430E+02  0.86403516942E+02  0.00000000000E+00 0.  1.
         11    1    4    4    0    0 -0.10842477022E+03  0.66489794974E+01 -0.20405713275E+02  0.11052842557E+03  0.00000000000E+00 0. -1.
          2    1    1    2  501    0  0.76305789573E+02  0.84528080423E+02  0.20080201647E+03  0.23084414595E+03  0.00000000000E+00 0. -1.
<scales pt_clust_5="13000.00000" pt_clust_6="13000.00000" pt_clust_7="13000.00000" pt_clust_8="13000.00000" pt_clust_9="113.87530"></scales>
<clustering>
<clus scale="   79.331">  5  6 -1 -1</clus>
<clus scale="   93.316">  7  8 -1 -1</clus>
<clus scale="  113.875">  2  9  1 -1</clus>
<clus scale="  188.145">  1  5  2 -1</clus>
<clus scale="  113.875">  2  5  1 -1</clus>
</clustering>
</event>
<event>
 9    1  0.6270443E-005  0.1163948E+03  0.7546771E-02  0.1252781E+00
          1   -1    0    0  502    0 -0.00000000000E+00  0.00000000000E+00  0.84086082859E+02  0.84086082859E+02  0.00000000000E+00 0. -1.
         21   -1    0    0  501  502  0.00000000000E+00 -0.00000000000E+00 -0.32660336562E+03  0.32660336562E+03  0.00000000000E+00 0. -1.
        -24    2    1    2    0    0 -0.53165537944E+02  0.17351373238E+02 -0.11758452066E+03  0.15293648118E+03  0.80223457911E+02 0.  0.
         23    2    1    2    0    0  0.94612851952E+02 -0.15074829405E+02 -0.15711467889E+03  0.20522927494E+03  0.90858080178E+02 0.  0.
         11    1    3    3    0    0 -0.65563824383E+02  0.16509189680E+02 -0.49670104489E+02  0.83894503346E+02  0.00000000000E+00 0. -1.
        -12    1    3    3    0    0  0.12398286439E+02  0.84218355801E+00 -0.67914416167E+02  0.69041977833E+02  0.00000000000E+00 0.  1.
        -11    1    4    4    0    0 -0.25632067743E+01 -0.31836261798E+02 -0.52595742132E+02  0.61533971793E+02  0.00000000000E+00 0.  1.
         11    1    4    4    0    0  0.97176058726E+02  0.16761432393E+02 -0.10451893676E+03  0.14369530315E+03  0.00000000000E+00 0. -1.
          2    1    1    2  501    0 -0.41447314008E+02 -0.22765438332E+01  0.32181916791E+02  0.52523692355E+02  0.00000000000E+00 0. -1.
<scales pt_clust_5="13000.00000" pt_clust_6="13000.00000" pt_clust_7="13000.00000" pt_clust_8="13000.00000" pt_clust_9="41.50981"></scales>
<clustering>
<clus scale="   41.510">  2  9  1 -1</clus>
<clus scale="   80.223">  5  6 -1 -1</clus>
<clus scale="   90.858">  7  8 -1 -1</clus>
<clus scale="  108.298">  1  5  2 -1</clus>
<clus scale="   41.510">  2  5  1 -1</clus>
</clustering>
</event>
